<event>
 6    0  0.1080632E+003  0.9658716E+02  0.7546771E-02  0.1287641E+00
         21   -1    0    0  502  501  0.00000000000E+00  0.00000000000E+00  0.83567652181E+03  0.83567652181E+03  0.00000000000E+00 0. -1.
         21   -1    0    0  506  502 -0.00000000000E+00 -0.00000000000E+00 -0.49440121813E+02  0.49440121813E+02  0.00000000000E+00 0.  1.
         21    1    1    2  503  504  0.36438228043E+01 -0.59892726949E+02  0.15096464357E+03  0.16245226928E+03  0.00000000000E+00 0. -1.
         21    1    1    2  504  505 -0.40260211843E+01 -0.52804033091E+02  0.27509876489E+03  0.28014961217E+03  0.00000000000E+00 0. -1.
         21    1    1    2  505  501  0.44815975745E+02  0.66586182479E+02  0.36921997789E+03  0.37784333189E+03  0.00000000000E+00 0. -1.
         21    1    1    2  506  503 -0.44433777365E+02  0.46110577561E+02 -0.90469863437E+01  0.64671430291E+02  0.00000000000E+00 0.  1.
<scales pt_clust_3="38.34176" pt_clust_4="38.34176" pt_clust_5="87.54077" pt_clust_6="64.03551"></scales>
<clustering>
<clus scale="   38.342">  3  4 -1 -1</clus>
<clus scale="   64.036">  2  6  1 -1</clus>
<clus scale="   87.541">  1  5  2 -1</clus>
<clus scale="   87.541">  1  3  2 -1</clus>
</clustering>
</event>
<event>
 6    0  0.1080632E+003  0.1408992E+03  0.7546771E-02  0.1212124E+00
         21   -1    0    0  506  501  0.00000000000E+00  0.00000000000E+00  0.32643002765E+03  0.32643002765E+03  0.00000000000E+00 0.  1.
         21   -1    0    0  503  502 -0.00000000000E+00 -0.00000000000E+00 -0.41165815954E+03  0.41165815954E+03  0.00000000000E+00 0. -1.
         21    1    1    2  503  504  0.18432503864E+02  0.10901382270E+03  0.15935514792E+02  0.11170367661E+03  0.00000000000E+00 0.  1.
         21    1    1    2  504  505  0.25301074037E+02 -0.89401168522E+02  0.10791587318E+03  0.14240277021E+03  0.00000000000E+00 0.  1.
         21    1    1    2  505  501  0.33864417165E+02 -0.52065557721E+02  0.12494449942E+03  0.13953045899E+03  0.00000000000E+00 0.  1.
         21    1    1    2  506  502 -0.77597995066E+02  0.32452903548E+02 -0.33402401928E+03  0.34445128138E+03  0.00000000000E+00 0. -1.
<scales pt_clust_3="134.54953" pt_clust_4="34.19309" pt_clust_5="34.19309" pt_clust_6="84.11088"></scales>
<clustering>
<clus scale="   34.193">  4  5 -1 -1</clus>
<clus scale="   84.111">  2  6  1 -1</clus>
<clus scale="  134.550">  2  3  1 -1</clus>
<clus scale="  140.899">  1  3  2 -1</clus>
</clustering>
</event>
<event>
 6    0  0.1080632E+003  0.6264520E+02  0.7546771E-02  0.1387055E+00
         21   -1    0    0  503  501  0.00000000000E+00  0.00000000000E+00  0.15610453433E+03  0.15610453433E+03  0.00000000000E+00 0.  1.
         21   -1    0    0  504  502 -0.00000000000E+00 -0.00000000000E+00 -0.28902282881E+03  0.28902282881E+03  0.00000000000E+00 0. -1.
         21    1    1    2  503  506  0.48292464101E+01  0.31457165569E+02  0.71609210782E+01  0.32621368414E+02  0.00000000000E+00 0.  1.
         21    1    1    2  504  501 -0.53908483756E+02 -0.19044187315E+02  0.26804702799E+02  0.63145053516E+02  0.00000000000E+00 0. -1.
         21    1    1    2  505  502 -0.32083801517E+02  0.51874486140E+02 -0.22327856578E+03  0.23145982496E+03  0.00000000000E+00 0. -1.
         21    1    1    2  506  505  0.81163038863E+02 -0.64287464393E+02  0.56394647419E+02  0.11790111625E+03  0.00000000000E+00 0.  1.
<scales pt_clust_3="31.82570" pt_clust_4="53.02552" pt_clust_5="14000.00000" pt_clust_6="62.64520"></scales>
<clustering>
<clus scale="   31.826">  1  3  2 -1</clus>
<clus scale="   53.026">  1  4  2 -1</clus>
<clus scale="   62.645">  1  6  2 -1</clus>
<clus scale="   31.826">  1  3  2 -1</clus>
</clustering>
</event>
<event>
 6    0  0.1080632E+003  0.9233980E+02  0.7546771E-02  0.1297282E+00
         21   -1    0    0  505  501  0.00000000000E+00  0.00000000000E+00  0.32073324821E+02  0.32073324821E+02  0.00000000000E+00 0. -1.
         21   -1    0    0  503  502 -0.00000000000E+00 -0.00000000000E+00 -0.15402342894E+04  0.15402342894E+04  0.00000000000E+00 0.  1.
         21    1    1    2  503  504 -0.76722005567E+02 -0.64130070105E+02 -0.11697156991E+04  0.11739820053E+04  0.00000000000E+00 0.  1.
         21    1    1    2  504  501  0.65257334335E+02 -0.98874196190E+01 -0.33121208730E+02  0.73846429968E+02  0.00000000000E+00 0. -1.
         21    1    1    2  505  506 -0.33698292832E+02  0.19106162215E+02 -0.10752662751E+03  0.11429171448E+03  0.00000000000E+00 0. -1.
         21    1    1    2  506  502  0.45162964064E+02  0.54911327508E+02 -0.19779742920E+03  0.21018746444E+03  0.00000000000E+00 0.  1.
<scales pt_clust_3="92.33980" pt_clust_4="41.50358" pt_clust_5="38.73784" pt_clust_6="14000.00000"></scales>
<clustering>
<clus scale="   38.738">  1  5  2 -1</clus>
<clus scale="   41.504">  1  4  2 -1</clus>
<clus scale="   92.340">  2  3  1 -1</clus>
<clus scale="   38.738">  1  3  2 -1</clus>
</clustering>
</event>
<event>
 6    0  0.1080632E+003  0.1086329E+03  0.7546771E-02  0.1263123E+00
         21   -1    0    0  505  501  0.00000000000E+00  0.00000000000E+00  0.11415176831E+04  0.11415176831E+04  0.00000000000E+00 0. -1.
         21   -1    0    0  504  502 -0.00000000000E+00 -0.00000000000E+00 -0.21842697690E+02  0.21842697690E+02  0.00000000000E+00 0.  1.
         21    1    1    2  503  502 -0.71011371548E+02  0.87817460030E+02  0.29396882508E+03  0.31491616550E+03  0.00000000000E+00 0.  1.
         21    1    1    2  504  506  0.63636030261E+02 -0.82172326333E+02  0.32539128933E+03  0.34158648500E+03  0.00000000000E+00 0. -1.
         21    1    1    2  505  503 -0.36757931068E+02 -0.81184084403E+00  0.22205121712E+03  0.22507453789E+03  0.00000000000E+00 0. -1.
         21    1    1    2  506  501  0.44133272354E+02 -0.48332928527E+01  0.27826365388E+03  0.28178319240E+03  0.00000000000E+00 0. -1.
<scales pt_clust_3="108.63292" pt_clust_4="14000.00000" pt_clust_5="36.76690" pt_clust_6="33.31001"></scales>
<clustering>
<clus scale="   36.767">  1  5  2 -1</clus>
<clus scale="   33.310">  1  6  2 -1</clus>
<clus scale="  108.633">  2  3  1 -1</clus>
<clus scale="   36.767">  1  3  2 -1</clus>
</clustering>
</event>
<event>
 6    0  0.1080632E+003  0.9339677E+02  0.7546771E-02  0.1294828E+00
         21   -1    0    0  503  501  0.00000000000E+00  0.00000000000E+00  0.15893793642E+03  0.15893793642E+03  0.00000000000E+00 0. -1.
         21   -1    0    0  505  502 -0.00000000000E+00 -0.00000000000E+00 -0.60968060065E+03  0.60968060065E+03  0.00000000000E+00 0. -1.
         21    1    1    2  503  504  0.37227307444E+02 -0.22964047121E+02 -0.14948369184E+02  0.46224167067E+02  0.00000000000E+00 0.  1.
         21    1    1    2  504  502  0.99128676801E+02  0.17792417117E+02 -0.14973824747E+03  0.18045666357E+03  0.00000000000E+00 0. -1.
         21    1    1    2  505  506 -0.81323690686E+02 -0.43231367635E+02 -0.39778943046E+03  0.40831228833E+03  0.00000000000E+00 0. -1.
         21    1    1    2  506  501 -0.55032293560E+02  0.48402997640E+02  0.11173338288E+03  0.13362541811E+03  0.00000000000E+00 0. -1.
<scales pt_clust_3="43.74037" pt_clust_4="93.39677" pt_clust_5="14000.00000" pt_clust_6="36.91423"></scales>
<clustering>
<clus scale="   43.740">  1  3  2 -1</clus>
<clus scale="   36.914">  1  6  2 -1</clus>
<clus scale="   93.397">  1  4  2 -1</clus>
<clus scale="   43.740">  1  3  2 -1</clus>
</clustering>
</event>
<event>
 6    0  0.1080632E+003  0.1655769E+03  0.7546771E-02  0.1182541E+00
         21   -1    0    0  503  501  0.00000000000E+00  0.00000000000E+00  0.17598125774E+03  0.17598125774E+03  0.00000000000E+00 0.  1.
         21   -1    0    0  505  502 -0.00000000000E+00 -0.00000000000E+00 -0.24926463930E+03  0.24926463930E+03  0.00000000000E+00 0.  1.
         21    1    1    2  503  506  0.24899217529E+02 -0.61057885295E+02  0.36135041226E+02  0.75191605879E+02  0.00000000000E+00 0.  1.
         21    1    1    2  504  502  0.73542952817E+02  0.51034256581E+02 -0.32859649014E+02  0.95356267686E+02  0.00000000000E+00 0.  1.
         21    1    1    2  505  501 -0.74025189627E+02  0.11333661787E+03 -0.56364684617E+02  0.14663524584E+03  0.00000000000E+00 0.  1.
         21    1    1    2  506  504 -0.24416980719E+02 -0.10331298916E+03 -0.20194089153E+02  0.10806277765E+03  0.00000000000E+00 0.  1.
<scales pt_clust_3="62.60523" pt_clust_4="89.51570" pt_clust_5="145.27793" pt_clust_6="62.60523"></scales>
<clustering>
<clus scale="   62.605">  3  6 -1 -1</clus>
<clus scale="   89.516">  2  4  1 -1</clus>
<clus scale="  145.278">  2  5  1 -1</clus>
<clus scale="  165.577">  1  3  2 -1</clus>
</clustering>
</event>
<event>
 6    0  0.1080632E+003  0.9874188E+02  0.7546771E-02  0.1282964E+00
         21   -1    0    0  504  501  0.00000000000E+00  0.00000000000E+00  0.11538146311E+03  0.11538146311E+03  0.00000000000E+00 0. -1.
         21   -1    0    0  505  502 -0.00000000000E+00 -0.00000000000E+00 -0.37803605045E+03  0.37803605045E+03  0.00000000000E+00 0.  1.
         21    1    1    2  503  506  0.86326135808E+01  0.76112737546E+02 -0.59592101637E+02  0.97050962960E+02  0.00000000000E+00 0.  1.
         21    1    1    2  504  502 -0.42639315811E+02  0.81895656715E+01 -0.20445232668E+03  0.20901180379E+03  0.00000000000E+00 0.  1.
         21    1    1    2  505  503 -0.32864140028E+02  0.11566139464E+02 -0.48955221959E+02  0.60086945662E+02  0.00000000000E+00 0.  1.
         21    1    1    2  506  501  0.66870842259E+02 -0.95868442681E+02  0.50345062932E+02  0.12726780114E+03  0.00000000000E+00 0. -1.
<scales pt_clust_3="98.74188" pt_clust_4="65.51959" pt_clust_5="34.84002" pt_clust_6="14000.00000"></scales>
<clustering>
<clus scale="   34.840">  2  5  1 -1</clus>
<clus scale="   65.520">  2  4  1 -1</clus>
<clus scale="   98.742">  2  3  1 -1</clus>
<clus scale="   98.742">  1  3  2 -1</clus>
</clustering>
</event>
<event>
 6    0  0.1080632E+003  0.7151099E+02  0.7546771E-02  0.1355029E+00
         21   -1    0    0  505  501  0.00000000000E+00  0.00000000000E+00  0.16621717755E+03  0.16621717755E+03  0.00000000000E+00 0.  1.
         21   -1    0    0  506  502 -0.00000000000E+00 -0.00000000000E+00 -0.20524249479E+04  0.20524249479E+04  0.00000000000E+00 0.  1.
         21    1    1    2  503  504  0.42797045360E+02  0.49308876176E+02 -0.66267586797E+03  0.66588456834E+03  0.00000000000E+00 0.  1.
         21    1    1    2  504  502 -0.54197633913E+01  0.42309968664E+02 -0.17823060326E+03  0.18326389504E+03  0.00000000000E+00 0.  1.
         21    1    1    2  505  503  0.37466966359E+02 -0.49924707011E+02  0.15450236753E+03  0.16663502486E+03  0.00000000000E+00 0.  1.
         21    1    1    2  506  501 -0.74844248327E+02 -0.41694137829E+02 -0.11998036667E+04  0.12028586373E+04  0.00000000000E+00 0.  1.
<scales pt_clust_3="14000.00000" pt_clust_4="42.65568" pt_clust_5="62.29976" pt_clust_6="71.51099"></scales>
<clustering>
<clus scale="   42.656">  2  4  1 -1</clus>
<clus scale="   62.300">  1  5  2 -1</clus>
<clus scale="   71.511">  2  6  1 -1</clus>
<clus scale="   62.300">  1  3  2 -1</clus>
</clustering>
</event>
<event>
 6    0  0.1080632E+003  0.8889901E+02  0.7546771E-02  0.1305540E+00
         21   -1    0    0  503  501  0.00000000000E+00  0.00000000000E+00  0.17395924978E+03  0.17395924978E+03  0.00000000000E+00 0.  1.
         21   -1    0    0  506  502 -0.00000000000E+00 -0.00000000000E+00 -0.26244411759E+04  0.26244411759E+04  0.00000000000E+00 0. -1.
         21    1    1    2  503  504 -0.72547094337E+02  0.52526460651E+02  0.15816832780E+03  0.18176724096E+03  0.00000000000E+00 0.  1.
         21    1    1    2  504  505  0.16922269080E+02 -0.74841646482E+02 -0.54547224700E+03  0.55084263405E+03  0.00000000000E+00 0. -1.
         21    1    1    2  505  502 -0.53898649325E+01  0.38759058294E+02 -0.96839427417E+03  0.96918459825E+03  0.00000000000E+00 0. -1.
         21    1    1    2  506  501  0.61014690189E+02 -0.16443872463E+02 -0.10947837328E+04  0.10966059524E+04  0.00000000000E+00 0. -1.
<scales pt_clust_3="88.89901" pt_clust_4="14000.00000" pt_clust_5="39.13202" pt_clust_6="58.18076"></scales>
<clustering>
<clus scale="   39.132">  2  5  1 -1</clus>
<clus scale="   58.181">  2  6  1 -1</clus>
<clus scale="   88.899">  1  3  2 -1</clus>
<clus scale="   88.899">  1  3  2 -1</clus>
</clustering>
</event>
<event>
 6    0  0.1080632E+003  0.9049618E+02  0.7546771E-02  0.1301655E+00
         21   -1    0    0  504  501  0.00000000000E+00  0.00000000000E+00  0.52630761417E+03  0.52630761417E+03  0.00000000000E+00 0.  1.
         21   -1    0    0  505  502 -0.00000000000E+00 -0.00000000000E+00 -0.95282661952E+02  0.95282661952E+02  0.00000000000E+00 0.  1.
         21    1    1    2  503  501 -0.99368818159E+01  0.41149343424E+02  0.39057602957E+03  0.39286339223E+03  0.00000000000E+00 0.  1.
         21    1    1    2  504  502  0.10374765660E+03 -0.11584473972E+02 -0.73929161208E+01  0.10465386518E+03  0.00000000000E+00 0.  1.
         21    1    1    2  505  506 -0.14434819965E+02 -0.29657742671E+02  0.25266002398E+02  0.41548966353E+02  0.00000000000E+00 0.  1.
         21    1    1    2  506  503 -0.79375954823E+02  0.92873218706E-01  0.22575836372E+02  0.82524052357E+02  0.00000000000E+00 0.  1.
<scales pt_clust_3="41.99915" pt_clust_4="90.49618" pt_clust_5="32.98402" pt_clust_6="14000.00000"></scales>
<clustering>
<clus scale="   32.984">  2  5  1 -1</clus>
<clus scale="   41.999">  1  3  2 -1</clus>
<clus scale="   90.496">  2  4  1 -1</clus>
<clus scale="   41.999">  1  3  2 -1</clus>
</clustering>
</event>
<event>
 6    0  0.1080632E+003  0.1436855E+03  0.7546771E-02  0.1208454E+00
         21   -1    0    0  506  501  0.00000000000E+00  0.00000000000E+00  0.10160404742E+04  0.10160404742E+04  0.00000000000E+00 0.  1.
         21   -1    0    0  503  502 -0.00000000000E+00 -0.00000000000E+00 -0.10312498896E+03  0.10312498896E+03  0.00000000000E+00 0. -1.
         21    1    1    2  503  504 -0.27817140068E+02 -0.15100792700E+02 -0.39129522020E+02  0.50328388761E+02  0.00000000000E+00 0.  1.
         21    1    1    2  504  505 -0.11062078279E+03  0.87469521956E+02  0.52674210533E+02  0.15054051718E+03  0.00000000000E+00 0. -1.
         21    1    1    2  505  501  0.74648793703E+02 -0.48755369208E+02  0.73528659481E+03  0.74067260306E+03  0.00000000000E+00 0.  1.
         21    1    1    2  506  502  0.63789129154E+02 -0.23613360047E+02  0.16408420191E+03  0.17762395415E+03  0.00000000000E+00 0.  1.
<scales pt_clust_3="31.65165" pt_clust_4="14000.00000" pt_clust_5="143.68549" pt_clust_6="65.66098"></scales>
<clustering>
<clus scale="   31.652">  2  3  1 -1</clus>
<clus scale="   65.661">  1  6  2 -1</clus>
<clus scale="  143.685">  1  5  2 -1</clus>
<clus scale="   65.661">  1  3  2 -1</clus>
</clustering>
</event>
<event>
 6    0  0.1080632E+003  0.9811310E+02  0.7546771E-02  0.1284315E+00
         21   -1    0    0  505  501  0.00000000000E+00  0.00000000000E+00  0.10783763107E+04  0.10783763107E+04  0.00000000000E+00 0. -1.
         21   -1    0    0  504  502 -0.00000000000E+00 -0.00000000000E+00 -0.14589056030E+03  0.14589056030E+03  0.00000000000E+00 0. -1.
         21    1    1    2  503  506 -0.63461543174E+02  0.14377500278E+02  0.29328737988E+03  0.30041898604E+03  0.00000000000E+00 0. -1.
         21    1    1    2  504  501  0.38480295733E+02 -0.97099098497E+01  0.45925855327E+03  0.46097010127E+03  0.00000000000E+00 0. -1.
         21    1    1    2  505  503 -0.51524896790E+02  0.45415652286E+02  0.30236770696E+03  0.31007035762E+03  0.00000000000E+00 0. -1.
         21    1    1    2  506  502  0.76506144231E+02 -0.50083242714E+02 -0.12242788967E+03  0.15280742611E+03  0.00000000000E+00 0. -1.
<scales pt_clust_3="32.21082" pt_clust_4="39.68647" pt_clust_5="32.21082" pt_clust_6="92.36355"></scales>
<clustering>
<clus scale="   32.211">  3  5 -1 -1</clus>
<clus scale="   39.686">  1  4  2 -1</clus>
<clus scale="   92.364">  2  6  1 -1</clus>
<clus scale="   39.686">  1  3  2 -1</clus>
</clustering>
</event>
<event>
 6    0  0.1080632E+003  0.1134720E+03  0.7546771E-02  0.1254272E+00
         21   -1    0    0  506  501  0.00000000000E+00  0.00000000000E+00  0.61590130356E+03  0.61590130356E+03  0.00000000000E+00 0. -1.
         21   -1    0    0  503  502 -0.00000000000E+00 -0.00000000000E+00 -0.25199581112E+03  0.25199581112E+03  0.00000000000E+00 0.  1.
         21    1    1    2  503  505  0.10200752956E+03  0.57528196249E+02 -0.14071488857E+03  0.18307296173E+03  0.00000000000E+00 0.  1.
         21    1    1    2  504  502 -0.71259506189E+02 -0.78351103737E+02  0.27489670477E+02  0.10941889536E+03  0.00000000000E+00 0. -1.
         21    1    1    2  505  501  0.18856044647E+02  0.74675012460E+02 -0.14483522699E+02  0.78368873511E+02  0.00000000000E+00 0.  1.
         21    1    1    2  506  504 -0.49604068017E+02 -0.53852104972E+02  0.49161423324E+03  0.49703638408E+03  0.00000000000E+00 0. -1.
<scales pt_clust_3="14000.00000" pt_clust_4="113.47195" pt_clust_5="60.80547" pt_clust_6="73.21621"></scales>
<clustering>
<clus scale="   73.216">  1  6  2 -1</clus>
<clus scale="   60.805">  1  5  2 -1</clus>
<clus scale="  113.472">  1  4  2 -1</clus>
<clus scale="   73.216">  1  3  2 -1</clus>
</clustering>
</event>
<event>
 6    0  0.1080632E+003  0.1223337E+03  0.7546771E-02  0.1239296E+00
         21   -1    0    0  506  501  0.00000000000E+00  0.00000000000E+00  0.11218268886E+04  0.11218268886E+04  0.00000000000E+00 0.  1.
         21   -1    0    0  505  502 -0.00000000000E+00 -0.00000000000E+00 -0.68237533039E+03  0.68237533039E+03  0.00000000000E+00 0. -1.
         21    1    1    2  503  502  0.58925721754E+02 -0.10639294854E+03 -0.64239115024E+03  0.65380279143E+03  0.00000000000E+00 0. -1.
         21    1    1    2  504  503  0.40675842213E+02  0.47796433334E+01  0.94849234531E+02  0.10331382493E+03  0.00000000000E+00 0.  1.
         21    1    1    2  505  501 -0.75272718220E+02  0.12315509593E+03  0.14543915750E+03  0.20490414417E+03  0.00000000000E+00 0.  1.
         21    1    1    2  506  504 -0.24328845746E+02 -0.21541790728E+02  0.84155431644E+03  0.84218145847E+03  0.00000000000E+00 0.  1.
<scales pt_clust_3="122.33369" pt_clust_4="32.19141" pt_clust_5="14000.00000" pt_clust_6="32.49525"></scales>
<clustering>
<clus scale="   32.495">  1  6  2 -1</clus>
<clus scale="   32.191">  1  4  2 -1</clus>
<clus scale="  122.334">  2  3  1 -1</clus>
<clus scale="   32.495">  1  3  2 -1</clus>
</clustering>
</event>
<event>
 6    0  0.1080632E+003  0.1918276E+03  0.7546771E-02  0.1156823E+00
         21   -1    0    0  503  501  0.00000000000E+00  0.00000000000E+00  0.31100486382E+03  0.31100486382E+03  0.00000000000E+00 0.  1.
         21   -1    0    0  505  502 -0.00000000000E+00 -0.00000000000E+00 -0.14651504809E+04  0.14651504809E+04  0.00000000000E+00 0.  1.
         21    1    1    2  503  506  0.77705336461E+01 -0.30900435899E+02  0.10603046789E+03  0.11071439948E+03  0.00000000000E+00 0.  1.
         21    1    1    2  504  502  0.19633395891E+03 -0.68300363624E+02  0.61718612738E+02  0.21684360782E+03  0.00000000000E+00 0.  1.
         21    1    1    2  505  501 -0.17984120409E+03  0.64520144261E+02 -0.13707246279E+04  0.13839767748E+04  0.00000000000E+00 0.  1.
         21    1    1    2  506  504 -0.24263288476E+02  0.34680655261E+02  0.48829930237E+02  0.64620562548E+02  0.00000000000E+00 0.  1.
<scales pt_clust_3="31.86249" pt_clust_4="14000.00000" pt_clust_5="191.82765" pt_clust_6="34.13880"></scales>
<clustering>
<clus scale="   31.862">  1  3  2 -1</clus>
<clus scale="   34.139">  1  6  2 -1</clus>
<clus scale="  191.828">  2  5  1 -1</clus>
<clus scale="   31.862">  1  3  2 -1</clus>
</clustering>
</event>
<event>
 6    0  0.1080632E+003  0.1248764E+03  0.7546771E-02  0.1235263E+00
         21   -1    0    0  502  501  0.00000000000E+00  0.00000000000E+00  0.10130460056E+04  0.10130460056E+04  0.00000000000E+00 0.  1.
         21   -1    0    0  506  502 -0.00000000000E+00 -0.00000000000E+00 -0.41536249249E+03  0.41536249249E+03  0.00000000000E+00 0. -1.
         21    1    1    2  503  505 -0.67013175708E+02 -0.23967108915E+02  0.44691345529E+02  0.84038707709E+02  0.00000000000E+00 0.  1.
         21    1    1    2  504  501  0.41596427239E+02  0.11894391430E+03  0.62891393667E+03  0.64141301612E+03  0.00000000000E+00 0.  1.
         21    1    1    2  505  504  0.23064708076E+02 -0.13207434871E+03  0.29822043176E+03  0.32697253748E+03  0.00000000000E+00 0.  1.
         21    1    1    2  506  503  0.23520403928E+01  0.37097543324E+02 -0.37414220088E+03  0.37598423676E+03  0.00000000000E+00 0. -1.
<scales pt_clust_3="66.12479" pt_clust_4="124.87636" pt_clust_5="14000.00000" pt_clust_6="37.17203"></scales>
<clustering>
<clus scale="   37.172">  2  6  1 -1</clus>
<clus scale="   66.125">  2  3  1 -1</clus>
<clus scale="  124.876">  1  4  2 -1</clus>
<clus scale="  124.876">  1  3  2 -1</clus>
</clustering>
</event>
<event>
 6    0  0.1080632E+003  0.1887900E+03  0.7546771E-02  0.1159557E+00
         21   -1    0    0  504  501  0.00000000000E+00  0.00000000000E+00  0.40165210761E+03  0.40165210761E+03  0.00000000000E+00 0. -1.
         21   -1    0    0  506  502 -0.00000000000E+00 -0.00000000000E+00 -0.25864485469E+03  0.25864485469E+03  0.00000000000E+00 0. -1.
         21    1    1    2  503  502 -0.20842605653E+02  0.24522931874E+02 -0.53214393549E+02  0.62189710394E+02  0.00000000000E+00 0. -1.
         21    1    1    2  504  505  0.65175654845E+02  0.24487250728E+02  0.38444240373E+02  0.79532704283E+02  0.00000000000E+00 0.  1.
         21    1    1    2  505  503 -0.22191267164E+03  0.40880788213E+02  0.21479479700E+03  0.31153375018E+03  0.00000000000E+00 0. -1.
         21    1    1    2  506  501  0.17757962245E+03 -0.89890970815E+02 -0.57017390911E+02  0.20704079745E+03  0.00000000000E+00 0. -1.
<scales pt_clust_3="32.18367" pt_clust_4="68.58089" pt_clust_5="14000.00000" pt_clust_6="188.79000"></scales>
<clustering>
<clus scale="   32.184">  2  3  1 -1</clus>
<clus scale="   68.581">  1  4  2 -1</clus>
<clus scale="  188.790">  2  6  1 -1</clus>
<clus scale="   68.581">  1  3  2 -1</clus>
</clustering>
</event>
<event>
 6    0  0.1080632E+003  0.1197546E+03  0.7546771E-02  0.1243502E+00
         21   -1    0    0  503  501  0.00000000000E+00  0.00000000000E+00  0.16319415847E+03  0.16319415847E+03  0.00000000000E+00 0. -1.
         21   -1    0    0  506  502 -0.00000000000E+00 -0.00000000000E+00 -0.59834423420E+03  0.59834423420E+03  0.00000000000E+00 0. -1.
         21    1    1    2  503  504 -0.63899075428E+02  0.10248470871E+02  0.68514479809E+02  0.94246256898E+02  0.00000000000E+00 0. -1.
         21    1    1    2  504  505 -0.49494686190E+02  0.15904276553E+02  0.93229488530E+01  0.52816544274E+02  0.00000000000E+00 0. -1.
         21    1    1    2  505  502  0.83402148423E+01 -0.33646431619E+02 -0.50784809555E+03  0.50902979255E+03  0.00000000000E+00 0. -1.
         21    1    1    2  506  501  0.10505354678E+03  0.74936841948E+01 -0.51394088383E+01  0.10544579895E+03  0.00000000000E+00 0. -1.
<scales pt_clust_3="39.35847" pt_clust_4="39.35847" pt_clust_5="34.66470" pt_clust_6="110.97063"></scales>
<clustering>
<clus scale="   34.665">  2  5  1 -1</clus>
<clus scale="   39.358">  3  4 -1 -1</clus>
<clus scale="  110.971">  2  6  1 -1</clus>
<clus scale="  119.755">  1  3  2 -1</clus>
</clustering>
</event>
<event>
 6    0  0.1080632E+003  0.9796767E+02  0.7546771E-02  0.1284629E+00
         21   -1    0    0  505  501  0.00000000000E+00  0.00000000000E+00  0.10241596180E+04  0.10241596180E+04  0.00000000000E+00 0. -1.
         21   -1    0    0  503  502 -0.00000000000E+00 -0.00000000000E+00 -0.18242078774E+03  0.18242078774E+03  0.00000000000E+00 0.  1.
         21    1    1    2  503  506  0.82444570046E+02  0.26796975759E+02 -0.14959256306E+03  0.17289626937E+03  0.00000000000E+00 0.  1.
         21    1    1    2  504  502 -0.79796574020E+02  0.58894590768E+01  0.57633579192E+03  0.58186349258E+03  0.00000000000E+00 0. -1.
         21    1    1    2  505  504 -0.76197782044E+02 -0.56193536662E+01  0.31835704149E+03  0.32739713651E+03  0.00000000000E+00 0. -1.
         21    1    1    2  506  501  0.73549786018E+02 -0.27067081170E+02  0.96638559951E+02  0.12442350733E+03  0.00000000000E+00 0. -1.
<scales pt_clust_3="87.47772" pt_clust_4="43.09957" pt_clust_5="43.09957" pt_clust_6="78.37218"></scales>
<clustering>
<clus scale="   43.100">  4  5 -1 -1</clus>
<clus scale="   78.372">  1  6  2 -1</clus>
<clus scale="   87.478">  2  3  1 -1</clus>
<clus scale="   78.372">  1  3  2 -1</clus>
</clustering>
</event>
<event>
 6    0  0.1080632E+003  0.8841713E+02  0.7546771E-02  0.1306731E+00
         21   -1    0    0  504  501  0.00000000000E+00  0.00000000000E+00  0.16880513932E+04  0.16880513932E+04  0.00000000000E+00 0. -1.
         21   -1    0    0  506  502 -0.00000000000E+00 -0.00000000000E+00 -0.13313945627E+03  0.13313945627E+03  0.00000000000E+00 0. -1.
         21    1    1    2  503  501  0.35865631392E+02  0.62474205466E+01  0.13814314594E+04  0.13819110864E+04  0.00000000000E+00 0. -1.
         21    1    1    2  504  502 -0.11567495757E+03 -0.11825019823E+03  0.13943389088E+03  0.21634605408E+03  0.00000000000E+00 0. -1.
         21    1    1    2  505  503  0.65111013263E+01  0.78352410992E+02  0.93920855091E+02  0.12248519000E+03  0.00000000000E+00 0. -1.
         21    1    1    2  506  505  0.73298224856E+02  0.33650366696E+02 -0.59874268418E+02  0.10044851898E+03  0.00000000000E+00 0. -1.
<scales pt_clust_3="36.40568" pt_clust_4="14000.00000" pt_clust_5="82.81002" pt_clust_6="88.41713"></scales>
<clustering>
<clus scale="   36.406">  1  3  2 -1</clus>
<clus scale="   82.810">  1  5  2 -1</clus>
<clus scale="   88.417">  2  6  1 -1</clus>
<clus scale="   36.406">  1  3  2 -1</clus>
</clustering>
</event>
<event>
 6    0  0.1080632E+003  0.1150939E+03  0.7546771E-02  0.1251417E+00
         21   -1    0    0  503  501  0.00000000000E+00  0.00000000000E+00  0.59103867730E+03  0.59103867730E+03  0.00000000000E+00 0. -1.
         21   -1    0    0  506  502 -0.00000000000E+00 -0.00000000000E+00 -0.12540868387E+03  0.12540868387E+03  0.00000000000E+00 0. -1.
         21    1    1    2  503  505  0.30627630171E+02  0.47098764118E+02  0.30141523503E+03  0.30660640766E+03  0.00000000000E+00 0. -1.
         21    1    1    2  504  501  0.84691138828E+02  0.20621111709E+02  0.14085027882E+03  0.16564003226E+03  0.00000000000E+00 0. -1.
         21    1    1    2  505  502 -0.48999548909E+02  0.42746976806E+02  0.80308430811E+02  0.10333297576E+03  0.00000000000E+00 0. -1.
         21    1    1    2  506  504 -0.66319220090E+02 -0.11046685263E+03 -0.56943951229E+02  0.14086794549E+03  0.00000000000E+00 0. -1.
<scales pt_clust_3="56.18136" pt_clust_4="14000.00000" pt_clust_5="69.85147" pt_clust_6="115.09395"></scales>
<clustering>
<clus scale="   56.181">  1  3  2 -1</clus>
<clus scale="   69.851">  1  5  2 -1</clus>
<clus scale="  115.094">  2  6  1 -1</clus>
<clus scale="   56.181">  1  3  2 -1</clus>
</clustering>
</event>
<event>
 6    0  0.1080632E+003  0.1204463E+03  0.7546771E-02  0.1242363E+00
         21   -1    0    0  504  501  0.00000000000E+00  0.00000000000E+00  0.19543309702E+02  0.19543309702E+02  0.00000000000E+00 0.  1.
         21   -1    0    0  506  502 -0.00000000000E+00 -0.00000000000E+00 -0.31292013476E+04  0.31292013476E+04  0.00000000000E+00 0.  1.
         21    1    1    2  503  501  0.25296263744E+02 -0.42147268667E+02 -0.13447309433E+03  0.14317578816E+03  0.00000000000E+00 0.  1.
         21    1    1    2  504  502 -0.41244061976E+02 -0.97158556563E+02 -0.48373968789E+03  0.49512114012E+03  0.00000000000E+00 0.  1.
         21    1    1    2  505  503 -0.20793769180E+02  0.15121266732E+03 -0.61682228160E+03  0.63542692631E+03  0.00000000000E+00 0.  1.
         21    1    1    2  506  505  0.36741567412E+02 -0.11906842088E+02 -0.18746229740E+04  0.18750208027E+04  0.00000000000E+00 0.  1.
<scales pt_clust_3="52.45346" pt_clust_4="120.44629" pt_clust_5="14000.00000" pt_clust_6="38.62274"></scales>
<clustering>
<clus scale="   38.623">  2  6  1 -1</clus>
<clus scale="   52.453">  1  3  2 -1</clus>
<clus scale="  120.446">  2  4  1 -1</clus>
<clus scale="   52.453">  1  3  2 -1</clus>
</clustering>
</event>
<event>
 6    0  0.1080632E+003  0.9044863E+02  0.7546771E-02  0.1301769E+00
         21   -1    0    0  505  501  0.00000000000E+00  0.00000000000E+00  0.11543507169E+03  0.11543507169E+03  0.00000000000E+00 0. -1.
         21   -1    0    0  503  502 -0.00000000000E+00 -0.00000000000E+00 -0.24464194513E+03  0.24464194513E+03  0.00000000000E+00 0. -1.
         21    1    1    2  503  501 -0.29896237185E+02 -0.51052267046E+01  0.14749384936E+02  0.33725253054E+02  0.00000000000E+00 0. -1.
         21    1    1    2  504  506  0.56991518350E+02  0.40993795161E+02 -0.33878395647E+02  0.77950433592E+02  0.00000000000E+00 0. -1.
         21    1    1    2  505  504  0.26975492622E+02  0.65031121262E+02  0.21853645832E+02  0.73717743936E+02  0.00000000000E+00 0. -1.
         21    1    1    2  506  502 -0.54070773788E+02 -0.10091968972E+03 -0.13193150856E+03  0.17468358624E+03  0.00000000000E+00 0. -1.
<scales pt_clust_3="30.32900" pt_clust_4="90.44863" pt_clust_5="63.37357" pt_clust_6="14000.00000"></scales>
<clustering>
<clus scale="   30.329">  1  3  2 -1</clus>
<clus scale="   63.374">  1  5  2 -1</clus>
<clus scale="   90.449">  1  4  2 -1</clus>
<clus scale="   30.329">  1  3  2 -1</clus>
</clustering>
</event>
<event>
 6    0  0.1080632E+003  0.9559854E+02  0.7546771E-02  0.1289834E+00
         21   -1    0    0  503  501  0.00000000000E+00  0.00000000000E+00  0.27191138253E+04  0.27191138253E+04  0.00000000000E+00 0.  1.
         21   -1    0    0  504  502 -0.00000000000E+00 -0.00000000000E+00 -0.54056548888E+03  0.54056548888E+03  0.00000000000E+00 0. -1.
         21    1    1    2  503  506 -0.88012071061E+02 -0.87053354323E+02  0.19693883773E+04  0.19732751941E+04  0.00000000000E+00 0.  1.
         21    1    1    2  504  505 -0.30374155673E+02  0.90724813052E+02 -0.52242111004E+03  0.53110959062E+03  0.00000000000E+00 0. -1.
         21    1    1    2  505  501  0.49125896699E+02  0.64293400060E+02  0.21592382334E+03  0.23058641005E+03  0.00000000000E+00 0.  1.
         21    1    1    2  506  502  0.69260330035E+02 -0.67964858789E+02  0.51565724587E+03  0.52470811940E+03  0.00000000000E+00 0.  1.
<scales pt_clust_3="61.13352" pt_clust_4="14000.00000" pt_clust_5="80.91350" pt_clust_6="95.59854"></scales>
<clustering>
<clus scale="   80.914">  1  5  2 -1</clus>
<clus scale="   61.134">  1  3  2 -1</clus>
<clus scale="   95.599">  1  6  2 -1</clus>
<clus scale="   80.914">  1  3  2 -1</clus>
</clustering>
</event>
<event>
 6    0  0.1080632E+003  0.1713827E+03  0.7546771E-02  0.1176414E+00
         21   -1    0    0  503  501  0.00000000000E+00  0.00000000000E+00  0.49030417747E+03  0.49030417747E+03  0.00000000000E+00 0. -1.
         21   -1    0    0  505  502 -0.00000000000E+00 -0.00000000000E+00 -0.84427423405E+02  0.84427423405E+02  0.00000000000E+00 0. -1.
         21    1    1    2  503  506  0.53408730364E+02 -0.10732658745E+02  0.59625271317E+02  0.80764196414E+02  0.00000000000E+00 0.  1.
         21    1    1    2  504  501  0.28460720891E+01 -0.10866063954E+03  0.22401331589E+03  0.24899237018E+03  0.00000000000E+00 0. -1.
         21    1    1    2  505  504 -0.20315349086E+01 -0.41847965064E+02  0.29328350874E+02  0.51142267050E+02  0.00000000000E+00 0. -1.
         21    1    1    2  506  502 -0.54223267544E+02  0.16124126334E+03  0.92909815987E+02  0.19383276724E+03  0.00000000000E+00 0. -1.
<scales pt_clust_3="54.47644" pt_clust_4="35.36791" pt_clust_5="35.36791" pt_clust_6="161.63765"></scales>
<clustering>
<clus scale="   35.368">  4  5 -1 -1</clus>
<clus scale="   54.476">  1  3  2 -1</clus>
<clus scale="  161.638">  2  6  1 -1</clus>
<clus scale="   54.476">  1  3  2 -1</clus>
</clustering>
</event>
<event>
 6    0  0.1080632E+003  0.9592321E+02  0.7546771E-02  0.1289110E+00
         21   -1    0    0  505  501  0.00000000000E+00  0.00000000000E+00  0.16914276933E+03  0.16914276933E+03  0.00000000000E+00 0.  1.
         21   -1    0    0  503  502 -0.00000000000E+00 -0.00000000000E+00 -0.12438701662E+04  0.12438701662E+04  0.00000000000E+00 0.  1.
         21    1    1    2  503  501 -0.40857369550E+02  0.76934052709E+02 -0.86978711890E+03  0.87413832162E+03  0.00000000000E+00 0.  1.
         21    1    1    2  504  502 -0.50484113214E+02 -0.10598413823E+02 -0.24892018871E+03  0.25420903291E+03  0.00000000000E+00 0.  1.
         21    1    1    2  505  506  0.33144187297E+02 -0.19092321838E+02  0.15001281365E+03  0.15481246127E+03  0.00000000000E+00 0.  1.
         21    1    1    2  506  504  0.58197295467E+02 -0.47243317049E+02 -0.10603290289E+03  0.12985311972E+03  0.00000000000E+00 0. -1.
<scales pt_clust_3="14000.00000" pt_clust_4="47.24968" pt_clust_5="38.24989" pt_clust_6="95.92321"></scales>
<clustering>
<clus scale="   38.250">  1  5  2 -1</clus>
<clus scale="   47.250">  2  4  1 -1</clus>
<clus scale="   95.923">  1  6  2 -1</clus>
<clus scale="   38.250">  1  3  2 -1</clus>
</clustering>
</event>
<event>
 6    0  0.1080632E+003  0.1404756E+03  0.7546771E-02  0.1212690E+00
         21   -1    0    0  506  501  0.00000000000E+00  0.00000000000E+00  0.34211427505E+03  0.34211427505E+03  0.00000000000E+00 0. -1.
         21   -1    0    0  504  502 -0.00000000000E+00 -0.00000000000E+00 -0.50206510842E+03  0.50206510842E+03  0.00000000000E+00 0.  1.
         21    1    1    2  503  502  0.55373540222E+02 -0.12372913486E+02 -0.89005762934E+02  0.10555256406E+03  0.00000000000E+00 0.  1.
         21    1    1    2  504  501 -0.14036361174E+03  0.14458827521E+02 -0.28411708173E+03  0.31722786341E+03  0.00000000000E+00 0.  1.
         21    1    1    2  505  503  0.69822345205E+02  0.29234823813E+02 -0.89223772942E+02  0.11700733512E+03  0.00000000000E+00 0. -1.
         21    1    1    2  506  505  0.15167726310E+02 -0.31320737849E+02  0.30239578424E+03  0.30439162088E+03  0.00000000000E+00 0. -1.
<scales pt_clust_3="37.95647" pt_clust_4="133.88274" pt_clust_5="37.95647" pt_clust_6="34.80012"></scales>
<clustering>
<clus scale="   34.800">  1  6  2 -1</clus>
<clus scale="   37.956">  3  5 -1 -1</clus>
<clus scale="  133.883">  2  4  1 -1</clus>
<clus scale="   34.800">  1  3  2 -1</clus>
</clustering>
</event>
<event>
 6    0  0.1080632E+003  0.1584666E+03  0.7546771E-02  0.1190439E+00
         21   -1    0    0  503  501  0.00000000000E+00  0.00000000000E+00  0.32805215538E+03  0.32805215538E+03  0.00000000000E+00 0. -1.
         21   -1    0    0  501  502 -0.00000000000E+00 -0.00000000000E+00 -0.30834957428E+03  0.30834957428E+03  0.00000000000E+00 0.  1.
         21    1    1    2  503  505  0.11733643431E+02 -0.35714354609E+02  0.16589085905E+03  0.17009694480E+03  0.00000000000E+00 0. -1.
         21    1    1    2  504  502  0.87164468139E+02 -0.15383411260E+02 -0.96192543717E+02  0.13071839700E+03  0.00000000000E+00 0.  1.
         21    1    1    2  505  506 -0.14742774463E+03  0.87073661086E+02  0.82431651165E+02  0.19003089079E+03  0.00000000000E+00 0. -1.
         21    1    1    2  506  504  0.48529633063E+02 -0.35975895217E+02 -0.13242738540E+03  0.14555549707E+03  0.00000000000E+00 0.  1.
<scales pt_clust_3="37.59247" pt_clust_4="45.28829" pt_clust_5="148.66788" pt_clust_6="45.28829"></scales>
<clustering>
<clus scale="   37.592">  1  3  2 -1</clus>
<clus scale="   45.288">  4  6 -1 -1</clus>
<clus scale="  148.668">  1  5  2 -1</clus>
<clus scale="   37.592">  1  3  2 -1</clus>
</clustering>
</event>
<event>
 6    0  0.1080632E+003  0.1399188E+03  0.7546771E-02  0.1213438E+00
         21   -1    0    0  502  501  0.00000000000E+00  0.00000000000E+00  0.57052426789E+02  0.57052426789E+02  0.00000000000E+00 0.  1.
         21   -1    0    0  504  502 -0.00000000000E+00 -0.00000000000E+00 -0.67689652403E+03  0.67689652403E+03  0.00000000000E+00 0. -1.
         21    1    1    2  503  501 -0.78324917186E+02 -0.86234389199E+02 -0.71482187096E+02  0.13667796313E+03  0.00000000000E+00 0.  1.
         21    1    1    2  504  505 -0.57147497072E+02 -0.57661194763E+01 -0.19182013730E+03  0.20023498603E+03  0.00000000000E+00 0. -1.
         21    1    1    2  505  506  0.69387267273E+02  0.75707128404E+02 -0.25384982204E+03  0.27383552418E+03  0.00000000000E+00 0. -1.
         21    1    1    2  506  503  0.66085146985E+02  0.16293380271E+02 -0.10269195080E+03  0.12320047748E+03  0.00000000000E+00 0. -1.
<scales pt_clust_3="126.01023" pt_clust_4="57.43766" pt_clust_5="49.51182" pt_clust_6="49.51182"></scales>
<clustering>
<clus scale="   49.512">  5  6 -1 -1</clus>
<clus scale="   57.438">  2  4  1 -1</clus>
<clus scale="  126.010">  1  3  2 -1</clus>
<clus scale="  126.010">  1  3  2 -1</clus>
</clustering>
</event>
<event>
 6    0  0.1080632E+003  0.1287267E+03  0.7546771E-02  0.1229357E+00
         21   -1    0    0  505  501  0.00000000000E+00  0.00000000000E+00  0.35941552911E+03  0.35941552911E+03  0.00000000000E+00 0. -1.
         21   -1    0    0  504  502 -0.00000000000E+00 -0.00000000000E+00 -0.12959020510E+03  0.12959020510E+03  0.00000000000E+00 0. -1.
         21    1    1    2  503  501 -0.56749350166E+02 -0.32537009744E+02  0.20922398227E+03  0.21921181652E+03  0.00000000000E+00 0. -1.
         21    1    1    2  504  506  0.18359328084E+02  0.42328875606E+02 -0.38555752565E+02  0.60127736475E+02  0.00000000000E+00 0. -1.
         21    1    1    2  505  502  0.80516872752E+01 -0.96549739286E+02  0.66426324573E+02  0.11746973406E+03  0.00000000000E+00 0. -1.
         21    1    1    2  506  503  0.30338334807E+02  0.86757873424E+02 -0.72692302618E+01  0.92196447158E+02  0.00000000000E+00 0. -1.
<scales pt_clust_3="65.41518" pt_clust_4="32.21929" pt_clust_5="120.42715" pt_clust_6="32.21929"></scales>
<clustering>
<clus scale="   32.219">  4  6 -1 -1</clus>
<clus scale="   65.415">  1  3  2 -1</clus>
<clus scale="  120.427">  1  5  2 -1</clus>
<clus scale="   65.415">  1  3  2 -1</clus>
</clustering>
</event>
<event>
 6    0  0.1080632E+003  0.9288750E+02  0.7546771E-02  0.1296006E+00
         21   -1    0    0  506  501  0.00000000000E+00  0.00000000000E+00  0.10891604451E+03  0.10891604451E+03  0.00000000000E+00 0.  1.
         21   -1    0    0  505  502 -0.00000000000E+00 -0.00000000000E+00 -0.19590494288E+03  0.19590494288E+03  0.00000000000E+00 0.  1.
         21    1    1    2  503  502 -0.35849392885E+02  0.24809036222E+02 -0.25215921763E+02  0.50363776256E+02  0.00000000000E+00 0.  1.
         21    1    1    2  504  501  0.17794660324E+02  0.93932828790E+02 -0.46225470195E+01  0.95715172264E+02  0.00000000000E+00 0.  1.
         21    1    1    2  505  504  0.30008725680E+02 -0.29116321661E+02 -0.53963451569E+02  0.68266667630E+02  0.00000000000E+00 0.  1.
         21    1    1    2  506  503 -0.11953993119E+02 -0.89625543351E+02 -0.31869780111E+01  0.90475371241E+02  0.00000000000E+00 0.  1.
<scales pt_clust_3="32.09093" pt_clust_4="92.88750" pt_clust_5="41.81248" pt_clust_6="14000.00000"></scales>
<clustering>
<clus scale="   41.812">  2  5  1 -1</clus>
<clus scale="   32.091">  2  3  1 -1</clus>
<clus scale="   92.888">  2  4  1 -1</clus>
<clus scale="   92.888">  1  3  2 -1</clus>
</clustering>
</event>
<event>
 6    0  0.1080632E+003  0.4765767E+03  0.7546771E-02  0.1020080E+00
         21   -1    0    0  502  501  0.00000000000E+00  0.00000000000E+00  0.32540142799E+03  0.32540142799E+03  0.00000000000E+00 0. -1.
         21   -1    0    0  503  502 -0.00000000000E+00 -0.00000000000E+00 -0.16986604247E+04  0.16986604247E+04  0.00000000000E+00 0. -1.
         21    1    1    2  503  504  0.79751492560E+02  0.29841475334E+02 -0.21214485256E+03  0.22859626568E+03  0.00000000000E+00 0. -1.
         21    1    1    2  504  506  0.14565811220E+01  0.22641413343E+03 -0.54536831269E+03  0.59050154778E+03  0.00000000000E+00 0. -1.
         21    1    1    2  505  501  0.10314772270E+02 -0.46839412121E+03  0.76922136999E+02  0.47478043607E+03  0.00000000000E+00 0. -1.
         21    1    1    2  506  505 -0.91522845952E+02  0.21213851245E+03 -0.69266796849E+03  0.73018360319E+03  0.00000000000E+00 0. -1.
<scales pt_clust_3="85.15171" pt_clust_4="103.41966" pt_clust_5="464.85514" pt_clust_6="103.41966"></scales>
<clustering>
<clus scale="   85.152">  2  3  1 -1</clus>
<clus scale="  103.420">  4  6 -1 -1</clus>
<clus scale="  464.855">  1  5  2 -1</clus>
<clus scale="  464.855">  1  3  2 -1</clus>
</clustering>
</event>
<event>
 6    0  0.1080632E+003  0.2529975E+03  0.7546771E-02  0.1111425E+00
         21   -1    0    0  506  501  0.00000000000E+00  0.00000000000E+00  0.10518200855E+03  0.10518200855E+03  0.00000000000E+00 0. -1.
         21   -1    0    0  504  502 -0.00000000000E+00 -0.00000000000E+00 -0.16784233498E+04  0.16784233498E+04  0.00000000000E+00 0. -1.
         21    1    1    2  503  501  0.24919497700E+02 -0.24788172709E+02 -0.15990311852E+02  0.38615087013E+02  0.00000000000E+00 0. -1.
         21    1    1    2  504  503 -0.50455880592E+02 -0.24450503137E+03 -0.12933240507E+04  0.13171999113E+04  0.00000000000E+00 0. -1.
         21    1    1    2  505  502  0.44641557575E+02 -0.47973062138E+01 -0.95479080770E+02  0.10550894594E+03  0.00000000000E+00 0.  1.
         21    1    1    2  506  505 -0.19105174683E+02  0.27409051030E+03 -0.16844789790E+03  0.32228141405E+03  0.00000000000E+00 0. -1.
<scales pt_clust_3="35.14875" pt_clust_4="252.99748" pt_clust_5="46.37864" pt_clust_6="14000.00000"></scales>
<clustering>
<clus scale="   35.149">  1  3  2 -1</clus>
<clus scale="   46.379">  2  5  1 -1</clus>
<clus scale="  252.997">  2  4  1 -1</clus>
<clus scale="   35.149">  1  3  2 -1</clus>
</clustering>
</event>
<event>
 6    0  0.1080632E+003  0.1138597E+03  0.7546771E-02  0.1253585E+00
         21   -1    0    0  506  501  0.00000000000E+00  0.00000000000E+00  0.53119871888E+03  0.53119871888E+03  0.00000000000E+00 0. -1.
         21   -1    0    0  505  502 -0.00000000000E+00 -0.00000000000E+00 -0.53827445365E+03  0.53827445365E+03  0.00000000000E+00 0.  1.
         21    1    1    2  503  504  0.65473345382E+02 -0.92128745142E+02  0.17148766170E+02  0.11431773624E+03  0.00000000000E+00 0.  1.
         21    1    1    2  504  502 -0.70329177334E+02  0.89672400691E+02 -0.45137129131E+03  0.46553557893E+03  0.00000000000E+00 0.  1.
         21    1    1    2  505  501 -0.37292205325E+02 -0.12673409886E+02  0.44099175299E+03  0.44274716273E+03  0.00000000000E+00 0. -1.
         21    1    1    2  506  503  0.42148037278E+02  0.15129754337E+02 -0.13844962626E+02  0.46872694639E+02  0.00000000000E+00 0.  1.
<scales pt_clust_3="113.85969" pt_clust_4="14000.00000" pt_clust_5="39.38685" pt_clust_6="37.50133"></scales>
<clustering>
<clus scale="   39.387">  1  5  2 -1</clus>
<clus scale="   37.501">  1  6  2 -1</clus>
<clus scale="  113.860">  1  3  2 -1</clus>
<clus scale="   39.387">  1  3  2 -1</clus>
</clustering>
</event>
<event>
 6    0  0.1080632E+003  0.1730993E+03  0.7546771E-02  0.1174654E+00
         21   -1    0    0  503  501  0.00000000000E+00  0.00000000000E+00  0.89531652941E+02  0.89531652941E+02  0.00000000000E+00 0. -1.
         21   -1    0    0  505  502 -0.00000000000E+00 -0.00000000000E+00 -0.85703030878E+03  0.85703030878E+03  0.00000000000E+00 0.  1.
         21    1    1    2  503  506 -0.90843465458E+02 -0.70820799256E+02 -0.64054750556E+03  0.65082196314E+03  0.00000000000E+00 0.  1.
         21    1    1    2  504  501  0.91646155333E+02  0.57703065757E+02  0.15235824858E+02  0.10936540561E+03  0.00000000000E+00 0. -1.
         21    1    1    2  505  504  0.56991780213E+02  0.60473825149E+01 -0.44128595658E+02  0.72332335798E+02  0.00000000000E+00 0.  1.
         21    1    1    2  506  502 -0.57794470087E+02  0.70703509849E+01 -0.98058379479E+02  0.11404225718E+03  0.00000000000E+00 0.  1.
<scales pt_clust_3="154.73027" pt_clust_4="56.45172" pt_clust_5="56.45172" pt_clust_6="58.22534"></scales>
<clustering>
<clus scale="   56.452">  4  5 -1 -1</clus>
<clus scale="   58.225">  2  6  1 -1</clus>
<clus scale="  154.730">  2  3  1 -1</clus>
<clus scale="  173.099">  1  3  2 -1</clus>
</clustering>
</event>
<event>
 6    0  0.1080632E+003  0.1045216E+03  0.7546771E-02  0.1271065E+00
         21   -1    0    0  505  501  0.00000000000E+00  0.00000000000E+00  0.38906924556E+04  0.38906924556E+04  0.00000000000E+00 0. -1.
         21   -1    0    0  506  502 -0.00000000000E+00 -0.00000000000E+00 -0.34163236678E+03  0.34163236678E+03  0.00000000000E+00 0. -1.
         21    1    1    2  503  504  0.79632637420E+01 -0.77255580604E+02  0.17912496623E+03  0.19523727060E+03  0.00000000000E+00 0.  1.
         21    1    1    2  504  502 -0.58741344111E+02  0.19494942109E+02  0.74273663706E+01  0.62335896938E+02  0.00000000000E+00 0. -1.
         21    1    1    2  505  503  0.61994245026E+02 -0.14315095785E+02  0.36640043309E+04  0.36645567188E+04  0.00000000000E+00 0. -1.
         21    1    1    2  506  501 -0.11216164656E+02  0.72075734281E+02 -0.30149657467E+03  0.31019493606E+03  0.00000000000E+00 0. -1.
<scales pt_clust_3="104.52164" pt_clust_4="61.89183" pt_clust_5="63.57136" pt_clust_6="14000.00000"></scales>
<clustering>
<clus scale="   61.892">  2  4  1 -1</clus>
<clus scale="   63.571">  1  5  2 -1</clus>
<clus scale="  104.522">  1  3  2 -1</clus>
<clus scale="   63.571">  1  3  2 -1</clus>
</clustering>
</event>
<event>
 6    0  0.1080632E+003  0.1580168E+03  0.7546771E-02  0.1190954E+00
         21   -1    0    0  503  501  0.00000000000E+00  0.00000000000E+00  0.12972245569E+03  0.12972245569E+03  0.00000000000E+00 0. -1.
         21   -1    0    0  504  502 -0.00000000000E+00 -0.00000000000E+00 -0.12888748548E+04  0.12888748548E+04  0.00000000000E+00 0.  1.
         21    1    1    2  503  506 -0.23217325484E+02  0.28958336810E+02  0.99696389626E+02  0.10638138737E+03  0.00000000000E+00 0. -1.
         21    1    1    2  504  505  0.73786938395E+01 -0.92531627379E+02 -0.49634535248E+03  0.50495074623E+03  0.00000000000E+00 0.  1.
         21    1    1    2  505  501  0.33916977947E+02 -0.58909760229E+02 -0.59553186488E+03  0.59939880158E+03  0.00000000000E+00 0.  1.
         21    1    1    2  506  502 -0.18078346302E+02  0.12248305080E+03 -0.16697157138E+03  0.20786637531E+03  0.00000000000E+00 0. -1.
<scales pt_clust_3="37.11643" pt_clust_4="45.21448" pt_clust_5="45.21448" pt_clust_6="149.05394"></scales>
<clustering>
<clus scale="   37.116">  1  3  2 -1</clus>
<clus scale="   45.214">  4  5 -1 -1</clus>
<clus scale="  149.054">  1  6  2 -1</clus>
<clus scale="   37.116">  1  3  2 -1</clus>
</clustering>
</event>
<event>
 6    0  0.1080632E+003  0.1184641E+03  0.7546771E-02  0.1245653E+00
         21   -1    0    0  503  501  0.00000000000E+00  0.00000000000E+00  0.20117435399E+04  0.20117435399E+04  0.00000000000E+00 0. -1.
         21   -1    0    0  505  502 -0.00000000000E+00 -0.00000000000E+00 -0.46123736361E+02  0.46123736361E+02  0.00000000000E+00 0. -1.
         21    1    1    2  503  506  0.36624392414E+01  0.34745616436E+02  0.11549470682E+04  0.11554754007E+04  0.00000000000E+00 0. -1.
         21    1    1    2  504  502  0.38681531577E+02 -0.86946456015E+01 -0.12584003332E+02  0.41595851802E+02  0.00000000000E+00 0. -1.
         21    1    1    2  505  501 -0.50151540038E+02 -0.12341706613E+03  0.29640511491E+03  0.32496606180E+03  0.00000000000E+00 0. -1.
         21    1    1    2  506  504  0.78075692197E+01  0.97366095292E+02  0.52685162382E+03  0.53582996199E+03  0.00000000000E+00 0. -1.
<scales pt_clust_3="34.93811" pt_clust_4="39.58249" pt_clust_5="14000.00000" pt_clust_6="118.46407"></scales>
<clustering>
<clus scale="   34.938">  1  3  2 -1</clus>
<clus scale="   39.582">  2  4  1 -1</clus>
<clus scale="  118.464">  1  6  2 -1</clus>
<clus scale="   34.938">  1  3  2 -1</clus>
</clustering>
</event>
<event>
 6    0  0.1080632E+003  0.8255488E+02  0.7546771E-02  0.1321954E+00
         21   -1    0    0  506  501  0.00000000000E+00  0.00000000000E+00  0.18929712433E+03  0.18929712433E+03  0.00000000000E+00 0.  1.
         21   -1    0    0  504  502 -0.00000000000E+00 -0.00000000000E+00 -0.14034740713E+03  0.14034740713E+03  0.00000000000E+00 0.  1.
         21    1    1    2  503  501  0.45188064421E+02 -0.34220508610E+02  0.41320630660E+02  0.70145555054E+02  0.00000000000E+00 0.  1.
         21    1    1    2  504  503  0.45842537657E+02  0.71409891158E+01 -0.11308415385E+02  0.47753662089E+02  0.00000000000E+00 0.  1.
         21    1    1    2  505  502 -0.10013247344E+03 -0.56200753156E+02 -0.24450407192E+02  0.11740042293E+03  0.00000000000E+00 0.  1.
         21    1    1    2  506  505  0.91018713583E+01  0.83280272650E+02  0.43387909119E+02  0.94344891397E+02  0.00000000000E+00 0.  1.
<scales pt_clust_3="61.03021" pt_clust_4="46.39539" pt_clust_5="14000.00000" pt_clust_6="82.55488"></scales>
<clustering>
<clus scale="   46.395">  2  4  1 -1</clus>
<clus scale="   61.030">  1  3  2 -1</clus>
<clus scale="   82.555">  1  6  2 -1</clus>
<clus scale="   61.030">  1  3  2 -1</clus>
</clustering>
</event>
<event>
 6    0  0.1080632E+003  0.1084579E+03  0.7546771E-02  0.1263453E+00
         21   -1    0    0  503  501  0.00000000000E+00  0.00000000000E+00  0.27295775620E+04  0.27295775620E+04  0.00000000000E+00 0.  1.
         21   -1    0    0  506  502 -0.00000000000E+00 -0.00000000000E+00 -0.36032020774E+02  0.36032020774E+02  0.00000000000E+00 0.  1.
         21    1    1    2  503  504  0.27206384378E+02 -0.95733064885E+02  0.17987348438E+04  0.18014860658E+04  0.00000000000E+00 0.  1.
         21    1    1    2  504  502  0.31310767518E+02 -0.71830040051E+02  0.67292868088E+02  0.10328721563E+03  0.00000000000E+00 0.  1.
         21    1    1    2  505  501 -0.81650080145E+02  0.14746879755E+03  0.80589124805E+03  0.82333133398E+03  0.00000000000E+00 0.  1.
         21    1    1    2  506  505  0.23132928249E+02  0.20094307391E+02  0.21626581354E+02  0.37504967403E+02  0.00000000000E+00 0.  1.
<scales pt_clust_3="14000.00000" pt_clust_4="74.85950" pt_clust_5="108.45786" pt_clust_6="30.64170"></scales>
<clustering>
<clus scale="   30.642">  2  6  1 -1</clus>
<clus scale="   74.860">  2  4  1 -1</clus>
<clus scale="  108.458">  2  5  1 -1</clus>
<clus scale="  108.458">  1  3  2 -1</clus>
</clustering>
</event>
<event>
 6    0  0.1080632E+003  0.9597157E+02  0.7546771E-02  0.1289003E+00
         21   -1    0    0  503  501  0.00000000000E+00  0.00000000000E+00  0.11741813579E+04  0.11741813579E+04  0.00000000000E+00 0.  1.
         21   -1    0    0  506  502 -0.00000000000E+00 -0.00000000000E+00 -0.47184872239E+03  0.47184872239E+03  0.00000000000E+00 0. -1.
         21    1    1    2  503  502  0.16259642896E+01 -0.38404611873E+02  0.15570070819E+01  0.38470537350E+02  0.00000000000E+00 0.  1.
         21    1    1    2  504  505  0.92198865980E+02 -0.35468707430E+02 -0.31273324852E+03  0.32796454812E+03  0.00000000000E+00 0. -1.
         21    1    1    2  505  501 -0.51972357297E+02  0.80802010257E+02  0.11410995348E+04  0.11451367775E+04  0.00000000000E+00 0.  1.
         21    1    1    2  506  504 -0.41852472973E+02 -0.69286909547E+01 -0.12759065783E+03  0.13445821737E+03  0.00000000000E+00 0. -1.
<scales pt_clust_3="38.43902" pt_clust_4="95.97157" pt_clust_5="14000.00000" pt_clust_6="45.13863"></scales>
<clustering>
<clus scale="   38.439">  2  3  1 -1</clus>
<clus scale="   45.139">  2  6  1 -1</clus>
<clus scale="   95.972">  2  4  1 -1</clus>
<clus scale="   95.972">  1  3  2 -1</clus>
</clustering>
</event>
<event>
 6    0  0.1080632E+003  0.1031823E+03  0.7546771E-02  0.1273743E+00
         21   -1    0    0  506  501  0.00000000000E+00  0.00000000000E+00  0.49705706880E+02  0.49705706880E+02  0.00000000000E+00 0. -1.
         21   -1    0    0  504  502 -0.00000000000E+00 -0.00000000000E+00 -0.24577309151E+04  0.24577309151E+04  0.00000000000E+00 0. -1.
         21    1    1    2  503  505 -0.62319233467E+02 -0.33587409062E+02 -0.23419559726E+03  0.24466176384E+03  0.00000000000E+00 0. -1.
         21    1    1    2  504  501 -0.38519299411E+02 -0.89986250041E+02 -0.35714778449E+02  0.10419600291E+03  0.00000000000E+00 0. -1.
         21    1    1    2  505  502 -0.53587359479E+02 -0.36570489439E+02 -0.74416839100E+03  0.74699103071E+03  0.00000000000E+00 0. -1.
         21    1    1    2  506  503  0.15442589236E+03  0.16014414854E+03 -0.13939464415E+04  0.14115878245E+04  0.00000000000E+00 0. -1.
<scales pt_clust_3="79.82261" pt_clust_4="14000.00000" pt_clust_5="64.87685" pt_clust_6="103.18234"></scales>
<clustering>
<clus scale="   64.877">  2  5  1 -1</clus>
<clus scale="   79.823">  2  3  1 -1</clus>
<clus scale="  103.182">  2  6  1 -1</clus>
<clus scale="  103.182">  1  3  2 -1</clus>
</clustering>
</event>
<event>
 6    0  0.1080632E+003  0.1451403E+03  0.7546771E-02  0.1206575E+00
         21   -1    0    0  505  501  0.00000000000E+00  0.00000000000E+00  0.25964142930E+03  0.25964142930E+03  0.00000000000E+00 0.  1.
         21   -1    0    0  503  502 -0.00000000000E+00 -0.00000000000E+00 -0.30884369015E+03  0.30884369015E+03  0.00000000000E+00 0.  1.
         21    1    1    2  503  504 -0.58374839893E+02  0.46754998114E+02 -0.15291208362E+03  0.17022266917E+03  0.00000000000E+00 0.  1.
         21    1    1    2  504  501 -0.13421977857E+03  0.43629246998E+02  0.18759914281E+02  0.14237413577E+03  0.00000000000E+00 0.  1.
         21    1    1    2  505  506  0.13745214658E+03 -0.53843187305E+02  0.11109856503E+03  0.18475679303E+03  0.00000000000E+00 0.  1.
         21    1    1    2  506  502  0.55142471880E+02 -0.36541057808E+02 -0.26148656541E+02  0.71131521491E+02  0.00000000000E+00 0. -1.
<scales pt_clust_3="34.08335" pt_clust_4="145.14032" pt_clust_5="14000.00000" pt_clust_6="66.15090"></scales>
<clustering>
<clus scale="   66.151">  2  6  1 -1</clus>
<clus scale="   34.083">  2  3  1 -1</clus>
<clus scale="  145.140">  2  4  1 -1</clus>
<clus scale="  145.140">  1  3  2 -1</clus>
</clustering>
</event>
<event>
 6    0  0.1080632E+003  0.1029533E+03  0.7546771E-02  0.1274205E+00
         21   -1    0    0  503  501  0.00000000000E+00  0.00000000000E+00  0.21368943369E+03  0.21368943369E+03  0.00000000000E+00 0. -1.
         21   -1    0    0  505  502 -0.00000000000E+00 -0.00000000000E+00 -0.29708592226E+03  0.29708592226E+03  0.00000000000E+00 0.  1.
         21    1    1    2  503  504  0.31962680349E+02 -0.32367638782E+02  0.10892446681E+03  0.11804158778E+03  0.00000000000E+00 0. -1.
         21    1    1    2  504  506  0.39378485144E+02 -0.57937352667E+02  0.20020028969E+02  0.72857418882E+02  0.00000000000E+00 0. -1.
         21    1    1    2  505  501 -0.11337690637E+03 -0.22263481987E+02 -0.13151721685E+03  0.17506217140E+03  0.00000000000E+00 0.  1.
         21    1    1    2  506  502  0.42035740875E+02  0.11256847344E+03 -0.80823767501E+02  0.14481417788E+03  0.00000000000E+00 0.  1.
<scales pt_clust_3="45.48931" pt_clust_4="90.86551" pt_clust_5="102.95332" pt_clust_6="14000.00000"></scales>
<clustering>
<clus scale="   45.489">  1  3  2 -1</clus>
<clus scale="   90.866">  1  4  2 -1</clus>
<clus scale="  102.953">  2  5  1 -1</clus>
<clus scale="   45.489">  1  3  2 -1</clus>
</clustering>
</event>
<event>
 6    0  0.1080632E+003  0.1319426E+03  0.7546771E-02  0.1224601E+00
         21   -1    0    0  504  501  0.00000000000E+00  0.00000000000E+00  0.77234072197E+03  0.77234072197E+03  0.00000000000E+00 0.  1.
         21   -1    0    0  506  502 -0.00000000000E+00 -0.00000000000E+00 -0.10837202527E+03  0.10837202527E+03  0.00000000000E+00 0.  1.
         21    1    1    2  503  502 -0.18965792810E+02  0.48868154699E+02 -0.14314239749E+02  0.54338709040E+02  0.00000000000E+00 0.  1.
         21    1    1    2  504  503 -0.33265607866E+02  0.13968574416E+03  0.11060443697E+03  0.18125134280E+03  0.00000000000E+00 0.  1.
         21    1    1    2  505  501 -0.39860418941E+02 -0.81665307237E+02  0.45659985789E+03  0.46555505112E+03  0.00000000000E+00 0.  1.
         21    1    1    2  506  505  0.92091819617E+02 -0.10688859162E+03  0.11107864159E+03  0.17956764429E+03  0.00000000000E+00 0.  1.
<scales pt_clust_3="52.41944" pt_clust_4="14000.00000" pt_clust_5="88.75188" pt_clust_6="131.94263"></scales>
<clustering>
<clus scale="   52.419">  2  3  1 -1</clus>
<clus scale="   88.752">  1  5  2 -1</clus>
<clus scale="  131.943">  2  6  1 -1</clus>
<clus scale="   88.752">  1  3  2 -1</clus>
</clustering>
</event>
<event>
 6    0  0.1080632E+003  0.1051079E+03  0.7546771E-02  0.1269907E+00
         21   -1    0    0  506  501  0.00000000000E+00  0.00000000000E+00  0.60079014218E+03  0.60079014218E+03  0.00000000000E+00 0.  1.
         21   -1    0    0  505  502 -0.00000000000E+00 -0.00000000000E+00 -0.75684774396E+02  0.75684774396E+02  0.00000000000E+00 0.  1.
         21    1    1    2  503  501 -0.59804011748E+02  0.83181511581E+02  0.12520369889E+03  0.16177654312E+03  0.00000000000E+00 0.  1.
         21    1    1    2  504  502  0.53064317950E+02 -0.85948043869E+02  0.23701323855E+03  0.25763959970E+03  0.00000000000E+00 0.  1.
         21    1    1    2  505  503 -0.30712395153E+02  0.21050833147E+01 -0.40150268420E+02  0.50593741174E+02  0.00000000000E+00 0.  1.
         21    1    1    2  506  504  0.37452088951E+02  0.66144897338E+00  0.20303869876E+03  0.20646503258E+03  0.00000000000E+00 0. -1.
<scales pt_clust_3="105.10794" pt_clust_4="14000.00000" pt_clust_5="30.78445" pt_clust_6="35.72486"></scales>
<clustering>
<clus scale="   30.784">  2  5  1 -1</clus>
<clus scale="   35.725">  1  6  2 -1</clus>
<clus scale="  105.108">  2  3  1 -1</clus>
<clus scale="   35.725">  1  3  2 -1</clus>
</clustering>
</event>
<event>
 6    0  0.1080632E+003  0.1195586E+03  0.7546771E-02  0.1243827E+00
         21   -1    0    0  505  501  0.00000000000E+00  0.00000000000E+00  0.11302720482E+04  0.11302720482E+04  0.00000000000E+00 0. -1.
         21   -1    0    0  503  502 -0.00000000000E+00 -0.00000000000E+00 -0.52139474056E+02  0.52139474056E+02  0.00000000000E+00 0.  1.
         21    1    1    2  503  506 -0.29037998647E+02  0.81424174638E+02  0.17531349696E+03  0.19546847264E+03  0.00000000000E+00 0.  1.
         21    1    1    2  504  502  0.33915102376E+02 -0.83489297417E+02  0.62806972539E+02  0.10984267273E+03  0.00000000000E+00 0.  1.
         21    1    1    2  505  504  0.47033014273E+02 -0.64734422739E+02  0.74737924568E+03  0.75165044188E+03  0.00000000000E+00 0. -1.
         21    1    1    2  506  501 -0.51910118002E+02  0.66799545517E+02  0.92632858989E+02  0.12544993502E+03  0.00000000000E+00 0.  1.
<scales pt_clust_3="51.12130" pt_clust_4="107.81353" pt_clust_5="80.01656" pt_clust_6="51.12130"></scales>
<clustering>
<clus scale="   51.121">  3  6 -1 -1</clus>
<clus scale="   80.017">  1  5  2 -1</clus>
<clus scale="  107.814">  2  4  1 -1</clus>
<clus scale="   80.017">  1  3  2 -1</clus>
</clustering>
</event>
<event>
 6    0  0.1080632E+003  0.6980237E+02  0.7546771E-02  0.1360766E+00
         21   -1    0    0  503  501  0.00000000000E+00  0.00000000000E+00  0.61766775805E+02  0.61766775805E+02  0.00000000000E+00 0. -1.
         21   -1    0    0  504  502 -0.00000000000E+00 -0.00000000000E+00 -0.47169868893E+03  0.47169868893E+03  0.00000000000E+00 0. -1.
         21    1    1    2  503  502  0.82902323295E+01 -0.48187325516E+02 -0.90348560293E+02  0.10273075800E+03  0.00000000000E+00 0. -1.
         21    1    1    2  504  506  0.51689953363E+01  0.57807856619E+02 -0.12607733372E+03  0.13879467165E+03  0.00000000000E+00 0. -1.
         21    1    1    2  505  501  0.66331712675E+02  0.15097850891E+02  0.12928294726E+02  0.69245808627E+02  0.00000000000E+00 0. -1.
         21    1    1    2  506  505 -0.79790940340E+02 -0.24718381994E+02 -0.20643431384E+03  0.22269422646E+03  0.00000000000E+00 0. -1.
<scales pt_clust_3="48.89526" pt_clust_4="41.59257" pt_clust_5="69.80237" pt_clust_6="14000.00000"></scales>
<clustering>
<clus scale="   48.895">  2  3  1 -1</clus>
<clus scale="   41.593">  2  4  1 -1</clus>
<clus scale="   69.802">  1  5  2 -1</clus>
<clus scale="   69.802">  1  3  2 -1</clus>
</clustering>
</event>
<event>
 6    0  0.1080632E+003  0.1488605E+03  0.7546771E-02  0.1201880E+00
         21   -1    0    0  504  501  0.00000000000E+00  0.00000000000E+00  0.29629742106E+03  0.29629742106E+03  0.00000000000E+00 0.  1.
         21   -1    0    0  501  502 -0.00000000000E+00 -0.00000000000E+00 -0.18028033111E+03  0.18028033111E+03  0.00000000000E+00 0. -1.
         21    1    1    2  503  506 -0.60773597658E+02  0.11592094432E+03  0.32089460518E+02  0.13476211998E+03  0.00000000000E+00 0.  1.
         21    1    1    2  504  505  0.36377910687E+02  0.12225560211E+02  0.95511026447E+02  0.10293285618E+03  0.00000000000E+00 0.  1.
         21    1    1    2  505  503 -0.48542153462E+02  0.15569963967E+02  0.45075060535E+02  0.68047964869E+02  0.00000000000E+00 0.  1.
         21    1    1    2  506  502  0.72937840432E+02 -0.14371646850E+03 -0.56658457549E+02  0.17083481114E+03  0.00000000000E+00 0. -1.
<scales pt_clust_3="148.86050" pt_clust_4="38.37729" pt_clust_5="42.61133" pt_clust_6="14000.00000"></scales>
<clustering>
<clus scale="   38.377">  1  4  2 -1</clus>
<clus scale="   42.611">  1  5  2 -1</clus>
<clus scale="  148.861">  1  3  2 -1</clus>
<clus scale="   38.377">  1  3  2 -1</clus>
</clustering>
</event>
<event>
 6    0  0.1080632E+003  0.1555266E+03  0.7546771E-02  0.1193842E+00
         21   -1    0    0  505  501  0.00000000000E+00  0.00000000000E+00  0.10555404690E+04  0.10555404690E+04  0.00000000000E+00 0. -1.
         21   -1    0    0  504  502 -0.00000000000E+00 -0.00000000000E+00 -0.10106713953E+03  0.10106713953E+03  0.00000000000E+00 0. -1.
         21    1    1    2  503  501 -0.51843053901E+02 -0.56936228805E+02  0.18688771944E+03  0.20212980004E+03  0.00000000000E+00 0. -1.
         21    1    1    2  504  503  0.56343429050E+02 -0.14653812568E+03  0.15369445062E+03  0.21970432045E+03  0.00000000000E+00 0. -1.
         21    1    1    2  505  506  0.45123198332E+02  0.19735274090E+03  0.64490650929E+03  0.67593536162E+03  0.00000000000E+00 0. -1.
         21    1    1    2  506  502 -0.49623573481E+02  0.61216135835E+01 -0.31015349842E+02  0.58838126446E+02  0.00000000000E+00 0. -1.
<scales pt_clust_3="81.11317" pt_clust_4="155.52660" pt_clust_5="14000.00000" pt_clust_6="49.99973"></scales>
<clustering>
<clus scale="   50.000">  2  6  1 -1</clus>
<clus scale="   81.113">  1  3  2 -1</clus>
<clus scale="  155.527">  2  4  1 -1</clus>
<clus scale="   81.113">  1  3  2 -1</clus>
</clustering>
</event>
<event>
 6    0  0.1080632E+003  0.1197937E+03  0.7546771E-02  0.1243438E+00
         21   -1    0    0  503  501  0.00000000000E+00  0.00000000000E+00  0.12262563413E+04  0.12262563413E+04  0.00000000000E+00 0. -1.
         21   -1    0    0  504  502 -0.00000000000E+00 -0.00000000000E+00 -0.37427555153E+02  0.37427555153E+02  0.00000000000E+00 0. -1.
         21    1    1    2  503  506 -0.41496129666E+02  0.30608780874E+02  0.35848474943E+03  0.36217418713E+03  0.00000000000E+00 0. -1.
         21    1    1    2  504  501  0.11792257524E+03  0.92624696935E+02  0.55914424654E+03  0.57890185410E+03  0.00000000000E+00 0. -1.
         21    1    1    2  505  502 -0.69418870957E+02 -0.30808329263E+02  0.16504558515E+03  0.18168152898E+03  0.00000000000E+00 0. -1.
         21    1    1    2  506  505 -0.70075746148E+01 -0.92425148546E+02  0.10615420502E+03  0.14092632625E+03  0.00000000000E+00 0. -1.
<scales pt_clust_3="51.56381" pt_clust_4="119.79372" pt_clust_5="81.55088" pt_clust_6="14000.00000"></scales>
<clustering>
<clus scale="   51.564">  1  3  2 -1</clus>
<clus scale="   81.551">  2  5  1 -1</clus>
<clus scale="  119.794">  1  4  2 -1</clus>
<clus scale="   51.564">  1  3  2 -1</clus>
</clustering>
</event>
<event>
 6    0  0.1080632E+003  0.9219197E+02  0.7546771E-02  0.1297629E+00
         21   -1    0    0  503  501  0.00000000000E+00  0.00000000000E+00  0.24019520402E+03  0.24019520402E+03  0.00000000000E+00 0. -1.
         21   -1    0    0  505  502 -0.00000000000E+00 -0.00000000000E+00 -0.15534711920E+04  0.15534711920E+04  0.00000000000E+00 0.  1.
         21    1    1    2  503  504  0.71602560330E+02 -0.12785012715E+01 -0.21887567194E+03  0.23029355392E+03  0.00000000000E+00 0. -1.
         21    1    1    2  504  502 -0.26023918130E+02 -0.20269529964E+02 -0.10445731806E+03  0.10954190731E+03  0.00000000000E+00 0.  1.
         21    1    1    2  505  506 -0.11321339830E+03 -0.40889502882E+02 -0.12096481895E+04  0.12156224608E+04  0.00000000000E+00 0.  1.
         21    1    1    2  506  501  0.67634756101E+02  0.62437534117E+02  0.21970519149E+03  0.23820847396E+03  0.00000000000E+00 0. -1.
<scales pt_clust_3="67.70678" pt_clust_4="32.98633" pt_clust_5="92.19197" pt_clust_6="14000.00000"></scales>
<clustering>
<clus scale="   32.986">  2  4  1 -1</clus>
<clus scale="   67.707">  2  3  1 -1</clus>
<clus scale="   92.192">  2  5  1 -1</clus>
<clus scale="   92.192">  1  3  2 -1</clus>
</clustering>
</event>
<event>
 6    0  0.1080632E+003  0.1720301E+03  0.7546771E-02  0.1175747E+00
         21   -1    0    0  504  501  0.00000000000E+00  0.00000000000E+00  0.14399991471E+03  0.14399991471E+03  0.00000000000E+00 0.  1.
         21   -1    0    0  505  502 -0.00000000000E+00 -0.00000000000E+00 -0.36217233008E+03  0.36217233008E+03  0.00000000000E+00 0.  1.
         21    1    1    2  503  501  0.71153043209E+02  0.53280248784E+02 -0.53008669617E+02  0.10349618120E+03  0.00000000000E+00 0. -1.
         21    1    1    2  504  506  0.64233540101E+01 -0.14787237117E+03 -0.36657252475E+02  0.15248361155E+03  0.00000000000E+00 0.  1.
         21    1    1    2  505  503  0.22248023357E+02  0.10942708377E+03 -0.50081991942E+02  0.12238246248E+03  0.00000000000E+00 0.  1.
         21    1    1    2  506  502 -0.99824420575E+02 -0.14834961385E+02 -0.78424501341E+02  0.12780998957E+03  0.00000000000E+00 0.  1.
<scales pt_clust_3="64.31379" pt_clust_4="156.19962" pt_clust_5="64.31379" pt_clust_6="100.92072"></scales>
<clustering>
<clus scale="   64.314">  3  5 -1 -1</clus>
<clus scale="  100.921">  2  6  1 -1</clus>
<clus scale="  156.200">  1  4  2 -1</clus>
<clus scale="  156.200">  1  3  2 -1</clus>
</clustering>
</event>
<event>
 6    0  0.1080632E+003  0.7686600E+02  0.7546771E-02  0.1338188E+00
         21   -1    0    0  505  501  0.00000000000E+00  0.00000000000E+00  0.17863329118E+03  0.17863329118E+03  0.00000000000E+00 0.  1.
         21   -1    0    0  506  502 -0.00000000000E+00 -0.00000000000E+00 -0.25455080774E+03  0.25455080774E+03  0.00000000000E+00 0.  1.
         21    1    1    2  503  501  0.43777944311E+02 -0.70107644065E+02  0.25644881991E+02  0.86540453759E+02  0.00000000000E+00 0.  1.
         21    1    1    2  504  503  0.87763530592E+00  0.71154881016E+02  0.20614688595E+01  0.71190146720E+02  0.00000000000E+00 0.  1.
         21    1    1    2  505  502 -0.10053728804E+03 -0.15485815103E+02  0.48540354498E+02  0.11271079261E+03  0.00000000000E+00 0.  1.
         21    1    1    2  506  504  0.55881708423E+02  0.14438578153E+02 -0.15216422190E+03  0.16274270583E+03  0.00000000000E+00 0.  1.
<scales pt_clust_3="14000.00000" pt_clust_4="79.07134" pt_clust_5="76.86600" pt_clust_6="57.71688"></scales>
<clustering>
<clus scale="   57.717">  2  6  1 -1</clus>
<clus scale="   79.071">  2  4  1 -1</clus>
<clus scale="   76.866">  2  5  1 -1</clus>
<clus scale="   76.866">  1  3  2 -1</clus>
</clustering>
</event>
<event>
 6    0  0.1080632E+003  0.1353470E+03  0.7546771E-02  0.1219731E+00
         21   -1    0    0  505  501  0.00000000000E+00  0.00000000000E+00  0.20983694425E+03  0.20983694425E+03  0.00000000000E+00 0. -1.
         21   -1    0    0  504  502 -0.00000000000E+00 -0.00000000000E+00 -0.31769336869E+03  0.31769336869E+03  0.00000000000E+00 0. -1.
         21    1    1    2  503  501  0.22365509782E+02  0.10291170493E+03  0.65343531100E+02  0.12393874332E+03  0.00000000000E+00 0. -1.
         21    1    1    2  504  506 -0.15230210559E+02 -0.11781020437E+03 -0.24695049579E+03  0.27403603948E+03  0.00000000000E+00 0. -1.
         21    1    1    2  505  502 -0.39874261444E+02 -0.12837115089E+02  0.75793220661E+02  0.86598848420E+02  0.00000000000E+00 0. -1.
         21    1    1    2  506  503  0.32738962221E+02  0.27735614533E+02 -0.20426804179E+01  0.42956681717E+02  0.00000000000E+00 0.  1.
<scales pt_clust_3="39.04544" pt_clust_4="120.73502" pt_clust_5="41.88972" pt_clust_6="39.04544"></scales>
<clustering>
<clus scale="   39.045">  3  6 -1 -1</clus>
<clus scale="   41.890">  1  5  2 -1</clus>
<clus scale="  120.735">  2  4  1 -1</clus>
<clus scale="   41.890">  1  3  2 -1</clus>
</clustering>
</event>
<event>
 6    0  0.1080632E+003  0.2437546E+03  0.7546771E-02  0.1117317E+00
         21   -1    0    0  503  501  0.00000000000E+00  0.00000000000E+00  0.38315316115E+03  0.38315316115E+03  0.00000000000E+00 0.  1.
         21   -1    0    0  506  502 -0.00000000000E+00 -0.00000000000E+00 -0.33374996108E+03  0.33374996108E+03  0.00000000000E+00 0.  1.
         21    1    1    2  503  505 -0.36576343164E+02 -0.82989315610E+02  0.97180313874E+02  0.13292504952E+03  0.00000000000E+00 0.  1.
         21    1    1    2  504  501  0.10734759124E+03  0.15992553407E+03 -0.24749071176E+00  0.19261293582E+03  0.00000000000E+00 0.  1.
         21    1    1    2  505  502 -0.37562849410E+02 -0.18048626313E+03  0.98716336802E+02  0.20911999901E+03  0.00000000000E+00 0.  1.
         21    1    1    2  506  504 -0.33208398664E+02  0.10355004467E+03 -0.14624595990E+03  0.18224513788E+03  0.00000000000E+00 0.  1.
<scales pt_clust_3="42.68294" pt_clust_4="236.03596" pt_clust_5="42.68294" pt_clust_6="108.74470"></scales>
<clustering>
<clus scale="   42.683">  3  5 -1 -1</clus>
<clus scale="  108.745">  2  6  1 -1</clus>
<clus scale="  236.036">  2  4  1 -1</clus>
<clus scale="  243.755">  1  3  2 -1</clus>
</clustering>
</event>
<event>
 6    0  0.1080632E+003  0.1669211E+03  0.7546771E-02  0.1181097E+00
         21   -1    0    0  504  501  0.00000000000E+00  0.00000000000E+00  0.28782901901E+03  0.28782901901E+03  0.00000000000E+00 0.  1.
         21   -1    0    0  503  502 -0.00000000000E+00 -0.00000000000E+00 -0.29576162992E+03  0.29576162992E+03  0.00000000000E+00 0. -1.
         21    1    1    2  503  505 -0.50915041552E+02  0.23223279315E+02 -0.51848873684E+02  0.76288713849E+02  0.00000000000E+00 0.  1.
         21    1    1    2  504  506  0.19890607421E+01  0.51570247434E+02 -0.49544591643E+02  0.71540990657E+02  0.00000000000E+00 0.  1.
         21    1    1    2  505  501 -0.16080920051E+02 -0.16182217637E+03  0.21705457730E+03  0.27121523239E+03  0.00000000000E+00 0.  1.
         21    1    1    2  506  502  0.65006900861E+02  0.87028649616E+02 -0.12359372288E+03  0.16454571203E+03  0.00000000000E+00 0. -1.
<scales pt_clust_3="55.96126" pt_clust_4="31.29895" pt_clust_5="160.62598" pt_clust_6="31.29895"></scales>
<clustering>
<clus scale="   31.299">  4  6 -1 -1</clus>
<clus scale="   55.961">  2  3  1 -1</clus>
<clus scale="  160.626">  1  5  2 -1</clus>
<clus scale="  160.626">  1  3  2 -1</clus>
</clustering>
</event>
<event>
 6    0  0.1080632E+003  0.1227406E+03  0.7546771E-02  0.1238643E+00
         21   -1    0    0  506  501  0.00000000000E+00  0.00000000000E+00  0.84515955642E+02  0.84515955642E+02  0.00000000000E+00 0. -1.
         21   -1    0    0  504  502 -0.00000000000E+00 -0.00000000000E+00 -0.10511033480E+04  0.10511033480E+04  0.00000000000E+00 0. -1.
         21    1    1    2  503  501 -0.42585734145E+00  0.43121265395E+02 -0.81665356418E+02  0.92351801945E+02  0.00000000000E+00 0. -1.
         21    1    1    2  504  503  0.33015434742E+02  0.63146836481E+02 -0.27821980999E+03  0.28719993830E+03  0.00000000000E+00 0. -1.
         21    1    1    2  505  502 -0.78268259173E+02 -0.88641701887E+02 -0.66756384221E+03  0.67795630769E+03  0.00000000000E+00 0. -1.
         21    1    1    2  506  505  0.45678681772E+02 -0.17626399989E+02  0.60861616222E+02  0.78111255746E+02  0.00000000000E+00 0. -1.
<scales pt_clust_3="36.38206" pt_clust_4="36.38206" pt_clust_5="113.48153" pt_clust_6="48.96154"></scales>
<clustering>
<clus scale="   36.382">  3  4 -1 -1</clus>
<clus scale="   48.962">  1  6  2 -1</clus>
<clus scale="  113.482">  2  5  1 -1</clus>
<clus scale="   48.962">  1  3  2 -1</clus>
</clustering>
</event>
<event>
 6    0  0.1080632E+003  0.1684639E+03  0.7546771E-02  0.1179459E+00
         21   -1    0    0  505  501  0.00000000000E+00  0.00000000000E+00  0.10507589488E+03  0.10507589488E+03  0.00000000000E+00 0.  1.
         21   -1    0    0  506  502 -0.00000000000E+00 -0.00000000000E+00 -0.14258182443E+04  0.14258182443E+04  0.00000000000E+00 0.  1.
         21    1    1    2  503  504 -0.15967966671E+03 -0.23095582675E+02 -0.59014411685E+03  0.61180150421E+03  0.00000000000E+00 0.  1.
         21    1    1    2  504  502 -0.19647001769E+02 -0.25861289097E+02 -0.38538614703E+03  0.38675223758E+03  0.00000000000E+00 0.  1.
         21    1    1    2  505  503  0.12598825567E+03  0.14426244567E+03 -0.37330182782E+03  0.41956995656E+03  0.00000000000E+00 0.  1.
         21    1    1    2  506  501  0.53338412809E+02 -0.95305573895E+02  0.28089742296E+02  0.11277044080E+03  0.00000000000E+00 0.  1.
<scales pt_clust_3="168.46390" pt_clust_4="32.47785" pt_clust_5="14000.00000" pt_clust_6="109.75097"></scales>
<clustering>
<clus scale="   32.478">  2  4  1 -1</clus>
<clus scale="  109.751">  1  6  2 -1</clus>
<clus scale="  168.464">  2  3  1 -1</clus>
<clus scale="  109.751">  1  3  2 -1</clus>
</clustering>
</event>
<event>
 6    0  0.1080632E+003  0.2453581E+03  0.7546771E-02  0.1116274E+00
         21   -1    0    0  506  501  0.00000000000E+00  0.00000000000E+00  0.35569362820E+03  0.35569362820E+03  0.00000000000E+00 0.  1.
         21   -1    0    0  503  502 -0.00000000000E+00 -0.00000000000E+00 -0.19576903685E+04  0.19576903685E+04  0.00000000000E+00 0.  1.
         21    1    1    2  503  501 -0.48384754368E+02  0.31099505744E+02 -0.63611265962E+02  0.85759296114E+02  0.00000000000E+00 0.  1.
         21    1    1    2  504  505 -0.14156829476E+03  0.62009558304E+02 -0.14522961874E+04  0.14604968276E+04  0.00000000000E+00 0.  1.
         21    1    1    2  505  502 -0.11026904455E+02  0.35147230100E+02 -0.38388629657E+03  0.38564959367E+03  0.00000000000E+00 0.  1.
         21    1    1    2  506  504  0.20097995358E+03 -0.12825629415E+03  0.29779700959E+03  0.38147827939E+03  0.00000000000E+00 0.  1.
<scales pt_clust_3="57.51751" pt_clust_4="30.74414" pt_clust_5="30.74414" pt_clust_6="237.13886"></scales>
<clustering>
<clus scale="   30.744">  4  5 -1 -1</clus>
<clus scale="   57.518">  2  3  1 -1</clus>
<clus scale="  237.139">  1  6  2 -1</clus>
<clus scale="  237.139">  1  3  2 -1</clus>
</clustering>
</event>
<event>
 6    0  0.1080632E+003  0.2384521E+03  0.7546771E-02  0.1120828E+00
         21   -1    0    0  502  501  0.00000000000E+00  0.00000000000E+00  0.30854170565E+03  0.30854170565E+03  0.00000000000E+00 0. -1.
         21   -1    0    0  503  502 -0.00000000000E+00 -0.00000000000E+00 -0.81837364181E+03  0.81837364181E+03  0.00000000000E+00 0. -1.
         21    1    1    2  503  505  0.11482115248E+03  0.12999655219E+03 -0.49346492620E+03  0.52305892022E+03  0.00000000000E+00 0. -1.
         21    1    1    2  504  501 -0.25756326939E+02 -0.15928777009E+02  0.20362783306E+03  0.20586745423E+03  0.00000000000E+00 0. -1.
         21    1    1    2  505  506  0.69373430419E+02  0.13172896422E+02 -0.17660925613E+03  0.19020259567E+03  0.00000000000E+00 0. -1.
         21    1    1    2  506  504 -0.15843825596E+03 -0.12724067160E+03 -0.43385586894E+02  0.20778637735E+03  0.00000000000E+00 0. -1.
<scales pt_clust_3="46.47144" pt_clust_4="30.28390" pt_clust_5="46.47144" pt_clust_6="227.02852"></scales>
<clustering>
<clus scale="   30.284">  1  4  2 -1</clus>
<clus scale="   46.471">  3  5 -1 -1</clus>
<clus scale="  227.029">  1  6  2 -1</clus>
<clus scale="   30.284">  1  3  2 -1</clus>
</clustering>
</event>
<event>
 6    0  0.1080632E+003  0.1358318E+03  0.7546771E-02  0.1219050E+00
         21   -1    0    0  503  501  0.00000000000E+00  0.00000000000E+00  0.79686305304E+03  0.79686305304E+03  0.00000000000E+00 0. -1.
         21   -1    0    0  505  502 -0.00000000000E+00 -0.00000000000E+00 -0.81230796508E+02  0.81230796508E+02  0.00000000000E+00 0. -1.
         21    1    1    2  503  506  0.10569045127E+03  0.68499776051E+02  0.69829860503E+03  0.70956580568E+03  0.00000000000E+00 0. -1.
         21    1    1    2  504  502 -0.35312610767E+02  0.67985725081E+01  0.33411134228E+01  0.36115981314E+02  0.00000000000E+00 0.  1.
         21    1    1    2  505  501 -0.29414839600E+02 -0.17115144447E+02 -0.32786732012E+02  0.47256012889E+02  0.00000000000E+00 0. -1.
         21    1    1    2  506  504 -0.40963000904E+02 -0.58183204113E+02  0.46779270094E+02  0.85156049664E+02  0.00000000000E+00 0.  1.
<scales pt_clust_3="121.30039" pt_clust_4="45.24297" pt_clust_5="34.03176" pt_clust_6="45.24297"></scales>
<clustering>
<clus scale="   34.032">  2  5  1 -1</clus>
<clus scale="   45.243">  4  6 -1 -1</clus>
<clus scale="  121.300">  1  3  2 -1</clus>
<clus scale="  121.300">  1  3  2 -1</clus>
</clustering>
</event>
<event>
 6    0  0.1080632E+003  0.1184343E+03  0.7546771E-02  0.1245703E+00
         21   -1    0    0  504  501  0.00000000000E+00  0.00000000000E+00  0.69046568048E+03  0.69046568048E+03  0.00000000000E+00 0.  1.
         21   -1    0    0  503  502 -0.00000000000E+00 -0.00000000000E+00 -0.14724882516E+03  0.14724882516E+03  0.00000000000E+00 0. -1.
         21    1    1    2  503  505  0.37961795983E+02  0.10536600503E+03 -0.11503540604E+03  0.16054979792E+03  0.00000000000E+00 0. -1.
         21    1    1    2  504  506 -0.45613316738E+01 -0.68567056835E+02  0.22149851189E+03  0.23191342738E+03  0.00000000000E+00 0.  1.
         21    1    1    2  505  501 -0.28825100293E+02  0.14725471772E+02  0.11940741178E+03  0.12371683763E+03  0.00000000000E+00 0.  1.
         21    1    1    2  506  502 -0.45753640162E+01 -0.51524419964E+02  0.31734633769E+03  0.32153444272E+03  0.00000000000E+00 0.  1.
<scales pt_clust_3="112.16664" pt_clust_4="32.73365" pt_clust_5="32.36859" pt_clust_6="32.73365"></scales>
<clustering>
<clus scale="   32.369">  1  5  2 -1</clus>
<clus scale="   32.734">  4  6 -1 -1</clus>
<clus scale="  112.167">  2  3  1 -1</clus>
<clus scale="   32.369">  1  3  2 -1</clus>
</clustering>
</event>
<event>
 6    0  0.1080632E+003  0.9145629E+02  0.7546771E-02  0.1299363E+00
         21   -1    0    0  505  501  0.00000000000E+00  0.00000000000E+00  0.77475922296E+02  0.77475922296E+02  0.00000000000E+00 0.  1.
         21   -1    0    0  503  502 -0.00000000000E+00 -0.00000000000E+00 -0.18846082691E+04  0.18846082691E+04  0.00000000000E+00 0. -1.
         21    1    1    2  503  504 -0.12144406000E+01 -0.34487820364E+02 -0.11997273727E+03  0.12483726330E+03  0.00000000000E+00 0.  1.
         21    1    1    2  504  501  0.11083171611E+03 -0.81350470371E+02 -0.22229794534E+03  0.26137701664E+03  0.00000000000E+00 0.  1.
         21    1    1    2  505  506 -0.33598798359E+02  0.53774213025E+02  0.35252952726E+02  0.72548714072E+02  0.00000000000E+00 0.  1.
         21    1    1    2  506  502 -0.76018477152E+02  0.62064077710E+02 -0.15001146169E+04  0.15033211974E+04  0.00000000000E+00 0. -1.
<scales pt_clust_3="34.50920" pt_clust_4="14000.00000" pt_clust_5="63.10540" pt_clust_6="91.45629"></scales>
<clustering>
<clus scale="   34.509">  2  3  1 -1</clus>
<clus scale="   63.105">  1  5  2 -1</clus>
<clus scale="   91.456">  2  6  1 -1</clus>
<clus scale="   63.105">  1  3  2 -1</clus>
</clustering>
</event>
<event>
 6    0  0.1080632E+003  0.1166723E+03  0.7546771E-02  0.1248690E+00
         21   -1    0    0  505  501  0.00000000000E+00  0.00000000000E+00  0.65219437192E+02  0.65219437192E+02  0.00000000000E+00 0. -1.
         21   -1    0    0  506  502 -0.00000000000E+00 -0.00000000000E+00 -0.59649695959E+03  0.59649695959E+03  0.00000000000E+00 0.  1.
         21    1    1    2  503  502  0.86212555964E+01 -0.53596946468E+02 -0.32485825308E+03  0.32936278374E+03  0.00000000000E+00 0. -1.
         21    1    1    2  504  501 -0.14771080223E+02  0.88473913051E+02 -0.12651927385E+03  0.15509011818E+03  0.00000000000E+00 0.  1.
         21    1    1    2  505  503  0.75623627820E+01 -0.95732620178E+02 -0.37562063463E+02  0.10311562689E+03  0.00000000000E+00 0. -1.
         21    1    1    2  506  504 -0.14125381554E+01  0.60855653595E+02 -0.42337932001E+02  0.74147867971E+02  0.00000000000E+00 0.  1.
<scales pt_clust_3="54.28590" pt_clust_4="31.64971" pt_clust_5="110.16515" pt_clust_6="31.64971"></scales>
<clustering>
<clus scale="   31.650">  4  6 -1 -1</clus>
<clus scale="   54.286">  2  3  1 -1</clus>
<clus scale="  110.165">  1  5  2 -1</clus>
<clus scale="  110.165">  1  3  2 -1</clus>
</clustering>
</event>
<event>
 6    0  0.1280387E+003  0.1033314E+03  0.7546771E-02  0.1273443E+00
         21   -1    0    0  506  501  0.00000000000E+00  0.00000000000E+00  0.12800568013E+04  0.12800568013E+04  0.00000000000E+00 0.  1.
         21   -1    0    0  503  502 -0.00000000000E+00 -0.00000000000E+00 -0.22599351057E+03  0.22599351057E+03  0.00000000000E+00 0. -1.
         21    1    1    2  503  504  0.65719238546E+02  0.36212683803E+02  0.13955990580E+03  0.15845297123E+03  0.00000000000E+00 0. -1.
         21    1    1    2  504  501 -0.79679703968E+02 -0.42325064919E+02  0.99787123386E+03  0.10019417477E+04  0.00000000000E+00 0.  1.
         21    1    1    2  505  502  0.60610447161E+02  0.29213206018E+02 -0.20371161634E+03  0.21453545242E+03  0.00000000000E+00 0. -1.
         21    1    1    2  506  505 -0.46649981739E+02 -0.23100824903E+02  0.12034376736E+03  0.13112014052E+03  0.00000000000E+00 0.  1.
<scales pt_clust_3="14000.00000" pt_clust_4="103.33135" pt_clust_5="67.03922" pt_clust_6="52.05640"></scales>
<clustering>
<clus scale="   52.056">  1  6  2 -1</clus>
<clus scale="   67.039">  2  5  1 -1</clus>
<clus scale="  103.331">  1  4  2 -1</clus>
<clus scale="   52.056">  1  3  2 -1</clus>
</clustering>
</event>
<event>
 6    0  0.1080632E+003  0.1959059E+03  0.7546771E-02  0.1153240E+00
         21   -1    0    0  505  501  0.00000000000E+00  0.00000000000E+00  0.49465270776E+03  0.49465270776E+03  0.00000000000E+00 0. -1.
         21   -1    0    0  506  502 -0.00000000000E+00 -0.00000000000E+00 -0.33988861895E+03  0.33988861895E+03  0.00000000000E+00 0. -1.
         21    1    1    2  503  501 -0.74807406083E+02 -0.22963320397E+03 -0.50265811006E+01  0.24156328961E+03  0.00000000000E+00 0. -1.
         21    1    1    2  504  502 -0.25799781619E+02  0.38049891383E+02  0.16611564710E+02  0.48881152277E+02  0.00000000000E+00 0. -1.
         21    1    1    2  505  504  0.10848233204E+03  0.15368097958E+03  0.31558599644E+03  0.36739730674E+03  0.00000000000E+00 0. -1.
         21    1    1    2  506  503 -0.78751443412E+01  0.37902333012E+02 -0.17240689125E+03  0.17669957809E+03  0.00000000000E+00 0. -1.
<scales pt_clust_3="195.90592" pt_clust_4="49.48565" pt_clust_5="14000.00000" pt_clust_6="38.71182"></scales>
<clustering>
<clus scale="   38.712">  2  6  1 -1</clus>
<clus scale="   49.486">  2  4  1 -1</clus>
<clus scale="  195.906">  2  3  1 -1</clus>
<clus scale="  195.906">  1  3  2 -1</clus>
</clustering>
</event>
<event>
 6    0  0.1080632E+003  0.1849067E+03  0.7546771E-02  0.1163137E+00
         21   -1    0    0  503  501  0.00000000000E+00  0.00000000000E+00  0.30362341005E+02  0.30362341005E+02  0.00000000000E+00 0. -1.
         21   -1    0    0  505  502 -0.00000000000E+00 -0.00000000000E+00 -0.35622741037E+04  0.35622741037E+04  0.00000000000E+00 0.  1.
         21    1    1    2  503  506  0.10108224087E+03  0.14926282121E+03 -0.30289856714E+03  0.35248340555E+03  0.00000000000E+00 0. -1.
         21    1    1    2  504  502 -0.46109094923E+02 -0.41678395327E+02 -0.74491103131E+03  0.74749955307E+03  0.00000000000E+00 0.  1.
         21    1    1    2  505  501  0.14314588777E+02 -0.31166626613E+02 -0.18419348727E+04  0.18422541468E+04  0.00000000000E+00 0.  1.
         21    1    1    2  506  504 -0.69287734726E+02 -0.76417799273E+02 -0.64216729157E+03  0.65039933933E+03  0.00000000000E+00 0.  1.
<scales pt_clust_3="176.97055" pt_clust_4="42.38861" pt_clust_5="34.29674" pt_clust_6="42.38861"></scales>
<clustering>
<clus scale="   34.297">  2  5  1 -1</clus>
<clus scale="   42.389">  4  6 -1 -1</clus>
<clus scale="  176.971">  1  3  2 -1</clus>
<clus scale="  176.971">  1  3  2 -1</clus>
</clustering>
</event>
<event>
 6    0  0.1080632E+003  0.7157608E+02  0.7546771E-02  0.1354814E+00
         21   -1    0    0  503  501  0.00000000000E+00  0.00000000000E+00  0.74494500599E+02  0.74494500599E+02  0.00000000000E+00 0. -1.
         21   -1    0    0  506  502 -0.00000000000E+00 -0.00000000000E+00 -0.23574218164E+03  0.23574218164E+03  0.00000000000E+00 0. -1.
         21    1    1    2  503  502  0.64209795241E+01  0.94211457773E+02 -0.68752464856E+02  0.11680723084E+03  0.00000000000E+00 0. -1.
         21    1    1    2  504  501  0.49657389313E+02 -0.10944100234E+02 -0.13429124890E+02  0.52592499832E+02  0.00000000000E+00 0. -1.
         21    1    1    2  505  504 -0.57566058762E+02 -0.43066580556E+02 -0.31363710292E+02  0.78436367875E+02  0.00000000000E+00 0. -1.
         21    1    1    2  506  505  0.14876899253E+01 -0.40200776982E+02 -0.47702381005E+02  0.62400583690E+02  0.00000000000E+00 0. -1.
<scales pt_clust_3="14000.00000" pt_clust_4="53.17322" pt_clust_5="71.57608" pt_clust_6="40.22829"></scales>
<clustering>
<clus scale="   40.228">  2  6  1 -1</clus>
<clus scale="   53.173">  1  4  2 -1</clus>
<clus scale="   71.576">  1  5  2 -1</clus>
<clus scale="   53.173">  1  3  2 -1</clus>
</clustering>
</event>
<event>
 6    0  0.1080632E+003  0.1078854E+03  0.7546771E-02  0.1264537E+00
         21   -1    0    0  503  501  0.00000000000E+00  0.00000000000E+00  0.97343476967E+03  0.97343476967E+03  0.00000000000E+00 0. -1.
         21   -1    0    0  504  502 -0.00000000000E+00 -0.00000000000E+00 -0.53176358820E+02  0.53176358820E+02  0.00000000000E+00 0. -1.
         21    1    1    2  503  505 -0.85523886256E+02 -0.59774837661E+02  0.69856155430E+03  0.70631127096E+03  0.00000000000E+00 0. -1.
         21    1    1    2  504  501  0.13164139359E+03  0.56474638191E+02  0.10739022112E+03  0.17902932960E+03  0.00000000000E+00 0. -1.
         21    1    1    2  505  506 -0.43266490072E+02 -0.27298298879E+02  0.82258160002E+02  0.96868938116E+02  0.00000000000E+00 0.  1.
         21    1    1    2  506  502 -0.28510172661E+01  0.30598498349E+02  0.32048475434E+02  0.44401589817E+02  0.00000000000E+00 0. -1.
<scales pt_clust_3="14000.00000" pt_clust_4="107.88539" pt_clust_5="49.18013" pt_clust_6="30.73103"></scales>
<clustering>
<clus scale="   30.731">  2  6  1 -1</clus>
<clus scale="   49.180">  2  5  1 -1</clus>
<clus scale="  107.885">  2  4  1 -1</clus>
<clus scale="  107.885">  1  3  2 -1</clus>
</clustering>
</event>
<event>
 6    0  0.1080632E+003  0.1016651E+03  0.7546771E-02  0.1276833E+00
         21   -1    0    0  505  501  0.00000000000E+00  0.00000000000E+00  0.42961866935E+03  0.42961866935E+03  0.00000000000E+00 0.  1.
         21   -1    0    0  504  502 -0.00000000000E+00 -0.00000000000E+00 -0.40783197768E+03  0.40783197768E+03  0.00000000000E+00 0.  1.
         21    1    1    2  503  501 -0.12026106767E+03 -0.71100422437E+02  0.24813826285E+03  0.28476409879E+03  0.00000000000E+00 0.  1.
         21    1    1    2  504  503  0.18362677172E+02  0.24354017389E+02 -0.33313834661E+03  0.33453170860E+03  0.00000000000E+00 0.  1.
         21    1    1    2  505  506  0.30152437149E+02  0.20156499246E+02  0.13254736773E+03  0.13742000808E+03  0.00000000000E+00 0.  1.
         21    1    1    2  506  502  0.71745953350E+02  0.26589905802E+02 -0.25760592301E+02  0.80734831569E+02  0.00000000000E+00 0.  1.
<scales pt_clust_3="101.66514" pt_clust_4="30.50092" pt_clust_5="37.21890" pt_clust_6="14000.00000"></scales>
<clustering>
<clus scale="   30.501">  2  4  1 -1</clus>
<clus scale="   37.219">  1  5  2 -1</clus>
<clus scale="  101.665">  1  3  2 -1</clus>
<clus scale="   37.219">  1  3  2 -1</clus>
</clustering>
</event>
<event>
 6    0  0.1080632E+003  0.1291829E+03  0.7546771E-02  0.1228673E+00
         21   -1    0    0  506  501  0.00000000000E+00  0.00000000000E+00  0.78643354870E+03  0.78643354870E+03  0.00000000000E+00 0.  1.
         21   -1    0    0  504  502 -0.00000000000E+00 -0.00000000000E+00 -0.13620832072E+03  0.13620832072E+03  0.00000000000E+00 0.  1.
         21    1    1    2  503  501 -0.15366971152E+02 -0.27715985950E+02  0.25308221552E+03  0.25505867461E+03  0.00000000000E+00 0.  1.
         21    1    1    2  504  505  0.15193150394E+03 -0.11908567067E+02 -0.62818307547E+02  0.16483669380E+03  0.00000000000E+00 0.  1.
         21    1    1    2  505  503 -0.84855399352E+02  0.12045012204E+02  0.76651329060E+02  0.11498237850E+03  0.00000000000E+00 0.  1.
         21    1    1    2  506  502 -0.51709133434E+02  0.27579540812E+02  0.38330999095E+03  0.38776412252E+03  0.00000000000E+00 0.  1.
<scales pt_clust_3="31.69100" pt_clust_4="129.18289" pt_clust_5="14000.00000" pt_clust_6="63.28479"></scales>
<clustering>
<clus scale="   31.691">  1  3  2 -1</clus>
<clus scale="   63.285">  1  6  2 -1</clus>
<clus scale="  129.183">  2  4  1 -1</clus>
<clus scale="   31.691">  1  3  2 -1</clus>
</clustering>
</event>
<event>
 6    0  0.1080632E+003  0.1237261E+03  0.7546771E-02  0.1237074E+00
         21   -1    0    0  506  501  0.00000000000E+00  0.00000000000E+00  0.18873322810E+03  0.18873322810E+03  0.00000000000E+00 0.  1.
         21   -1    0    0  503  502 -0.00000000000E+00 -0.00000000000E+00 -0.19014504127E+03  0.19014504127E+03  0.00000000000E+00 0.  1.
         21    1    1    2  503  504 -0.58199058703E-01 -0.51837985382E+02 -0.54945229968E+02  0.75539118421E+02  0.00000000000E+00 0.  1.
         21    1    1    2  504  505 -0.16225494316E+02  0.44445289175E+02 -0.76053133461E+01  0.47921719363E+02  0.00000000000E+00 0.  1.
         21    1    1    2  505  501  0.67576733146E+02  0.86768579749E+02 -0.39970569674E+02  0.11701729673E+03  0.00000000000E+00 0.  1.
         21    1    1    2  506  502 -0.51293039771E+02 -0.79375883542E+02  0.10110929982E+03  0.13840013485E+03  0.00000000000E+00 0.  1.
<scales pt_clust_3="51.83802" pt_clust_4="46.78308" pt_clust_5="46.78308" pt_clust_6="101.09775"></scales>
<clustering>
<clus scale="   46.783">  4  5 -1 -1</clus>
<clus scale="   51.838">  2  3  1 -1</clus>
<clus scale="  101.098">  1  6  2 -1</clus>
<clus scale="  101.098">  1  3  2 -1</clus>
</clustering>
</event>
<event>
 6    0  0.1080632E+003  0.1474406E+03  0.7546771E-02  0.1203654E+00
         21   -1    0    0  506  501  0.00000000000E+00  0.00000000000E+00  0.48227497252E+03  0.48227497252E+03  0.00000000000E+00 0.  1.
         21   -1    0    0  505  502 -0.00000000000E+00 -0.00000000000E+00 -0.21367812332E+03  0.21367812332E+03  0.00000000000E+00 0.  1.
         21    1    1    2  503  501  0.54107389548E+02  0.83893524240E+01  0.59314346891E+02  0.80722875227E+02  0.00000000000E+00 0.  1.
         21    1    1    2  504  503  0.61076010480E+02 -0.35580222730E+02  0.12292972028E+03  0.14180249446E+03  0.00000000000E+00 0.  1.
         21    1    1    2  505  504 -0.57499562140E+02  0.13814932635E+03 -0.14631351114E+03  0.20928229634E+03  0.00000000000E+00 0.  1.
         21    1    1    2  506  502 -0.57683837887E+02 -0.11095845604E+03  0.23266629317E+03  0.26414542983E+03  0.00000000000E+00 0.  1.
<scales pt_clust_3="42.19195" pt_clust_4="42.19195" pt_clust_5="139.42976" pt_clust_6="125.05680"></scales>
<clustering>
<clus scale="   42.192">  3  4 -1 -1</clus>
<clus scale="  125.057">  1  6  2 -1</clus>
<clus scale="  139.430">  2  5  1 -1</clus>
<clus scale="  125.057">  1  3  2 -1</clus>
</clustering>
</event>
<event>
 6    0  0.1080632E+003  0.8333151E+02  0.7546771E-02  0.1319854E+00
         21   -1    0    0  506  501  0.00000000000E+00  0.00000000000E+00  0.16102046258E+03  0.16102046258E+03  0.00000000000E+00 0. -1.
         21   -1    0    0  503  502 -0.00000000000E+00 -0.00000000000E+00 -0.45247147797E+03  0.45247147797E+03  0.00000000000E+00 0. -1.
         21    1    1    2  503  505  0.90947315301E+02  0.19147452805E+02 -0.14767619671E+01  0.92952783365E+02  0.00000000000E+00 0. -1.
         21    1    1    2  504  502 -0.81920735211E+02  0.12819660002E+02 -0.37265937464E+03  0.38177265493E+03  0.00000000000E+00 0. -1.
         21    1    1    2  505  501 -0.15043418896E+01 -0.70110780747E+02  0.66532620243E+02  0.96666303218E+02  0.00000000000E+00 0. -1.
         21    1    1    2  506  504 -0.75222382009E+01  0.38143667940E+02  0.16152500969E+02  0.42100199038E+02  0.00000000000E+00 0.  1.
<scales pt_clust_3="83.33151" pt_clust_4="14000.00000" pt_clust_5="46.91818" pt_clust_6="38.87832"></scales>
<clustering>
<clus scale="   38.878">  1  6  2 -1</clus>
<clus scale="   46.918">  1  5  2 -1</clus>
<clus scale="   83.332">  1  3  2 -1</clus>
<clus scale="   38.878">  1  3  2 -1</clus>
</clustering>
</event>
<event>
 6    0  0.1080632E+003  0.1661198E+03  0.7546771E-02  0.1181956E+00
         21   -1    0    0  505  501  0.00000000000E+00  0.00000000000E+00  0.72539587436E+03  0.72539587436E+03  0.00000000000E+00 0.  1.
         21   -1    0    0  504  502 -0.00000000000E+00 -0.00000000000E+00 -0.54261047001E+03  0.54261047001E+03  0.00000000000E+00 0. -1.
         21    1    1    2  503  506  0.57774922916E+02  0.13938580826E+03 -0.12728103494E+03  0.19740011935E+03  0.00000000000E+00 0. -1.
         21    1    1    2  504  501 -0.38518114165E+02  0.80724951060E+01 -0.18840950507E+02  0.43632461678E+02  0.00000000000E+00 0.  1.
         21    1    1    2  505  503 -0.10175263042E+03 -0.13293260869E+03  0.66234624046E+03  0.68317436904E+03  0.00000000000E+00 0.  1.
         21    1    1    2  506  502  0.82495821673E+02 -0.14525694680E+02 -0.33343885066E+03  0.34379939431E+03  0.00000000000E+00 0. -1.
<scales pt_clust_3="14000.00000" pt_clust_4="39.35493" pt_clust_5="166.11975" pt_clust_6="57.72475"></scales>
<clustering>
<clus scale="   39.355">  2  4  1 -1</clus>
<clus scale="   57.725">  2  6  1 -1</clus>
<clus scale="  166.120">  1  5  2 -1</clus>
<clus scale="  166.120">  1  3  2 -1</clus>
</clustering>
</event>
<event>
 6    0  0.1080632E+003  0.8362758E+02  0.7546771E-02  0.1319061E+00
         21   -1    0    0  505  501  0.00000000000E+00  0.00000000000E+00  0.55663012692E+02  0.55663012692E+02  0.00000000000E+00 0.  1.
         21   -1    0    0  503  502 -0.00000000000E+00 -0.00000000000E+00 -0.11941713864E+04  0.11941713864E+04  0.00000000000E+00 0. -1.
         21    1    1    2  503  504 -0.67290153585E+02 -0.36016905585E+02 -0.63158818036E+03  0.63618300183E+03  0.00000000000E+00 0. -1.
         21    1    1    2  504  501 -0.83964988845E+02  0.25813784891E+02 -0.22309953502E+03  0.23977045975E+03  0.00000000000E+00 0. -1.
         21    1    1    2  505  506  0.82816694754E+02  0.17042098694E+02 -0.28345990314E+01  0.84599485871E+02  0.00000000000E+00 0.  1.
         21    1    1    2  506  502  0.68438447676E+02 -0.68389779998E+01 -0.28098605926E+03  0.28928145160E+03  0.00000000000E+00 0. -1.
<scales pt_clust_3="45.23661" pt_clust_4="14000.00000" pt_clust_5="83.62758" pt_clust_6="68.77930"></scales>
<clustering>
<clus scale="   68.779">  2  6  1 -1</clus>
<clus scale="   45.237">  2  3  1 -1</clus>
<clus scale="   83.628">  1  5  2 -1</clus>
<clus scale="   83.628">  1  3  2 -1</clus>
</clustering>
</event>
<event>
 6    0  0.1080632E+003  0.1588417E+03  0.7546771E-02  0.1190011E+00
         21   -1    0    0  504  501  0.00000000000E+00  0.00000000000E+00  0.33016297638E+03  0.33016297638E+03  0.00000000000E+00 0.  1.
         21   -1    0    0  506  502 -0.00000000000E+00 -0.00000000000E+00 -0.31061772710E+03  0.31061772710E+03  0.00000000000E+00 0. -1.
         21    1    1    2  503  505 -0.44766583044E+02  0.28216524061E+02  0.60187230892E+02  0.80141886364E+02  0.00000000000E+00 0.  1.
         21    1    1    2  504  502  0.17128233012E+03 -0.50786215769E+02  0.87788347574E+02  0.19905695239E+03  0.00000000000E+00 0. -1.
         21    1    1    2  505  501 -0.90835549842E+02 -0.19557935473E+02  0.94136801262E+02  0.13226997886E+03  0.00000000000E+00 0.  1.
         21    1    1    2  506  503 -0.35680197234E+02  0.42127627182E+02 -0.22256713045E+03  0.22931188588E+03  0.00000000000E+00 0. -1.
<scales pt_clust_3="40.21683" pt_clust_4="149.63518" pt_clust_5="40.21683" pt_clust_6="55.20701"></scales>
<clustering>
<clus scale="   40.217">  3  5 -1 -1</clus>
<clus scale="   55.207">  2  6  1 -1</clus>
<clus scale="  149.635">  2  4  1 -1</clus>
<clus scale="  158.842">  1  3  2 -1</clus>
</clustering>
</event>
<event>
 6    0  0.1080632E+003  0.1449927E+03  0.7546771E-02  0.1206764E+00
         21   -1    0    0  505  501  0.00000000000E+00  0.00000000000E+00  0.92930413092E+03  0.92930413092E+03  0.00000000000E+00 0. -1.
         21   -1    0    0  504  502 -0.00000000000E+00 -0.00000000000E+00 -0.17068382750E+03  0.17068382750E+03  0.00000000000E+00 0.  1.
         21    1    1    2  503  501 -0.27090017324E+02 -0.14559358742E+03  0.61190310182E+03  0.62956871567E+03  0.00000000000E+00 0. -1.
         21    1    1    2  504  506 -0.19031877996E+01  0.30046348045E+02 -0.79212655971E+02  0.84741076348E+02  0.00000000000E+00 0.  1.
         21    1    1    2  505  502 -0.79063148673E+02  0.34335601426E+01 -0.31208582008E+02  0.85069068435E+02  0.00000000000E+00 0. -1.
         21    1    1    2  506  503  0.10805635380E+03  0.11211367924E+03  0.25713843958E+03  0.30060909796E+03  0.00000000000E+00 0. -1.
<scales pt_clust_3="14000.00000" pt_clust_4="30.10656" pt_clust_5="83.57386" pt_clust_6="144.99270"></scales>
<clustering>
<clus scale="   30.107">  2  4  1 -1</clus>
<clus scale="   83.574">  2  5  1 -1</clus>
<clus scale="  144.993">  2  6  1 -1</clus>
<clus scale="  144.993">  1  3  2 -1</clus>
</clustering>
</event>
<event>
 6    0  0.1080632E+003  0.1598990E+03  0.7546771E-02  0.1188811E+00
         21   -1    0    0  506  501  0.00000000000E+00  0.00000000000E+00  0.89614602193E+03  0.89614602193E+03  0.00000000000E+00 0.  1.
         21   -1    0    0  505  502 -0.00000000000E+00 -0.00000000000E+00 -0.34116461712E+03  0.34116461712E+03  0.00000000000E+00 0. -1.
         21    1    1    2  503  502  0.64459443716E+02  0.14096477884E+03  0.22475973954E+03  0.27302569343E+03  0.00000000000E+00 0.  1.
         21    1    1    2  504  503 -0.40088758163E+02 -0.51771968244E+02  0.33213377104E+03  0.33852664163E+03  0.00000000000E+00 0.  1.
         21    1    1    2  505  501 -0.44964183847E+02 -0.27290342787E+01 -0.30581984525E+03  0.30911972309E+03  0.00000000000E+00 0. -1.
         21    1    1    2  506  504  0.20593498295E+02 -0.86463776321E+02  0.30390773949E+03  0.31663858089E+03  0.00000000000E+00 0.  1.
<scales pt_clust_3="142.70327" pt_clust_4="63.64908" pt_clust_5="45.04693" pt_clust_6="63.64908"></scales>
<clustering>
<clus scale="   45.047">  2  5  1 -1</clus>
<clus scale="   63.649">  4  6 -1 -1</clus>
<clus scale="  142.703">  2  3  1 -1</clus>
<clus scale="  159.899">  1  3  2 -1</clus>
</clustering>
</event>
<event>
 6    0  0.1080632E+003  0.8254218E+02  0.7546771E-02  0.1321988E+00
         21   -1    0    0  504  501  0.00000000000E+00  0.00000000000E+00  0.56845171318E+03  0.56845171318E+03  0.00000000000E+00 0.  1.
         21   -1    0    0  506  502 -0.00000000000E+00 -0.00000000000E+00 -0.63103636012E+02  0.63103636012E+02  0.00000000000E+00 0. -1.
         21    1    1    2  503  502  0.81278675479E+01  0.40325137215E+02 -0.28990523856E+02  0.50325236172E+02  0.00000000000E+00 0. -1.
         21    1    1    2  504  503  0.11175885558E+01 -0.11694673209E+03  0.31349143687E+03  0.33459627634E+03  0.00000000000E+00 0.  1.
         21    1    1    2  505  501 -0.35503552317E+02  0.58151650255E+02  0.19104132959E+03  0.20282728186E+03  0.00000000000E+00 0.  1.
         21    1    1    2  506  505  0.26258096213E+02  0.18469944620E+02  0.29805834557E+02  0.43806554814E+02  0.00000000000E+00 0. -1.
<scales pt_clust_3="59.68114" pt_clust_4="82.54218" pt_clust_5="14000.00000" pt_clust_6="32.10337"></scales>
<clustering>
<clus scale="   32.103">  2  6  1 -1</clus>
<clus scale="   59.681">  2  3  1 -1</clus>
<clus scale="   82.542">  2  4  1 -1</clus>
<clus scale="   82.542">  1  3  2 -1</clus>
</clustering>
</event>
<event>
 6    0  0.1080632E+003  0.9714451E+02  0.7546771E-02  0.1286418E+00
         21   -1    0    0  504  501  0.00000000000E+00  0.00000000000E+00  0.42260889012E+02  0.42260889012E+02  0.00000000000E+00 0. -1.
         21   -1    0    0  503  502 -0.00000000000E+00 -0.00000000000E+00 -0.18493972764E+04  0.18493972764E+04  0.00000000000E+00 0.  1.
         21    1    1    2  503  505 -0.30908736818E+02 -0.30451810204E+02 -0.63974762034E+03  0.64121734263E+03  0.00000000000E+00 0.  1.
         21    1    1    2  504  502  0.39207477577E+02 -0.11696989033E+02  0.20122770818E+02  0.45595742737E+02  0.00000000000E+00 0. -1.
         21    1    1    2  505  506  0.52733215621E+02 -0.61845531833E+02 -0.55815750379E+03  0.56404384659E+03  0.00000000000E+00 0.  1.
         21    1    1    2  506  501 -0.61031956380E+02  0.10399433107E+03 -0.62935403408E+03  0.64080123346E+03  0.00000000000E+00 0.  1.
<scales pt_clust_3="41.94196" pt_clust_4="40.91511" pt_clust_5="14000.00000" pt_clust_6="97.14451"></scales>
<clustering>
<clus scale="   40.915">  1  4  2 -1</clus>
<clus scale="   41.942">  2  3  1 -1</clus>
<clus scale="   97.145">  1  6  2 -1</clus>
<clus scale="   40.915">  1  3  2 -1</clus>
</clustering>
</event>
<event>
 6    0  0.1080632E+003  0.9800743E+02  0.7546771E-02  0.1284543E+00
         21   -1    0    0  504  501  0.00000000000E+00  0.00000000000E+00  0.54243721221E+03  0.54243721221E+03  0.00000000000E+00 0. -1.
         21   -1    0    0  505  502 -0.00000000000E+00 -0.00000000000E+00 -0.51524204940E+03  0.51524204940E+03  0.00000000000E+00 0.  1.
         21    1    1    2  503  506 -0.55831282186E+02  0.57571964767E+02 -0.10508388180E+03  0.13219033782E+03  0.00000000000E+00 0.  1.
         21    1    1    2  504  503  0.91157182869E+02 -0.38583703232E+02  0.50033488930E+03  0.51003268091E+03  0.00000000000E+00 0. -1.
         21    1    1    2  505  501 -0.83603575828E+02 -0.79253380111E+02 -0.20892043735E+03  0.23857578522E+03  0.00000000000E+00 0.  1.
         21    1    1    2  506  502  0.48277675144E+02  0.60265118575E+02 -0.15913540735E+03  0.17688045767E+03  0.00000000000E+00 0.  1.
<scales pt_clust_3="98.00743" pt_clust_4="14000.00000" pt_clust_5="66.25325" pt_clust_6="77.21799"></scales>
<clustering>
<clus scale="   77.218">  2  6  1 -1</clus>
<clus scale="   66.253">  2  5  1 -1</clus>
<clus scale="   98.007">  2  3  1 -1</clus>
<clus scale="   98.007">  1  3  2 -1</clus>
</clustering>
</event>
<event>
 6    0  0.1080632E+003  0.1913973E+03  0.7546771E-02  0.1157207E+00
         21   -1    0    0  503  501  0.00000000000E+00  0.00000000000E+00  0.44951610962E+03  0.44951610962E+03  0.00000000000E+00 0. -1.
         21   -1    0    0  504  502 -0.00000000000E+00 -0.00000000000E+00 -0.31831803818E+03  0.31831803818E+03  0.00000000000E+00 0.  1.
         21    1    1    2  503  505 -0.15635762339E+03 -0.68972021616E+02  0.37629580774E+03  0.41328365693E+03  0.00000000000E+00 0. -1.
         21    1    1    2  504  506  0.38563729003E+02  0.40770955686E+02 -0.25876123588E+02  0.61798105101E+02  0.00000000000E+00 0.  1.
         21    1    1    2  505  502 -0.35618874515E+02  0.83752884811E+00 -0.23987218622E+02  0.42951045779E+02  0.00000000000E+00 0.  1.
         21    1    1    2  506  501  0.15341276890E+03  0.27363537082E+02 -0.19523439410E+03  0.24980133999E+03  0.00000000000E+00 0.  1.
<scales pt_clust_3="172.99096" pt_clust_4="52.36362" pt_clust_5="35.62872" pt_clust_6="52.36362"></scales>
<clustering>
<clus scale="   35.629">  2  5  1 -1</clus>
<clus scale="   52.364">  4  6 -1 -1</clus>
<clus scale="  172.991">  1  3  2 -1</clus>
<clus scale="  172.991">  1  3  2 -1</clus>
</clustering>
</event>
<event>
 6    0  0.1080632E+003  0.1509928E+03  0.7546771E-02  0.1199258E+00
         21   -1    0    0  503  501  0.00000000000E+00  0.00000000000E+00  0.68241295677E+02  0.68241295677E+02  0.00000000000E+00 0.  1.
         21   -1    0    0  505  502 -0.00000000000E+00 -0.00000000000E+00 -0.61325491642E+03  0.61325491642E+03  0.00000000000E+00 0. -1.
         21    1    1    2  503  504  0.31567278809E+02  0.28391942466E+02 -0.35334171053E+02  0.55236755267E+02  0.00000000000E+00 0.  1.
         21    1    1    2  504  502  0.12407069088E+03  0.46377304414E+02 -0.38176196701E+03  0.40408735461E+03  0.00000000000E+00 0.  1.
         21    1    1    2  505  506 -0.73265536435E+02 -0.59614943573E+02 -0.89140937273E+02  0.12987642983E+03  0.00000000000E+00 0. -1.
         21    1    1    2  506  501 -0.82372433255E+02 -0.15154303308E+02 -0.38776545407E+02  0.92295672395E+02  0.00000000000E+00 0. -1.
<scales pt_clust_3="42.45698" pt_clust_4="140.05315" pt_clust_5="52.10653" pt_clust_6="52.10653"></scales>
<clustering>
<clus scale="   42.457">  1  3  2 -1</clus>
<clus scale="   52.107">  5  6 -1 -1</clus>
<clus scale="  140.053">  2  4  1 -1</clus>
<clus scale="   42.457">  1  3  2 -1</clus>
</clustering>
</event>
<event>
 6    0  0.1080632E+003  0.7902914E+02  0.7546771E-02  0.1331829E+00
         21   -1    0    0  504  501  0.00000000000E+00  0.00000000000E+00  0.19792701078E+03  0.19792701078E+03  0.00000000000E+00 0. -1.
         21   -1    0    0  506  502 -0.00000000000E+00 -0.00000000000E+00 -0.14343778966E+03  0.14343778966E+03  0.00000000000E+00 0.  1.
         21    1    1    2  503  505  0.30516146389E+02 -0.40862848774E+02  0.21511808316E+02  0.55351291741E+02  0.00000000000E+00 0.  1.
         21    1    1    2  504  502 -0.10806460508E+03 -0.31588526100E+02  0.24868476698E+02  0.11530062873E+03  0.00000000000E+00 0. -1.
         21    1    1    2  505  501  0.57467466766E+02  0.39058123922E+02  0.69321358418E+02  0.98150382137E+02  0.00000000000E+00 0. -1.
         21    1    1    2  506  503  0.20080991928E+02  0.33393250952E+02 -0.61212422308E+02  0.72562497826E+02  0.00000000000E+00 0.  1.
<scales pt_clust_3="48.40320" pt_clust_4="79.02914" pt_clust_5="14000.00000" pt_clust_6="38.96608"></scales>
<clustering>
<clus scale="   38.966">  2  6  1 -1</clus>
<clus scale="   48.403">  2  3  1 -1</clus>
<clus scale="   79.029">  2  4  1 -1</clus>
<clus scale="   79.029">  1  3  2 -1</clus>
</clustering>
</event>
<event>
 6    0  0.1080632E+003  0.1167006E+03  0.7546771E-02  0.1248641E+00
         21   -1    0    0  503  501  0.00000000000E+00  0.00000000000E+00  0.10826704414E+04  0.10826704414E+04  0.00000000000E+00 0. -1.
         21   -1    0    0  505  502 -0.00000000000E+00 -0.00000000000E+00 -0.56707604985E+02  0.56707604985E+02  0.00000000000E+00 0.  1.
         21    1    1    2  503  506  0.37167697308E+02 -0.17430152980E+02  0.35505447485E+02  0.54276005354E+02  0.00000000000E+00 0.  1.
         21    1    1    2  504  501 -0.10652614175E+03  0.17057358401E+02  0.90155879084E+03  0.90799065286E+03  0.00000000000E+00 0. -1.
         21    1    1    2  505  504  0.42399102708E+01  0.47207780407E+02  0.84369589574E+02  0.96771788321E+02  0.00000000000E+00 0. -1.
         21    1    1    2  506  502  0.65118534175E+02 -0.46834985828E+02  0.45290085548E+01  0.80339599882E+02  0.00000000000E+00 0.  1.
<scales pt_clust_3="31.39704" pt_clust_4="108.13375" pt_clust_5="47.39780" pt_clust_6="31.39704"></scales>
<clustering>
<clus scale="   31.397">  3  6 -1 -1</clus>
<clus scale="   47.398">  2  5  1 -1</clus>
<clus scale="  108.134">  1  4  2 -1</clus>
<clus scale="  108.134">  1  3  2 -1</clus>
</clustering>
</event>
<event>
 6    0  0.1080632E+003  0.1078295E+03  0.7546771E-02  0.1264643E+00
         21   -1    0    0  506  501  0.00000000000E+00  0.00000000000E+00  0.10610810261E+04  0.10610810261E+04  0.00000000000E+00 0.  1.
         21   -1    0    0  505  502 -0.00000000000E+00 -0.00000000000E+00 -0.77378878503E+02  0.77378878503E+02  0.00000000000E+00 0. -1.
         21    1    1    2  503  504  0.12867650540E+03 -0.51342470272E+02  0.23585726139E+03  0.27353672522E+03  0.00000000000E+00 0.  1.
         21    1    1    2  504  502 -0.51849114230E+02  0.61718879900E+02 -0.18988709203E+02  0.82813778200E+02  0.00000000000E+00 0. -1.
         21    1    1    2  505  501 -0.35687908251E+02  0.38575745727E+01  0.39113281066E+02  0.53088194852E+02  0.00000000000E+00 0. -1.
         21    1    1    2  506  503 -0.41139482923E+02 -0.14233984202E+02  0.72772031435E+03  0.72902120633E+03  0.00000000000E+00 0.  1.
<scales pt_clust_3="14000.00000" pt_clust_4="107.82951" pt_clust_5="35.89579" pt_clust_6="43.83254"></scales>
<clustering>
<clus scale="   35.896">  2  5  1 -1</clus>
<clus scale="   43.833">  1  6  2 -1</clus>
<clus scale="  107.830">  2  4  1 -1</clus>
<clus scale="   43.833">  1  3  2 -1</clus>
</clustering>
</event>
<event>
 6    0  0.1080632E+003  0.1459829E+03  0.7546771E-02  0.1205498E+00
         21   -1    0    0  504  501  0.00000000000E+00  0.00000000000E+00  0.66556455584E+03  0.66556455584E+03  0.00000000000E+00 0. -1.
         21   -1    0    0  506  502 -0.00000000000E+00 -0.00000000000E+00 -0.17453110767E+03  0.17453110767E+03  0.00000000000E+00 0.  1.
         21    1    1    2  503  502 -0.10091850413E+03 -0.94518266770E+02 -0.13411704219E+03  0.19262821246E+03  0.00000000000E+00 0.  1.
         21    1    1    2  504  503  0.46518546824E+02 -0.10022813747E+01  0.15507067859E+03  0.16190088056E+03  0.00000000000E+00 0. -1.
         21    1    1    2  505  501  0.28062560710E+02  0.36420088570E+02  0.30169276502E+03  0.30517610429E+03  0.00000000000E+00 0. -1.
         21    1    1    2  506  505  0.26337396599E+02  0.59100459574E+02  0.16838704674E+03  0.18039046619E+03  0.00000000000E+00 0. -1.
<scales pt_clust_3="136.36232" pt_clust_4="46.52934" pt_clust_5="43.93402" pt_clust_6="43.93402"></scales>
<clustering>
<clus scale="   43.934">  5  6 -1 -1</clus>
<clus scale="   46.529">  1  4  2 -1</clus>
<clus scale="  136.362">  2  3  1 -1</clus>
<clus scale="   46.529">  1  3  2 -1</clus>
</clustering>
</event>
<event>
 6    0  0.1080632E+003  0.1210979E+03  0.7546771E-02  0.1241297E+00
         21   -1    0    0  503  501  0.00000000000E+00  0.00000000000E+00  0.74472581168E+02  0.74472581168E+02  0.00000000000E+00 0.  1.
         21   -1    0    0  505  502 -0.00000000000E+00 -0.00000000000E+00 -0.46908449505E+03  0.46908449505E+03  0.00000000000E+00 0.  1.
         21    1    1    2  503  504 -0.31092220172E+01 -0.37839824973E+02 -0.83588129700E+01  0.38876591540E+02  0.00000000000E+00 0.  1.
         21    1    1    2  504  502 -0.85996361277E+02 -0.40016139861E+02 -0.22673242021E+02  0.97523030644E+02  0.00000000000E+00 0.  1.
         21    1    1    2  505  506  0.12001634993E+03  0.49596507917E+02 -0.32590288489E+03  0.35082250246E+03  0.00000000000E+00 0.  1.
         21    1    1    2  506  501 -0.30910766639E+02  0.28259456916E+02 -0.37676973998E+02  0.56334951576E+02  0.00000000000E+00 0.  1.
<scales pt_clust_3="37.96735" pt_clust_4="14000.00000" pt_clust_5="121.09785" pt_clust_6="38.51226"></scales>
<clustering>
<clus scale="   37.967">  1  3  2 -1</clus>
<clus scale="   38.512">  1  6  2 -1</clus>
<clus scale="  121.098">  2  5  1 -1</clus>
<clus scale="   37.967">  1  3  2 -1</clus>
</clustering>
</event>
<event>
 6    0  0.1080632E+003  0.1748905E+03  0.7546771E-02  0.1172842E+00
         21   -1    0    0  504  501  0.00000000000E+00  0.00000000000E+00  0.10248235811E+03  0.10248235811E+03  0.00000000000E+00 0.  1.
         21   -1    0    0  505  502 -0.00000000000E+00 -0.00000000000E+00 -0.68533193439E+03  0.68533193439E+03  0.00000000000E+00 0. -1.
         21    1    1    2  503  501 -0.29643134463E+02  0.48685328030E+02  0.14330679355E+02  0.58773675714E+02  0.00000000000E+00 0.  1.
         21    1    1    2  504  506  0.34196104826E+02 -0.36128802031E+02 -0.39373922898E+02  0.63442649108E+02  0.00000000000E+00 0. -1.
         21    1    1    2  505  503 -0.26825178323E+01  0.16693941446E+03 -0.17007780513E+03  0.23833259072E+03  0.00000000000E+00 0.  1.
         21    1    1    2  506  502 -0.18704525315E+01 -0.17949594045E+03 -0.38772852760E+03  0.42726537696E+03  0.00000000000E+00 0. -1.
<scales pt_clust_3="37.57877" pt_clust_4="49.74599" pt_clust_5="174.89045" pt_clust_6="14000.00000"></scales>
<clustering>
<clus scale="   49.746">  1  4  2 -1</clus>
<clus scale="   37.579">  1  3  2 -1</clus>
<clus scale="  174.890">  1  5  2 -1</clus>
<clus scale="   49.746">  1  3  2 -1</clus>
</clustering>
</event>
<event>
 6    0  0.1080632E+003  0.1593196E+03  0.7546771E-02  0.1189467E+00
         21   -1    0    0  505  501  0.00000000000E+00  0.00000000000E+00  0.15489613249E+04  0.15489613249E+04  0.00000000000E+00 0.  1.
         21   -1    0    0  506  502 -0.00000000000E+00 -0.00000000000E+00 -0.49162334379E+02  0.49162334379E+02  0.00000000000E+00 0. -1.
         21    1    1    2  503  502 -0.56649482905E+02 -0.99772228372E+01  0.98546435192E+02  0.11410569126E+03  0.00000000000E+00 0. -1.
         21    1    1    2  504  503 -0.43509490058E+02 -0.58943086128E+02  0.21420695732E+03  0.22638900966E+03  0.00000000000E+00 0. -1.
         21    1    1    2  505  504  0.16683229614E+03  0.40311050427E+01  0.11422373911E+04  0.11543636872E+04  0.00000000000E+00 0.  1.
         21    1    1    2  506  501 -0.66673323177E+02  0.64889203923E+02  0.44808206905E+02  0.10326527110E+03  0.00000000000E+00 0. -1.
<scales pt_clust_3="51.21014" pt_clust_4="51.21014" pt_clust_5="148.46752" pt_clust_6="93.03731"></scales>
<clustering>
<clus scale="   51.210">  3  4 -1 -1</clus>
<clus scale="   93.037">  2  6  1 -1</clus>
<clus scale="  148.468">  1  5  2 -1</clus>
<clus scale="  148.468">  1  3  2 -1</clus>
</clustering>
</event>
<event>
 6    0  0.1080632E+003  0.9038702E+02  0.7546771E-02  0.1301917E+00
         21   -1    0    0  504  501  0.00000000000E+00  0.00000000000E+00  0.52944315769E+03  0.52944315769E+03  0.00000000000E+00 0.  1.
         21   -1    0    0  505  502 -0.00000000000E+00 -0.00000000000E+00 -0.30927202893E+03  0.30927202893E+03  0.00000000000E+00 0. -1.
         21    1    1    2  503  502 -0.39581070382E+01  0.29795354649E+02 -0.18514430465E+03  0.18756823642E+03  0.00000000000E+00 0. -1.
         21    1    1    2  504  506 -0.50689268825E+02 -0.11917702889E+03  0.43056032081E+03  0.44961623196E+03  0.00000000000E+00 0.  1.
         21    1    1    2  505  501  0.28005036159E+02  0.30017192795E+02  0.72964982065E+02  0.83720980174E+02  0.00000000000E+00 0. -1.
         21    1    1    2  506  503  0.26642339704E+02  0.59364481445E+02 -0.98209869457E+02  0.11780973806E+03  0.00000000000E+00 0. -1.
<scales pt_clust_3="30.05711" pt_clust_4="14000.00000" pt_clust_5="41.89997" pt_clust_6="90.38702"></scales>
<clustering>
<clus scale="   30.057">  2  3  1 -1</clus>
<clus scale="   41.900">  1  5  2 -1</clus>
<clus scale="   90.387">  2  6  1 -1</clus>
<clus scale="   41.900">  1  3  2 -1</clus>
</clustering>
</event>
<event>
 6    0  0.1080632E+003  0.2327393E+03  0.7546771E-02  0.1124726E+00
         21   -1    0    0  504  501  0.00000000000E+00  0.00000000000E+00  0.13038509188E+04  0.13038509188E+04  0.00000000000E+00 0.  1.
         21   -1    0    0  506  502 -0.00000000000E+00 -0.00000000000E+00 -0.15679698572E+04  0.15679698572E+04  0.00000000000E+00 0.  1.
         21    1    1    2  503  505  0.57006368995E+02  0.26853926144E+03  0.44612035141E+03  0.52381908039E+03  0.00000000000E+00 0.  1.
         21    1    1    2  504  502 -0.15093994275E+03 -0.19140564390E+03 -0.81345091038E+03  0.84918865421E+03  0.00000000000E+00 0.  1.
         21    1    1    2  505  501  0.54092120196E+02 -0.65758533136E+02  0.79813072630E+03  0.80265982733E+03  0.00000000000E+00 0.  1.
         21    1    1    2  506  503  0.39841453561E+02 -0.11375084406E+02 -0.69491910567E+03  0.69615321403E+03  0.00000000000E+00 0.  1.
<scales pt_clust_3="232.73928" pt_clust_4="14000.00000" pt_clust_5="85.23629" pt_clust_6="41.43349"></scales>
<clustering>
<clus scale="   41.433">  2  6  1 -1</clus>
<clus scale="   85.236">  1  5  2 -1</clus>
<clus scale="  232.739">  1  3  2 -1</clus>
<clus scale="   85.236">  1  3  2 -1</clus>
</clustering>
</event>
<event>
 6    0  0.1080632E+003  0.1285896E+03  0.7546771E-02  0.1229564E+00
         21   -1    0    0  504  501  0.00000000000E+00  0.00000000000E+00  0.36678439112E+03  0.36678439112E+03  0.00000000000E+00 0.  1.
         21   -1    0    0  503  502 -0.00000000000E+00 -0.00000000000E+00 -0.88917111337E+02  0.88917111337E+02  0.00000000000E+00 0.  1.
         21    1    1    2  503  505 -0.11679405480E+02 -0.47253086880E+02 -0.12479790567E+01  0.48691068830E+02  0.00000000000E+00 0.  1.
         21    1    1    2  504  506  0.10165129971E+03  0.69387877000E+02  0.26025169622E+03  0.28788645260E+03  0.00000000000E+00 0.  1.
         21    1    1    2  505  501 -0.62477228959E+02 -0.45820750125E+02 -0.15345900234E+01  0.77493872319E+02  0.00000000000E+00 0.  1.
         21    1    1    2  506  502 -0.27494665269E+02  0.23685960005E+02  0.20398152644E+02  0.41630108706E+02  0.00000000000E+00 0.  1.
<scales pt_clust_3="33.18540" pt_clust_4="121.58260" pt_clust_5="33.18540" pt_clust_6="36.29024"></scales>
<clustering>
<clus scale="   33.185">  3  5 -1 -1</clus>
<clus scale="   36.290">  2  6  1 -1</clus>
<clus scale="  121.583">  1  4  2 -1</clus>
<clus scale="  121.583">  1  3  2 -1</clus>
</clustering>
</event>
<event>
 6    0  0.1080632E+003  0.7607528E+02  0.7546771E-02  0.1340573E+00
         21   -1    0    0  503  501  0.00000000000E+00  0.00000000000E+00  0.96078403971E+02  0.96078403971E+02  0.00000000000E+00 0.  1.
         21   -1    0    0  505  502 -0.00000000000E+00 -0.00000000000E+00 -0.10845681824E+04  0.10845681824E+04  0.00000000000E+00 0.  1.
         21    1    1    2  503  502 -0.31449063496E+02  0.39899950108E+02 -0.21149128654E+03  0.21750773296E+03  0.00000000000E+00 0.  1.
         21    1    1    2  504  501  0.65073469823E+01  0.49699733247E+02  0.77863646670E+02  0.92602141024E+02  0.00000000000E+00 0.  1.
         21    1    1    2  505  506 -0.47681207763E+02 -0.13718069840E+01 -0.32586942041E+03  0.32934216035E+03  0.00000000000E+00 0.  1.
         21    1    1    2  506  504  0.72622924277E+02 -0.88227876370E+02 -0.52899271811E+03  0.54119455200E+03  0.00000000000E+00 0.  1.
<scales pt_clust_3="14000.00000" pt_clust_4="50.05253" pt_clust_5="47.70094" pt_clust_6="76.07528"></scales>
<clustering>
<clus scale="   47.701">  2  5  1 -1</clus>
<clus scale="   50.053">  1  4  2 -1</clus>
<clus scale="   76.075">  2  6  1 -1</clus>
<clus scale="   50.053">  1  3  2 -1</clus>
</clustering>
</event>
<event>
 6    0  0.1080632E+003  0.1283264E+03  0.7546771E-02  0.1229960E+00
         21   -1    0    0  503  501  0.00000000000E+00  0.00000000000E+00  0.70782476798E+03  0.70782476798E+03  0.00000000000E+00 0.  1.
         21   -1    0    0  506  502 -0.00000000000E+00 -0.00000000000E+00 -0.80427297718E+02  0.80427297718E+02  0.00000000000E+00 0. -1.
         21    1    1    2  503  505  0.77070670849E+02  0.37129229261E+02  0.25955644306E+03  0.27329108127E+03  0.00000000000E+00 0.  1.
         21    1    1    2  504  501 -0.48342388132E+02  0.32686853448E+02  0.16496989554E+03  0.17498709471E+03  0.00000000000E+00 0.  1.
         21    1    1    2  505  502 -0.63580426435E+01 -0.12817458511E+03  0.66992046166E+00  0.12833393070E+03  0.00000000000E+00 0. -1.
         21    1    1    2  506  504 -0.22370240073E+02  0.58358502402E+02  0.20220121120E+03  0.21163995902E+03  0.00000000000E+00 0. -1.
<scales pt_clust_3="85.54804" pt_clust_4="35.84809" pt_clust_5="122.84682" pt_clust_6="35.84809"></scales>
<clustering>
<clus scale="   35.848">  4  6 -1 -1</clus>
<clus scale="   85.548">  1  3  2 -1</clus>
<clus scale="  122.847">  2  5  1 -1</clus>
<clus scale="   85.548">  1  3  2 -1</clus>
</clustering>
</event>
<event>
 6    0  0.1080632E+003  0.1363467E+03  0.7546771E-02  0.1218331E+00
         21   -1    0    0  504  501  0.00000000000E+00  0.00000000000E+00  0.39242160698E+03  0.39242160698E+03  0.00000000000E+00 0. -1.
         21   -1    0    0  506  502 -0.00000000000E+00 -0.00000000000E+00 -0.75693774583E+02  0.75693774583E+02  0.00000000000E+00 0. -1.
         21    1    1    2  503  502  0.29923429647E+02  0.67035180601E+02  0.43755063160E+02  0.85461293181E+02  0.00000000000E+00 0. -1.
         21    1    1    2  504  503  0.29885924593E+02  0.59834567154E+02  0.43683553423E+01  0.67025565597E+02  0.00000000000E+00 0. -1.
         21    1    1    2  505  501  0.93020885616E+01 -0.30212763990E+02  0.12650834999E+03  0.13039824606E+03  0.00000000000E+00 0. -1.
         21    1    1    2  506  505 -0.69111442802E+02 -0.96656983765E+02  0.14209606391E+03  0.18523027672E+03  0.00000000000E+00 0. -1.
<scales pt_clust_3="34.49973" pt_clust_4="34.49973" pt_clust_5="31.61234" pt_clust_6="131.63260"></scales>
<clustering>
<clus scale="   31.612">  1  5  2 -1</clus>
<clus scale="   34.500">  3  4 -1 -1</clus>
<clus scale="  131.633">  1  6  2 -1</clus>
<clus scale="   31.612">  1  3  2 -1</clus>
</clustering>
</event>
<event>
 6    0  0.1080632E+003  0.1079604E+03  0.7546771E-02  0.1264394E+00
         21   -1    0    0  503  501  0.00000000000E+00  0.00000000000E+00  0.75722697876E+03  0.75722697876E+03  0.00000000000E+00 0. -1.
         21   -1    0    0  504  502 -0.00000000000E+00 -0.00000000000E+00 -0.35451718777E+02  0.35451718777E+02  0.00000000000E+00 0. -1.
         21    1    1    2  503  506  0.49518328507E+01  0.43957929548E+02  0.11301419113E+03  0.12136320536E+03  0.00000000000E+00 0. -1.
         21    1    1    2  504  505  0.10217674578E+02 -0.77893849107E+02  0.23288519396E+03  0.24577910035E+03  0.00000000000E+00 0. -1.
         21    1    1    2  505  501  0.15716921620E+02 -0.55887800967E+02  0.29537607259E+03  0.30102739440E+03  0.00000000000E+00 0. -1.
         21    1    1    2  506  502 -0.30886429048E+02  0.89823720527E+02  0.80499802301E+02  0.12450899742E+03  0.00000000000E+00 0. -1.
<scales pt_clust_3="44.23596" pt_clust_4="31.78642" pt_clust_5="31.78642" pt_clust_6="101.43074"></scales>
<clustering>
<clus scale="   31.786">  4  5 -1 -1</clus>
<clus scale="   44.236">  1  3  2 -1</clus>
<clus scale="  101.431">  2  6  1 -1</clus>
<clus scale="   44.236">  1  3  2 -1</clus>
</clustering>
</event>
<event>
 6    0  0.1080632E+003  0.6280463E+02  0.7546771E-02  0.1386425E+00
         21   -1    0    0  505  501  0.00000000000E+00  0.00000000000E+00  0.48114463881E+03  0.48114463881E+03  0.00000000000E+00 0. -1.
         21   -1    0    0  506  502 -0.00000000000E+00 -0.00000000000E+00 -0.11913578906E+03  0.11913578906E+03  0.00000000000E+00 0. -1.
         21    1    1    2  503  501  0.35877382514E+02  0.34176268038E+02  0.73766328534E+02  0.88863238173E+02  0.00000000000E+00 0. -1.
         21    1    1    2  504  503 -0.52302668508E+02  0.14356827290E+02  0.56018004484E+02  0.77972459556E+02  0.00000000000E+00 0. -1.
         21    1    1    2  505  502 -0.32862488811E+02 -0.86589616522E+02  0.31586861015E+03  0.32916665040E+03  0.00000000000E+00 0. -1.
         21    1    1    2  506  504  0.49287774804E+02  0.38056521193E+02 -0.83644093412E+02  0.10427807973E+03  0.00000000000E+00 0. -1.
<scales pt_clust_3="49.55001" pt_clust_4="50.45994" pt_clust_5="62.80463" pt_clust_6="14000.00000"></scales>
<clustering>
<clus scale="   49.550">  1  3  2 -1</clus>
<clus scale="   50.460">  1  4  2 -1</clus>
<clus scale="   62.805">  1  5  2 -1</clus>
<clus scale="   49.550">  1  3  2 -1</clus>
</clustering>
</event>
<event>
 6    0  0.1080632E+003  0.9950945E+02  0.7546771E-02  0.1281331E+00
         21   -1    0    0  503  501  0.00000000000E+00  0.00000000000E+00  0.43783617289E+02  0.43783617289E+02  0.00000000000E+00 0.  1.
         21   -1    0    0  505  502 -0.00000000000E+00 -0.00000000000E+00 -0.20340067777E+04  0.20340067777E+04  0.00000000000E+00 0. -1.
         21    1    1    2  503  506 -0.67580833173E+02  0.59582256598E+02 -0.15692102086E+02  0.91451934815E+02  0.00000000000E+00 0.  1.
         21    1    1    2  504  502  0.57190070495E+02  0.30526100713E+01 -0.36798472516E+03  0.37241479635E+03  0.00000000000E+00 0. -1.
         21    1    1    2  505  501 -0.42528259499E+02 -0.28948200349E+02 -0.13003573533E+04  0.13013746185E+04  0.00000000000E+00 0. -1.
         21    1    1    2  506  504  0.52919022177E+02 -0.33686666320E+02 -0.30618897982E+03  0.31254904536E+03  0.00000000000E+00 0. -1.
<scales pt_clust_3="91.10054" pt_clust_4="38.25338" pt_clust_5="51.44561" pt_clust_6="38.25338"></scales>
<clustering>
<clus scale="   38.253">  4  6 -1 -1</clus>
<clus scale="   51.446">  2  5  1 -1</clus>
<clus scale="   91.101">  1  3  2 -1</clus>
<clus scale="   91.101">  1  3  2 -1</clus>
</clustering>
</event>
<event>
 6    0  0.1080632E+003  0.8532512E+02  0.7546771E-02  0.1314585E+00
         21   -1    0    0  506  501  0.00000000000E+00  0.00000000000E+00  0.25622013019E+03  0.25622013019E+03  0.00000000000E+00 0.  1.
         21   -1    0    0  504  502 -0.00000000000E+00 -0.00000000000E+00 -0.28709666846E+03  0.28709666846E+03  0.00000000000E+00 0.  1.
         21    1    1    2  503  502  0.12579023407E+02 -0.53230658028E+02 -0.31298174843E+02  0.63018334891E+02  0.00000000000E+00 0.  1.
         21    1    1    2  504  505  0.14988117978E+02  0.70019048602E+02 -0.17484582746E+03  0.18894013398E+03  0.00000000000E+00 0.  1.
         21    1    1    2  505  501 -0.20855954601E+02  0.71260020261E+02 -0.20133791190E+02  0.76930688789E+02  0.00000000000E+00 0.  1.
         21    1    1    2  506  503 -0.67111867836E+01 -0.88048410835E+02  0.19540125522E+03  0.21442764099E+03  0.00000000000E+00 0.  1.
<scales pt_clust_3="54.69675" pt_clust_4="38.49015" pt_clust_5="85.32512" pt_clust_6="14000.00000"></scales>
<clustering>
<clus scale="   54.697">  2  3  1 -1</clus>
<clus scale="   38.490">  2  4  1 -1</clus>
<clus scale="   85.325">  2  5  1 -1</clus>
<clus scale="   85.325">  1  3  2 -1</clus>
</clustering>
</event>
<event>
 6    0  0.2609307E+003  0.1542508E+03  0.7546771E-02  0.1195345E+00
         21   -1    0    0  505  501  0.00000000000E+00  0.00000000000E+00  0.55457645448E+03  0.55457645448E+03  0.00000000000E+00 0. -1.
         21   -1    0    0  503  502 -0.00000000000E+00 -0.00000000000E+00 -0.12276148812E+04  0.12276148812E+04  0.00000000000E+00 0. -1.
         21    1    1    2  503  504  0.74060032518E+02  0.13549092331E+03 -0.11919579384E+04  0.12019178032E+04  0.00000000000E+00 0. -1.
         21    1    1    2  504  506 -0.99348957787E+02 -0.11264397510E+03  0.21574009731E+03  0.26287386733E+03  0.00000000000E+00 0. -1.
         21    1    1    2  505  502  0.27218247596E+02  0.14106110354E+02  0.34370865986E+02  0.46056180694E+02  0.00000000000E+00 0. -1.
         21    1    1    2  506  501 -0.19293223261E+01 -0.36953058568E+02  0.26880854844E+03  0.27134348442E+03  0.00000000000E+00 0. -1.
<scales pt_clust_3="14000.00000" pt_clust_4="154.25081" pt_clust_5="30.65641" pt_clust_6="32.02828"></scales>
<clustering>
<clus scale="   30.656">  1  5  2 -1</clus>
<clus scale="   32.028">  1  6  2 -1</clus>
<clus scale="  154.251">  1  4  2 -1</clus>
<clus scale="   30.656">  1  3  2 -1</clus>
</clustering>
</event>
<event>
 6    0  0.1080632E+003  0.8938346E+02  0.7546771E-02  0.1304352E+00
         21   -1    0    0  505  501  0.00000000000E+00  0.00000000000E+00  0.27937971417E+03  0.27937971417E+03  0.00000000000E+00 0. -1.
         21   -1    0    0  504  502 -0.00000000000E+00 -0.00000000000E+00 -0.27653749521E+03  0.27653749521E+03  0.00000000000E+00 0. -1.
         21    1    1    2  503  502 -0.47599185151E+02 -0.31319682170E+02 -0.22840456168E+02  0.61386410192E+02  0.00000000000E+00 0. -1.
         21    1    1    2  504  506  0.82960909395E+02  0.77428611770E+02 -0.17637739635E+03  0.20973003683E+03  0.00000000000E+00 0. -1.
         21    1    1    2  505  503 -0.10056971996E+03 -0.12722287275E+02  0.18284337729E+03  0.20906416667E+03  0.00000000000E+00 0. -1.
         21    1    1    2  506  501  0.65207995715E+02 -0.33386642326E+02  0.19216694185E+02  0.75736595687E+02  0.00000000000E+00 0. -1.
<scales pt_clust_3="56.97899" pt_clust_4="67.68596" pt_clust_5="89.38346" pt_clust_6="14000.00000"></scales>
<clustering>
<clus scale="   56.979">  2  3  1 -1</clus>
<clus scale="   67.686">  2  4  1 -1</clus>
<clus scale="   89.383">  1  5  2 -1</clus>
<clus scale="   89.383">  1  3  2 -1</clus>
</clustering>
</event>
<event>
 6    0  0.1080632E+003  0.7977506E+02  0.7546771E-02  0.1329691E+00
         21   -1    0    0  503  501  0.00000000000E+00  0.00000000000E+00  0.27323822656E+02  0.27323822656E+02  0.00000000000E+00 0.  1.
         21   -1    0    0  506  502 -0.00000000000E+00 -0.00000000000E+00 -0.17077554522E+04  0.17077554522E+04  0.00000000000E+00 0.  1.
         21    1    1    2  503  502 -0.49590671227E+01 -0.53106654079E+02 -0.19769075761E+03  0.20475972431E+03  0.00000000000E+00 0.  1.
         21    1    1    2  504  501 -0.45340682667E+02  0.95976753590E+02 -0.14836328507E+03  0.18242526988E+03  0.00000000000E+00 0.  1.
         21    1    1    2  505  504  0.69363837089E+02 -0.10588146651E+02 -0.18429297233E+03  0.19719875861E+03  0.00000000000E+00 0.  1.
         21    1    1    2  506  505 -0.19064087300E+02 -0.32281952860E+02 -0.11500846146E+04  0.11506955221E+04  0.00000000000E+00 0.  1.
<scales pt_clust_3="65.83513" pt_clust_4="79.77506" pt_clust_5="14000.00000" pt_clust_6="37.49085"></scales>
<clustering>
<clus scale="   37.491">  2  6  1 -1</clus>
<clus scale="   65.835">  2  3  1 -1</clus>
<clus scale="   79.775">  1  4  2 -1</clus>
<clus scale="   79.775">  1  3  2 -1</clus>
</clustering>
</event>
<event>
 6    0  0.1080632E+003  0.9095906E+02  0.7546771E-02  0.1300546E+00
         21   -1    0    0  503  501  0.00000000000E+00  0.00000000000E+00  0.75434486741E+02  0.75434486741E+02  0.00000000000E+00 0.  1.
         21   -1    0    0  505  502 -0.00000000000E+00 -0.00000000000E+00 -0.67989109616E+03  0.67989109616E+03  0.00000000000E+00 0.  1.
         21    1    1    2  503  504 -0.80726332905E+02 -0.75007464783E+02 -0.33671123155E+03  0.35428422778E+03  0.00000000000E+00 0.  1.
         21    1    1    2  504  502  0.48067710559E+01  0.87162964410E+02 -0.23668450179E+03  0.25226977782E+03  0.00000000000E+00 0.  1.
         21    1    1    2  505  506  0.38182558971E+02 -0.23511989994E+02 -0.76469294544E+02  0.88646909090E+02  0.00000000000E+00 0.  1.
         21    1    1    2  506  501  0.37737002878E+02  0.11356490367E+02  0.45408418471E+02  0.60124668213E+02  0.00000000000E+00 0.  1.
<scales pt_clust_3="90.95906" pt_clust_4="14000.00000" pt_clust_5="52.47290" pt_clust_6="39.40877"></scales>
<clustering>
<clus scale="   39.409">  1  6  2 -1</clus>
<clus scale="   52.473">  1  5  2 -1</clus>
<clus scale="   90.959">  1  3  2 -1</clus>
<clus scale="   39.409">  1  3  2 -1</clus>
</clustering>
</event>
<event>
 6    0  0.1080632E+003  0.1569410E+03  0.7546771E-02  0.1192194E+00
         21   -1    0    0  503  501  0.00000000000E+00  0.00000000000E+00  0.17976426657E+04  0.17976426657E+04  0.00000000000E+00 0. -1.
         21   -1    0    0  506  502 -0.00000000000E+00 -0.00000000000E+00 -0.12369091598E+03  0.12369091598E+03  0.00000000000E+00 0. -1.
         21    1    1    2  503  505 -0.83850457607E+01 -0.41248731747E+02  0.89778399296E+02  0.99156078197E+02  0.00000000000E+00 0. -1.
         21    1    1    2  504  501 -0.14478242326E+03 -0.41755748859E+02  0.14187790019E+04  0.14267583359E+04  0.00000000000E+00 0. -1.
         21    1    1    2  505  502  0.10073033907E+03  0.97687388316E+02  0.25471534721E+03  0.29080807270E+03  0.00000000000E+00 0. -1.
         21    1    1    2  506  504  0.52437129958E+02 -0.14682907710E+02 -0.89320998690E+02  0.10461109494E+03  0.00000000000E+00 0. -1.
<scales pt_clust_3="42.09236" pt_clust_4="156.94099" pt_clust_5="14000.00000" pt_clust_6="54.46803"></scales>
<clustering>
<clus scale="   42.092">  1  3  2 -1</clus>
<clus scale="   54.468">  2  6  1 -1</clus>
<clus scale="  156.941">  1  4  2 -1</clus>
<clus scale="   42.092">  1  3  2 -1</clus>
</clustering>
</event>
<event>
 6    0  0.1080632E+003  0.7630198E+02  0.7546771E-02  0.1339886E+00
         21   -1    0    0  505  501  0.00000000000E+00  0.00000000000E+00  0.21231625829E+03  0.21231625829E+03  0.00000000000E+00 0. -1.
         21   -1    0    0  503  502 -0.00000000000E+00 -0.00000000000E+00 -0.20565447130E+03  0.20565447130E+03  0.00000000000E+00 0. -1.
         21    1    1    2  503  506 -0.44621657835E+02 -0.31845709893E+02 -0.16142726217E+02  0.57147433855E+02  0.00000000000E+00 0.  1.
         21    1    1    2  504  502 -0.19123705777E+02  0.40858280824E+02 -0.50602515208E+02  0.67791812042E+02  0.00000000000E+00 0. -1.
         21    1    1    2  505  504  0.11617670728E+03 -0.66427732797E+01 -0.73089942683E+02  0.13741649636E+03  0.00000000000E+00 0. -1.
         21    1    1    2  506  501 -0.52431343669E+02 -0.23697976513E+01  0.14649697110E+03  0.15561498732E+03  0.00000000000E+00 0. -1.
<scales pt_clust_3="76.30198" pt_clust_4="45.11225" pt_clust_5="14000.00000" pt_clust_6="53.03800"></scales>
<clustering>
<clus scale="   45.112">  2  4  1 -1</clus>
<clus scale="   53.038">  1  6  2 -1</clus>
<clus scale="   76.302">  2  3  1 -1</clus>
<clus scale="   53.038">  1  3  2 -1</clus>
</clustering>
</event>
<event>
 6    0  0.1080632E+003  0.9628517E+02  0.7546771E-02  0.1288308E+00
         21   -1    0    0  506  501  0.00000000000E+00  0.00000000000E+00  0.54827030459E+03  0.54827030459E+03  0.00000000000E+00 0.  1.
         21   -1    0    0  504  502 -0.00000000000E+00 -0.00000000000E+00 -0.42099348975E+02  0.42099348975E+02  0.00000000000E+00 0.  1.
         21    1    1    2  503  502 -0.18163655668E+02  0.39991220019E+02  0.78579122397E+02  0.90021633747E+02  0.00000000000E+00 0.  1.
         21    1    1    2  504  505  0.78016144386E+02  0.42891620883E+02  0.13875533952E+03  0.16486131800E+03  0.00000000000E+00 0.  1.
         21    1    1    2  505  501 -0.40915935136E+02 -0.10921182139E+03  0.13559097519E+03  0.17884699671E+03  0.00000000000E+00 0.  1.
         21    1    1    2  506  503 -0.18936553582E+02  0.26328980486E+02  0.15324551850E+03  0.15663970511E+03  0.00000000000E+00 0.  1.
<scales pt_clust_3="84.25647" pt_clust_4="96.28517" pt_clust_5="14000.00000" pt_clust_6="31.27098"></scales>
<clustering>
<clus scale="   31.271">  3  6 -1 -1</clus>
<clus scale="   84.256">  1  3  2 -1</clus>
<clus scale="   96.285">  2  4  1 -1</clus>
<clus scale="   84.256">  1  3  2 -1</clus>
</clustering>
</event>
<event>
 6    0  0.1080632E+003  0.2175452E+03  0.7546771E-02  0.1135727E+00
         21   -1    0    0  503  501  0.00000000000E+00  0.00000000000E+00  0.10522670820E+03  0.10522670820E+03  0.00000000000E+00 0.  1.
         21   -1    0    0  505  502 -0.00000000000E+00 -0.00000000000E+00 -0.78122763587E+03  0.78122763587E+03  0.00000000000E+00 0. -1.
         21    1    1    2  503  502  0.46306287071E+01 -0.46542330431E+02 -0.45835258550E+02  0.65486656431E+02  0.00000000000E+00 0. -1.
         21    1    1    2  504  501 -0.13373488637E+03 -0.11455739135E+03 -0.27729269785E+02  0.17826196495E+03  0.00000000000E+00 0.  1.
         21    1    1    2  505  506  0.84824142578E+02  0.14592711843E+03 -0.53200532773E+03  0.55813934442E+03  0.00000000000E+00 0. -1.
         21    1    1    2  506  504  0.44280115086E+02  0.15172603351E+02 -0.70431071604E+02  0.84566378258E+02  0.00000000000E+00 0.  1.
<scales pt_clust_3="46.77212" pt_clust_4="199.51414" pt_clust_5="45.66609" pt_clust_6="45.66609"></scales>
<clustering>
<clus scale="   45.666">  5  6 -1 -1</clus>
<clus scale="   46.772">  1  3  2 -1</clus>
<clus scale="  199.514">  1  4  2 -1</clus>
<clus scale="   46.772">  1  3  2 -1</clus>
</clustering>
</event>
<event>
 6    0  0.1080632E+003  0.1302036E+03  0.7546771E-02  0.1227154E+00
         21   -1    0    0  504  501  0.00000000000E+00  0.00000000000E+00  0.10807057223E+03  0.10807057223E+03  0.00000000000E+00 0. -1.
         21   -1    0    0  503  502 -0.00000000000E+00 -0.00000000000E+00 -0.17630999861E+04  0.17630999861E+04  0.00000000000E+00 0.  1.
         21    1    1    2  503  505 -0.34104490225E+02  0.11966333619E+02 -0.15908236981E+04  0.15912342216E+04  0.00000000000E+00 0.  1.
         21    1    1    2  504  502 -0.21013406791E+02 -0.12115881001E+03  0.19657343995E+02  0.12452883875E+03  0.00000000000E+00 0. -1.
         21    1    1    2  505  506  0.53337958930E+02  0.69465804632E+02 -0.73441024472E+02  0.11429794378E+03  0.00000000000E+00 0.  1.
         21    1    1    2  506  501  0.17799380864E+01  0.39726671757E+02 -0.10422035244E+02  0.41109554207E+02  0.00000000000E+00 0.  1.
<scales pt_clust_3="36.14290" pt_clust_4="121.63668" pt_clust_5="31.29890" pt_clust_6="31.29890"></scales>
<clustering>
<clus scale="   31.299">  5  6 -1 -1</clus>
<clus scale="   36.143">  2  3  1 -1</clus>
<clus scale="  121.637">  1  4  2 -1</clus>
<clus scale="  121.637">  1  3  2 -1</clus>
</clustering>
</event>
<event>
 6    0  0.1080632E+003  0.1205936E+03  0.7546771E-02  0.1242121E+00
         21   -1    0    0  506  501  0.00000000000E+00  0.00000000000E+00  0.19635323615E+03  0.19635323615E+03  0.00000000000E+00 0.  1.
         21   -1    0    0  505  502 -0.00000000000E+00 -0.00000000000E+00 -0.24651925653E+04  0.24651925653E+04  0.00000000000E+00 0. -1.
         21    1    1    2  503  502 -0.97525003907E+02  0.64765737868E+02 -0.19838719220E+04  0.19873232072E+04  0.00000000000E+00 0. -1.
         21    1    1    2  504  503  0.18192274398E+03 -0.40636445266E+02 -0.29825021796E+03  0.35171067367E+03  0.00000000000E+00 0.  1.
         21    1    1    2  505  501 -0.70315039583E+02 -0.55667811083E+02 -0.13951769943E+03  0.16585625835E+03  0.00000000000E+00 0.  1.
         21    1    1    2  506  504 -0.14082700491E+02  0.31538518481E+02  0.15280051017E+03  0.15665566224E+03  0.00000000000E+00 0.  1.
<scales pt_clust_3="120.59358" pt_clust_4="14000.00000" pt_clust_5="87.62521" pt_clust_6="34.53984"></scales>
<clustering>
<clus scale="   34.540">  1  6  2 -1</clus>
<clus scale="   87.625">  1  5  2 -1</clus>
<clus scale="  120.594">  2  3  1 -1</clus>
<clus scale="   34.540">  1  3  2 -1</clus>
</clustering>
</event>
<event>
 6    0  0.1080632E+003  0.1014523E+03  0.7546771E-02  0.1277271E+00
         21   -1    0    0  506  501  0.00000000000E+00  0.00000000000E+00  0.12248353933E+04  0.12248353933E+04  0.00000000000E+00 0. -1.
         21   -1    0    0  504  502 -0.00000000000E+00 -0.00000000000E+00 -0.27242611940E+02  0.27242611940E+02  0.00000000000E+00 0. -1.
         21    1    1    2  503  505  0.32485608308E+01 -0.51632853979E+02  0.84482161155E+02  0.99064324108E+02  0.00000000000E+00 0. -1.
         21    1    1    2  504  503 -0.19150175385E+02 -0.37383434409E+02  0.24242539434E+02  0.48496918497E+02  0.00000000000E+00 0. -1.
         21    1    1    2  505  501  0.71728340399E+02  0.92207491019E+02  0.89983810522E+03  0.90738954800E+03  0.00000000000E+00 0. -1.
         21    1    1    2  506  502 -0.55826725844E+02 -0.31912026308E+01  0.18902997555E+03  0.19712721464E+03  0.00000000000E+00 0. -1.
<scales pt_clust_3="37.97786" pt_clust_4="37.97786" pt_clust_5="92.28254" pt_clust_6="55.91786"></scales>
<clustering>
<clus scale="   37.978">  3  4 -1 -1</clus>
<clus scale="   55.918">  1  6  2 -1</clus>
<clus scale="   92.283">  1  5  2 -1</clus>
<clus scale="   55.918">  1  3  2 -1</clus>
</clustering>
</event>
<event>
 6    0  0.1080632E+003  0.2431702E+03  0.7546771E-02  0.1117699E+00
         21   -1    0    0  506  501  0.00000000000E+00  0.00000000000E+00  0.21383429986E+03  0.21383429986E+03  0.00000000000E+00 0. -1.
         21   -1    0    0  503  502 -0.00000000000E+00 -0.00000000000E+00 -0.14250333624E+04  0.14250333624E+04  0.00000000000E+00 0.  1.
         21    1    1    2  503  501  0.22675968438E+02  0.12536932533E+03 -0.14250147190E+02  0.12819802640E+03  0.00000000000E+00 0. -1.
         21    1    1    2  504  502  0.20921064893E+03 -0.60013412581E+02 -0.12252483270E+04  0.12444292540E+04  0.00000000000E+00 0.  1.
         21    1    1    2  505  504 -0.16489232631E+03 -0.27237635094E+02 -0.29740953224E+02  0.16975244428E+03  0.00000000000E+00 0. -1.
         21    1    1    2  506  505 -0.66994291056E+02 -0.38118277653E+02  0.58040364946E+02  0.96487937528E+02  0.00000000000E+00 0. -1.
<scales pt_clust_3="127.40356" pt_clust_4="217.00569" pt_clust_5="74.51858" pt_clust_6="74.51858"></scales>
<clustering>
<clus scale="   74.519">  5  6 -1 -1</clus>
<clus scale="  127.404">  1  3  2 -1</clus>
<clus scale="  217.006">  2  4  1 -1</clus>
<clus scale="  127.404">  1  3  2 -1</clus>
</clustering>
</event>
<event>
 6    0  0.1080632E+003  0.7614045E+02  0.7546771E-02  0.1340375E+00
         21   -1    0    0  506  501  0.00000000000E+00  0.00000000000E+00  0.97155885126E+02  0.97155885126E+02  0.00000000000E+00 0.  1.
         21   -1    0    0  504  502 -0.00000000000E+00 -0.00000000000E+00 -0.11860730006E+04  0.11860730006E+04  0.00000000000E+00 0. -1.
         21    1    1    2  503  505 -0.77636257207E+02  0.15207076015E+02 -0.40221898508E+03  0.40992530485E+03  0.00000000000E+00 0. -1.
         21    1    1    2  504  503  0.34934970225E+02 -0.36943940664E+02 -0.13335584321E+03  0.14272031325E+03  0.00000000000E+00 0. -1.
         21    1    1    2  505  501 -0.19372797745E+02 -0.53317060788E+02  0.75391726023E+02  0.94350021813E+02  0.00000000000E+00 0.  1.
         21    1    1    2  506  502  0.62074084727E+02  0.75053925437E+02 -0.62873401323E+03  0.63623324584E+03  0.00000000000E+00 0. -1.
<scales pt_clust_3="14000.00000" pt_clust_4="50.84591" pt_clust_5="56.93518" pt_clust_6="76.14045"></scales>
<clustering>
<clus scale="   50.846">  2  4  1 -1</clus>
<clus scale="   56.935">  1  5  2 -1</clus>
<clus scale="   76.140">  1  6  2 -1</clus>
<clus scale="   56.935">  1  3  2 -1</clus>
</clustering>
</event>
<event>
 6    0  0.1080632E+003  0.1316432E+03  0.7546771E-02  0.1225038E+00
         21   -1    0    0  505  501  0.00000000000E+00  0.00000000000E+00  0.39853000494E+03  0.39853000494E+03  0.00000000000E+00 0. -1.
         21   -1    0    0  506  502 -0.00000000000E+00 -0.00000000000E+00 -0.32129366888E+03  0.32129366888E+03  0.00000000000E+00 0.  1.
         21    1    1    2  503  504  0.34594292146E+02  0.24036605195E+02 -0.18602081449E+02  0.46049548018E+02  0.00000000000E+00 0.  1.
         21    1    1    2  504  502  0.40262974152E+02  0.45954309285E+02  0.15060221066E+02  0.62926273432E+02  0.00000000000E+00 0.  1.
         21    1    1    2  505  503  0.12029495942E+03 -0.47413415758E+02  0.29384458317E+03  0.32103512007E+03  0.00000000000E+00 0. -1.
         21    1    1    2  506  501 -0.19515222572E+03 -0.22577498722E+02 -0.21306638673E+03  0.28981273230E+03  0.00000000000E+00 0.  1.
<scales pt_clust_3="30.63115" pt_clust_4="108.91825" pt_clust_5="131.64319" pt_clust_6="14000.00000"></scales>
<clustering>
<clus scale="   30.631">  3  4 -1 -1</clus>
<clus scale="  108.918">  2  3  1 -1</clus>
<clus scale="  131.643">  1  5  2 -1</clus>
<clus scale="  131.643">  1  3  2 -1</clus>
</clustering>
</event>
<event>
 6    0  0.1080632E+003  0.1332874E+03  0.7546771E-02  0.1222658E+00
         21   -1    0    0  503  501  0.00000000000E+00  0.00000000000E+00  0.50253320324E+02  0.50253320324E+02  0.00000000000E+00 0. -1.
         21   -1    0    0  505  502 -0.00000000000E+00 -0.00000000000E+00 -0.15811424411E+04  0.15811424411E+04  0.00000000000E+00 0.  1.
         21    1    1    2  503  504 -0.35690379891E+01 -0.84755279056E+02 -0.98264353133E+01  0.85397624036E+02  0.00000000000E+00 0. -1.
         21    1    1    2  504  506  0.16139229353E+02 -0.38490869131E+02 -0.44358885683E+02  0.60907573172E+02  0.00000000000E+00 0.  1.
         21    1    1    2  505  501  0.85310436395E+01  0.84709233049E+02 -0.13077210098E+04  0.13104894781E+04  0.00000000000E+00 0.  1.
         21    1    1    2  506  502 -0.21101235003E+02  0.38536915138E+02 -0.16898279002E+03  0.17460108611E+03  0.00000000000E+00 0. -1.
<scales pt_clust_3="39.18971" pt_clust_4="39.18971" pt_clust_5="121.01240" pt_clust_6="43.93582"></scales>
<clustering>
<clus scale="   39.190">  3  4 -1 -1</clus>
<clus scale="   43.936">  2  6  1 -1</clus>
<clus scale="  121.012">  2  5  1 -1</clus>
<clus scale="  133.287">  1  3  2 -1</clus>
</clustering>
</event>
<event>
 6    0  0.1080632E+003  0.9697020E+02  0.7546771E-02  0.1286799E+00
         21   -1    0    0  504  501  0.00000000000E+00  0.00000000000E+00  0.20631126800E+04  0.20631126800E+04  0.00000000000E+00 0. -1.
         21   -1    0    0  506  502 -0.00000000000E+00 -0.00000000000E+00 -0.24361508260E+02  0.24361508260E+02  0.00000000000E+00 0.  1.
         21    1    1    2  503  501 -0.56487694283E+02 -0.69863134489E+02  0.14531287558E+04  0.14559034645E+04  0.00000000000E+00 0. -1.
         21    1    1    2  504  505 -0.34704299427E+02  0.35922618801E+01  0.29087303470E+03  0.29295804318E+03  0.00000000000E+00 0. -1.
         21    1    1    2  505  502  0.46129109644E+02  0.66642266510E+02  0.27953706458E+03  0.29104992169E+03  0.00000000000E+00 0. -1.
         21    1    1    2  506  503  0.45062884066E+02 -0.37139390158E+00  0.15212316709E+02  0.47562758892E+02  0.00000000000E+00 0.  1.
<scales pt_clust_3="14000.00000" pt_clust_4="34.88972" pt_clust_5="96.97020" pt_clust_6="44.44895"></scales>
<clustering>
<clus scale="   34.890">  1  4  2 -1</clus>
<clus scale="   44.449">  2  6  1 -1</clus>
<clus scale="   96.970">  2  5  1 -1</clus>
<clus scale="   34.890">  1  3  2 -1</clus>
</clustering>
</event>
<event>
 6    0  0.1080632E+003  0.1128800E+03  0.7546771E-02  0.1255328E+00
         21   -1    0    0  504  501  0.00000000000E+00  0.00000000000E+00  0.86441618778E+03  0.86441618778E+03  0.00000000000E+00 0. -1.
         21   -1    0    0  505  502 -0.00000000000E+00 -0.00000000000E+00 -0.13602580163E+03  0.13602580163E+03  0.00000000000E+00 0. -1.
         21    1    1    2  503  501 -0.88610821042E+02 -0.49004645962E+02  0.62148302618E+03  0.62967808026E+03  0.00000000000E+00 0. -1.
         21    1    1    2  504  506 -0.22637520245E+02  0.41995342776E+02  0.13046481186E+03  0.13891412193E+03  0.00000000000E+00 0. -1.
         21    1    1    2  505  503  0.13707420269E+03 -0.97776973696E+01  0.54576723879E+02  0.14786331255E+03  0.00000000000E+00 0. -1.
         21    1    1    2  506  502 -0.25825861404E+02  0.16787000555E+02 -0.78134175767E+02  0.83986474671E+02  0.00000000000E+00 0. -1.
<scales pt_clust_3="112.88003" pt_clust_4="49.79870" pt_clust_5="14000.00000" pt_clust_6="30.80225"></scales>
<clustering>
<clus scale="   30.802">  2  6  1 -1</clus>
<clus scale="   49.799">  1  4  2 -1</clus>
<clus scale="  112.880">  1  3  2 -1</clus>
<clus scale="   49.799">  1  3  2 -1</clus>
</clustering>
</event>
<event>
 6    0  0.1080632E+003  0.1228131E+03  0.7546771E-02  0.1238527E+00
         21   -1    0    0  503  501  0.00000000000E+00  0.00000000000E+00  0.10182495018E+04  0.10182495018E+04  0.00000000000E+00 0.  1.
         21   -1    0    0  506  502 -0.00000000000E+00 -0.00000000000E+00 -0.63191956629E+02  0.63191956629E+02  0.00000000000E+00 0.  1.
         21    1    1    2  503  505 -0.17573720969E+03  0.15161616867E+01  0.21761485024E+03  0.27971787333E+03  0.00000000000E+00 0.  1.
         21    1    1    2  504  501  0.69173335772E+02  0.25659187561E+01  0.57555687093E+03  0.57970444711E+03  0.00000000000E+00 0.  1.
         21    1    1    2  505  502  0.27485976023E+02  0.44743506891E+02  0.29384509296E+02  0.60173994993E+02  0.00000000000E+00 0.  1.
         21    1    1    2  506  504  0.79077897892E+02 -0.48825587334E+02  0.13250131469E+03  0.16184514299E+03  0.00000000000E+00 0.  1.
<scales pt_clust_3="14000.00000" pt_clust_4="70.51008" pt_clust_5="52.51153" pt_clust_6="122.81307"></scales>
<clustering>
<clus scale="   52.512">  2  5  1 -1</clus>
<clus scale="   70.510">  1  4  2 -1</clus>
<clus scale="  122.813">  2  6  1 -1</clus>
<clus scale="   70.510">  1  3  2 -1</clus>
</clustering>
</event>
<event>
 6    0  0.1080632E+003  0.1034941E+03  0.7546771E-02  0.1273115E+00
         21   -1    0    0  504  501  0.00000000000E+00  0.00000000000E+00  0.11499038162E+03  0.11499038162E+03  0.00000000000E+00 0.  1.
         21   -1    0    0  505  502 -0.00000000000E+00 -0.00000000000E+00 -0.39001635704E+03  0.39001635704E+03  0.00000000000E+00 0.  1.
         21    1    1    2  503  502  0.48355449760E+02  0.29010081597E+02  0.21520868349E+02  0.60357121620E+02  0.00000000000E+00 0.  1.
         21    1    1    2  504  506 -0.25044819217E+02 -0.65075591384E+02  0.10668871846E+02  0.70540062306E+02  0.00000000000E+00 0.  1.
         21    1    1    2  505  501 -0.78791432928E+02  0.48102491263E+02 -0.30348610890E+03  0.31721563307E+03  0.00000000000E+00 0.  1.
         21    1    1    2  506  503  0.55480802386E+02 -0.12036981476E+02 -0.37296067207E+01  0.56893921668E+02  0.00000000000E+00 0.  1.
<scales pt_clust_3="48.42888" pt_clust_4="69.72858" pt_clust_5="91.37725" pt_clust_6="48.42888"></scales>
<clustering>
<clus scale="   48.429">  3  6 -1 -1</clus>
<clus scale="   69.729">  1  4  2 -1</clus>
<clus scale="   91.377">  2  5  1 -1</clus>
<clus scale="   69.729">  1  3  2 -1</clus>
</clustering>
</event>
<event>
 6    0  0.1080632E+003  0.9235907E+02  0.7546771E-02  0.1297237E+00
         21   -1    0    0  503  501  0.00000000000E+00  0.00000000000E+00  0.15452704235E+02  0.15452704235E+02  0.00000000000E+00 0. -1.
         21   -1    0    0  506  502 -0.00000000000E+00 -0.00000000000E+00 -0.21053971109E+04  0.21053971109E+04  0.00000000000E+00 0.  1.
         21    1    1    2  503  505  0.69485096036E+02  0.70046918493E+01 -0.40084576367E+03  0.40688397674E+03  0.00000000000E+00 0.  1.
         21    1    1    2  504  501 -0.45696468668E+02  0.88090690085E+01 -0.10518052182E+03  0.11501612546E+03  0.00000000000E+00 0. -1.
         21    1    1    2  505  502  0.33607710243E+02 -0.73102713044E+02 -0.13292249684E+04  0.13316578019E+04  0.00000000000E+00 0.  1.
         21    1    1    2  506  504 -0.57396337611E+02  0.57288952186E+02 -0.25469315281E+03  0.26729191103E+03  0.00000000000E+00 0. -1.
<scales pt_clust_3="69.83727" pt_clust_4="30.80222" pt_clust_5="82.92707" pt_clust_6="30.80222"></scales>
<clustering>
<clus scale="   30.802">  4  6 -1 -1</clus>
<clus scale="   69.837">  1  3  2 -1</clus>
<clus scale="   82.927">  2  5  1 -1</clus>
<clus scale="   69.837">  1  3  2 -1</clus>
</clustering>
</event>
<event>
 6    0  0.1080632E+003  0.1133155E+03  0.7546771E-02  0.1254550E+00
         21   -1    0    0  503  501  0.00000000000E+00  0.00000000000E+00  0.33483550156E+03  0.33483550156E+03  0.00000000000E+00 0. -1.
         21   -1    0    0  505  502 -0.00000000000E+00 -0.00000000000E+00 -0.81580900963E+03  0.81580900963E+03  0.00000000000E+00 0. -1.
         21    1    1    2  503  506 -0.37566894598E+02  0.16907649217E+02  0.22709687338E+03  0.23080322803E+03  0.00000000000E+00 0. -1.
         21    1    1    2  504  502 -0.41003841898E+02 -0.10823144773E+03 -0.74602596171E+03  0.75495039365E+03  0.00000000000E+00 0. -1.
         21    1    1    2  505  501  0.51441318292E+02  0.49857460152E+02  0.74473585752E+02  0.10333581439E+03  0.00000000000E+00 0.  1.
         21    1    1    2  506  504  0.27129418205E+02  0.41466338363E+02 -0.36518005482E+02  0.61555075126E+02  0.00000000000E+00 0.  1.
<scales pt_clust_3="41.19636" pt_clust_4="113.31552" pt_clust_5="14000.00000" pt_clust_6="49.03035"></scales>
<clustering>
<clus scale="   41.196">  1  3  2 -1</clus>
<clus scale="   49.030">  1  6  2 -1</clus>
<clus scale="  113.316">  2  4  1 -1</clus>
<clus scale="   41.196">  1  3  2 -1</clus>
</clustering>
</event>
<event>
 6    0  0.1080632E+003  0.1254355E+03  0.7546771E-02  0.1234390E+00
         21   -1    0    0  503  501  0.00000000000E+00  0.00000000000E+00  0.22843181395E+03  0.22843181395E+03  0.00000000000E+00 0.  1.
         21   -1    0    0  506  502 -0.00000000000E+00 -0.00000000000E+00 -0.85255586368E+03  0.85255586368E+03  0.00000000000E+00 0.  1.
         21    1    1    2  503  502 -0.44552025054E+02 -0.10858568238E+03 -0.10548071456E+02  0.11784309554E+03  0.00000000000E+00 0.  1.
         21    1    1    2  504  501 -0.45367797412E+02  0.16450039352E+02  0.12626870167E+03  0.13517627698E+03  0.00000000000E+00 0.  1.
         21    1    1    2  505  504 -0.31407497130E+02  0.46004414136E+02  0.18423307696E+02  0.58670735997E+02  0.00000000000E+00 0.  1.
         21    1    1    2  506  505  0.12132731960E+03  0.46131228892E+02 -0.75826798764E+03  0.76929756912E+03  0.00000000000E+00 0.  1.
<scales pt_clust_3="125.43549" pt_clust_4="48.25806" pt_clust_5="72.01841" pt_clust_6="14000.00000"></scales>
<clustering>
<clus scale="   48.258">  1  4  2 -1</clus>
<clus scale="   72.018">  1  5  2 -1</clus>
<clus scale="  125.435">  1  3  2 -1</clus>
<clus scale="   48.258">  1  3  2 -1</clus>
</clustering>
</event>
<event>
 6    0  0.1080632E+003  0.7659293E+02  0.7546771E-02  0.1339008E+00
         21   -1    0    0  503  501  0.00000000000E+00  0.00000000000E+00  0.28888418717E+03  0.28888418717E+03  0.00000000000E+00 0.  1.
         21   -1    0    0  506  502 -0.00000000000E+00 -0.00000000000E+00 -0.20496759019E+03  0.20496759019E+03  0.00000000000E+00 0.  1.
         21    1    1    2  503  502  0.68646415716E+02  0.65424979049E+02  0.12890512201E+03  0.16002902472E+03  0.00000000000E+00 0.  1.
         21    1    1    2  504  505 -0.79989641702E+02  0.15862407635E+02  0.44704967264E+01  0.81669725705E+02  0.00000000000E+00 0.  1.
         21    1    1    2  505  501 -0.15938992050E+02 -0.66652854071E+02  0.87837321345E+02  0.11140937772E+03  0.00000000000E+00 0.  1.
         21    1    1    2  506  504  0.27282218037E+02 -0.14634532613E+02 -0.13729634309E+03  0.14074364921E+03  0.00000000000E+00 0.  1.
<scales pt_clust_3="14000.00000" pt_clust_4="64.43563" pt_clust_5="76.59293" pt_clust_6="30.95947"></scales>
<clustering>
<clus scale="   30.959">  2  6  1 -1</clus>
<clus scale="   64.436">  2  4  1 -1</clus>
<clus scale="   76.593">  1  5  2 -1</clus>
<clus scale="   76.593">  1  3  2 -1</clus>
</clustering>
</event>
<event>
 6    0  0.1080632E+003  0.2960838E+03  0.7546771E-02  0.1087215E+00
         21   -1    0    0  506  501  0.00000000000E+00  0.00000000000E+00  0.47806291103E+03  0.47806291103E+03  0.00000000000E+00 0.  1.
         21   -1    0    0  503  502 -0.00000000000E+00 -0.00000000000E+00 -0.59141608868E+03  0.59141608868E+03  0.00000000000E+00 0.  1.
         21    1    1    2  503  505 -0.26494994455E+03 -0.14569124525E+03  0.34203185044E+03  0.45651965869E+03  0.00000000000E+00 0.  1.
         21    1    1    2  504  502  0.60827659996E+02  0.71240254927E+01 -0.74246782838E+02  0.96246250429E+02  0.00000000000E+00 0.  1.
         21    1    1    2  505  501  0.34245866540E+02 -0.17768874753E+02  0.27492932826E+02  0.47374820743E+02  0.00000000000E+00 0.  1.
         21    1    1    2  506  504  0.16987641801E+03  0.15633609451E+03 -0.40863117808E+03  0.46933826984E+03  0.00000000000E+00 0.  1.
<scales pt_clust_3="284.41955" pt_clust_4="42.57303" pt_clust_5="38.58124" pt_clust_6="42.57303"></scales>
<clustering>
<clus scale="   38.581">  1  5  2 -1</clus>
<clus scale="   42.573">  4  6 -1 -1</clus>
<clus scale="  284.420">  1  3  2 -1</clus>
<clus scale="   38.581">  1  3  2 -1</clus>
</clustering>
</event>
<event>
 6    0  0.1080632E+003  0.1191764E+03  0.7546771E-02  0.1244462E+00
         21   -1    0    0  503  501  0.00000000000E+00  0.00000000000E+00  0.18556897335E+03  0.18556897335E+03  0.00000000000E+00 0.  1.
         21   -1    0    0  505  502 -0.00000000000E+00 -0.00000000000E+00 -0.57277635855E+03  0.57277635855E+03  0.00000000000E+00 0.  1.
         21    1    1    2  503  502 -0.15639090382E+02 -0.27350044999E+02  0.24131009426E+02  0.39685157494E+02  0.00000000000E+00 0.  1.
         21    1    1    2  504  501 -0.89563673977E+01  0.90083739049E+02  0.10185050491E+03  0.13626746460E+03  0.00000000000E+00 0.  1.
         21    1    1    2  505  506  0.41059025074E+02 -0.10164470838E+03 -0.52673659483E+03  0.53802316922E+03  0.00000000000E+00 0.  1.
         21    1    1    2  506  504 -0.16463567295E+02  0.38911014329E+02  0.13547695292E+02  0.44369540587E+02  0.00000000000E+00 0.  1.
<scales pt_clust_3="31.50565" pt_clust_4="30.75883" pt_clust_5="110.34427" pt_clust_6="30.75883"></scales>
<clustering>
<clus scale="   30.759">  4  6 -1 -1</clus>
<clus scale="   31.506">  1  3  2 -1</clus>
<clus scale="  110.344">  2  5  1 -1</clus>
<clus scale="   31.506">  1  3  2 -1</clus>
</clustering>
</event>
<event>
 6    0  0.1080632E+003  0.3467553E+03  0.7546771E-02  0.1063955E+00
         21   -1    0    0  503  501  0.00000000000E+00  0.00000000000E+00  0.34628161606E+03  0.34628161606E+03  0.00000000000E+00 0.  1.
         21   -1    0    0  506  502 -0.00000000000E+00 -0.00000000000E+00 -0.82550635178E+03  0.82550635178E+03  0.00000000000E+00 0. -1.
         21    1    1    2  503  504 -0.15764383664E+01  0.37195048657E+03  0.56899328230E+02  0.37628072389E+03  0.00000000000E+00 0.  1.
         21    1    1    2  504  502  0.21868606302E+02  0.23175172211E+02 -0.19453773012E+03  0.19713004081E+03  0.00000000000E+00 0. -1.
         21    1    1    2  505  501  0.46391038367E+02 -0.43742046228E+02  0.40088252817E+02  0.75316419610E+02  0.00000000000E+00 0.  1.
         21    1    1    2  506  505 -0.66683206302E+02 -0.35138361256E+03 -0.38167458665E+03  0.52306078354E+03  0.00000000000E+00 0. -1.
<scales pt_clust_3="346.75529" pt_clust_4="31.86416" pt_clust_5="63.76781" pt_clust_6="14000.00000"></scales>
<clustering>
<clus scale="   31.864">  2  4  1 -1</clus>
<clus scale="   63.768">  1  5  2 -1</clus>
<clus scale="  346.755">  1  3  2 -1</clus>
<clus scale="   63.768">  1  3  2 -1</clus>
</clustering>
</event>
<event>
 6    0  0.1080632E+003  0.1140718E+03  0.7546771E-02  0.1253210E+00
         21   -1    0    0  503  501  0.00000000000E+00  0.00000000000E+00  0.45593554403E+03  0.45593554403E+03  0.00000000000E+00 0. -1.
         21   -1    0    0  501  502 -0.00000000000E+00 -0.00000000000E+00 -0.43432753263E+03  0.43432753263E+03  0.00000000000E+00 0. -1.
         21    1    1    2  503  506 -0.50123886900E+02  0.32818970590E+02  0.25811033232E+03  0.26497251277E+03  0.00000000000E+00 0. -1.
         21    1    1    2  504  505  0.27665050463E+02 -0.34391113731E+02  0.69803004074E+02  0.82586700495E+02  0.00000000000E+00 0.  1.
         21    1    1    2  505  502  0.44023104046E+02  0.87039446764E+02 -0.40137608855E+03  0.41305769990E+03  0.00000000000E+00 0. -1.
         21    1    1    2  506  504 -0.21564267610E+02 -0.85467303622E+02  0.95070763564E+02  0.12964616350E+03  0.00000000000E+00 0. -1.
<scales pt_clust_3="59.91234" pt_clust_4="41.60062" pt_clust_5="97.75580" pt_clust_6="41.60062"></scales>
<clustering>
<clus scale="   41.601">  4  6 -1 -1</clus>
<clus scale="   59.912">  1  3  2 -1</clus>
<clus scale="   97.756">  2  5  1 -1</clus>
<clus scale="   59.912">  1  3  2 -1</clus>
</clustering>
</event>
<event>
 6    0  0.1080632E+003  0.1042032E+03  0.7546771E-02  0.1271698E+00
         21   -1    0    0  503  501  0.00000000000E+00  0.00000000000E+00  0.61528071099E+03  0.61528071099E+03  0.00000000000E+00 0. -1.
         21   -1    0    0  505  502 -0.00000000000E+00 -0.00000000000E+00 -0.56980595093E+03  0.56980595093E+03  0.00000000000E+00 0. -1.
         21    1    1    2  503  502 -0.44272735073E+02 -0.67704249039E+02 -0.11344180534E+03  0.13933048341E+03  0.00000000000E+00 0. -1.
         21    1    1    2  504  506  0.62070969738E+02  0.11899264318E+03 -0.11415426623E+03  0.17619095015E+03  0.00000000000E+00 0. -1.
         21    1    1    2  505  504 -0.48792188216E+02 -0.49735815269E+02 -0.29374791433E+03  0.30189760868E+03  0.00000000000E+00 0. -1.
         21    1    1    2  506  501  0.30993953551E+02 -0.15525788727E+01  0.56681874597E+03  0.56766761969E+03  0.00000000000E+00 0. -1.
<scales pt_clust_3="14000.00000" pt_clust_4="104.20316" pt_clust_5="67.95439" pt_clust_6="31.03282"></scales>
<clustering>
<clus scale="   31.033">  1  6  2 -1</clus>
<clus scale="   67.954">  2  5  1 -1</clus>
<clus scale="  104.203">  2  4  1 -1</clus>
<clus scale="   31.033">  1  3  2 -1</clus>
</clustering>
</event>
<event>
 6    0  0.1080632E+003  0.2437978E+03  0.7546771E-02  0.1117288E+00
         21   -1    0    0  505  501  0.00000000000E+00  0.00000000000E+00  0.45477742016E+03  0.45477742016E+03  0.00000000000E+00 0.  1.
         21   -1    0    0  504  502 -0.00000000000E+00 -0.00000000000E+00 -0.79995597655E+03  0.79995597655E+03  0.00000000000E+00 0.  1.
         21    1    1    2  503  506  0.71933347899E+02  0.95319712363E+00 -0.95565365059E+02  0.11961627867E+03  0.00000000000E+00 0. -1.
         21    1    1    2  504  503  0.47236122581E+02 -0.37446120531E+02 -0.49957438496E+02  0.78289264145E+02  0.00000000000E+00 0. -1.
         21    1    1    2  505  502  0.79464865111E+02  0.18515175917E+03 -0.57365949806E+03  0.60801402815E+03  0.00000000000E+00 0.  1.
         21    1    1    2  506  501 -0.19863433559E+03 -0.14865883576E+03  0.37400374523E+03  0.44881382574E+03  0.00000000000E+00 0.  1.
<scales pt_clust_3="134.12575" pt_clust_4="45.36962" pt_clust_5="14000.00000" pt_clust_6="243.79784"></scales>
<clustering>
<clus scale="   45.370">  3  4 -1 -1</clus>
<clus scale="  134.126">  2  3  1 -1</clus>
<clus scale="  243.798">  1  6  2 -1</clus>
<clus scale="  243.798">  1  3  2 -1</clus>
</clustering>
</event>
<event>
 6    0  0.1080632E+003  0.1412743E+03  0.7546771E-02  0.1211624E+00
         21   -1    0    0  506  501  0.00000000000E+00  0.00000000000E+00  0.13230414063E+03  0.13230414063E+03  0.00000000000E+00 0. -1.
         21   -1    0    0  504  502 -0.00000000000E+00 -0.00000000000E+00 -0.47291613861E+03  0.47291613861E+03  0.00000000000E+00 0. -1.
         21    1    1    2  503  501  0.12017696024E+02 -0.63246613347E+02  0.27383183728E+02  0.69959973332E+02  0.00000000000E+00 0. -1.
         21    1    1    2  504  505 -0.12838634349E+03 -0.29970106514E+02 -0.20610189199E+03  0.24466150159E+03  0.00000000000E+00 0. -1.
         21    1    1    2  505  503 -0.44358279864E+02  0.63760707241E+02 -0.58391491161E+02  0.97173304052E+02  0.00000000000E+00 0.  1.
         21    1    1    2  506  502  0.16072692733E+03  0.29456012620E+02 -0.10350179856E+03  0.19342550026E+03  0.00000000000E+00 0.  1.
<scales pt_clust_3="64.37825" pt_clust_4="141.27434" pt_clust_5="64.33259" pt_clust_6="14000.00000"></scales>
<clustering>
<clus scale="   64.378">  1  3  2 -1</clus>
<clus scale="   64.333">  1  5  2 -1</clus>
<clus scale="  141.274">  2  4  1 -1</clus>
<clus scale="   64.378">  1  3  2 -1</clus>
</clustering>
</event>
<event>
 6    0  0.1080632E+003  0.1255232E+03  0.7546771E-02  0.1234254E+00
         21   -1    0    0  504  501  0.00000000000E+00  0.00000000000E+00  0.49289687439E+03  0.49289687439E+03  0.00000000000E+00 0.  1.
         21   -1    0    0  506  502 -0.00000000000E+00 -0.00000000000E+00 -0.93795978082E+02  0.93795978082E+02  0.00000000000E+00 0. -1.
         21    1    1    2  503  501  0.81669727750E+02  0.59563971748E+02  0.32299442812E+03  0.33844233151E+03  0.00000000000E+00 0.  1.
         21    1    1    2  504  502  0.65826710148E+02 -0.64753581409E+01  0.19461930270E+02  0.68948188967E+02  0.00000000000E+00 0. -1.
         21    1    1    2  505  503 -0.33933109702E+02 -0.15937506049E+02  0.46002227792E+02  0.59343617979E+02  0.00000000000E+00 0.  1.
         21    1    1    2  506  505 -0.11356332820E+03 -0.37151107558E+02  0.10642310128E+02  0.11995871402E+03  0.00000000000E+00 0. -1.
<scales pt_clust_3="106.71902" pt_clust_4="66.14443" pt_clust_5="37.01641" pt_clust_6="37.01641"></scales>
<clustering>
<clus scale="   37.016">  5  6 -1 -1</clus>
<clus scale="   66.144">  2  4  1 -1</clus>
<clus scale="  106.719">  1  3  2 -1</clus>
<clus scale="  106.719">  1  3  2 -1</clus>
</clustering>
</event>
<event>
 6    0  0.1080632E+003  0.1156618E+03  0.7546771E-02  0.1250430E+00
         21   -1    0    0  506  501  0.00000000000E+00  0.00000000000E+00  0.51005162434E+02  0.51005162434E+02  0.00000000000E+00 0.  1.
         21   -1    0    0  504  502 -0.00000000000E+00 -0.00000000000E+00 -0.52706865495E+03  0.52706865495E+03  0.00000000000E+00 0.  1.
         21    1    1    2  503  505 -0.61610498433E+02 -0.92227129064E+01 -0.15791244698E+03  0.16975645161E+03  0.00000000000E+00 0.  1.
         21    1    1    2  504  503 -0.40630443262E+02  0.33568885812E+02 -0.16884111723E+03  0.17687573571E+03  0.00000000000E+00 0.  1.
         21    1    1    2  505  501  0.86036497048E+02 -0.73682508255E+02 -0.13756476395E+03  0.17820060362E+03  0.00000000000E+00 0.  1.
         21    1    1    2  506  502  0.16204444647E+02  0.49336335350E+02 -0.11745164346E+02  0.53241026451E+02  0.00000000000E+00 0.  1.
<scales pt_clust_3="44.49377" pt_clust_4="44.49377" pt_clust_5="105.06003" pt_clust_6="51.92936"></scales>
<clustering>
<clus scale="   44.494">  3  4 -1 -1</clus>
<clus scale="   51.929">  1  6  2 -1</clus>
<clus scale="  105.060">  1  5  2 -1</clus>
<clus scale="   51.929">  1  3  2 -1</clus>
</clustering>
</event>
<event>
 6    0  0.1080632E+003  0.7912742E+02  0.7546771E-02  0.1331546E+00
         21   -1    0    0  505  501  0.00000000000E+00  0.00000000000E+00  0.87007223745E+03  0.87007223745E+03  0.00000000000E+00 0. -1.
         21   -1    0    0  503  502 -0.00000000000E+00 -0.00000000000E+00 -0.49924780659E+03  0.49924780659E+03  0.00000000000E+00 0. -1.
         21    1    1    2  503  501 -0.10773583792E+02  0.56442434053E+02 -0.26374805662E+02  0.63225381322E+02  0.00000000000E+00 0. -1.
         21    1    1    2  504  506  0.54216484999E+02  0.51535250204E+02 -0.81560328492E+01  0.75245133604E+02  0.00000000000E+00 0. -1.
         21    1    1    2  505  504 -0.71180881318E+01 -0.79862404009E+02  0.81485068399E+03  0.81878587430E+03  0.00000000000E+00 0. -1.
         21    1    1    2  506  502 -0.36324813075E+02 -0.28115280248E+02 -0.40949541462E+03  0.41206365482E+03  0.00000000000E+00 0. -1.
<scales pt_clust_3="51.30351" pt_clust_4="14000.00000" pt_clust_5="79.12742" pt_clust_6="45.93431"></scales>
<clustering>
<clus scale="   45.934">  2  6  1 -1</clus>
<clus scale="   51.304">  2  3  1 -1</clus>
<clus scale="   79.127">  1  5  2 -1</clus>
<clus scale="   79.127">  1  3  2 -1</clus>
</clustering>
</event>
<event>
 6    0  0.1080632E+003  0.1409223E+03  0.7546771E-02  0.1212093E+00
         21   -1    0    0  506  501  0.00000000000E+00  0.00000000000E+00  0.20659190471E+03  0.20659190471E+03  0.00000000000E+00 0.  1.
         21   -1    0    0  504  502 -0.00000000000E+00 -0.00000000000E+00 -0.37300422803E+03  0.37300422803E+03  0.00000000000E+00 0.  1.
         21    1    1    2  503  501  0.11044703617E+02  0.33214430049E+02  0.84374503296E+02  0.91346815204E+02  0.00000000000E+00 0.  1.
         21    1    1    2  504  505 -0.70002745022E+02 -0.11302615767E+03 -0.30321217224E+03  0.33107841673E+03  0.00000000000E+00 0.  1.
         21    1    1    2  505  503  0.21067261928E+02  0.91632399689E+02  0.66383833992E+02  0.11509621894E+03  0.00000000000E+00 0.  1.
         21    1    1    2  506  502  0.37890779477E+02 -0.11820672063E+02 -0.13958488361E+02  0.42074681873E+02  0.00000000000E+00 0. -1.
<scales pt_clust_3="34.90511" pt_clust_4="128.78805" pt_clust_5="34.90511" pt_clust_6="39.69181"></scales>
<clustering>
<clus scale="   34.905">  3  5 -1 -1</clus>
<clus scale="   39.692">  2  6  1 -1</clus>
<clus scale="  128.788">  2  4  1 -1</clus>
<clus scale="  140.922">  1  3  2 -1</clus>
</clustering>
</event>
<event>
 6    0  0.1080632E+003  0.8433810E+02  0.7546771E-02  0.1317173E+00
         21   -1    0    0  505  501  0.00000000000E+00  0.00000000000E+00  0.60524141608E+03  0.60524141608E+03  0.00000000000E+00 0.  1.
         21   -1    0    0  504  502 -0.00000000000E+00 -0.00000000000E+00 -0.24336170367E+03  0.24336170367E+03  0.00000000000E+00 0. -1.
         21    1    1    2  503  501  0.31252081095E+02  0.41520089720E+01  0.40096161246E+03  0.40219913777E+03  0.00000000000E+00 0.  1.
         21    1    1    2  504  503 -0.10217627637E+03  0.68862026033E+02  0.34256879378E+02  0.12788863854E+03  0.00000000000E+00 0.  1.
         21    1    1    2  505  506 -0.75364323713E+01 -0.53383207922E+02  0.10758448642E+03  0.12033697029E+03  0.00000000000E+00 0.  1.
         21    1    1    2  506  502  0.78460627646E+02 -0.19630827083E+02 -0.18092326585E+03  0.19817837316E+03  0.00000000000E+00 0. -1.
<scales pt_clust_3="31.52668" pt_clust_4="14000.00000" pt_clust_5="52.02054" pt_clust_6="84.33810"></scales>
<clustering>
<clus scale="   31.527">  1  3  2 -1</clus>
<clus scale="   52.021">  1  5  2 -1</clus>
<clus scale="   84.338">  2  6  1 -1</clus>
<clus scale="   31.527">  1  3  2 -1</clus>
</clustering>
</event>
<event>
 6    0  0.1080632E+003  0.1111513E+03  0.7546771E-02  0.1258453E+00
         21   -1    0    0  504  501  0.00000000000E+00  0.00000000000E+00  0.10822423184E+04  0.10822423184E+04  0.00000000000E+00 0. -1.
         21   -1    0    0  505  502 -0.00000000000E+00 -0.00000000000E+00 -0.37940266970E+03  0.37940266970E+03  0.00000000000E+00 0. -1.
         21    1    1    2  503  502 -0.32651298588E+02  0.98291733375E+01 -0.27916682823E+01  0.34212766035E+02  0.00000000000E+00 0. -1.
         21    1    1    2  504  503 -0.44388103602E+01  0.11042771563E+03  0.10289654591E+04  0.10348835197E+04  0.00000000000E+00 0. -1.
         21    1    1    2  505  506 -0.17391721339E+02  0.43923296329E+02 -0.94898229279E+02  0.10600661230E+03  0.00000000000E+00 0. -1.
         21    1    1    2  506  501  0.54481830287E+02 -0.16418018530E+03 -0.22843591284E+03  0.28654209002E+03  0.00000000000E+00 0. -1.
<scales pt_clust_3="34.09868" pt_clust_4="111.15126" pt_clust_5="53.64938" pt_clust_6="14000.00000"></scales>
<clustering>
<clus scale="   34.099">  2  3  1 -1</clus>
<clus scale="   53.649">  2  5  1 -1</clus>
<clus scale="  111.151">  1  4  2 -1</clus>
<clus scale="  111.151">  1  3  2 -1</clus>
</clustering>
</event>
<event>
 6    0  0.1080632E+003  0.6812019E+02  0.7546771E-02  0.1366605E+00
         21   -1    0    0  505  501  0.00000000000E+00  0.00000000000E+00  0.18611916724E+03  0.18611916724E+03  0.00000000000E+00 0. -1.
         21   -1    0    0  504  502 -0.00000000000E+00 -0.00000000000E+00 -0.77575884863E+03  0.77575884863E+03  0.00000000000E+00 0. -1.
         21    1    1    2  503  501  0.13040237396E+02 -0.41397405188E+02  0.97086320760E+02  0.10634635220E+03  0.00000000000E+00 0. -1.
         21    1    1    2  504  503  0.50827974953E+02  0.43231218251E+02 -0.91483391392E+02  0.11323264622E+03  0.00000000000E+00 0. -1.
         21    1    1    2  505  506 -0.10877059088E+03  0.48010729615E+02  0.22431143788E+02  0.12099267668E+03  0.00000000000E+00 0. -1.
         21    1    1    2  506  502  0.44902378534E+02 -0.49844542678E+02 -0.61767375454E+03  0.62130634077E+03  0.00000000000E+00 0. -1.
<scales pt_clust_3="43.40268" pt_clust_4="64.75586" pt_clust_5="68.12019" pt_clust_6="14000.00000"></scales>
<clustering>
<clus scale="   43.403">  1  3  2 -1</clus>
<clus scale="   64.756">  1  4  2 -1</clus>
<clus scale="   68.120">  1  5  2 -1</clus>
<clus scale="   43.403">  1  3  2 -1</clus>
</clustering>
</event>
<event>
 6    0  0.1080632E+003  0.1050355E+03  0.7546771E-02  0.1270050E+00
         21   -1    0    0  506  501  0.00000000000E+00  0.00000000000E+00  0.37624517694E+02  0.37624517694E+02  0.00000000000E+00 0. -1.
         21   -1    0    0  501  502 -0.00000000000E+00 -0.00000000000E+00 -0.92892957120E+03  0.92892957120E+03  0.00000000000E+00 0. -1.
         21    1    1    2  503  505  0.38810704345E+02 -0.21274459348E+02 -0.11059143150E+03  0.11911900820E+03  0.00000000000E+00 0. -1.
         21    1    1    2  504  503  0.70041772038E+02  0.48033001733E+02 -0.27005198469E+03  0.28309202306E+03  0.00000000000E+00 0. -1.
         21    1    1    2  505  502  0.12032479845E+02 -0.27511070671E+02 -0.39789061010E+03  0.39902202594E+03  0.00000000000E+00 0. -1.
         21    1    1    2  506  504 -0.12088495623E+03  0.75252828556E+00 -0.11277102721E+03  0.16532103169E+03  0.00000000000E+00 0. -1.
<scales pt_clust_3="49.56617" pt_clust_4="14000.00000" pt_clust_5="30.02731" pt_clust_6="105.03549"></scales>
<clustering>
<clus scale="   30.027">  2  5  1 -1</clus>
<clus scale="   49.566">  2  3  1 -1</clus>
<clus scale="  105.035">  1  6  2 -1</clus>
<clus scale="  105.035">  1  3  2 -1</clus>
</clustering>
</event>
<event>
 6    0  0.1080632E+003  0.1080749E+03  0.7546771E-02  0.1264177E+00
         21   -1    0    0  504  501  0.00000000000E+00  0.00000000000E+00  0.83481629953E+02  0.83481629953E+02  0.00000000000E+00 0. -1.
         21   -1    0    0  505  502 -0.00000000000E+00 -0.00000000000E+00 -0.19602241533E+04  0.19602241533E+04  0.00000000000E+00 0.  1.
         21    1    1    2  503  502 -0.18497043307E+02  0.33959398973E+02 -0.14922423565E+04  0.14927433242E+04  0.00000000000E+00 0.  1.
         21    1    1    2  504  503 -0.45629013028E+02 -0.69550707361E+02 -0.24290331507E+03  0.25675149113E+03  0.00000000000E+00 0.  1.
         21    1    1    2  505  506 -0.49018609292E+02  0.80008113618E+01 -0.16766691098E+03  0.17486860803E+03  0.00000000000E+00 0. -1.
         21    1    1    2  506  501  0.11314466563E+03  0.27590497026E+02  0.26070059177E+02  0.11934235992E+03  0.00000000000E+00 0. -1.
<scales pt_clust_3="38.67016" pt_clust_4="108.07491" pt_clust_5="59.41649" pt_clust_6="14000.00000"></scales>
<clustering>
<clus scale="   38.670">  2  3  1 -1</clus>
<clus scale="   59.416">  2  5  1 -1</clus>
<clus scale="  108.075">  2  4  1 -1</clus>
<clus scale="  108.075">  1  3  2 -1</clus>
</clustering>
</event>
<event>
 6    0  0.1080632E+003  0.1584729E+03  0.7546771E-02  0.1190432E+00
         21   -1    0    0  502  501  0.00000000000E+00  0.00000000000E+00  0.44322640718E+03  0.44322640718E+03  0.00000000000E+00 0. -1.
         21   -1    0    0  504  502 -0.00000000000E+00 -0.00000000000E+00 -0.13145282968E+03  0.13145282968E+03  0.00000000000E+00 0. -1.
         21    1    1    2  503  505  0.26692264384E+02 -0.32390819421E+02  0.36077793257E+02  0.55346628868E+02  0.00000000000E+00 0. -1.
         21    1    1    2  504  503 -0.16952930806E+02 -0.37975417927E+02 -0.68378377203E+02  0.80032097927E+02  0.00000000000E+00 0. -1.
         21    1    1    2  505  506  0.11869904653E+03 -0.31279495299E+01  0.10702785433E+03  0.15985684007E+03  0.00000000000E+00 0. -1.
         21    1    1    2  506  501 -0.12843838010E+03  0.73494186877E+02  0.23704630711E+03  0.27944367000E+03  0.00000000000E+00 0. -1.
<scales pt_clust_3="34.83558" pt_clust_4="41.58767" pt_clust_5="34.83558" pt_clust_6="147.24321"></scales>
<clustering>
<clus scale="   34.836">  3  5 -1 -1</clus>
<clus scale="   41.588">  2  4  1 -1</clus>
<clus scale="  147.243">  1  6  2 -1</clus>
<clus scale="  147.243">  1  3  2 -1</clus>
</clustering>
</event>
<event>
 6    0  0.1080632E+003  0.8788410E+02  0.7546771E-02  0.1308058E+00
         21   -1    0    0  503  501  0.00000000000E+00  0.00000000000E+00  0.19871062544E+03  0.19871062544E+03  0.00000000000E+00 0.  1.
         21   -1    0    0  506  502 -0.00000000000E+00 -0.00000000000E+00 -0.83617747273E+03  0.83617747273E+03  0.00000000000E+00 0. -1.
         21    1    1    2  503  505 -0.34378530026E+02 -0.13434175655E+02 -0.30890265449E+03  0.31110000057E+03  0.00000000000E+00 0.  1.
         21    1    1    2  504  501  0.35805985944E+02 -0.68607236827E+02  0.17908208441E+03  0.19508822243E+03  0.00000000000E+00 0.  1.
         21    1    1    2  505  502 -0.54338791454E+02  0.20245574742E+02 -0.30257061921E+03  0.30807720974E+03  0.00000000000E+00 0. -1.
         21    1    1    2  506  504  0.52911335536E+02  0.61795837739E+02 -0.20507565801E+03  0.22062266542E+03  0.00000000000E+00 0. -1.
<scales pt_clust_3="31.54864" pt_clust_4="77.38877" pt_clust_5="31.54864" pt_clust_6="78.48516"></scales>
<clustering>
<clus scale="   31.549">  3  5 -1 -1</clus>
<clus scale="   77.389">  1  4  2 -1</clus>
<clus scale="   78.485">  1  6  2 -1</clus>
<clus scale="   77.389">  1  3  2 -1</clus>
</clustering>
</event>
<event>
 6    0  0.1080632E+003  0.1667507E+03  0.7546771E-02  0.1181279E+00
         21   -1    0    0  505  501  0.00000000000E+00  0.00000000000E+00  0.19902316749E+03  0.19902316749E+03  0.00000000000E+00 0. -1.
         21   -1    0    0  501  502 -0.00000000000E+00 -0.00000000000E+00 -0.38204329257E+03  0.38204329257E+03  0.00000000000E+00 0. -1.
         21    1    1    2  503  504 -0.90263347911E+02  0.44206829827E+02  0.11225383703E+03  0.15067395165E+03  0.00000000000E+00 0. -1.
         21    1    1    2  504  506  0.15451362642E+02 -0.73192830970E+02 -0.97148489141E+02  0.12261225084E+03  0.00000000000E+00 0.  1.
         21    1    1    2  505  503 -0.49285275133E+01  0.91363215762E+02 -0.73306916154E+01  0.91789251100E+02  0.00000000000E+00 0. -1.
         21    1    1    2  506  502  0.79740512783E+02 -0.62377214619E+02 -0.19079478135E+03  0.21599100646E+03  0.00000000000E+00 0. -1.
<scales pt_clust_3="153.31564" pt_clust_4="56.36799" pt_clust_5="91.49605" pt_clust_6="56.36799"></scales>
<clustering>
<clus scale="   56.368">  4  6 -1 -1</clus>
<clus scale="   91.496">  1  5  2 -1</clus>
<clus scale="  153.316">  1  3  2 -1</clus>
<clus scale="   91.496">  1  3  2 -1</clus>
</clustering>
</event>
<event>
 6    0  0.1080632E+003  0.9789516E+02  0.7546771E-02  0.1284785E+00
         21   -1    0    0  505  501  0.00000000000E+00  0.00000000000E+00  0.77018712983E+03  0.77018712983E+03  0.00000000000E+00 0. -1.
         21   -1    0    0  503  502 -0.00000000000E+00 -0.00000000000E+00 -0.25946182807E+04  0.25946182807E+04  0.00000000000E+00 0.  1.
         21    1    1    2  503  506 -0.49862740221E+02 -0.49421041816E+01 -0.18074575938E+03  0.18756264764E+03  0.00000000000E+00 0.  1.
         21    1    1    2  504  502  0.48678277509E+02  0.11841432631E+02 -0.20673808848E+04  0.20679877943E+04  0.00000000000E+00 0.  1.
         21    1    1    2  505  504  0.95212058576E+02  0.20371203813E+02 -0.33264620278E+03  0.34660325773E+03  0.00000000000E+00 0.  1.
         21    1    1    2  506  501 -0.94027595864E+02 -0.27270532262E+02  0.75634169617E+03  0.76265171086E+03  0.00000000000E+00 0. -1.
<scales pt_clust_3="32.86036" pt_clust_4="50.09785" pt_clust_5="14000.00000" pt_clust_6="97.89516"></scales>
<clustering>
<clus scale="   50.098">  2  4  1 -1</clus>
<clus scale="   32.860">  2  3  1 -1</clus>
<clus scale="   97.895">  1  6  2 -1</clus>
<clus scale="   97.895">  1  3  2 -1</clus>
</clustering>
</event>
<event>
 6    0  0.1080632E+003  0.1213517E+03  0.7546771E-02  0.1240884E+00
         21   -1    0    0  506  501  0.00000000000E+00  0.00000000000E+00  0.68258741895E+03  0.68258741895E+03  0.00000000000E+00 0. -1.
         21   -1    0    0  504  502 -0.00000000000E+00 -0.00000000000E+00 -0.49040464306E+02  0.49040464306E+02  0.00000000000E+00 0. -1.
         21    1    1    2  503  502  0.17403547089E+02  0.26188907497E+02 -0.15535842911E+02  0.35072849073E+02  0.00000000000E+00 0. -1.
         21    1    1    2  504  505  0.21636488829E+02 -0.34557908517E+02  0.10941889145E+03  0.11676849102E+03  0.00000000000E+00 0. -1.
         21    1    1    2  505  501 -0.65736358183E+01 -0.82515560896E+02  0.40930037509E+03  0.41758691015E+03  0.00000000000E+00 0. -1.
         21    1    1    2  506  503 -0.32466400100E+02  0.90884561916E+02  0.13036353102E+03  0.16219963302E+03  0.00000000000E+00 0. -1.
<scales pt_clust_3="31.44427" pt_clust_4="35.59035" pt_clust_5="35.59035" pt_clust_6="110.42328"></scales>
<clustering>
<clus scale="   31.444">  2  3  1 -1</clus>
<clus scale="   35.590">  4  5 -1 -1</clus>
<clus scale="  110.423">  2  6  1 -1</clus>
<clus scale="  121.352">  1  3  2 -1</clus>
</clustering>
</event>
<event>
 6    0  0.1080632E+003  0.1114526E+03  0.7546771E-02  0.1257903E+00
         21   -1    0    0  505  501  0.00000000000E+00  0.00000000000E+00  0.43389423915E+03  0.43389423915E+03  0.00000000000E+00 0.  1.
         21   -1    0    0  504  502 -0.00000000000E+00 -0.00000000000E+00 -0.10468404152E+03  0.10468404152E+03  0.00000000000E+00 0.  1.
         21    1    1    2  503  506  0.14777054376E+02 -0.51443341890E+02  0.93936766589E+02  0.10811519263E+03  0.00000000000E+00 0.  1.
         21    1    1    2  504  501 -0.87342980486E+02 -0.11981333354E+02  0.70805350045E+02  0.11307407388E+03  0.00000000000E+00 0.  1.
         21    1    1    2  505  503  0.67472592326E+02 -0.33901693278E+02  0.19990167379E+03  0.21368798447E+03  0.00000000000E+00 0.  1.
         21    1    1    2  506  502  0.50933337830E+01  0.97326368523E+02 -0.35433592792E+02  0.10370102968E+03  0.00000000000E+00 0.  1.
<scales pt_clust_3="47.38327" pt_clust_4="88.16092" pt_clust_5="47.38327" pt_clust_6="96.19873"></scales>
<clustering>
<clus scale="   47.383">  3  5 -1 -1</clus>
<clus scale="   88.161">  1  4  2 -1</clus>
<clus scale="   96.199">  2  6  1 -1</clus>
<clus scale="   88.161">  1  3  2 -1</clus>
</clustering>
</event>
<event>
 6    0  0.1080632E+003  0.1859965E+03  0.7546771E-02  0.1162123E+00
         21   -1    0    0  505  501  0.00000000000E+00  0.00000000000E+00  0.65897142980E+02  0.65897142980E+02  0.00000000000E+00 0.  1.
         21   -1    0    0  506  502 -0.00000000000E+00 -0.00000000000E+00 -0.31324977934E+04  0.31324977934E+04  0.00000000000E+00 0. -1.
         21    1    1    2  503  501  0.31361627364E+02  0.71654975959E+02 -0.26798406603E+03  0.27916562628E+03  0.00000000000E+00 0. -1.
         21    1    1    2  504  502  0.34851828076E+02  0.69383386736E+01 -0.22730673615E+04  0.22733451168E+04  0.00000000000E+00 0. -1.
         21    1    1    2  505  504 -0.41517760381E+02 -0.17301824803E+03 -0.89739665801E+02  0.19927931703E+03  0.00000000000E+00 0.  1.
         21    1    1    2  506  503 -0.24695695059E+02  0.94424933394E+02 -0.43580955718E+03  0.44660487629E+03  0.00000000000E+00 0. -1.
<scales pt_clust_3="57.33857" pt_clust_4="35.53576" pt_clust_5="175.51154" pt_clust_6="57.33857"></scales>
<clustering>
<clus scale="   35.536">  2  4  1 -1</clus>
<clus scale="   57.339">  3  6 -1 -1</clus>
<clus scale="  175.512">  1  5  2 -1</clus>
<clus scale="  175.512">  1  3  2 -1</clus>
</clustering>
</event>
<event>
 6    0  0.1080632E+003  0.1113556E+03  0.7546771E-02  0.1258080E+00
         21   -1    0    0  503  501  0.00000000000E+00  0.00000000000E+00  0.74014742224E+03  0.74014742224E+03  0.00000000000E+00 0. -1.
         21   -1    0    0  505  502 -0.00000000000E+00 -0.00000000000E+00 -0.25108847119E+03  0.25108847119E+03  0.00000000000E+00 0. -1.
         21    1    1    2  503  502  0.42154358476E+02 -0.30975524519E+02 -0.16185486774E+02  0.54758040869E+02  0.00000000000E+00 0. -1.
         21    1    1    2  504  506  0.23978501082E+01  0.81162493609E+02 -0.43539707860E+02  0.92134717748E+02  0.00000000000E+00 0. -1.
         21    1    1    2  505  504 -0.44486557292E+02  0.63255412490E+02 -0.13264187777E+03  0.15353881831E+03  0.00000000000E+00 0. -1.
         21    1    1    2  506  501 -0.65651292193E-01 -0.11344238158E+03  0.68142602346E+03  0.69080431650E+03  0.00000000000E+00 0. -1.
<scales pt_clust_3="52.31131" pt_clust_4="111.35556" pt_clust_5="45.78033" pt_clust_6="14000.00000"></scales>
<clustering>
<clus scale="   52.311">  2  3  1 -1</clus>
<clus scale="   45.780">  2  5  1 -1</clus>
<clus scale="  111.356">  2  4  1 -1</clus>
<clus scale="  111.356">  1  3  2 -1</clus>
</clustering>
</event>
<event>
 6    0  0.1080632E+003  0.1131924E+03  0.7546771E-02  0.1254770E+00
         21   -1    0    0  504  501  0.00000000000E+00  0.00000000000E+00  0.13189381788E+03  0.13189381788E+03  0.00000000000E+00 0. -1.
         21   -1    0    0  506  502 -0.00000000000E+00 -0.00000000000E+00 -0.14981315252E+04  0.14981315252E+04  0.00000000000E+00 0.  1.
         21    1    1    2  503  502  0.35947397095E+02 -0.11850101389E+02 -0.61688025258E+02  0.72374392717E+02  0.00000000000E+00 0.  1.
         21    1    1    2  504  503 -0.14645848333E+02 -0.93225239045E+02  0.11108228949E+02  0.95020202161E+02  0.00000000000E+00 0. -1.
         21    1    1    2  505  501  0.58200154353E+01  0.14672485379E+03 -0.80866199470E+00  0.14684246400E+03  0.00000000000E+00 0. -1.
         21    1    1    2  506  505 -0.27121564198E+02 -0.41649513354E+02 -0.13148492491E+04  0.13157882842E+04  0.00000000000E+00 0.  1.
<scales pt_clust_3="37.85023" pt_clust_4="113.19236" pt_clust_5="14000.00000" pt_clust_6="52.87308"></scales>
<clustering>
<clus scale="   37.850">  2  3  1 -1</clus>
<clus scale="   52.873">  2  6  1 -1</clus>
<clus scale="  113.192">  1  4  2 -1</clus>
<clus scale="  113.192">  1  3  2 -1</clus>
</clustering>
</event>
<event>
 6    0  0.1080632E+003  0.1437582E+03  0.7546771E-02  0.1208360E+00
         21   -1    0    0  506  501  0.00000000000E+00  0.00000000000E+00  0.13530268460E+04  0.13530268460E+04  0.00000000000E+00 0. -1.
         21   -1    0    0  504  502 -0.00000000000E+00 -0.00000000000E+00 -0.35026484753E+02  0.35026484753E+02  0.00000000000E+00 0.  1.
         21    1    1    2  503  502  0.60117853197E+02 -0.11316284690E+02  0.55240329893E+03  0.55578018969E+03  0.00000000000E+00 0. -1.
         21    1    1    2  504  505 -0.23935417408E+02  0.20809026552E+02 -0.71362639274E+01  0.32509168789E+02  0.00000000000E+00 0.  1.
         21    1    1    2  505  501 -0.11311322865E+03 -0.39618440016E+02  0.38071921423E+03  0.39913825095E+03  0.00000000000E+00 0.  1.
         21    1    1    2  506  503  0.76930792860E+02  0.30125698154E+02  0.39201411204E+03  0.40062572137E+03  0.00000000000E+00 0. -1.
<scales pt_clust_3="51.89803" pt_clust_4="31.71624" pt_clust_5="130.43971" pt_clust_6="51.89803"></scales>
<clustering>
<clus scale="   31.716">  2  4  1 -1</clus>
<clus scale="   51.898">  3  6 -1 -1</clus>
<clus scale="  130.440">  2  5  1 -1</clus>
<clus scale="  143.758">  1  3  2 -1</clus>
</clustering>
</event>
<event>
 6    0  0.1080632E+003  0.9509566E+02  0.7546771E-02  0.1290961E+00
         21   -1    0    0  506  501  0.00000000000E+00  0.00000000000E+00  0.39975703637E+03  0.39975703637E+03  0.00000000000E+00 0.  1.
         21   -1    0    0  504  502 -0.00000000000E+00 -0.00000000000E+00 -0.19337844837E+03  0.19337844837E+03  0.00000000000E+00 0.  1.
         21    1    1    2  503  505  0.52645736670E+02  0.53628750244E+02  0.13991154975E+03  0.15881705890E+03  0.00000000000E+00 0. -1.
         21    1    1    2  504  501  0.62308574500E+01 -0.76552981496E+02 -0.68316965140E+02  0.10279294862E+03  0.00000000000E+00 0.  1.
         21    1    1    2  505  502 -0.80037940083E+02 -0.44870572070E+01 -0.80421899134E+02  0.11355125449E+03  0.00000000000E+00 0.  1.
         21    1    1    2  506  503  0.21161345962E+02  0.27411288459E+02  0.21520590252E+03  0.21797422273E+03  0.00000000000E+00 0.  1.
<scales pt_clust_3="95.09566" pt_clust_4="74.42885" pt_clust_5="14000.00000" pt_clust_6="34.62920"></scales>
<clustering>
<clus scale="   34.629">  1  6  2 -1</clus>
<clus scale="   74.429">  2  4  1 -1</clus>
<clus scale="   95.096">  1  3  2 -1</clus>
<clus scale="   34.629">  1  3  2 -1</clus>
</clustering>
</event>
<event>
 6    0  0.1080632E+003  0.6470686E+02  0.7546771E-02  0.1379078E+00
         21   -1    0    0  506  501  0.00000000000E+00  0.00000000000E+00  0.16348722162E+03  0.16348722162E+03  0.00000000000E+00 0.  1.
         21   -1    0    0  505  502 -0.00000000000E+00 -0.00000000000E+00 -0.37149046675E+03  0.37149046675E+03  0.00000000000E+00 0.  1.
         21    1    1    2  503  502  0.57369669458E+02 -0.65314222584E+02 -0.84612072659E+01  0.87343108909E+02  0.00000000000E+00 0. -1.
         21    1    1    2  504  501 -0.68817784839E+01  0.69730791479E+02 -0.57569512627E+01  0.70305651574E+02  0.00000000000E+00 0. -1.
         21    1    1    2  505  504  0.29967035545E+01 -0.33442177667E+02 -0.27433193117E+03  0.27637902949E+03  0.00000000000E+00 0.  1.
         21    1    1    2  506  503 -0.53484594529E+02  0.29025608772E+02  0.80546844576E+02  0.10094989840E+03  0.00000000000E+00 0.  1.
<scales pt_clust_3="14000.00000" pt_clust_4="56.78738" pt_clust_5="33.57617" pt_clust_6="64.70686"></scales>
<clustering>
<clus scale="   33.576">  2  5  1 -1</clus>
<clus scale="   56.787">  2  4  1 -1</clus>
<clus scale="   64.707">  1  6  2 -1</clus>
<clus scale="   64.707">  1  3  2 -1</clus>
</clustering>
</event>
<event>
 6    0  0.1080632E+003  0.1498645E+03  0.7546771E-02  0.1200640E+00
         21   -1    0    0  503  501  0.00000000000E+00  0.00000000000E+00  0.10641017962E+04  0.10641017962E+04  0.00000000000E+00 0. -1.
         21   -1    0    0  506  502 -0.00000000000E+00 -0.00000000000E+00 -0.16214606019E+03  0.16214606019E+03  0.00000000000E+00 0.  1.
         21    1    1    2  503  505  0.42543510737E+02 -0.67973472913E+01  0.22747870171E+03  0.23152259926E+03  0.00000000000E+00 0. -1.
         21    1    1    2  504  501  0.34848504728E+02  0.14895171973E+03  0.72361758882E+03  0.73961033520E+03  0.00000000000E+00 0. -1.
         21    1    1    2  505  502  0.16708779079E+02 -0.12230017669E+03  0.33949707495E+02  0.12801991703E+03  0.00000000000E+00 0.  1.
         21    1    1    2  506  504 -0.94100794544E+02 -0.19854195751E+02 -0.83090262031E+02  0.12709500489E+03  0.00000000000E+00 0.  1.
<scales pt_clust_3="43.08311" pt_clust_4="149.86453" pt_clust_5="14000.00000" pt_clust_6="95.11296"></scales>
<clustering>
<clus scale="   43.083">  1  3  2 -1</clus>
<clus scale="   95.113">  2  6  1 -1</clus>
<clus scale="  149.865">  1  4  2 -1</clus>
<clus scale="   43.083">  1  3  2 -1</clus>
</clustering>
</event>
<event>
 6    0  0.1080632E+003  0.1716710E+03  0.7546771E-02  0.1176116E+00
         21   -1    0    0  503  501  0.00000000000E+00  0.00000000000E+00  0.33433071669E+03  0.33433071669E+03  0.00000000000E+00 0. -1.
         21   -1    0    0  505  502 -0.00000000000E+00 -0.00000000000E+00 -0.30415098336E+03  0.30415098336E+03  0.00000000000E+00 0. -1.
         21    1    1    2  503  502 -0.17123648464E+03 -0.61382924189E+02 -0.68260179299E+02  0.19429165997E+03  0.00000000000E+00 0. -1.
         21    1    1    2  504  506  0.16713211482E+03 -0.41921154184E+02 -0.48744931058E+01  0.17237832711E+03  0.00000000000E+00 0. -1.
         21    1    1    2  505  504 -0.17904253338E+02  0.34069531182E+02 -0.72221297950E+02  0.81836490150E+02  0.00000000000E+00 0.  1.
         21    1    1    2  506  501  0.22008623158E+02  0.69234547191E+02  0.17553570369E+03  0.18997522282E+03  0.00000000000E+00 0. -1.
<scales pt_clust_3="14000.00000" pt_clust_4="171.67097" pt_clust_5="38.48760" pt_clust_6="73.51333"></scales>
<clustering>
<clus scale="   38.488">  2  5  1 -1</clus>
<clus scale="   73.513">  1  6  2 -1</clus>
<clus scale="  171.671">  1  4  2 -1</clus>
<clus scale="   73.513">  1  3  2 -1</clus>
</clustering>
</event>
<event>
 6    0  0.1080632E+003  0.9949353E+02  0.7546771E-02  0.1281365E+00
         21   -1    0    0  503  501  0.00000000000E+00  0.00000000000E+00  0.20867689993E+03  0.20867689993E+03  0.00000000000E+00 0. -1.
         21   -1    0    0  506  502 -0.00000000000E+00 -0.00000000000E+00 -0.26574669057E+03  0.26574669057E+03  0.00000000000E+00 0. -1.
         21    1    1    2  503  505 -0.51253547419E+02 -0.89662530559E+01  0.10759623449E+03  0.11951681678E+03  0.00000000000E+00 0. -1.
         21    1    1    2  504  502 -0.11192924733E+02  0.37740488022E+02 -0.13695773783E+03  0.14250279981E+03  0.00000000000E+00 0. -1.
         21    1    1    2  505  504  0.92428991231E+02  0.59144869675E+02 -0.43760269024E+02  0.11813634146E+03  0.00000000000E+00 0. -1.
         21    1    1    2  506  501 -0.29982519078E+02 -0.87919104641E+02  0.16051981727E+02  0.94267632454E+02  0.00000000000E+00 0. -1.
<scales pt_clust_3="52.27852" pt_clust_4="39.36529" pt_clust_5="14000.00000" pt_clust_6="99.49353"></scales>
<clustering>
<clus scale="   39.365">  2  4  1 -1</clus>
<clus scale="   52.279">  1  3  2 -1</clus>
<clus scale="   99.494">  1  6  2 -1</clus>
<clus scale="   52.279">  1  3  2 -1</clus>
</clustering>
</event>
<event>
 6    0  0.1080632E+003  0.1019025E+03  0.7546771E-02  0.1276345E+00
         21   -1    0    0  503  501  0.00000000000E+00  0.00000000000E+00  0.62608832059E+02  0.62608832059E+02  0.00000000000E+00 0.  1.
         21   -1    0    0  504  502 -0.00000000000E+00 -0.00000000000E+00 -0.73948900573E+03  0.73948900573E+03  0.00000000000E+00 0.  1.
         21    1    1    2  503  506  0.18356262617E+02 -0.44329953049E+02 -0.20140476346E+02  0.52035909736E+02  0.00000000000E+00 0.  1.
         21    1    1    2  504  505  0.35334042490E+02  0.13884748288E+03 -0.43019074953E+03  0.45342165700E+03  0.00000000000E+00 0.  1.
         21    1    1    2  505  501 -0.76439621782E+02 -0.17580806920E+02 -0.29352353250E+02  0.83747604093E+02  0.00000000000E+00 0.  1.
         21    1    1    2  506  502  0.22749316675E+02 -0.76936722915E+02 -0.19719659455E+03  0.21289266695E+03  0.00000000000E+00 0.  1.
<scales pt_clust_3="47.98017" pt_clust_4="14000.00000" pt_clust_5="78.78478" pt_clust_6="101.90249"></scales>
<clustering>
<clus scale="   47.980">  1  3  2 -1</clus>
<clus scale="   78.785">  1  5  2 -1</clus>
<clus scale="  101.902">  2  6  1 -1</clus>
<clus scale="   47.980">  1  3  2 -1</clus>
</clustering>
</event>
<event>
 6    0  0.1080632E+003  0.8557577E+02  0.7546771E-02  0.1313934E+00
         21   -1    0    0  506  501  0.00000000000E+00  0.00000000000E+00  0.18873354176E+04  0.18873354176E+04  0.00000000000E+00 0.  1.
         21   -1    0    0  505  502 -0.00000000000E+00 -0.00000000000E+00 -0.83214589066E+02  0.83214589066E+02  0.00000000000E+00 0. -1.
         21    1    1    2  503  501 -0.17234031313E+02 -0.77893089739E+02  0.14661282321E+03  0.16691214813E+03  0.00000000000E+00 0. -1.
         21    1    1    2  504  502  0.82669358504E+02 -0.97357876574E+01 -0.32536980017E+02  0.89373729168E+02  0.00000000000E+00 0. -1.
         21    1    1    2  505  503 -0.10324967070E+03  0.62767825987E+02  0.29912607825E+03  0.32260921433E+03  0.00000000000E+00 0. -1.
         21    1    1    2  506  504  0.37814343510E+02  0.24861051409E+02  0.13909189071E+04  0.13916549151E+04  0.00000000000E+00 0.  1.
<scales pt_clust_3="70.23547" pt_clust_4="85.57577" pt_clust_5="14000.00000" pt_clust_6="45.25479"></scales>
<clustering>
<clus scale="   45.255">  1  6  2 -1</clus>
<clus scale="   70.235">  1  3  2 -1</clus>
<clus scale="   85.576">  2  4  1 -1</clus>
<clus scale="   45.255">  1  3  2 -1</clus>
</clustering>
</event>
<event>
 6    0  0.1080632E+003  0.1725441E+03  0.7546771E-02  0.1175220E+00
         21   -1    0    0  506  501  0.00000000000E+00  0.00000000000E+00  0.52546018893E+03  0.52546018893E+03  0.00000000000E+00 0. -1.
         21   -1    0    0  503  502 -0.00000000000E+00 -0.00000000000E+00 -0.33353207933E+03  0.33353207933E+03  0.00000000000E+00 0. -1.
         21    1    1    2  503  505  0.37963441445E+02  0.14004904768E+02 -0.27184156812E+03  0.27483667587E+03  0.00000000000E+00 0. -1.
         21    1    1    2  504  502 -0.11921060578E+03  0.17387414480E+02  0.21544800033E+03  0.24684272637E+03  0.00000000000E+00 0.  1.
         21    1    1    2  505  501  0.12798687469E+03  0.32384494017E+01  0.62248482867E+02  0.14235870633E+03  0.00000000000E+00 0. -1.
         21    1    1    2  506  504 -0.46739710355E+02 -0.34630768650E+02  0.18607319452E+03  0.19495415969E+03  0.00000000000E+00 0. -1.
<scales pt_clust_3="40.46431" pt_clust_4="55.18273" pt_clust_5="153.76313" pt_clust_6="55.18273"></scales>
<clustering>
<clus scale="   40.464">  2  3  1 -1</clus>
<clus scale="   55.183">  4  6 -1 -1</clus>
<clus scale="  153.763">  2  5  1 -1</clus>
<clus scale="  172.544">  1  3  2 -1</clus>
</clustering>
</event>
<event>
 6    0  0.1080632E+003  0.8482156E+02  0.7546771E-02  0.1315900E+00
         21   -1    0    0  506  501  0.00000000000E+00  0.00000000000E+00  0.56834065939E+03  0.56834065939E+03  0.00000000000E+00 0. -1.
         21   -1    0    0  504  502 -0.00000000000E+00 -0.00000000000E+00 -0.51969231815E+02  0.51969231815E+02  0.00000000000E+00 0. -1.
         21    1    1    2  503  501  0.34895323201E+02 -0.46271267794E+02  0.13345016961E+03  0.14549110480E+03  0.00000000000E+00 0. -1.
         21    1    1    2  504  503  0.27841094525E+02 -0.66689210597E+02  0.51556535663E+02  0.88773046157E+02  0.00000000000E+00 0. -1.
         21    1    1    2  505  502 -0.20595697782E+02  0.10337714183E+03  0.83588879923E+02  0.13452924242E+03  0.00000000000E+00 0. -1.
         21    1    1    2  506  505 -0.42140719943E+02  0.95833365629E+01  0.24777584238E+03  0.25151649784E+03  0.00000000000E+00 0. -1.
<scales pt_clust_3="45.17973" pt_clust_4="84.82156" pt_clust_5="14000.00000" pt_clust_6="43.21667"></scales>
<clustering>
<clus scale="   43.217">  1  6  2 -1</clus>
<clus scale="   45.180">  1  3  2 -1</clus>
<clus scale="   84.822">  2  4  1 -1</clus>
<clus scale="   43.217">  1  3  2 -1</clus>
</clustering>
</event>
<event>
 6    0  0.1080632E+003  0.1315359E+03  0.7546771E-02  0.1225194E+00
         21   -1    0    0  506  501  0.00000000000E+00  0.00000000000E+00  0.37322197499E+03  0.37322197499E+03  0.00000000000E+00 0. -1.
         21   -1    0    0  505  502 -0.00000000000E+00 -0.00000000000E+00 -0.52768172879E+03  0.52768172879E+03  0.00000000000E+00 0.  1.
         21    1    1    2  503  501 -0.58446244574E+02  0.86853900468E+02  0.55785994628E+02  0.11862394669E+03  0.00000000000E+00 0. -1.
         21    1    1    2  504  503  0.13132783012E+02 -0.14963205217E+03 -0.94111108498E+02  0.17725439845E+03  0.00000000000E+00 0.  1.
         21    1    1    2  505  504  0.45889054584E+02  0.14661561830E+02 -0.35657628794E+03  0.35981580822E+03  0.00000000000E+00 0.  1.
         21    1    1    2  506  502 -0.57559302289E+00  0.48116589871E+02  0.24044164800E+03  0.24520955043E+03  0.00000000000E+00 0. -1.
<scales pt_clust_3="14000.00000" pt_clust_4="131.53589" pt_clust_5="48.35281" pt_clust_6="48.12003"></scales>
<clustering>
<clus scale="   48.120">  1  6  2 -1</clus>
<clus scale="   48.353">  2  5  1 -1</clus>
<clus scale="  131.536">  2  4  1 -1</clus>
<clus scale="   48.120">  1  3  2 -1</clus>
</clustering>
</event>
<event>
 6    0  0.1080632E+003  0.1096159E+03  0.7546771E-02  0.1261283E+00
         21   -1    0    0  506  501  0.00000000000E+00  0.00000000000E+00  0.32306424094E+03  0.32306424094E+03  0.00000000000E+00 0. -1.
         21   -1    0    0  503  502 -0.00000000000E+00 -0.00000000000E+00 -0.11939211494E+04  0.11939211494E+04  0.00000000000E+00 0.  1.
         21    1    1    2  503  501  0.45218188788E+02 -0.19581877768E+02 -0.85527778394E+02  0.98707321974E+02  0.00000000000E+00 0. -1.
         21    1    1    2  504  502  0.54122196073E+02  0.31066374572E+02 -0.34683693215E+03  0.35240628433E+03  0.00000000000E+00 0. -1.
         21    1    1    2  505  504 -0.56483280583E+02 -0.11276572636E+03 -0.73701892668E+03  0.74773215011E+03  0.00000000000E+00 0.  1.
         21    1    1    2  506  505 -0.42857104278E+02  0.10128122956E+03  0.29852672879E+03  0.31813963389E+03  0.00000000000E+00 0. -1.
<scales pt_clust_3="49.27611" pt_clust_4="72.84158" pt_clust_5="14000.00000" pt_clust_6="109.61586"></scales>
<clustering>
<clus scale="   49.276">  2  3  1 -1</clus>
<clus scale="   72.842">  2  4  1 -1</clus>
<clus scale="  109.616">  1  6  2 -1</clus>
<clus scale="  109.616">  1  3  2 -1</clus>
</clustering>
</event>
<event>
 6    0  0.1080632E+003  0.1091457E+03  0.7546771E-02  0.1262160E+00
         21   -1    0    0  504  501  0.00000000000E+00  0.00000000000E+00  0.43635529386E+03  0.43635529386E+03  0.00000000000E+00 0. -1.
         21   -1    0    0  503  502 -0.00000000000E+00 -0.00000000000E+00 -0.52495765739E+03  0.52495765739E+03  0.00000000000E+00 0.  1.
         21    1    1    2  503  505  0.73723576845E+02  0.86518598359E+02  0.22999872228E+03  0.25655417731E+03  0.00000000000E+00 0. -1.
         21    1    1    2  504  506 -0.95543804012E+01 -0.30550941750E+02  0.76791952952E+02  0.83196455843E+02  0.00000000000E+00 0.  1.
         21    1    1    2  505  501  0.34741156404E+02 -0.95118212122E+01  0.10415201565E+03  0.11020465078E+03  0.00000000000E+00 0. -1.
         21    1    1    2  506  502 -0.98910352848E+02 -0.46455835397E+02 -0.49954505441E+03  0.51135766732E+03  0.00000000000E+00 0.  1.
<scales pt_clust_3="109.14573" pt_clust_4="32.01010" pt_clust_5="36.94920" pt_clust_6="14000.00000"></scales>
<clustering>
<clus scale="   32.010">  1  4  2 -1</clus>
<clus scale="   36.949">  1  5  2 -1</clus>
<clus scale="  109.146">  1  3  2 -1</clus>
<clus scale="   32.010">  1  3  2 -1</clus>
</clustering>
</event>
<event>
 6    0  0.1080632E+003  0.8924380E+02  0.7546771E-02  0.1304693E+00
         21   -1    0    0  504  501  0.00000000000E+00  0.00000000000E+00  0.10353096767E+04  0.10353096767E+04  0.00000000000E+00 0.  1.
         21   -1    0    0  506  502 -0.00000000000E+00 -0.00000000000E+00 -0.32858536790E+02  0.32858536790E+02  0.00000000000E+00 0.  1.
         21    1    1    2  503  505 -0.51754011393E+02 -0.44943066852E+02  0.42603773611E+03  0.43151652290E+03  0.00000000000E+00 0.  1.
         21    1    1    2  504  503 -0.30925207282E+02  0.35397430996E+02  0.17386230470E+03  0.18010399097E+03  0.00000000000E+00 0.  1.
         21    1    1    2  505  502  0.13217789174E+03  0.58581535208E+02  0.29276827148E+03  0.32652113579E+03  0.00000000000E+00 0.  1.
         21    1    1    2  506  501 -0.49498673070E+02 -0.49035899352E+02  0.10978282766E+03  0.13002656386E+03  0.00000000000E+00 0.  1.
<scales pt_clust_3="14000.00000" pt_clust_4="47.00369" pt_clust_5="89.24380" pt_clust_6="69.57357"></scales>
<clustering>
<clus scale="   47.004">  1  4  2 -1</clus>
<clus scale="   69.574">  2  6  1 -1</clus>
<clus scale="   89.244">  2  5  1 -1</clus>
<clus scale="   47.004">  1  3  2 -1</clus>
</clustering>
</event>
<event>
 6    0  0.1080632E+003  0.2295015E+03  0.7546771E-02  0.1126991E+00
         21   -1    0    0  503  501  0.00000000000E+00  0.00000000000E+00  0.30081921098E+03  0.30081921098E+03  0.00000000000E+00 0. -1.
         21   -1    0    0  504  502 -0.00000000000E+00 -0.00000000000E+00 -0.13613726479E+04  0.13613726479E+04  0.00000000000E+00 0. -1.
         21    1    1    2  503  505 -0.19932176470E+03 -0.77295619485E+02  0.21531676681E+03  0.30342229441E+03  0.00000000000E+00 0. -1.
         21    1    1    2  504  506  0.10745257421E+03  0.56213134185E+02 -0.11170577729E+04  0.11236209504E+04  0.00000000000E+00 0. -1.
         21    1    1    2  505  502  0.10290152559E+03  0.56032745307E+02 -0.16019638211E+03  0.19847234910E+03  0.00000000000E+00 0. -1.
         21    1    1    2  506  501 -0.11032335106E+02 -0.34950260007E+02  0.13839512688E+01  0.36676264989E+02  0.00000000000E+00 0. -1.
<scales pt_clust_3="14000.00000" pt_clust_4="229.50146" pt_clust_5="115.38795" pt_clust_6="36.65014"></scales>
<clustering>
<clus scale="   36.650">  1  6  2 -1</clus>
<clus scale="  115.388">  2  5  1 -1</clus>
<clus scale="  229.501">  2  4  1 -1</clus>
<clus scale="   36.650">  1  3  2 -1</clus>
</clustering>
</event>
<event>
 6    0  0.1080632E+003  0.1118795E+03  0.7546771E-02  0.1257128E+00
         21   -1    0    0  503  501  0.00000000000E+00  0.00000000000E+00  0.84879332602E+03  0.84879332602E+03  0.00000000000E+00 0. -1.
         21   -1    0    0  506  502 -0.00000000000E+00 -0.00000000000E+00 -0.12885914058E+03  0.12885914058E+03  0.00000000000E+00 0. -1.
         21    1    1    2  503  502 -0.34381372152E+02 -0.34157873214E+02  0.35612851738E+03  0.35941112941E+03  0.00000000000E+00 0. -1.
         21    1    1    2  504  501  0.88977784516E+02 -0.52267173826E+02  0.19976431002E+03  0.22484368604E+03  0.00000000000E+00 0. -1.
         21    1    1    2  505  504 -0.55512020185E+02  0.12267446921E+03  0.25891265688E+03  0.29183278375E+03  0.00000000000E+00 0. -1.
         21    1    1    2  506  505  0.91560782173E+00 -0.36249422167E+02 -0.94871298836E+02  0.10156486739E+03  0.00000000000E+00 0. -1.
<scales pt_clust_3="49.81856" pt_clust_4="14000.00000" pt_clust_5="111.87946" pt_clust_6="36.26098"></scales>
<clustering>
<clus scale="   36.261">  2  6  1 -1</clus>
<clus scale="   49.819">  1  3  2 -1</clus>
<clus scale="  111.879">  2  5  1 -1</clus>
<clus scale="   49.819">  1  3  2 -1</clus>
</clustering>
</event>
<event>
 6    0  0.1080632E+003  0.1585937E+03  0.7546771E-02  0.1190294E+00
         21   -1    0    0  503  501  0.00000000000E+00  0.00000000000E+00  0.25643767112E+03  0.25643767112E+03  0.00000000000E+00 0. -1.
         21   -1    0    0  505  502 -0.00000000000E+00 -0.00000000000E+00 -0.39667006558E+03  0.39667006558E+03  0.00000000000E+00 0.  1.
         21    1    1    2  503  506  0.50851972935E+02 -0.38478079512E+02 -0.21329871266E+02  0.67241721889E+02  0.00000000000E+00 0. -1.
         21    1    1    2  504  501  0.22144458471E+01 -0.52472865258E+02  0.18885930685E+03  0.19602587366E+03  0.00000000000E+00 0. -1.
         21    1    1    2  505  504 -0.13078599353E+03  0.89276562244E+02 -0.23492986279E+03  0.28331487977E+03  0.00000000000E+00 0.  1.
         21    1    1    2  506  502  0.77719574750E+02  0.16743825266E+01 -0.72831967261E+02  0.10652526138E+03  0.00000000000E+00 0. -1.
<scales pt_clust_3="57.89848" pt_clust_4="52.51957" pt_clust_5="147.33839" pt_clust_6="57.89848"></scales>
<clustering>
<clus scale="   52.520">  1  4  2 -1</clus>
<clus scale="   57.898">  3  6 -1 -1</clus>
<clus scale="  147.338">  2  5  1 -1</clus>
<clus scale="   52.520">  1  3  2 -1</clus>
</clustering>
</event>
<event>
 6    0  0.1080632E+003  0.8767899E+02  0.7546771E-02  0.1308572E+00
         21   -1    0    0  505  501  0.00000000000E+00  0.00000000000E+00  0.46737748716E+03  0.46737748716E+03  0.00000000000E+00 0.  1.
         21   -1    0    0  506  502 -0.00000000000E+00 -0.00000000000E+00 -0.28467975159E+03  0.28467975159E+03  0.00000000000E+00 0.  1.
         21    1    1    2  503  502 -0.18389517826E+02 -0.25201180042E+02 -0.48348877288E+01  0.31569763710E+02  0.00000000000E+00 0.  1.
         21    1    1    2  504  503  0.25711889180E+02 -0.61072048590E+02 -0.12091750601E+03  0.13788379029E+03  0.00000000000E+00 0.  1.
         21    1    1    2  505  504 -0.42488713134E+02 -0.35047447144E+02  0.41421243466E+03  0.41785829574E+03  0.00000000000E+00 0.  1.
         21    1    1    2  506  501  0.35166341780E+02  0.12132067578E+03 -0.10576230535E+03  0.16474538901E+03  0.00000000000E+00 0.  1.
<scales pt_clust_3="31.19734" pt_clust_4="14000.00000" pt_clust_5="55.28503" pt_clust_6="87.67899"></scales>
<clustering>
<clus scale="   31.197">  2  3  1 -1</clus>
<clus scale="   55.285">  1  5  2 -1</clus>
<clus scale="   87.679">  1  6  2 -1</clus>
<clus scale="   55.285">  1  3  2 -1</clus>
</clustering>
</event>
<event>
 6    0  0.1080632E+003  0.1022935E+03  0.7546771E-02  0.1275546E+00
         21   -1    0    0  503  501  0.00000000000E+00  0.00000000000E+00  0.34225595815E+03  0.34225595815E+03  0.00000000000E+00 0. -1.
         21   -1    0    0  504  502 -0.00000000000E+00 -0.00000000000E+00 -0.20718142449E+03  0.20718142449E+03  0.00000000000E+00 0. -1.
         21    1    1    2  503  505  0.41123638436E+02  0.25416706912E+02  0.41986593321E+02  0.64031528540E+02  0.00000000000E+00 0. -1.
         21    1    1    2  504  506 -0.74900005477E+02 -0.76725880719E+01  0.11162434381E+03  0.13464350544E+03  0.00000000000E+00 0. -1.
         21    1    1    2  505  502  0.91041233214E+02  0.16566185397E+02 -0.16535093670E+03  0.18948318371E+03  0.00000000000E+00 0. -1.
         21    1    1    2  506  501 -0.57264866173E+02 -0.34310304238E+02  0.14681453323E+03  0.16127916493E+03  0.00000000000E+00 0. -1.
<scales pt_clust_3="48.34421" pt_clust_4="37.06492" pt_clust_5="94.41665" pt_clust_6="37.06492"></scales>
<clustering>
<clus scale="   37.065">  4  6 -1 -1</clus>
<clus scale="   48.344">  1  3  2 -1</clus>
<clus scale="   94.417">  2  5  1 -1</clus>
<clus scale="   48.344">  1  3  2 -1</clus>
</clustering>
</event>
<event>
 6    0  0.1080632E+003  0.1224158E+03  0.7546771E-02  0.1239164E+00
         21   -1    0    0  506  501  0.00000000000E+00  0.00000000000E+00  0.11660610489E+04  0.11660610489E+04  0.00000000000E+00 0.  1.
         21   -1    0    0  504  502 -0.00000000000E+00 -0.00000000000E+00 -0.14098295237E+03  0.14098295237E+03  0.00000000000E+00 0. -1.
         21    1    1    2  503  501 -0.32293647064E+02 -0.12537135757E+02  0.81233838901E+02  0.88311924428E+02  0.00000000000E+00 0.  1.
         21    1    1    2  504  503  0.10571433917E+03  0.41522190217E+01 -0.54180765969E+02  0.11886260063E+03  0.00000000000E+00 0. -1.
         21    1    1    2  505  502  0.17792608317E+02 -0.24184219774E+02 -0.44046783908E+02  0.53306402707E+02  0.00000000000E+00 0. -1.
         21    1    1    2  506  505 -0.91213300422E+02  0.32569136510E+02  0.10420718075E+04  0.10465630735E+04  0.00000000000E+00 0.  1.
<scales pt_clust_3="34.35949" pt_clust_4="122.41582" pt_clust_5="30.02421" pt_clust_6="14000.00000"></scales>
<clustering>
<clus scale="   30.024">  2  5  1 -1</clus>
<clus scale="   34.359">  1  3  2 -1</clus>
<clus scale="  122.416">  2  4  1 -1</clus>
<clus scale="   34.359">  1  3  2 -1</clus>
</clustering>
</event>
<event>
 6    0  0.1080632E+003  0.1657068E+03  0.7546771E-02  0.1182400E+00
         21   -1    0    0  506  501  0.00000000000E+00  0.00000000000E+00  0.40255485912E+03  0.40255485912E+03  0.00000000000E+00 0.  1.
         21   -1    0    0  504  502 -0.00000000000E+00 -0.00000000000E+00 -0.19466840210E+03  0.19466840210E+03  0.00000000000E+00 0.  1.
         21    1    1    2  503  505  0.56095031355E+02 -0.44430334936E+01  0.21089091004E+02  0.60092785331E+02  0.00000000000E+00 0.  1.
         21    1    1    2  504  503 -0.13507860011E+03 -0.12899127162E+03 -0.27092389177E+02  0.18872989671E+03  0.00000000000E+00 0.  1.
         21    1    1    2  505  501  0.32798117998E+02 -0.12858607488E+02  0.18988297265E+03  0.19312328610E+03  0.00000000000E+00 0.  1.
         21    1    1    2  506  502  0.46185450751E+02  0.14629291260E+03  0.24006782550E+02  0.15527729308E+03  0.00000000000E+00 0.  1.
<scales pt_clust_3="62.78508" pt_clust_4="14000.00000" pt_clust_5="35.22869" pt_clust_6="165.70684"></scales>
<clustering>
<clus scale="   35.229">  1  5  2 -1</clus>
<clus scale="   62.785">  1  3  2 -1</clus>
<clus scale="  165.707">  1  6  2 -1</clus>
<clus scale="   35.229">  1  3  2 -1</clus>
</clustering>
</event>
<event>
 6    0  0.1080632E+003  0.1256098E+03  0.7546771E-02  0.1234119E+00
         21   -1    0    0  502  501  0.00000000000E+00  0.00000000000E+00  0.40304801791E+03  0.40304801791E+03  0.00000000000E+00 0.  1.
         21   -1    0    0  506  502 -0.00000000000E+00 -0.00000000000E+00 -0.70923812316E+03  0.70923812316E+03  0.00000000000E+00 0.  1.
         21    1    1    2  503  501  0.51584532153E+02  0.98433351678E+02  0.37005947426E+03  0.38638595105E+03  0.00000000000E+00 0.  1.
         21    1    1    2  504  505  0.13123392235E+02 -0.95946496240E+02 -0.16197193860E+03  0.18871370501E+03  0.00000000000E+00 0. -1.
         21    1    1    2  505  503 -0.25302446554E+02 -0.36438942866E+02 -0.38990409510E+02  0.59061513633E+02  0.00000000000E+00 0.  1.
         21    1    1    2  506  504 -0.39405477833E+02  0.33952087429E+02 -0.47528723139E+03  0.47812497137E+03  0.00000000000E+00 0.  1.
<scales pt_clust_3="111.55874" pt_clust_4="39.07170" pt_clust_5="39.07170" pt_clust_6="52.01477"></scales>
<clustering>
<clus scale="   39.072">  4  5 -1 -1</clus>
<clus scale="   52.015">  2  6  1 -1</clus>
<clus scale="  111.559">  1  3  2 -1</clus>
<clus scale="  111.559">  1  3  2 -1</clus>
</clustering>
</event>
<event>
 6    0  0.1080632E+003  0.8032903E+02  0.7546771E-02  0.1328120E+00
         21   -1    0    0  504  501  0.00000000000E+00  0.00000000000E+00  0.12325955318E+03  0.12325955318E+03  0.00000000000E+00 0.  1.
         21   -1    0    0  506  502 -0.00000000000E+00 -0.00000000000E+00 -0.11867791108E+04  0.11867791108E+04  0.00000000000E+00 0. -1.
         21    1    1    2  503  501 -0.86206012860E+02  0.70936147076E+02 -0.64682373503E+01  0.11182688277E+03  0.00000000000E+00 0.  1.
         21    1    1    2  504  505  0.36122665031E+02 -0.83554261966E+01  0.17622313736E+02  0.41051260849E+02  0.00000000000E+00 0.  1.
         21    1    1    2  505  502  0.99891815177E+00 -0.69436934130E+02  0.11040081165E+02  0.70316207598E+02  0.00000000000E+00 0.  1.
         21    1    1    2  506  503  0.49084429677E+02  0.68562132507E+01 -0.10857137151E+04  0.10868443127E+04  0.00000000000E+00 0. -1.
<scales pt_clust_3="80.32903" pt_clust_4="37.07641" pt_clust_5="14000.00000" pt_clust_6="49.76939"></scales>
<clustering>
<clus scale="   37.076">  1  4  2 -1</clus>
<clus scale="   49.769">  2  6  1 -1</clus>
<clus scale="   80.329">  2  3  1 -1</clus>
<clus scale="   37.076">  1  3  2 -1</clus>
</clustering>
</event>
<event>
 6    0  0.1080632E+003  0.6892165E+02  0.7546771E-02  0.1363799E+00
         21   -1    0    0  503  501  0.00000000000E+00  0.00000000000E+00  0.74929245131E+03  0.74929245131E+03  0.00000000000E+00 0. -1.
         21   -1    0    0  505  502 -0.00000000000E+00 -0.00000000000E+00 -0.13156695845E+04  0.13156695845E+04  0.00000000000E+00 0. -1.
         21    1    1    2  503  502 -0.73937305462E+02 -0.17085540891E+02 -0.24229622886E+03  0.25390175928E+03  0.00000000000E+00 0. -1.
         21    1    1    2  504  501  0.64964108507E+02  0.22045288579E+02  0.73555591179E+03  0.73874815026E+03  0.00000000000E+00 0. -1.
         21    1    1    2  505  506 -0.35128438198E+02 -0.59166902809E+02 -0.81472950016E+03  0.81763004348E+03  0.00000000000E+00 0. -1.
         21    1    1    2  506  504  0.44101635154E+02  0.54207155121E+02 -0.24490731597E+03  0.25468208281E+03  0.00000000000E+00 0.  1.
<scales pt_clust_3="43.38345" pt_clust_4="68.60270" pt_clust_5="14000.00000" pt_clust_6="68.92165"></scales>
<clustering>
<clus scale="   68.603">  1  4  2 -1</clus>
<clus scale="   43.383">  1  3  2 -1</clus>
<clus scale="   68.922">  1  6  2 -1</clus>
<clus scale="   68.603">  1  3  2 -1</clus>
</clustering>
</event>
<event>
 6    0  0.1080632E+003  0.1866056E+03  0.7546771E-02  0.1161559E+00
         21   -1    0    0  506  501  0.00000000000E+00  0.00000000000E+00  0.27664644348E+03  0.27664644348E+03  0.00000000000E+00 0. -1.
         21   -1    0    0  503  502 -0.00000000000E+00 -0.00000000000E+00 -0.47473421727E+03  0.47473421727E+03  0.00000000000E+00 0. -1.
         21    1    1    2  503  504  0.16808972283E+02  0.71747529587E+02 -0.69905364870E+02  0.10157268131E+03  0.00000000000E+00 0.  1.
         21    1    1    2  504  501  0.58309800032E+02  0.12743195553E+03 -0.20060874483E+02  0.14156756251E+03  0.00000000000E+00 0. -1.
         21    1    1    2  505  502 -0.74602533787E+02 -0.14088442204E+03 -0.28249918709E+03  0.32437593796E+03  0.00000000000E+00 0. -1.
         21    1    1    2  506  505 -0.51623852830E+00 -0.58295063076E+02  0.17437765265E+03  0.18386447897E+03  0.00000000000E+00 0. -1.
<scales pt_clust_3="54.78552" pt_clust_4="54.78552" pt_clust_5="170.62738" pt_clust_6="58.29735"></scales>
<clustering>
<clus scale="   54.786">  3  4 -1 -1</clus>
<clus scale="   58.297">  1  6  2 -1</clus>
<clus scale="  170.627">  2  5  1 -1</clus>
<clus scale="   58.297">  1  3  2 -1</clus>
</clustering>
</event>
<event>
 6    0  0.1080632E+003  0.1034885E+03  0.7546771E-02  0.1273127E+00
         21   -1    0    0  505  501  0.00000000000E+00  0.00000000000E+00  0.59671979260E+03  0.59671979260E+03  0.00000000000E+00 0.  1.
         21   -1    0    0  506  502 -0.00000000000E+00 -0.00000000000E+00 -0.26832542785E+03  0.26832542785E+03  0.00000000000E+00 0.  1.
         21    1    1    2  503  502  0.42237784116E+02 -0.76149591842E+02 -0.12337971896E+03  0.15101438937E+03  0.00000000000E+00 0.  1.
         21    1    1    2  504  501 -0.83675105945E+02  0.91652138483E+02 -0.65762166421E+02  0.14045034844E+03  0.00000000000E+00 0.  1.
         21    1    1    2  505  503  0.61950493471E+02  0.15197531244E+02  0.53059580039E+03  0.53441625348E+03  0.00000000000E+00 0.  1.
         21    1    1    2  506  504 -0.20513171643E+02 -0.30700077885E+02 -0.13059550250E+02  0.39164229160E+02  0.00000000000E+00 0. -1.
<scales pt_clust_3="14000.00000" pt_clust_4="103.48853" pt_clust_5="63.57287" pt_clust_6="36.92269"></scales>
<clustering>
<clus scale="   36.923">  2  6  1 -1</clus>
<clus scale="   63.573">  1  5  2 -1</clus>
<clus scale="  103.489">  1  4  2 -1</clus>
<clus scale="   63.573">  1  3  2 -1</clus>
</clustering>
</event>
<event>
 6    0  0.1080632E+003  0.1180672E+03  0.7546771E-02  0.1246320E+00
         21   -1    0    0  503  501  0.00000000000E+00  0.00000000000E+00  0.14126109006E+04  0.14126109006E+04  0.00000000000E+00 0.  1.
         21   -1    0    0  506  502 -0.00000000000E+00 -0.00000000000E+00 -0.37595616124E+02  0.37595616124E+02  0.00000000000E+00 0.  1.
         21    1    1    2  503  505  0.34055215064E+02  0.11700627811E+02  0.19879480587E+03  0.20202979287E+03  0.00000000000E+00 0. -1.
         21    1    1    2  504  501 -0.85609252797E+02  0.58467899998E+02  0.42602412814E+03  0.43845638010E+03  0.00000000000E+00 0.  1.
         21    1    1    2  505  502  0.52311988554E+02 -0.14126975454E+03  0.71440500824E+03  0.73011519878E+03  0.00000000000E+00 0.  1.
         21    1    1    2  506  504 -0.75795082171E+00  0.71101226727E+02  0.35791342262E+02  0.79605145012E+02  0.00000000000E+00 0.  1.
<scales pt_clust_3="36.00920" pt_clust_4="118.06716" pt_clust_5="14000.00000" pt_clust_6="71.66335"></scales>
<clustering>
<clus scale="   36.009">  1  3  2 -1</clus>
<clus scale="   71.663">  2  6  1 -1</clus>
<clus scale="  118.067">  1  4  2 -1</clus>
<clus scale="   36.009">  1  3  2 -1</clus>
</clustering>
</event>
<event>
 6    0  0.1080632E+003  0.2213957E+03  0.7546771E-02  0.1132847E+00
         21   -1    0    0  505  501  0.00000000000E+00  0.00000000000E+00  0.54238837349E+02  0.54238837349E+02  0.00000000000E+00 0. -1.
         21   -1    0    0  503  502 -0.00000000000E+00 -0.00000000000E+00 -0.16254403995E+04  0.16254403995E+04  0.00000000000E+00 0. -1.
         21    1    1    2  503  504 -0.10649467718E+03 -0.31886900551E+00 -0.66690439116E+03  0.67535374797E+03  0.00000000000E+00 0. -1.
         21    1    1    2  504  501 -0.10513083664E+03  0.15075595158E+02 -0.46551582751E+03  0.47747748852E+03  0.00000000000E+00 0. -1.
         21    1    1    2  505  506 -0.28546226149E+02 -0.37310450966E+02 -0.10491382385E+03  0.11495158639E+03  0.00000000000E+00 0. -1.
         21    1    1    2  506  502  0.24017173997E+03  0.22553724813E+02 -0.33386751965E+03  0.41189641399E+03  0.00000000000E+00 0. -1.
<scales pt_clust_3="40.45660" pt_clust_4="40.45660" pt_clust_5="46.97826" pt_clust_6="217.65768"></scales>
<clustering>
<clus scale="   40.457">  3  4 -1 -1</clus>
<clus scale="   46.978">  1  5  2 -1</clus>
<clus scale="  217.658">  1  6  2 -1</clus>
<clus scale="   46.978">  1  3  2 -1</clus>
</clustering>
</event>
<event>
 6    0  0.1080632E+003  0.1013422E+03  0.7546771E-02  0.1277499E+00
         21   -1    0    0  505  501  0.00000000000E+00  0.00000000000E+00  0.31800229268E+03  0.31800229268E+03  0.00000000000E+00 0.  1.
         21   -1    0    0  503  502 -0.00000000000E+00 -0.00000000000E+00 -0.26954275268E+03  0.26954275268E+03  0.00000000000E+00 0. -1.
         21    1    1    2  503  501 -0.15693072231E+02 -0.75358120577E+02  0.79334482409E+02  0.11053994279E+03  0.00000000000E+00 0.  1.
         21    1    1    2  504  502  0.59130697445E+02 -0.30397017427E+02 -0.23194799303E+03  0.24128880936E+03  0.00000000000E+00 0. -1.
         21    1    1    2  505  506 -0.12259659199E+02  0.82478567858E+02  0.14853166056E+03  0.17033692374E+03  0.00000000000E+00 0.  1.
         21    1    1    2  506  504 -0.31177966015E+02  0.23276570146E+02  0.52541390061E+02  0.65379369469E+02  0.00000000000E+00 0. -1.
<scales pt_clust_3="90.60586" pt_clust_4="66.48622" pt_clust_5="31.00979" pt_clust_6="31.00979"></scales>
<clustering>
<clus scale="   31.010">  5  6 -1 -1</clus>
<clus scale="   66.486">  2  4  1 -1</clus>
<clus scale="   90.606">  2  3  1 -1</clus>
<clus scale="  101.342">  1  3  2 -1</clus>
</clustering>
</event>
<event>
 6    0  0.1080632E+003  0.8191538E+02  0.7546771E-02  0.1323702E+00
         21   -1    0    0  503  501  0.00000000000E+00  0.00000000000E+00  0.28955015973E+04  0.28955015973E+04  0.00000000000E+00 0.  1.
         21   -1    0    0  504  502 -0.00000000000E+00 -0.00000000000E+00 -0.17816787051E+02  0.17816787051E+02  0.00000000000E+00 0.  1.
         21    1    1    2  503  506 -0.14062149415E+01 -0.74867700455E+02  0.42790698397E+03  0.43440941166E+03  0.00000000000E+00 0.  1.
         21    1    1    2  504  505 -0.46387020756E+02  0.98320996461E+02  0.26257206245E+03  0.28418807508E+03  0.00000000000E+00 0.  1.
         21    1    1    2  505  501  0.40150164546E+02  0.78718537559E+01  0.21177537757E+04  0.21181489694E+04  0.00000000000E+00 0.  1.
         21    1    1    2  506  502  0.76430711520E+01 -0.31325149761E+02  0.69451988128E+02  0.76571928271E+02  0.00000000000E+00 0.  1.
<scales pt_clust_3="81.91538" pt_clust_4="14000.00000" pt_clust_5="40.93742" pt_clust_6="32.24409"></scales>
<clustering>
<clus scale="   32.244">  2  6  1 -1</clus>
<clus scale="   40.937">  1  5  2 -1</clus>
<clus scale="   81.915">  1  3  2 -1</clus>
<clus scale="   40.937">  1  3  2 -1</clus>
</clustering>
</event>
<event>
 6    0  0.1080632E+003  0.1060976E+03  0.7546771E-02  0.1267972E+00
         21   -1    0    0  503  501  0.00000000000E+00  0.00000000000E+00  0.92183303528E+03  0.92183303528E+03  0.00000000000E+00 0.  1.
         21   -1    0    0  505  502 -0.00000000000E+00 -0.00000000000E+00 -0.33105274373E+03  0.33105274373E+03  0.00000000000E+00 0.  1.
         21    1    1    2  503  504  0.61215673382E+01  0.31500664531E+02  0.43455804265E+02  0.54020110856E+02  0.00000000000E+00 0.  1.
         21    1    1    2  504  502  0.10642133534E+02 -0.89231548445E+02  0.30329794672E+03  0.31633079004E+03  0.00000000000E+00 0.  1.
         21    1    1    2  505  506  0.34667563618E+01 -0.66610452430E+02 -0.30860276923E+03  0.31572874426E+03  0.00000000000E+00 0.  1.
         21    1    1    2  506  501 -0.20230457234E+02  0.12434133634E+03  0.55262930980E+03  0.56680613385E+03  0.00000000000E+00 0.  1.
<scales pt_clust_3="32.08996" pt_clust_4="14000.00000" pt_clust_5="66.57354" pt_clust_6="106.09762"></scales>
<clustering>
<clus scale="   32.090">  1  3  2 -1</clus>
<clus scale="   66.574">  2  5  1 -1</clus>
<clus scale="  106.098">  2  6  1 -1</clus>
<clus scale="   32.090">  1  3  2 -1</clus>
</clustering>
</event>
<event>
 6    0  0.1080632E+003  0.1667386E+03  0.7546771E-02  0.1181292E+00
         21   -1    0    0  503  501  0.00000000000E+00  0.00000000000E+00  0.67915614825E+03  0.67915614825E+03  0.00000000000E+00 0.  1.
         21   -1    0    0  504  502 -0.00000000000E+00 -0.00000000000E+00 -0.14109609541E+03  0.14109609541E+03  0.00000000000E+00 0. -1.
         21    1    1    2  503  506  0.96396124058E+01  0.55486307332E+02  0.78368747756E+02  0.96505507892E+02  0.00000000000E+00 0. -1.
         21    1    1    2  504  505  0.42140840560E+02  0.28308810430E+02 -0.92648594739E+02  0.10564564022E+03  0.00000000000E+00 0. -1.
         21    1    1    2  505  501 -0.12092503407E+03 -0.12408313711E+03  0.47967417114E+03  0.51000666588E+03  0.00000000000E+00 0.  1.
         21    1    1    2  506  502  0.69144581103E+02  0.40288019353E+02  0.72665728686E+02  0.10809442967E+03  0.00000000000E+00 0.  1.
<scales pt_clust_3="48.27081" pt_clust_4="50.76652" pt_clust_5="155.34382" pt_clust_6="48.27081"></scales>
<clustering>
<clus scale="   50.767">  2  4  1 -1</clus>
<clus scale="   48.271">  3  6 -1 -1</clus>
<clus scale="  155.344">  1  5  2 -1</clus>
<clus scale="  155.344">  1  3  2 -1</clus>
</clustering>
</event>
<event>
 6    0  0.1080632E+003  0.1177431E+03  0.7546771E-02  0.1246867E+00
         21   -1    0    0  504  501  0.00000000000E+00  0.00000000000E+00  0.16007361542E+03  0.16007361542E+03  0.00000000000E+00 0.  1.
         21   -1    0    0  506  502 -0.00000000000E+00 -0.00000000000E+00 -0.69756610624E+03  0.69756610624E+03  0.00000000000E+00 0. -1.
         21    1    1    2  503  501 -0.36413307705E+02  0.67473136453E+01 -0.10968502405E+02  0.38623351285E+02  0.00000000000E+00 0. -1.
         21    1    1    2  504  505  0.39897373157E+02 -0.92402412261E+01  0.45799249345E+02  0.61439024108E+02  0.00000000000E+00 0.  1.
         21    1    1    2  505  502  0.92853709131E+02  0.44568152367E+02  0.58232842390E+02  0.11831819572E+03  0.00000000000E+00 0.  1.
         21    1    1    2  506  503 -0.96337774583E+02 -0.42075224786E+02 -0.63055608015E+03  0.63925915055E+03  0.00000000000E+00 0. -1.
<scales pt_clust_3="37.03316" pt_clust_4="32.27074" pt_clust_5="32.27074" pt_clust_6="106.03947"></scales>
<clustering>
<clus scale="   32.271">  4  5 -1 -1</clus>
<clus scale="   37.033">  1  3  2 -1</clus>
<clus scale="  106.039">  2  6  1 -1</clus>
<clus scale="   37.033">  1  3  2 -1</clus>
</clustering>
</event>
<event>
 6    0  0.1080632E+003  0.1965437E+03  0.7546771E-02  0.1152688E+00
         21   -1    0    0  502  501  0.00000000000E+00  0.00000000000E+00  0.19103519232E+04  0.19103519232E+04  0.00000000000E+00 0. -1.
         21   -1    0    0  503  502 -0.00000000000E+00 -0.00000000000E+00 -0.11412362659E+03  0.11412362659E+03  0.00000000000E+00 0. -1.
         21    1    1    2  503  505  0.43789326369E+02 -0.45119688555E+02 -0.79396629652E+01  0.63374518910E+02  0.00000000000E+00 0. -1.
         21    1    1    2  504  501 -0.43021368483E+02  0.16000744094E+02  0.12552419529E+04  0.12560808979E+04  0.00000000000E+00 0. -1.
         21    1    1    2  505  506  0.13307918155E+03 -0.43110864374E+02  0.47274948945E+01  0.13996772627E+03  0.00000000000E+00 0. -1.
         21    1    1    2  506  504 -0.13384713944E+03  0.72229808834E+02  0.54419851184E+03  0.56505240670E+03  0.00000000000E+00 0.  1.
<scales pt_clust_3="31.94662" pt_clust_4="45.90057" pt_clust_5="31.94662" pt_clust_6="190.67972"></scales>
<clustering>
<clus scale="   31.947">  3  5 -1 -1</clus>
<clus scale="   45.901">  1  4  2 -1</clus>
<clus scale="  190.680">  1  6  2 -1</clus>
<clus scale="   45.901">  1  3  2 -1</clus>
</clustering>
</event>
<event>
 6    0  0.1080632E+003  0.1703442E+03  0.7546771E-02  0.1177489E+00
         21   -1    0    0  504  501  0.00000000000E+00  0.00000000000E+00  0.18023965140E+03  0.18023965140E+03  0.00000000000E+00 0.  1.
         21   -1    0    0  506  502 -0.00000000000E+00 -0.00000000000E+00 -0.15115208354E+04  0.15115208354E+04  0.00000000000E+00 0.  1.
         21    1    1    2  503  502  0.11076256869E+03 -0.11211298338E+03 -0.13791795622E+04  0.13881548662E+04  0.00000000000E+00 0.  1.
         21    1    1    2  504  503  0.62916184925E+02  0.41735330197E+02 -0.41836490498E+02  0.86316719408E+02  0.00000000000E+00 0.  1.
         21    1    1    2  505  501 -0.13021125204E+03  0.79555009963E+02  0.77841072470E+02  0.17129857656E+03  0.00000000000E+00 0.  1.
         21    1    1    2  506  505 -0.43467501573E+02 -0.91773567753E+01  0.11893796262E+02  0.45990324633E+02  0.00000000000E+00 0.  1.
<scales pt_clust_3="158.02637" pt_clust_4="75.50023" pt_clust_5="34.31638" pt_clust_6="34.31638"></scales>
<clustering>
<clus scale="   34.316">  5  6 -1 -1</clus>
<clus scale="   75.500">  1  4  2 -1</clus>
<clus scale="  158.026">  2  3  1 -1</clus>
<clus scale="   75.500">  1  3  2 -1</clus>
</clustering>
</event>
<event>
 6    0  0.1080632E+003  0.1548338E+03  0.7546771E-02  0.1194656E+00
         21   -1    0    0  505  501  0.00000000000E+00  0.00000000000E+00  0.29966449893E+03  0.29966449893E+03  0.00000000000E+00 0.  1.
         21   -1    0    0  504  502 -0.00000000000E+00 -0.00000000000E+00 -0.25580766837E+03  0.25580766837E+03  0.00000000000E+00 0.  1.
         21    1    1    2  503  501  0.84933763447E+02  0.30278660104E+02  0.12447599945E+03  0.15370366251E+03  0.00000000000E+00 0.  1.
         21    1    1    2  504  503  0.44277491362E+02  0.50165874296E+02  0.58446977373E+02  0.88843459799E+02  0.00000000000E+00 0.  1.
         21    1    1    2  505  506 -0.82386811012E+02 -0.12050058453E+03  0.15244233245E+02  0.14676635905E+03  0.00000000000E+00 0.  1.
         21    1    1    2  506  502 -0.46824443797E+02  0.40056050133E+02 -0.15431037950E+03  0.16615868593E+03  0.00000000000E+00 0.  1.
<scales pt_clust_3="40.41765" pt_clust_4="40.41765" pt_clust_5="147.55364" pt_clust_6="61.61993"></scales>
<clustering>
<clus scale="   40.418">  3  4 -1 -1</clus>
<clus scale="   61.620">  2  6  1 -1</clus>
<clus scale="  147.554">  2  5  1 -1</clus>
<clus scale="  154.834">  1  3  2 -1</clus>
</clustering>
</event>
<event>
 6    0  0.1080632E+003  0.1163133E+03  0.7546771E-02  0.1249306E+00
         21   -1    0    0  504  501  0.00000000000E+00  0.00000000000E+00  0.41971562399E+02  0.41971562399E+02  0.00000000000E+00 0.  1.
         21   -1    0    0  506  502 -0.00000000000E+00 -0.00000000000E+00 -0.84870730867E+03  0.84870730867E+03  0.00000000000E+00 0.  1.
         21    1    1    2  503  501  0.11231521163E+03  0.76199051865E+02 -0.19661364367E+03  0.23890987243E+03  0.00000000000E+00 0.  1.
         21    1    1    2  504  505 -0.34077878871E+02 -0.20515892517E+02 -0.39626776857E+02  0.56146995629E+02  0.00000000000E+00 0. -1.
         21    1    1    2  505  502 -0.52770770786E+01  0.45675355408E+02 -0.16984351131E+03  0.17595710832E+03  0.00000000000E+00 0.  1.
         21    1    1    2  506  503 -0.72960255683E+02 -0.10135851476E+03 -0.40065181443E+03  0.41966489468E+03  0.00000000000E+00 0.  1.
<scales pt_clust_3="14000.00000" pt_clust_4="39.77692" pt_clust_5="44.60682" pt_clust_6="116.31327"></scales>
<clustering>
<clus scale="   39.777">  1  4  2 -1</clus>
<clus scale="   44.607">  2  5  1 -1</clus>
<clus scale="  116.313">  2  6  1 -1</clus>
<clus scale="   39.777">  1  3  2 -1</clus>
</clustering>
</event>
<event>
 6    0  0.1080632E+003  0.1404821E+03  0.7546771E-02  0.1212682E+00
         21   -1    0    0  504  501  0.00000000000E+00  0.00000000000E+00  0.45001521808E+02  0.45001521808E+02  0.00000000000E+00 0.  1.
         21   -1    0    0  506  502 -0.00000000000E+00 -0.00000000000E+00 -0.75610001618E+03  0.75610001618E+03  0.00000000000E+00 0.  1.
         21    1    1    2  503  502 -0.32348232643E+02 -0.14154903304E+02 -0.12409848380E+03  0.12902404088E+03  0.00000000000E+00 0.  1.
         21    1    1    2  504  503  0.37810139017E+02  0.15796798455E+03 -0.25851085218E+03  0.30530534134E+03  0.00000000000E+00 0.  1.
         21    1    1    2  505  501 -0.26158375023E+02 -0.12051034110E+03 -0.20343220426E+03  0.23789002632E+03  0.00000000000E+00 0.  1.
         21    1    1    2  506  505  0.20696468650E+02 -0.23302740155E+02 -0.12505695413E+03  0.12888212944E+03  0.00000000000E+00 0.  1.
<scales pt_clust_3="33.90320" pt_clust_4="140.48211" pt_clust_5="14000.00000" pt_clust_6="31.16667"></scales>
<clustering>
<clus scale="   31.167">  2  6  1 -1</clus>
<clus scale="   33.903">  2  3  1 -1</clus>
<clus scale="  140.482">  2  4  1 -1</clus>
<clus scale="  140.482">  1  3  2 -1</clus>
</clustering>
</event>
<event>
 6    0  0.1080632E+003  0.1633078E+03  0.7546771E-02  0.1185012E+00
         21   -1    0    0  505  501  0.00000000000E+00  0.00000000000E+00  0.85431066465E+03  0.85431066465E+03  0.00000000000E+00 0. -1.
         21   -1    0    0  501  502 -0.00000000000E+00 -0.00000000000E+00 -0.13379706808E+04  0.13379706808E+04  0.00000000000E+00 0. -1.
         21    1    1    2  503  506  0.23482256590E+02  0.75456484808E+02 -0.23807493522E+03  0.25084810594E+03  0.00000000000E+00 0. -1.
         21    1    1    2  504  502  0.30731407585E+02  0.20584205285E+02 -0.94971151148E+03  0.95043152513E+03  0.00000000000E+00 0. -1.
         21    1    1    2  505  503 -0.10427818282E+03 -0.11018219950E+03  0.83578300130E+03  0.84943939264E+03  0.00000000000E+00 0. -1.
         21    1    1    2  506  504  0.50064518650E+02  0.14141509408E+02 -0.13165657070E+03  0.14156232170E+03  0.00000000000E+00 0.  1.
<scales pt_clust_3="50.26888" pt_clust_4="36.98823" pt_clust_5="151.06889" pt_clust_6="50.26888"></scales>
<clustering>
<clus scale="   36.988">  2  4  1 -1</clus>
<clus scale="   50.269">  3  6 -1 -1</clus>
<clus scale="  151.069">  1  5  2 -1</clus>
<clus scale="  151.069">  1  3  2 -1</clus>
</clustering>
</event>
<event>
 6    0  0.1080632E+003  0.8526337E+02  0.7546771E-02  0.1314745E+00
         21   -1    0    0  503  501  0.00000000000E+00  0.00000000000E+00  0.27758755567E+03  0.27758755567E+03  0.00000000000E+00 0.  1.
         21   -1    0    0  506  502 -0.00000000000E+00 -0.00000000000E+00 -0.45804480035E+03  0.45804480035E+03  0.00000000000E+00 0.  1.
         21    1    1    2  503  505 -0.22972324400E+02 -0.77948759879E+02  0.18751595726E+03  0.20436724562E+03  0.00000000000E+00 0.  1.
         21    1    1    2  504  501 -0.34048266732E+02  0.14922397789E+03 -0.51812030660E+02  0.16159073787E+03  0.00000000000E+00 0.  1.
         21    1    1    2  505  502  0.30141918655E+02 -0.44280141943E+02 -0.24107528432E+01  0.53619753449E+02  0.00000000000E+00 0.  1.
         21    1    1    2  506  504  0.26878672477E+02 -0.26995076066E+02 -0.31375041844E+03  0.31605461908E+03  0.00000000000E+00 0.  1.
<scales pt_clust_3="85.26337" pt_clust_4="14000.00000" pt_clust_5="60.90878" pt_clust_6="38.09458"></scales>
<clustering>
<clus scale="   38.095">  2  6  1 -1</clus>
<clus scale="   60.909">  2  5  1 -1</clus>
<clus scale="   85.263">  1  3  2 -1</clus>
<clus scale="   85.263">  1  3  2 -1</clus>
</clustering>
</event>
<event>
 6    0  0.1080632E+003  0.1382425E+03  0.7546771E-02  0.1215714E+00
         21   -1    0    0  506  501  0.00000000000E+00  0.00000000000E+00  0.25938616765E+03  0.25938616765E+03  0.00000000000E+00 0. -1.
         21   -1    0    0  505  502 -0.00000000000E+00 -0.00000000000E+00 -0.13626348518E+03  0.13626348518E+03  0.00000000000E+00 0. -1.
         21    1    1    2  503  501  0.55704787428E+02 -0.12668076275E+03  0.41768294991E+02  0.14455320633E+03  0.00000000000E+00 0. -1.
         21    1    1    2  504  502 -0.40291004708E+02  0.13240345276E+03  0.66848846274E+02  0.15369712948E+03  0.00000000000E+00 0. -1.
         21    1    1    2  505  503  0.29998505778E+02  0.10040726046E+02 -0.20709533636E+02  0.37810201162E+02  0.00000000000E+00 0. -1.
         21    1    1    2  506  504 -0.45412288497E+02 -0.15763416053E+02  0.35215074834E+02  0.59589115850E+02  0.00000000000E+00 0. -1.
<scales pt_clust_3="14000.00000" pt_clust_4="138.24253" pt_clust_5="31.63426" pt_clust_6="44.46768"></scales>
<clustering>
<clus scale="   31.634">  2  5  1 -1</clus>
<clus scale="   44.468">  1  6  2 -1</clus>
<clus scale="  138.243">  1  4  2 -1</clus>
<clus scale="   44.468">  1  3  2 -1</clus>
</clustering>
</event>
<event>
 6    0  0.1080632E+003  0.7660636E+02  0.7546771E-02  0.1338968E+00
         21   -1    0    0  506  501  0.00000000000E+00  0.00000000000E+00  0.12675418240E+03  0.12675418240E+03  0.00000000000E+00 0. -1.
         21   -1    0    0  505  502 -0.00000000000E+00 -0.00000000000E+00 -0.97258363300E+03  0.97258363300E+03  0.00000000000E+00 0. -1.
         21    1    1    2  503  502  0.85925307576E+02  0.58632211176E+01 -0.28343481544E+03  0.29623104234E+03  0.00000000000E+00 0. -1.
         21    1    1    2  504  503 -0.39550877094E+02  0.37852832673E+02 -0.44855131642E+02  0.70774936630E+02  0.00000000000E+00 0. -1.
         21    1    1    2  505  501 -0.40058030680E+02 -0.75933601637E+02 -0.61939469455E+03  0.62531619627E+03  0.00000000000E+00 0. -1.
         21    1    1    2  506  504 -0.63163998017E+01  0.32217547846E+02  0.10185519104E+03  0.10701564015E+03  0.00000000000E+00 0. -1.
<scales pt_clust_3="76.60636" pt_clust_4="71.18260" pt_clust_5="14000.00000" pt_clust_6="32.83089"></scales>
<clustering>
<clus scale="   32.831">  1  6  2 -1</clus>
<clus scale="   71.183">  1  4  2 -1</clus>
<clus scale="   76.606">  1  3  2 -1</clus>
<clus scale="   32.831">  1  3  2 -1</clus>
</clustering>
</event>
<event>
 6    0  0.1080632E+003  0.1624386E+03  0.7546771E-02  0.1185971E+00
         21   -1    0    0  503  501  0.00000000000E+00  0.00000000000E+00  0.20269275528E+03  0.20269275528E+03  0.00000000000E+00 0.  1.
         21   -1    0    0  505  502 -0.00000000000E+00 -0.00000000000E+00 -0.29433847257E+03  0.29433847257E+03  0.00000000000E+00 0.  1.
         21    1    1    2  503  506  0.42115183532E+02 -0.14091990709E+01  0.10976964165E+03  0.11757996749E+03  0.00000000000E+00 0.  1.
         21    1    1    2  504  501 -0.56742549961E+02 -0.15622450805E+02 -0.49446170412E+02  0.76868079940E+02  0.00000000000E+00 0.  1.
         21    1    1    2  505  504 -0.11520801158E+03  0.39723313534E+02 -0.11025017297E+03  0.16433480523E+03  0.00000000000E+00 0.  1.
         21    1    1    2  506  502  0.12983537801E+03 -0.22691663657E+02 -0.41719015553E+02  0.13824837519E+03  0.00000000000E+00 0.  1.
<scales pt_clust_3="42.13875" pt_clust_4="34.94168" pt_clust_5="34.94168" pt_clust_6="154.46115"></scales>
<clustering>
<clus scale="   34.942">  4  5 -1 -1</clus>
<clus scale="   42.139">  1  3  2 -1</clus>
<clus scale="  154.461">  1  6  2 -1</clus>
<clus scale="   42.139">  1  3  2 -1</clus>
</clustering>
</event>
<event>
 6    0  0.1080632E+003  0.1198903E+03  0.7546771E-02  0.1243278E+00
         21   -1    0    0  503  501  0.00000000000E+00  0.00000000000E+00  0.13922973315E+04  0.13922973315E+04  0.00000000000E+00 0. -1.
         21   -1    0    0  505  502 -0.00000000000E+00 -0.00000000000E+00 -0.25529682544E+03  0.25529682544E+03  0.00000000000E+00 0. -1.
         21    1    1    2  503  506  0.52337017158E+02  0.71178130307E+02  0.97784381371E+03  0.98182687558E+03  0.00000000000E+00 0. -1.
         21    1    1    2  504  501 -0.66649036728E+02  0.56083793379E+02  0.35279668225E+03  0.36339095336E+03  0.00000000000E+00 0. -1.
         21    1    1    2  505  504 -0.34263290372E+02 -0.99665967477E+02 -0.48597283192E+01  0.10550305730E+03  0.00000000000E+00 0. -1.
         21    1    1    2  506  502  0.48575309943E+02 -0.27595956208E+02 -0.18878026161E+03  0.19687327068E+03  0.00000000000E+00 0. -1.
<scales pt_clust_3="119.89034" pt_clust_4="82.45247" pt_clust_5="14000.00000" pt_clust_6="55.86678"></scales>
<clustering>
<clus scale="   55.867">  2  6  1 -1</clus>
<clus scale="   82.452">  1  4  2 -1</clus>
<clus scale="  119.890">  1  3  2 -1</clus>
<clus scale="   82.452">  1  3  2 -1</clus>
</clustering>
</event>
<event>
 6    0  0.1080632E+003  0.8795118E+02  0.7546771E-02  0.1307890E+00
         21   -1    0    0  504  501  0.00000000000E+00  0.00000000000E+00  0.40048027777E+03  0.40048027777E+03  0.00000000000E+00 0. -1.
         21   -1    0    0  503  502 -0.00000000000E+00 -0.00000000000E+00 -0.14910699317E+03  0.14910699317E+03  0.00000000000E+00 0. -1.
         21    1    1    2  503  501 -0.12777251316E+02 -0.67709341296E+02  0.15860442643E+01  0.68922627535E+02  0.00000000000E+00 0. -1.
         21    1    1    2  504  506  0.13796384564E+02 -0.30540004654E+02  0.31072080767E+03  0.31252272306E+03  0.00000000000E+00 0. -1.
         21    1    1    2  505  502  0.35696466969E+02 -0.14149833637E+02 -0.12789022921E+02  0.40472393718E+02  0.00000000000E+00 0. -1.
         21    1    1    2  506  505 -0.36715600216E+02  0.11239917959E+03 -0.48144544409E+02  0.12766952662E+03  0.00000000000E+00 0. -1.
<scales pt_clust_3="14000.00000" pt_clust_4="33.51167" pt_clust_5="42.30562" pt_clust_6="87.95118"></scales>
<clustering>
<clus scale="   33.512">  1  4  2 -1</clus>
<clus scale="   42.306">  2  5  1 -1</clus>
<clus scale="   87.951">  2  6  1 -1</clus>
<clus scale="   33.512">  1  3  2 -1</clus>
</clustering>
</event>
<event>
 6    0  0.1080632E+003  0.1542763E+03  0.7546771E-02  0.1195315E+00
         21   -1    0    0  502  501  0.00000000000E+00  0.00000000000E+00  0.19317107786E+03  0.19317107786E+03  0.00000000000E+00 0. -1.
         21   -1    0    0  506  502 -0.00000000000E+00 -0.00000000000E+00 -0.39160114840E+03  0.39160114840E+03  0.00000000000E+00 0. -1.
         21    1    1    2  503  501 -0.40295941067E+02  0.46582265853E+02  0.92431738582E+02  0.11107338410E+03  0.00000000000E+00 0. -1.
         21    1    1    2  504  505  0.92818893497E+02  0.60242065463E+01 -0.24978344101E+02  0.96309686577E+02  0.00000000000E+00 0. -1.
         21    1    1    2  505  503  0.87531228441E+02 -0.34781131406E+02 -0.23807627283E+02  0.97150636494E+02  0.00000000000E+00 0. -1.
         21    1    1    2  506  504 -0.14005418087E+03 -0.17825340993E+02 -0.24207583774E+03  0.28023851908E+03  0.00000000000E+00 0. -1.
<scales pt_clust_3="61.59278" pt_clust_4="40.89725" pt_clust_5="40.89725" pt_clust_6="148.68589"></scales>
<clustering>
<clus scale="   40.897">  4  5 -1 -1</clus>
<clus scale="   61.593">  1  3  2 -1</clus>
<clus scale="  148.686">  2  6  1 -1</clus>
<clus scale="   61.593">  1  3  2 -1</clus>
</clustering>
</event>
<event>
 6    0  0.1080632E+003  0.5290823E+03  0.7546771E-02  0.1006455E+00
         21   -1    0    0  506  501  0.00000000000E+00  0.00000000000E+00  0.26480856263E+04  0.26480856263E+04  0.00000000000E+00 0.  1.
         21   -1    0    0  503  502 -0.00000000000E+00 -0.00000000000E+00 -0.13678558573E+03  0.13678558573E+03  0.00000000000E+00 0.  1.
         21    1    1    2  503  504  0.96173156651E+02 -0.48765522077E+03  0.14203517305E+04  0.15048109279E+04  0.00000000000E+00 0.  1.
         21    1    1    2  504  501 -0.44161305740E+01 -0.40601801399E+02  0.39723328956E+03  0.39932730287E+03  0.00000000000E+00 0.  1.
         21    1    1    2  505  502  0.63772632905E+01  0.12366491744E+03  0.12532499579E+03  0.17618182614E+03  0.00000000000E+00 0.  1.
         21    1    1    2  506  505 -0.98134289368E+02  0.40459210473E+03  0.56839002470E+03  0.70455115509E+03  0.00000000000E+00 0.  1.
<scales pt_clust_3="522.44891" pt_clust_4="40.84126" pt_clust_5="45.64196" pt_clust_6="45.64196"></scales>
<clustering>
<clus scale="   40.841">  1  4  2 -1</clus>
<clus scale="   45.642">  5  6 -1 -1</clus>
<clus scale="  522.449">  1  3  2 -1</clus>
<clus scale="   40.841">  1  3  2 -1</clus>
</clustering>
</event>
<event>
 6    0  0.1080632E+003  0.8605195E+02  0.7546771E-02  0.1312704E+00
         21   -1    0    0  504  501  0.00000000000E+00  0.00000000000E+00  0.12766888446E+04  0.12766888446E+04  0.00000000000E+00 0.  1.
         21   -1    0    0  505  502 -0.00000000000E+00 -0.00000000000E+00 -0.68912869295E+02  0.68912869295E+02  0.00000000000E+00 0.  1.
         21    1    1    2  503  501 -0.47460837901E+02 -0.28076310131E+02  0.26978697988E+03  0.27536489399E+03  0.00000000000E+00 0.  1.
         21    1    1    2  504  502  0.11099422577E+03  0.77613927066E+02  0.86385000402E+03  0.87440292158E+03  0.00000000000E+00 0.  1.
         21    1    1    2  505  506 -0.26323046381E+02  0.20678526055E+02 -0.42870386423E+02  0.54390938976E+02  0.00000000000E+00 0.  1.
         21    1    1    2  506  503 -0.37210341487E+02 -0.70216142990E+02  0.11700937781E+03  0.14144295933E+03  0.00000000000E+00 0.  1.
<scales pt_clust_3="56.97289" pt_clust_4="86.05195" pt_clust_5="33.47393" pt_clust_6="14000.00000"></scales>
<clustering>
<clus scale="   33.474">  2  5  1 -1</clus>
<clus scale="   56.973">  1  3  2 -1</clus>
<clus scale="   86.052">  1  4  2 -1</clus>
<clus scale="   56.973">  1  3  2 -1</clus>
</clustering>
</event>
<event>
 6    0  0.1080632E+003  0.1233217E+03  0.7546771E-02  0.1237716E+00
         21   -1    0    0  504  501  0.00000000000E+00  0.00000000000E+00  0.31023433554E+03  0.31023433554E+03  0.00000000000E+00 0. -1.
         21   -1    0    0  503  502 -0.00000000000E+00 -0.00000000000E+00 -0.20523392316E+03  0.20523392316E+03  0.00000000000E+00 0. -1.
         21    1    1    2  503  506  0.74765468159E+01  0.30366028945E+02 -0.11971070900E+03  0.12372812258E+03  0.00000000000E+00 0. -1.
         21    1    1    2  504  502  0.52250877925E+02 -0.10422585611E+03  0.14453160490E+03  0.18569482530E+03  0.00000000000E+00 0. -1.
         21    1    1    2  505  501 -0.87316842917E+02  0.10667084995E+03  0.86456299989E+02  0.16271936914E+03  0.00000000000E+00 0. -1.
         21    1    1    2  506  505  0.27589418177E+02 -0.32811022783E+02 -0.62767835052E+01  0.43325941682E+02  0.00000000000E+00 0. -1.
<scales pt_clust_3="31.27290" pt_clust_4="14000.00000" pt_clust_5="123.32167" pt_clust_6="38.14101"></scales>
<clustering>
<clus scale="   31.273">  2  3  1 -1</clus>
<clus scale="   38.141">  2  6  1 -1</clus>
<clus scale="  123.322">  2  5  1 -1</clus>
<clus scale="  123.322">  1  3  2 -1</clus>
</clustering>
</event>
<event>
 6    0  0.1080632E+003  0.1579326E+03  0.7546771E-02  0.1191051E+00
         21   -1    0    0  506  501  0.00000000000E+00  0.00000000000E+00  0.70002504433E+02  0.70002504433E+02  0.00000000000E+00 0.  1.
         21   -1    0    0  505  502 -0.00000000000E+00 -0.00000000000E+00 -0.92731286017E+03  0.92731286017E+03  0.00000000000E+00 0. -1.
         21    1    1    2  503  502  0.27879371958E+02  0.15123793117E+02 -0.14926878535E+03  0.15260130661E+03  0.00000000000E+00 0. -1.
         21    1    1    2  504  503 -0.98578253919E+02  0.14165769114E+02 -0.33007779993E+03  0.34477484707E+03  0.00000000000E+00 0. -1.
         21    1    1    2  505  501  0.32618512595E+02  0.14137778402E+03 -0.22438240119E+03  0.26720611360E+03  0.00000000000E+00 0. -1.
         21    1    1    2  506  504  0.38080369365E+02 -0.17066734626E+03 -0.15358136926E+03  0.23273309733E+03  0.00000000000E+00 0.  1.
<scales pt_clust_3="31.71732" pt_clust_4="88.91387" pt_clust_5="14000.00000" pt_clust_6="157.93257"></scales>
<clustering>
<clus scale="   31.717">  2  3  1 -1</clus>
<clus scale="   88.914">  2  4  1 -1</clus>
<clus scale="  157.933">  1  6  2 -1</clus>
<clus scale="  157.933">  1  3  2 -1</clus>
</clustering>
</event>
<event>
 6    0  0.1080632E+003  0.9960614E+02  0.7546771E-02  0.1281126E+00
         21   -1    0    0  506  501  0.00000000000E+00  0.00000000000E+00  0.27453881538E+03  0.27453881538E+03  0.00000000000E+00 0.  1.
         21   -1    0    0  504  502 -0.00000000000E+00 -0.00000000000E+00 -0.44799207600E+03  0.44799207600E+03  0.00000000000E+00 0.  1.
         21    1    1    2  503  505 -0.10459784935E+03 -0.39300540165E+02 -0.24412266906E+03  0.26847927312E+03  0.00000000000E+00 0.  1.
         21    1    1    2  504  501 -0.18668144325E+02  0.28686227260E+02 -0.33807437036E+01  0.34392276384E+02  0.00000000000E+00 0. -1.
         21    1    1    2  505  502  0.20975894974E+02  0.93314753915E+02 -0.13932661911E+03  0.16899567528E+03  0.00000000000E+00 0.  1.
         21    1    1    2  506  503  0.10229009870E+03 -0.82700441010E+02  0.21337677126E+03  0.25066366659E+03  0.00000000000E+00 0.  1.
<scales pt_clust_3="14000.00000" pt_clust_4="34.22571" pt_clust_5="97.02176" pt_clust_6="99.60614"></scales>
<clustering>
<clus scale="   34.226">  1  4  2 -1</clus>
<clus scale="   97.022">  2  5  1 -1</clus>
<clus scale="   99.606">  1  6  2 -1</clus>
<clus scale="   34.226">  1  3  2 -1</clus>
</clustering>
</event>
<event>
 6    0  0.1080632E+003  0.9755320E+02  0.7546771E-02  0.1285527E+00
         21   -1    0    0  506  501  0.00000000000E+00  0.00000000000E+00  0.12286932993E+04  0.12286932993E+04  0.00000000000E+00 0.  1.
         21   -1    0    0  504  502 -0.00000000000E+00 -0.00000000000E+00 -0.33975304905E+02  0.33975304905E+02  0.00000000000E+00 0.  1.
         21    1    1    2  503  502  0.34272816318E+02 -0.11431292264E+02  0.79637296432E+02  0.87449410314E+02  0.00000000000E+00 0. -1.
         21    1    1    2  504  501 -0.11425331879E+02  0.74520665001E+02  0.38653546934E+02  0.84722868290E+02  0.00000000000E+00 0.  1.
         21    1    1    2  505  503 -0.40834395152E+02  0.35485616839E+02  0.16649487849E+03  0.17506347818E+03  0.00000000000E+00 0.  1.
         21    1    1    2  506  505  0.17986910713E+02 -0.98574989576E+02  0.90993227259E+03  0.91543284747E+03  0.00000000000E+00 0.  1.
<scales pt_clust_3="36.12894" pt_clust_4="14000.00000" pt_clust_5="49.38395" pt_clust_6="97.55320"></scales>
<clustering>
<clus scale="   36.129">  2  3  1 -1</clus>
<clus scale="   49.384">  2  5  1 -1</clus>
<clus scale="   97.553">  1  6  2 -1</clus>
<clus scale="   97.553">  1  3  2 -1</clus>
</clustering>
</event>
<event>
 6    0  0.1080632E+003  0.9083199E+02  0.7546771E-02  0.1300849E+00
         21   -1    0    0  505  501  0.00000000000E+00  0.00000000000E+00  0.26182076097E+03  0.26182076097E+03  0.00000000000E+00 0. -1.
         21   -1    0    0  506  502 -0.00000000000E+00 -0.00000000000E+00 -0.12581080107E+04  0.12581080107E+04  0.00000000000E+00 0.  1.
         21    1    1    2  503  501  0.98584788915E+02  0.20607887678E+02 -0.15162054441E+03  0.18202317195E+03  0.00000000000E+00 0. -1.
         21    1    1    2  504  502 -0.64820949969E+02  0.31687448753E+02 -0.20216663898E+03  0.21465600360E+03  0.00000000000E+00 0. -1.
         21    1    1    2  505  504  0.21619484129E+02  0.22121057735E+02  0.23693005773E+03  0.23894056907E+03  0.00000000000E+00 0. -1.
         21    1    1    2  506  503 -0.55383323075E+02 -0.74416394167E+02 -0.87943012406E+03  0.88430902704E+03  0.00000000000E+00 0.  1.
<scales pt_clust_3="14000.00000" pt_clust_4="70.03569" pt_clust_5="30.93127" pt_clust_6="90.83199"></scales>
<clustering>
<clus scale="   30.931">  1  5  2 -1</clus>
<clus scale="   70.036">  1  4  2 -1</clus>
<clus scale="   90.832">  2  6  1 -1</clus>
<clus scale="   30.931">  1  3  2 -1</clus>
</clustering>
</event>
<event>
 6    0  0.1080632E+003  0.1160200E+03  0.7546771E-02  0.1249811E+00
         21   -1    0    0  503  501  0.00000000000E+00  0.00000000000E+00  0.12088979336E+03  0.12088979336E+03  0.00000000000E+00 0.  1.
         21   -1    0    0  505  502 -0.00000000000E+00 -0.00000000000E+00 -0.15840900278E+04  0.15840900278E+04  0.00000000000E+00 0.  1.
         21    1    1    2  503  506 -0.52824188212E+02  0.10896982604E+03  0.76124031929E+02  0.14303735906E+03  0.00000000000E+00 0.  1.
         21    1    1    2  504  502  0.49071876893E+02 -0.65711781491E+02 -0.12055922095E+04  0.12083785264E+04  0.00000000000E+00 0.  1.
         21    1    1    2  505  501 -0.12981821196E+02  0.34059607773E+02 -0.83067449936E+02  0.90712655137E+02  0.00000000000E+00 0. -1.
         21    1    1    2  506  504  0.16734132516E+02 -0.77317652326E+02 -0.25066460688E+03  0.26285128057E+03  0.00000000000E+00 0.  1.
<scales pt_clust_3="116.01999" pt_clust_4="54.34926" pt_clust_5="36.44975" pt_clust_6="14000.00000"></scales>
<clustering>
<clus scale="   36.450">  2  5  1 -1</clus>
<clus scale="   54.349">  2  4  1 -1</clus>
<clus scale="  116.020">  1  3  2 -1</clus>
<clus scale="  116.020">  1  3  2 -1</clus>
</clustering>
</event>
<event>
 6    0  0.1080632E+003  0.1093833E+03  0.7546771E-02  0.1261716E+00
         21   -1    0    0  503  501  0.00000000000E+00  0.00000000000E+00  0.20790853050E+03  0.20790853050E+03  0.00000000000E+00 0.  1.
         21   -1    0    0  505  502 -0.00000000000E+00 -0.00000000000E+00 -0.49081707038E+03  0.49081707038E+03  0.00000000000E+00 0.  1.
         21    1    1    2  503  502  0.23211686975E+02  0.41305791329E+02  0.15316203408E+03  0.16032329679E+03  0.00000000000E+00 0.  1.
         21    1    1    2  504  501  0.39723624809E+02  0.30944186343E+01  0.24272891836E+01  0.39917834704E+02  0.00000000000E+00 0.  1.
         21    1    1    2  505  506 -0.58336613758E+02 -0.12137521018E+03 -0.37547570064E+03  0.39889485321E+03  0.00000000000E+00 0.  1.
         21    1    1    2  506  504 -0.45986980260E+01  0.76975000214E+02 -0.63022162513E+02  0.99589616172E+02  0.00000000000E+00 0.  1.
<scales pt_clust_3="71.59576" pt_clust_4="39.84397" pt_clust_5="109.38331" pt_clust_6="14000.00000"></scales>
<clustering>
<clus scale="   39.844">  1  4  2 -1</clus>
<clus scale="   71.596">  1  3  2 -1</clus>
<clus scale="  109.383">  2  5  1 -1</clus>
<clus scale="   39.844">  1  3  2 -1</clus>
</clustering>
</event>
<event>
 6    0  0.1080632E+003  0.2446647E+03  0.7546771E-02  0.1116724E+00
         21   -1    0    0  505  501  0.00000000000E+00  0.00000000000E+00  0.42850571068E+03  0.42850571068E+03  0.00000000000E+00 0. -1.
         21   -1    0    0  504  502 -0.00000000000E+00 -0.00000000000E+00 -0.74088787447E+03  0.74088787447E+03  0.00000000000E+00 0. -1.
         21    1    1    2  503  506 -0.14334070599E+03  0.44931150908E+02 -0.26826308753E+03  0.30745804665E+03  0.00000000000E+00 0. -1.
         21    1    1    2  504  501  0.10248941876E+03 -0.17705329168E+03 -0.15407301331E+03  0.25610631090E+03  0.00000000000E+00 0. -1.
         21    1    1    2  505  503  0.90908034189E+02  0.33345472565E+02  0.33838806281E+03  0.35196970363E+03  0.00000000000E+00 0. -1.
         21    1    1    2  506  502 -0.50056746957E+02  0.98776668205E+02 -0.22843412576E+03  0.25385952397E+03  0.00000000000E+00 0. -1.
<scales pt_clust_3="87.19955" pt_clust_4="222.58935" pt_clust_5="96.83073" pt_clust_6="87.19955"></scales>
<clustering>
<clus scale="   87.200">  3  6 -1 -1</clus>
<clus scale="   96.831">  1  5  2 -1</clus>
<clus scale="  222.589">  1  4  2 -1</clus>
<clus scale="   96.831">  1  3  2 -1</clus>
</clustering>
</event>
<event>
 6    0  0.1080632E+003  0.8396126E+02  0.7546771E-02  0.1318172E+00
         21   -1    0    0  503  501  0.00000000000E+00  0.00000000000E+00  0.15392149650E+02  0.15392149650E+02  0.00000000000E+00 0. -1.
         21   -1    0    0  505  502 -0.00000000000E+00 -0.00000000000E+00 -0.29619365815E+04  0.29619365815E+04  0.00000000000E+00 0. -1.
         21    1    1    2  503  504  0.71046470251E+02  0.40112151965E+02 -0.22744024563E+03  0.24163122936E+03  0.00000000000E+00 0. -1.
         21    1    1    2  504  502  0.30002817850E+02  0.20111769543E+02 -0.47858980081E+03  0.47995088269E+03  0.00000000000E+00 0.  1.
         21    1    1    2  505  506 -0.77212979550E+02 -0.85999311918E+02 -0.21960681897E+04  0.21991073689E+04  0.00000000000E+00 0. -1.
         21    1    1    2  506  501 -0.23836308550E+02  0.25775390410E+02 -0.44446195653E+02  0.56639250208E+02  0.00000000000E+00 0. -1.
<scales pt_clust_3="14000.00000" pt_clust_4="35.81128" pt_clust_5="83.96126" pt_clust_6="35.10755"></scales>
<clustering>
<clus scale="   35.108">  1  6  2 -1</clus>
<clus scale="   35.811">  2  4  1 -1</clus>
<clus scale="   83.961">  2  5  1 -1</clus>
<clus scale="   35.108">  1  3  2 -1</clus>
</clustering>
</event>
<event>
 6    0  0.1080632E+003  0.1730901E+03  0.7546771E-02  0.1174663E+00
         21   -1    0    0  503  501  0.00000000000E+00  0.00000000000E+00  0.37663824747E+03  0.37663824747E+03  0.00000000000E+00 0.  1.
         21   -1    0    0  506  502 -0.00000000000E+00 -0.00000000000E+00 -0.15725498836E+03  0.15725498836E+03  0.00000000000E+00 0.  1.
         21    1    1    2  503  504 -0.10829239233E+03  0.23605803594E+02 -0.52150178347E+02  0.12249129479E+03  0.00000000000E+00 0.  1.
         21    1    1    2  504  505 -0.42973912521E+02 -0.20840915652E+02  0.10568681134E+02  0.48916233946E+02  0.00000000000E+00 0.  1.
         21    1    1    2  505  502 -0.56892141089E+01 -0.38720837622E+02 -0.15866474174E+02  0.42230503502E+02  0.00000000000E+00 0. -1.
         21    1    1    2  506  501  0.15695551896E+03  0.35955949680E+02  0.27683123050E+03  0.32025520359E+03  0.00000000000E+00 0.  1.
<scales pt_clust_3="46.65477" pt_clust_4="46.65477" pt_clust_5="39.13656" pt_clust_6="158.73812"></scales>
<clustering>
<clus scale="   39.137">  2  5  1 -1</clus>
<clus scale="   46.655">  3  4 -1 -1</clus>
<clus scale="  158.738">  1  6  2 -1</clus>
<clus scale="  158.738">  1  3  2 -1</clus>
</clustering>
</event>
<event>
 6    0  0.1080632E+003  0.8046991E+02  0.7546771E-02  0.1327723E+00
         21   -1    0    0  506  501  0.00000000000E+00  0.00000000000E+00  0.19270951640E+03  0.19270951640E+03  0.00000000000E+00 0.  1.
         21   -1    0    0  504  502 -0.00000000000E+00 -0.00000000000E+00 -0.38158077092E+03  0.38158077092E+03  0.00000000000E+00 0. -1.
         21    1    1    2  503  501 -0.82599304560E+02 -0.21391156485E+02  0.15355321249E+03  0.17566677476E+03  0.00000000000E+00 0.  1.
         21    1    1    2  504  503  0.38804804164E+02  0.27848750795E+01 -0.11151968279E+03  0.11811099867E+03  0.00000000000E+00 0. -1.
         21    1    1    2  505  502 -0.86043277799E+01  0.75251336676E+02 -0.15374317382E+03  0.17138775226E+03  0.00000000000E+00 0. -1.
         21    1    1    2  506  505  0.52398828176E+02 -0.56645055270E+02 -0.77161610392E+02  0.10912476162E+03  0.00000000000E+00 0. -1.
<scales pt_clust_3="80.46991" pt_clust_4="38.90461" pt_clust_5="78.40507" pt_clust_6="14000.00000"></scales>
<clustering>
<clus scale="   38.905">  2  4  1 -1</clus>
<clus scale="   78.405">  2  5  1 -1</clus>
<clus scale="   80.470">  1  3  2 -1</clus>
<clus scale="   80.470">  1  3  2 -1</clus>
</clustering>
</event>
<event>
 6    0  0.1220145E+003  0.1437547E+03  0.7546771E-02  0.1208364E+00
         21   -1    0    0  506  501  0.00000000000E+00  0.00000000000E+00  0.13879620062E+04  0.13879620062E+04  0.00000000000E+00 0.  1.
         21   -1    0    0  505  502 -0.00000000000E+00 -0.00000000000E+00 -0.19861408761E+03  0.19861408761E+03  0.00000000000E+00 0.  1.
         21    1    1    2  503  501 -0.33082189200E+02  0.26139495896E+02  0.52792001703E+02  0.67562563094E+02  0.00000000000E+00 0. -1.
         21    1    1    2  504  502 -0.35667989637E+02 -0.73435821929E+02  0.53282883715E+03  0.53904693221E+03  0.00000000000E+00 0.  1.
         21    1    1    2  505  503  0.89974697216E+02  0.10029337871E+03 -0.16279548476E+03  0.21132103021E+03  0.00000000000E+00 0.  1.
         21    1    1    2  506  504 -0.21224518380E+02 -0.52997052675E+02  0.76652256448E+03  0.76864556828E+03  0.00000000000E+00 0.  1.
<scales pt_clust_3="42.16283" pt_clust_4="42.00828" pt_clust_5="134.69161" pt_clust_6="42.00828"></scales>
<clustering>
<clus scale="   42.008">  4  6 -1 -1</clus>
<clus scale="   42.163">  1  3  2 -1</clus>
<clus scale="  134.692">  2  5  1 -1</clus>
<clus scale="   42.163">  1  3  2 -1</clus>
</clustering>
</event>
<event>
 6    0  0.1080632E+003  0.1404899E+03  0.7546771E-02  0.1212671E+00
         21   -1    0    0  506  501  0.00000000000E+00  0.00000000000E+00  0.47934678774E+03  0.47934678774E+03  0.00000000000E+00 0. -1.
         21   -1    0    0  503  502 -0.00000000000E+00 -0.00000000000E+00 -0.87746127204E+02  0.87746127204E+02  0.00000000000E+00 0. -1.
         21    1    1    2  503  504  0.55418430778E+02  0.18945504333E+01  0.26780108509E+02  0.61578941230E+02  0.00000000000E+00 0. -1.
         21    1    1    2  504  501  0.68861850412E+02  0.12393832407E+03  0.82143551412E+02  0.16386038464E+03  0.00000000000E+00 0. -1.
         21    1    1    2  505  502 -0.96620835348E+02 -0.96424973005E+02  0.14928166056E+03  0.20228290936E+03  0.00000000000E+00 0. -1.
         21    1    1    2  506  505 -0.27659445841E+02 -0.29407901495E+02  0.13339534006E+03  0.13937067971E+03  0.00000000000E+00 0. -1.
<scales pt_clust_3="51.88999" pt_clust_4="140.48993" pt_clust_5="14000.00000" pt_clust_6="40.37164"></scales>
<clustering>
<clus scale="   40.372">  1  6  2 -1</clus>
<clus scale="   51.890">  2  3  1 -1</clus>
<clus scale="  140.490">  1  4  2 -1</clus>
<clus scale="   40.372">  1  3  2 -1</clus>
</clustering>
</event>
<event>
 6    0  0.1080632E+003  0.2551513E+03  0.7546771E-02  0.1110092E+00
         21   -1    0    0  504  501  0.00000000000E+00  0.00000000000E+00  0.41235266346E+04  0.41235266346E+04  0.00000000000E+00 0.  1.
         21   -1    0    0  505  502 -0.00000000000E+00 -0.00000000000E+00 -0.43073289330E+03  0.43073289330E+03  0.00000000000E+00 0. -1.
         21    1    1    2  503  501 -0.23920934902E+02 -0.28696591034E+02  0.15873683218E+03  0.16307387085E+03  0.00000000000E+00 0.  1.
         21    1    1    2  504  506  0.18408764523E+02 -0.63551237580E+02  0.13564614274E+04  0.13580740946E+04  0.00000000000E+00 0.  1.
         21    1    1    2  505  503 -0.24855144608E+03 -0.55933036140E+02 -0.38063585814E+03  0.45802836417E+03  0.00000000000E+00 0. -1.
         21    1    1    2  506  502  0.25406361646E+03  0.14818086475E+03  0.25582313399E+04  0.25750831983E+04  0.00000000000E+00 0.  1.
<scales pt_clust_3="37.35914" pt_clust_4="74.08797" pt_clust_5="255.15128" pt_clust_6="14000.00000"></scales>
<clustering>
<clus scale="   37.359">  1  3  2 -1</clus>
<clus scale="   74.088">  1  4  2 -1</clus>
<clus scale="  255.151">  2  5  1 -1</clus>
<clus scale="   37.359">  1  3  2 -1</clus>
</clustering>
</event>
<event>
 6    0  0.1080632E+003  0.3424857E+03  0.7546771E-02  0.1065742E+00
         21   -1    0    0  505  501  0.00000000000E+00  0.00000000000E+00  0.13109198283E+04  0.13109198283E+04  0.00000000000E+00 0.  1.
         21   -1    0    0  503  502 -0.00000000000E+00 -0.00000000000E+00 -0.21344742148E+03  0.21344742148E+03  0.00000000000E+00 0. -1.
         21    1    1    2  503  506  0.10605625468E+03  0.31149804392E+03  0.25622278406E+02  0.33005372544E+03  0.00000000000E+00 0. -1.
         21    1    1    2  504  501 -0.67605311246E+02 -0.22773675522E+03  0.36385755631E+03  0.43454209126E+03  0.00000000000E+00 0.  1.
         21    1    1    2  505  502 -0.35174368111E+02  0.23967572338E+02  0.61771251610E+03  0.61917722280E+03  0.00000000000E+00 0.  1.
         21    1    1    2  506  504 -0.32765753223E+01 -0.10772886104E+03  0.90280055961E+02  0.14059421023E+03  0.00000000000E+00 0.  1.
<scales pt_clust_3="332.14012" pt_clust_4="56.05948" pt_clust_5="42.56384" pt_clust_6="56.05948"></scales>
<clustering>
<clus scale="   42.564">  1  5  2 -1</clus>
<clus scale="   56.059">  4  6 -1 -1</clus>
<clus scale="  332.140">  2  3  1 -1</clus>
<clus scale="   42.564">  1  3  2 -1</clus>
</clustering>
</event>
<event>
 6    0  0.1080632E+003  0.1375536E+03  0.7546771E-02  0.1216659E+00
         21   -1    0    0  504  501  0.00000000000E+00  0.00000000000E+00  0.49441543520E+03  0.49441543520E+03  0.00000000000E+00 0.  1.
         21   -1    0    0  505  502 -0.00000000000E+00 -0.00000000000E+00 -0.21948041959E+03  0.21948041959E+03  0.00000000000E+00 0.  1.
         21    1    1    2  503  501  0.66045650665E+01  0.55515630350E+02  0.22263494976E+03  0.22954722030E+03  0.00000000000E+00 0. -1.
         21    1    1    2  504  502  0.40801514974E+02  0.31673449747E+02  0.90669259163E+02  0.10434982319E+03  0.00000000000E+00 0.  1.
         21    1    1    2  505  506 -0.21378507882E+02 -0.13229915598E+03 -0.18268691658E+03  0.22657143854E+03  0.00000000000E+00 0.  1.
         21    1    1    2  506  503 -0.26027572158E+02  0.45110075884E+02  0.14431772327E+03  0.15342737275E+03  0.00000000000E+00 0.  1.
<scales pt_clust_3="37.53610" pt_clust_4="51.65241" pt_clust_5="131.94128" pt_clust_6="37.53610"></scales>
<clustering>
<clus scale="   37.536">  3  6 -1 -1</clus>
<clus scale="   51.652">  1  4  2 -1</clus>
<clus scale="  131.941">  2  5  1 -1</clus>
<clus scale="   51.652">  1  3  2 -1</clus>
</clustering>
</event>
<event>
 6    0  0.1080632E+003  0.7853610E+02  0.7546771E-02  0.1333258E+00
         21   -1    0    0  505  501  0.00000000000E+00  0.00000000000E+00  0.62340330029E+03  0.62340330029E+03  0.00000000000E+00 0.  1.
         21   -1    0    0  504  502 -0.00000000000E+00 -0.00000000000E+00 -0.15712379626E+04  0.15712379626E+04  0.00000000000E+00 0.  1.
         21    1    1    2  503  501 -0.45548946519E+02  0.43201524070E+02  0.50253624173E+03  0.50644224988E+03  0.00000000000E+00 0.  1.
         21    1    1    2  504  503  0.45470049231E+02 -0.71771366910E+02 -0.14646076540E+03  0.16932043671E+03  0.00000000000E+00 0. -1.
         21    1    1    2  505  506 -0.34112918015E+02 -0.31775194883E+02  0.10153343320E+03  0.11172462685E+03  0.00000000000E+00 0.  1.
         21    1    1    2  506  502  0.34191815303E+02  0.60345037722E+02 -0.14054435719E+04  0.14071539495E+04  0.00000000000E+00 0.  1.
<scales pt_clust_3="14000.00000" pt_clust_4="78.53610" pt_clust_5="46.61925" pt_clust_6="69.28494"></scales>
<clustering>
<clus scale="   46.619">  1  5  2 -1</clus>
<clus scale="   69.285">  2  6  1 -1</clus>
<clus scale="   78.536">  2  4  1 -1</clus>
<clus scale="   46.619">  1  3  2 -1</clus>
</clustering>
</event>
<event>
 6    0  0.1080632E+003  0.9744034E+02  0.7546771E-02  0.1285773E+00
         21   -1    0    0  505  501  0.00000000000E+00  0.00000000000E+00  0.46621319933E+02  0.46621319933E+02  0.00000000000E+00 0.  1.
         21   -1    0    0  506  502 -0.00000000000E+00 -0.00000000000E+00 -0.10567473823E+04  0.10567473823E+04  0.00000000000E+00 0.  1.
         21    1    1    2  503  501  0.92930408583E+02  0.58361312760E+02 -0.52597971611E+02  0.12169079786E+03  0.00000000000E+00 0.  1.
         21    1    1    2  504  502 -0.22439008655E+02 -0.75439824645E+02 -0.39986178063E+03  0.40753419471E+03  0.00000000000E+00 0.  1.
         21    1    1    2  505  504 -0.71956801688E+02 -0.17920836820E+02 -0.17750568623E+03  0.19237257171E+03  0.00000000000E+00 0.  1.
         21    1    1    2  506  503  0.14654017608E+01  0.34999348705E+02 -0.38016062389E+03  0.38177113795E+03  0.00000000000E+00 0.  1.
<scales pt_clust_3="97.44034" pt_clust_4="58.64061" pt_clust_5="14000.00000" pt_clust_6="35.03001"></scales>
<clustering>
<clus scale="   35.030">  2  6  1 -1</clus>
<clus scale="   58.641">  2  4  1 -1</clus>
<clus scale="   97.440">  1  3  2 -1</clus>
<clus scale="   97.440">  1  3  2 -1</clus>
</clustering>
</event>
<event>
 6    0  0.1080632E+003  0.1080208E+03  0.7546771E-02  0.1264279E+00
         21   -1    0    0  504  501  0.00000000000E+00  0.00000000000E+00  0.49146457629E+03  0.49146457629E+03  0.00000000000E+00 0.  1.
         21   -1    0    0  505  502 -0.00000000000E+00 -0.00000000000E+00 -0.36733031821E+03  0.36733031821E+03  0.00000000000E+00 0.  1.
         21    1    1    2  503  502  0.67519730712E+02 -0.95923720597E+02 -0.31836509219E+03  0.33928838196E+03  0.00000000000E+00 0.  1.
         21    1    1    2  504  506 -0.31058710385E+02 -0.43532730149E+01  0.37978956503E+03  0.38108228532E+03  0.00000000000E+00 0.  1.
         21    1    1    2  505  501 -0.28246735860E+02  0.24980058079E+02  0.48376182687E+02  0.61336257139E+02  0.00000000000E+00 0.  1.
         21    1    1    2  506  503 -0.82142844678E+01  0.75296935533E+02  0.14333602549E+02  0.77087970086E+02  0.00000000000E+00 0.  1.
<scales pt_clust_3="14000.00000" pt_clust_4="31.36231" pt_clust_5="49.20808" pt_clust_6="108.02084"></scales>
<clustering>
<clus scale="   31.362">  1  4  2 -1</clus>
<clus scale="   49.208">  1  5  2 -1</clus>
<clus scale="  108.021">  1  6  2 -1</clus>
<clus scale="   31.362">  1  3  2 -1</clus>
</clustering>
</event>
<event>
 6    0  0.1080632E+003  0.1301849E+03  0.7546771E-02  0.1227182E+00
         21   -1    0    0  503  501  0.00000000000E+00  0.00000000000E+00  0.10184335521E+03  0.10184335521E+03  0.00000000000E+00 0. -1.
         21   -1    0    0  505  502 -0.00000000000E+00 -0.00000000000E+00 -0.44668838159E+03  0.44668838159E+03  0.00000000000E+00 0. -1.
         21    1    1    2  503  506 -0.32749660225E+02 -0.38381334982E+01  0.65894040340E+01  0.33625760350E+02  0.00000000000E+00 0.  1.
         21    1    1    2  504  502 -0.11535830822E+03 -0.37703317094E+02 -0.23662240521E+03  0.26593089712E+03  0.00000000000E+00 0. -1.
         21    1    1    2  505  501  0.17455771829E+02 -0.47719723414E+02  0.41943759923E+01  0.50984985660E+02  0.00000000000E+00 0.  1.
         21    1    1    2  506  504  0.13065219661E+03  0.89261174005E+02 -0.11900640120E+03  0.19799009367E+03  0.00000000000E+00 0. -1.
<scales pt_clust_3="32.97380" pt_clust_4="130.18488" pt_clust_5="49.43150" pt_clust_6="14000.00000"></scales>
<clustering>
<clus scale="   32.974">  1  3  2 -1</clus>
<clus scale="   49.431">  1  5  2 -1</clus>
<clus scale="  130.185">  2  4  1 -1</clus>
<clus scale="   32.974">  1  3  2 -1</clus>
</clustering>
</event>
<event>
 6    0  0.1080632E+003  0.1330068E+03  0.7546771E-02  0.1223061E+00
         21   -1    0    0  505  501  0.00000000000E+00  0.00000000000E+00  0.42329326666E+03  0.42329326666E+03  0.00000000000E+00 0. -1.
         21   -1    0    0  504  502 -0.00000000000E+00 -0.00000000000E+00 -0.29406750742E+03  0.29406750742E+03  0.00000000000E+00 0.  1.
         21    1    1    2  503  501  0.15586183036E+03 -0.16062284409E+02 -0.10506239104E+03  0.18865050532E+03  0.00000000000E+00 0.  1.
         21    1    1    2  504  503  0.41509289276E+01  0.33307511447E+02 -0.41438144786E+02  0.53326732256E+02  0.00000000000E+00 0.  1.
         21    1    1    2  505  506 -0.46774846957E+02 -0.27964734177E+02  0.34026749944E+03  0.34460395215E+03  0.00000000000E+00 0. -1.
         21    1    1    2  506  502 -0.11323791234E+03  0.10719507140E+02 -0.64541204362E+02  0.13077958435E+03  0.00000000000E+00 0. -1.
<scales pt_clust_3="133.00682" pt_clust_4="33.56517" pt_clust_5="54.31586" pt_clust_6="14000.00000"></scales>
<clustering>
<clus scale="   33.565">  2  4  1 -1</clus>
<clus scale="   54.316">  1  5  2 -1</clus>
<clus scale="  133.007">  1  3  2 -1</clus>
<clus scale="   54.316">  1  3  2 -1</clus>
</clustering>
</event>
<event>
 6    0  0.1080632E+003  0.1562230E+03  0.7546771E-02  0.1193028E+00
         21   -1    0    0  506  501  0.00000000000E+00  0.00000000000E+00  0.67980376878E+03  0.67980376878E+03  0.00000000000E+00 0.  1.
         21   -1    0    0  503  502 -0.00000000000E+00 -0.00000000000E+00 -0.34244908189E+03  0.34244908189E+03  0.00000000000E+00 0. -1.
         21    1    1    2  503  501  0.51742490138E+02  0.63463192352E+01 -0.17814150505E+03  0.18561238341E+03  0.00000000000E+00 0. -1.
         21    1    1    2  504  505 -0.29771382821E+02  0.81259024634E+02 -0.37217476730E+02  0.94204590619E+02  0.00000000000E+00 0. -1.
         21    1    1    2  505  502 -0.76663745166E+02  0.42743671835E+02 -0.64702198449E+02  0.10904460458E+03  0.00000000000E+00 0. -1.
         21    1    1    2  506  504  0.54692637850E+02 -0.13034901570E+03  0.61741586713E+03  0.63339127205E+03  0.00000000000E+00 0.  1.
<scales pt_clust_3="52.13023" pt_clust_4="57.93683" pt_clust_5="57.93683" pt_clust_6="142.08492"></scales>
<clustering>
<clus scale="   52.130">  2  3  1 -1</clus>
<clus scale="   57.937">  4  5 -1 -1</clus>
<clus scale="  142.085">  1  6  2 -1</clus>
<clus scale="  142.085">  1  3  2 -1</clus>
</clustering>
</event>
<event>
 6    0  0.1080632E+003  0.6794620E+02  0.7546771E-02  0.1367220E+00
         21   -1    0    0  506  501  0.00000000000E+00  0.00000000000E+00  0.70191340620E+03  0.70191340620E+03  0.00000000000E+00 0.  1.
         21   -1    0    0  503  502 -0.00000000000E+00 -0.00000000000E+00 -0.18641427388E+03  0.18641427388E+03  0.00000000000E+00 0.  1.
         21    1    1    2  503  505  0.65328592220E+02 -0.35990185792E+02  0.17771300135E+03  0.19273045759E+03  0.00000000000E+00 0.  1.
         21    1    1    2  504  502 -0.44433641689E+02  0.35865818462E+02 -0.15879348775E+03  0.16874856207E+03  0.00000000000E+00 0.  1.
         21    1    1    2  505  501  0.13185893736E+01 -0.67724072722E+02  0.40552357673E+03  0.41114189763E+03  0.00000000000E+00 0.  1.
         21    1    1    2  506  504 -0.22213539905E+02  0.67848440052E+02  0.91056041998E+02  0.11570676280E+03  0.00000000000E+00 0.  1.
<scales pt_clust_3="56.03927" pt_clust_4="57.10259" pt_clust_5="14000.00000" pt_clust_6="67.94620"></scales>
<clustering>
<clus scale="   57.103">  2  4  1 -1</clus>
<clus scale="   56.039">  2  3  1 -1</clus>
<clus scale="   67.946">  2  6  1 -1</clus>
<clus scale="   67.946">  1  3  2 -1</clus>
</clustering>
</event>
<event>
 6    0  0.1080632E+003  0.1379026E+03  0.7546771E-02  0.1216179E+00
         21   -1    0    0  506  501  0.00000000000E+00  0.00000000000E+00  0.65206460370E+02  0.65206460370E+02  0.00000000000E+00 0. -1.
         21   -1    0    0  504  502 -0.00000000000E+00 -0.00000000000E+00 -0.11770023973E+04  0.11770023973E+04  0.00000000000E+00 0. -1.
         21    1    1    2  503  502  0.54000464127E+02 -0.35259198483E+01 -0.14338552656E+03  0.15325759839E+03  0.00000000000E+00 0.  1.
         21    1    1    2  504  505 -0.17842497653E+02  0.10802962486E+03 -0.64896958503E+03  0.65814153255E+03  0.00000000000E+00 0. -1.
         21    1    1    2  505  501  0.41677394684E+02 -0.13629779357E+03 -0.54071917729E+02  0.15243971283E+03  0.00000000000E+00 0. -1.
         21    1    1    2  506  503 -0.77835361159E+02  0.31794088557E+02 -0.26536890759E+03  0.27837001389E+03  0.00000000000E+00 0.  1.
<scales pt_clust_3="54.11545" pt_clust_4="137.90265" pt_clust_5="14000.00000" pt_clust_6="70.65981"></scales>
<clustering>
<clus scale="   54.115">  2  3  1 -1</clus>
<clus scale="   70.660">  2  6  1 -1</clus>
<clus scale="  137.903">  2  4  1 -1</clus>
<clus scale="  137.903">  1  3  2 -1</clus>
</clustering>
</event>
<event>
 6    0  0.1080632E+003  0.1178439E+03  0.7546771E-02  0.1246697E+00
         21   -1    0    0  502  501  0.00000000000E+00  0.00000000000E+00  0.72635249175E+03  0.72635249175E+03  0.00000000000E+00 0.  1.
         21   -1    0    0  504  502 -0.00000000000E+00 -0.00000000000E+00 -0.60408943266E+03  0.60408943266E+03  0.00000000000E+00 0. -1.
         21    1    1    2  503  501  0.81728449767E+02  0.15148625446E+02  0.37244533680E+03  0.38160784748E+03  0.00000000000E+00 0.  1.
         21    1    1    2  504  505 -0.42798420557E+02  0.96063291542E+01 -0.54003855278E+03  0.54181696619E+03  0.00000000000E+00 0. -1.
         21    1    1    2  505  506 -0.68140670817E+01  0.10643232266E+03  0.24742819193E+02  0.10948277453E+03  0.00000000000E+00 0. -1.
         21    1    1    2  506  503 -0.32115962128E+02 -0.13118727726E+03  0.26511345588E+03  0.29753433621E+03  0.00000000000E+00 0.  1.
<scales pt_clust_3="80.20498" pt_clust_4="43.86327" pt_clust_5="14000.00000" pt_clust_6="117.84394"></scales>
<clustering>
<clus scale="   43.863">  2  4  1 -1</clus>
<clus scale="   80.205">  1  3  2 -1</clus>
<clus scale="  117.844">  1  6  2 -1</clus>
<clus scale="   80.205">  1  3  2 -1</clus>
</clustering>
</event>
<event>
 6    0  0.1080632E+003  0.1104794E+03  0.7546771E-02  0.1259685E+00
         21   -1    0    0  504  501  0.00000000000E+00  0.00000000000E+00  0.11644685249E+04  0.11644685249E+04  0.00000000000E+00 0.  1.
         21   -1    0    0  506  502 -0.00000000000E+00 -0.00000000000E+00 -0.18322769732E+03  0.18322769732E+03  0.00000000000E+00 0. -1.
         21    1    1    2  503  502  0.42471005097E+02  0.15933247650E+02  0.29685647513E+02  0.54211551563E+02  0.00000000000E+00 0.  1.
         21    1    1    2  504  503  0.34199794981E+02 -0.51856662547E+02  0.55119238732E+01  0.62362815299E+02  0.00000000000E+00 0.  1.
         21    1    1    2  505  501 -0.11191966832E+03 -0.43488431874E+01  0.10805599930E+04  0.10863493098E+04  0.00000000000E+00 0.  1.
         21    1    1    2  506  505  0.35248868238E+02  0.40272258084E+02 -0.13451673674E+03  0.14477254555E+03  0.00000000000E+00 0. -1.
<scales pt_clust_3="45.36138" pt_clust_4="64.21736" pt_clust_5="110.47943" pt_clust_6="14000.00000"></scales>
<clustering>
<clus scale="   45.361">  2  3  1 -1</clus>
<clus scale="   64.217">  2  4  1 -1</clus>
<clus scale="  110.479">  1  5  2 -1</clus>
<clus scale="  110.479">  1  3  2 -1</clus>
</clustering>
</event>
<event>
 6    0  0.1080632E+003  0.1516266E+03  0.7546771E-02  0.1198488E+00
         21   -1    0    0  506  501  0.00000000000E+00  0.00000000000E+00  0.10627483648E+04  0.10627483648E+04  0.00000000000E+00 0. -1.
         21   -1    0    0  504  502 -0.00000000000E+00 -0.00000000000E+00 -0.44214451162E+03  0.44214451162E+03  0.00000000000E+00 0. -1.
         21    1    1    2  503  501 -0.38519187526E+02 -0.23936226947E+01 -0.14270067957E+02  0.41147200108E+02  0.00000000000E+00 0. -1.
         21    1    1    2  504  503 -0.85107347835E+02 -0.37200511643E+01 -0.13058295662E+03  0.15591346316E+03  0.00000000000E+00 0.  1.
         21    1    1    2  505  502  0.15380504518E+03  0.61087281936E+02 -0.24487673544E+03  0.29555416339E+03  0.00000000000E+00 0. -1.
         21    1    1    2  506  505 -0.30178509819E+02 -0.54973608077E+02  0.10103336132E+04  0.10122780497E+04  0.00000000000E+00 0. -1.
<scales pt_clust_3="33.85267" pt_clust_4="33.85267" pt_clust_5="143.04200" pt_clust_6="62.71236"></scales>
<clustering>
<clus scale="   33.853">  3  4 -1 -1</clus>
<clus scale="   62.712">  1  6  2 -1</clus>
<clus scale="  143.042">  1  5  2 -1</clus>
<clus scale="   62.712">  1  3  2 -1</clus>
</clustering>
</event>
<event>
 6    0  0.1080632E+003  0.1124925E+03  0.7546771E-02  0.1256023E+00
         21   -1    0    0  506  501  0.00000000000E+00  0.00000000000E+00  0.52979849609E+03  0.52979849609E+03  0.00000000000E+00 0. -1.
         21   -1    0    0  503  502 -0.00000000000E+00 -0.00000000000E+00 -0.56709696356E+03  0.56709696356E+03  0.00000000000E+00 0. -1.
         21    1    1    2  503  505 -0.33786648543E+01  0.11320934674E+03 -0.12970238328E+03  0.17219314677E+03  0.00000000000E+00 0. -1.
         21    1    1    2  504  501 -0.23499809866E+02  0.90142255483E+02  0.22957301450E+03  0.24775317611E+03  0.00000000000E+00 0. -1.
         21    1    1    2  505  504  0.33788295323E+02 -0.16597346597E+03  0.24227202516E+03  0.29560882004E+03  0.00000000000E+00 0. -1.
         21    1    1    2  506  502 -0.69098206029E+01 -0.37378136250E+02 -0.37944112385E+03  0.38134031673E+03  0.00000000000E+00 0. -1.
<scales pt_clust_3="83.47280" pt_clust_4="112.49245" pt_clust_5="14000.00000" pt_clust_6="38.01145"></scales>
<clustering>
<clus scale="   38.011">  2  6  1 -1</clus>
<clus scale="   83.473">  2  3  1 -1</clus>
<clus scale="  112.492">  1  4  2 -1</clus>
<clus scale="  112.492">  1  3  2 -1</clus>
</clustering>
</event>
<event>
 6    0  0.1080632E+003  0.2620209E+03  0.7546771E-02  0.1105935E+00
         21   -1    0    0  504  501  0.00000000000E+00  0.00000000000E+00  0.81930700869E+03  0.81930700869E+03  0.00000000000E+00 0. -1.
         21   -1    0    0  501  502 -0.00000000000E+00 -0.00000000000E+00 -0.22186044052E+03  0.22186044052E+03  0.00000000000E+00 0.  1.
         21    1    1    2  503  506 -0.18041003231E+03 -0.24988276315E+02  0.16029082829E+03  0.24262181135E+03  0.00000000000E+00 0.  1.
         21    1    1    2  504  505 -0.26212018191E+02  0.15907315376E+02  0.41126051485E+03  0.41240189579E+03  0.00000000000E+00 0. -1.
         21    1    1    2  505  503 -0.38910900985E+02  0.27430079496E+02  0.11486871478E+03  0.12434343212E+03  0.00000000000E+00 0. -1.
         21    1    1    2  506  502  0.24553295148E+03 -0.18349118557E+02 -0.88973489743E+02  0.26180030995E+03  0.00000000000E+00 0.  1.
<scales pt_clust_3="56.22156" pt_clust_4="30.66126" pt_clust_5="56.22156" pt_clust_6="240.44099"></scales>
<clustering>
<clus scale="   30.661">  1  4  2 -1</clus>
<clus scale="   56.222">  3  5 -1 -1</clus>
<clus scale="  240.441">  2  6  1 -1</clus>
<clus scale="   30.661">  1  3  2 -1</clus>
</clustering>
</event>
<event>
 6    0  0.1080632E+003  0.1240495E+03  0.7546771E-02  0.1236562E+00
         21   -1    0    0  503  501  0.00000000000E+00  0.00000000000E+00  0.21300803406E+04  0.21300803406E+04  0.00000000000E+00 0.  1.
         21   -1    0    0  506  502 -0.00000000000E+00 -0.00000000000E+00 -0.12237398502E+03  0.12237398502E+03  0.00000000000E+00 0. -1.
         21    1    1    2  503  504  0.43556577095E+02  0.92698449856E+02  0.17679846456E+04  0.17709488658E+04  0.00000000000E+00 0.  1.
         21    1    1    2  504  502 -0.72638762347E+02 -0.48310356746E+02 -0.87991151007E+02  0.12390610566E+03  0.00000000000E+00 0. -1.
         21    1    1    2  505  501  0.67825684682E+02 -0.29467617606E+02  0.29670214976E+03  0.30577905367E+03  0.00000000000E+00 0.  1.
         21    1    1    2  506  505 -0.38743499431E+02 -0.14920475504E+02  0.31010711203E+02  0.51820300528E+02  0.00000000000E+00 0. -1.
<scales pt_clust_3="124.04954" pt_clust_4="14000.00000" pt_clust_5="72.76065" pt_clust_6="41.51722"></scales>
<clustering>
<clus scale="   41.517">  2  6  1 -1</clus>
<clus scale="   72.761">  1  5  2 -1</clus>
<clus scale="  124.050">  1  3  2 -1</clus>
<clus scale="   72.761">  1  3  2 -1</clus>
</clustering>
</event>
<event>
 6    0  0.1080632E+003  0.2014238E+03  0.7546771E-02  0.1148543E+00
         21   -1    0    0  505  501  0.00000000000E+00  0.00000000000E+00  0.24024752910E+04  0.24024752910E+04  0.00000000000E+00 0.  1.
         21   -1    0    0  506  502 -0.00000000000E+00 -0.00000000000E+00 -0.99000859824E+03  0.99000859824E+03  0.00000000000E+00 0.  1.
         21    1    1    2  503  501  0.30672311644E+02 -0.76248900061E+01  0.48389493485E+03  0.48492601252E+03  0.00000000000E+00 0.  1.
         21    1    1    2  504  503  0.10398325503E+03 -0.26191229760E+02  0.43553570362E+03  0.44854191217E+03  0.00000000000E+00 0.  1.
         21    1    1    2  505  502 -0.13336723408E+03  0.23500076849E+03  0.14531452510E+04  0.14780538897E+04  0.00000000000E+00 0.  1.
         21    1    1    2  506  504 -0.12883326006E+01 -0.20118464873E+03 -0.96010919672E+03  0.98096207485E+03  0.00000000000E+00 0.  1.
<scales pt_clust_3="31.60585" pt_clust_4="114.51493" pt_clust_5="14000.00000" pt_clust_6="201.42380"></scales>
<clustering>
<clus scale="   31.606">  1  3  2 -1</clus>
<clus scale="  114.515">  1  4  2 -1</clus>
<clus scale="  201.424">  2  6  1 -1</clus>
<clus scale="   31.606">  1  3  2 -1</clus>
</clustering>
</event>
<event>
 6    0  0.1080632E+003  0.1955895E+03  0.7546771E-02  0.1153514E+00
         21   -1    0    0  504  501  0.00000000000E+00  0.00000000000E+00  0.33441608607E+04  0.33441608607E+04  0.00000000000E+00 0.  1.
         21   -1    0    0  506  502 -0.00000000000E+00 -0.00000000000E+00 -0.33558948763E+03  0.33558948763E+03  0.00000000000E+00 0.  1.
         21    1    1    2  503  505  0.96539719615E+02 -0.61075838652E+02 -0.32594921468E+02  0.11879648326E+03  0.00000000000E+00 0. -1.
         21    1    1    2  504  503 -0.84723113702E+02 -0.15260337013E+03 -0.10678878824E+03  0.20462072198E+03  0.00000000000E+00 0.  1.
         21    1    1    2  505  502 -0.32193464106E+02  0.18488162704E+02 -0.97821333700E+02  0.10462908113E+03  0.00000000000E+00 0.  1.
         21    1    1    2  506  501  0.20376858193E+02  0.19519104608E+03  0.32457764165E+04  0.32517040619E+04  0.00000000000E+00 0.  1.
<scales pt_clust_3="102.25903" pt_clust_4="195.58954" pt_clust_5="37.12454" pt_clust_6="14000.00000"></scales>
<clustering>
<clus scale="   37.125">  2  5  1 -1</clus>
<clus scale="  102.259">  2  3  1 -1</clus>
<clus scale="  195.590">  2  4  1 -1</clus>
<clus scale="  195.590">  1  3  2 -1</clus>
</clustering>
</event>
<event>
 6    0  0.1080632E+003  0.9939077E+02  0.7546771E-02  0.1281582E+00
         21   -1    0    0  503  501  0.00000000000E+00  0.00000000000E+00  0.40768119809E+03  0.40768119809E+03  0.00000000000E+00 0.  1.
         21   -1    0    0  506  502 -0.00000000000E+00 -0.00000000000E+00 -0.91196996751E+02  0.91196996751E+02  0.00000000000E+00 0. -1.
         21    1    1    2  503  504  0.13442442268E+01  0.44153995410E+02  0.22532804148E+03  0.22961730898E+03  0.00000000000E+00 0.  1.
         21    1    1    2  504  505  0.18705396607E+02  0.73106121772E+02  0.59681476018E+02  0.96209539457E+02  0.00000000000E+00 0. -1.
         21    1    1    2  505  502 -0.36994680569E+02  0.95127616028E+01  0.23617811796E+02  0.44909910462E+02  0.00000000000E+00 0. -1.
         21    1    1    2  506  501  0.16945039736E+02 -0.12677287878E+03  0.78568720379E+01  0.12814143594E+03  0.00000000000E+00 0. -1.
<scales pt_clust_3="44.40872" pt_clust_4="99.39077" pt_clust_5="38.19815" pt_clust_6="14000.00000"></scales>
<clustering>
<clus scale="   38.198">  2  5  1 -1</clus>
<clus scale="   44.409">  1  3  2 -1</clus>
<clus scale="   99.391">  1  4  2 -1</clus>
<clus scale="   44.409">  1  3  2 -1</clus>
</clustering>
</event>
<event>
 6    0  0.1080632E+003  0.9024860E+02  0.7546771E-02  0.1302251E+00
         21   -1    0    0  504  501  0.00000000000E+00  0.00000000000E+00  0.21497514966E+03  0.21497514966E+03  0.00000000000E+00 0. -1.
         21   -1    0    0  503  502 -0.00000000000E+00 -0.00000000000E+00 -0.22210641803E+03  0.22210641803E+03  0.00000000000E+00 0. -1.
         21    1    1    2  503  506  0.24816561751E+02  0.26904958489E+02 -0.87970471431E+02  0.95281385235E+02  0.00000000000E+00 0. -1.
         21    1    1    2  504  502  0.24427254245E+02  0.10835364025E+03  0.42517756498E+02  0.11893259319E+03  0.00000000000E+00 0. -1.
         21    1    1    2  505  501 -0.79825028539E+02 -0.43661623004E+02  0.76653071771E+02  0.11897086163E+03  0.00000000000E+00 0. -1.
         21    1    1    2  506  505  0.30581212543E+02 -0.91596975732E+02 -0.38331625208E+02  0.10389672764E+03  0.00000000000E+00 0. -1.
<scales pt_clust_3="36.60244" pt_clust_4="90.24860" pt_clust_5="85.38231" pt_clust_6="14000.00000"></scales>
<clustering>
<clus scale="   36.602">  2  3  1 -1</clus>
<clus scale="   85.382">  1  5  2 -1</clus>
<clus scale="   90.249">  1  4  2 -1</clus>
<clus scale="   85.382">  1  3  2 -1</clus>
</clustering>
</event>
<event>
 6    0  0.1080632E+003  0.1653178E+03  0.7546771E-02  0.1182820E+00
         21   -1    0    0  505  501  0.00000000000E+00  0.00000000000E+00  0.31728986476E+03  0.31728986476E+03  0.00000000000E+00 0.  1.
         21   -1    0    0  504  502 -0.00000000000E+00 -0.00000000000E+00 -0.24587521836E+03  0.24587521836E+03  0.00000000000E+00 0.  1.
         21    1    1    2  503  506  0.60138009005E+02 -0.25828875507E+02 -0.68537182453E+02  0.94768435228E+02  0.00000000000E+00 0.  1.
         21    1    1    2  504  501 -0.14268123455E+03 -0.40854794515E+02  0.10511453947E+03  0.18186840115E+03  0.00000000000E+00 0.  1.
         21    1    1    2  505  503 -0.16793763428E+02  0.40549034590E+02  0.13566879035E+03  0.14259128786E+03  0.00000000000E+00 0.  1.
         21    1    1    2  506  502  0.99336988974E+02  0.26134635432E+02 -0.10083150096E+03  0.14393695889E+03  0.00000000000E+00 0.  1.
<scales pt_clust_3="42.70503" pt_clust_4="156.42196" pt_clust_5="43.88912" pt_clust_6="42.70503"></scales>
<clustering>
<clus scale="   42.705">  3  6 -1 -1</clus>
<clus scale="   43.889">  1  5  2 -1</clus>
<clus scale="  156.422">  1  4  2 -1</clus>
<clus scale="   43.889">  1  3  2 -1</clus>
</clustering>
</event>
<event>
 6    0  0.1080632E+003  0.1075160E+03  0.7546771E-02  0.1265240E+00
         21   -1    0    0  504  501  0.00000000000E+00  0.00000000000E+00  0.67063182445E+03  0.67063182445E+03  0.00000000000E+00 0. -1.
         21   -1    0    0  506  502 -0.00000000000E+00 -0.00000000000E+00 -0.44772583962E+02  0.44772583962E+02  0.00000000000E+00 0.  1.
         21    1    1    2  503  502 -0.43865955036E+02 -0.98359526498E+01  0.26836968092E+02  0.52356382917E+02  0.00000000000E+00 0.  1.
         21    1    1    2  504  503  0.62857374129E+02 -0.11865433864E+03  0.34664975728E+03  0.37174716647E+03  0.00000000000E+00 0. -1.
         21    1    1    2  505  501 -0.30365324850E+02  0.27414906542E+02  0.10057302621E+03  0.10857515210E+03  0.00000000000E+00 0.  1.
         21    1    1    2  506  505  0.11373905757E+02  0.10107538475E+03  0.15179948891E+03  0.18272570692E+03  0.00000000000E+00 0.  1.
<scales pt_clust_3="46.66673" pt_clust_4="14000.00000" pt_clust_5="40.91002" pt_clust_6="107.51601"></scales>
<clustering>
<clus scale="   40.910">  1  5  2 -1</clus>
<clus scale="   46.667">  2  3  1 -1</clus>
<clus scale="  107.516">  2  6  1 -1</clus>
<clus scale="   40.910">  1  3  2 -1</clus>
</clustering>
</event>
<event>
 6    0  0.1080632E+003  0.7791803E+02  0.7546771E-02  0.1335066E+00
         21   -1    0    0  503  501  0.00000000000E+00  0.00000000000E+00  0.24690191497E+04  0.24690191497E+04  0.00000000000E+00 0.  1.
         21   -1    0    0  506  502 -0.00000000000E+00 -0.00000000000E+00 -0.94972627825E+02  0.94972627825E+02  0.00000000000E+00 0.  1.
         21    1    1    2  503  505  0.55219153960E+02  0.17919245722E+02  0.38786415558E+03  0.39218472372E+03  0.00000000000E+00 0.  1.
         21    1    1    2  504  501 -0.28255801626E+02 -0.27095249676E+02  0.24749936813E+03  0.25057629597E+03  0.00000000000E+00 0.  1.
         21    1    1    2  505  502  0.30598975691E+02  0.71636403234E+02 -0.73475460483E+02  0.10708274779E+03  0.00000000000E+00 0.  1.
         21    1    1    2  506  504 -0.57562328026E+02 -0.62460399280E+02  0.18121584587E+04  0.18141480101E+04  0.00000000000E+00 0.  1.
<scales pt_clust_3="51.94918" pt_clust_4="39.14771" pt_clust_5="77.91803" pt_clust_6="14000.00000"></scales>
<clustering>
<clus scale="   39.148">  1  4  2 -1</clus>
<clus scale="   51.949">  1  3  2 -1</clus>
<clus scale="   77.918">  2  5  1 -1</clus>
<clus scale="   39.148">  1  3  2 -1</clus>
</clustering>
</event>
<event>
 6    0  0.1080632E+003  0.1217516E+03  0.7546771E-02  0.1240235E+00
         21   -1    0    0  505  501  0.00000000000E+00  0.00000000000E+00  0.30923979145E+03  0.30923979145E+03  0.00000000000E+00 0. -1.
         21   -1    0    0  506  502 -0.00000000000E+00 -0.00000000000E+00 -0.57323951245E+03  0.57323951245E+03  0.00000000000E+00 0. -1.
         21    1    1    2  503  502 -0.70942262646E+02 -0.21777961635E+02 -0.46495930099E+03  0.47084417360E+03  0.00000000000E+00 0. -1.
         21    1    1    2  504  501  0.11908025769E+03 -0.73024672157E+02  0.23774021804E+03  0.27574104118E+03  0.00000000000E+00 0. -1.
         21    1    1    2  505  503  0.75593686605E+01  0.61022826288E+02 -0.83680297694E+00  0.61494956069E+02  0.00000000000E+00 0. -1.
         21    1    1    2  506  504 -0.55697363706E+02  0.33779807505E+02 -0.35943835070E+02  0.74399133049E+02  0.00000000000E+00 0. -1.
<scales pt_clust_3="121.75156" pt_clust_4="14000.00000" pt_clust_5="61.48926" pt_clust_6="66.98806"></scales>
<clustering>
<clus scale="   61.489">  1  5  2 -1</clus>
<clus scale="   66.988">  2  6  1 -1</clus>
<clus scale="  121.752">  2  3  1 -1</clus>
<clus scale="   61.489">  1  3  2 -1</clus>
</clustering>
</event>
<event>
 6    0  0.1080632E+003  0.1067293E+03  0.7546771E-02  0.1266749E+00
         21   -1    0    0  503  501  0.00000000000E+00  0.00000000000E+00  0.90180542902E+02  0.90180542902E+02  0.00000000000E+00 0.  1.
         21   -1    0    0  505  502 -0.00000000000E+00 -0.00000000000E+00 -0.82185347565E+03  0.82185347565E+03  0.00000000000E+00 0. -1.
         21    1    1    2  503  504  0.42232780361E+02  0.41845749080E+02  0.14729984867E+02  0.61250689035E+02  0.00000000000E+00 0. -1.
         21    1    1    2  504  506  0.47333204990E+01  0.45765270094E+02  0.29085918073E+02  0.54432112763E+02  0.00000000000E+00 0.  1.
         21    1    1    2  505  501 -0.82013255429E+02 -0.59770715726E+02 -0.70884002477E+03  0.71606765968E+03  0.00000000000E+00 0. -1.
         21    1    1    2  506  502  0.35047154570E+02 -0.27840303449E+02 -0.66648810921E+02  0.80283557076E+02  0.00000000000E+00 0.  1.
<scales pt_clust_3="34.98045" pt_clust_4="34.98045" pt_clust_5="99.04526" pt_clust_6="44.75920"></scales>
<clustering>
<clus scale="   34.980">  3  4 -1 -1</clus>
<clus scale="   44.759">  2  6  1 -1</clus>
<clus scale="   99.045">  2  5  1 -1</clus>
<clus scale="  106.729">  1  3  2 -1</clus>
</clustering>
</event>
<event>
 6    0  0.1080632E+003  0.1769983E+03  0.7546771E-02  0.1170740E+00
         21   -1    0    0  503  501  0.00000000000E+00  0.00000000000E+00  0.18367308064E+03  0.18367308064E+03  0.00000000000E+00 0.  1.
         21   -1    0    0  504  502 -0.00000000000E+00 -0.00000000000E+00 -0.23083987951E+03  0.23083987951E+03  0.00000000000E+00 0.  1.
         21    1    1    2  503  505 -0.10426342601E+03  0.77155025193E+02  0.66352711284E+02  0.14569297241E+03  0.00000000000E+00 0.  1.
         21    1    1    2  504  506  0.34459079711E+02 -0.48390414714E+02 -0.53555477024E+02  0.79982807715E+02  0.00000000000E+00 0.  1.
         21    1    1    2  505  502 -0.43989955697E+02 -0.16696030487E+02  0.17991958299E+02  0.50374439944E+02  0.00000000000E+00 0.  1.
         21    1    1    2  506  501  0.11379430199E+03 -0.12068579993E+02 -0.77955991429E+02  0.13846274008E+03  0.00000000000E+00 0.  1.
<scales pt_clust_3="45.44835" pt_clust_4="49.86032" pt_clust_5="45.44835" pt_clust_6="174.42245"></scales>
<clustering>
<clus scale="   45.448">  3  5 -1 -1</clus>
<clus scale="   49.860">  4  6 -1 -1</clus>
<clus scale="  174.422">  2  4  1 -1</clus>
<clus scale="  176.998">  1  3  2 -1</clus>
</clustering>
</event>
<event>
 6    0  0.1080632E+003  0.8443178E+02  0.7546771E-02  0.1316925E+00
         21   -1    0    0  504  501  0.00000000000E+00  0.00000000000E+00  0.44238079287E+03  0.44238079287E+03  0.00000000000E+00 0.  1.
         21   -1    0    0  506  502 -0.00000000000E+00 -0.00000000000E+00 -0.12761107497E+03  0.12761107497E+03  0.00000000000E+00 0.  1.
         21    1    1    2  503  501  0.44739779899E+02 -0.27355107323E+02  0.31726531633E+03  0.32156994690E+03  0.00000000000E+00 0.  1.
         21    1    1    2  504  502 -0.89678509421E+00 -0.38296156163E+02  0.27696732900E+02  0.47270591425E+02  0.00000000000E+00 0. -1.
         21    1    1    2  505  503  0.52077656346E+02  0.64044057262E+02  0.30079558931E+02  0.87855013667E+02  0.00000000000E+00 0.  1.
         21    1    1    2  506  505 -0.95920651150E+02  0.16072062242E+01 -0.60271890267E+02  0.11329631585E+03  0.00000000000E+00 0.  1.
<scales pt_clust_3="72.47576" pt_clust_4="38.30665" pt_clust_5="14000.00000" pt_clust_6="84.43178"></scales>
<clustering>
<clus scale="   38.307">  1  4  2 -1</clus>
<clus scale="   72.476">  1  3  2 -1</clus>
<clus scale="   84.432">  2  6  1 -1</clus>
<clus scale="   38.307">  1  3  2 -1</clus>
</clustering>
</event>
<event>
 6    0  0.1080632E+003  0.1361551E+03  0.7546771E-02  0.1218598E+00
         21   -1    0    0  502  501  0.00000000000E+00  0.00000000000E+00  0.75800501076E+02  0.75800501076E+02  0.00000000000E+00 0.  1.
         21   -1    0    0  506  502 -0.00000000000E+00 -0.00000000000E+00 -0.87012847550E+03  0.87012847550E+03  0.00000000000E+00 0. -1.
         21    1    1    2  503  505 -0.11583716770E+02  0.15492253288E+03 -0.84191598349E+02  0.17670144006E+03  0.00000000000E+00 0.  1.
         21    1    1    2  504  503  0.26861886909E+02 -0.10102770398E+03 -0.23426483284E+03  0.25653103096E+03  0.00000000000E+00 0. -1.
         21    1    1    2  505  501 -0.39726636355E+02 -0.73515279871E+01 -0.71417088111E+01  0.41027485964E+02  0.00000000000E+00 0.  1.
         21    1    1    2  506  504  0.24448466216E+02 -0.46543300916E+02 -0.46872983443E+03  0.47166901959E+03  0.00000000000E+00 0. -1.
<scales pt_clust_3="14000.00000" pt_clust_4="136.15507" pt_clust_5="40.40112" pt_clust_6="52.28393"></scales>
<clustering>
<clus scale="   40.401">  1  5  2 -1</clus>
<clus scale="   52.284">  2  6  1 -1</clus>
<clus scale="  136.155">  2  4  1 -1</clus>
<clus scale="   40.401">  1  3  2 -1</clus>
</clustering>
</event>
<event>
 6    0  0.1080632E+003  0.7821767E+02  0.7546771E-02  0.1334187E+00
         21   -1    0    0  505  501  0.00000000000E+00  0.00000000000E+00  0.63944078698E+03  0.63944078698E+03  0.00000000000E+00 0.  1.
         21   -1    0    0  506  502 -0.00000000000E+00 -0.00000000000E+00 -0.15563471625E+03  0.15563471625E+03  0.00000000000E+00 0. -1.
         21    1    1    2  503  502  0.41146941143E+02  0.49071494512E+02 -0.91724477919E+02  0.11186805705E+03  0.00000000000E+00 0. -1.
         21    1    1    2  504  501  0.50072707775E+02  0.40922062865E+02  0.90273641518E+02  0.11104603390E+03  0.00000000000E+00 0.  1.
         21    1    1    2  505  503 -0.87252869205E+02 -0.34798919126E+01  0.47726638964E+03  0.48518901421E+03  0.00000000000E+00 0.  1.
         21    1    1    2  506  504 -0.39667797128E+01 -0.86513665465E+02  0.79905174921E+01  0.86972398054E+02  0.00000000000E+00 0.  1.
<scales pt_clust_3="64.03969" pt_clust_4="14000.00000" pt_clust_5="78.21767" pt_clust_6="56.91590"></scales>
<clustering>
<clus scale="   64.040">  2  3  1 -1</clus>
<clus scale="   56.916">  2  6  1 -1</clus>
<clus scale="   78.218">  1  5  2 -1</clus>
<clus scale="   78.218">  1  3  2 -1</clus>
</clustering>
</event>
<event>
 6    0  0.1080632E+003  0.7685297E+02  0.7546771E-02  0.1338227E+00
         21   -1    0    0  503  501  0.00000000000E+00  0.00000000000E+00  0.13649671233E+03  0.13649671233E+03  0.00000000000E+00 0. -1.
         21   -1    0    0  505  502 -0.00000000000E+00 -0.00000000000E+00 -0.59449747056E+03  0.59449747056E+03  0.00000000000E+00 0.  1.
         21    1    1    2  503  506  0.96859705773E+02  0.44768693551E+02 -0.16091051688E+03  0.19307571822E+03  0.00000000000E+00 0. -1.
         21    1    1    2  504  501 -0.67902105566E+02 -0.31083466143E+02  0.95248220139E+02  0.12103347160E+03  0.00000000000E+00 0. -1.
         21    1    1    2  505  504  0.30325515087E+02 -0.27190426696E+02 -0.32949895166E+02  0.52389424130E+02  0.00000000000E+00 0. -1.
         21    1    1    2  506  502 -0.59283115293E+02  0.13505199288E+02 -0.35938856633E+03  0.36449556894E+03  0.00000000000E+00 0.  1.
<scales pt_clust_3="14000.00000" pt_clust_4="76.85297" pt_clust_5="40.73029" pt_clust_6="39.62985"></scales>
<clustering>
<clus scale="   40.730">  2  5  1 -1</clus>
<clus scale="   39.630">  2  6  1 -1</clus>
<clus scale="   76.853">  1  4  2 -1</clus>
<clus scale="   76.853">  1  3  2 -1</clus>
</clustering>
</event>
<event>
 6    0  0.1080632E+003  0.1182678E+03  0.7546771E-02  0.1245982E+00
         21   -1    0    0  503  501  0.00000000000E+00  0.00000000000E+00  0.26461236515E+04  0.26461236515E+04  0.00000000000E+00 0.  1.
         21   -1    0    0  505  502 -0.00000000000E+00 -0.00000000000E+00 -0.71842822425E+02  0.71842822425E+02  0.00000000000E+00 0.  1.
         21    1    1    2  503  502  0.44061594680E+02  0.26377405019E+02  0.17438399618E+04  0.17445959429E+04  0.00000000000E+00 0.  1.
         21    1    1    2  504  501 -0.30493249854E+02 -0.34318610780E+02  0.41941549087E+03  0.42192056043E+03  0.00000000000E+00 0.  1.
         21    1    1    2  505  506  0.11931680290E+02  0.10164565056E+03 -0.24494872514E+02  0.10523403466E+03  0.00000000000E+00 0.  1.
         21    1    1    2  506  504 -0.25500025116E+02 -0.93704444798E+02  0.43552024887E+03  0.44621593588E+03  0.00000000000E+00 0.  1.
<scales pt_clust_3="51.35359" pt_clust_4="39.01990" pt_clust_5="103.76208" pt_clust_6="39.01990"></scales>
<clustering>
<clus scale="   39.020">  4  6 -1 -1</clus>
<clus scale="   51.354">  1  3  2 -1</clus>
<clus scale="  103.762">  2  5  1 -1</clus>
<clus scale="   51.354">  1  3  2 -1</clus>
</clustering>
</event>
<event>
 6    0  0.1080632E+003  0.1260385E+03  0.7546771E-02  0.1233455E+00
         21   -1    0    0  503  501  0.00000000000E+00  0.00000000000E+00  0.11738174477E+04  0.11738174477E+04  0.00000000000E+00 0.  1.
         21   -1    0    0  505  502 -0.00000000000E+00 -0.00000000000E+00 -0.17578377895E+03  0.17578377895E+03  0.00000000000E+00 0.  1.
         21    1    1    2  503  502  0.11726569249E+03 -0.57275813253E+02  0.93388665856E+03  0.94296132076E+03  0.00000000000E+00 0.  1.
         21    1    1    2  504  501 -0.12615385221E+03 -0.42759897323E+02  0.13874968521E+03  0.19234000726E+03  0.00000000000E+00 0.  1.
         21    1    1    2  505  506  0.47738397201E+02  0.18368338317E+02 -0.10670712059E+03  0.11833325824E+03  0.00000000000E+00 0.  1.
         21    1    1    2  506  504 -0.38850237478E+02  0.81667372259E+02  0.32104445573E+02  0.95966640398E+02  0.00000000000E+00 0.  1.
<scales pt_clust_3="14000.00000" pt_clust_4="126.03849" pt_clust_5="51.15027" pt_clust_6="92.12772"></scales>
<clustering>
<clus scale="   51.150">  2  5  1 -1</clus>
<clus scale="   92.128">  2  6  1 -1</clus>
<clus scale="  126.038">  2  4  1 -1</clus>
<clus scale="  126.038">  1  3  2 -1</clus>
</clustering>
</event>
<event>
 6    0  0.1080632E+003  0.1355991E+03  0.7546771E-02  0.1219376E+00
         21   -1    0    0  502  501  0.00000000000E+00  0.00000000000E+00  0.29778943089E+03  0.29778943089E+03  0.00000000000E+00 0.  1.
         21   -1    0    0  503  502 -0.00000000000E+00 -0.00000000000E+00 -0.94187705039E+02  0.94187705039E+02  0.00000000000E+00 0.  1.
         21    1    1    2  503  504 -0.12800440828E+02  0.27815810557E+02 -0.99345018392E+00  0.30635886565E+02  0.00000000000E+00 0.  1.
         21    1    1    2  504  505 -0.57647904473E+02  0.34947921868E+01  0.24866525329E+02  0.62879555855E+02  0.00000000000E+00 0.  1.
         21    1    1    2  505  506 -0.61624288300E+02 -0.88991271168E+01 -0.13139643367E+02  0.63634877228E+02  0.00000000000E+00 0.  1.
         21    1    1    2  506  501  0.13207263360E+03 -0.22411475627E+02  0.19286829407E+03  0.23482681628E+03  0.00000000000E+00 0.  1.
<scales pt_clust_3="30.61977" pt_clust_4="38.21579" pt_clust_5="38.21579" pt_clust_6="129.51371"></scales>
<clustering>
<clus scale="   30.620">  2  3  1 -1</clus>
<clus scale="   38.216">  4  5 -1 -1</clus>
<clus scale="  129.514">  1  6  2 -1</clus>
<clus scale="  129.514">  1  3  2 -1</clus>
</clustering>
</event>
<event>
 6    0  0.1080632E+003  0.7305396E+02  0.7546771E-02  0.1350005E+00
         21   -1    0    0  503  501  0.00000000000E+00  0.00000000000E+00  0.56224292542E+02  0.56224292542E+02  0.00000000000E+00 0. -1.
         21   -1    0    0  501  502 -0.00000000000E+00 -0.00000000000E+00 -0.29961055299E+04  0.29961055299E+04  0.00000000000E+00 0.  1.
         21    1    1    2  503  504  0.44369933580E+02  0.23930722466E+02  0.38623417970E+02  0.63506998822E+02  0.00000000000E+00 0. -1.
         21    1    1    2  504  505 -0.93823773110E+02  0.29377653290E+02 -0.61433170095E+03  0.62214900603E+03  0.00000000000E+00 0.  1.
         21    1    1    2  505  506  0.16527788691E+02 -0.69821339317E+02 -0.14954431382E+04  0.14971634402E+04  0.00000000000E+00 0.  1.
         21    1    1    2  506  502  0.32926050839E+02  0.16512963561E+02 -0.86872981615E+03  0.86951037732E+03  0.00000000000E+00 0. -1.
<scales pt_clust_3="50.62738" pt_clust_4="73.05396" pt_clust_5="14000.00000" pt_clust_6="36.83480"></scales>
<clustering>
<clus scale="   36.835">  2  6  1 -1</clus>
<clus scale="   50.627">  1  3  2 -1</clus>
<clus scale="   73.054">  1  4  2 -1</clus>
<clus scale="   50.627">  1  3  2 -1</clus>
</clustering>
</event>
<event>
 6    0  0.1080632E+003  0.1154040E+03  0.7546771E-02  0.1250878E+00
         21   -1    0    0  506  501  0.00000000000E+00  0.00000000000E+00  0.16532237711E+04  0.16532237711E+04  0.00000000000E+00 0. -1.
         21   -1    0    0  504  502 -0.00000000000E+00 -0.00000000000E+00 -0.27908493409E+02  0.27908493409E+02  0.00000000000E+00 0. -1.
         21    1    1    2  503  502  0.22913343397E+02  0.40223040459E+02  0.71719548961E+01  0.46843902767E+02  0.00000000000E+00 0. -1.
         21    1    1    2  504  501  0.48633968369E+02  0.64432592338E+02  0.35785617082E+03  0.36684855299E+03  0.00000000000E+00 0. -1.
         21    1    1    2  505  503 -0.61658656484E+02 -0.61847417139E+02  0.69872625656E+03  0.70416281820E+03  0.00000000000E+00 0. -1.
         21    1    1    2  506  505 -0.98886552817E+01 -0.42808215659E+02  0.56156089539E+03  0.56327699054E+03  0.00000000000E+00 0. -1.
<scales pt_clust_3="46.29162" pt_clust_4="106.34822" pt_clust_5="31.78472" pt_clust_6="31.78472"></scales>
<clustering>
<clus scale="   31.785">  5  6 -1 -1</clus>
<clus scale="   46.292">  2  3  1 -1</clus>
<clus scale="  106.348">  2  4  1 -1</clus>
<clus scale="  115.404">  1  3  2 -1</clus>
</clustering>
</event>
<event>
 6    0  0.1080632E+003  0.1109899E+03  0.7546771E-02  0.1258748E+00
         21   -1    0    0  506  501  0.00000000000E+00  0.00000000000E+00  0.11847222573E+04  0.11847222573E+04  0.00000000000E+00 0.  1.
         21   -1    0    0  505  502 -0.00000000000E+00 -0.00000000000E+00 -0.49201137954E+02  0.49201137954E+02  0.00000000000E+00 0.  1.
         21    1    1    2  503  504 -0.41298023361E+02  0.25787635844E+02  0.14886643027E+03  0.15662612476E+03  0.00000000000E+00 0.  1.
         21    1    1    2  504  501  0.20383949882E+01  0.11724956640E+03  0.32125828912E+03  0.34199196512E+03  0.00000000000E+00 0.  1.
         21    1    1    2  505  503  0.13249933220E+02 -0.36697072156E+02 -0.18162014992E+02  0.43035968953E+02  0.00000000000E+00 0.  1.
         21    1    1    2  506  502  0.26009695153E+02 -0.10634013009E+03  0.68355841490E+03  0.69226933637E+03  0.00000000000E+00 0.  1.
<scales pt_clust_3="42.58801" pt_clust_4="14000.00000" pt_clust_5="39.01584" pt_clust_6="110.98995"></scales>
<clustering>
<clus scale="   39.016">  2  5  1 -1</clus>
<clus scale="   42.588">  2  3  1 -1</clus>
<clus scale="  110.990">  1  6  2 -1</clus>
<clus scale="  110.990">  1  3  2 -1</clus>
</clustering>
</event>
<event>
 6    0  0.1080632E+003  0.1001049E+03  0.7546771E-02  0.1280075E+00
         21   -1    0    0  506  501  0.00000000000E+00  0.00000000000E+00  0.50632541590E+03  0.50632541590E+03  0.00000000000E+00 0. -1.
         21   -1    0    0  504  502 -0.00000000000E+00 -0.00000000000E+00 -0.36344265189E+03  0.36344265189E+03  0.00000000000E+00 0. -1.
         21    1    1    2  503  501 -0.20339773549E+02  0.36321536186E+02  0.17881164702E+03  0.18359347888E+03  0.00000000000E+00 0.  1.
         21    1    1    2  504  503  0.14656140967E+02  0.56953843448E+02  0.42174386720E+02  0.72368650995E+02  0.00000000000E+00 0. -1.
         21    1    1    2  505  502 -0.38184253618E+02 -0.98936933140E+02 -0.33589940733E+03  0.35224276545E+03  0.00000000000E+00 0. -1.
         21    1    1    2  506  505  0.43867886200E+02  0.56615535057E+01  0.25779613760E+03  0.26156317247E+03  0.00000000000E+00 0. -1.
<scales pt_clust_3="41.62884" pt_clust_4="14000.00000" pt_clust_5="100.10491" pt_clust_6="44.32987"></scales>
<clustering>
<clus scale="   41.629">  1  3  2 -1</clus>
<clus scale="   44.330">  1  6  2 -1</clus>
<clus scale="  100.105">  2  5  1 -1</clus>
<clus scale="   41.629">  1  3  2 -1</clus>
</clustering>
</event>
<event>
 6    0  0.1080632E+003  0.1620472E+03  0.7546771E-02  0.1186405E+00
         21   -1    0    0  506  501  0.00000000000E+00  0.00000000000E+00  0.10241893665E+04  0.10241893665E+04  0.00000000000E+00 0. -1.
         21   -1    0    0  503  502 -0.00000000000E+00 -0.00000000000E+00 -0.12541376881E+03  0.12541376881E+03  0.00000000000E+00 0. -1.
         21    1    1    2  503  501 -0.12901618760E+03  0.86555827120E+02 -0.48409821590E+02  0.16272860442E+03  0.00000000000E+00 0. -1.
         21    1    1    2  504  505  0.47564343819E+02 -0.48736580912E+02  0.12172262542E+03  0.13947766366E+03  0.00000000000E+00 0.  1.
         21    1    1    2  505  502  0.22490366332E+02 -0.90922886118E+02  0.25924626968E+03  0.27564726761E+03  0.00000000000E+00 0. -1.
         21    1    1    2  506  504  0.58961477449E+02  0.53103639910E+02  0.56621652415E+03  0.57174959958E+03  0.00000000000E+00 0. -1.
<scales pt_clust_3="153.23285" pt_clust_4="44.95025" pt_clust_5="44.95025" pt_clust_6="79.35019"></scales>
<clustering>
<clus scale="   44.950">  4  5 -1 -1</clus>
<clus scale="   79.350">  1  6  2 -1</clus>
<clus scale="  153.233">  2  3  1 -1</clus>
<clus scale="   79.350">  1  3  2 -1</clus>
</clustering>
</event>
<event>
 6    0  0.1080632E+003  0.1943798E+03  0.7546771E-02  0.1154569E+00
         21   -1    0    0  506  501  0.00000000000E+00  0.00000000000E+00  0.30787227611E+03  0.30787227611E+03  0.00000000000E+00 0.  1.
         21   -1    0    0  503  502 -0.00000000000E+00 -0.00000000000E+00 -0.40451120701E+03  0.40451120701E+03  0.00000000000E+00 0. -1.
         21    1    1    2  503  504 -0.96803797134E+02  0.59022837125E+02  0.32409818487E+02  0.11791974718E+03  0.00000000000E+00 0.  1.
         21    1    1    2  504  501 -0.43458222841E+02 -0.13562661267E+02 -0.71908375920E+01  0.46089815127E+02  0.00000000000E+00 0.  1.
         21    1    1    2  505  502  0.17327018514E+03 -0.85301426519E+02 -0.30337227016E+03  0.35962984404E+03  0.00000000000E+00 0. -1.
         21    1    1    2  506  505 -0.33008165170E+02  0.39841250661E+02  0.18151435836E+03  0.18874407677E+03  0.00000000000E+00 0.  1.
<scales pt_clust_3="42.61659" pt_clust_4="42.61659" pt_clust_5="182.37444" pt_clust_6="51.73842"></scales>
<clustering>
<clus scale="   42.617">  3  4 -1 -1</clus>
<clus scale="   51.738">  1  6  2 -1</clus>
<clus scale="  182.374">  2  5  1 -1</clus>
<clus scale="   51.738">  1  3  2 -1</clus>
</clustering>
</event>
<event>
 6    0  0.1080632E+003  0.1295513E+03  0.7546771E-02  0.1228123E+00
         21   -1    0    0  504  501  0.00000000000E+00  0.00000000000E+00  0.39554130938E+02  0.39554130938E+02  0.00000000000E+00 0. -1.
         21   -1    0    0  505  502 -0.00000000000E+00 -0.00000000000E+00 -0.12697398017E+04  0.12697398017E+04  0.00000000000E+00 0.  1.
         21    1    1    2  503  502  0.27220512640E+02 -0.49673607192E+02 -0.43916638794E+03  0.44280417777E+03  0.00000000000E+00 0.  1.
         21    1    1    2  504  503 -0.50594496948E+01 -0.80173485744E+02 -0.67390942159E+03  0.67868055398E+03  0.00000000000E+00 0.  1.
         21    1    1    2  505  506 -0.29749209227E+01  0.93200999376E+02 -0.11260104201E+03  0.14619942237E+03  0.00000000000E+00 0.  1.
         21    1    1    2  506  501 -0.19186142023E+02  0.36646093560E+02 -0.45088192499E+01  0.41609778538E+02  0.00000000000E+00 0. -1.
<scales pt_clust_3="31.85196" pt_clust_4="31.85196" pt_clust_5="123.87362" pt_clust_6="41.36477"></scales>
<clustering>
<clus scale="   31.852">  3  4 -1 -1</clus>
<clus scale="   41.365">  1  6  2 -1</clus>
<clus scale="  123.874">  1  5  2 -1</clus>
<clus scale="   41.365">  1  3  2 -1</clus>
</clustering>
</event>
<event>
 6    0  0.1080632E+003  0.3122501E+03  0.7546771E-02  0.1079272E+00
         21   -1    0    0  503  501  0.00000000000E+00  0.00000000000E+00  0.62399361916E+03  0.62399361916E+03  0.00000000000E+00 0. -1.
         21   -1    0    0  506  502 -0.00000000000E+00 -0.00000000000E+00 -0.80548974140E+03  0.80548974140E+03  0.00000000000E+00 0.  1.
         21    1    1    2  503  505  0.34885310004E+02 -0.67470630766E+02  0.28832414555E+02  0.81243947461E+02  0.00000000000E+00 0. -1.
         21    1    1    2  504  501 -0.35088749094E+03  0.47773388568E+02  0.45660209941E+03  0.57783198695E+03  0.00000000000E+00 0. -1.
         21    1    1    2  505  502  0.24484898953E+03  0.83624071512E+01 -0.65243095756E+03  0.69691255686E+03  0.00000000000E+00 0.  1.
         21    1    1    2  506  504  0.71153191401E+02  0.11334835047E+02 -0.14499678651E+02  0.73494869297E+02  0.00000000000E+00 0. -1.
<scales pt_clust_3="76.76995" pt_clust_4="312.25014" pt_clust_5="14000.00000" pt_clust_6="72.05037"></scales>
<clustering>
<clus scale="   72.050">  2  6  1 -1</clus>
<clus scale="   76.770">  1  3  2 -1</clus>
<clus scale="  312.250">  1  4  2 -1</clus>
<clus scale="   76.770">  1  3  2 -1</clus>
</clustering>
</event>
<event>
 6    0  0.1080632E+003  0.1780197E+03  0.7546771E-02  0.1169733E+00
         21   -1    0    0  506  501  0.00000000000E+00  0.00000000000E+00  0.54479930310E+03  0.54479930310E+03  0.00000000000E+00 0. -1.
         21   -1    0    0  504  502 -0.00000000000E+00 -0.00000000000E+00 -0.12613627657E+03  0.12613627657E+03  0.00000000000E+00 0.  1.
         21    1    1    2  503  501  0.61514960872E+02 -0.19561689492E+02  0.25865352428E+03  0.26658656330E+03  0.00000000000E+00 0. -1.
         21    1    1    2  504  505 -0.78338281420E+02  0.72916430319E+02  0.26108612998E+02  0.11016057289E+03  0.00000000000E+00 0.  1.
         21    1    1    2  505  503 -0.75464727653E+02  0.36459466253E+02 -0.27043077614E+02  0.88065576964E+02  0.00000000000E+00 0.  1.
         21    1    1    2  506  502  0.92288048200E+02 -0.89814207080E+02  0.16094396686E+03  0.20612286652E+03  0.00000000000E+00 0. -1.
<scales pt_clust_3="64.55037" pt_clust_4="53.64130" pt_clust_5="53.64130" pt_clust_6="167.38204"></scales>
<clustering>
<clus scale="   53.641">  4  5 -1 -1</clus>
<clus scale="   64.550">  1  3  2 -1</clus>
<clus scale="  167.382">  1  6  2 -1</clus>
<clus scale="   64.550">  1  3  2 -1</clus>
</clustering>
</event>
<event>
 6    0  0.1080632E+003  0.1473518E+03  0.7546771E-02  0.1203765E+00
         21   -1    0    0  503  501  0.00000000000E+00  0.00000000000E+00  0.13091899769E+03  0.13091899769E+03  0.00000000000E+00 0. -1.
         21   -1    0    0  506  502 -0.00000000000E+00 -0.00000000000E+00 -0.12126753624E+04  0.12126753624E+04  0.00000000000E+00 0.  1.
         21    1    1    2  503  504  0.40136926296E+02 -0.94057602426E+02  0.75327979316E+02  0.12701224309E+03  0.00000000000E+00 0. -1.
         21    1    1    2  504  502 -0.18326067058E+02  0.47174398284E+02 -0.64444211785E+03  0.64642626172E+03  0.00000000000E+00 0.  1.
         21    1    1    2  505  501 -0.18858961169E+02 -0.66057838896E+02 -0.30871402221E+02  0.75314951843E+02  0.00000000000E+00 0.  1.
         21    1    1    2  506  505 -0.29518980684E+01  0.11294104304E+03 -0.48177082393E+03  0.49484090341E+03  0.00000000000E+00 0.  1.
<scales pt_clust_3="14000.00000" pt_clust_4="50.60898" pt_clust_5="64.98524" pt_clust_6="147.35184"></scales>
<clustering>
<clus scale="   50.609">  2  4  1 -1</clus>
<clus scale="   64.985">  1  5  2 -1</clus>
<clus scale="  147.352">  2  6  1 -1</clus>
<clus scale="   64.985">  1  3  2 -1</clus>
</clustering>
</event>
<event>
 6    0  0.1080632E+003  0.1024244E+03  0.7546771E-02  0.1275279E+00
         21   -1    0    0  505  501  0.00000000000E+00  0.00000000000E+00  0.14074073982E+03  0.14074073982E+03  0.00000000000E+00 0. -1.
         21   -1    0    0  506  502 -0.00000000000E+00 -0.00000000000E+00 -0.33891691117E+03  0.33891691117E+03  0.00000000000E+00 0.  1.
         21    1    1    2  503  501  0.31550689889E+02  0.50572087953E+01  0.16786327496E+02  0.36094351138E+02  0.00000000000E+00 0.  1.
         21    1    1    2  504  503 -0.11069056301E+02  0.79460257206E+02 -0.56195367639E+02  0.97950884767E+02  0.00000000000E+00 0.  1.
         21    1    1    2  505  502  0.15530479117E+02 -0.11246407562E+03  0.55626388609E+02  0.12642649721E+03  0.00000000000E+00 0. -1.
         21    1    1    2  506  504 -0.36012112705E+02  0.27946609622E+02 -0.21439351983E+03  0.21918591787E+03  0.00000000000E+00 0.  1.
<scales pt_clust_3="31.95343" pt_clust_4="102.42444" pt_clust_5="14000.00000" pt_clust_6="45.12893"></scales>
<clustering>
<clus scale="   31.953">  1  3  2 -1</clus>
<clus scale="   45.129">  2  6  1 -1</clus>
<clus scale="  102.424">  2  4  1 -1</clus>
<clus scale="   31.953">  1  3  2 -1</clus>
</clustering>
</event>
<event>
 6    0  0.1080632E+003  0.1040755E+03  0.7546771E-02  0.1271952E+00
         21   -1    0    0  504  501  0.00000000000E+00  0.00000000000E+00  0.53264632254E+03  0.53264632254E+03  0.00000000000E+00 0.  1.
         21   -1    0    0  505  502 -0.00000000000E+00 -0.00000000000E+00 -0.44721348088E+03  0.44721348088E+03  0.00000000000E+00 0.  1.
         21    1    1    2  503  506 -0.69842126874E+02 -0.33470611581E+02  0.30987205205E+03  0.31940396548E+03  0.00000000000E+00 0.  1.
         21    1    1    2  504  502  0.85063674280E+02  0.59896626121E+02 -0.41460389843E+03  0.42745739799E+03  0.00000000000E+00 0.  1.
         21    1    1    2  505  503 -0.20494253261E+02  0.24847864974E+02 -0.36791921867E+01  0.32418625289E+02  0.00000000000E+00 0. -1.
         21    1    1    2  506  501  0.52727058545E+01 -0.51273879515E+02  0.19384388023E+03  0.20057981466E+03  0.00000000000E+00 0.  1.
<scales pt_clust_3="104.07550" pt_clust_4="14000.00000" pt_clust_5="32.20917" pt_clust_6="51.33404"></scales>
<clustering>
<clus scale="   32.209">  2  5  1 -1</clus>
<clus scale="   51.334">  1  6  2 -1</clus>
<clus scale="  104.075">  1  3  2 -1</clus>
<clus scale="   51.334">  1  3  2 -1</clus>
</clustering>
</event>
<event>
 6    0  0.1080632E+003  0.6347893E+02  0.7546771E-02  0.1383786E+00
         21   -1    0    0  505  501  0.00000000000E+00  0.00000000000E+00  0.11151601778E+04  0.11151601778E+04  0.00000000000E+00 0.  1.
         21   -1    0    0  503  502 -0.00000000000E+00 -0.00000000000E+00 -0.10844491417E+03  0.10844491417E+03  0.00000000000E+00 0.  1.
         21    1    1    2  503  506 -0.48090034245E+02  0.40091262252E+02 -0.86989832278E+02  0.10717831694E+03  0.00000000000E+00 0.  1.
         21    1    1    2  504  502  0.62361051157E+02 -0.11082689359E+03  0.63972931153E+03  0.65224619054E+03  0.00000000000E+00 0.  1.
         21    1    1    2  505  504  0.14916273679E+02  0.48238904920E+02  0.35489132190E+03  0.35846525289E+03  0.00000000000E+00 0.  1.
         21    1    1    2  506  501 -0.29187290591E+02  0.22496726418E+02  0.99084462503E+02  0.10571533163E+03  0.00000000000E+00 0.  1.
<scales pt_clust_3="63.47893" pt_clust_4="14000.00000" pt_clust_5="56.35300" pt_clust_6="36.85106"></scales>
<clustering>
<clus scale="   36.851">  1  6  2 -1</clus>
<clus scale="   56.353">  1  5  2 -1</clus>
<clus scale="   63.479">  2  3  1 -1</clus>
<clus scale="   36.851">  1  3  2 -1</clus>
</clustering>
</event>
<event>
 6    0  0.1080632E+003  0.1114723E+03  0.7546771E-02  0.1257867E+00
         21   -1    0    0  505  501  0.00000000000E+00  0.00000000000E+00  0.34057398298E+03  0.34057398298E+03  0.00000000000E+00 0.  1.
         21   -1    0    0  506  502 -0.00000000000E+00 -0.00000000000E+00 -0.21492681122E+03  0.21492681122E+03  0.00000000000E+00 0.  1.
         21    1    1    2  503  504  0.69260793204E+02  0.34171189004E+02 -0.31998920736E+02  0.83598197119E+02  0.00000000000E+00 0. -1.
         21    1    1    2  504  501  0.28004814534E+02 -0.13721384957E+02  0.14042985274E+03  0.14385092833E+03  0.00000000000E+00 0.  1.
         21    1    1    2  505  502 -0.14754054717E+03 -0.71360861102E+01  0.13448778493E+03  0.19976511478E+03  0.00000000000E+00 0.  1.
         21    1    1    2  506  503  0.50274939436E+02 -0.13313717937E+02 -0.11727154518E+03  0.12828655397E+03  0.00000000000E+00 0.  1.
<scales pt_clust_3="14000.00000" pt_clust_4="31.18567" pt_clust_5="111.47231" pt_clust_6="52.85706"></scales>
<clustering>
<clus scale="   31.186">  1  4  2 -1</clus>
<clus scale="   52.857">  2  6  1 -1</clus>
<clus scale="  111.472">  1  5  2 -1</clus>
<clus scale="   31.186">  1  3  2 -1</clus>
</clustering>
</event>
<event>
 6    0  0.1080632E+003  0.8961813E+02  0.7546771E-02  0.1303779E+00
         21   -1    0    0  503  501  0.00000000000E+00  0.00000000000E+00  0.13252613589E+04  0.13252613589E+04  0.00000000000E+00 0. -1.
         21   -1    0    0  505  502 -0.00000000000E+00 -0.00000000000E+00 -0.98683055827E+02  0.98683055827E+02  0.00000000000E+00 0.  1.
         21    1    1    2  503  502  0.91663754380E+02  0.61615757573E+02  0.16160897188E+03  0.19574525598E+03  0.00000000000E+00 0.  1.
         21    1    1    2  504  501 -0.36345312166E+02 -0.11744284170E+02  0.94401930074E+03  0.94479169667E+03  0.00000000000E+00 0. -1.
         21    1    1    2  505  506  0.13009928356E+02 -0.34365229314E+02 -0.70520611414E+02  0.79519707343E+02  0.00000000000E+00 0.  1.
         21    1    1    2  506  504 -0.68328370570E+02 -0.15506244089E+02  0.19147064182E+03  0.20388775469E+03  0.00000000000E+00 0. -1.
<scales pt_clust_3="14000.00000" pt_clust_4="38.17079" pt_clust_5="36.74544" pt_clust_6="89.61813"></scales>
<clustering>
<clus scale="   36.745">  2  5  1 -1</clus>
<clus scale="   38.171">  1  4  2 -1</clus>
<clus scale="   89.618">  1  6  2 -1</clus>
<clus scale="   38.171">  1  3  2 -1</clus>
</clustering>
</event>
<event>
 6    0  0.1080632E+003  0.7903260E+02  0.7546771E-02  0.1331819E+00
         21   -1    0    0  505  501  0.00000000000E+00  0.00000000000E+00  0.35103240344E+02  0.35103240344E+02  0.00000000000E+00 0. -1.
         21   -1    0    0  504  502 -0.00000000000E+00 -0.00000000000E+00 -0.95268547699E+03  0.95268547699E+03  0.00000000000E+00 0. -1.
         21    1    1    2  503  501 -0.42187398369E+02  0.23852593164E+02 -0.21604626872E+02  0.53061122153E+02  0.00000000000E+00 0. -1.
         21    1    1    2  504  503  0.42776066149E+02  0.46780389142E+02 -0.20002960831E+03  0.20983336447E+03  0.00000000000E+00 0. -1.
         21    1    1    2  505  506 -0.60274498752E+02 -0.66840107384E+02 -0.14467248073E+03  0.17038410089E+03  0.00000000000E+00 0. -1.
         21    1    1    2  506  502  0.59685830972E+02 -0.37928749217E+01 -0.55127552073E+03  0.55451012983E+03  0.00000000000E+00 0. -1.
<scales pt_clust_3="48.46362" pt_clust_4="79.03260" pt_clust_5="14000.00000" pt_clust_6="56.19318"></scales>
<clustering>
<clus scale="   48.464">  1  3  2 -1</clus>
<clus scale="   56.193">  2  6  1 -1</clus>
<clus scale="   79.033">  2  4  1 -1</clus>
<clus scale="   48.464">  1  3  2 -1</clus>
</clustering>
</event>
<event>
 6    0  0.1080632E+003  0.1334353E+03  0.7546771E-02  0.1222446E+00
         21   -1    0    0  505  501  0.00000000000E+00  0.00000000000E+00  0.36348940698E+03  0.36348940698E+03  0.00000000000E+00 0. -1.
         21   -1    0    0  506  502 -0.00000000000E+00 -0.00000000000E+00 -0.15649807539E+03  0.15649807539E+03  0.00000000000E+00 0. -1.
         21    1    1    2  503  501 -0.16019445812E+03  0.32411533708E+02  0.23946553977E+03  0.28992501904E+03  0.00000000000E+00 0. -1.
         21    1    1    2  504  502  0.13367303835E+03  0.10462214889E+02 -0.34558264468E+02  0.13846375975E+03  0.00000000000E+00 0. -1.
         21    1    1    2  505  504  0.36864043664E+02 -0.85890050652E+01  0.28263285441E+02  0.47239200112E+02  0.00000000000E+00 0.  1.
         21    1    1    2  506  503 -0.10342623891E+02 -0.34284743532E+02 -0.26179229157E+02  0.44359503460E+02  0.00000000000E+00 0.  1.
<scales pt_clust_3="14000.00000" pt_clust_4="133.43531" pt_clust_5="37.77562" pt_clust_6="35.81080"></scales>
<clustering>
<clus scale="   35.811">  2  6  1 -1</clus>
<clus scale="   37.776">  1  5  2 -1</clus>
<clus scale="  133.435">  2  4  1 -1</clus>
<clus scale="   37.776">  1  3  2 -1</clus>
</clustering>
</event>
<event>
 6    0  0.1080632E+003  0.1199342E+03  0.7546771E-02  0.1243206E+00
         21   -1    0    0  503  501  0.00000000000E+00  0.00000000000E+00  0.34335165718E+03  0.34335165718E+03  0.00000000000E+00 0. -1.
         21   -1    0    0  506  502 -0.00000000000E+00 -0.00000000000E+00 -0.14317495742E+04  0.14317495742E+04  0.00000000000E+00 0. -1.
         21    1    1    2  503  504  0.53988322612E+02 -0.26096415296E+01 -0.35112725111E+02  0.64455043806E+02  0.00000000000E+00 0. -1.
         21    1    1    2  504  502  0.95513254087E+02  0.54924708839E+02 -0.13160478587E+04  0.13206519116E+04  0.00000000000E+00 0. -1.
         21    1    1    2  505  501  0.21059288764E+02 -0.10279253581E+03  0.13504595306E+03  0.17101815255E+03  0.00000000000E+00 0. -1.
         21    1    1    2  506  505 -0.17056086546E+03  0.50477468497E+02  0.12771671371E+03  0.21897612339E+03  0.00000000000E+00 0. -1.
<scales pt_clust_3="54.05136" pt_clust_4="110.49829" pt_clust_5="14000.00000" pt_clust_6="119.93418"></scales>
<clustering>
<clus scale="   54.051">  1  3  2 -1</clus>
<clus scale="  110.498">  2  4  1 -1</clus>
<clus scale="  119.934">  2  6  1 -1</clus>
<clus scale="   54.051">  1  3  2 -1</clus>
</clustering>
</event>
<event>
 6    0  0.1080632E+003  0.1892154E+03  0.7546771E-02  0.1159171E+00
         21   -1    0    0  502  501  0.00000000000E+00  0.00000000000E+00  0.45899278915E+03  0.45899278915E+03  0.00000000000E+00 0.  1.
         21   -1    0    0  505  502 -0.00000000000E+00 -0.00000000000E+00 -0.43949963899E+03  0.43949963899E+03  0.00000000000E+00 0. -1.
         21    1    1    2  503  506 -0.12157717587E+03 -0.45002588354E+02  0.15666168352E+03  0.20334484438E+03  0.00000000000E+00 0.  1.
         21    1    1    2  504  503  0.11720684902E+02  0.37598463461E+02 -0.94058164600E+02  0.10197037431E+03  0.00000000000E+00 0.  1.
         21    1    1    2  505  504  0.13974362929E+03  0.68183529452E+02 -0.29438947682E+03  0.33293008227E+03  0.00000000000E+00 0. -1.
         21    1    1    2  506  501 -0.29887138322E+02 -0.60779404559E+02  0.25127910807E+03  0.26024712718E+03  0.00000000000E+00 0.  1.
<scales pt_clust_3="178.00813" pt_clust_4="32.28623" pt_clust_5="32.28623" pt_clust_6="67.73018"></scales>
<clustering>
<clus scale="   32.286">  4  5 -1 -1</clus>
<clus scale="   67.730">  1  6  2 -1</clus>
<clus scale="  178.008">  1  3  2 -1</clus>
<clus scale="   67.730">  1  3  2 -1</clus>
</clustering>
</event>
<event>
 6    0  0.1080632E+003  0.1849596E+03  0.7546771E-02  0.1163088E+00
         21   -1    0    0  505  501  0.00000000000E+00  0.00000000000E+00  0.18290523657E+04  0.18290523657E+04  0.00000000000E+00 0.  1.
         21   -1    0    0  504  502 -0.00000000000E+00 -0.00000000000E+00 -0.67596506188E+02  0.67596506188E+02  0.00000000000E+00 0. -1.
         21    1    1    2  503  502 -0.10032280033E+02  0.36378126206E+02  0.12014448316E+02  0.39602546348E+02  0.00000000000E+00 0. -1.
         21    1    1    2  504  501  0.17577817319E+03 -0.46986671682E+02  0.64498251614E+03  0.67015532499E+03  0.00000000000E+00 0.  1.
         21    1    1    2  505  506 -0.29968296721E+02 -0.40357997115E+02  0.10155208750E+04  0.10167642373E+04  0.00000000000E+00 0.  1.
         21    1    1    2  506  503 -0.13577759643E+03  0.50966542592E+02  0.88938020063E+02  0.17012676324E+03  0.00000000000E+00 0. -1.
<scales pt_clust_3="35.72634" pt_clust_4="171.18611" pt_clust_5="50.26795" pt_clust_6="35.72634"></scales>
<clustering>
<clus scale="   35.726">  3  6 -1 -1</clus>
<clus scale="   50.268">  1  5  2 -1</clus>
<clus scale="  171.186">  1  4  2 -1</clus>
<clus scale="   50.268">  1  3  2 -1</clus>
</clustering>
</event>
<event>
 6    0  0.1080632E+003  0.1002901E+03  0.7546771E-02  0.1279687E+00
         21   -1    0    0  506  501  0.00000000000E+00  0.00000000000E+00  0.70106778887E+03  0.70106778887E+03  0.00000000000E+00 0.  1.
         21   -1    0    0  504  502 -0.00000000000E+00 -0.00000000000E+00 -0.26128833372E+03  0.26128833372E+03  0.00000000000E+00 0.  1.
         21    1    1    2  503  505 -0.16849325506E+02 -0.13750157530E+03 -0.11303042298E+03  0.17879166507E+03  0.00000000000E+00 0.  1.
         21    1    1    2  504  501  0.22356412738E+02  0.21254085642E+02 -0.22786462844E+01  0.30931174822E+02  0.00000000000E+00 0.  1.
         21    1    1    2  505  502  0.46119534455E+01  0.72331057474E+02 -0.84576130363E+02  0.11138300506E+03  0.00000000000E+00 0.  1.
         21    1    1    2  506  503 -0.10119040677E+02  0.43916432182E+02  0.63966465478E+03  0.64125027764E+03  0.00000000000E+00 0.  1.
<scales pt_clust_3="14000.00000" pt_clust_4="30.84713" pt_clust_5="100.29014" pt_clust_6="45.11808"></scales>
<clustering>
<clus scale="   30.847">  2  4  1 -1</clus>
<clus scale="   45.118">  1  6  2 -1</clus>
<clus scale="  100.290">  2  5  1 -1</clus>
<clus scale="   45.118">  1  3  2 -1</clus>
</clustering>
</event>
<event>
 6    0  0.1080632E+003  0.1288205E+03  0.7546771E-02  0.1229216E+00
         21   -1    0    0  503  501  0.00000000000E+00  0.00000000000E+00  0.76771258383E+02  0.76771258383E+02  0.00000000000E+00 0.  1.
         21   -1    0    0  506  502 -0.00000000000E+00 -0.00000000000E+00 -0.65465574897E+03  0.65465574897E+03  0.00000000000E+00 0. -1.
         21    1    1    2  503  505 -0.84238634876E+02  0.23143272845E+02  0.27525683370E+02  0.91593787610E+02  0.00000000000E+00 0.  1.
         21    1    1    2  504  502  0.83457998949E+02 -0.55823754223E+02 -0.47490993155E+03  0.48540804712E+03  0.00000000000E+00 0. -1.
         21    1    1    2  505  504 -0.27727074777E+02  0.20110780919E+02 -0.20103532517E+02  0.39716321639E+02  0.00000000000E+00 0.  1.
         21    1    1    2  506  501  0.28507710705E+02  0.12569700459E+02 -0.11039670990E+03  0.11470885099E+03  0.00000000000E+00 0. -1.
<scales pt_clust_3="32.87955" pt_clust_4="117.53599" pt_clust_5="32.87955" pt_clust_6="31.15585"></scales>
<clustering>
<clus scale="   31.156">  2  6  1 -1</clus>
<clus scale="   32.880">  3  5 -1 -1</clus>
<clus scale="  117.536">  2  4  1 -1</clus>
<clus scale="  128.821">  1  3  2 -1</clus>
</clustering>
</event>
<event>
 6    0  0.1080632E+003  0.1173627E+03  0.7546771E-02  0.1247512E+00
         21   -1    0    0  504  501  0.00000000000E+00  0.00000000000E+00  0.23134286202E+03  0.23134286202E+03  0.00000000000E+00 0.  1.
         21   -1    0    0  505  502 -0.00000000000E+00 -0.00000000000E+00 -0.25900428075E+03  0.25900428075E+03  0.00000000000E+00 0.  1.
         21    1    1    2  503  501 -0.91164308692E+02  0.37666283218E+02  0.15254413776E+03  0.18165735338E+03  0.00000000000E+00 0.  1.
         21    1    1    2  504  502  0.90414568615E+02  0.74622946350E+02 -0.13093992047E+03  0.17575164611E+03  0.00000000000E+00 0.  1.
         21    1    1    2  505  506  0.16878765236E+02 -0.82553464327E+02 -0.51974260519E+02  0.99001469407E+02  0.00000000000E+00 0.  1.
         21    1    1    2  506  503 -0.16129025159E+02 -0.29735765240E+02  0.27086244863E+01  0.33936673874E+02  0.00000000000E+00 0.  1.
<scales pt_clust_3="98.63914" pt_clust_4="105.53666" pt_clust_5="32.53123" pt_clust_6="32.53123"></scales>
<clustering>
<clus scale="   32.531">  5  6 -1 -1</clus>
<clus scale="   98.639">  1  3  2 -1</clus>
<clus scale="  105.537">  2  4  1 -1</clus>
<clus scale="   98.639">  1  3  2 -1</clus>
</clustering>
</event>
<event>
 6    0  0.1080632E+003  0.1792214E+03  0.7546771E-02  0.1168559E+00
         21   -1    0    0  502  501  0.00000000000E+00  0.00000000000E+00  0.20485454190E+03  0.20485454190E+03  0.00000000000E+00 0.  1.
         21   -1    0    0  504  502 -0.00000000000E+00 -0.00000000000E+00 -0.11063904943E+04  0.11063904943E+04  0.00000000000E+00 0. -1.
         21    1    1    2  503  506  0.46092368931E+02  0.16684714842E+03 -0.81770523555E+02  0.19143901361E+03  0.00000000000E+00 0.  1.
         21    1    1    2  504  505 -0.54686625316E+02 -0.62065030509E+02 -0.84518609418E+03  0.84922448669E+03  0.00000000000E+00 0. -1.
         21    1    1    2  505  503  0.18016804315E+02  0.54173003195E+02 -0.65763832360E+02  0.87087319166E+02  0.00000000000E+00 0.  1.
         21    1    1    2  506  501 -0.94225479302E+01 -0.15895512110E+03  0.91184497727E+02  0.18349421669E+03  0.00000000000E+00 0.  1.
<scales pt_clust_3="30.66256" pt_clust_4="82.72058" pt_clust_5="30.66256" pt_clust_6="171.08384"></scales>
<clustering>
<clus scale="   30.663">  3  5 -1 -1</clus>
<clus scale="   82.721">  2  4  1 -1</clus>
<clus scale="  171.084">  1  6  2 -1</clus>
<clus scale="  171.084">  1  3  2 -1</clus>
</clustering>
</event>
<event>
 6    0  0.1080632E+003  0.7820152E+02  0.7546771E-02  0.1334234E+00
         21   -1    0    0  506  501  0.00000000000E+00  0.00000000000E+00  0.15092493170E+03  0.15092493170E+03  0.00000000000E+00 0.  1.
         21   -1    0    0  504  502 -0.00000000000E+00 -0.00000000000E+00 -0.14954839246E+04  0.14954839246E+04  0.00000000000E+00 0.  1.
         21    1    1    2  503  501 -0.76102132478E+02 -0.23421796695E+02  0.12885259461E+03  0.15146981965E+03  0.00000000000E+00 0.  1.
         21    1    1    2  504  505  0.78848144534E+02 -0.28141514757E+02 -0.11702354917E+04  0.11732263553E+04  0.00000000000E+00 0.  1.
         21    1    1    2  505  503  0.35847610025E+02  0.42120938171E+02 -0.24564677111E+03  0.25179666546E+03  0.00000000000E+00 0.  1.
         21    1    1    2  506  502 -0.38593622081E+02  0.94423732813E+01 -0.57529324689E+02  0.69916015888E+02  0.00000000000E+00 0.  1.
<scales pt_clust_3="14000.00000" pt_clust_4="51.48391" pt_clust_5="78.20152" pt_clust_6="39.73193"></scales>
<clustering>
<clus scale="   39.732">  2  6  1 -1</clus>
<clus scale="   51.484">  2  4  1 -1</clus>
<clus scale="   78.202">  2  5  1 -1</clus>
<clus scale="   78.202">  1  3  2 -1</clus>
</clustering>
</event>
<event>
 6    0  0.1080632E+003  0.8014068E+02  0.7546771E-02  0.1328653E+00
         21   -1    0    0  504  501  0.00000000000E+00  0.00000000000E+00  0.63956919060E+02  0.63956919060E+02  0.00000000000E+00 0.  1.
         21   -1    0    0  506  502 -0.00000000000E+00 -0.00000000000E+00 -0.16755154719E+04  0.16755154719E+04  0.00000000000E+00 0.  1.
         21    1    1    2  503  501  0.87343183045E+01  0.79344266099E+02  0.29157904714E+02  0.84982258656E+02  0.00000000000E+00 0.  1.
         21    1    1    2  504  502  0.54864009232E+02 -0.13551884883E+02 -0.19529466724E+03  0.20330696040E+03  0.00000000000E+00 0. -1.
         21    1    1    2  505  503 -0.40286411391E+02 -0.87591700816E+02 -0.10089171317E+04  0.10135132361E+04  0.00000000000E+00 0.  1.
         21    1    1    2  506  505 -0.23311916145E+02  0.21799319600E+02 -0.43650465860E+03  0.43766993586E+03  0.00000000000E+00 0.  1.
<scales pt_clust_3="14000.00000" pt_clust_4="52.08987" pt_clust_5="80.14068" pt_clust_6="31.91639"></scales>
<clustering>
<clus scale="   31.916">  2  6  1 -1</clus>
<clus scale="   52.090">  2  4  1 -1</clus>
<clus scale="   80.141">  2  5  1 -1</clus>
<clus scale="   80.141">  1  3  2 -1</clus>
</clustering>
</event>
<event>
 6    0  0.1080632E+003  0.9569354E+02  0.7546771E-02  0.1289622E+00
         21   -1    0    0  502  501  0.00000000000E+00  0.00000000000E+00  0.35162755480E+03  0.35162755480E+03  0.00000000000E+00 0. -1.
         21   -1    0    0  503  502 -0.00000000000E+00 -0.00000000000E+00 -0.12932905105E+03  0.12932905105E+03  0.00000000000E+00 0. -1.
         21    1    1    2  503  504 -0.24411536029E+02  0.87704608996E+02 -0.80955134017E+01  0.91397805595E+02  0.00000000000E+00 0. -1.
         21    1    1    2  504  506  0.10314343113E+03 -0.62433685684E+02  0.32026360601E+01  0.12061007160E+03  0.00000000000E+00 0. -1.
         21    1    1    2  505  501 -0.26188197742E+02 -0.48764973205E+02  0.19562234462E+03  0.20330259719E+03  0.00000000000E+00 0. -1.
         21    1    1    2  506  505 -0.52543697358E+02  0.23494049893E+02  0.31569036475E+02  0.65646131465E+02  0.00000000000E+00 0. -1.
<scales pt_clust_3="95.69354" pt_clust_4="14000.00000" pt_clust_5="55.35200" pt_clust_6="61.42157"></scales>
<clustering>
<clus scale="   55.352">  1  5  2 -1</clus>
<clus scale="   61.422">  1  6  2 -1</clus>
<clus scale="   95.694">  2  3  1 -1</clus>
<clus scale="   55.352">  1  3  2 -1</clus>
</clustering>
</event>
<event>
 6    0  0.1080632E+003  0.8819490E+02  0.7546771E-02  0.1307283E+00
         21   -1    0    0  503  501  0.00000000000E+00  0.00000000000E+00  0.10242773962E+03  0.10242773962E+03  0.00000000000E+00 0. -1.
         21   -1    0    0  506  502 -0.00000000000E+00 -0.00000000000E+00 -0.67351960519E+03  0.67351960519E+03  0.00000000000E+00 0.  1.
         21    1    1    2  503  504  0.34569116682E+02 -0.59388509142E+01  0.11312342842E+02  0.36854618150E+02  0.00000000000E+00 0. -1.
         21    1    1    2  504  502  0.70964854403E+02 -0.13711384981E+02 -0.91638192497E+02  0.11671148599E+03  0.00000000000E+00 0.  1.
         21    1    1    2  505  501 -0.10862652473E+03  0.53459785509E+02  0.90563739784E+01  0.12140711862E+03  0.00000000000E+00 0. -1.
         21    1    1    2  506  505  0.30925536440E+01 -0.33809549613E+02 -0.49982238988E+03  0.50097412205E+03  0.00000000000E+00 0.  1.
<scales pt_clust_3="35.80452" pt_clust_4="14000.00000" pt_clust_5="88.19490" pt_clust_6="33.95069"></scales>
<clustering>
<clus scale="   33.951">  2  6  1 -1</clus>
<clus scale="   35.805">  1  3  2 -1</clus>
<clus scale="   88.195">  1  5  2 -1</clus>
<clus scale="   35.805">  1  3  2 -1</clus>
</clustering>
</event>
<event>
 6    0  0.1080632E+003  0.1343254E+03  0.7546771E-02  0.1221175E+00
         21   -1    0    0  504  501  0.00000000000E+00  0.00000000000E+00  0.47000902139E+02  0.47000902139E+02  0.00000000000E+00 0.  1.
         21   -1    0    0  503  502 -0.00000000000E+00 -0.00000000000E+00 -0.84257311785E+03  0.84257311785E+03  0.00000000000E+00 0. -1.
         21    1    1    2  503  506 -0.34210875686E+02 -0.30870226351E+02 -0.13276505808E+03  0.14053439272E+03  0.00000000000E+00 0. -1.
         21    1    1    2  504  505 -0.22847949479E+01  0.12812243999E+03 -0.79783324901E+02  0.15095018665E+03  0.00000000000E+00 0.  1.
         21    1    1    2  505  502  0.45307126784E+02 -0.13599302048E+02 -0.26153616959E+03  0.26577969215E+03  0.00000000000E+00 0. -1.
         21    1    1    2  506  501 -0.88114561502E+01 -0.83652911594E+02 -0.32148766314E+03  0.33230974847E+03  0.00000000000E+00 0.  1.
<scales pt_clust_3="35.26059" pt_clust_4="125.59356" pt_clust_5="47.30409" pt_clust_6="35.26059"></scales>
<clustering>
<clus scale="   35.261">  3  6 -1 -1</clus>
<clus scale="   47.304">  2  5  1 -1</clus>
<clus scale="  125.594">  1  4  2 -1</clus>
<clus scale="  125.594">  1  3  2 -1</clus>
</clustering>
</event>
<event>
 6    0  0.1080632E+003  0.1608352E+03  0.7546771E-02  0.1187757E+00
         21   -1    0    0  505  501  0.00000000000E+00  0.00000000000E+00  0.12927678280E+04  0.12927678280E+04  0.00000000000E+00 0. -1.
         21   -1    0    0  506  502 -0.00000000000E+00 -0.00000000000E+00 -0.32991079449E+03  0.32991079449E+03  0.00000000000E+00 0. -1.
         21    1    1    2  503  502 -0.60855378350E+02 -0.55024375645E+02 -0.26418741205E+03  0.27663341750E+03  0.00000000000E+00 0. -1.
         21    1    1    2  504  501  0.61930978861E+02  0.51290830334E+02  0.10878221133E+03  0.13527662371E+03  0.00000000000E+00 0. -1.
         21    1    1    2  505  503  0.10829031094E+03  0.37377917282E+02  0.10858030785E+04  0.10918297602E+04  0.00000000000E+00 0. -1.
         21    1    1    2  506  504 -0.10936591145E+03 -0.33644371971E+02  0.32459155729E+02  0.11893882101E+03  0.00000000000E+00 0.  1.
<scales pt_clust_3="81.61601" pt_clust_4="80.41266" pt_clust_5="160.83524" pt_clust_6="14000.00000"></scales>
<clustering>
<clus scale="   80.413">  1  4  2 -1</clus>
<clus scale="   81.616">  2  3  1 -1</clus>
<clus scale="  160.835">  1  5  2 -1</clus>
<clus scale="   80.413">  1  3  2 -1</clus>
</clustering>
</event>
<event>
 6    0  0.1080632E+003  0.2066085E+03  0.7546771E-02  0.1144280E+00
         21   -1    0    0  503  501  0.00000000000E+00  0.00000000000E+00  0.58289984220E+03  0.58289984220E+03  0.00000000000E+00 0. -1.
         21   -1    0    0  506  502 -0.00000000000E+00 -0.00000000000E+00 -0.20315277068E+03  0.20315277068E+03  0.00000000000E+00 0. -1.
         21    1    1    2  503  504 -0.32529475265E+02 -0.24154606542E+03  0.33382666141E+03  0.41333147515E+03  0.00000000000E+00 0. -1.
         21    1    1    2  504  505 -0.72252646406E+02  0.56322061119E+02  0.19920054628E+02  0.93751949621E+02  0.00000000000E+00 0. -1.
         21    1    1    2  505  502 -0.27289652076E+02  0.63897664989E+02 -0.48537392547E+02  0.84755620325E+02  0.00000000000E+00 0. -1.
         21    1    1    2  506  501  0.13207177375E+03  0.12132633931E+03  0.74537748026E+02  0.19421356779E+03  0.00000000000E+00 0. -1.
<scales pt_clust_3="206.60851" pt_clust_4="108.43729" pt_clust_5="69.48120" pt_clust_6="14000.00000"></scales>
<clustering>
<clus scale="   69.481">  2  5  1 -1</clus>
<clus scale="  108.437">  2  4  1 -1</clus>
<clus scale="  206.609">  1  3  2 -1</clus>
<clus scale="  206.609">  1  3  2 -1</clus>
</clustering>
</event>
<event>
 6    0  0.1080632E+003  0.9029111E+02  0.7546771E-02  0.1302148E+00
         21   -1    0    0  506  501  0.00000000000E+00  0.00000000000E+00  0.17079382481E+03  0.17079382481E+03  0.00000000000E+00 0. -1.
         21   -1    0    0  503  502 -0.00000000000E+00 -0.00000000000E+00 -0.29614885018E+03  0.29614885018E+03  0.00000000000E+00 0. -1.
         21    1    1    2  503  505 -0.20317300533E+02 -0.25511031747E+02 -0.30157042683E+02  0.44419057455E+02  0.00000000000E+00 0. -1.
         21    1    1    2  504  501 -0.20190432819E+02  0.73798634099E+02  0.37980146230E+02  0.85418870749E+02  0.00000000000E+00 0. -1.
         21    1    1    2  505  504  0.91612905996E+02 -0.41121463688E+02 -0.21675121321E+03  0.23888279082E+03  0.00000000000E+00 0. -1.
         21    1    1    2  506  502 -0.51105172644E+02 -0.71661386640E+01  0.83573084294E+02  0.98221955960E+02  0.00000000000E+00 0. -1.
<scales pt_clust_3="32.61296" pt_clust_4="90.29111" pt_clust_5="14000.00000" pt_clust_6="52.27856"></scales>
<clustering>
<clus scale="   32.613">  2  3  1 -1</clus>
<clus scale="   52.279">  1  6  2 -1</clus>
<clus scale="   90.291">  1  4  2 -1</clus>
<clus scale="   52.279">  1  3  2 -1</clus>
</clustering>
</event>
<event>
 6    0  0.1080632E+003  0.1430542E+03  0.7546771E-02  0.1209277E+00
         21   -1    0    0  504  501  0.00000000000E+00  0.00000000000E+00  0.32156799583E+03  0.32156799583E+03  0.00000000000E+00 0. -1.
         21   -1    0    0  501  502 -0.00000000000E+00 -0.00000000000E+00 -0.14614922401E+03  0.14614922401E+03  0.00000000000E+00 0. -1.
         21    1    1    2  503  505  0.27320349060E+02  0.37309791801E+02 -0.63225642558E+00  0.46247397605E+02  0.00000000000E+00 0. -1.
         21    1    1    2  504  506 -0.29879003112E+02 -0.79608179971E+02  0.15804904542E+03  0.17947066029E+03  0.00000000000E+00 0. -1.
         21    1    1    2  505  502 -0.86835794283E+01  0.13337668057E+03 -0.32077576985E+02  0.13745440851E+03  0.00000000000E+00 0. -1.
         21    1    1    2  506  503  0.11242233480E+02 -0.91078292404E+02  0.50079559808E+02  0.10454475344E+03  0.00000000000E+00 0. -1.
<scales pt_clust_3="33.24869" pt_clust_4="85.03068" pt_clust_5="33.24869" pt_clust_6="131.41260"></scales>
<clustering>
<clus scale="   33.249">  3  5 -1 -1</clus>
<clus scale="   85.031">  1  4  2 -1</clus>
<clus scale="  131.413">  1  6  2 -1</clus>
<clus scale="   85.031">  1  3  2 -1</clus>
</clustering>
</event>
<event>
 6    0  0.1080632E+003  0.9912574E+02  0.7546771E-02  0.1282145E+00
         21   -1    0    0  504  501  0.00000000000E+00  0.00000000000E+00  0.92157967315E+03  0.92157967315E+03  0.00000000000E+00 0. -1.
         21   -1    0    0  506  502 -0.00000000000E+00 -0.00000000000E+00 -0.10405466360E+03  0.10405466360E+03  0.00000000000E+00 0. -1.
         21    1    1    2  503  501 -0.34226995043E+02  0.27029242201E+02  0.63132877563E+03  0.63283338255E+03  0.00000000000E+00 0. -1.
         21    1    1    2  504  505  0.11922828576E+03  0.40955874534E+02  0.15767477750E+03  0.20187645540E+03  0.00000000000E+00 0. -1.
         21    1    1    2  505  502 -0.37432118910E+02  0.40434744293E+01 -0.57714900416E+02  0.68909527220E+02  0.00000000000E+00 0. -1.
         21    1    1    2  506  503 -0.47569171810E+02 -0.72028591165E+02  0.86236356831E+02  0.12201497159E+03  0.00000000000E+00 0. -1.
<scales pt_clust_3="44.20295" pt_clust_4="14000.00000" pt_clust_5="37.64988" pt_clust_6="99.12574"></scales>
<clustering>
<clus scale="   37.650">  2  5  1 -1</clus>
<clus scale="   44.203">  1  3  2 -1</clus>
<clus scale="   99.126">  2  6  1 -1</clus>
<clus scale="   44.203">  1  3  2 -1</clus>
</clustering>
</event>
<event>
 6    0  0.1080632E+003  0.2977301E+03  0.7546771E-02  0.1086381E+00
         21   -1    0    0  504  501  0.00000000000E+00  0.00000000000E+00  0.13579807270E+04  0.13579807270E+04  0.00000000000E+00 0. -1.
         21   -1    0    0  505  502 -0.00000000000E+00 -0.00000000000E+00 -0.14827657407E+03  0.14827657407E+03  0.00000000000E+00 0. -1.
         21    1    1    2  503  506 -0.72794481760E+02  0.73272900086E+02  0.48610835488E+02  0.11415326447E+03  0.00000000000E+00 0. -1.
         21    1    1    2  504  502  0.16037768371E+03 -0.27655478812E+03  0.10092558542E+04  0.10586788614E+04  0.00000000000E+00 0. -1.
         21    1    1    2  505  503 -0.13230390656E+02  0.17163095182E+03  0.17883830337E+03  0.24822442590E+03  0.00000000000E+00 0. -1.
         21    1    1    2  506  501 -0.74352811289E+02  0.31650936212E+02 -0.27000840168E+02  0.85200749289E+02  0.00000000000E+00 0. -1.
<scales pt_clust_3="71.93365" pt_clust_4="286.40795" pt_clust_5="172.14014" pt_clust_6="71.93365"></scales>
<clustering>
<clus scale="   71.934">  3  6 -1 -1</clus>
<clus scale="  172.140">  2  5  1 -1</clus>
<clus scale="  286.408">  1  4  2 -1</clus>
<clus scale="  286.408">  1  3  2 -1</clus>
</clustering>
</event>
<event>
 6    0  0.1080632E+003  0.1911279E+03  0.7546771E-02  0.1157448E+00
         21   -1    0    0  503  501  0.00000000000E+00  0.00000000000E+00  0.29646724634E+03  0.29646724634E+03  0.00000000000E+00 0. -1.
         21   -1    0    0  504  502 -0.00000000000E+00 -0.00000000000E+00 -0.23215571049E+03  0.23215571049E+03  0.00000000000E+00 0. -1.
         21    1    1    2  503  502 -0.12198676597E+03 -0.12099606008E+03  0.13886477412E+03  0.22091682398E+03  0.00000000000E+00 0. -1.
         21    1    1    2  504  506 -0.82417123488E+01 -0.64325315875E+02 -0.26301425364E+02  0.69981690899E+02  0.00000000000E+00 0. -1.
         21    1    1    2  505  501  0.86760394929E+02  0.15114812751E+03 -0.19395511185E+02  0.17535480726E+03  0.00000000000E+00 0. -1.
         21    1    1    2  506  505  0.43468083385E+02  0.34173248446E+02 -0.28856301721E+02  0.62369634691E+02  0.00000000000E+00 0. -1.
<scales pt_clust_3="183.43572" pt_clust_4="64.85115" pt_clust_5="30.23421" pt_clust_6="30.23421"></scales>
<clustering>
<clus scale="   30.234">  5  6 -1 -1</clus>
<clus scale="   64.851">  2  4  1 -1</clus>
<clus scale="  183.436">  1  3  2 -1</clus>
<clus scale="  183.436">  1  3  2 -1</clus>
</clustering>
</event>
<event>
 6    0  0.1080632E+003  0.6240263E+02  0.7546771E-02  0.1388017E+00
         21   -1    0    0  504  501  0.00000000000E+00  0.00000000000E+00  0.20685497281E+04  0.20685497281E+04  0.00000000000E+00 0. -1.
         21   -1    0    0  505  502 -0.00000000000E+00 -0.00000000000E+00 -0.59186651251E+03  0.59186651251E+03  0.00000000000E+00 0. -1.
         21    1    1    2  503  506 -0.68629027295E+02  0.27655943739E+02  0.10812824232E+02  0.74777749227E+02  0.00000000000E+00 0. -1.
         21    1    1    2  504  502 -0.17042321805E+01 -0.66656539227E+02 -0.24161304350E+02  0.70920852060E+02  0.00000000000E+00 0.  1.
         21    1    1    2  505  503  0.13165200938E+02  0.60734372250E+02 -0.50998932380E+03  0.51376171216E+03  0.00000000000E+00 0. -1.
         21    1    1    2  506  501  0.57168058538E+02 -0.21733776762E+02  0.20000210195E+04  0.20009559272E+04  0.00000000000E+00 0. -1.
<scales pt_clust_3="35.55157" pt_clust_4="14000.00000" pt_clust_5="62.40263" pt_clust_6="61.15999"></scales>
<clustering>
<clus scale="   61.160">  1  6  2 -1</clus>
<clus scale="   35.552">  1  3  2 -1</clus>
<clus scale="   62.403">  2  5  1 -1</clus>
<clus scale="   61.160">  1  3  2 -1</clus>
</clustering>
</event>
<event>
 6    0  0.1080632E+003  0.1218797E+03  0.7546771E-02  0.1240028E+00
         21   -1    0    0  506  501  0.00000000000E+00  0.00000000000E+00  0.78080637576E+02  0.78080637576E+02  0.00000000000E+00 0.  1.
         21   -1    0    0  505  502 -0.00000000000E+00 -0.00000000000E+00 -0.30354448393E+03  0.30354448393E+03  0.00000000000E+00 0.  1.
         21    1    1    2  503  502  0.47409856137E+01 -0.48065759624E+02 -0.54391016689E+02  0.72740476279E+02  0.00000000000E+00 0.  1.
         21    1    1    2  504  501  0.37802185205E+01  0.29799892155E+02  0.17612575144E+02  0.34821350171E+02  0.00000000000E+00 0.  1.
         21    1    1    2  505  504  0.35392007076E+02  0.96025974810E+02 -0.13658883559E+03  0.17067539955E+03  0.00000000000E+00 0.  1.
         21    1    1    2  506  503 -0.43913211210E+02 -0.77760107340E+02 -0.52096569213E+02  0.10338789550E+03  0.00000000000E+00 0.  1.
<scales pt_clust_3="36.30475" pt_clust_4="30.03870" pt_clust_5="111.98067" pt_clust_6="36.30475"></scales>
<clustering>
<clus scale="   30.039">  1  4  2 -1</clus>
<clus scale="   36.305">  3  6 -1 -1</clus>
<clus scale="  111.981">  2  5  1 -1</clus>
<clus scale="   30.039">  1  3  2 -1</clus>
</clustering>
</event>
<event>
 6    0  0.1080632E+003  0.1838312E+03  0.7546771E-02  0.1164146E+00
         21   -1    0    0  506  501  0.00000000000E+00  0.00000000000E+00  0.68712774614E+03  0.68712774614E+03  0.00000000000E+00 0.  1.
         21   -1    0    0  504  502 -0.00000000000E+00 -0.00000000000E+00 -0.20920546293E+03  0.20920546293E+03  0.00000000000E+00 0.  1.
         21    1    1    2  503  505 -0.73862368290E+02  0.63469990972E+02 -0.56847501608E+02  0.11276403524E+03  0.00000000000E+00 0.  1.
         21    1    1    2  504  503 -0.39692600443E+02  0.75034299466E+02 -0.77704488667E+02  0.11508099837E+03  0.00000000000E+00 0.  1.
         21    1    1    2  505  501  0.15556445490E+03 -0.10250201212E+03  0.56715991836E+03  0.59697347941E+03  0.00000000000E+00 0.  1.
         21    1    1    2  506  502 -0.42009486170E+02 -0.36002278321E+02  0.45314355121E+02  0.71514696060E+02  0.00000000000E+00 0. -1.
<scales pt_clust_3="38.84292" pt_clust_4="38.84292" pt_clust_5="179.06132" pt_clust_6="55.32595"></scales>
<clustering>
<clus scale="   38.843">  3  4 -1 -1</clus>
<clus scale="   55.326">  1  6  2 -1</clus>
<clus scale="  179.061">  1  5  2 -1</clus>
<clus scale="   55.326">  1  3  2 -1</clus>
</clustering>
</event>
<event>
 6    0  0.1080632E+003  0.1089041E+03  0.7546771E-02  0.1262613E+00
         21   -1    0    0  505  501  0.00000000000E+00  0.00000000000E+00  0.17606232212E+03  0.17606232212E+03  0.00000000000E+00 0. -1.
         21   -1    0    0  503  502 -0.00000000000E+00 -0.00000000000E+00 -0.88783358093E+03  0.88783358093E+03  0.00000000000E+00 0. -1.
         21    1    1    2  503  506  0.82092978510E+02 -0.21115365071E+02 -0.70196682308E+03  0.70706614716E+03  0.00000000000E+00 0. -1.
         21    1    1    2  504  502 -0.20621449542E+02  0.10534255894E+03 -0.54190136647E+02  0.12024504071E+03  0.00000000000E+00 0. -1.
         21    1    1    2  505  504 -0.89542462265E+02 -0.10687295487E+03 -0.39802414199E+02  0.14499625239E+03  0.00000000000E+00 0. -1.
         21    1    1    2  506  501  0.28070933296E+02  0.22645760995E+02  0.84188115118E+02  0.91588462780E+02  0.00000000000E+00 0. -1.
<scales pt_clust_3="85.39216" pt_clust_4="14000.00000" pt_clust_5="108.90414" pt_clust_6="36.06671"></scales>
<clustering>
<clus scale="   36.067">  1  6  2 -1</clus>
<clus scale="   85.392">  2  3  1 -1</clus>
<clus scale="  108.904">  1  5  2 -1</clus>
<clus scale="   36.067">  1  3  2 -1</clus>
</clustering>
</event>
<event>
 6    0  0.1080632E+003  0.1014621E+03  0.7546771E-02  0.1277251E+00
         21   -1    0    0  506  501  0.00000000000E+00  0.00000000000E+00  0.14592925955E+04  0.14592925955E+04  0.00000000000E+00 0. -1.
         21   -1    0    0  504  502 -0.00000000000E+00 -0.00000000000E+00 -0.48423822026E+03  0.48423822026E+03  0.00000000000E+00 0.  1.
         21    1    1    2  503  505 -0.78177831443E+02 -0.66416031497E+02  0.30680084706E+03  0.32349593866E+03  0.00000000000E+00 0. -1.
         21    1    1    2  504  503  0.43708453208E+02 -0.36537251390E+02 -0.46407343368E+03  0.46755700344E+03  0.00000000000E+00 0.  1.
         21    1    1    2  505  501 -0.23700125336E+02  0.11572171865E+03  0.10049256268E+04  0.10118442210E+04  0.00000000000E+00 0. -1.
         21    1    1    2  506  502  0.58169503571E+02 -0.12768435760E+02  0.12740133510E+03  0.14063365274E+03  0.00000000000E+00 0. -1.
<scales pt_clust_3="101.46211" pt_clust_4="56.96841" pt_clust_5="14000.00000" pt_clust_6="78.27206"></scales>
<clustering>
<clus scale="   56.968">  2  4  1 -1</clus>
<clus scale="   78.272">  2  6  1 -1</clus>
<clus scale="  101.462">  2  3  1 -1</clus>
<clus scale="  101.462">  1  3  2 -1</clus>
</clustering>
</event>
<event>
 6    0  0.1080632E+003  0.6566583E+02  0.7546771E-02  0.1375484E+00
         21   -1    0    0  503  501  0.00000000000E+00  0.00000000000E+00  0.16672985096E+03  0.16672985096E+03  0.00000000000E+00 0. -1.
         21   -1    0    0  504  502 -0.00000000000E+00 -0.00000000000E+00 -0.55585047830E+03  0.55585047830E+03  0.00000000000E+00 0. -1.
         21    1    1    2  503  505 -0.57502240382E+02 -0.28844740292E+02  0.13467374902E+03  0.14924994260E+03  0.00000000000E+00 0. -1.
         21    1    1    2  504  506 -0.33207213995E+02  0.60194102852E+02 -0.18404437593E+03  0.19646470775E+03  0.00000000000E+00 0. -1.
         21    1    1    2  505  502 -0.22572581518E+02 -0.39986321698E+02 -0.13652526726E+03  0.14404018870E+03  0.00000000000E+00 0.  1.
         21    1    1    2  506  501  0.11328203589E+03  0.86369591375E+01 -0.20322473317E+03  0.23282549021E+03  0.00000000000E+00 0. -1.
<scales pt_clust_3="65.66583" pt_clust_4="60.41873" pt_clust_5="45.91761" pt_clust_6="14000.00000"></scales>
<clustering>
<clus scale="   45.918">  2  5  1 -1</clus>
<clus scale="   60.419">  2  4  1 -1</clus>
<clus scale="   65.666">  1  3  2 -1</clus>
<clus scale="   65.666">  1  3  2 -1</clus>
</clustering>
</event>
<event>
 6    0  0.1080632E+003  0.1191574E+03  0.7546771E-02  0.1244494E+00
         21   -1    0    0  504  501  0.00000000000E+00  0.00000000000E+00  0.52986284323E+02  0.52986284323E+02  0.00000000000E+00 0.  1.
         21   -1    0    0  506  502 -0.00000000000E+00 -0.00000000000E+00 -0.23402258599E+04  0.23402258599E+04  0.00000000000E+00 0.  1.
         21    1    1    2  503  502  0.74345952626E+01  0.11376424152E+03 -0.20878175968E+03  0.23788106068E+03  0.00000000000E+00 0.  1.
         21    1    1    2  504  503  0.70634904324E+02  0.43154847494E+02 -0.85372171268E+02  0.11891189258E+03  0.00000000000E+00 0. -1.
         21    1    1    2  505  501 -0.10312575561E+03 -0.11751641482E+03 -0.26487109735E+03  0.30757393816E+03  0.00000000000E+00 0.  1.
         21    1    1    2  506  505  0.25056256026E+02 -0.39402674194E+02 -0.17282145473E+04  0.17288452528E+04  0.00000000000E+00 0.  1.
<scales pt_clust_3="14000.00000" pt_clust_4="83.28033" pt_clust_5="119.15744" pt_clust_6="46.69461"></scales>
<clustering>
<clus scale="   46.695">  2  6  1 -1</clus>
<clus scale="   83.280">  1  4  2 -1</clus>
<clus scale="  119.157">  1  5  2 -1</clus>
<clus scale="   83.280">  1  3  2 -1</clus>
</clustering>
</event>
<event>
 6    0  0.1080632E+003  0.1947543E+03  0.7546771E-02  0.1154242E+00
         21   -1    0    0  505  501  0.00000000000E+00  0.00000000000E+00  0.25301114849E+03  0.25301114849E+03  0.00000000000E+00 0.  1.
         21   -1    0    0  504  502 -0.00000000000E+00 -0.00000000000E+00 -0.31979007825E+03  0.31979007825E+03  0.00000000000E+00 0.  1.
         21    1    1    2  503  502  0.14834479573E+03 -0.43252919829E+02  0.34519044064E+02  0.15833053368E+03  0.00000000000E+00 0.  1.
         21    1    1    2  504  506 -0.14749557304E+03  0.10020834467E+03 -0.16604335720E+03  0.24365355092E+03  0.00000000000E+00 0.  1.
         21    1    1    2  505  503  0.69888030432E+02 -0.52076605885E+02  0.34785547752E+02  0.93842122794E+02  0.00000000000E+00 0.  1.
         21    1    1    2  506  501 -0.70737253121E+02 -0.48788189526E+01  0.29959835619E+02  0.76975019349E+02  0.00000000000E+00 0.  1.
<scales pt_clust_3="34.20793" pt_clust_4="189.35311" pt_clust_5="34.20793" pt_clust_6="70.90530"></scales>
<clustering>
<clus scale="   34.208">  3  5 -1 -1</clus>
<clus scale="   70.905">  1  6  2 -1</clus>
<clus scale="  189.353">  2  4  1 -1</clus>
<clus scale="   70.905">  1  3  2 -1</clus>
</clustering>
</event>
<event>
 6    0  0.1080632E+003  0.1235062E+03  0.7546771E-02  0.1237422E+00
         21   -1    0    0  506  501  0.00000000000E+00  0.00000000000E+00  0.45944460404E+03  0.45944460404E+03  0.00000000000E+00 0. -1.
         21   -1    0    0  504  502 -0.00000000000E+00 -0.00000000000E+00 -0.55699677110E+03  0.55699677110E+03  0.00000000000E+00 0. -1.
         21    1    1    2  503  502 -0.13921252007E+02 -0.58265460577E+02 -0.34373571245E+02  0.69066689177E+02  0.00000000000E+00 0. -1.
         21    1    1    2  504  501  0.56625207576E+02  0.14478171200E+03 -0.42339499274E+03  0.45103378825E+03  0.00000000000E+00 0. -1.
         21    1    1    2  505  503 -0.11540819589E+03  0.22398599331E+02  0.49025236820E+01  0.11766385881E+03  0.00000000000E+00 0. -1.
         21    1    1    2  506  505  0.72704240325E+02 -0.10891485075E+03  0.35531387325E+03  0.37867703891E+03  0.00000000000E+00 0. -1.
<scales pt_clust_3="59.90547" pt_clust_4="104.36482" pt_clust_5="14000.00000" pt_clust_6="123.50620"></scales>
<clustering>
<clus scale="   59.905">  2  3  1 -1</clus>
<clus scale="  104.365">  2  4  1 -1</clus>
<clus scale="  123.506">  1  6  2 -1</clus>
<clus scale="  123.506">  1  3  2 -1</clus>
</clustering>
</event>
<event>
 6    0  0.1080632E+003  0.2019070E+03  0.7546771E-02  0.1148140E+00
         21   -1    0    0  503  501  0.00000000000E+00  0.00000000000E+00  0.40095620049E+03  0.40095620049E+03  0.00000000000E+00 0.  1.
         21   -1    0    0  505  502 -0.00000000000E+00 -0.00000000000E+00 -0.14423820547E+03  0.14423820547E+03  0.00000000000E+00 0. -1.
         21    1    1    2  503  504 -0.86017295730E+02 -0.85288507289E+02  0.28197989107E+01  0.12116540722E+03  0.00000000000E+00 0. -1.
         21    1    1    2  504  502 -0.76285250815E+02  0.58002468484E+01 -0.24310851248E+02  0.80275150848E+02  0.00000000000E+00 0. -1.
         21    1    1    2  505  506  0.81294535687E+02  0.57042986344E+02  0.22037986335E+03  0.24172295711E+03  0.00000000000E+00 0.  1.
         21    1    1    2  506  501  0.81008010857E+02  0.22445274096E+02  0.57829184006E+02  0.10203089079E+03  0.00000000000E+00 0.  1.
<scales pt_clust_3="200.29087" pt_clust_4="68.62252" pt_clust_5="82.83184" pt_clust_6="82.83184"></scales>
<clustering>
<clus scale="   68.623">  3  4 -1 -1</clus>
<clus scale="   82.832">  5  6 -1 -1</clus>
<clus scale="  200.291">  2  3  1 -1</clus>
<clus scale="  201.907">  1  3  2 -1</clus>
</clustering>
</event>
<event>
 6    0  0.1080632E+003  0.9470729E+02  0.7546771E-02  0.1291837E+00
         21   -1    0    0  503  501  0.00000000000E+00  0.00000000000E+00  0.48674879572E+02  0.48674879572E+02  0.00000000000E+00 0.  1.
         21   -1    0    0  506  502 -0.00000000000E+00 -0.00000000000E+00 -0.79815255997E+03  0.79815255997E+03  0.00000000000E+00 0.  1.
         21    1    1    2  503  505 -0.53626906427E+02 -0.55105494357E+02 -0.90914161592E+02  0.11907075787E+03  0.00000000000E+00 0.  1.
         21    1    1    2  504  502  0.10289188090E+03  0.66790624075E+02 -0.32312371636E+03  0.34562503192E+03  0.00000000000E+00 0.  1.
         21    1    1    2  505  504 -0.74084920885E+02  0.67077321636E+02 -0.16921627449E+03  0.19652503691E+03  0.00000000000E+00 0.  1.
         21    1    1    2  506  501  0.24819946417E+02 -0.78762451355E+02 -0.16622352796E+03  0.18560661284E+03  0.00000000000E+00 0.  1.
<scales pt_clust_3="76.89253" pt_clust_4="14000.00000" pt_clust_5="90.43182" pt_clust_6="94.70729"></scales>
<clustering>
<clus scale="   76.893">  1  3  2 -1</clus>
<clus scale="   94.707">  2  6  1 -1</clus>
<clus scale="   90.432">  1  5  2 -1</clus>
<clus scale="   76.893">  1  3  2 -1</clus>
</clustering>
</event>
<event>
 6    0  0.1080632E+003  0.7910554E+02  0.7546771E-02  0.1331609E+00
         21   -1    0    0  503  501  0.00000000000E+00  0.00000000000E+00  0.72641055800E+03  0.72641055800E+03  0.00000000000E+00 0. -1.
         21   -1    0    0  504  502 -0.00000000000E+00 -0.00000000000E+00 -0.66864161681E+02  0.66864161681E+02  0.00000000000E+00 0.  1.
         21    1    1    2  503  505  0.14011303088E+02  0.77045633197E+02  0.51136186558E+03  0.51732321016E+03  0.00000000000E+00 0. -1.
         21    1    1    2  504  506  0.21699486854E+02 -0.31695314468E+02  0.53429209392E+02  0.65803807680E+02  0.00000000000E+00 0. -1.
         21    1    1    2  505  502 -0.44903725653E+02  0.49246046722E+02  0.93844549797E+02  0.11510133458E+03  0.00000000000E+00 0. -1.
         21    1    1    2  506  501  0.91929357110E+01 -0.94596365450E+02  0.91077155010E+00  0.95046367254E+02  0.00000000000E+00 0.  1.
<scales pt_clust_3="14000.00000" pt_clust_4="38.41173" pt_clust_5="59.98848" pt_clust_6="79.10554"></scales>
<clustering>
<clus scale="   38.412">  2  4  1 -1</clus>
<clus scale="   59.988">  2  5  1 -1</clus>
<clus scale="   79.106">  2  6  1 -1</clus>
<clus scale="   79.106">  1  3  2 -1</clus>
</clustering>
</event>
<event>
 6    0  0.1080632E+003  0.1169697E+03  0.7546771E-02  0.1248182E+00
         21   -1    0    0  504  501  0.00000000000E+00  0.00000000000E+00  0.24315804041E+03  0.24315804041E+03  0.00000000000E+00 0. -1.
         21   -1    0    0  506  502 -0.00000000000E+00 -0.00000000000E+00 -0.13205320381E+03  0.13205320381E+03  0.00000000000E+00 0. -1.
         21    1    1    2  503  505  0.38443836298E+02  0.30851300585E+02 -0.17385100281E+02  0.52268279184E+02  0.00000000000E+00 0. -1.
         21    1    1    2  504  503 -0.86429678388E+02 -0.72801612741E+02  0.17491958453E+03  0.20824750941E+03  0.00000000000E+00 0. -1.
         21    1    1    2  505  502  0.62944846713E+02  0.86819116568E+01 -0.45598746786E+02  0.78209174821E+02  0.00000000000E+00 0. -1.
         21    1    1    2  506  501 -0.14959004623E+02  0.33268400499E+02 -0.83090086436E+00  0.36486280810E+02  0.00000000000E+00 0.  1.
<scales pt_clust_3="30.69917" pt_clust_4="111.65593" pt_clust_5="30.69917" pt_clust_6="36.47682"></scales>
<clustering>
<clus scale="   30.699">  3  5 -1 -1</clus>
<clus scale="   36.477">  2  6  1 -1</clus>
<clus scale="  111.656">  1  4  2 -1</clus>
<clus scale="  111.656">  1  3  2 -1</clus>
</clustering>
</event>
<event>
 6    0  0.1080632E+003  0.1129865E+03  0.7546771E-02  0.1255137E+00
         21   -1    0    0  503  501  0.00000000000E+00  0.00000000000E+00  0.20009377357E+03  0.20009377357E+03  0.00000000000E+00 0. -1.
         21   -1    0    0  506  502 -0.00000000000E+00 -0.00000000000E+00 -0.94201802155E+03  0.94201802155E+03  0.00000000000E+00 0. -1.
         21    1    1    2  503  505  0.34360976325E+02 -0.27812421399E+02  0.29874892626E+02  0.53354631359E+02  0.00000000000E+00 0. -1.
         21    1    1    2  504  501  0.42407335993E+02  0.24686190160E+01  0.10303661266E+03  0.11144962887E+03  0.00000000000E+00 0. -1.
         21    1    1    2  505  502 -0.13277716925E+03 -0.71157530705E+02 -0.72374630412E+02  0.16712647300E+03  0.00000000000E+00 0. -1.
         21    1    1    2  506  504  0.56008856930E+02  0.96501333088E+02 -0.80246112286E+03  0.81018106189E+03  0.00000000000E+00 0. -1.
<scales pt_clust_3="59.67667" pt_clust_4="42.47913" pt_clust_5="14000.00000" pt_clust_6="112.98647"></scales>
<clustering>
<clus scale="   42.479">  1  4  2 -1</clus>
<clus scale="   59.677">  1  3  2 -1</clus>
<clus scale="  112.986">  2  6  1 -1</clus>
<clus scale="   42.479">  1  3  2 -1</clus>
</clustering>
</event>
<event>
 6    0  0.1080632E+003  0.1019093E+03  0.7546771E-02  0.1276332E+00
         21   -1    0    0  503  501  0.00000000000E+00  0.00000000000E+00  0.56653812848E+03  0.56653812848E+03  0.00000000000E+00 0.  1.
         21   -1    0    0  506  502 -0.00000000000E+00 -0.00000000000E+00 -0.47179821232E+02  0.47179821232E+02  0.00000000000E+00 0.  1.
         21    1    1    2  503  505  0.53596806051E+02  0.23040807783E+02  0.33636667642E+03  0.34138839676E+03  0.00000000000E+00 0.  1.
         21    1    1    2  504  501 -0.53662480622E+02 -0.39139288846E+01  0.64252432587E+02  0.83805463779E+02  0.00000000000E+00 0.  1.
         21    1    1    2  505  502  0.57952124187E+02 -0.49913207163E+02  0.86493634745E+02  0.11545962844E+03  0.00000000000E+00 0.  1.
         21    1    1    2  506  504 -0.57886449615E+02  0.30786328265E+02  0.32245563504E+02  0.73064460737E+02  0.00000000000E+00 0.  1.
<scales pt_clust_3="58.33949" pt_clust_4="41.81889" pt_clust_5="90.85415" pt_clust_6="41.81889"></scales>
<clustering>
<clus scale="   41.819">  4  6 -1 -1</clus>
<clus scale="   58.339">  1  3  2 -1</clus>
<clus scale="   90.854">  2  5  1 -1</clus>
<clus scale="   58.339">  1  3  2 -1</clus>
</clustering>
</event>
<event>
 6    0  0.1080632E+003  0.1193603E+03  0.7546771E-02  0.1244156E+00
         21   -1    0    0  506  501  0.00000000000E+00  0.00000000000E+00  0.12071674902E+04  0.12071674902E+04  0.00000000000E+00 0. -1.
         21   -1    0    0  504  502 -0.00000000000E+00 -0.00000000000E+00 -0.39162074454E+02  0.39162074454E+02  0.00000000000E+00 0. -1.
         21    1    1    2  503  501  0.12322428530E+02 -0.40247919789E+02  0.13934253165E+03  0.14556125315E+03  0.00000000000E+00 0. -1.
         21    1    1    2  504  503  0.27348710883E+02 -0.38874376277E+02  0.76352691194E+01  0.48140071172E+02  0.00000000000E+00 0. -1.
         21    1    1    2  505  502  0.71418911888E+02  0.11579206243E+03  0.46857651064E+03  0.48792664307E+03  0.00000000000E+00 0. -1.
         21    1    1    2  506  505 -0.11109005130E+03 -0.36669766366E+02  0.55245110434E+03  0.56470159726E+03  0.00000000000E+00 0. -1.
<scales pt_clust_3="42.09201" pt_clust_4="48.57984" pt_clust_5="14000.00000" pt_clust_6="119.36033"></scales>
<clustering>
<clus scale="   42.092">  1  3  2 -1</clus>
<clus scale="   48.580">  2  4  1 -1</clus>
<clus scale="  119.360">  1  6  2 -1</clus>
<clus scale="   42.092">  1  3  2 -1</clus>
</clustering>
</event>
<event>
 6    0  0.1080632E+003  0.1060713E+03  0.7546771E-02  0.1268023E+00
         21   -1    0    0  505  501  0.00000000000E+00  0.00000000000E+00  0.19756871439E+03  0.19756871439E+03  0.00000000000E+00 0.  1.
         21   -1    0    0  504  502 -0.00000000000E+00 -0.00000000000E+00 -0.31882056506E+03  0.31882056506E+03  0.00000000000E+00 0.  1.
         21    1    1    2  503  502 -0.37054973587E+02  0.85840923788E+01 -0.23104740802E+03  0.23415734552E+03  0.00000000000E+00 0.  1.
         21    1    1    2  504  501 -0.45466071652E+02  0.79458852343E+02  0.12252850511E+03  0.15295132380E+03  0.00000000000E+00 0.  1.
         21    1    1    2  505  506  0.31016718236E+02 -0.45889725945E+02  0.14680033366E+02  0.57301022129E+02  0.00000000000E+00 0.  1.
         21    1    1    2  506  503  0.51504327003E+02 -0.42153218776E+02 -0.27412981131E+02  0.71979587993E+02  0.00000000000E+00 0.  1.
<scales pt_clust_3="38.03627" pt_clust_4="96.23441" pt_clust_5="44.13477" pt_clust_6="44.13477"></scales>
<clustering>
<clus scale="   38.036">  2  3  1 -1</clus>
<clus scale="   44.135">  5  6 -1 -1</clus>
<clus scale="   96.234">  1  4  2 -1</clus>
<clus scale="   96.234">  1  3  2 -1</clus>
</clustering>
</event>
<event>
 6    0  0.1080632E+003  0.1335682E+03  0.7546771E-02  0.1222255E+00
         21   -1    0    0  505  501  0.00000000000E+00  0.00000000000E+00  0.49247548102E+03  0.49247548102E+03  0.00000000000E+00 0. -1.
         21   -1    0    0  503  502 -0.00000000000E+00 -0.00000000000E+00 -0.12298154539E+03  0.12298154539E+03  0.00000000000E+00 0. -1.
         21    1    1    2  503  506 -0.47549103633E+02  0.43714286734E+02  0.13450959008E+02  0.65975635042E+02  0.00000000000E+00 0. -1.
         21    1    1    2  504  501  0.60380052784E+02 -0.85727630498E+02  0.26258281578E+02  0.10809474898E+03  0.00000000000E+00 0. -1.
         21    1    1    2  505  502  0.25662367200E+01 -0.33746430450E+02  0.35762131222E+03  0.35921916721E+03  0.00000000000E+00 0. -1.
         21    1    1    2  506  504 -0.15397185870E+02  0.75759774214E+02 -0.27836617173E+02  0.82167475179E+02  0.00000000000E+00 0. -1.
<scales pt_clust_3="53.52907" pt_clust_4="119.73857" pt_clust_5="33.84386" pt_clust_6="53.52907"></scales>
<clustering>
<clus scale="   33.844">  1  5  2 -1</clus>
<clus scale="   53.529">  3  6 -1 -1</clus>
<clus scale="  119.739">  1  4  2 -1</clus>
<clus scale="   33.844">  1  3  2 -1</clus>
</clustering>
</event>
<event>
 6    0  0.1080632E+003  0.1192284E+03  0.7546771E-02  0.1244375E+00
         21   -1    0    0  503  501  0.00000000000E+00  0.00000000000E+00  0.15251114486E+03  0.15251114486E+03  0.00000000000E+00 0.  1.
         21   -1    0    0  504  502 -0.00000000000E+00 -0.00000000000E+00 -0.26481838842E+03  0.26481838842E+03  0.00000000000E+00 0.  1.
         21    1    1    2  503  505  0.76238330969E+02 -0.31764383231E+02  0.26314599557E+02  0.86681701073E+02  0.00000000000E+00 0.  1.
         21    1    1    2  504  506 -0.10725977575E+03  0.18984526042E+02 -0.18855371902E+03  0.21775577301E+03  0.00000000000E+00 0.  1.
         21    1    1    2  505  502  0.14794086436E+02 -0.41773686826E+02  0.20819187193E+02  0.48962684362E+02  0.00000000000E+00 0.  1.
         21    1    1    2  506  501  0.16227358348E+02  0.54553544015E+02  0.29112688707E+02  0.63929374839E+02  0.00000000000E+00 0. -1.
<scales pt_clust_3="36.50122" pt_clust_4="108.31594" pt_clust_5="36.50122" pt_clust_6="56.91587"></scales>
<clustering>
<clus scale="   36.501">  3  5 -1 -1</clus>
<clus scale="   56.916">  1  6  2 -1</clus>
<clus scale="  108.316">  2  4  1 -1</clus>
<clus scale="   56.916">  1  3  2 -1</clus>
</clustering>
</event>
<event>
 6    0  0.1080632E+003  0.3302063E+03  0.7546771E-02  0.1071046E+00
         21   -1    0    0  505  501  0.00000000000E+00  0.00000000000E+00  0.81400478006E+03  0.81400478006E+03  0.00000000000E+00 0. -1.
         21   -1    0    0  501  502 -0.00000000000E+00 -0.00000000000E+00 -0.71345192923E+03  0.71345192923E+03  0.00000000000E+00 0.  1.
         21    1    1    2  503  506 -0.43430026410E+02  0.34944914489E+02 -0.56967012112E+02  0.79702915327E+02  0.00000000000E+00 0. -1.
         21    1    1    2  504  503  0.10501805208E+03 -0.26356163194E+03  0.81856027605E+02  0.29528619058E+03  0.00000000000E+00 0.  1.
         21    1    1    2  505  504 -0.18788970491E+02 -0.44663103822E+02  0.57745585401E+03  0.57948518668E+03  0.00000000000E+00 0. -1.
         21    1    1    2  506  502 -0.42799055177E+02  0.27327982127E+03 -0.50179201867E+03  0.57298241669E+03  0.00000000000E+00 0.  1.
<scales pt_clust_3="47.82244" pt_clust_4="312.55025" pt_clust_5="48.45429" pt_clust_6="47.82244"></scales>
<clustering>
<clus scale="   47.822">  3  6 -1 -1</clus>
<clus scale="   48.454">  1  5  2 -1</clus>
<clus scale="  312.550">  1  4  2 -1</clus>
<clus scale="   48.454">  1  3  2 -1</clus>
</clustering>
</event>
<event>
 6    0  0.1080632E+003  0.9421906E+02  0.7546771E-02  0.1292945E+00
         21   -1    0    0  503  501  0.00000000000E+00  0.00000000000E+00  0.32404551540E+04  0.32404551540E+04  0.00000000000E+00 0. -1.
         21   -1    0    0  504  502 -0.00000000000E+00 -0.00000000000E+00 -0.15693423581E+03  0.15693423581E+03  0.00000000000E+00 0.  1.
         21    1    1    2  503  505 -0.74646226141E+02  0.27100570095E+02  0.30761666850E+04  0.30771915725E+04  0.00000000000E+00 0. -1.
         21    1    1    2  504  501  0.30592198274E+02  0.58278468930E+02  0.13643030551E+03  0.15147769076E+03  0.00000000000E+00 0.  1.
         21    1    1    2  505  506  0.45314923729E+02 -0.36992323265E+02 -0.55401767375E+02  0.80568170647E+02  0.00000000000E+00 0.  1.
         21    1    1    2  506  502 -0.12608958623E+01 -0.48386715760E+02 -0.73674304941E+02  0.88151955900E+02  0.00000000000E+00 0.  1.
<scales pt_clust_3="79.38338" pt_clust_4="65.81993" pt_clust_5="46.16390" pt_clust_6="46.16390"></scales>
<clustering>
<clus scale="   46.164">  5  6 -1 -1</clus>
<clus scale="   65.820">  2  4  1 -1</clus>
<clus scale="   79.383">  1  3  2 -1</clus>
<clus scale="   79.383">  1  3  2 -1</clus>
</clustering>
</event>
<event>
 6    0  0.1080632E+003  0.1305106E+03  0.7546771E-02  0.1226700E+00
         21   -1    0    0  506  501  0.00000000000E+00  0.00000000000E+00  0.13722799588E+03  0.13722799588E+03  0.00000000000E+00 0.  1.
         21   -1    0    0  503  502 -0.00000000000E+00 -0.00000000000E+00 -0.61041193620E+03  0.61041193620E+03  0.00000000000E+00 0. -1.
         21    1    1    2  503  504 -0.25814223898E+02 -0.24364762322E+02 -0.13715886299E+03  0.14167769583E+03  0.00000000000E+00 0.  1.
         21    1    1    2  504  501 -0.11193622126E+03  0.11630424805E+01 -0.24816815763E+03  0.27224713912E+03  0.00000000000E+00 0. -1.
         21    1    1    2  505  502  0.34466950633E+02 -0.29226004180E+02 -0.18007582620E+03  0.18565945488E+03  0.00000000000E+00 0. -1.
         21    1    1    2  506  505  0.10328349452E+03  0.52427724021E+02  0.92218906500E+02  0.14805564225E+03  0.00000000000E+00 0.  1.
<scales pt_clust_3="32.56027" pt_clust_4="32.56027" pt_clust_5="45.18993" pt_clust_6="117.00281"></scales>
<clustering>
<clus scale="   32.560">  3  4 -1 -1</clus>
<clus scale="   45.190">  2  5  1 -1</clus>
<clus scale="  117.003">  1  6  2 -1</clus>
<clus scale="  117.003">  1  3  2 -1</clus>
</clustering>
</event>
<event>
 6    0  0.1080632E+003  0.1319454E+03  0.7546771E-02  0.1224597E+00
         21   -1    0    0  503  501  0.00000000000E+00  0.00000000000E+00  0.13487681624E+04  0.13487681624E+04  0.00000000000E+00 0. -1.
         21   -1    0    0  504  502 -0.00000000000E+00 -0.00000000000E+00 -0.57487206200E+02  0.57487206200E+02  0.00000000000E+00 0. -1.
         21    1    1    2  503  506 -0.61087306771E+01  0.38253211842E+02  0.37056432796E+03  0.37258360936E+03  0.00000000000E+00 0. -1.
         21    1    1    2  504  501 -0.14896880549E+02 -0.53914427909E+02  0.11113368658E+03  0.12441615200E+03  0.00000000000E+00 0. -1.
         21    1    1    2  505  502 -0.73620861728E+02  0.10963473602E+03  0.55127955313E+02  0.14310450056E+03  0.00000000000E+00 0. -1.
         21    1    1    2  506  505  0.94626472954E+02 -0.93973519954E+02  0.75445498635E+03  0.76615110667E+03  0.00000000000E+00 0. -1.
<scales pt_clust_3="38.73790" pt_clust_4="51.72311" pt_clust_5="14000.00000" pt_clust_6="131.94543"></scales>
<clustering>
<clus scale="   38.738">  1  3  2 -1</clus>
<clus scale="   51.723">  1  4  2 -1</clus>
<clus scale="  131.945">  1  6  2 -1</clus>
<clus scale="   38.738">  1  3  2 -1</clus>
</clustering>
</event>
<event>
 6    0  0.1080632E+003  0.9863122E+02  0.7546771E-02  0.1283201E+00
         21   -1    0    0  503  501  0.00000000000E+00  0.00000000000E+00  0.66180993689E+02  0.66180993689E+02  0.00000000000E+00 0.  1.
         21   -1    0    0  506  502 -0.00000000000E+00 -0.00000000000E+00 -0.73827892796E+03  0.73827892796E+03  0.00000000000E+00 0.  1.
         21    1    1    2  503  502  0.11562931453E+03  0.57867130534E+02 -0.90486026713E+02  0.15781781967E+03  0.00000000000E+00 0.  1.
         21    1    1    2  504  505 -0.43314427792E+02 -0.88203125564E+02 -0.25453571161E+03  0.27284493673E+03  0.00000000000E+00 0.  1.
         21    1    1    2  505  501 -0.17796419897E+02 -0.50970922396E+02 -0.31666861294E+02  0.62590235622E+02  0.00000000000E+00 0.  1.
         21    1    1    2  506  504 -0.54518466840E+02  0.81306917426E+02 -0.29540933465E+03  0.31120692963E+03  0.00000000000E+00 0.  1.
<scales pt_clust_3="14000.00000" pt_clust_4="98.63122" pt_clust_5="53.98840" pt_clust_6="93.08676"></scales>
<clustering>
<clus scale="   53.988">  1  5  2 -1</clus>
<clus scale="   93.087">  2  6  1 -1</clus>
<clus scale="   98.631">  2  4  1 -1</clus>
<clus scale="   53.988">  1  3  2 -1</clus>
</clustering>
</event>
<event>
 6    0  0.1080632E+003  0.1446472E+03  0.7546771E-02  0.1207209E+00
         21   -1    0    0  505  501  0.00000000000E+00  0.00000000000E+00  0.19040833368E+04  0.19040833368E+04  0.00000000000E+00 0. -1.
         21   -1    0    0  506  502 -0.00000000000E+00 -0.00000000000E+00 -0.10086382975E+03  0.10086382975E+03  0.00000000000E+00 0.  1.
         21    1    1    2  503  501  0.13869366313E+02  0.13246094639E+03  0.17661069372E+04  0.17711216715E+04  0.00000000000E+00 0. -1.
         21    1    1    2  504  502 -0.17455958990E+02 -0.88202237798E+02  0.12304282320E+02  0.90750981374E+02  0.00000000000E+00 0.  1.
         21    1    1    2  505  504  0.33036688612E+02 -0.83055481717E+02  0.29533717943E+02  0.94137539448E+02  0.00000000000E+00 0.  1.
         21    1    1    2  506  503 -0.29450095935E+02  0.38796773129E+02 -0.47254304012E+01  0.48936974245E+02  0.00000000000E+00 0.  1.
<scales pt_clust_3="134.39278" pt_clust_4="51.25970" pt_clust_5="51.25970" pt_clust_6="48.70829"></scales>
<clustering>
<clus scale="   48.708">  2  6  1 -1</clus>
<clus scale="   51.260">  4  5 -1 -1</clus>
<clus scale="  134.393">  1  3  2 -1</clus>
<clus scale="  134.393">  1  3  2 -1</clus>
</clustering>
</event>
<event>
 6    0  0.1080632E+003  0.1241560E+03  0.7546771E-02  0.1236394E+00
         21   -1    0    0  503  501  0.00000000000E+00  0.00000000000E+00  0.10098723200E+04  0.10098723200E+04  0.00000000000E+00 0. -1.
         21   -1    0    0  505  502 -0.00000000000E+00 -0.00000000000E+00 -0.20435810427E+03  0.20435810427E+03  0.00000000000E+00 0.  1.
         21    1    1    2  503  502 -0.35312872611E+02  0.19251244347E+02  0.53020638004E+02  0.66549210629E+02  0.00000000000E+00 0. -1.
         21    1    1    2  504  506  0.82598683266E+01 -0.14650864468E+03  0.70665249220E+01  0.14691134798E+03  0.00000000000E+00 0.  1.
         21    1    1    2  505  504 -0.27706248152E+02  0.16169762692E+02 -0.12118165351E+03  0.12535585571E+03  0.00000000000E+00 0.  1.
         21    1    1    2  506  501  0.54759252436E+02  0.11108763764E+03  0.86660870631E+03  0.87541400995E+03  0.00000000000E+00 0. -1.
<scales pt_clust_3="42.89445" pt_clust_4="124.15599" pt_clust_5="32.07955" pt_clust_6="14000.00000"></scales>
<clustering>
<clus scale="   32.080">  2  5  1 -1</clus>
<clus scale="   42.894">  2  3  1 -1</clus>
<clus scale="  124.156">  2  4  1 -1</clus>
<clus scale="  124.156">  1  3  2 -1</clus>
</clustering>
</event>
<event>
 6    0  0.1080632E+003  0.1351989E+03  0.7546771E-02  0.1219939E+00
         21   -1    0    0  502  501  0.00000000000E+00  0.00000000000E+00  0.19112215187E+04  0.19112215187E+04  0.00000000000E+00 0. -1.
         21   -1    0    0  505  502 -0.00000000000E+00 -0.00000000000E+00 -0.34228887999E+02  0.34228887999E+02  0.00000000000E+00 0. -1.
         21    1    1    2  503  504  0.10475098073E+03 -0.69685586655E+02  0.80858896709E+03  0.81831837731E+03  0.00000000000E+00 0. -1.
         21    1    1    2  504  501 -0.27738307342E+02 -0.22048001188E+02  0.29465501385E+03  0.29677787188E+03  0.00000000000E+00 0. -1.
         21    1    1    2  505  506  0.18581114172E+01 -0.49820975804E+02  0.11623835455E+02  0.51192731504E+02  0.00000000000E+00 0. -1.
         21    1    1    2  506  503 -0.78870784810E+02  0.14155456365E+03  0.76212481435E+03  0.77916142604E+03  0.00000000000E+00 0. -1.
<scales pt_clust_3="14000.00000" pt_clust_4="35.43343" pt_clust_5="50.26693" pt_clust_6="135.19892"></scales>
<clustering>
<clus scale="   35.433">  1  4  2 -1</clus>
<clus scale="   50.267">  2  5  1 -1</clus>
<clus scale="  135.199">  2  6  1 -1</clus>
<clus scale="   35.433">  1  3  2 -1</clus>
</clustering>
</event>
<event>
 6    0  0.1080632E+003  0.1324696E+03  0.7546771E-02  0.1223837E+00
         21   -1    0    0  505  501  0.00000000000E+00  0.00000000000E+00  0.15037269355E+04  0.15037269355E+04  0.00000000000E+00 0. -1.
         21   -1    0    0  503  502 -0.00000000000E+00 -0.00000000000E+00 -0.12753576855E+03  0.12753576855E+03  0.00000000000E+00 0.  1.
         21    1    1    2  503  501  0.11149649926E+02  0.54303958146E+02  0.17417781697E+03  0.18278716172E+03  0.00000000000E+00 0. -1.
         21    1    1    2  504  506  0.22630332120E+02 -0.28224493388E+02  0.17606451950E+03  0.17974278563E+03  0.00000000000E+00 0. -1.
         21    1    1    2  505  504  0.82337692798E+02 -0.63633887121E+02  0.11136170339E+04  0.11184684464E+04  0.00000000000E+00 0. -1.
         21    1    1    2  506  502 -0.11611767484E+03  0.37554422363E+02 -0.87668203489E+02  0.15026431031E+03  0.00000000000E+00 0.  1.
<scales pt_clust_3="55.43676" pt_clust_4="30.16652" pt_clust_5="30.16652" pt_clust_6="122.19058"></scales>
<clustering>
<clus scale="   30.167">  4  5 -1 -1</clus>
<clus scale="   55.437">  1  3  2 -1</clus>
<clus scale="  122.191">  2  6  1 -1</clus>
<clus scale="   55.437">  1  3  2 -1</clus>
</clustering>
</event>
<event>
 6    0  0.1080632E+003  0.1820496E+03  0.7546771E-02  0.1165834E+00
         21   -1    0    0  506  501  0.00000000000E+00  0.00000000000E+00  0.12047791395E+03  0.12047791395E+03  0.00000000000E+00 0.  1.
         21   -1    0    0  505  502 -0.00000000000E+00 -0.00000000000E+00 -0.73632139801E+03  0.73632139801E+03  0.00000000000E+00 0.  1.
         21    1    1    2  503  501  0.39639550921E+00  0.37723299411E+02 -0.35845027997E+02  0.52039124512E+02  0.00000000000E+00 0.  1.
         21    1    1    2  504  502  0.10194332082E+03 -0.52774155297E+02 -0.31764384416E+03  0.33775015006E+03  0.00000000000E+00 0.  1.
         21    1    1    2  505  503 -0.16601333911E+03  0.15072522535E+02  0.28632985505E+02  0.16913739254E+03  0.00000000000E+00 0.  1.
         21    1    1    2  506  504  0.63673622781E+02 -0.21666648912E-01 -0.29098759740E+03  0.29787264485E+03  0.00000000000E+00 0.  1.
<scales pt_clust_3="37.72538" pt_clust_4="43.50943" pt_clust_5="172.55236" pt_clust_6="43.50943"></scales>
<clustering>
<clus scale="   37.725">  1  3  2 -1</clus>
<clus scale="   43.509">  4  6 -1 -1</clus>
<clus scale="  172.552">  1  5  2 -1</clus>
<clus scale="   37.725">  1  3  2 -1</clus>
</clustering>
</event>
<event>
 6    0  0.1080632E+003  0.1420754E+03  0.7546771E-02  0.1210563E+00
         21   -1    0    0  504  501  0.00000000000E+00  0.00000000000E+00  0.14725819674E+04  0.14725819674E+04  0.00000000000E+00 0. -1.
         21   -1    0    0  505  502 -0.00000000000E+00 -0.00000000000E+00 -0.16891857997E+03  0.16891857997E+03  0.00000000000E+00 0. -1.
         21    1    1    2  503  501 -0.12333779795E+03 -0.36908222971E+02  0.68190808831E+02  0.14568601764E+03  0.00000000000E+00 0. -1.
         21    1    1    2  504  502 -0.72432223047E+01 -0.84974513717E+02  0.11152093294E+04  0.11184654579E+04  0.00000000000E+00 0. -1.
         21    1    1    2  505  506  0.10624622430E+03 -0.88653916479E+02  0.10759594605E+02  0.13879317692E+03  0.00000000000E+00 0. -1.
         21    1    1    2  506  503  0.24334795963E+02  0.21053665317E+03  0.10950365466E+03  0.23855589493E+03  0.00000000000E+00 0. -1.
<scales pt_clust_3="140.19378" pt_clust_4="85.28266" pt_clust_5="142.07539" pt_clust_6="14000.00000"></scales>
<clustering>
<clus scale="   85.283">  1  4  2 -1</clus>
<clus scale="  140.194">  1  3  2 -1</clus>
<clus scale="  142.075">  2  5  1 -1</clus>
<clus scale="   85.283">  1  3  2 -1</clus>
</clustering>
</event>
<event>
 6    0  0.1080632E+003  0.6229888E+02  0.7546771E-02  0.1388430E+00
         21   -1    0    0  506  501  0.00000000000E+00  0.00000000000E+00  0.32671272832E+03  0.32671272832E+03  0.00000000000E+00 0.  1.
         21   -1    0    0  503  502 -0.00000000000E+00 -0.00000000000E+00 -0.10271716891E+03  0.10271716891E+03  0.00000000000E+00 0.  1.
         21    1    1    2  503  505  0.34928942530E+02 -0.68753349410E+02  0.13496345656E+01  0.77128954322E+02  0.00000000000E+00 0.  1.
         21    1    1    2  504  502 -0.22887862017E+01  0.38674227967E+02 -0.32457210895E+02  0.50541121774E+02  0.00000000000E+00 0.  1.
         21    1    1    2  505  501  0.33408762193E+02 -0.46809123298E+02  0.68820335223E+02  0.89685438926E+02  0.00000000000E+00 0.  1.
         21    1    1    2  506  504 -0.66048918521E+02  0.76888244741E+02  0.18628280052E+03  0.21207438220E+03  0.00000000000E+00 0.  1.
<scales pt_clust_3="14000.00000" pt_clust_4="38.74190" pt_clust_5="52.03610" pt_clust_6="62.29888"></scales>
<clustering>
<clus scale="   38.742">  2  4  1 -1</clus>
<clus scale="   52.036">  1  5  2 -1</clus>
<clus scale="   62.299">  1  6  2 -1</clus>
<clus scale="   52.036">  1  3  2 -1</clus>
</clustering>
</event>
<event>
 6    0  0.1080632E+003  0.8402554E+02  0.7546771E-02  0.1318001E+00
         21   -1    0    0  506  501  0.00000000000E+00  0.00000000000E+00  0.20051568585E+04  0.20051568585E+04  0.00000000000E+00 0.  1.
         21   -1    0    0  505  502 -0.00000000000E+00 -0.00000000000E+00 -0.70666133976E+03  0.70666133976E+03  0.00000000000E+00 0.  1.
         21    1    1    2  503  501 -0.33104209845E+02 -0.52944857186E+02  0.19715553770E+04  0.19725439542E+04  0.00000000000E+00 0.  1.
         21    1    1    2  504  502  0.15415047550E+02  0.54939436576E+02 -0.42956309208E+02  0.71422754659E+02  0.00000000000E+00 0. -1.
         21    1    1    2  505  503  0.86554814876E+02 -0.24487217694E+02 -0.55952476746E+03  0.56670920692E+03  0.00000000000E+00 0.  1.
         21    1    1    2  506  504 -0.68865652581E+02  0.22492638305E+02 -0.70578781630E+02  0.10114228245E+03  0.00000000000E+00 0.  1.
<scales pt_clust_3="62.40068" pt_clust_4="57.06107" pt_clust_5="84.02554" pt_clust_6="14000.00000"></scales>
<clustering>
<clus scale="   57.061">  2  4  1 -1</clus>
<clus scale="   62.401">  1  3  2 -1</clus>
<clus scale="   84.026">  2  5  1 -1</clus>
<clus scale="   62.401">  1  3  2 -1</clus>
</clustering>
</event>
<event>
 6    0  0.1080632E+003  0.1210312E+03  0.7546771E-02  0.1241406E+00
         21   -1    0    0  503  501  0.00000000000E+00  0.00000000000E+00  0.13422826261E+04  0.13422826261E+04  0.00000000000E+00 0. -1.
         21   -1    0    0  505  502 -0.00000000000E+00 -0.00000000000E+00 -0.13122947953E+03  0.13122947953E+03  0.00000000000E+00 0.  1.
         21    1    1    2  503  504  0.80966366993E+02  0.17725933826E+01  0.27865764001E+03  0.29018748251E+03  0.00000000000E+00 0.  1.
         21    1    1    2  504  502 -0.87551380913E+02 -0.86267013505E+00 -0.91718032177E+02  0.12679978677E+03  0.00000000000E+00 0.  1.
         21    1    1    2  505  506 -0.47941388054E+02 -0.22717108181E+02  0.30533055940E+02  0.61210384721E+02  0.00000000000E+00 0.  1.
         21    1    1    2  506  501  0.54526401975E+02  0.21807184933E+02  0.99358048278E+03  0.99531445161E+03  0.00000000000E+00 0. -1.
<scales pt_clust_3="121.03117" pt_clust_4="14000.00000" pt_clust_5="53.05133" pt_clust_6="58.32937"></scales>
<clustering>
<clus scale="   53.051">  2  5  1 -1</clus>
<clus scale="   58.329">  1  6  2 -1</clus>
<clus scale="  121.031">  1  3  2 -1</clus>
<clus scale="   58.329">  1  3  2 -1</clus>
</clustering>
</event>
<event>
 6    0  0.1080632E+003  0.2365522E+03  0.7546771E-02  0.1122111E+00
         21   -1    0    0  503  501  0.00000000000E+00  0.00000000000E+00  0.26135455250E+04  0.26135455250E+04  0.00000000000E+00 0.  1.
         21   -1    0    0  505  502 -0.00000000000E+00 -0.00000000000E+00 -0.45251612030E+02  0.45251612030E+02  0.00000000000E+00 0.  1.
         21    1    1    2  503  506 -0.10099562781E+02 -0.36697932305E+02  0.11774382880E+04  0.11780533356E+04  0.00000000000E+00 0. -1.
         21    1    1    2  504  502 -0.24295606794E+02  0.15066785359E+03  0.69873217518E+03  0.71520467787E+03  0.00000000000E+00 0.  1.
         21    1    1    2  505  501  0.12037866278E+02 -0.21517080547E+03  0.38253275000E+03  0.43906114673E+03  0.00000000000E+00 0.  1.
         21    1    1    2  506  504  0.22357303296E+02  0.10120088418E+03  0.30959069974E+03  0.32647797680E+03  0.00000000000E+00 0.  1.
<scales pt_clust_3="38.06231" pt_clust_4="58.89345" pt_clust_5="225.85581" pt_clust_6="58.89345"></scales>
<clustering>
<clus scale="   38.062">  1  3  2 -1</clus>
<clus scale="   58.893">  4  6 -1 -1</clus>
<clus scale="  225.856">  2  5  1 -1</clus>
<clus scale="   38.062">  1  3  2 -1</clus>
</clustering>
</event>
<event>
 6    0  0.1080632E+003  0.1071361E+03  0.7546771E-02  0.1265967E+00
         21   -1    0    0  506  501  0.00000000000E+00  0.00000000000E+00  0.45658394986E+03  0.45658394986E+03  0.00000000000E+00 0. -1.
         21   -1    0    0  503  502 -0.00000000000E+00 -0.00000000000E+00 -0.54708939658E+03  0.54708939658E+03  0.00000000000E+00 0. -1.
         21    1    1    2  503  504  0.96862953386E+02 -0.30092180100E+02 -0.40869758968E+03  0.42109582146E+03  0.00000000000E+00 0. -1.
         21    1    1    2  504  505 -0.87893668651E+02  0.25788965077E+02 -0.85451060250E+02  0.12526871679E+03  0.00000000000E+00 0. -1.
         21    1    1    2  505  501 -0.52001583938E+02 -0.66009830865E+01  0.40922350575E+03  0.41256710408E+03  0.00000000000E+00 0. -1.
         21    1    1    2  506  502  0.43032299203E+02  0.10904198110E+02 -0.55803025349E+01  0.44741704119E+02  0.00000000000E+00 0. -1.
<scales pt_clust_3="14000.00000" pt_clust_4="107.13605" pt_clust_5="52.27773" pt_clust_6="44.39235"></scales>
<clustering>
<clus scale="   44.392">  2  6  1 -1</clus>
<clus scale="   52.278">  1  5  2 -1</clus>
<clus scale="  107.136">  1  4  2 -1</clus>
<clus scale="   52.278">  1  3  2 -1</clus>
</clustering>
</event>
<event>
 6    0  0.1080632E+003  0.1211428E+03  0.7546771E-02  0.1241224E+00
         21   -1    0    0  504  501  0.00000000000E+00  0.00000000000E+00  0.53491764597E+03  0.53491764597E+03  0.00000000000E+00 0. -1.
         21   -1    0    0  501  502 -0.00000000000E+00 -0.00000000000E+00 -0.60673326135E+02  0.60673326135E+02  0.00000000000E+00 0. -1.
         21    1    1    2  503  502  0.41584711061E+02  0.35295037810E+01 -0.15271320892E+02  0.44440508916E+02  0.00000000000E+00 0. -1.
         21    1    1    2  504  506 -0.18085744252E+02 -0.11459490159E+03  0.33704680331E+03  0.35645425126E+03  0.00000000000E+00 0. -1.
         21    1    1    2  505  503 -0.34018444563E+02  0.62280316889E+02  0.83879355049E+02  0.10987191928E+03  0.00000000000E+00 0. -1.
         21    1    1    2  506  505  0.10519477754E+02  0.48785080924E+02  0.68589482362E+02  0.84824292650E+02  0.00000000000E+00 0.  1.
<scales pt_clust_3="41.73423" pt_clust_4="113.59327" pt_clust_5="35.30238" pt_clust_6="35.30238"></scales>
<clustering>
<clus scale="   35.302">  5  6 -1 -1</clus>
<clus scale="   41.734">  2  3  1 -1</clus>
<clus scale="  113.593">  1  4  2 -1</clus>
<clus scale="  113.593">  1  3  2 -1</clus>
</clustering>
</event>
<event>
 6    0  0.1080632E+003  0.1198394E+03  0.7546771E-02  0.1243362E+00
         21   -1    0    0  505  501  0.00000000000E+00  0.00000000000E+00  0.58776607973E+02  0.58776607973E+02  0.00000000000E+00 0. -1.
         21   -1    0    0  506  502 -0.00000000000E+00 -0.00000000000E+00 -0.50332143818E+03  0.50332143818E+03  0.00000000000E+00 0. -1.
         21    1    1    2  503  502 -0.32153215079E+02  0.66978157282E+01 -0.77124229828E+02  0.83826229797E+02  0.00000000000E+00 0. -1.
         21    1    1    2  504  503 -0.72212064579E+02 -0.71851232643E+02 -0.21973848948E+03  0.24220277798E+03  0.00000000000E+00 0. -1.
         21    1    1    2  505  504  0.84113281862E+01  0.56881755607E+02  0.26174291410E+01  0.57559842756E+02  0.00000000000E+00 0. -1.
         21    1    1    2  506  501  0.95953951472E+02  0.82716613080E+01 -0.15029954004E+03  0.17850919562E+03  0.00000000000E+00 0. -1.
<scales pt_clust_3="31.25730" pt_clust_4="31.25730" pt_clust_5="57.50030" pt_clust_6="106.44775"></scales>
<clustering>
<clus scale="   31.257">  3  4 -1 -1</clus>
<clus scale="   57.500">  1  5  2 -1</clus>
<clus scale="  106.448">  1  6  2 -1</clus>
<clus scale="   57.500">  1  3  2 -1</clus>
</clustering>
</event>
<event>
 6    0  0.1080632E+003  0.1991855E+03  0.7546771E-02  0.1150428E+00
         21   -1    0    0  505  501  0.00000000000E+00  0.00000000000E+00  0.75165179584E+03  0.75165179584E+03  0.00000000000E+00 0. -1.
         21   -1    0    0  501  502 -0.00000000000E+00 -0.00000000000E+00 -0.38598778786E+03  0.38598778786E+03  0.00000000000E+00 0.  1.
         21    1    1    2  503  502  0.46781430771E+00  0.47378903494E+02 -0.81522638250E+02  0.94291674572E+02  0.00000000000E+00 0.  1.
         21    1    1    2  504  503 -0.20216680257E+02  0.31437614596E+02 -0.28354442564E+02  0.46914946288E+02  0.00000000000E+00 0.  1.
         21    1    1    2  505  506  0.95883193311E+02 -0.14925469642E+03  0.71436294493E+03  0.73606043791E+03  0.00000000000E+00 0. -1.
         21    1    1    2  506  504 -0.76134327362E+02  0.70438178333E+02 -0.23882185614E+03  0.26037252493E+03  0.00000000000E+00 0.  1.
<scales pt_clust_3="59.39391" pt_clust_4="31.58056" pt_clust_5="177.39941" pt_clust_6="59.39391"></scales>
<clustering>
<clus scale="   31.581">  3  4 -1 -1</clus>
<clus scale="   59.394">  3  6 -1 -1</clus>
<clus scale="  177.399">  1  5  2 -1</clus>
<clus scale="  177.399">  1  3  2 -1</clus>
</clustering>
</event>
<event>
 6    0  0.1080632E+003  0.7179601E+02  0.7546771E-02  0.1354090E+00
         21   -1    0    0  505  501  0.00000000000E+00  0.00000000000E+00  0.27839363886E+03  0.27839363886E+03  0.00000000000E+00 0. -1.
         21   -1    0    0  506  502 -0.00000000000E+00 -0.00000000000E+00 -0.72720571810E+03  0.72720571810E+03  0.00000000000E+00 0.  1.
         21    1    1    2  503  502 -0.89215323219E+02  0.27805254771E+01 -0.52014944559E+03  0.52775235761E+03  0.00000000000E+00 0.  1.
         21    1    1    2  504  501  0.47729072129E+02  0.13703445842E+02 -0.83418246649E+02  0.97079620046E+02  0.00000000000E+00 0.  1.
         21    1    1    2  505  503  0.69599752562E+02  0.17074901693E+02  0.25845464108E+03  0.26820603893E+03  0.00000000000E+00 0. -1.
         21    1    1    2  506  504 -0.28113501472E+02 -0.33558873012E+02 -0.10369902807E+03  0.11256134037E+03  0.00000000000E+00 0.  1.
<scales pt_clust_3="71.79601" pt_clust_4="44.51151" pt_clust_5="14000.00000" pt_clust_6="43.77861"></scales>
<clustering>
<clus scale="   43.779">  2  6  1 -1</clus>
<clus scale="   44.512">  2  4  1 -1</clus>
<clus scale="   71.796">  2  3  1 -1</clus>
<clus scale="   71.796">  1  3  2 -1</clus>
</clustering>
</event>
<event>
 6    0  0.1080632E+003  0.1144754E+03  0.7546771E-02  0.1252500E+00
         21   -1    0    0  503  501  0.00000000000E+00  0.00000000000E+00  0.10531841618E+04  0.10531841618E+04  0.00000000000E+00 0. -1.
         21   -1    0    0  506  502 -0.00000000000E+00 -0.00000000000E+00 -0.74580754204E+03  0.74580754204E+03  0.00000000000E+00 0. -1.
         21    1    1    2  503  505 -0.39806656588E+02 -0.25920835576E+02  0.10189201260E+04  0.10200268050E+04  0.00000000000E+00 0. -1.
         21    1    1    2  504  501 -0.17056099667E+02 -0.91704592082E+02 -0.11444401278E+03  0.14764171093E+03  0.00000000000E+00 0.  1.
         21    1    1    2  505  502 -0.34488893231E+02  0.10612538389E+02 -0.29690333985E+02  0.46729280536E+02  0.00000000000E+00 0.  1.
         21    1    1    2  506  504  0.91351649485E+02  0.10701288927E+03 -0.56740915949E+03  0.58459390743E+03  0.00000000000E+00 0. -1.
<scales pt_clust_3="47.52028" pt_clust_4="14000.00000" pt_clust_5="36.08476" pt_clust_6="114.47543"></scales>
<clustering>
<clus scale="   36.085">  2  5  1 -1</clus>
<clus scale="   47.520">  1  3  2 -1</clus>
<clus scale="  114.475">  2  6  1 -1</clus>
<clus scale="   47.520">  1  3  2 -1</clus>
</clustering>
</event>
<event>
 6    0  0.1080632E+003  0.2101516E+03  0.7546771E-02  0.1141446E+00
         21   -1    0    0  505  501  0.00000000000E+00  0.00000000000E+00  0.37258162382E+03  0.37258162382E+03  0.00000000000E+00 0.  1.
         21   -1    0    0  504  502 -0.00000000000E+00 -0.00000000000E+00 -0.72127152544E+03  0.72127152544E+03  0.00000000000E+00 0.  1.
         21    1    1    2  503  501  0.54468619377E+02 -0.14992910503E+03 -0.12980917274E+02  0.16004396660E+03  0.00000000000E+00 0.  1.
         21    1    1    2  504  503  0.21165820368E+03  0.19720207413E+02 -0.45764673726E+03  0.50460738985E+03  0.00000000000E+00 0.  1.
         21    1    1    2  505  506 -0.63714458480E+02 -0.74340718274E+01  0.16826561714E+03  0.18007808183E+03  0.00000000000E+00 0.  1.
         21    1    1    2  506  502 -0.20241236457E+03  0.13764296944E+03 -0.46327864221E+02  0.24912371098E+03  0.00000000000E+00 0.  1.
<scales pt_clust_3="155.77081" pt_clust_4="210.15157" pt_clust_5="64.14669" pt_clust_6="14000.00000"></scales>
<clustering>
<clus scale="   64.147">  1  5  2 -1</clus>
<clus scale="  155.771">  1  3  2 -1</clus>
<clus scale="  210.152">  2  4  1 -1</clus>
<clus scale="   64.147">  1  3  2 -1</clus>
</clustering>
</event>
<event>
 6    0  0.1080632E+003  0.1624591E+03  0.7546771E-02  0.1185948E+00
         21   -1    0    0  504  501  0.00000000000E+00  0.00000000000E+00  0.17831686023E+03  0.17831686023E+03  0.00000000000E+00 0.  1.
         21   -1    0    0  505  502 -0.00000000000E+00 -0.00000000000E+00 -0.78700759960E+03  0.78700759960E+03  0.00000000000E+00 0. -1.
         21    1    1    2  503  501  0.11264657653E+03 -0.47490022208E+02  0.13452381809E+03  0.18177241553E+03  0.00000000000E+00 0.  1.
         21    1    1    2  504  502  0.26450925927E+02 -0.26595773734E+02 -0.21238592649E+02  0.43105272075E+02  0.00000000000E+00 0.  1.
         21    1    1    2  505  506 -0.40226530702E+02  0.46114830378E+02 -0.29515942661E+03  0.30143629256E+03  0.00000000000E+00 0. -1.
         21    1    1    2  506  503 -0.98870971756E+02  0.27970965565E+02 -0.42681653821E+03  0.43901047967E+03  0.00000000000E+00 0. -1.
<scales pt_clust_3="155.62026" pt_clust_4="37.50982" pt_clust_5="35.99336" pt_clust_6="35.99336"></scales>
<clustering>
<clus scale="   35.993">  5  6 -1 -1</clus>
<clus scale="   37.510">  1  4  2 -1</clus>
<clus scale="  155.620">  1  3  2 -1</clus>
<clus scale="   37.510">  1  3  2 -1</clus>
</clustering>
</event>
<event>
 6    0  0.1080632E+003  0.6495108E+02  0.7546771E-02  0.1378156E+00
         21   -1    0    0  504  501  0.00000000000E+00  0.00000000000E+00  0.12609785842E+04  0.12609785842E+04  0.00000000000E+00 0. -1.
         21   -1    0    0  503  502 -0.00000000000E+00 -0.00000000000E+00 -0.56943189304E+03  0.56943189304E+03  0.00000000000E+00 0. -1.
         21    1    1    2  503  506  0.64823839596E+02  0.21654891888E+01 -0.55482174667E+03  0.55860002694E+03  0.00000000000E+00 0. -1.
         21    1    1    2  504  505 -0.42818533438E+02 -0.29273749808E+02  0.34785319661E+03  0.35169905548E+03  0.00000000000E+00 0.  1.
         21    1    1    2  505  502 -0.73902493647E+02 -0.39802112389E+02  0.20610026792E+03  0.22253787802E+03  0.00000000000E+00 0.  1.
         21    1    1    2  506  501  0.51897187489E+02  0.66910373008E+02  0.69241497330E+03  0.69757351680E+03  0.00000000000E+00 0. -1.
<scales pt_clust_3="64.95108" pt_clust_4="51.86887" pt_clust_5="14000.00000" pt_clust_6="48.55649"></scales>
<clustering>
<clus scale="   51.869">  1  4  2 -1</clus>
<clus scale="   48.556">  1  6  2 -1</clus>
<clus scale="   64.951">  2  3  1 -1</clus>
<clus scale="   51.869">  1  3  2 -1</clus>
</clustering>
</event>
<event>
 6    0  0.1080632E+003  0.2412064E+03  0.7546771E-02  0.1118992E+00
         21   -1    0    0  503  501  0.00000000000E+00  0.00000000000E+00  0.51176446360E+03  0.51176446360E+03  0.00000000000E+00 0. -1.
         21   -1    0    0  506  502 -0.00000000000E+00 -0.00000000000E+00 -0.48316200657E+03  0.48316200657E+03  0.00000000000E+00 0.  1.
         21    1    1    2  503  505 -0.12526693311E+03  0.21118387943E+02  0.28949861005E+03  0.31614432789E+03  0.00000000000E+00 0. -1.
         21    1    1    2  504  502  0.65758342168E+02  0.84152761280E+01 -0.28272898389E+02  0.72071722751E+02  0.00000000000E+00 0.  1.
         21    1    1    2  505  504 -0.89110027702E+02 -0.68836210831E+02  0.15392574262E+03  0.19071485312E+03  0.00000000000E+00 0. -1.
         21    1    1    2  506  501  0.14861861864E+03  0.39302546760E+02 -0.38654899725E+03  0.41599556640E+03  0.00000000000E+00 0.  1.
<scales pt_clust_3="103.01135" pt_clust_4="66.29462" pt_clust_5="103.01135" pt_clust_6="214.78814"></scales>
<clustering>
<clus scale="   66.295">  2  4  1 -1</clus>
<clus scale="  103.011">  3  5 -1 -1</clus>
<clus scale="  214.788">  2  6  1 -1</clus>
<clus scale="  241.206">  1  3  2 -1</clus>
</clustering>
</event>
<event>
 6    0  0.1080632E+003  0.1712734E+03  0.7546771E-02  0.1176526E+00
         21   -1    0    0  506  501  0.00000000000E+00  0.00000000000E+00  0.23575501654E+04  0.23575501654E+04  0.00000000000E+00 0. -1.
         21   -1    0    0  505  502 -0.00000000000E+00 -0.00000000000E+00 -0.27970086479E+03  0.27970086479E+03  0.00000000000E+00 0.  1.
         21    1    1    2  503  502  0.17740290639E+03 -0.42924027032E+01 -0.12998485779E+03  0.21996881408E+03  0.00000000000E+00 0.  1.
         21    1    1    2  504  501  0.88095203030E+00 -0.50185810746E+02  0.70104967906E+02  0.86221216657E+02  0.00000000000E+00 0.  1.
         21    1    1    2  505  504 -0.15236878324E+03  0.80659252877E+02 -0.19515135232E+02  0.17350216623E+03  0.00000000000E+00 0.  1.
         21    1    1    2  506  503 -0.25915075173E+02 -0.26181039428E+02  0.21572443257E+04  0.21575588332E+04  0.00000000000E+00 0. -1.
<scales pt_clust_3="14000.00000" pt_clust_4="61.11266" pt_clust_5="171.27339" pt_clust_6="36.83800"></scales>
<clustering>
<clus scale="   36.838">  1  6  2 -1</clus>
<clus scale="   61.113">  1  4  2 -1</clus>
<clus scale="  171.273">  1  5  2 -1</clus>
<clus scale="   36.838">  1  3  2 -1</clus>
</clustering>
</event>
<event>
 6    0  0.1080632E+003  0.3386949E+03  0.7546771E-02  0.1067353E+00
         21   -1    0    0  504  501  0.00000000000E+00  0.00000000000E+00  0.81922721704E+02  0.81922721704E+02  0.00000000000E+00 0.  1.
         21   -1    0    0  505  502 -0.00000000000E+00 -0.00000000000E+00 -0.27862976583E+04  0.27862976583E+04  0.00000000000E+00 0.  1.
         21    1    1    2  503  502 -0.17183748795E+03  0.81525150086E+02 -0.98739518883E+03  0.10055464839E+04  0.00000000000E+00 0.  1.
         21    1    1    2  504  503 -0.14823594674E+02 -0.34534805779E+03 -0.11416071322E+04  0.11927916265E+04  0.00000000000E+00 0.  1.
         21    1    1    2  505  506  0.13893012623E+03  0.25061834253E+03 -0.53101763522E+03  0.60339942203E+03  0.00000000000E+00 0.  1.
         21    1    1    2  506  501  0.47730956394E+02  0.13204565177E+02 -0.44354980351E+02  0.66482847576E+02  0.00000000000E+00 0.  1.
<scales pt_clust_3="190.19588" pt_clust_4="318.54432" pt_clust_5="47.84223" pt_clust_6="47.84223"></scales>
<clustering>
<clus scale="   47.842">  5  6 -1 -1</clus>
<clus scale="  190.196">  2  3  1 -1</clus>
<clus scale="  318.544">  2  4  1 -1</clus>
<clus scale="  338.695">  1  3  2 -1</clus>
</clustering>
</event>
<event>
 6    0  0.1080632E+003  0.1285527E+03  0.7546771E-02  0.1229619E+00
         21   -1    0    0  504  501  0.00000000000E+00  0.00000000000E+00  0.10609912221E+04  0.10609912221E+04  0.00000000000E+00 0. -1.
         21   -1    0    0  503  502 -0.00000000000E+00 -0.00000000000E+00 -0.12255244498E+03  0.12255244498E+03  0.00000000000E+00 0. -1.
         21    1    1    2  503  505 -0.50213990397E+02 -0.15349375813E+02  0.26292529221E+03  0.26811705924E+03  0.00000000000E+00 0.  1.
         21    1    1    2  504  506  0.11773501344E+02 -0.36032727205E+02  0.57837097435E+02  0.69152748343E+02  0.00000000000E+00 0. -1.
         21    1    1    2  505  501 -0.38411022320E+02 -0.34402069847E+02  0.70177300856E+03  0.70366488088E+03  0.00000000000E+00 0. -1.
         21    1    1    2  506  502  0.76851511373E+02  0.85784172865E+02 -0.84096621066E+02  0.14260897864E+03  0.00000000000E+00 0. -1.
<scales pt_clust_3="51.92480" pt_clust_4="37.90742" pt_clust_5="51.92480" pt_clust_6="114.62143"></scales>
<clustering>
<clus scale="   37.907">  1  4  2 -1</clus>
<clus scale="   51.925">  3  5 -1 -1</clus>
<clus scale="  114.621">  2  6  1 -1</clus>
<clus scale="   37.907">  1  3  2 -1</clus>
</clustering>
</event>
<event>
 6    0  0.1080632E+003  0.1028332E+03  0.7546771E-02  0.1274448E+00
         21   -1    0    0  503  501  0.00000000000E+00  0.00000000000E+00  0.50807511729E+03  0.50807511729E+03  0.00000000000E+00 0.  1.
         21   -1    0    0  505  502 -0.00000000000E+00 -0.00000000000E+00 -0.90477134844E+02  0.90477134844E+02  0.00000000000E+00 0.  1.
         21    1    1    2  503  504  0.56290823288E+02  0.45653519168E+02  0.56182065782E+02  0.91702372458E+02  0.00000000000E+00 0.  1.
         21    1    1    2  504  502  0.58108391072E+02  0.35493151832E+02 -0.25695141174E+01  0.68139205622E+02  0.00000000000E+00 0.  1.
         21    1    1    2  505  506 -0.30963083948E+02 -0.74977554773E+02  0.18450315142E+02  0.83191107795E+02  0.00000000000E+00 0.  1.
         21    1    1    2  506  501 -0.83436130412E+02 -0.61691162280E+01  0.34553511564E+03  0.35551956626E+03  0.00000000000E+00 0.  1.
<scales pt_clust_3="53.11612" pt_clust_4="53.11612" pt_clust_5="81.11933" pt_clust_6="87.01499"></scales>
<clustering>
<clus scale="   53.116">  3  4 -1 -1</clus>
<clus scale="   81.119">  2  5  1 -1</clus>
<clus scale="   87.015">  1  6  2 -1</clus>
<clus scale="   87.015">  1  3  2 -1</clus>
</clustering>
</event>
<event>
 6    0  0.1080632E+003  0.8064875E+02  0.7546771E-02  0.1327220E+00
         21   -1    0    0  504  501  0.00000000000E+00  0.00000000000E+00  0.21612280440E+03  0.21612280440E+03  0.00000000000E+00 0.  1.
         21   -1    0    0  503  502 -0.00000000000E+00 -0.00000000000E+00 -0.58014787763E+03  0.58014787763E+03  0.00000000000E+00 0.  1.
         21    1    1    2  503  506 -0.39942655305E+01 -0.53460843692E+02 -0.36018655161E+02  0.64586062622E+02  0.00000000000E+00 0.  1.
         21    1    1    2  504  502  0.16466749604E+02 -0.30660320166E+02 -0.48850321692E+03  0.48974136237E+03  0.00000000000E+00 0.  1.
         21    1    1    2  505  501  0.21147048160E+01 -0.44371113139E+02  0.74183270900E+02  0.86466324885E+02  0.00000000000E+00 0. -1.
         21    1    1    2  506  505 -0.14587188890E+02  0.12849227700E+03  0.86313527946E+02  0.15547693216E+03  0.00000000000E+00 0.  1.
<scales pt_clust_3="14000.00000" pt_clust_4="34.80243" pt_clust_5="46.55167" pt_clust_6="80.64875"></scales>
<clustering>
<clus scale="   34.802">  2  4  1 -1</clus>
<clus scale="   46.552">  1  5  2 -1</clus>
<clus scale="   80.649">  1  6  2 -1</clus>
<clus scale="   46.552">  1  3  2 -1</clus>
</clustering>
</event>
<event>
 6    0  0.1080632E+003  0.7193610E+02  0.7546771E-02  0.1353630E+00
         21   -1    0    0  504  501  0.00000000000E+00  0.00000000000E+00  0.44212061209E+02  0.44212061209E+02  0.00000000000E+00 0.  1.
         21   -1    0    0  506  502 -0.00000000000E+00 -0.00000000000E+00 -0.48311642529E+03  0.48311642529E+03  0.00000000000E+00 0.  1.
         21    1    1    2  503  501 -0.18562861679E+02 -0.28441104643E+02 -0.26660297924E+02  0.43176935422E+02  0.00000000000E+00 0. -1.
         21    1    1    2  504  502  0.36242519723E+02  0.79465980043E+02 -0.53689891520E+02  0.10252300557E+03  0.00000000000E+00 0.  1.
         21    1    1    2  505  503 -0.28552150952E+02 -0.87282315193E+02 -0.23128981530E+03  0.24885418729E+03  0.00000000000E+00 0.  1.
         21    1    1    2  506  505  0.10872492908E+02  0.36257439793E+02 -0.12726435934E+03  0.13277435822E+03  0.00000000000E+00 0.  1.
<scales pt_clust_3="33.96287" pt_clust_4="71.93610" pt_clust_5="14000.00000" pt_clust_6="35.36413"></scales>
<clustering>
<clus scale="   33.963">  1  3  2 -1</clus>
<clus scale="   35.364">  2  6  1 -1</clus>
<clus scale="   71.936">  1  4  2 -1</clus>
<clus scale="   33.963">  1  3  2 -1</clus>
</clustering>
</event>
<event>
 6    0  0.1080632E+003  0.8193653E+02  0.7546771E-02  0.1323644E+00
         21   -1    0    0  505  501  0.00000000000E+00  0.00000000000E+00  0.74802087260E+03  0.74802087260E+03  0.00000000000E+00 0. -1.
         21   -1    0    0  503  502 -0.00000000000E+00 -0.00000000000E+00 -0.13363663842E+04  0.13363663842E+04  0.00000000000E+00 0.  1.
         21    1    1    2  503  504  0.50741997331E+02  0.40089600451E+02 -0.12691597618E+04  0.12708062116E+04  0.00000000000E+00 0.  1.
         21    1    1    2  504  506 -0.29163857279E+02 -0.75565472538E+02  0.11957286996E+02  0.81875807927E+02  0.00000000000E+00 0. -1.
         21    1    1    2  505  502  0.32429630570E+02 -0.99403442577E+01 -0.19911528495E+02  0.39331416830E+02  0.00000000000E+00 0. -1.
         21    1    1    2  506  501 -0.54007770622E+02  0.45416216345E+02  0.68876849175E+03  0.69237382043E+03  0.00000000000E+00 0. -1.
<scales pt_clust_3="81.93653" pt_clust_4="14000.00000" pt_clust_5="33.91889" pt_clust_6="70.52231"></scales>
<clustering>
<clus scale="   33.919">  2  5  1 -1</clus>
<clus scale="   70.522">  1  6  2 -1</clus>
<clus scale="   81.937">  2  3  1 -1</clus>
<clus scale="   70.522">  1  3  2 -1</clus>
</clustering>
</event>
<event>
 6    0  0.1080632E+003  0.8090584E+02  0.7546771E-02  0.1326500E+00
         21   -1    0    0  505  501  0.00000000000E+00  0.00000000000E+00  0.50630630654E+02  0.50630630654E+02  0.00000000000E+00 0.  1.
         21   -1    0    0  504  502 -0.00000000000E+00 -0.00000000000E+00 -0.66181100947E+03  0.66181100947E+03  0.00000000000E+00 0.  1.
         21    1    1    2  503  506  0.83783933898E+02 -0.14517426679E+01 -0.72570461744E+02  0.11085272687E+03  0.00000000000E+00 0.  1.
         21    1    1    2  504  501 -0.33308153230E+02 -0.63129713611E+02 -0.37334600227E+03  0.38010792050E+03  0.00000000000E+00 0.  1.
         21    1    1    2  505  503 -0.10702205677E+01  0.56456878669E+02 -0.87342847136E+01  0.57138535600E+02  0.00000000000E+00 0.  1.
         21    1    1    2  506  502 -0.49405560100E+02  0.81245776103E+01 -0.15652963008E+03  0.16434245716E+03  0.00000000000E+00 0.  1.
<scales pt_clust_3="14000.00000" pt_clust_4="80.90584" pt_clust_5="57.15378" pt_clust_6="50.06913"></scales>
<clustering>
<clus scale="   50.069">  2  6  1 -1</clus>
<clus scale="   57.154">  1  5  2 -1</clus>
<clus scale="   80.906">  2  4  1 -1</clus>
<clus scale="   57.154">  1  3  2 -1</clus>
</clustering>
</event>
<event>
 6    0  0.1206574E+003  0.1017123E+03  0.7546771E-02  0.1276736E+00
         21   -1    0    0  506  501  0.00000000000E+00  0.00000000000E+00  0.11966830059E+03  0.11966830059E+03  0.00000000000E+00 0. -1.
         21   -1    0    0  503  502 -0.00000000000E+00 -0.00000000000E+00 -0.16895893607E+04  0.16895893607E+04  0.00000000000E+00 0. -1.
         21    1    1    2  503  505  0.51085544966E+02  0.83117406500E+01  0.38294603927E+02  0.64383962498E+02  0.00000000000E+00 0. -1.
         21    1    1    2  504  502 -0.92132219467E+02  0.17752801344E+02 -0.16212992925E+04  0.16240119777E+04  0.00000000000E+00 0. -1.
         21    1    1    2  505  501  0.76392990693E+02 -0.23328593077E+02  0.24613465702E+02  0.83581905792E+02  0.00000000000E+00 0. -1.
         21    1    1    2  506  504 -0.35346316192E+02 -0.27359489169E+01 -0.11529837267E+02  0.37279815346E+02  0.00000000000E+00 0. -1.
<scales pt_clust_3="30.75979" pt_clust_4="94.26132" pt_clust_5="30.75979" pt_clust_6="35.45204"></scales>
<clustering>
<clus scale="   30.760">  3  5 -1 -1</clus>
<clus scale="   35.452">  1  6  2 -1</clus>
<clus scale="   94.261">  2  4  1 -1</clus>
<clus scale="   35.452">  1  3  2 -1</clus>
</clustering>
</event>
<event>
 6    0  0.1080632E+003  0.1249267E+03  0.7546771E-02  0.1235184E+00
         21   -1    0    0  505  501  0.00000000000E+00  0.00000000000E+00  0.32282491937E+03  0.32282491937E+03  0.00000000000E+00 0.  1.
         21   -1    0    0  504  502 -0.00000000000E+00 -0.00000000000E+00 -0.82438527506E+02  0.82438527506E+02  0.00000000000E+00 0.  1.
         21    1    1    2  503  502 -0.14716357545E+02 -0.28952992473E+02 -0.29515309569E+02  0.43886221659E+02  0.00000000000E+00 0.  1.
         21    1    1    2  504  506  0.32846163694E+02  0.50920209133E+02  0.78434172783E+02  0.99114366405E+02  0.00000000000E+00 0.  1.
         21    1    1    2  505  503 -0.94498697307E+02 -0.35321728603E+02  0.12053103790E+03  0.15717938606E+03  0.00000000000E+00 0.  1.
         21    1    1    2  506  501  0.76368891158E+02  0.13354511943E+02  0.70936490745E+02  0.10508347275E+03  0.00000000000E+00 0.  1.
<scales pt_clust_3="32.47841" pt_clust_4="49.99441" pt_clust_5="110.81825" pt_clust_6="49.99441"></scales>
<clustering>
<clus scale="   32.478">  2  3  1 -1</clus>
<clus scale="   49.994">  4  6 -1 -1</clus>
<clus scale="  110.818">  1  5  2 -1</clus>
<clus scale="  110.818">  1  3  2 -1</clus>
</clustering>
</event>
<event>
 6    0  0.1080632E+003  0.1214871E+03  0.7546771E-02  0.1240664E+00
         21   -1    0    0  504  501  0.00000000000E+00  0.00000000000E+00  0.39968219179E+02  0.39968219179E+02  0.00000000000E+00 0.  1.
         21   -1    0    0  506  502 -0.00000000000E+00 -0.00000000000E+00 -0.70817384098E+03  0.70817384098E+03  0.00000000000E+00 0.  1.
         21    1    1    2  503  505 -0.35355393545E+02 -0.22520557047E+02 -0.51958264218E+02  0.66759572819E+02  0.00000000000E+00 0.  1.
         21    1    1    2  504  502  0.71352645957E+02  0.46287637610E+02 -0.29822651637E+03  0.31011739800E+03  0.00000000000E+00 0.  1.
         21    1    1    2  505  501 -0.94775079140E+02  0.27417603867E+02 -0.10334428994E+03  0.14287786004E+03  0.00000000000E+00 0.  1.
         21    1    1    2  506  503  0.58777826728E+02 -0.51184684430E+02 -0.21467655128E+03  0.22838722929E+03  0.00000000000E+00 0.  1.
<scales pt_clust_3="34.92618" pt_clust_4="109.03245" pt_clust_5="34.92618" pt_clust_6="77.94039"></scales>
<clustering>
<clus scale="   34.926">  3  5 -1 -1</clus>
<clus scale="   77.940">  2  6  1 -1</clus>
<clus scale="  109.032">  2  4  1 -1</clus>
<clus scale="  121.487">  1  3  2 -1</clus>
</clustering>
</event>
<event>
 6    0  0.2985651E+003  0.9879817E+02  0.7546771E-02  0.1282844E+00
         21   -1    0    0  505  501  0.00000000000E+00  0.00000000000E+00  0.34420924168E+03  0.34420924168E+03  0.00000000000E+00 0.  1.
         21   -1    0    0  506  502 -0.00000000000E+00 -0.00000000000E+00 -0.79531260289E+03  0.79531260289E+03  0.00000000000E+00 0.  1.
         21    1    1    2  503  502  0.56435753913E+02  0.83542200716E+02 -0.73337232779E+03  0.74026972435E+03  0.00000000000E+00 0.  1.
         21    1    1    2  504  503 -0.58280143507E+02 -0.49581165777E+02  0.81715310047E+01  0.76952199748E+02  0.00000000000E+00 0.  1.
         21    1    1    2  505  504  0.27599770758E+02 -0.71643107821E+02  0.26481860846E+03  0.27572337157E+03  0.00000000000E+00 0.  1.
         21    1    1    2  506  501 -0.25755381164E+02  0.37682072882E+02  0.92788271132E+01  0.46576548908E+02  0.00000000000E+00 0.  1.
<scales pt_clust_3="14000.00000" pt_clust_4="98.79817" pt_clust_5="39.83708" pt_clust_6="45.64294"></scales>
<clustering>
<clus scale="   45.643">  1  6  2 -1</clus>
<clus scale="   39.837">  1  5  2 -1</clus>
<clus scale="   98.798">  1  4  2 -1</clus>
<clus scale="   45.643">  1  3  2 -1</clus>
</clustering>
</event>
<event>
 6    0  0.1080632E+003  0.1774819E+03  0.7546771E-02  0.1170263E+00
         21   -1    0    0  502  501  0.00000000000E+00  0.00000000000E+00  0.11241870033E+03  0.11241870033E+03  0.00000000000E+00 0. -1.
         21   -1    0    0  503  502 -0.00000000000E+00 -0.00000000000E+00 -0.12257273271E+04  0.12257273271E+04  0.00000000000E+00 0.  1.
         21    1    1    2  503  504  0.99313853519E+02 -0.12244243344E+02 -0.40750921971E+03  0.41961521319E+03  0.00000000000E+00 0.  1.
         21    1    1    2  504  506  0.19419804518E+02 -0.12475551179E+03 -0.72193327914E+03  0.73289066446E+03  0.00000000000E+00 0.  1.
         21    1    1    2  505  501 -0.54695309865E+02  0.60511056236E+02 -0.10882516849E+02  0.82289695715E+02  0.00000000000E+00 0. -1.
         21    1    1    2  506  505 -0.64038348172E+02  0.76488698901E+02  0.27016388878E+02  0.10335045411E+03  0.00000000000E+00 0. -1.
<scales pt_clust_3="100.06579" pt_clust_4="173.67924" pt_clust_5="33.04327" pt_clust_6="33.04327"></scales>
<clustering>
<clus scale="   33.043">  5  6 -1 -1</clus>
<clus scale="  100.066">  2  3  1 -1</clus>
<clus scale="  173.679">  2  4  1 -1</clus>
<clus scale="  177.482">  1  3  2 -1</clus>
</clustering>
</event>
<event>
 6    0  0.1080632E+003  0.1931561E+03  0.7546771E-02  0.1155645E+00
         21   -1    0    0  504  501  0.00000000000E+00  0.00000000000E+00  0.11681926419E+03  0.11681926419E+03  0.00000000000E+00 0.  1.
         21   -1    0    0  506  502 -0.00000000000E+00 -0.00000000000E+00 -0.88208313305E+03  0.88208313305E+03  0.00000000000E+00 0. -1.
         21    1    1    2  503  502  0.10209792331E+03  0.10718876107E+03 -0.57637877378E+02  0.15885698396E+03  0.00000000000E+00 0.  1.
         21    1    1    2  504  503  0.15064658484E+02  0.69183712214E+02 -0.73309007422E+02  0.10191928444E+03  0.00000000000E+00 0.  1.
         21    1    1    2  505  501 -0.77060839007E+02 -0.13525894293E+03 -0.69642804903E+02  0.17053877807E+03  0.00000000000E+00 0.  1.
         21    1    1    2  506  505 -0.40101742791E+02 -0.41113530352E+02 -0.56467417916E+03  0.56758735078E+03  0.00000000000E+00 0. -1.
<scales pt_clust_3="53.67293" pt_clust_4="53.67293" pt_clust_5="176.87966" pt_clust_6="57.43233"></scales>
<clustering>
<clus scale="   53.673">  3  4 -1 -1</clus>
<clus scale="   57.432">  2  6  1 -1</clus>
<clus scale="  176.880">  1  5  2 -1</clus>
<clus scale="  176.880">  1  3  2 -1</clus>
</clustering>
</event>
<event>
 6    0  0.1080632E+003  0.2568312E+03  0.7546771E-02  0.1109062E+00
         21   -1    0    0  503  501  0.00000000000E+00  0.00000000000E+00  0.87489994700E+02  0.87489994700E+02  0.00000000000E+00 0.  1.
         21   -1    0    0  504  502 -0.00000000000E+00 -0.00000000000E+00 -0.15313135648E+04  0.15313135648E+04  0.00000000000E+00 0.  1.
         21    1    1    2  503  502  0.24003289506E+03  0.37717881199E+02 -0.12132316790E+04  0.12373235374E+04  0.00000000000E+00 0.  1.
         21    1    1    2  504  505 -0.57070608547E+02 -0.58116739489E+02 -0.11127691382E+03  0.13790272411E+03  0.00000000000E+00 0.  1.
         21    1    1    2  505  506 -0.14607200238E+03  0.19647585193E+02 -0.13827192546E+03  0.20209448991E+03  0.00000000000E+00 0.  1.
         21    1    1    2  506  501 -0.36890284136E+02  0.75127309733E+00  0.18956948235E+02  0.41482808021E+02  0.00000000000E+00 0.  1.
<scales pt_clust_3="235.34144" pt_clust_4="74.28313" pt_clust_5="74.28313" pt_clust_6="36.89793"></scales>
<clustering>
<clus scale="   36.898">  1  6  2 -1</clus>
<clus scale="   74.283">  4  5 -1 -1</clus>
<clus scale="  235.341">  2  3  1 -1</clus>
<clus scale="   36.898">  1  3  2 -1</clus>
</clustering>
</event>
<event>
 6    0  0.1080632E+003  0.1033345E+03  0.7546771E-02  0.1273436E+00
         21   -1    0    0  506  501  0.00000000000E+00  0.00000000000E+00  0.30455081577E+03  0.30455081577E+03  0.00000000000E+00 0. -1.
         21   -1    0    0  503  502 -0.00000000000E+00 -0.00000000000E+00 -0.69963465599E+03  0.69963465599E+03  0.00000000000E+00 0.  1.
         21    1    1    2  503  504  0.26185730419E+02  0.97087263559E+02 -0.29330646278E+03  0.31006500984E+03  0.00000000000E+00 0.  1.
         21    1    1    2  504  501 -0.38433123952E+02 -0.24438942660E+02  0.27654226396E+03  0.28026771254E+03  0.00000000000E+00 0. -1.
         21    1    1    2  505  502 -0.34859981239E+02  0.35471124816E+02 -0.11900384526E+03  0.12897803756E+03  0.00000000000E+00 0.  1.
         21    1    1    2  506  505  0.47107374772E+02 -0.10811944571E+03 -0.25931579615E+03  0.28487471181E+03  0.00000000000E+00 0.  1.
<scales pt_clust_3="103.33454" pt_clust_4="45.54522" pt_clust_5="52.24264" pt_clust_6="14000.00000"></scales>
<clustering>
<clus scale="   45.545">  1  4  2 -1</clus>
<clus scale="   52.243">  2  5  1 -1</clus>
<clus scale="  103.335">  1  3  2 -1</clus>
<clus scale="   45.545">  1  3  2 -1</clus>
</clustering>
</event>
<event>
 6    0  0.1080632E+003  0.1154384E+03  0.7546771E-02  0.1250818E+00
         21   -1    0    0  505  501  0.00000000000E+00  0.00000000000E+00  0.83397412595E+02  0.83397412595E+02  0.00000000000E+00 0.  1.
         21   -1    0    0  506  502 -0.00000000000E+00 -0.00000000000E+00 -0.11001605868E+04  0.11001605868E+04  0.00000000000E+00 0. -1.
         21    1    1    2  503  501 -0.57198747507E+02  0.83575919219E+02  0.22195113455E+02  0.10367860942E+03  0.00000000000E+00 0.  1.
         21    1    1    2  504  502 -0.30036988916E+02 -0.93584090242E+01 -0.19704935039E+03  0.19954510019E+03  0.00000000000E+00 0. -1.
         21    1    1    2  505  504  0.61101877035E+02  0.35952691090E+02 -0.68162744220E+02  0.98347318588E+02  0.00000000000E+00 0. -1.
         21    1    1    2  506  503  0.26133859389E+02 -0.11017020129E+03 -0.77374619306E+03  0.78198697121E+03  0.00000000000E+00 0. -1.
<scales pt_clust_3="115.43840" pt_clust_4="31.46110" pt_clust_5="68.06980" pt_clust_6="14000.00000"></scales>
<clustering>
<clus scale="   31.461">  2  4  1 -1</clus>
<clus scale="   68.070">  1  5  2 -1</clus>
<clus scale="  115.438">  1  3  2 -1</clus>
<clus scale="   68.070">  1  3  2 -1</clus>
</clustering>
</event>
<event>
 6    0  0.1080632E+003  0.1135294E+03  0.7546771E-02  0.1254170E+00
         21   -1    0    0  506  501  0.00000000000E+00  0.00000000000E+00  0.17483277899E+03  0.17483277899E+03  0.00000000000E+00 0.  1.
         21   -1    0    0  505  502 -0.00000000000E+00 -0.00000000000E+00 -0.22324613745E+03  0.22324613745E+03  0.00000000000E+00 0.  1.
         21    1    1    2  503  502 -0.16915398024E+01 -0.14304648307E+03 -0.41010158300E+02  0.14881865041E+03  0.00000000000E+00 0.  1.
         21    1    1    2  504  501  0.31232443447E+01  0.69913635132E+02  0.25222087995E+02  0.74389681781E+02  0.00000000000E+00 0.  1.
         21    1    1    2  505  504  0.47818776568E+02  0.90284877590E+02 -0.57341754812E+02  0.11715831750E+03  0.00000000000E+00 0.  1.
         21    1    1    2  506  503 -0.49250481110E+02 -0.17152029653E+02  0.24716466655E+02  0.57712266761E+02  0.00000000000E+00 0.  1.
<scales pt_clust_3="14000.00000" pt_clust_4="65.32167" pt_clust_5="113.52944" pt_clust_6="52.15172"></scales>
<clustering>
<clus scale="   52.152">  1  6  2 -1</clus>
<clus scale="   65.322">  1  4  2 -1</clus>
<clus scale="  113.529">  2  5  1 -1</clus>
<clus scale="   52.152">  1  3  2 -1</clus>
</clustering>
</event>
<event>
 6    0  0.1080632E+003  0.8591452E+02  0.7546771E-02  0.1313058E+00
         21   -1    0    0  505  501  0.00000000000E+00  0.00000000000E+00  0.60360781462E+02  0.60360781462E+02  0.00000000000E+00 0.  1.
         21   -1    0    0  504  502 -0.00000000000E+00 -0.00000000000E+00 -0.98291675945E+03  0.98291675945E+03  0.00000000000E+00 0. -1.
         21    1    1    2  503  501  0.24474486464E+02  0.19227334476E+02  0.10690887393E+02  0.32908751905E+02  0.00000000000E+00 0.  1.
         21    1    1    2  504  506  0.35039344062E+02  0.15587500547E+02 -0.84937493212E+02  0.93193903012E+02  0.00000000000E+00 0.  1.
         21    1    1    2  505  502 -0.12338549188E+03 -0.17007655723E+02 -0.84133178009E+03  0.85050126640E+03  0.00000000000E+00 0. -1.
         21    1    1    2  506  503  0.63871661351E+02 -0.17807179300E+02 -0.69775920767E+01  0.66673619592E+02  0.00000000000E+00 0.  1.
<scales pt_clust_3="31.12380" pt_clust_4="41.58865" pt_clust_5="85.91452" pt_clust_6="14000.00000"></scales>
<clustering>
<clus scale="   31.124">  1  3  2 -1</clus>
<clus scale="   41.589">  2  4  1 -1</clus>
<clus scale="   85.915">  2  5  1 -1</clus>
<clus scale="   31.124">  1  3  2 -1</clus>
</clustering>
</event>
<event>
 6    0  0.1080632E+003  0.8529726E+02  0.7546771E-02  0.1314657E+00
         21   -1    0    0  505  501  0.00000000000E+00  0.00000000000E+00  0.52656055682E+02  0.52656055682E+02  0.00000000000E+00 0.  1.
         21   -1    0    0  504  502 -0.00000000000E+00 -0.00000000000E+00 -0.47951740513E+03  0.47951740513E+03  0.00000000000E+00 0.  1.
         21    1    1    2  503  506 -0.58794091767E+02  0.31937353084E+02 -0.16236320053E+03  0.17560907902E+03  0.00000000000E+00 0.  1.
         21    1    1    2  504  503  0.15907899181E+02  0.35908070425E+02 -0.85191409952E+02  0.93808459681E+02  0.00000000000E+00 0.  1.
         21    1    1    2  505  502  0.81376005387E+02 -0.81511498127E+02 -0.18848739777E+03  0.22089291002E+03  0.00000000000E+00 0.  1.
         21    1    1    2  506  501 -0.38489812801E+02  0.13666074618E+02  0.91806588054E+01  0.41863012087E+02  0.00000000000E+00 0.  1.
<scales pt_clust_3="14000.00000" pt_clust_4="39.27405" pt_clust_5="85.29726" pt_clust_6="40.75227"></scales>
<clustering>
<clus scale="   39.274">  2  4  1 -1</clus>
<clus scale="   40.752">  1  6  2 -1</clus>
<clus scale="   85.297">  1  5  2 -1</clus>
<clus scale="   40.752">  1  3  2 -1</clus>
</clustering>
</event>
<event>
 6    0  0.1080632E+003  0.1521006E+03  0.7546771E-02  0.1197915E+00
         21   -1    0    0  504  501  0.00000000000E+00  0.00000000000E+00  0.80594870934E+02  0.80594870934E+02  0.00000000000E+00 0. -1.
         21   -1    0    0  506  502 -0.00000000000E+00 -0.00000000000E+00 -0.44250072704E+03  0.44250072704E+03  0.00000000000E+00 0. -1.
         21    1    1    2  503  505  0.36980235511E+02  0.63205315240E+02 -0.79845868084E+02  0.10834118489E+03  0.00000000000E+00 0. -1.
         21    1    1    2  504  502  0.47627774947E+00 -0.14662096598E+03 -0.64796698251E+02  0.16030142423E+03  0.00000000000E+00 0. -1.
         21    1    1    2  505  501 -0.70370515762E+01  0.77280916754E+02 -0.71817803118E+02  0.10573389728E+03  0.00000000000E+00 0. -1.
         21    1    1    2  506  503 -0.30419461684E+02  0.61347339909E+01 -0.14544548665E+03  0.14871909157E+03  0.00000000000E+00 0. -1.
<scales pt_clust_3="43.80095" pt_clust_4="144.71108" pt_clust_5="43.80095" pt_clust_6="31.03190"></scales>
<clustering>
<clus scale="   31.032">  2  6  1 -1</clus>
<clus scale="   43.801">  3  5 -1 -1</clus>
<clus scale="  144.711">  1  4  2 -1</clus>
<clus scale="  144.711">  1  3  2 -1</clus>
</clustering>
</event>
<event>
 6    0  0.1080632E+003  0.7185400E+02  0.7546771E-02  0.1353900E+00
         21   -1    0    0  506  501  0.00000000000E+00  0.00000000000E+00  0.39115387343E+02  0.39115387343E+02  0.00000000000E+00 0. -1.
         21   -1    0    0  504  502 -0.00000000000E+00 -0.00000000000E+00 -0.82400297076E+03  0.82400297076E+03  0.00000000000E+00 0. -1.
         21    1    1    2  503  501 -0.45030279233E+02  0.27641545139E+02 -0.63862233078E+02  0.82886463787E+02  0.00000000000E+00 0. -1.
         21    1    1    2  504  503  0.30547377890E+02  0.10345231034E+03 -0.11914323295E+03  0.16071911140E+03  0.00000000000E+00 0. -1.
         21    1    1    2  505  502 -0.56492678203E+01 -0.67252923813E+02 -0.42618420609E+03  0.43149489859E+03  0.00000000000E+00 0. -1.
         21    1    1    2  506  505  0.20132169163E+02 -0.63840931668E+02 -0.17569791130E+03  0.18801788433E+03  0.00000000000E+00 0. -1.
<scales pt_clust_3="52.83731" pt_clust_4="14000.00000" pt_clust_5="71.85400" pt_clust_6="59.07767"></scales>
<clustering>
<clus scale="   52.837">  1  3  2 -1</clus>
<clus scale="   59.078">  1  6  2 -1</clus>
<clus scale="   71.854">  2  5  1 -1</clus>
<clus scale="   52.837">  1  3  2 -1</clus>
</clustering>
</event>
<event>
 6    0  0.1080632E+003  0.1280190E+03  0.7546771E-02  0.1230425E+00
         21   -1    0    0  505  501  0.00000000000E+00  0.00000000000E+00  0.37603632535E+03  0.37603632535E+03  0.00000000000E+00 0.  1.
         21   -1    0    0  503  502 -0.00000000000E+00 -0.00000000000E+00 -0.68781172610E+03  0.68781172610E+03  0.00000000000E+00 0.  1.
         21    1    1    2  503  501  0.23850070122E+02  0.13247353852E+03  0.74925361836E+02  0.15405153066E+03  0.00000000000E+00 0.  1.
         21    1    1    2  504  502 -0.74364615480E+02 -0.27510050330E+02 -0.62996347141E+03  0.63493375577E+03  0.00000000000E+00 0.  1.
         21    1    1    2  505  506  0.31407084360E+02 -0.72276499422E+02  0.21059110073E+03  0.22485308319E+03  0.00000000000E+00 0.  1.
         21    1    1    2  506  504  0.19107460999E+02 -0.32686988763E+02  0.32671608104E+02  0.50009681826E+02  0.00000000000E+00 0.  1.
<scales pt_clust_3="116.55526" pt_clust_4="79.28997" pt_clust_5="36.70226" pt_clust_6="36.70226"></scales>
<clustering>
<clus scale="   36.702">  5  6 -1 -1</clus>
<clus scale="   79.290">  2  4  1 -1</clus>
<clus scale="  116.555">  2  3  1 -1</clus>
<clus scale="  128.019">  1  3  2 -1</clus>
</clustering>
</event>
<event>
 6    0  0.1080632E+003  0.6269011E+02  0.7546771E-02  0.1386877E+00
         21   -1    0    0  502  501  0.00000000000E+00  0.00000000000E+00  0.23911632635E+02  0.23911632635E+02  0.00000000000E+00 0.  1.
         21   -1    0    0  505  502 -0.00000000000E+00 -0.00000000000E+00 -0.15905223368E+04  0.15905223368E+04  0.00000000000E+00 0.  1.
         21    1    1    2  503  504 -0.28298857749E+02  0.25386941203E+02 -0.11712728990E+03  0.12314269842E+03  0.00000000000E+00 0.  1.
         21    1    1    2  504  501 -0.77297613595E+01  0.34384889152E+02 -0.82692664989E+01  0.36200146148E+02  0.00000000000E+00 0.  1.
         21    1    1    2  505  506 -0.19194790303E+02  0.50378251547E+02 -0.82026053434E+03  0.82203026246E+03  0.00000000000E+00 0.  1.
         21    1    1    2  506  503  0.55223409412E+02 -0.11015008190E+03 -0.62095361339E+03  0.63306086237E+03  0.00000000000E+00 0.  1.
<scales pt_clust_3="47.10774" pt_clust_4="35.24301" pt_clust_5="62.69011" pt_clust_6="14000.00000"></scales>
<clustering>
<clus scale="   35.243">  1  4  2 -1</clus>
<clus scale="   47.108">  1  3  2 -1</clus>
<clus scale="   62.690">  2  5  1 -1</clus>
<clus scale="   35.243">  1  3  2 -1</clus>
</clustering>
</event>
<event>
 6    0  0.1080632E+003  0.9734718E+02  0.7546771E-02  0.1285975E+00
         21   -1    0    0  503  501  0.00000000000E+00  0.00000000000E+00  0.14041945227E+04  0.14041945227E+04  0.00000000000E+00 0. -1.
         21   -1    0    0  504  502 -0.00000000000E+00 -0.00000000000E+00 -0.16383903270E+03  0.16383903270E+03  0.00000000000E+00 0.  1.
         21    1    1    2  503  506 -0.40733336545E+02  0.21856495081E+01  0.13139560907E+04  0.13145891336E+04  0.00000000000E+00 0. -1.
         21    1    1    2  504  505  0.22470235525E+01  0.31711727581E+02 -0.85965472709E+01  0.32933013922E+02  0.00000000000E+00 0.  1.
         21    1    1    2  505  501 -0.58043234709E+02  0.45100810318E+02  0.11180741576E+02  0.74351255329E+02  0.00000000000E+00 0.  1.
         21    1    1    2  506  502  0.96529547701E+02 -0.78998187407E+02 -0.76184795055E+02  0.14616015254E+03  0.00000000000E+00 0.  1.
<scales pt_clust_3="40.79079" pt_clust_4="31.79124" pt_clust_5="97.34718" pt_clust_6="14000.00000"></scales>
<clustering>
<clus scale="   31.791">  2  4  1 -1</clus>
<clus scale="   40.791">  1  3  2 -1</clus>
<clus scale="   97.347">  1  5  2 -1</clus>
<clus scale="   40.791">  1  3  2 -1</clus>
</clustering>
</event>
<event>
 6    0  0.1080632E+003  0.1296781E+03  0.7546771E-02  0.1227934E+00
         21   -1    0    0  505  501  0.00000000000E+00  0.00000000000E+00  0.24839746855E+03  0.24839746855E+03  0.00000000000E+00 0.  1.
         21   -1    0    0  503  502 -0.00000000000E+00 -0.00000000000E+00 -0.41820522003E+03  0.41820522003E+03  0.00000000000E+00 0. -1.
         21    1    1    2  503  501 -0.14737327755E+02  0.42466228141E+02 -0.23035203950E+03  0.23469689274E+03  0.00000000000E+00 0. -1.
         21    1    1    2  504  506  0.30120024427E+02 -0.54610960481E+02  0.95338547077E+02  0.11392546438E+03  0.00000000000E+00 0.  1.
         21    1    1    2  505  504  0.67682349318E+02 -0.20394015497E+02  0.12002699501E+03  0.13929571353E+03  0.00000000000E+00 0.  1.
         21    1    1    2  506  502 -0.83065045990E+02  0.32538747837E+02 -0.15482125406E+03  0.17868461793E+03  0.00000000000E+00 0.  1.
<scales pt_clust_3="44.95074" pt_clust_4="47.00817" pt_clust_5="47.00817" pt_clust_6="119.45215"></scales>
<clustering>
<clus scale="   44.951">  2  3  1 -1</clus>
<clus scale="   47.008">  4  5 -1 -1</clus>
<clus scale="  119.452">  2  6  1 -1</clus>
<clus scale="  129.678">  1  3  2 -1</clus>
</clustering>
</event>
<event>
 6    0  0.1080632E+003  0.1936297E+03  0.7546771E-02  0.1155228E+00
         21   -1    0    0  504  501  0.00000000000E+00  0.00000000000E+00  0.32399668171E+03  0.32399668171E+03  0.00000000000E+00 0. -1.
         21   -1    0    0  506  502 -0.00000000000E+00 -0.00000000000E+00 -0.31809489796E+03  0.31809489796E+03  0.00000000000E+00 0. -1.
         21    1    1    2  503  501  0.24061487619E+02  0.14344895237E+03  0.89804736092E+02  0.17094282011E+03  0.00000000000E+00 0. -1.
         21    1    1    2  504  505 -0.57036362652E+02 -0.94330511774E+02  0.42896485005E+02  0.11828567344E+03  0.00000000000E+00 0. -1.
         21    1    1    2  505  502  0.21319945501E+02 -0.17064056032E+03 -0.15047704331E+03  0.22850838380E+03  0.00000000000E+00 0. -1.
         21    1    1    2  506  503  0.11654929532E+02  0.12152211973E+03  0.23677605960E+02  0.12435470232E+03  0.00000000000E+00 0. -1.
<scales pt_clust_3="48.79713" pt_clust_4="110.23335" pt_clust_5="186.15959" pt_clust_6="48.79713"></scales>
<clustering>
<clus scale="   48.797">  3  6 -1 -1</clus>
<clus scale="  110.233">  1  4  2 -1</clus>
<clus scale="  186.160">  2  5  1 -1</clus>
<clus scale="  110.233">  1  3  2 -1</clus>
</clustering>
</event>
<event>
 6    0  0.1080632E+003  0.1327531E+03  0.7546771E-02  0.1223427E+00
         21   -1    0    0  505  501  0.00000000000E+00  0.00000000000E+00  0.20343474979E+04  0.20343474979E+04  0.00000000000E+00 0.  1.
         21   -1    0    0  504  502 -0.00000000000E+00 -0.00000000000E+00 -0.24345845790E+02  0.24345845790E+02  0.00000000000E+00 0.  1.
         21    1    1    2  503  501  0.12537772833E+02 -0.62139408350E+02  0.91790730051E+03  0.92009364423E+03  0.00000000000E+00 0.  1.
         21    1    1    2  504  506  0.36534796293E+02  0.12814122429E+02  0.68082615261E+02  0.78321360908E+02  0.00000000000E+00 0.  1.
         21    1    1    2  505  502 -0.12526764241E+02  0.15663016231E+03  0.49843258045E+03  0.52261359035E+03  0.00000000000E+00 0.  1.
         21    1    1    2  506  503 -0.36545804885E+02 -0.10730487639E+03  0.52557915592E+03  0.53766474823E+03  0.00000000000E+00 0.  1.
<scales pt_clust_3="63.12598" pt_clust_4="38.71683" pt_clust_5="132.75310" pt_clust_6="14000.00000"></scales>
<clustering>
<clus scale="   38.717">  2  4  1 -1</clus>
<clus scale="   63.126">  1  3  2 -1</clus>
<clus scale="  132.753">  1  5  2 -1</clus>
<clus scale="   63.126">  1  3  2 -1</clus>
</clustering>
</event>
<event>
 6    0  0.1080632E+003  0.1502129E+03  0.7546771E-02  0.1200212E+00
         21   -1    0    0  505  501  0.00000000000E+00  0.00000000000E+00  0.15285946663E+03  0.15285946663E+03  0.00000000000E+00 0.  1.
         21   -1    0    0  506  502 -0.00000000000E+00 -0.00000000000E+00 -0.68224457472E+03  0.68224457472E+03  0.00000000000E+00 0.  1.
         21    1    1    2  503  502  0.14097674788E+03  0.27951697534E+02 -0.18980385308E+03  0.23807822975E+03  0.00000000000E+00 0.  1.
         21    1    1    2  504  501 -0.38298480383E+02  0.13254962776E+02 -0.75610201158E+02  0.85786771457E+02  0.00000000000E+00 0.  1.
         21    1    1    2  505  503  0.14198021455E+01 -0.32576021362E+02  0.11427446618E+03  0.11883546031E+03  0.00000000000E+00 0.  1.
         21    1    1    2  506  504 -0.10409806964E+03 -0.86306389479E+01 -0.37824552004E+03  0.39240357983E+03  0.00000000000E+00 0.  1.
<scales pt_clust_3="142.06018" pt_clust_4="30.40577" pt_clust_5="32.60695" pt_clust_6="30.40577"></scales>
<clustering>
<clus scale="   30.406">  4  6 -1 -1</clus>
<clus scale="   32.607">  1  5  2 -1</clus>
<clus scale="  142.060">  1  3  2 -1</clus>
<clus scale="   32.607">  1  3  2 -1</clus>
</clustering>
</event>
<event>
 6    0  0.1080632E+003  0.1368664E+03  0.7546771E-02  0.1217609E+00
         21   -1    0    0  506  501  0.00000000000E+00  0.00000000000E+00  0.16815005876E+04  0.16815005876E+04  0.00000000000E+00 0. -1.
         21   -1    0    0  504  502 -0.00000000000E+00 -0.00000000000E+00 -0.51877272113E+02  0.51877272113E+02  0.00000000000E+00 0.  1.
         21    1    1    2  503  502  0.34709452617E+02 -0.33188499562E+02 -0.12570976282E+02  0.49641233353E+02  0.00000000000E+00 0.  1.
         21    1    1    2  504  501  0.11601325078E+03 -0.83165212076E+02  0.44332548970E+03  0.46573921531E+03  0.00000000000E+00 0.  1.
         21    1    1    2  505  503 -0.62425230253E+02  0.13393114214E+02  0.19952929306E+03  0.20949516384E+03  0.00000000000E+00 0. -1.
         21    1    1    2  506  505 -0.88297473142E+02  0.10296059742E+03  0.99933950899E+03  0.10085022472E+04  0.00000000000E+00 0. -1.
<scales pt_clust_3="48.02315" pt_clust_4="14000.00000" pt_clust_5="54.37050" pt_clust_6="136.86643"></scales>
<clustering>
<clus scale="   48.023">  2  3  1 -1</clus>
<clus scale="   54.371">  2  5  1 -1</clus>
<clus scale="  136.866">  1  6  2 -1</clus>
<clus scale="  136.866">  1  3  2 -1</clus>
</clustering>
</event>
<event>
 6    0  0.1080632E+003  0.8743130E+02  0.7546771E-02  0.1309194E+00
         21   -1    0    0  504  501  0.00000000000E+00  0.00000000000E+00  0.43327500764E+03  0.43327500764E+03  0.00000000000E+00 0. -1.
         21   -1    0    0  503  502 -0.00000000000E+00 -0.00000000000E+00 -0.26171553129E+03  0.26171553129E+03  0.00000000000E+00 0. -1.
         21    1    1    2  503  505 -0.22880437893E+02 -0.94794242876E+02  0.25062104659E+03  0.26892447251E+03  0.00000000000E+00 0. -1.
         21    1    1    2  504  502 -0.32717980027E+01  0.87171966643E+02 -0.23466091614E+03  0.25035055821E+03  0.00000000000E+00 0. -1.
         21    1    1    2  505  506  0.49324896408E+02 -0.12519832549E+02  0.99885253347E+02  0.11210154080E+03  0.00000000000E+00 0.  1.
         21    1    1    2  506  501 -0.23172660512E+02  0.20142108782E+02  0.55714092558E+02  0.63613967421E+02  0.00000000000E+00 0.  1.
<scales pt_clust_3="14000.00000" pt_clust_4="87.43130" pt_clust_5="43.28911" pt_clust_6="30.70304"></scales>
<clustering>
<clus scale="   30.703">  1  6  2 -1</clus>
<clus scale="   43.289">  1  5  2 -1</clus>
<clus scale="   87.431">  2  4  1 -1</clus>
<clus scale="   30.703">  1  3  2 -1</clus>
</clustering>
</event>
<event>
 6    0  0.1080632E+003  0.6675310E+02  0.7546771E-02  0.1371496E+00
         21   -1    0    0  506  501  0.00000000000E+00  0.00000000000E+00  0.36663705711E+03  0.36663705711E+03  0.00000000000E+00 0. -1.
         21   -1    0    0  503  502 -0.00000000000E+00 -0.00000000000E+00 -0.13723342392E+03  0.13723342392E+03  0.00000000000E+00 0. -1.
         21    1    1    2  503  504  0.19806430370E+02 -0.57417092577E+02 -0.65811369959E+02  0.89555310395E+02  0.00000000000E+00 0. -1.
         21    1    1    2  504  505 -0.37116700078E+02  0.97389636888E+02  0.37097175681E+02  0.11062816658E+03  0.00000000000E+00 0. -1.
         21    1    1    2  505  501  0.53765349116E+02 -0.32760758386E+02  0.25188306156E+02  0.67811730715E+02  0.00000000000E+00 0. -1.
         21    1    1    2  506  502 -0.36455079408E+02 -0.72117859244E+01  0.23292952132E+03  0.23587527334E+03  0.00000000000E+00 0. -1.
<scales pt_clust_3="14000.00000" pt_clust_4="66.75310" pt_clust_5="54.05957" pt_clust_6="37.16158"></scales>
<clustering>
<clus scale="   37.162">  1  6  2 -1</clus>
<clus scale="   54.060">  1  5  2 -1</clus>
<clus scale="   66.753">  1  4  2 -1</clus>
<clus scale="   37.162">  1  3  2 -1</clus>
</clustering>
</event>
<event>
 6    0  0.1080632E+003  0.1175999E+03  0.7546771E-02  0.1247110E+00
         21   -1    0    0  506  501  0.00000000000E+00  0.00000000000E+00  0.30723214425E+03  0.30723214425E+03  0.00000000000E+00 0.  1.
         21   -1    0    0  501  502 -0.00000000000E+00 -0.00000000000E+00 -0.79736464633E+03  0.79736464633E+03  0.00000000000E+00 0.  1.
         21    1    1    2  503  502 -0.81172163988E+02  0.58113059565E+02 -0.29342509355E+03  0.30994246793E+03  0.00000000000E+00 0.  1.
         21    1    1    2  504  505  0.50268133218E+02  0.96690043097E+01 -0.24209016176E+03  0.24744296571E+03  0.00000000000E+00 0.  1.
         21    1    1    2  505  503  0.85285971984E+02 -0.10874115845E+02 -0.23802437438E+03  0.25307616682E+03  0.00000000000E+00 0.  1.
         21    1    1    2  506  504 -0.54381941214E+02 -0.56907948029E+02  0.28340712762E+03  0.29413519012E+03  0.00000000000E+00 0.  1.
<scales pt_clust_3="110.43854" pt_clust_4="31.18194" pt_clust_5="31.18194" pt_clust_6="78.71410"></scales>
<clustering>
<clus scale="   31.182">  4  5 -1 -1</clus>
<clus scale="   78.714">  1  6  2 -1</clus>
<clus scale="  110.439">  2  3  1 -1</clus>
<clus scale="   78.714">  1  3  2 -1</clus>
</clustering>
</event>
<event>
 6    0  0.1080632E+003  0.1372539E+03  0.7546771E-02  0.1217073E+00
         21   -1    0    0  505  501  0.00000000000E+00  0.00000000000E+00  0.34717347391E+03  0.34717347391E+03  0.00000000000E+00 0.  1.
         21   -1    0    0  503  502 -0.00000000000E+00 -0.00000000000E+00 -0.22821275977E+03  0.22821275977E+03  0.00000000000E+00 0. -1.
         21    1    1    2  503  501 -0.26662591092E+02  0.33358219802E+02 -0.10001660272E+03  0.10875194440E+03  0.00000000000E+00 0. -1.
         21    1    1    2  504  506  0.50890688619E+02  0.50024892133E+02 -0.13338054972E+02  0.72596526993E+02  0.00000000000E+00 0. -1.
         21    1    1    2  505  504 -0.68149240445E+02 -0.10983861734E+03  0.28961162871E+03  0.31714939117E+03  0.00000000000E+00 0.  1.
         21    1    1    2  506  502  0.43921142918E+02  0.26455505404E+02 -0.57296256876E+02  0.76888371119E+02  0.00000000000E+00 0. -1.
<scales pt_clust_3="42.70439" pt_clust_4="42.53474" pt_clust_5="127.75228" pt_clust_6="42.53474"></scales>
<clustering>
<clus scale="   42.535">  4  6 -1 -1</clus>
<clus scale="   42.704">  2  3  1 -1</clus>
<clus scale="  127.752">  1  5  2 -1</clus>
<clus scale="  127.752">  1  3  2 -1</clus>
</clustering>
</event>
<event>
 6    0  0.1080632E+003  0.1225906E+03  0.7546771E-02  0.1238884E+00
         21   -1    0    0  506  501  0.00000000000E+00  0.00000000000E+00  0.26169473913E+04  0.26169473913E+04  0.00000000000E+00 0.  1.
         21   -1    0    0  503  502 -0.00000000000E+00 -0.00000000000E+00 -0.10255501849E+03  0.10255501849E+03  0.00000000000E+00 0.  1.
         21    1    1    2  503  505 -0.52520988182E+02 -0.69028103542E+02 -0.24561721083E+02  0.90147719997E+02  0.00000000000E+00 0.  1.
         21    1    1    2  504  502  0.84780211208E+02  0.13083938572E+03  0.24876219289E+03  0.29358007030E+03  0.00000000000E+00 0.  1.
         21    1    1    2  505  501 -0.76336813047E+02 -0.57955275948E+02  0.79181346712E+02  0.12432139278E+03  0.00000000000E+00 0.  1.
         21    1    1    2  506  504  0.44077590021E+02 -0.38560062340E+01  0.22110105543E+04  0.22114532267E+04  0.00000000000E+00 0.  1.
<scales pt_clust_3="84.88180" pt_clust_4="14000.00000" pt_clust_5="122.59058" pt_clust_6="44.24593"></scales>
<clustering>
<clus scale="   44.246">  1  6  2 -1</clus>
<clus scale="   84.882">  2  3  1 -1</clus>
<clus scale="  122.591">  1  5  2 -1</clus>
<clus scale="   44.246">  1  3  2 -1</clus>
</clustering>
</event>
<event>
 6    0  0.1080632E+003  0.1017516E+03  0.7546771E-02  0.1276655E+00
         21   -1    0    0  503  501  0.00000000000E+00  0.00000000000E+00  0.11125670621E+04  0.11125670621E+04  0.00000000000E+00 0. -1.
         21   -1    0    0  504  502 -0.00000000000E+00 -0.00000000000E+00 -0.37354755701E+03  0.37354755701E+03  0.00000000000E+00 0. -1.
         21    1    1    2  503  502 -0.32298875467E+02 -0.32980821237E+02 -0.20365761117E+03  0.20882378819E+03  0.00000000000E+00 0. -1.
         21    1    1    2  504  506 -0.37517816708E+02  0.10288486244E+02 -0.49594300904E+02  0.63032009343E+02  0.00000000000E+00 0. -1.
         21    1    1    2  505  501  0.81675902723E+02 -0.62188317383E+02  0.10839258273E+04  0.10887761657E+04  0.00000000000E+00 0. -1.
         21    1    1    2  506  505 -0.11859210548E+02  0.84880652377E+02 -0.91654410144E+02  0.12548265586E+03  0.00000000000E+00 0. -1.
<scales pt_clust_3="62.49022" pt_clust_4="38.90295" pt_clust_5="101.75162" pt_clust_6="14000.00000"></scales>
<clustering>
<clus scale="   38.903">  2  4  1 -1</clus>
<clus scale="   62.490">  2  3  1 -1</clus>
<clus scale="  101.752">  1  5  2 -1</clus>
<clus scale="  101.752">  1  3  2 -1</clus>
</clustering>
</event>
<event>
 6    0  0.1080632E+003  0.1321654E+03  0.7546771E-02  0.1224278E+00
         21   -1    0    0  503  501  0.00000000000E+00  0.00000000000E+00  0.45868710698E+03  0.45868710698E+03  0.00000000000E+00 0. -1.
         21   -1    0    0  506  502 -0.00000000000E+00 -0.00000000000E+00 -0.36095140018E+03  0.36095140018E+03  0.00000000000E+00 0.  1.
         21    1    1    2  503  502  0.42894827934E+02  0.79476803864E+02  0.10952335335E+03  0.14195736524E+03  0.00000000000E+00 0. -1.
         21    1    1    2  504  501  0.92780885288E+01  0.35247106525E+02  0.31857947138E+03  0.32065763835E+03  0.00000000000E+00 0. -1.
         21    1    1    2  505  504 -0.33853522294E+02 -0.51692046293E+02 -0.22094957879E+03  0.22942721065E+03  0.00000000000E+00 0.  1.
         21    1    1    2  506  505 -0.18319394169E+02 -0.63031864096E+02 -0.10941753915E+03  0.12759629292E+03  0.00000000000E+00 0.  1.
<scales pt_clust_3="122.58842" pt_clust_4="36.44779" pt_clust_5="48.39997" pt_clust_6="48.39997"></scales>
<clustering>
<clus scale="   36.448">  1  4  2 -1</clus>
<clus scale="   48.400">  5  6 -1 -1</clus>
<clus scale="  122.588">  1  3  2 -1</clus>
<clus scale="   36.448">  1  3  2 -1</clus>
</clustering>
</event>
<event>
 6    0  0.1080632E+003  0.1385063E+03  0.7546771E-02  0.1215353E+00
         21   -1    0    0  505  501  0.00000000000E+00  0.00000000000E+00  0.92457341742E+03  0.92457341742E+03  0.00000000000E+00 0. -1.
         21   -1    0    0  506  502 -0.00000000000E+00 -0.00000000000E+00 -0.83513715880E+02  0.83513715880E+02  0.00000000000E+00 0.  1.
         21    1    1    2  503  502 -0.39640516352E+02  0.10579036380E+02  0.46257517362E+02  0.61830772758E+02  0.00000000000E+00 0.  1.
         21    1    1    2  504  501  0.50752766688E+02  0.17413573596E+02  0.47041127949E+03  0.47346155888E+03  0.00000000000E+00 0. -1.
         21    1    1    2  505  503 -0.13005496058E+03 -0.13724547772E+02  0.32782785031E+03  0.35295007497E+03  0.00000000000E+00 0. -1.
         21    1    1    2  506  504  0.11894271024E+03 -0.14268062204E+02 -0.34369456233E+01  0.11984472668E+03  0.00000000000E+00 0.  1.
<scales pt_clust_3="32.16048" pt_clust_4="53.65702" pt_clust_5="32.16048" pt_clust_6="126.04422"></scales>
<clustering>
<clus scale="   32.160">  3  5 -1 -1</clus>
<clus scale="   53.657">  1  4  2 -1</clus>
<clus scale="  126.044">  2  6  1 -1</clus>
<clus scale="   53.657">  1  3  2 -1</clus>
</clustering>
</event>
<event>
 6    0  0.1080632E+003  0.8838298E+02  0.7546771E-02  0.1306815E+00
         21   -1    0    0  506  501  0.00000000000E+00  0.00000000000E+00  0.26425512426E+03  0.26425512426E+03  0.00000000000E+00 0.  1.
         21   -1    0    0  503  502 -0.00000000000E+00 -0.00000000000E+00 -0.22119169026E+03  0.22119169026E+03  0.00000000000E+00 0. -1.
         21    1    1    2  503  505 -0.61879406969E+02 -0.15440223374E+02 -0.12569750721E+03  0.14095149813E+03  0.00000000000E+00 0. -1.
         21    1    1    2  504  501  0.39980645773E+02 -0.20620849981E+02  0.14603097246E+03  0.15280286780E+03  0.00000000000E+00 0.  1.
         21    1    1    2  505  504 -0.67277524525E+02 -0.35142812433E+02  0.36345725692E+01  0.75990082838E+02  0.00000000000E+00 0.  1.
         21    1    1    2  506  502  0.89176285721E+02  0.71203885788E+02  0.19095396189E+02  0.11570236576E+03  0.00000000000E+00 0.  1.
<scales pt_clust_3="61.56347" pt_clust_4="44.98524" pt_clust_5="88.38298" pt_clust_6="14000.00000"></scales>
<clustering>
<clus scale="   44.985">  1  4  2 -1</clus>
<clus scale="   61.563">  2  3  1 -1</clus>
<clus scale="   88.383">  1  5  2 -1</clus>
<clus scale="   44.985">  1  3  2 -1</clus>
</clustering>
</event>
<event>
 6    0  0.1080632E+003  0.1321454E+03  0.7546771E-02  0.1224307E+00
         21   -1    0    0  503  501  0.00000000000E+00  0.00000000000E+00  0.13924002742E+03  0.13924002742E+03  0.00000000000E+00 0. -1.
         21   -1    0    0  504  502 -0.00000000000E+00 -0.00000000000E+00 -0.30371686258E+03  0.30371686258E+03  0.00000000000E+00 0. -1.
         21    1    1    2  503  506  0.22704771232E+02  0.30748216150E+02  0.41953871620E+02  0.56754618993E+02  0.00000000000E+00 0. -1.
         21    1    1    2  504  505 -0.15012039396E+02  0.32949271793E+02 -0.77299354444E+01  0.37023880678E+02  0.00000000000E+00 0. -1.
         21    1    1    2  505  501 -0.86423253978E+02  0.30039624586E+02  0.24406655953E+02  0.94694470421E+02  0.00000000000E+00 0. -1.
         21    1    1    2  506  502  0.78730522142E+02 -0.93737112529E+02 -0.22310742728E+03  0.25448391991E+03  0.00000000000E+00 0. -1.
<scales pt_clust_3="38.22250" pt_clust_4="33.37596" pt_clust_5="33.37596" pt_clust_6="121.02695"></scales>
<clustering>
<clus scale="   33.376">  4  5 -1 -1</clus>
<clus scale="   38.222">  1  3  2 -1</clus>
<clus scale="  121.027">  2  6  1 -1</clus>
<clus scale="   38.222">  1  3  2 -1</clus>
</clustering>
</event>
<event>
 6    0  0.1080632E+003  0.1239832E+03  0.7546771E-02  0.1236667E+00
         21   -1    0    0  505  501  0.00000000000E+00  0.00000000000E+00  0.36594755632E+03  0.36594755632E+03  0.00000000000E+00 0. -1.
         21   -1    0    0  506  502 -0.00000000000E+00 -0.00000000000E+00 -0.63838463349E+03  0.63838463349E+03  0.00000000000E+00 0. -1.
         21    1    1    2  503  502  0.12828131364E+03 -0.13094030590E+02 -0.56187047450E+03  0.57647721480E+03  0.00000000000E+00 0. -1.
         21    1    1    2  504  503 -0.44219800239E+02  0.27545947193E+02 -0.30574198931E+02  0.60406552461E+02  0.00000000000E+00 0. -1.
         21    1    1    2  505  504 -0.81184783947E+01 -0.34330247818E+02  0.27440330909E+03  0.27666161940E+03  0.00000000000E+00 0. -1.
         21    1    1    2  506  501 -0.75943035006E+02  0.19878331215E+02  0.45604287170E+02  0.90786803149E+02  0.00000000000E+00 0. -1.
<scales pt_clust_3="123.98323" pt_clust_4="50.54178" pt_clust_5="35.27713" pt_clust_6="14000.00000"></scales>
<clustering>
<clus scale="   35.277">  1  5  2 -1</clus>
<clus scale="   50.542">  1  4  2 -1</clus>
<clus scale="  123.983">  2  3  1 -1</clus>
<clus scale="   35.277">  1  3  2 -1</clus>
</clustering>
</event>
<event>
 6    0  0.1080632E+003  0.1243520E+03  0.7546771E-02  0.1236085E+00
         21   -1    0    0  505  501  0.00000000000E+00  0.00000000000E+00  0.41660220394E+03  0.41660220394E+03  0.00000000000E+00 0.  1.
         21   -1    0    0  503  502 -0.00000000000E+00 -0.00000000000E+00 -0.60894571732E+03  0.60894571732E+03  0.00000000000E+00 0.  1.
         21    1    1    2  503  504  0.54035398435E+02  0.19049950863E+02  0.35365649667E+02  0.67330929655E+02  0.00000000000E+00 0.  1.
         21    1    1    2  504  501  0.59268151075E+02 -0.20873363828E+02  0.77471638666E+02  0.99751019278E+02  0.00000000000E+00 0.  1.
         21    1    1    2  505  506 -0.72298367480E+01  0.46156984826E+02  0.26892967295E+03  0.27295770145E+03  0.00000000000E+00 0.  1.
         21    1    1    2  506  502 -0.10607371276E+03 -0.44333571862E+02 -0.57411047467E+03  0.58550827087E+03  0.00000000000E+00 0.  1.
<scales pt_clust_3="46.22202" pt_clust_4="46.22202" pt_clust_5="46.71978" pt_clust_6="114.54399"></scales>
<clustering>
<clus scale="   46.222">  3  4 -1 -1</clus>
<clus scale="   46.720">  1  5  2 -1</clus>
<clus scale="  114.544">  2  6  1 -1</clus>
<clus scale="   46.720">  1  3  2 -1</clus>
</clustering>
</event>
<event>
 6    0  0.1080632E+003  0.8423039E+02  0.7546771E-02  0.1317458E+00
         21   -1    0    0  505  501  0.00000000000E+00  0.00000000000E+00  0.13238580337E+03  0.13238580337E+03  0.00000000000E+00 0. -1.
         21   -1    0    0  503  502 -0.00000000000E+00 -0.00000000000E+00 -0.47273591256E+03  0.47273591256E+03  0.00000000000E+00 0.  1.
         21    1    1    2  503  504  0.20973460457E+02 -0.25545399071E+02 -0.29617338791E+03  0.29801196144E+03  0.00000000000E+00 0.  1.
         21    1    1    2  504  506  0.17990027885E+02 -0.53718267240E+02 -0.79773174791E+02  0.97841978489E+02  0.00000000000E+00 0. -1.
         21    1    1    2  505  502 -0.64371979356E+02  0.11084788655E+03 -0.30471621505E+02  0.13175555167E+03  0.00000000000E+00 0. -1.
         21    1    1    2  506  501  0.25408491014E+02 -0.31584220235E+02  0.66068075014E+02  0.77512224323E+02  0.00000000000E+00 0.  1.
<scales pt_clust_3="33.05228" pt_clust_4="14000.00000" pt_clust_5="84.23039" pt_clust_6="41.61256"></scales>
<clustering>
<clus scale="   33.052">  2  3  1 -1</clus>
<clus scale="   41.613">  1  6  2 -1</clus>
<clus scale="   84.230">  1  5  2 -1</clus>
<clus scale="   41.613">  1  3  2 -1</clus>
</clustering>
</event>
<event>
 6    0  0.1080632E+003  0.1741767E+03  0.7546771E-02  0.1173561E+00
         21   -1    0    0  505  501  0.00000000000E+00  0.00000000000E+00  0.57375552844E+03  0.57375552844E+03  0.00000000000E+00 0. -1.
         21   -1    0    0  506  502 -0.00000000000E+00 -0.00000000000E+00 -0.38282051682E+03  0.38282051682E+03  0.00000000000E+00 0. -1.
         21    1    1    2  503  504 -0.70350126232E+02 -0.14356294761E+03  0.20257166256E+03  0.25805956417E+03  0.00000000000E+00 0. -1.
         21    1    1    2  504  502 -0.87651210277E+01  0.96143303583E+02 -0.20521371758E+03  0.22678851835E+03  0.00000000000E+00 0. -1.
         21    1    1    2  505  503 -0.96312125081E+01 -0.39945051343E+02  0.30310774492E+03  0.30588016021E+03  0.00000000000E+00 0. -1.
         21    1    1    2  506  501  0.88746459768E+02  0.87364695367E+02 -0.10953067829E+03  0.16584780253E+03  0.00000000000E+00 0.  1.
<scales pt_clust_3="174.17666" pt_clust_4="94.98483" pt_clust_5="41.08975" pt_clust_6="14000.00000"></scales>
<clustering>
<clus scale="   41.090">  1  5  2 -1</clus>
<clus scale="   94.985">  2  4  1 -1</clus>
<clus scale="  174.177">  1  3  2 -1</clus>
<clus scale="   41.090">  1  3  2 -1</clus>
</clustering>
</event>
<event>
 6    0  0.1080632E+003  0.2802375E+03  0.7546771E-02  0.1095559E+00
         21   -1    0    0  505  501  0.00000000000E+00  0.00000000000E+00  0.50656246125E+03  0.50656246125E+03  0.00000000000E+00 0. -1.
         21   -1    0    0  503  502 -0.00000000000E+00 -0.00000000000E+00 -0.95629487168E+03  0.95629487168E+03  0.00000000000E+00 0. -1.
         21    1    1    2  503  504  0.57035131928E+01 -0.74816116997E+02 -0.75264754560E+03  0.75637841675E+03  0.00000000000E+00 0. -1.
         21    1    1    2  504  506  0.81228232306E+02  0.96264935703E+02  0.22875102610E+03  0.26113597131E+03  0.00000000000E+00 0. -1.
         21    1    1    2  505  502 -0.12435940704E+03 -0.17659011824E+03 -0.73268281540E+02  0.22807361324E+03  0.00000000000E+00 0. -1.
         21    1    1    2  506  501  0.37427661544E+02  0.15514129953E+03  0.14743239060E+03  0.21726933163E+03  0.00000000000E+00 0. -1.
<scales pt_clust_3="75.03320" pt_clust_4="91.24460" pt_clust_5="261.64803" pt_clust_6="91.24460"></scales>
<clustering>
<clus scale="   75.033">  2  3  1 -1</clus>
<clus scale="   91.245">  4  6 -1 -1</clus>
<clus scale="  261.648">  2  5  1 -1</clus>
<clus scale="  280.237">  1  3  2 -1</clus>
</clustering>
</event>
<event>
 6    0  0.1324182E+003  0.9899843E+02  0.7546771E-02  0.1282416E+00
         21   -1    0    0  504  501  0.00000000000E+00  0.00000000000E+00  0.98858344845E+03  0.98858344845E+03  0.00000000000E+00 0. -1.
         21   -1    0    0  503  502 -0.00000000000E+00 -0.00000000000E+00 -0.24916558186E+03  0.24916558186E+03  0.00000000000E+00 0.  1.
         21    1    1    2  503  501 -0.66975424678E+02  0.80771695493E+02  0.83232981969E+03  0.83891757822E+03  0.00000000000E+00 0. -1.
         21    1    1    2  504  506  0.44244199217E+02 -0.59287335594E+02  0.84148058951E+02  0.11204210437E+03  0.00000000000E+00 0. -1.
         21    1    1    2  505  502 -0.33079352250E+02 -0.39137493692E+02 -0.21234519161E+03  0.21844099285E+03  0.00000000000E+00 0.  1.
         21    1    1    2  506  505  0.55810577711E+02  0.17653133793E+02  0.35285179568E+02  0.68348354876E+02  0.00000000000E+00 0.  1.
<scales pt_clust_3="14000.00000" pt_clust_4="98.99843" pt_clust_5="51.24438" pt_clust_6="39.64684"></scales>
<clustering>
<clus scale="   51.244">  2  5  1 -1</clus>
<clus scale="   39.647">  2  6  1 -1</clus>
<clus scale="   98.998">  2  4  1 -1</clus>
<clus scale="   98.998">  1  3  2 -1</clus>
</clustering>
</event>
<event>
 6    0  0.1080632E+003  0.1053594E+03  0.7546771E-02  0.1269413E+00
         21   -1    0    0  503  501  0.00000000000E+00  0.00000000000E+00  0.55668779625E+03  0.55668779625E+03  0.00000000000E+00 0. -1.
         21   -1    0    0  505  502 -0.00000000000E+00 -0.00000000000E+00 -0.45314503351E+03  0.45314503351E+03  0.00000000000E+00 0. -1.
         21    1    1    2  503  504 -0.50445166147E+02 -0.59725858476E+00  0.48390710910E+03  0.48652971312E+03  0.00000000000E+00 0. -1.
         21    1    1    2  504  502 -0.29643412823E+02  0.72232686133E+02 -0.28533296904E+01  0.78130879684E+02  0.00000000000E+00 0. -1.
         21    1    1    2  505  506 -0.23616599171E+02  0.48134263356E+02 -0.20082612050E+03  0.20786000515E+03  0.00000000000E+00 0.  1.
         21    1    1    2  506  501  0.10370517814E+03 -0.11976969090E+03 -0.17668489616E+03  0.23731223181E+03  0.00000000000E+00 0. -1.
<scales pt_clust_3="50.44870" pt_clust_4="105.35940" pt_clust_5="54.72874" pt_clust_6="14000.00000"></scales>
<clustering>
<clus scale="   50.449">  1  3  2 -1</clus>
<clus scale="   54.729">  2  5  1 -1</clus>
<clus scale="  105.359">  1  4  2 -1</clus>
<clus scale="   50.449">  1  3  2 -1</clus>
</clustering>
</event>
<event>
 6    0  0.1080632E+003  0.9507374E+02  0.7546771E-02  0.1291010E+00
         21   -1    0    0  503  501  0.00000000000E+00  0.00000000000E+00  0.80647972479E+02  0.80647972479E+02  0.00000000000E+00 0.  1.
         21   -1    0    0  504  502 -0.00000000000E+00 -0.00000000000E+00 -0.65657105349E+03  0.65657105349E+03  0.00000000000E+00 0.  1.
         21    1    1    2  503  505  0.28626978816E+02  0.93467809673E+02  0.35048334415E+02  0.10384662299E+03  0.00000000000E+00 0.  1.
         21    1    1    2  504  506 -0.31822205135E+02  0.11784754874E+02 -0.18177829478E+03  0.18491858111E+03  0.00000000000E+00 0. -1.
         21    1    1    2  505  502 -0.24821988584E+02 -0.64267563761E+02 -0.33465295967E+03  0.34167097373E+03  0.00000000000E+00 0.  1.
         21    1    1    2  506  501  0.28017214903E+02 -0.40985000786E+02 -0.94540160967E+02  0.10678284814E+03  0.00000000000E+00 0.  1.
<scales pt_clust_3="95.07374" pt_clust_4="33.93425" pt_clust_5="14000.00000" pt_clust_6="43.95517"></scales>
<clustering>
<clus scale="   33.934">  2  4  1 -1</clus>
<clus scale="   43.955">  2  6  1 -1</clus>
<clus scale="   95.074">  1  3  2 -1</clus>
<clus scale="   95.074">  1  3  2 -1</clus>
</clustering>
</event>
<event>
 6    0  0.1080632E+003  0.1290118E+03  0.7546771E-02  0.1228930E+00
         21   -1    0    0  504  501  0.00000000000E+00  0.00000000000E+00  0.37200701231E+02  0.37200701231E+02  0.00000000000E+00 0. -1.
         21   -1    0    0  503  502 -0.00000000000E+00 -0.00000000000E+00 -0.10429955374E+04  0.10429955374E+04  0.00000000000E+00 0. -1.
         21    1    1    2  503  505 -0.93598543712E+02  0.92959120858E+02 -0.43575699230E+03  0.45528698847E+03  0.00000000000E+00 0. -1.
         21    1    1    2  504  506  0.25049961963E+02 -0.43660461337E+02 -0.74138262733E+02  0.89611486315E+02  0.00000000000E+00 0. -1.
         21    1    1    2  505  501 -0.24709994116E+02  0.36230740207E+02 -0.31574766448E+02  0.54039024985E+02  0.00000000000E+00 0.  1.
         21    1    1    2  506  502  0.93258575866E+02 -0.85529399727E+02 -0.46432481470E+03  0.48125873887E+03  0.00000000000E+00 0. -1.
<scales pt_clust_3="129.01177" pt_clust_4="37.32405" pt_clust_5="43.85488" pt_clust_6="14000.00000"></scales>
<clustering>
<clus scale="   43.855">  1  5  2 -1</clus>
<clus scale="   37.324">  1  4  2 -1</clus>
<clus scale="  129.012">  1  3  2 -1</clus>
<clus scale="   43.855">  1  3  2 -1</clus>
</clustering>
</event>
<event>
 6    0  0.1080632E+003  0.9422292E+02  0.7546771E-02  0.1292936E+00
         21   -1    0    0  503  501  0.00000000000E+00  0.00000000000E+00  0.52910478659E+03  0.52910478659E+03  0.00000000000E+00 0. -1.
         21   -1    0    0  505  502 -0.00000000000E+00 -0.00000000000E+00 -0.10071097335E+03  0.10071097335E+03  0.00000000000E+00 0. -1.
         21    1    1    2  503  504  0.12835801070E+03  0.11232995621E+02  0.19727714277E+03  0.23562731200E+03  0.00000000000E+00 0. -1.
         21    1    1    2  504  502 -0.46298108920E+02 -0.99965946130E+02  0.72803386026E+02  0.13204937823E+03  0.00000000000E+00 0. -1.
         21    1    1    2  505  506 -0.27723513455E+02  0.91394461409E+02  0.81521720176E+00  0.95510236904E+02  0.00000000000E+00 0. -1.
         21    1    1    2  506  501 -0.54336388325E+02 -0.26615108992E+01  0.15749806724E+03  0.16662883280E+03  0.00000000000E+00 0. -1.
<scales pt_clust_3="96.79823" pt_clust_4="94.22292" pt_clust_5="14000.00000" pt_clust_6="54.40153"></scales>
<clustering>
<clus scale="   54.402">  1  6  2 -1</clus>
<clus scale="   96.798">  1  3  2 -1</clus>
<clus scale="   94.223">  1  4  2 -1</clus>
<clus scale="   54.402">  1  3  2 -1</clus>
</clustering>
</event>
<event>
 6    0  0.1080632E+003  0.8290251E+02  0.7546771E-02  0.1321011E+00
         21   -1    0    0  503  501  0.00000000000E+00  0.00000000000E+00  0.31683644617E+03  0.31683644617E+03  0.00000000000E+00 0.  1.
         21   -1    0    0  504  502 -0.00000000000E+00 -0.00000000000E+00 -0.53801073047E+03  0.53801073047E+03  0.00000000000E+00 0.  1.
         21    1    1    2  503  502  0.39857861855E+02  0.21368135340E+02 -0.95620631410E+02  0.10577594959E+03  0.00000000000E+00 0. -1.
         21    1    1    2  504  506 -0.25459246860E+02 -0.20745426306E+02 -0.16620930896E+03  0.16942278580E+03  0.00000000000E+00 0.  1.
         21    1    1    2  505  501  0.79151026200E+02 -0.23676538174E+02  0.29569349093E+03  0.30701808414E+03  0.00000000000E+00 0.  1.
         21    1    1    2  506  505 -0.93549641194E+02  0.23053829141E+02 -0.25503783487E+03  0.27263035711E+03  0.00000000000E+00 0.  1.
<scales pt_clust_3="36.49429" pt_clust_4="32.84122" pt_clust_5="14000.00000" pt_clust_6="82.90251"></scales>
<clustering>
<clus scale="   32.841">  2  4  1 -1</clus>
<clus scale="   36.494">  2  3  1 -1</clus>
<clus scale="   82.903">  2  6  1 -1</clus>
<clus scale="   82.903">  1  3  2 -1</clus>
</clustering>
</event>
<event>
 6    0  0.1080632E+003  0.1571458E+03  0.7546771E-02  0.1191957E+00
         21   -1    0    0  503  501  0.00000000000E+00  0.00000000000E+00  0.32798358551E+03  0.32798358551E+03  0.00000000000E+00 0. -1.
         21   -1    0    0  505  502 -0.00000000000E+00 -0.00000000000E+00 -0.21401128359E+04  0.21401128359E+04  0.00000000000E+00 0. -1.
         21    1    1    2  503  506 -0.44424970359E+02  0.11525705514E+02  0.10845704983E+03  0.11776821106E+03  0.00000000000E+00 0. -1.
         21    1    1    2  504  502  0.13037572435E+02  0.36140960067E+02 -0.18002722446E+04  0.18006821769E+04  0.00000000000E+00 0. -1.
         21    1    1    2  505  501  0.31535326572E+02 -0.17183421173E+03  0.16386343060E+03  0.23952598404E+03  0.00000000000E+00 0. -1.
         21    1    1    2  506  504 -0.14792864875E+00  0.12416754615E+03 -0.28417748621E+03  0.31012004945E+03  0.00000000000E+00 0. -1.
<scales pt_clust_3="45.85017" pt_clust_4="38.42066" pt_clust_5="157.14582" pt_clust_6="14000.00000"></scales>
<clustering>
<clus scale="   38.421">  2  4  1 -1</clus>
<clus scale="   45.850">  1  3  2 -1</clus>
<clus scale="  157.146">  1  5  2 -1</clus>
<clus scale="   45.850">  1  3  2 -1</clus>
</clustering>
</event>
<event>
 6    0  0.1080632E+003  0.9559292E+02  0.7546771E-02  0.1289846E+00
         21   -1    0    0  505  501  0.00000000000E+00  0.00000000000E+00  0.50348833018E+03  0.50348833018E+03  0.00000000000E+00 0.  1.
         21   -1    0    0  504  502 -0.00000000000E+00 -0.00000000000E+00 -0.82175148894E+03  0.82175148894E+03  0.00000000000E+00 0. -1.
         21    1    1    2  503  502 -0.34382591780E+02 -0.22522584474E+02 -0.15703210714E+03  0.16232224771E+03  0.00000000000E+00 0. -1.
         21    1    1    2  504  506  0.98863190930E+02 -0.44853707746E+02 -0.61020533207E+03  0.61978732877E+03  0.00000000000E+00 0. -1.
         21    1    1    2  505  503 -0.15546993620E+01 -0.31452645186E+02  0.42165037866E+03  0.42282470103E+03  0.00000000000E+00 0.  1.
         21    1    1    2  506  501 -0.62925899788E+02  0.98828937407E+02  0.27323901792E+02  0.12030554161E+03  0.00000000000E+00 0.  1.
<scales pt_clust_3="41.71431" pt_clust_4="14000.00000" pt_clust_5="31.49105" pt_clust_6="95.59292"></scales>
<clustering>
<clus scale="   31.491">  1  5  2 -1</clus>
<clus scale="   41.714">  2  3  1 -1</clus>
<clus scale="   95.593">  1  6  2 -1</clus>
<clus scale="   31.491">  1  3  2 -1</clus>
</clustering>
</event>
<event>
 6    0  0.1080632E+003  0.2054971E+03  0.7546771E-02  0.1145182E+00
         21   -1    0    0  506  501  0.00000000000E+00  0.00000000000E+00  0.33566545058E+03  0.33566545058E+03  0.00000000000E+00 0. -1.
         21   -1    0    0  504  502 -0.00000000000E+00 -0.00000000000E+00 -0.34355560612E+03  0.34355560612E+03  0.00000000000E+00 0.  1.
         21    1    1    2  503  505 -0.32403400005E+01 -0.40691163425E+02 -0.16573947805E+02  0.44056399422E+02  0.00000000000E+00 0.  1.
         21    1    1    2  504  503  0.50904822132E+02 -0.14887669929E+03 -0.24690582175E+03  0.29277646306E+03  0.00000000000E+00 0.  1.
         21    1    1    2  505  501 -0.51826643885E+02  0.14711929589E+03  0.25595058649E+03  0.29973453415E+03  0.00000000000E+00 0. -1.
         21    1    1    2  506  502  0.41621617540E+01  0.42448566827E+02 -0.36097247518E+00  0.42653660069E+02  0.00000000000E+00 0.  1.
<scales pt_clust_3="38.88099" pt_clust_4="38.88099" pt_clust_5="190.79351" pt_clust_6="42.65213"></scales>
<clustering>
<clus scale="   38.881">  3  4 -1 -1</clus>
<clus scale="   42.652">  1  6  2 -1</clus>
<clus scale="  190.794">  1  5  2 -1</clus>
<clus scale="   42.652">  1  3  2 -1</clus>
</clustering>
</event>
<event>
 6    0  0.1080632E+003  0.2864902E+03  0.7546771E-02  0.1092196E+00
         21   -1    0    0  504  501  0.00000000000E+00  0.00000000000E+00  0.98276375914E+03  0.98276375914E+03  0.00000000000E+00 0.  1.
         21   -1    0    0  506  502 -0.00000000000E+00 -0.00000000000E+00 -0.23284975739E+03  0.23284975739E+03  0.00000000000E+00 0.  1.
         21    1    1    2  503  501  0.59245648149E+02 -0.30489987053E+02  0.47432417801E+03  0.47898132738E+03  0.00000000000E+00 0.  1.
         21    1    1    2  504  505 -0.36057898646E+02 -0.19614768626E+03  0.31998708699E+03  0.37704883334E+03  0.00000000000E+00 0.  1.
         21    1    1    2  505  502  0.28777639692E+02 -0.46666192293E+02  0.41123530666E+02  0.68534887640E+02  0.00000000000E+00 0. -1.
         21    1    1    2  506  503 -0.51965389195E+02  0.27330386561E+03 -0.85520793918E+02  0.29104846817E+03  0.00000000000E+00 0.  1.
<scales pt_clust_3="66.63097" pt_clust_4="50.10549" pt_clust_5="50.10549" pt_clust_6="270.08188"></scales>
<clustering>
<clus scale="   50.105">  4  5 -1 -1</clus>
<clus scale="   66.631">  1  3  2 -1</clus>
<clus scale="  270.082">  2  6  1 -1</clus>
<clus scale="   66.631">  1  3  2 -1</clus>
</clustering>
</event>
<event>
 6    0  0.1080632E+003  0.1595335E+03  0.7546771E-02  0.1189224E+00
         21   -1    0    0  505  501  0.00000000000E+00  0.00000000000E+00  0.25282430900E+03  0.25282430900E+03  0.00000000000E+00 0. -1.
         21   -1    0    0  503  502 -0.00000000000E+00 -0.00000000000E+00 -0.93105666091E+03  0.93105666091E+03  0.00000000000E+00 0. -1.
         21    1    1    2  503  501  0.58476359358E+02  0.39752369864E+02 -0.10483629532E+03  0.12645309142E+03  0.00000000000E+00 0. -1.
         21    1    1    2  504  506 -0.79022525695E+02 -0.51326157781E+02  0.91110021722E+02  0.13107238496E+03  0.00000000000E+00 0. -1.
         21    1    1    2  505  504 -0.31476686389E+02 -0.52516792271E+02  0.12148486930E+03  0.13604179037E+03  0.00000000000E+00 0. -1.
         21    1    1    2  506  502  0.52022852726E+02  0.64090580188E+02 -0.78599094762E+03  0.79031370317E+03  0.00000000000E+00 0. -1.
<scales pt_clust_3="70.70881" pt_clust_4="45.31308" pt_clust_5="45.31308" pt_clust_6="149.30168"></scales>
<clustering>
<clus scale="   45.313">  4  5 -1 -1</clus>
<clus scale="   70.709">  2  3  1 -1</clus>
<clus scale="  149.302">  2  6  1 -1</clus>
<clus scale="  159.534">  1  3  2 -1</clus>
</clustering>
</event>
<event>
 6    0  0.1080632E+003  0.2000053E+03  0.7546771E-02  0.1149735E+00
         21   -1    0    0  504  501  0.00000000000E+00  0.00000000000E+00  0.58479701527E+02  0.58479701527E+02  0.00000000000E+00 0. -1.
         21   -1    0    0  505  502 -0.00000000000E+00 -0.00000000000E+00 -0.88150653051E+03  0.88150653051E+03  0.00000000000E+00 0. -1.
         21    1    1    2  503  502 -0.11415605738E+03  0.96587937010E+02 -0.37279279352E+03  0.40166565937E+03  0.00000000000E+00 0. -1.
         21    1    1    2  504  503 -0.40433246952E+02 -0.24142182844E+01 -0.54248566852E+02  0.67702163293E+02  0.00000000000E+00 0. -1.
         21    1    1    2  505  506  0.14094380022E+03 -0.13522720073E+03 -0.37436086067E+03  0.42225301022E+03  0.00000000000E+00 0. -1.
         21    1    1    2  506  501  0.13645504116E+02  0.41053482004E+02 -0.21624607939E+02  0.48365399158E+02  0.00000000000E+00 0.  1.
<scales pt_clust_3="37.44130" pt_clust_4="37.44130" pt_clust_5="186.61947" pt_clust_6="43.26186"></scales>
<clustering>
<clus scale="   37.441">  3  4 -1 -1</clus>
<clus scale="   43.262">  1  6  2 -1</clus>
<clus scale="  186.619">  1  5  2 -1</clus>
<clus scale="   43.262">  1  3  2 -1</clus>
</clustering>
</event>
<event>
 6    0  0.1080632E+003  0.6827810E+02  0.7546771E-02  0.1366048E+00
         21   -1    0    0  506  501  0.00000000000E+00  0.00000000000E+00  0.11478292195E+04  0.11478292195E+04  0.00000000000E+00 0. -1.
         21   -1    0    0  503  502 -0.00000000000E+00 -0.00000000000E+00 -0.16074124486E+03  0.16074124486E+03  0.00000000000E+00 0.  1.
         21    1    1    2  503  501 -0.39638224881E+02  0.13867181608E+02  0.19633990709E+02  0.46357105050E+02  0.00000000000E+00 0. -1.
         21    1    1    2  504  502  0.52908166575E+02 -0.63261414924E+02 -0.10236301261E+03  0.13145138668E+03  0.00000000000E+00 0.  1.
         21    1    1    2  505  504 -0.16502773882E+01  0.92003379805E+02  0.40564810981E+02  0.10056266306E+03  0.00000000000E+00 0. -1.
         21    1    1    2  506  505 -0.11619664306E+02 -0.42609146489E+02  0.10292521856E+04  0.10301993096E+04  0.00000000000E+00 0. -1.
<scales pt_clust_3="41.99390" pt_clust_4="68.27810" pt_clust_5="14000.00000" pt_clust_6="44.15583"></scales>
<clustering>
<clus scale="   41.994">  2  3  1 -1</clus>
<clus scale="   44.156">  1  6  2 -1</clus>
<clus scale="   68.278">  2  4  1 -1</clus>
<clus scale="   44.156">  1  3  2 -1</clus>
</clustering>
</event>
<event>
 6    0  0.1080632E+003  0.7535941E+02  0.7546771E-02  0.1342762E+00
         21   -1    0    0  505  501  0.00000000000E+00  0.00000000000E+00  0.11313909342E+03  0.11313909342E+03  0.00000000000E+00 0.  1.
         21   -1    0    0  506  502 -0.00000000000E+00 -0.00000000000E+00 -0.48721731116E+03  0.48721731116E+03  0.00000000000E+00 0.  1.
         21    1    1    2  503  501 -0.50771955600E+00 -0.49751907760E+02  0.70515023633E+02  0.86301093057E+02  0.00000000000E+00 0.  1.
         21    1    1    2  504  503 -0.61471729274E+02  0.56111619495E+02 -0.10578809424E+03  0.13460463672E+03  0.00000000000E+00 0.  1.
         21    1    1    2  505  502  0.23129651932E+02 -0.77429062182E+02 -0.10827703675E+03  0.13510794631E+03  0.00000000000E+00 0.  1.
         21    1    1    2  506  504  0.38849796898E+02  0.71069350446E+02 -0.23052811038E+03  0.24434272849E+03  0.00000000000E+00 0.  1.
<scales pt_clust_3="49.75450" pt_clust_4="71.15454" pt_clust_5="75.35941" pt_clust_6="14000.00000"></scales>
<clustering>
<clus scale="   49.754">  1  3  2 -1</clus>
<clus scale="   71.155">  1  4  2 -1</clus>
<clus scale="   75.359">  1  5  2 -1</clus>
<clus scale="   49.754">  1  3  2 -1</clus>
</clustering>
</event>
<event>
 6    0  0.1080632E+003  0.1235690E+03  0.7546771E-02  0.1237323E+00
         21   -1    0    0  504  501  0.00000000000E+00  0.00000000000E+00  0.27323133948E+03  0.27323133948E+03  0.00000000000E+00 0.  1.
         21   -1    0    0  503  502 -0.00000000000E+00 -0.00000000000E+00 -0.18215911436E+04  0.18215911436E+04  0.00000000000E+00 0.  1.
         21    1    1    2  503  506  0.36590225034E+02  0.26302022889E+02 -0.77809457342E+03  0.77939836166E+03  0.00000000000E+00 0.  1.
         21    1    1    2  504  505 -0.10909626916E+03 -0.63965179765E+02  0.25030632894E+03  0.28044036527E+03  0.00000000000E+00 0.  1.
         21    1    1    2  505  502 -0.12156948631E+02  0.43620406451E+02 -0.75107223689E+03  0.75243606791E+03  0.00000000000E+00 0.  1.
         21    1    1    2  506  501  0.84662992755E+02 -0.59572495757E+01 -0.26949932272E+03  0.28254768820E+03  0.00000000000E+00 0.  1.
<scales pt_clust_3="45.06263" pt_clust_4="123.56895" pt_clust_5="64.17592" pt_clust_6="14000.00000"></scales>
<clustering>
<clus scale="   45.063">  2  3  1 -1</clus>
<clus scale="   64.176">  2  5  1 -1</clus>
<clus scale="  123.569">  1  4  2 -1</clus>
<clus scale="  123.569">  1  3  2 -1</clus>
</clustering>
</event>
<event>
 6    0  0.1080632E+003  0.8807703E+02  0.7546771E-02  0.1307576E+00
         21   -1    0    0  504  501  0.00000000000E+00  0.00000000000E+00  0.62918762780E+03  0.62918762780E+03  0.00000000000E+00 0. -1.
         21   -1    0    0  506  502 -0.00000000000E+00 -0.00000000000E+00 -0.12028753428E+03  0.12028753428E+03  0.00000000000E+00 0. -1.
         21    1    1    2  503  501 -0.38768586380E+02 -0.36236896267E+02  0.41000502598E+03  0.41342500804E+03  0.00000000000E+00 0. -1.
         21    1    1    2  504  502 -0.69424961651E+02 -0.66806950392E+02 -0.33185193449E+02  0.10190314512E+03  0.00000000000E+00 0. -1.
         21    1    1    2  505  503  0.49034356196E+02  0.10945207813E+03  0.12660073068E+03  0.17438999542E+03  0.00000000000E+00 0. -1.
         21    1    1    2  506  505  0.59159191836E+02 -0.64082314687E+01  0.54795303071E+01  0.59757013493E+02  0.00000000000E+00 0. -1.
<scales pt_clust_3="53.06709" pt_clust_4="14000.00000" pt_clust_5="88.07703" pt_clust_6="54.64326"></scales>
<clustering>
<clus scale="   53.067">  1  3  2 -1</clus>
<clus scale="   54.643">  2  6  1 -1</clus>
<clus scale="   88.077">  1  5  2 -1</clus>
<clus scale="   53.067">  1  3  2 -1</clus>
</clustering>
</event>
<event>
 6    0  0.1080632E+003  0.1041061E+03  0.7546771E-02  0.1271891E+00
         21   -1    0    0  504  501  0.00000000000E+00  0.00000000000E+00  0.34974521755E+03  0.34974521755E+03  0.00000000000E+00 0. -1.
         21   -1    0    0  503  502 -0.00000000000E+00 -0.00000000000E+00 -0.91532119778E+02  0.91532119778E+02  0.00000000000E+00 0. -1.
         21    1    1    2  503  505 -0.72931801365E+01 -0.62161280453E+02 -0.20182554481E+02  0.65761316664E+02  0.00000000000E+00 0. -1.
         21    1    1    2  504  506 -0.49847423195E+02  0.59249062626E+02  0.22517030518E+02  0.80636429017E+02  0.00000000000E+00 0. -1.
         21    1    1    2  505  501  0.94579821365E+02 -0.37151207434E+00  0.23151801253E+03  0.25009212454E+03  0.00000000000E+00 0. -1.
         21    1    1    2  506  502 -0.37439218033E+02  0.32837299009E+01  0.24360609202E+02  0.44787467105E+02  0.00000000000E+00 0. -1.
<scales pt_clust_3="62.58766" pt_clust_4="31.19099" pt_clust_5="93.98802" pt_clust_6="31.19099"></scales>
<clustering>
<clus scale="   31.191">  4  6 -1 -1</clus>
<clus scale="   62.588">  2  3  1 -1</clus>
<clus scale="   93.988">  1  5  2 -1</clus>
<clus scale="   93.988">  1  3  2 -1</clus>
</clustering>
</event>
<event>
 6    0  0.1080632E+003  0.2499320E+03  0.7546771E-02  0.1113348E+00
         21   -1    0    0  503  501  0.00000000000E+00  0.00000000000E+00  0.22158888342E+04  0.22158888342E+04  0.00000000000E+00 0.  1.
         21   -1    0    0  505  502 -0.00000000000E+00 -0.00000000000E+00 -0.81502295822E+02  0.81502295822E+02  0.00000000000E+00 0.  1.
         21    1    1    2  503  506  0.22350881954E+03  0.12267052549E+03  0.17844165123E+04  0.18025389148E+04  0.00000000000E+00 0.  1.
         21    1    1    2  504  501 -0.45332286368E+02  0.20810195239E+02  0.62507695773E+02  0.79970572363E+02  0.00000000000E+00 0. -1.
         21    1    1    2  505  504 -0.25864961491E+02  0.41272730443E+02  0.12518920712E+02  0.50290733609E+02  0.00000000000E+00 0. -1.
         21    1    1    2  506  502 -0.15231157168E+03 -0.18475345117E+03  0.27494340964E+03  0.36459090923E+03  0.00000000000E+00 0.  1.
<scales pt_clust_3="14000.00000" pt_clust_4="106.48481" pt_clust_5="48.56819" pt_clust_6="249.93199"></scales>
<clustering>
<clus scale="   48.568">  4  5 -1 -1</clus>
<clus scale="  106.485">  2  4  1 -1</clus>
<clus scale="  249.932">  2  6  1 -1</clus>
<clus scale="  249.932">  1  3  2 -1</clus>
</clustering>
</event>
<event>
 6    0  0.1080632E+003  0.7519647E+02  0.7546771E-02  0.1343264E+00
         21   -1    0    0  503  501  0.00000000000E+00  0.00000000000E+00  0.34923238765E+03  0.34923238765E+03  0.00000000000E+00 0. -1.
         21   -1    0    0  504  502 -0.00000000000E+00 -0.00000000000E+00 -0.14415110757E+03  0.14415110757E+03  0.00000000000E+00 0. -1.
         21    1    1    2  503  506  0.51730317825E+02 -0.32145233870E+02  0.21483510450E+03  0.22330128519E+03  0.00000000000E+00 0. -1.
         21    1    1    2  504  505 -0.45068444508E+02  0.29349175122E+02  0.19834333419E+02  0.57323115346E+02  0.00000000000E+00 0. -1.
         21    1    1    2  505  501 -0.52555814268E+02 -0.54584721029E+02  0.60173121791E+02  0.96759547174E+02  0.00000000000E+00 0. -1.
         21    1    1    2  506  502  0.45893940951E+02  0.57380779777E+02 -0.89761279626E+02  0.11599954752E+03  0.00000000000E+00 0. -1.
<scales pt_clust_3="59.08937" pt_clust_4="53.78233" pt_clust_5="14000.00000" pt_clust_6="75.19647"></scales>
<clustering>
<clus scale="   53.782">  2  4  1 -1</clus>
<clus scale="   59.089">  1  3  2 -1</clus>
<clus scale="   75.196">  2  6  1 -1</clus>
<clus scale="   59.089">  1  3  2 -1</clus>
</clustering>
</event>
<event>
 6    0  0.1080632E+003  0.1583605E+03  0.7546771E-02  0.1190560E+00
         21   -1    0    0  506  501  0.00000000000E+00  0.00000000000E+00  0.15126582211E+04  0.15126582211E+04  0.00000000000E+00 0. -1.
         21   -1    0    0  504  502 -0.00000000000E+00 -0.00000000000E+00 -0.57036643519E+02  0.57036643519E+02  0.00000000000E+00 0.  1.
         21    1    1    2  503  501 -0.74149561990E+02  0.12986053323E+03  0.13020387219E+04  0.13105978594E+04  0.00000000000E+00 0. -1.
         21    1    1    2  504  505  0.64036341824E+02 -0.94672231853E+02  0.82082749593E+02  0.14071624760E+03  0.00000000000E+00 0.  1.
         21    1    1    2  505  503  0.42068937529E+02 -0.18976070861E+02  0.10028585718E+02  0.47227738689E+02  0.00000000000E+00 0.  1.
         21    1    1    2  506  502 -0.31955717363E+02 -0.16212230516E+02  0.61471520311E+02  0.71153018909E+02  0.00000000000E+00 0.  1.
<scales pt_clust_3="149.71261" pt_clust_4="32.79864" pt_clust_5="32.79864" pt_clust_6="35.83301"></scales>
<clustering>
<clus scale="   32.799">  4  5 -1 -1</clus>
<clus scale="   35.833">  2  6  1 -1</clus>
<clus scale="  149.713">  1  3  2 -1</clus>
<clus scale="  149.713">  1  3  2 -1</clus>
</clustering>
</event>
<event>
 6    0  0.1080632E+003  0.8732307E+02  0.7546771E-02  0.1309467E+00
         21   -1    0    0  505  501  0.00000000000E+00  0.00000000000E+00  0.10839683783E+03  0.10839683783E+03  0.00000000000E+00 0.  1.
         21   -1    0    0  504  502 -0.00000000000E+00 -0.00000000000E+00 -0.13007413349E+04  0.13007413349E+04  0.00000000000E+00 0. -1.
         21    1    1    2  503  506  0.51744339981E+02  0.42072924315E+02 -0.73460906757E+03  0.73763004944E+03  0.00000000000E+00 0. -1.
         21    1    1    2  504  501 -0.15624090068E+02  0.43019655137E+02 -0.27931688237E+03  0.28304191156E+03  0.00000000000E+00 0. -1.
         21    1    1    2  505  503 -0.76050630084E+02 -0.44026126386E+02  0.82982024127E+02  0.12086361929E+03  0.00000000000E+00 0.  1.
         21    1    1    2  506  502  0.39930380171E+02 -0.41066453066E+02 -0.26140057128E+03  0.26760259246E+03  0.00000000000E+00 0. -1.
<scales pt_clust_3="87.32307" pt_clust_4="45.76902" pt_clust_5="14000.00000" pt_clust_6="46.70689"></scales>
<clustering>
<clus scale="   45.769">  2  4  1 -1</clus>
<clus scale="   46.707">  2  6  1 -1</clus>
<clus scale="   87.323">  2  3  1 -1</clus>
<clus scale="   87.323">  1  3  2 -1</clus>
</clustering>
</event>
<event>
 6    0  0.1080632E+003  0.1445433E+03  0.7546771E-02  0.1207343E+00
         21   -1    0    0  504  501  0.00000000000E+00  0.00000000000E+00  0.17912967287E+04  0.17912967287E+04  0.00000000000E+00 0.  1.
         21   -1    0    0  506  502 -0.00000000000E+00 -0.00000000000E+00 -0.12798893239E+03  0.12798893239E+03  0.00000000000E+00 0. -1.
         21    1    1    2  503  502  0.33562268196E+02  0.31752218076E+02 -0.26537625868E+02  0.53281092199E+02  0.00000000000E+00 0.  1.
         21    1    1    2  504  503  0.25926744343E+02  0.12317047694E+03 -0.23204786742E+02  0.12799072072E+03  0.00000000000E+00 0. -1.
         21    1    1    2  505  501  0.14240360817E+01 -0.13384820146E+03  0.16158480591E+04  0.16213828415E+04  0.00000000000E+00 0.  1.
         21    1    1    2  506  505 -0.60913048622E+02 -0.21074493552E+02  0.97202149868E+02  0.11663100664E+03  0.00000000000E+00 0.  1.
<scales pt_clust_3="32.31654" pt_clust_4="32.31654" pt_clust_5="134.34130" pt_clust_6="64.45567"></scales>
<clustering>
<clus scale="   32.317">  3  4 -1 -1</clus>
<clus scale="   64.456">  2  6  1 -1</clus>
<clus scale="  134.341">  1  5  2 -1</clus>
<clus scale="  134.341">  1  3  2 -1</clus>
</clustering>
</event>
<event>
 6    0  0.1080632E+003  0.9754352E+02  0.7546771E-02  0.1285548E+00
         21   -1    0    0  506  501  0.00000000000E+00  0.00000000000E+00  0.43277176738E+03  0.43277176738E+03  0.00000000000E+00 0.  1.
         21   -1    0    0  504  502 -0.00000000000E+00 -0.00000000000E+00 -0.11262203008E+03  0.11262203008E+03  0.00000000000E+00 0.  1.
         21    1    1    2  503  505 -0.52000251037E+02 -0.26342137145E+02  0.65881148395E+02  0.87967380381E+02  0.00000000000E+00 0.  1.
         21    1    1    2  504  503  0.31147416592E+02  0.17702630086E+02 -0.40727901141E+02  0.54243032766E+02  0.00000000000E+00 0. -1.
         21    1    1    2  505  501 -0.94428472873E+02  0.94599968041E-01  0.26845447405E+03  0.28457784537E+03  0.00000000000E+00 0.  1.
         21    1    1    2  506  502  0.11528130732E+03  0.85449070907E+01  0.26542015999E+02  0.11860553894E+03  0.00000000000E+00 0.  1.
<scales pt_clust_3="52.22562" pt_clust_4="35.82659" pt_clust_5="97.54352" pt_clust_6="14000.00000"></scales>
<clustering>
<clus scale="   35.827">  2  4  1 -1</clus>
<clus scale="   52.226">  2  3  1 -1</clus>
<clus scale="   97.544">  1  5  2 -1</clus>
<clus scale="   97.544">  1  3  2 -1</clus>
</clustering>
</event>
<event>
 6    0  0.1080632E+003  0.1755087E+03  0.7546771E-02  0.1172222E+00
         21   -1    0    0  503  501  0.00000000000E+00  0.00000000000E+00  0.49834530639E+03  0.49834530639E+03  0.00000000000E+00 0. -1.
         21   -1    0    0  504  502 -0.00000000000E+00 -0.00000000000E+00 -0.16724718164E+03  0.16724718164E+03  0.00000000000E+00 0. -1.
         21    1    1    2  503  506 -0.19065986367E+02  0.26416226202E+02  0.83735029519E+02  0.89849229331E+02  0.00000000000E+00 0. -1.
         21    1    1    2  504  501  0.12725193563E+02 -0.45125892630E+02  0.18074174681E+03  0.18672400965E+03  0.00000000000E+00 0. -1.
         21    1    1    2  505  502  0.21104020738E+02 -0.16883094943E+03 -0.37181487034E+02  0.17416007624E+03  0.00000000000E+00 0. -1.
         21    1    1    2  506  505 -0.14763227934E+02  0.18754061586E+03  0.10380283546E+03  0.21485917282E+03  0.00000000000E+00 0. -1.
<scales pt_clust_3="32.57804" pt_clust_4="33.59793" pt_clust_5="14000.00000" pt_clust_6="175.50873"></scales>
<clustering>
<clus scale="   32.578">  1  3  2 -1</clus>
<clus scale="   33.598">  1  4  2 -1</clus>
<clus scale="  175.509">  1  6  2 -1</clus>
<clus scale="   32.578">  1  3  2 -1</clus>
</clustering>
</event>
<event>
 6    0  0.1080632E+003  0.1623393E+03  0.7546771E-02  0.1186081E+00
         21   -1    0    0  506  501  0.00000000000E+00  0.00000000000E+00  0.13120867618E+03  0.13120867618E+03  0.00000000000E+00 0. -1.
         21   -1    0    0  503  502 -0.00000000000E+00 -0.00000000000E+00 -0.11438393594E+04  0.11438393594E+04  0.00000000000E+00 0.  1.
         21    1    1    2  503  504  0.10384135879E+03  0.53097007709E+02 -0.58748563962E+03  0.59895049610E+03  0.00000000000E+00 0. -1.
         21    1    1    2  504  505 -0.20022142104E+03  0.61398597895E+02 -0.34183574848E+03  0.40088662263E+03  0.00000000000E+00 0.  1.
         21    1    1    2  505  501 -0.60323737711E+02 -0.77346750619E+02 -0.52458519748E+02  0.11123564832E+03  0.00000000000E+00 0. -1.
         21    1    1    2  506  502  0.15670379996E+03 -0.37148854985E+02 -0.30850775376E+02  0.16397526853E+03  0.00000000000E+00 0. -1.
<scales pt_clust_3="111.64700" pt_clust_4="162.33928" pt_clust_5="98.08911" pt_clust_6="14000.00000"></scales>
<clustering>
<clus scale="   98.089">  1  5  2 -1</clus>
<clus scale="  111.647">  2  3  1 -1</clus>
<clus scale="  162.339">  2  4  1 -1</clus>
<clus scale="   98.089">  1  3  2 -1</clus>
</clustering>
</event>
<event>
 6    0  0.1080632E+003  0.6423727E+02  0.7546771E-02  0.1380864E+00
         21   -1    0    0  503  501  0.00000000000E+00  0.00000000000E+00  0.87571101788E+03  0.87571101788E+03  0.00000000000E+00 0.  1.
         21   -1    0    0  504  502 -0.00000000000E+00 -0.00000000000E+00 -0.36199634966E+02  0.36199634966E+02  0.00000000000E+00 0. -1.
         21    1    1    2  503  502  0.37224620646E+02 -0.40961977411E+02  0.52642454711E+02  0.76385757924E+02  0.00000000000E+00 0. -1.
         21    1    1    2  504  506 -0.39693788609E+02 -0.87949023623E+01  0.76700598093E+02  0.86809728196E+02  0.00000000000E+00 0. -1.
         21    1    1    2  505  501 -0.14094491148E+02 -0.58456136535E+02  0.55815851148E+03  0.56138818879E+03  0.00000000000E+00 0.  1.
         21    1    1    2  506  505  0.16563659111E+02  0.10821301631E+03  0.15200981863E+03  0.18732697793E+03  0.00000000000E+00 0. -1.
<scales pt_clust_3="49.51693" pt_clust_4="40.65645" pt_clust_5="64.23727" pt_clust_6="14000.00000"></scales>
<clustering>
<clus scale="   40.656">  2  4  1 -1</clus>
<clus scale="   49.517">  2  3  1 -1</clus>
<clus scale="   64.237">  1  5  2 -1</clus>
<clus scale="   64.237">  1  3  2 -1</clus>
</clustering>
</event>
<event>
 6    0  0.1080632E+003  0.1582266E+03  0.7546771E-02  0.1190714E+00
         21   -1    0    0  506  501  0.00000000000E+00  0.00000000000E+00  0.62858941159E+03  0.62858941159E+03  0.00000000000E+00 0. -1.
         21   -1    0    0  505  502 -0.00000000000E+00 -0.00000000000E+00 -0.13700360114E+03  0.13700360114E+03  0.00000000000E+00 0. -1.
         21    1    1    2  503  504  0.37441817695E+02 -0.25946990422E+02 -0.25887452295E+01  0.45627158865E+02  0.00000000000E+00 0.  1.
         21    1    1    2  504  502  0.13614418121E+03 -0.34205365879E+01  0.67702921473E+02  0.15208755283E+03  0.00000000000E+00 0. -1.
         21    1    1    2  505  501 -0.33320605996E+02  0.50834268487E+02 -0.44928693171E+02  0.75584212020E+02  0.00000000000E+00 0. -1.
         21    1    1    2  506  503 -0.14026539291E+03 -0.21466741477E+02  0.47140032737E+03  0.49229408902E+03  0.00000000000E+00 0. -1.
<scales pt_clust_3="35.91712" pt_clust_4="35.91712" pt_clust_5="60.78146" pt_clust_6="145.52991"></scales>
<clustering>
<clus scale="   35.917">  3  4 -1 -1</clus>
<clus scale="   60.781">  2  5  1 -1</clus>
<clus scale="  145.530">  1  6  2 -1</clus>
<clus scale="  145.530">  1  3  2 -1</clus>
</clustering>
</event>
<event>
 6    0  0.1080632E+003  0.1236056E+03  0.7546771E-02  0.1237265E+00
         21   -1    0    0  506  501  0.00000000000E+00  0.00000000000E+00  0.21650475163E+03  0.21650475163E+03  0.00000000000E+00 0. -1.
         21   -1    0    0  504  502 -0.00000000000E+00 -0.00000000000E+00 -0.49305635036E+03  0.49305635036E+03  0.00000000000E+00 0. -1.
         21    1    1    2  503  505 -0.80427799498E+02  0.34124042136E+01 -0.12104001800E+03  0.14536492490E+03  0.00000000000E+00 0. -1.
         21    1    1    2  504  503 -0.53954124660E+02 -0.10268508465E+02 -0.15381784990E+03  0.16332917921E+03  0.00000000000E+00 0. -1.
         21    1    1    2  505  501  0.49844199590E+02  0.91770103429E+02  0.16518422279E+03  0.19542779632E+03  0.00000000000E+00 0. -1.
         21    1    1    2  506  502  0.84537724568E+02 -0.84913999178E+02 -0.16687795362E+03  0.20543920156E+03  0.00000000000E+00 0. -1.
<scales pt_clust_3="33.44711" pt_clust_4="33.44711" pt_clust_5="104.43273" pt_clust_6="116.78462"></scales>
<clustering>
<clus scale="   33.447">  3  4 -1 -1</clus>
<clus scale="  104.433">  1  5  2 -1</clus>
<clus scale="  116.785">  1  6  2 -1</clus>
<clus scale="  104.433">  1  3  2 -1</clus>
</clustering>
</event>
<event>
 6    0  0.1080632E+003  0.1263889E+03  0.7546771E-02  0.1232915E+00
         21   -1    0    0  505  501  0.00000000000E+00  0.00000000000E+00  0.17194433224E+03  0.17194433224E+03  0.00000000000E+00 0.  1.
         21   -1    0    0  504  502 -0.00000000000E+00 -0.00000000000E+00 -0.11845021269E+04  0.11845021269E+04  0.00000000000E+00 0.  1.
         21    1    1    2  503  501  0.31837234809E+02  0.47874098057E+02  0.34487045116E+02  0.67043978595E+02  0.00000000000E+00 0.  1.
         21    1    1    2  504  503  0.57132335849E+02  0.58090051940E+02 -0.96092241790E+01  0.82042032662E+02  0.00000000000E+00 0.  1.
         21    1    1    2  505  506 -0.59378349580E+02 -0.86434681252E+02  0.52206234221E+02  0.11714193704E+03  0.00000000000E+00 0.  1.
         21    1    1    2  506  502 -0.29591221077E+02 -0.19529468744E+02 -0.10896418498E+04  0.10902185108E+04  0.00000000000E+00 0.  1.
<scales pt_clust_3="44.44229" pt_clust_4="44.44229" pt_clust_5="116.23426" pt_clust_6="35.45477"></scales>
<clustering>
<clus scale="   35.455">  2  6  1 -1</clus>
<clus scale="   44.442">  3  4 -1 -1</clus>
<clus scale="  116.234">  1  5  2 -1</clus>
<clus scale="  116.234">  1  3  2 -1</clus>
</clustering>
</event>
<event>
 6    0  0.1080632E+003  0.1312090E+03  0.7546771E-02  0.1225673E+00
         21   -1    0    0  504  501  0.00000000000E+00  0.00000000000E+00  0.25194091411E+03  0.25194091411E+03  0.00000000000E+00 0. -1.
         21   -1    0    0  503  502 -0.00000000000E+00 -0.00000000000E+00 -0.14590396304E+04  0.14590396304E+04  0.00000000000E+00 0.  1.
         21    1    1    2  503  505 -0.30213641490E+02  0.24756764452E+02 -0.31768789993E+03  0.32008024506E+03  0.00000000000E+00 0.  1.
         21    1    1    2  504  506  0.32070193741E+02  0.12702769207E+03  0.21998388524E+03  0.25604187479E+03  0.00000000000E+00 0. -1.
         21    1    1    2  505  501 -0.40621977484E+02  0.47918054867E+01 -0.56909161890E+02  0.70083943678E+02  0.00000000000E+00 0. -1.
         21    1    1    2  506  502  0.38765425233E+02 -0.15657626201E+03 -0.10524855397E+04  0.10647744809E+04  0.00000000000E+00 0.  1.
<scales pt_clust_3="39.06100" pt_clust_4="14000.00000" pt_clust_5="42.75226" pt_clust_6="131.20903"></scales>
<clustering>
<clus scale="   39.061">  2  3  1 -1</clus>
<clus scale="   42.752">  2  5  1 -1</clus>
<clus scale="  131.209">  2  6  1 -1</clus>
<clus scale="  131.209">  1  3  2 -1</clus>
</clustering>
</event>
<event>
 6    0  0.1080632E+003  0.3401532E+03  0.7546771E-02  0.1066731E+00
         21   -1    0    0  506  501  0.00000000000E+00  0.00000000000E+00  0.38145031866E+04  0.38145031866E+04  0.00000000000E+00 0.  1.
         21   -1    0    0  505  502 -0.00000000000E+00 -0.00000000000E+00 -0.32735118674E+03  0.32735118674E+03  0.00000000000E+00 0. -1.
         21    1    1    2  503  501  0.72474272960E+02 -0.46153023908E+02 -0.13152825418E+03  0.15710602631E+03  0.00000000000E+00 0. -1.
         21    1    1    2  504  503  0.10817135456E+03 -0.15385430793E+03 -0.84971730172E+02  0.20637922605E+03  0.00000000000E+00 0. -1.
         21    1    1    2  505  504  0.68555504109E+02 -0.45365342724E+01  0.85569614455E+01  0.69236254058E+02  0.00000000000E+00 0. -1.
         21    1    1    2  506  502 -0.24920113163E+03  0.20454386611E+03  0.36950950228E+04  0.37091328669E+04  0.00000000000E+00 0.  1.
<scales pt_clust_3="83.41131" pt_clust_4="83.41131" pt_clust_5="68.70544" pt_clust_6="321.07744"></scales>
<clustering>
<clus scale="   68.705">  2  5  1 -1</clus>
<clus scale="   83.411">  3  4 -1 -1</clus>
<clus scale="  321.077">  1  6  2 -1</clus>
<clus scale="  321.077">  1  3  2 -1</clus>
</clustering>
</event>
<event>
 6    0  0.1080632E+003  0.1141062E+03  0.7546771E-02  0.1253149E+00
         21   -1    0    0  504  501  0.00000000000E+00  0.00000000000E+00  0.10793219946E+03  0.10793219946E+03  0.00000000000E+00 0. -1.
         21   -1    0    0  503  502 -0.00000000000E+00 -0.00000000000E+00 -0.45630611559E+03  0.45630611559E+03  0.00000000000E+00 0.  1.
         21    1    1    2  503  505 -0.11001497013E+03 -0.23890366140E+02  0.17064917539E+02  0.11386507216E+03  0.00000000000E+00 0. -1.
         21    1    1    2  504  506  0.69503002755E+02  0.95164919440E+01 -0.19663261808E+03  0.20877168751E+03  0.00000000000E+00 0.  1.
         21    1    1    2  505  501  0.10949474316E+02  0.41834690553E+02  0.20632283027E+02  0.47913708105E+02  0.00000000000E+00 0. -1.
         21    1    1    2  506  502  0.29562493055E+02 -0.27460816356E+02 -0.18943849861E+03  0.19368784729E+03  0.00000000000E+00 0.  1.
<scales pt_clust_3="101.16042" pt_clust_4="40.03598" pt_clust_5="43.24387" pt_clust_6="40.03598"></scales>
<clustering>
<clus scale="   40.036">  4  6 -1 -1</clus>
<clus scale="   43.244">  1  5  2 -1</clus>
<clus scale="  101.160">  1  3  2 -1</clus>
<clus scale="   43.244">  1  3  2 -1</clus>
</clustering>
</event>
<event>
 6    0  0.1080632E+003  0.8271510E+02  0.7546771E-02  0.1321518E+00
         21   -1    0    0  505  501  0.00000000000E+00  0.00000000000E+00  0.25942847336E+04  0.25942847336E+04  0.00000000000E+00 0.  1.
         21   -1    0    0  504  502 -0.00000000000E+00 -0.00000000000E+00 -0.32450197183E+03  0.32450197183E+03  0.00000000000E+00 0.  1.
         21    1    1    2  503  501  0.74062299125E+02 -0.21392673506E+02  0.39548163416E+02  0.86642529170E+02  0.00000000000E+00 0. -1.
         21    1    1    2  504  503 -0.24079071388E+01  0.85381244975E+02 -0.25882779643E+03  0.27255748608E+03  0.00000000000E+00 0.  1.
         21    1    1    2  505  506  0.11634401651E+02 -0.47486391942E+02  0.24726176983E+04  0.24731010086E+04  0.00000000000E+00 0.  1.
         21    1    1    2  506  502 -0.83288793638E+02 -0.16502179527E+02  0.16444696448E+02  0.86485681567E+02  0.00000000000E+00 0. -1.
<scales pt_clust_3="79.48949" pt_clust_4="82.71510" pt_clust_5="48.89087" pt_clust_6="14000.00000"></scales>
<clustering>
<clus scale="   48.891">  1  5  2 -1</clus>
<clus scale="   82.715">  2  4  1 -1</clus>
<clus scale="   79.489">  1  3  2 -1</clus>
<clus scale="   48.891">  1  3  2 -1</clus>
</clustering>
</event>
<event>
 6    0  0.1080632E+003  0.6170513E+02  0.7546771E-02  0.1390812E+00
         21   -1    0    0  503  501  0.00000000000E+00  0.00000000000E+00  0.14194789945E+04  0.14194789945E+04  0.00000000000E+00 0.  1.
         21   -1    0    0  506  502 -0.00000000000E+00 -0.00000000000E+00 -0.20563218024E+03  0.20563218024E+03  0.00000000000E+00 0.  1.
         21    1    1    2  503  504 -0.62316351661E+02 -0.17928479484E+02  0.11649771015E+04  0.11667803585E+04  0.00000000000E+00 0.  1.
         21    1    1    2  504  502  0.15965378686E+02  0.39796550173E+02 -0.62700105458E+01  0.43335571469E+02  0.00000000000E+00 0.  1.
         21    1    1    2  505  501  0.23435192636E+02  0.63727031120E+02  0.21868739447E+03  0.22898584945E+03  0.00000000000E+00 0.  1.
         21    1    1    2  506  505  0.22915780340E+02 -0.85595101810E+02 -0.16354767109E+03  0.18600939536E+03  0.00000000000E+00 0.  1.
<scales pt_clust_3="61.70513" pt_clust_4="42.87958" pt_clust_5="14000.00000" pt_clust_6="60.75972"></scales>
<clustering>
<clus scale="   42.880">  2  4  1 -1</clus>
<clus scale="   60.760">  2  6  1 -1</clus>
<clus scale="   61.705">  1  3  2 -1</clus>
<clus scale="   61.705">  1  3  2 -1</clus>
</clustering>
</event>
<event>
 6    0  0.1080632E+003  0.1649436E+03  0.7546771E-02  0.1183226E+00
         21   -1    0    0  505  501  0.00000000000E+00  0.00000000000E+00  0.13990736403E+03  0.13990736403E+03  0.00000000000E+00 0.  1.
         21   -1    0    0  501  502 -0.00000000000E+00 -0.00000000000E+00 -0.59008180344E+03  0.59008180344E+03  0.00000000000E+00 0.  1.
         21    1    1    2  503  504  0.18603410679E+02 -0.39155863131E+02 -0.11634115015E+02  0.44884531173E+02  0.00000000000E+00 0.  1.
         21    1    1    2  504  506 -0.12520469128E+02  0.15179372895E+03 -0.26326907642E+03  0.30415243693E+03  0.00000000000E+00 0.  1.
         21    1    1    2  505  503  0.69911713936E+02 -0.92138465133E+02  0.61814726484E+02  0.13114192660E+03  0.00000000000E+00 0.  1.
         21    1    1    2  506  502 -0.75994655488E+02 -0.20499400681E+02 -0.23708597447E+03  0.24981027277E+03  0.00000000000E+00 0. -1.
<scales pt_clust_3="35.66713" pt_clust_4="154.31229" pt_clust_5="35.66713" pt_clust_6="78.71095"></scales>
<clustering>
<clus scale="   35.667">  3  5 -1 -1</clus>
<clus scale="   78.711">  2  6  1 -1</clus>
<clus scale="  154.312">  2  4  1 -1</clus>
<clus scale="  164.944">  1  3  2 -1</clus>
</clustering>
</event>
<event>
 6    0  0.1080632E+003  0.4748930E+03  0.7546771E-02  0.1020548E+00
         21   -1    0    0  504  501  0.00000000000E+00  0.00000000000E+00  0.19861013775E+04  0.19861013775E+04  0.00000000000E+00 0.  1.
         21   -1    0    0  505  502 -0.00000000000E+00 -0.00000000000E+00 -0.13743577800E+04  0.13743577800E+04  0.00000000000E+00 0.  1.
         21    1    1    2  503  502  0.21770082288E+03 -0.24867327543E+03 -0.12031762905E+04  0.12477440572E+04  0.00000000000E+00 0.  1.
         21    1    1    2  504  503 -0.67303979162E+02  0.25889231032E+02  0.33400241455E+02  0.79471089232E+02  0.00000000000E+00 0.  1.
         21    1    1    2  505  506  0.67299510988E+02 -0.14246295093E+03 -0.40161515286E+02  0.16259724437E+03  0.00000000000E+00 0. -1.
         21    1    1    2  506  501 -0.21769635471E+03  0.36524699533E+03  0.18216811618E+04  0.18706467667E+04  0.00000000000E+00 0.  1.
<scales pt_clust_3="474.89298" pt_clust_4="72.11157" pt_clust_5="155.91260" pt_clust_6="14000.00000"></scales>
<clustering>
<clus scale="   72.112">  1  4  2 -1</clus>
<clus scale="  155.913">  2  5  1 -1</clus>
<clus scale="  474.893">  2  3  1 -1</clus>
<clus scale="   72.112">  1  3  2 -1</clus>
</clustering>
</event>
<event>
 6    0  0.1080632E+003  0.1337577E+03  0.7546771E-02  0.1221984E+00
         21   -1    0    0  504  501  0.00000000000E+00  0.00000000000E+00  0.15389345324E+04  0.15389345324E+04  0.00000000000E+00 0.  1.
         21   -1    0    0  503  502 -0.00000000000E+00 -0.00000000000E+00 -0.16252194347E+02  0.16252194347E+02  0.00000000000E+00 0.  1.
         21    1    1    2  503  506 -0.87427373591E+02  0.83150935106E+02  0.38705725390E+03  0.40542686327E+03  0.00000000000E+00 0.  1.
         21    1    1    2  504  505  0.45835805006E+02 -0.19864701004E+02  0.44262571124E+03  0.44543579516E+03  0.00000000000E+00 0.  1.
         21    1    1    2  505  502  0.65146789338E+02 -0.42519735880E+02  0.29491608143E+03  0.30500414290E+03  0.00000000000E+00 0.  1.
         21    1    1    2  506  501 -0.23555220754E+02 -0.20766498223E+02  0.39808329149E+03  0.39931992542E+03  0.00000000000E+00 0.  1.
<scales pt_clust_3="122.09784" pt_clust_4="42.53768" pt_clust_5="42.53768" pt_clust_6="31.40216"></scales>
<clustering>
<clus scale="   31.402">  1  6  2 -1</clus>
<clus scale="   42.538">  4  5 -1 -1</clus>
<clus scale="  122.098">  2  3  1 -1</clus>
<clus scale="   31.402">  1  3  2 -1</clus>
</clustering>
</event>
<event>
 6    0  0.1080632E+003  0.1853933E+03  0.7546771E-02  0.1162683E+00
         21   -1    0    0  503  501  0.00000000000E+00  0.00000000000E+00  0.18145384764E+03  0.18145384764E+03  0.00000000000E+00 0.  1.
         21   -1    0    0  505  502 -0.00000000000E+00 -0.00000000000E+00 -0.41768446608E+03  0.41768446608E+03  0.00000000000E+00 0.  1.
         21    1    1    2  503  506  0.67051155109E+02 -0.43015865729E+02  0.78858226437E+02  0.11209300595E+03  0.00000000000E+00 0.  1.
         21    1    1    2  504  501  0.28223487676E+00 -0.34562318380E+02 -0.90421628282E+01  0.35726659751E+02  0.00000000000E+00 0. -1.
         21    1    1    2  505  504 -0.14215647979E+03  0.10913630734E+03 -0.32204274570E+03  0.36855220578E+03  0.00000000000E+00 0.  1.
         21    1    1    2  506  502  0.74823089809E+02 -0.31558123232E+02  0.15996063644E+02  0.82766442249E+02  0.00000000000E+00 0.  1.
<scales pt_clust_3="55.35132" pt_clust_4="34.56347" pt_clust_5="176.31620" pt_clust_6="55.35132"></scales>
<clustering>
<clus scale="   34.563">  1  4  2 -1</clus>
<clus scale="   55.351">  3  6 -1 -1</clus>
<clus scale="  176.316">  2  5  1 -1</clus>
<clus scale="   34.563">  1  3  2 -1</clus>
</clustering>
</event>
<event>
 6    0  0.1080632E+003  0.1003882E+03  0.7546771E-02  0.1279482E+00
         21   -1    0    0  503  501  0.00000000000E+00  0.00000000000E+00  0.19718818693E+03  0.19718818693E+03  0.00000000000E+00 0.  1.
         21   -1    0    0  504  502 -0.00000000000E+00 -0.00000000000E+00 -0.14108650973E+04  0.14108650973E+04  0.00000000000E+00 0. -1.
         21    1    1    2  503  506 -0.17169063297E+02 -0.53454179773E+02  0.14547224011E+03  0.15593042907E+03  0.00000000000E+00 0.  1.
         21    1    1    2  504  505 -0.48223954260E+02  0.28544639725E+02 -0.11172842087E+04  0.11186886739E+04  0.00000000000E+00 0. -1.
         21    1    1    2  505  501  0.11861149155E+03  0.34373294797E+02 -0.48530112062E+02  0.13268527084E+03  0.00000000000E+00 0. -1.
         21    1    1    2  506  502 -0.53218473988E+02 -0.94637547493E+01 -0.19333482973E+03  0.20074891037E+03  0.00000000000E+00 0.  1.
<scales pt_clust_3="56.25310" pt_clust_4="14000.00000" pt_clust_5="100.38822" pt_clust_6="54.05339"></scales>
<clustering>
<clus scale="   54.053">  2  6  1 -1</clus>
<clus scale="   56.253">  1  3  2 -1</clus>
<clus scale="  100.388">  1  5  2 -1</clus>
<clus scale="   56.253">  1  3  2 -1</clus>
</clustering>
</event>
<event>
 6    0  0.1080632E+003  0.1566776E+03  0.7546771E-02  0.1192500E+00
         21   -1    0    0  503  501  0.00000000000E+00  0.00000000000E+00  0.43388424077E+03  0.43388424077E+03  0.00000000000E+00 0. -1.
         21   -1    0    0  504  502 -0.00000000000E+00 -0.00000000000E+00 -0.27994546967E+03  0.27994546967E+03  0.00000000000E+00 0. -1.
         21    1    1    2  503  506  0.39696646976E+02 -0.32520532340E+02 -0.23544739756E+02  0.56460283164E+02  0.00000000000E+00 0. -1.
         21    1    1    2  504  505  0.12732279734E+03  0.11594615588E+03 -0.29651509396E+02  0.17473928521E+03  0.00000000000E+00 0. -1.
         21    1    1    2  505  501 -0.13216097728E+03 -0.80011791036E+02  0.32490287934E+03  0.35976421671E+03  0.00000000000E+00 0. -1.
         21    1    1    2  506  502 -0.34858467035E+02 -0.34138325080E+01 -0.11776785909E+03  0.12286592534E+03  0.00000000000E+00 0. -1.
<scales pt_clust_3="45.52533" pt_clust_4="156.67758" pt_clust_5="14000.00000" pt_clust_6="35.02523"></scales>
<clustering>
<clus scale="   35.025">  2  6  1 -1</clus>
<clus scale="   45.525">  2  3  1 -1</clus>
<clus scale="  156.678">  2  4  1 -1</clus>
<clus scale="  156.678">  1  3  2 -1</clus>
</clustering>
</event>
<event>
 6    0  0.1080632E+003  0.6132834E+02  0.7546771E-02  0.1392340E+00
         21   -1    0    0  504  501  0.00000000000E+00  0.00000000000E+00  0.15419613647E+03  0.15419613647E+03  0.00000000000E+00 0.  1.
         21   -1    0    0  503  502 -0.00000000000E+00 -0.00000000000E+00 -0.51331193152E+03  0.51331193152E+03  0.00000000000E+00 0. -1.
         21    1    1    2  503  505 -0.68198529285E+02  0.23719607742E+02 -0.62794790588E+01  0.72478210832E+02  0.00000000000E+00 0. -1.
         21    1    1    2  504  506  0.97857536286E+00 -0.43797866018E+02 -0.17275618864E+01  0.43842846024E+02  0.00000000000E+00 0. -1.
         21    1    1    2  505  501  0.51053863544E+02  0.72953285871E+02  0.78094246211E+02  0.11843728380E+03  0.00000000000E+00 0.  1.
         21    1    1    2  506  502  0.16166090378E+02 -0.52875027596E+02 -0.42920300032E+03  0.43274972733E+03  0.00000000000E+00 0. -1.
<scales pt_clust_3="61.32834" pt_clust_4="43.80880" pt_clust_5="14000.00000" pt_clust_6="55.85306"></scales>
<clustering>
<clus scale="   43.809">  1  4  2 -1</clus>
<clus scale="   55.853">  2  6  1 -1</clus>
<clus scale="   61.328">  2  3  1 -1</clus>
<clus scale="   43.809">  1  3  2 -1</clus>
</clustering>
</event>
<event>
 6    0  0.1080632E+003  0.1575099E+03  0.7546771E-02  0.1191537E+00
         21   -1    0    0  504  501  0.00000000000E+00  0.00000000000E+00  0.37785498211E+03  0.37785498211E+03  0.00000000000E+00 0. -1.
         21   -1    0    0  506  502 -0.00000000000E+00 -0.00000000000E+00 -0.19139380657E+03  0.19139380657E+03  0.00000000000E+00 0. -1.
         21    1    1    2  503  502  0.55352624240E+02 -0.61205238639E+02 -0.10601169266E+03  0.13434460624E+03  0.00000000000E+00 0. -1.
         21    1    1    2  504  503  0.86950649662E+02 -0.45740744155E+02  0.14533697176E+02  0.99316964845E+02  0.00000000000E+00 0. -1.
         21    1    1    2  505  501 -0.10004884016E+03  0.65161436527E+02  0.23034993317E+03  0.25945495744E+03  0.00000000000E+00 0. -1.
         21    1    1    2  506  505 -0.42254433743E+02  0.41784546267E+02  0.47589237848E+02  0.76132260157E+02  0.00000000000E+00 0. -1.
<scales pt_clust_3="82.52269" pt_clust_4="145.35625" pt_clust_5="42.80233" pt_clust_6="42.80233"></scales>
<clustering>
<clus scale="   42.802">  5  6 -1 -1</clus>
<clus scale="   82.523">  2  3  1 -1</clus>
<clus scale="  145.356">  2  4  1 -1</clus>
<clus scale="  157.510">  1  3  2 -1</clus>
</clustering>
</event>
<event>
 6    0  0.1080632E+003  0.2300460E+03  0.7546771E-02  0.1126607E+00
         21   -1    0    0  503  501  0.00000000000E+00  0.00000000000E+00  0.14529191001E+04  0.14529191001E+04  0.00000000000E+00 0.  1.
         21   -1    0    0  504  502 -0.00000000000E+00 -0.00000000000E+00 -0.14145885164E+03  0.14145885164E+03  0.00000000000E+00 0.  1.
         21    1    1    2  503  505 -0.55097199295E+02 -0.96613480051E+02  0.74028375729E+03  0.74859194974E+03  0.00000000000E+00 0.  1.
         21    1    1    2  504  501 -0.10060274474E+00  0.41308422124E+02 -0.75455474999E+02  0.86022814222E+02  0.00000000000E+00 0.  1.
         21    1    1    2  505  506 -0.27804703403E+02 -0.11680514300E+03  0.51231937916E+03  0.52620118702E+03  0.00000000000E+00 0.  1.
         21    1    1    2  506  502  0.83002505443E+02  0.17211020093E+03  0.13431258703E+03  0.23356200078E+03  0.00000000000E+00 0.  1.
<scales pt_clust_3="58.73677" pt_clust_4="41.30854" pt_clust_5="58.73677" pt_clust_6="221.94246"></scales>
<clustering>
<clus scale="   41.309">  2  4  1 -1</clus>
<clus scale="   58.737">  3  5 -1 -1</clus>
<clus scale="  221.942">  2  6  1 -1</clus>
<clus scale="  230.046">  1  3  2 -1</clus>
</clustering>
</event>
<event>
 6    0  0.1080632E+003  0.1230295E+03  0.7546771E-02  0.1238181E+00
         21   -1    0    0  504  501  0.00000000000E+00  0.00000000000E+00  0.34248393973E+03  0.34248393973E+03  0.00000000000E+00 0.  1.
         21   -1    0    0  503  502 -0.00000000000E+00 -0.00000000000E+00 -0.19007157277E+03  0.19007157277E+03  0.00000000000E+00 0.  1.
         21    1    1    2  503  501  0.40623489911E+02  0.29247474927E+02  0.20108956310E+03  0.20722619310E+03  0.00000000000E+00 0.  1.
         21    1    1    2  504  505 -0.42064765983E+02 -0.51763247557E+02  0.78710700475E+01  0.67162728343E+02  0.00000000000E+00 0.  1.
         21    1    1    2  505  506 -0.12138629188E+03 -0.39293348008E+00 -0.90353483564E+00  0.12139029051E+03  0.00000000000E+00 0.  1.
         21    1    1    2  506  502  0.12282756796E+03  0.22908706110E+02 -0.55644731341E+02  0.13677630055E+03  0.00000000000E+00 0.  1.
<scales pt_clust_3="50.05679" pt_clust_4="53.71255" pt_clust_5="123.02947" pt_clust_6="14000.00000"></scales>
<clustering>
<clus scale="   50.057">  1  3  2 -1</clus>
<clus scale="   53.713">  1  4  2 -1</clus>
<clus scale="  123.029">  1  5  2 -1</clus>
<clus scale="   50.057">  1  3  2 -1</clus>
</clustering>
</event>
<event>
 6    0  0.1080632E+003  0.7877270E+02  0.7546771E-02  0.1332571E+00
         21   -1    0    0  503  501  0.00000000000E+00  0.00000000000E+00  0.51272791379E+03  0.51272791379E+03  0.00000000000E+00 0. -1.
         21   -1    0    0  505  502 -0.00000000000E+00 -0.00000000000E+00 -0.36808623210E+02  0.36808623210E+02  0.00000000000E+00 0. -1.
         21    1    1    2  503  506 -0.22638096773E+02  0.27360798234E+02  0.68604678031E+02  0.77250880598E+02  0.00000000000E+00 0. -1.
         21    1    1    2  504  501  0.76599457740E+02  0.32091837007E+02  0.25879241263E+03  0.27179197148E+03  0.00000000000E+00 0. -1.
         21    1    1    2  505  504  0.26483192034E+02 -0.45517668275E+02  0.51008791471E+02  0.73315171642E+02  0.00000000000E+00 0. -1.
         21    1    1    2  506  502 -0.80444553001E+02 -0.13934966965E+02  0.97513408455E+02  0.12717851328E+03  0.00000000000E+00 0. -1.
<scales pt_clust_3="35.51192" pt_clust_4="14000.00000" pt_clust_5="47.71668" pt_clust_6="78.77270"></scales>
<clustering>
<clus scale="   35.512">  1  3  2 -1</clus>
<clus scale="   47.717">  2  5  1 -1</clus>
<clus scale="   78.773">  2  6  1 -1</clus>
<clus scale="   35.512">  1  3  2 -1</clus>
</clustering>
</event>
<event>
 6    0  0.1080632E+003  0.2069005E+03  0.7546771E-02  0.1144044E+00
         21   -1    0    0  505  501  0.00000000000E+00  0.00000000000E+00  0.91375670714E+03  0.91375670714E+03  0.00000000000E+00 0. -1.
         21   -1    0    0  503  502 -0.00000000000E+00 -0.00000000000E+00 -0.13685550362E+03  0.13685550362E+03  0.00000000000E+00 0.  1.
         21    1    1    2  503  506 -0.23756866538E+01  0.45174306447E+02 -0.82990152333E+02  0.94518396274E+02  0.00000000000E+00 0.  1.
         21    1    1    2  504  501 -0.19640689326E+02  0.47077984303E+02  0.32886477743E+02  0.60692781297E+02  0.00000000000E+00 0.  1.
         21    1    1    2  505  502 -0.73002969930E+01 -0.20980179214E+03  0.63071809235E+03  0.66473708963E+03  0.00000000000E+00 0. -1.
         21    1    1    2  506  504  0.29316672973E+02  0.11754950139E+03  0.19628678577E+03  0.23066394356E+03  0.00000000000E+00 0.  1.
<scales pt_clust_3="45.23673" pt_clust_4="49.01114" pt_clust_5="193.99817" pt_clust_6="49.01114"></scales>
<clustering>
<clus scale="   45.237">  2  3  1 -1</clus>
<clus scale="   49.011">  4  6 -1 -1</clus>
<clus scale="  193.998">  1  5  2 -1</clus>
<clus scale="  193.998">  1  3  2 -1</clus>
</clustering>
</event>
<event>
 6    0  0.1080632E+003  0.7982627E+02  0.7546771E-02  0.1329545E+00
         21   -1    0    0  504  501  0.00000000000E+00  0.00000000000E+00  0.38026559456E+03  0.38026559456E+03  0.00000000000E+00 0. -1.
         21   -1    0    0  505  502 -0.00000000000E+00 -0.00000000000E+00 -0.75529412413E+02  0.75529412413E+02  0.00000000000E+00 0. -1.
         21    1    1    2  503  502  0.36215453003E+02 -0.56068136132E+02 -0.75657617880E+01  0.67174665440E+02  0.00000000000E+00 0. -1.
         21    1    1    2  504  503 -0.37428701051E+02  0.94162596139E+02  0.10410079213E+03  0.14527380044E+03  0.00000000000E+00 0. -1.
         21    1    1    2  505  506  0.35517613259E+02  0.12203015822E+02  0.14423785498E+02  0.40230088676E+02  0.00000000000E+00 0.  1.
         21    1    1    2  506  501 -0.34304365211E+02 -0.50297475829E+02  0.19377736631E+03  0.20311645241E+03  0.00000000000E+00 0. -1.
<scales pt_clust_3="79.82627" pt_clust_4="14000.00000" pt_clust_5="37.55548" pt_clust_6="58.66211"></scales>
<clustering>
<clus scale="   37.555">  2  5  1 -1</clus>
<clus scale="   58.662">  1  6  2 -1</clus>
<clus scale="   79.826">  2  3  1 -1</clus>
<clus scale="   58.662">  1  3  2 -1</clus>
</clustering>
</event>
<event>
 6    0  0.1080632E+003  0.1259192E+03  0.7546771E-02  0.1233640E+00
         21   -1    0    0  506  501  0.00000000000E+00  0.00000000000E+00  0.42104856787E+03  0.42104856787E+03  0.00000000000E+00 0. -1.
         21   -1    0    0  504  502 -0.00000000000E+00 -0.00000000000E+00 -0.15192220685E+03  0.15192220685E+03  0.00000000000E+00 0. -1.
         21    1    1    2  503  502  0.15757350792E+02 -0.10290212115E+03 -0.98240274000E+02  0.14313731896E+03  0.00000000000E+00 0. -1.
         21    1    1    2  504  505  0.55185642231E+00 -0.32795514064E+02  0.76514482641E+01  0.33680780109E+02  0.00000000000E+00 0. -1.
         21    1    1    2  505  501 -0.29784853192E+02  0.25594606893E+02  0.18557378632E+03  0.18968355635E+03  0.00000000000E+00 0. -1.
         21    1    1    2  506  503  0.13475645978E+02  0.11010302832E+03  0.17414140044E+03  0.20646911930E+03  0.00000000000E+00 0. -1.
<scales pt_clust_3="125.91919" pt_clust_4="32.80016" pt_clust_5="38.95043" pt_clust_6="14000.00000"></scales>
<clustering>
<clus scale="   32.800">  2  4  1 -1</clus>
<clus scale="   38.950">  1  5  2 -1</clus>
<clus scale="  125.919">  2  3  1 -1</clus>
<clus scale="   38.950">  1  3  2 -1</clus>
</clustering>
</event>
<event>
 6    0  0.1080632E+003  0.8077775E+02  0.7546771E-02  0.1326859E+00
         21   -1    0    0  506  501  0.00000000000E+00  0.00000000000E+00  0.17411311530E+03  0.17411311530E+03  0.00000000000E+00 0.  1.
         21   -1    0    0  503  502 -0.00000000000E+00 -0.00000000000E+00 -0.12395454489E+03  0.12395454489E+03  0.00000000000E+00 0.  1.
         21    1    1    2  503  501 -0.65991251875E+02  0.59946004390E+02 -0.19005498018E+01  0.89173879897E+02  0.00000000000E+00 0.  1.
         21    1    1    2  504  505  0.32182136880E+02  0.42921759893E+02  0.35761381730E+02  0.64473590172E+02  0.00000000000E+00 0.  1.
         21    1    1    2  505  502  0.31194373450E+01 -0.86238286964E+02 -0.25481741585E+02  0.89978287281E+02  0.00000000000E+00 0.  1.
         21    1    1    2  506  504  0.30689677650E+02 -0.16629477318E+02  0.41779480069E+02  0.54441902841E+02  0.00000000000E+00 0.  1.
<scales pt_clust_3="80.77775" pt_clust_4="57.34637" pt_clust_5="14000.00000" pt_clust_6="34.90553"></scales>
<clustering>
<clus scale="   34.906">  1  6  2 -1</clus>
<clus scale="   57.346">  1  4  2 -1</clus>
<clus scale="   80.778">  1  3  2 -1</clus>
<clus scale="   34.906">  1  3  2 -1</clus>
</clustering>
</event>
<event>
 6    0  0.1080632E+003  0.9229917E+02  0.7546771E-02  0.1297378E+00
         21   -1    0    0  506  501  0.00000000000E+00  0.00000000000E+00  0.24480800138E+03  0.24480800138E+03  0.00000000000E+00 0.  1.
         21   -1    0    0  503  502 -0.00000000000E+00 -0.00000000000E+00 -0.20431722589E+03  0.20431722589E+03  0.00000000000E+00 0.  1.
         21    1    1    2  503  505  0.41677117772E+02  0.10676079191E+03 -0.10561205407E+03  0.15584849951E+03  0.00000000000E+00 0.  1.
         21    1    1    2  504  502 -0.59793201143E+02 -0.55283201656E+01 -0.31870085171E+02  0.67981553054E+02  0.00000000000E+00 0.  1.
         21    1    1    2  505  501 -0.31211739350E+01 -0.73455875351E+02  0.41524594217E+02  0.84438138748E+02  0.00000000000E+00 0.  1.
         21    1    1    2  506  504  0.21237257306E+02 -0.27776596392E+02  0.13644832052E+03  0.14085703595E+03  0.00000000000E+00 0.  1.
<scales pt_clust_3="14000.00000" pt_clust_4="57.10888" pt_clust_5="92.29917" pt_clust_6="34.96513"></scales>
<clustering>
<clus scale="   34.965">  1  6  2 -1</clus>
<clus scale="   57.109">  2  4  1 -1</clus>
<clus scale="   92.299">  1  5  2 -1</clus>
<clus scale="   34.965">  1  3  2 -1</clus>
</clustering>
</event>
<event>
 6    0  0.1755842E+003  0.8687383E+02  0.7546771E-02  0.1310604E+00
         21   -1    0    0  503  501  0.00000000000E+00  0.00000000000E+00  0.14180380125E+04  0.14180380125E+04  0.00000000000E+00 0.  1.
         21   -1    0    0  504  502 -0.00000000000E+00 -0.00000000000E+00 -0.14555027420E+03  0.14555027420E+03  0.00000000000E+00 0. -1.
         21    1    1    2  503  505 -0.37684256819E+02 -0.31777974468E+02  0.11259693574E+04  0.11270478857E+04  0.00000000000E+00 0.  1.
         21    1    1    2  504  501 -0.41200112255E+02  0.33091380876E+01  0.51692197553E+02  0.66185216873E+02  0.00000000000E+00 0.  1.
         21    1    1    2  505  506  0.28711482784E+02 -0.63499018803E+02  0.20607688858E+03  0.21754116539E+03  0.00000000000E+00 0.  1.
         21    1    1    2  506  502  0.50172886290E+02  0.91967855183E+02 -0.11125070523E+03  0.15281401873E+03  0.00000000000E+00 0. -1.
<scales pt_clust_3="49.40907" pt_clust_4="41.33279" pt_clust_5="86.87383" pt_clust_6="14000.00000"></scales>
<clustering>
<clus scale="   41.333">  2  4  1 -1</clus>
<clus scale="   49.409">  1  3  2 -1</clus>
<clus scale="   86.874">  1  5  2 -1</clus>
<clus scale="   49.409">  1  3  2 -1</clus>
</clustering>
</event>
<event>
 6    0  0.1080632E+003  0.7287857E+02  0.7546771E-02  0.1350569E+00
         21   -1    0    0  504  501  0.00000000000E+00  0.00000000000E+00  0.65734279485E+03  0.65734279485E+03  0.00000000000E+00 0.  1.
         21   -1    0    0  503  502 -0.00000000000E+00 -0.00000000000E+00 -0.42186396482E+03  0.42186396482E+03  0.00000000000E+00 0.  1.
         21    1    1    2  503  505  0.53766273113E+02 -0.23715825167E+02  0.61018670540E+02  0.84714406344E+02  0.00000000000E+00 0.  1.
         21    1    1    2  504  506  0.34320634139E+02 -0.62235747656E+02  0.47078981321E+03  0.47612418804E+03  0.00000000000E+00 0.  1.
         21    1    1    2  505  501 -0.86457225826E+02  0.51114036559E+02  0.87349722534E+02  0.13310698951E+03  0.00000000000E+00 0. -1.
         21    1    1    2  506  502 -0.16296814254E+01  0.34837536264E+02 -0.38367937625E+03  0.38526117577E+03  0.00000000000E+00 0.  1.
<scales pt_clust_3="54.73831" pt_clust_4="72.87857" pt_clust_5="14000.00000" pt_clust_6="34.87563"></scales>
<clustering>
<clus scale="   34.876">  2  6  1 -1</clus>
<clus scale="   54.738">  2  3  1 -1</clus>
<clus scale="   72.879">  1  4  2 -1</clus>
<clus scale="   72.879">  1  3  2 -1</clus>
</clustering>
</event>
<event>
 6    0  0.1080632E+003  0.1609960E+03  0.7546771E-02  0.1187577E+00
         21   -1    0    0  506  501  0.00000000000E+00  0.00000000000E+00  0.11897598564E+04  0.11897598564E+04  0.00000000000E+00 0.  1.
         21   -1    0    0  504  502 -0.00000000000E+00 -0.00000000000E+00 -0.85625804937E+02  0.85625804937E+02  0.00000000000E+00 0. -1.
         21    1    1    2  503  502  0.63210949325E+02 -0.13307065741E+01 -0.37015329941E+02  0.73263425699E+02  0.00000000000E+00 0. -1.
         21    1    1    2  504  501 -0.20455660615E+03  0.50768211719E+02  0.73913891826E+03  0.76860077865E+03  0.00000000000E+00 0.  1.
         21    1    1    2  505  503  0.11127767079E+03 -0.40526126138E+02  0.23024628752E+03  0.25891782448E+03  0.00000000000E+00 0. -1.
         21    1    1    2  506  505  0.30067986036E+02 -0.89113790077E+01  0.17176417558E+03  0.17460363247E+03  0.00000000000E+00 0. -1.
<scales pt_clust_3="63.76442" pt_clust_4="160.99595" pt_clust_5="14000.00000" pt_clust_6="31.36075"></scales>
<clustering>
<clus scale="   31.361">  1  6  2 -1</clus>
<clus scale="   63.764">  2  3  1 -1</clus>
<clus scale="  160.996">  1  4  2 -1</clus>
<clus scale="   31.361">  1  3  2 -1</clus>
</clustering>
</event>
<event>
 6    0  0.1080632E+003  0.7554866E+02  0.7546771E-02  0.1342180E+00
         21   -1    0    0  503  501  0.00000000000E+00  0.00000000000E+00  0.24844392387E+03  0.24844392387E+03  0.00000000000E+00 0. -1.
         21   -1    0    0  504  502 -0.00000000000E+00 -0.00000000000E+00 -0.38874314316E+03  0.38874314316E+03  0.00000000000E+00 0.  1.
         21    1    1    2  503  505 -0.49772315760E+02  0.23782354253E+02  0.49764289565E+01  0.55386357842E+02  0.00000000000E+00 0.  1.
         21    1    1    2  504  506 -0.69892389063E+02 -0.27654083891E+02 -0.44265421023E+02  0.87230280884E+02  0.00000000000E+00 0.  1.
         21    1    1    2  505  502  0.74839101957E+02  0.12846567283E+02 -0.29018237808E+03  0.29995289301E+03  0.00000000000E+00 0.  1.
         21    1    1    2  506  501  0.44825602866E+02 -0.89748376447E+01  0.18917215086E+03  0.19461753530E+03  0.00000000000E+00 0. -1.
<scales pt_clust_3="32.07531" pt_clust_4="75.54866" pt_clust_5="14000.00000" pt_clust_6="45.71523"></scales>
<clustering>
<clus scale="   45.715">  1  6  2 -1</clus>
<clus scale="   32.075">  1  3  2 -1</clus>
<clus scale="   75.549">  1  4  2 -1</clus>
<clus scale="   45.715">  1  3  2 -1</clus>
</clustering>
</event>
<event>
 6    0  0.1080632E+003  0.7742072E+02  0.7546771E-02  0.1336535E+00
         21   -1    0    0  504  501  0.00000000000E+00  0.00000000000E+00  0.47184895795E+03  0.47184895795E+03  0.00000000000E+00 0.  1.
         21   -1    0    0  503  502 -0.00000000000E+00 -0.00000000000E+00 -0.99581241412E+03  0.99581241412E+03  0.00000000000E+00 0.  1.
         21    1    1    2  503  501 -0.42885315225E+01 -0.70435759581E+02 -0.44052005950E+02  0.83187540886E+02  0.00000000000E+00 0.  1.
         21    1    1    2  504  505  0.32640008574E+01  0.77219668835E+02  0.43671804550E+03  0.44350443315E+03  0.00000000000E+00 0.  1.
         21    1    1    2  505  506  0.50915107147E+02 -0.94325330683E+02 -0.37368707416E+03  0.38875653762E+03  0.00000000000E+00 0.  1.
         21    1    1    2  506  502 -0.49890576482E+02  0.87541421429E+02 -0.54294242156E+03  0.55221286043E+03  0.00000000000E+00 0.  1.
<scales pt_clust_3="70.56619" pt_clust_4="77.42072" pt_clust_5="14000.00000" pt_clust_6="69.84380"></scales>
<clustering>
<clus scale="   70.566">  2  3  1 -1</clus>
<clus scale="   69.844">  2  6  1 -1</clus>
<clus scale="   77.421">  1  4  2 -1</clus>
<clus scale="   77.421">  1  3  2 -1</clus>
</clustering>
</event>
<event>
 6    0  0.1080632E+003  0.8139110E+02  0.7546771E-02  0.1325149E+00
         21   -1    0    0  503  501  0.00000000000E+00  0.00000000000E+00  0.25212490710E+03  0.25212490710E+03  0.00000000000E+00 0. -1.
         21   -1    0    0  504  502 -0.00000000000E+00 -0.00000000000E+00 -0.38715216703E+03  0.38715216703E+03  0.00000000000E+00 0. -1.
         21    1    1    2  503  502 -0.14751429563E+02  0.68640815766E+02 -0.35789772580E+02  0.78804023277E+02  0.00000000000E+00 0. -1.
         21    1    1    2  504  506  0.31893333460E+02 -0.34619139915E+02 -0.18405107904E+03  0.18997491746E+03  0.00000000000E+00 0. -1.
         21    1    1    2  505  501 -0.70253201042E+02  0.77930748340E+01  0.21363172995E+03  0.22502168854E+03  0.00000000000E+00 0. -1.
         21    1    1    2  506  505  0.53111297144E+02 -0.41814750685E+02 -0.12881813826E+03  0.14547644484E+03  0.00000000000E+00 0. -1.
<scales pt_clust_3="70.20802" pt_clust_4="33.09142" pt_clust_5="71.07721" pt_clust_6="33.09142"></scales>
<clustering>
<clus scale="   33.091">  4  6 -1 -1</clus>
<clus scale="   70.208">  2  3  1 -1</clus>
<clus scale="   71.077">  1  5  2 -1</clus>
<clus scale="   71.077">  1  3  2 -1</clus>
</clustering>
</event>
<event>
 6    0  0.1080632E+003  0.2142099E+03  0.7546771E-02  0.1138275E+00
         21   -1    0    0  504  501  0.00000000000E+00  0.00000000000E+00  0.54443499299E+03  0.54443499299E+03  0.00000000000E+00 0. -1.
         21   -1    0    0  505  502 -0.00000000000E+00 -0.00000000000E+00 -0.34436147422E+03  0.34436147422E+03  0.00000000000E+00 0.  1.
         21    1    1    2  503  502 -0.13351720881E+03 -0.44864966499E+01 -0.19016553054E+03  0.23240030703E+03  0.00000000000E+00 0.  1.
         21    1    1    2  504  503 -0.12501275893E+03  0.35535046548E+02 -0.62162435363E+01  0.13011368534E+03  0.00000000000E+00 0.  1.
         21    1    1    2  505  506  0.81232125453E+01  0.53986785235E+02  0.63116187608E+01  0.54958130367E+02  0.00000000000E+00 0.  1.
         21    1    1    2  506  501  0.25040675520E+03 -0.85035335132E+02  0.39014367408E+03  0.47132434448E+03  0.00000000000E+00 0. -1.
<scales pt_clust_3="131.88692" pt_clust_4="14000.00000" pt_clust_5="54.59450" pt_clust_6="214.20989"></scales>
<clustering>
<clus scale="   54.595">  2  5  1 -1</clus>
<clus scale="  131.887">  2  3  1 -1</clus>
<clus scale="  214.210">  1  6  2 -1</clus>
<clus scale="  214.210">  1  3  2 -1</clus>
</clustering>
</event>
<event>
 6    0  0.1080632E+003  0.1707425E+03  0.7546771E-02  0.1177076E+00
         21   -1    0    0  505  501  0.00000000000E+00  0.00000000000E+00  0.64009768855E+02  0.64009768855E+02  0.00000000000E+00 0. -1.
         21   -1    0    0  506  502 -0.00000000000E+00 -0.00000000000E+00 -0.10740474663E+04  0.10740474663E+04  0.00000000000E+00 0.  1.
         21    1    1    2  503  501 -0.11891117943E+02  0.60411122336E+02 -0.32818139658E+03  0.33390707008E+03  0.00000000000E+00 0.  1.
         21    1    1    2  504  502  0.31194853291E+02  0.16461706939E+02 -0.17977884875E+03  0.18320628025E+03  0.00000000000E+00 0.  1.
         21    1    1    2  505  504  0.56496880636E+02 -0.15294171151E+03 -0.73013055401E+02  0.17864481772E+03  0.00000000000E+00 0. -1.
         21    1    1    2  506  503 -0.75800615983E+02  0.76068882230E+02 -0.42906439666E+03  0.44229906705E+03  0.00000000000E+00 0.  1.
<scales pt_clust_3="42.07248" pt_clust_4="35.27190" pt_clust_5="162.46489" pt_clust_6="42.07248"></scales>
<clustering>
<clus scale="   35.272">  2  4  1 -1</clus>
<clus scale="   42.072">  3  6 -1 -1</clus>
<clus scale="  162.465">  1  5  2 -1</clus>
<clus scale="  162.465">  1  3  2 -1</clus>
</clustering>
</event>
<event>
 6    0  0.1080632E+003  0.8084049E+02  0.7546771E-02  0.1326683E+00
         21   -1    0    0  506  501  0.00000000000E+00  0.00000000000E+00  0.78936655927E+03  0.78936655927E+03  0.00000000000E+00 0. -1.
         21   -1    0    0  503  502 -0.00000000000E+00 -0.00000000000E+00 -0.22199884469E+03  0.22199884469E+03  0.00000000000E+00 0. -1.
         21    1    1    2  503  501  0.32373732131E+02  0.23098977092E+02  0.13112532307E+02  0.41875527200E+02  0.00000000000E+00 0.  1.
         21    1    1    2  504  502 -0.52460057328E+02  0.75534355599E+02 -0.15667894234E+03  0.18167495002E+03  0.00000000000E+00 0. -1.
         21    1    1    2  505  504 -0.32051108907E+02 -0.69504063212E+02  0.22008722751E+01  0.76569786626E+02  0.00000000000E+00 0.  1.
         21    1    1    2  506  505  0.52137434104E+02 -0.29129269478E+02  0.70873325233E+03  0.71124514012E+03  0.00000000000E+00 0. -1.
<scales pt_clust_3="39.76960" pt_clust_4="14000.00000" pt_clust_5="80.84049" pt_clust_6="59.82612"></scales>
<clustering>
<clus scale="   39.770">  2  3  1 -1</clus>
<clus scale="   59.826">  1  6  2 -1</clus>
<clus scale="   80.840">  1  5  2 -1</clus>
<clus scale="   59.826">  1  3  2 -1</clus>
</clustering>
</event>
<event>
 6    0  0.1080632E+003  0.9997193E+02  0.7546771E-02  0.1280355E+00
         21   -1    0    0  505  501  0.00000000000E+00  0.00000000000E+00  0.84652749524E+02  0.84652749524E+02  0.00000000000E+00 0.  1.
         21   -1    0    0  504  502 -0.00000000000E+00 -0.00000000000E+00 -0.68698418757E+03  0.68698418757E+03  0.00000000000E+00 0.  1.
         21    1    1    2  503  502  0.42821780581E+02 -0.29968641361E+02 -0.18967419041E+03  0.19674380007E+03  0.00000000000E+00 0.  1.
         21    1    1    2  504  501 -0.14438334746E+03  0.54169187642E+01 -0.38608621775E+03  0.41223592950E+03  0.00000000000E+00 0.  1.
         21    1    1    2  505  506  0.29177406069E+02  0.12110780389E+02  0.48340577718E+02  0.57747757365E+02  0.00000000000E+00 0.  1.
         21    1    1    2  506  503  0.72384160813E+02  0.12440942208E+02 -0.74911607599E+02  0.10490945016E+03  0.00000000000E+00 0.  1.
<scales pt_clust_3="54.24553" pt_clust_4="99.97193" pt_clust_5="31.59101" pt_clust_6="14000.00000"></scales>
<clustering>
<clus scale="   31.591">  1  5  2 -1</clus>
<clus scale="   54.246">  2  3  1 -1</clus>
<clus scale="   99.972">  2  4  1 -1</clus>
<clus scale="   31.591">  1  3  2 -1</clus>
</clustering>
</event>
<event>
 6    0  0.1080632E+003  0.1243993E+03  0.7546771E-02  0.1236011E+00
         21   -1    0    0  504  501  0.00000000000E+00  0.00000000000E+00  0.21964377894E+04  0.21964377894E+04  0.00000000000E+00 0.  1.
         21   -1    0    0  506  502 -0.00000000000E+00 -0.00000000000E+00 -0.21605771945E+02  0.21605771945E+02  0.00000000000E+00 0.  1.
         21    1    1    2  503  505 -0.66225434799E+02  0.18762467443E+02  0.54916276761E+03  0.55345964959E+03  0.00000000000E+00 0.  1.
         21    1    1    2  504  502  0.66593021987E+02 -0.74338386493E+02  0.84151415630E+03  0.84741188423E+03  0.00000000000E+00 0.  1.
         21    1    1    2  505  501 -0.36427813502E+02  0.57319736404E+02  0.77750093517E+03  0.78046155700E+03  0.00000000000E+00 0.  1.
         21    1    1    2  506  503  0.36060226314E+02 -0.17438173531E+01  0.66541583645E+01  0.36710470500E+02  0.00000000000E+00 0.  1.
<scales pt_clust_3="51.89789" pt_clust_4="111.76838" pt_clust_5="51.89789" pt_clust_6="36.10237"></scales>
<clustering>
<clus scale="   36.102">  2  6  1 -1</clus>
<clus scale="   51.898">  3  5 -1 -1</clus>
<clus scale="  111.768">  1  4  2 -1</clus>
<clus scale="  111.768">  1  3  2 -1</clus>
</clustering>
</event>
<event>
 6    0  0.1080632E+003  0.8711988E+02  0.7546771E-02  0.1309980E+00
         21   -1    0    0  503  501  0.00000000000E+00  0.00000000000E+00  0.21048314595E+03  0.21048314595E+03  0.00000000000E+00 0. -1.
         21   -1    0    0  504  502 -0.00000000000E+00 -0.00000000000E+00 -0.27269068813E+03  0.27269068813E+03  0.00000000000E+00 0.  1.
         21    1    1    2  503  502 -0.32584720303E+02  0.89366044333E+01 -0.14404020182E+02  0.36730133316E+02  0.00000000000E+00 0. -1.
         21    1    1    2  504  506  0.38158446937E+02  0.26727570721E+02 -0.67891150426E+02  0.82338559712E+02  0.00000000000E+00 0. -1.
         21    1    1    2  505  501 -0.82557030409E+02  0.26622050273E+02  0.16627171012E+03  0.18753847183E+03  0.00000000000E+00 0. -1.
         21    1    1    2  506  505  0.76983303775E+02 -0.62286225427E+02 -0.14618408169E+03  0.17656666921E+03  0.00000000000E+00 0.  1.
<scales pt_clust_3="33.78797" pt_clust_4="40.80733" pt_clust_5="87.11988" pt_clust_6="14000.00000"></scales>
<clustering>
<clus scale="   33.788">  2  3  1 -1</clus>
<clus scale="   40.807">  2  4  1 -1</clus>
<clus scale="   87.120">  1  5  2 -1</clus>
<clus scale="   87.120">  1  3  2 -1</clus>
</clustering>
</event>
<event>
 6    0  0.1080632E+003  0.8086894E+02  0.7546771E-02  0.1326603E+00
         21   -1    0    0  505  501  0.00000000000E+00  0.00000000000E+00  0.43344080012E+03  0.43344080012E+03  0.00000000000E+00 0.  1.
         21   -1    0    0  504  502 -0.00000000000E+00 -0.00000000000E+00 -0.12331424058E+04  0.12331424058E+04  0.00000000000E+00 0. -1.
         21    1    1    2  503  502  0.74595021088E+02 -0.25068764170E+02 -0.10689978435E+04  0.10718905026E+04  0.00000000000E+00 0. -1.
         21    1    1    2  504  501  0.18494580993E+02 -0.31158550154E+02 -0.25492363309E+02  0.44303107802E+02  0.00000000000E+00 0.  1.
         21    1    1    2  505  506  0.31794342724E+02 -0.15311265017E+01  0.38470595910E+03  0.38602059472E+03  0.00000000000E+00 0.  1.
         21    1    1    2  506  503 -0.12488394481E+03  0.57758440826E+02 -0.89917357921E+02  0.16436900076E+03  0.00000000000E+00 0.  1.
<scales pt_clust_3="14000.00000" pt_clust_4="40.00521" pt_clust_5="31.83119" pt_clust_6="80.86894"></scales>
<clustering>
<clus scale="   31.831">  1  5  2 -1</clus>
<clus scale="   40.005">  1  4  2 -1</clus>
<clus scale="   80.869">  1  6  2 -1</clus>
<clus scale="   31.831">  1  3  2 -1</clus>
</clustering>
</event>
<event>
 6    0  0.1080632E+003  0.8849163E+02  0.7546771E-02  0.1306546E+00
         21   -1    0    0  503  501  0.00000000000E+00  0.00000000000E+00  0.14339908863E+03  0.14339908863E+03  0.00000000000E+00 0. -1.
         21   -1    0    0  506  502 -0.00000000000E+00 -0.00000000000E+00 -0.88300995846E+03  0.88300995846E+03  0.00000000000E+00 0. -1.
         21    1    1    2  503  502  0.12297295951E+02  0.29662842138E+02 -0.24755154656E+02  0.40545349591E+02  0.00000000000E+00 0.  1.
         21    1    1    2  504  505  0.60857264106E+02  0.26342452642E+02 -0.33203296647E+03  0.33859034574E+03  0.00000000000E+00 0. -1.
         21    1    1    2  505  501 -0.10277161191E+03 -0.75556363541E+01  0.11026766314E+03  0.15092398547E+03  0.00000000000E+00 0. -1.
         21    1    1    2  506  504  0.29617051850E+02 -0.48449658427E+02 -0.49309041185E+03  0.49634936629E+03  0.00000000000E+00 0.  1.
<scales pt_clust_3="32.11087" pt_clust_4="14000.00000" pt_clust_5="88.49163" pt_clust_6="56.55867"></scales>
<clustering>
<clus scale="   32.111">  1  3  2 -1</clus>
<clus scale="   56.559">  2  6  1 -1</clus>
<clus scale="   88.492">  1  5  2 -1</clus>
<clus scale="   32.111">  1  3  2 -1</clus>
</clustering>
</event>
<event>
 6    0  0.1080632E+003  0.9927024E+02  0.7546771E-02  0.1281838E+00
         21   -1    0    0  503  501  0.00000000000E+00  0.00000000000E+00  0.45211960651E+03  0.45211960651E+03  0.00000000000E+00 0.  1.
         21   -1    0    0  505  502 -0.00000000000E+00 -0.00000000000E+00 -0.38753049885E+03  0.38753049885E+03  0.00000000000E+00 0.  1.
         21    1    1    2  503  502  0.69090236087E+01  0.37693122900E+02  0.48675720055E+02  0.61950236836E+02  0.00000000000E+00 0.  1.
         21    1    1    2  504  506 -0.13466063879E+03 -0.63560774257E+01  0.20856934557E+03  0.24834463810E+03  0.00000000000E+00 0.  1.
         21    1    1    2  505  504  0.97417347400E+02 -0.13036057372E+02 -0.35233834099E+03  0.36579008311E+03  0.00000000000E+00 0.  1.
         21    1    1    2  506  501  0.30334267784E+02 -0.18300988103E+02  0.15968238303E+03  0.16356514732E+03  0.00000000000E+00 0.  1.
<scales pt_clust_3="36.48460" pt_clust_4="99.27024" pt_clust_5="14000.00000" pt_clust_6="35.42731"></scales>
<clustering>
<clus scale="   35.427">  1  6  2 -1</clus>
<clus scale="   36.485">  1  3  2 -1</clus>
<clus scale="   99.270">  1  4  2 -1</clus>
<clus scale="   35.427">  1  3  2 -1</clus>
</clustering>
</event>
<event>
 6    0  0.1080632E+003  0.6478475E+02  0.7546771E-02  0.1378783E+00
         21   -1    0    0  506  501  0.00000000000E+00  0.00000000000E+00  0.13096971154E+03  0.13096971154E+03  0.00000000000E+00 0.  1.
         21   -1    0    0  503  502 -0.00000000000E+00 -0.00000000000E+00 -0.57738692467E+03  0.57738692467E+03  0.00000000000E+00 0.  1.
         21    1    1    2  503  504  0.25340002429E+02  0.59346975638E+02 -0.42667943216E+03  0.43153159452E+03  0.00000000000E+00 0.  1.
         21    1    1    2  504  505  0.42362331738E+02 -0.89224471241E+02 -0.39573675546E+02  0.10640323874E+03  0.00000000000E+00 0.  1.
         21    1    1    2  505  501 -0.22000894041E+02  0.41653709242E+02  0.80676533160E+02  0.93422555279E+02  0.00000000000E+00 0.  1.
         21    1    1    2  506  502 -0.45701440126E+02 -0.11776213640E+02 -0.60840638589E+02  0.76999247666E+02  0.00000000000E+00 0.  1.
<scales pt_clust_3="14000.00000" pt_clust_4="64.78475" pt_clust_5="47.10701" pt_clust_6="49.91840"></scales>
<clustering>
<clus scale="   47.107">  1  5  2 -1</clus>
<clus scale="   49.918">  1  6  2 -1</clus>
<clus scale="   64.785">  1  4  2 -1</clus>
<clus scale="   47.107">  1  3  2 -1</clus>
</clustering>
</event>
<event>
 6    0  0.1080632E+003  0.1042200E+03  0.7546771E-02  0.1271664E+00
         21   -1    0    0  503  501  0.00000000000E+00  0.00000000000E+00  0.35843418661E+04  0.35843418661E+04  0.00000000000E+00 0.  1.
         21   -1    0    0  504  502 -0.00000000000E+00 -0.00000000000E+00 -0.63642667003E+02  0.63642667003E+02  0.00000000000E+00 0.  1.
         21    1    1    2  503  505  0.12664923347E+03  0.39801051706E+02  0.33279560752E+04  0.33306029169E+04  0.00000000000E+00 0.  1.
         21    1    1    2  504  506 -0.41077039200E+02  0.88263675248E+01  0.60841044676E+02  0.73938221715E+02  0.00000000000E+00 0. -1.
         21    1    1    2  505  502 -0.64670854474E+02 -0.15074845874E+02 -0.32800236575E+02  0.74063661237E+02  0.00000000000E+00 0.  1.
         21    1    1    2  506  501 -0.20901339799E+02 -0.33552573356E+02  0.16470231581E+03  0.16937973320E+03  0.00000000000E+00 0. -1.
<scales pt_clust_3="104.21997" pt_clust_4="42.28496" pt_clust_5="14000.00000" pt_clust_6="39.53026"></scales>
<clustering>
<clus scale="   39.530">  1  6  2 -1</clus>
<clus scale="   42.285">  2  4  1 -1</clus>
<clus scale="  104.220">  1  3  2 -1</clus>
<clus scale="   39.530">  1  3  2 -1</clus>
</clustering>
</event>
<event>
 6    0  0.1080632E+003  0.3065064E+03  0.7546771E-02  0.1082033E+00
         21   -1    0    0  504  501  0.00000000000E+00  0.00000000000E+00  0.18861650815E+03  0.18861650815E+03  0.00000000000E+00 0. -1.
         21   -1    0    0  503  502 -0.00000000000E+00 -0.00000000000E+00 -0.81530218258E+03  0.81530218258E+03  0.00000000000E+00 0.  1.
         21    1    1    2  503  501 -0.99997512926E+02  0.95132338973E+01  0.10880469060E+02  0.10103657168E+03  0.00000000000E+00 0. -1.
         21    1    1    2  504  505  0.11086656308E+03 -0.26857254863E+03 -0.21896752905E+03  0.36382604012E+03  0.00000000000E+00 0. -1.
         21    1    1    2  505  506  0.37362549889E+02 -0.21633198428E+02 -0.16300997506E+02  0.46148433648E+02  0.00000000000E+00 0.  1.
         21    1    1    2  506  502 -0.48231600042E+02  0.28069251316E+03 -0.40229761693E+03  0.49290764528E+03  0.00000000000E+00 0.  1.
<scales pt_clust_3="100.44901" pt_clust_4="31.16508" pt_clust_5="31.16508" pt_clust_6="295.65118"></scales>
<clustering>
<clus scale="   31.165">  4  5 -1 -1</clus>
<clus scale="  100.449">  1  3  2 -1</clus>
<clus scale="  295.651">  2  6  1 -1</clus>
<clus scale="  100.449">  1  3  2 -1</clus>
</clustering>
</event>
<event>
 6    0  0.1080632E+003  0.1318631E+03  0.7546771E-02  0.1224717E+00
         21   -1    0    0  503  501  0.00000000000E+00  0.00000000000E+00  0.67417120991E+03  0.67417120991E+03  0.00000000000E+00 0. -1.
         21   -1    0    0  501  502 -0.00000000000E+00 -0.00000000000E+00 -0.22633728936E+03  0.22633728936E+03  0.00000000000E+00 0. -1.
         21    1    1    2  503  506  0.14528645149E+02  0.37796695651E+02  0.14373553290E+03  0.14933042272E+03  0.00000000000E+00 0. -1.
         21    1    1    2  504  505 -0.27762557232E+01 -0.13174894291E+03  0.14645576729E+03  0.19701467795E+03  0.00000000000E+00 0. -1.
         21    1    1    2  505  502 -0.10672849131E+03  0.54846255416E+02 -0.17153120904E+03  0.20933714020E+03  0.00000000000E+00 0. -1.
         21    1    1    2  506  504  0.94976101884E+02  0.39105991839E+02  0.32917382939E+03  0.34482625840E+03  0.00000000000E+00 0. -1.
<scales pt_clust_3="32.27495" pt_clust_4="121.43163" pt_clust_5="119.99618" pt_clust_6="32.27495"></scales>
<clustering>
<clus scale="   32.275">  3  6 -1 -1</clus>
<clus scale="  119.996">  2  5  1 -1</clus>
<clus scale="  121.432">  2  4  1 -1</clus>
<clus scale="  131.863">  1  3  2 -1</clus>
</clustering>
</event>
<event>
 6    0  0.1080632E+003  0.1018766E+03  0.7546771E-02  0.1276398E+00
         21   -1    0    0  505  501  0.00000000000E+00  0.00000000000E+00  0.26660402330E+03  0.26660402330E+03  0.00000000000E+00 0.  1.
         21   -1    0    0  506  502 -0.00000000000E+00 -0.00000000000E+00 -0.23080639042E+03  0.23080639042E+03  0.00000000000E+00 0.  1.
         21    1    1    2  503  501  0.64270519641E+02  0.86942188043E+02  0.21292740979E+03  0.23880478554E+03  0.00000000000E+00 0.  1.
         21    1    1    2  504  503 -0.32904733199E+02  0.29565133457E+02 -0.31908453795E+02  0.54543267291E+02  0.00000000000E+00 0. -1.
         21    1    1    2  505  502 -0.58229656393E+01 -0.80978675268E+02 -0.40841525799E+02  0.90881697863E+02  0.00000000000E+00 0.  1.
         21    1    1    2  506  504 -0.25542820803E+02 -0.35528646233E+02 -0.10437979731E+03  0.11318066303E+03  0.00000000000E+00 0.  1.
<scales pt_clust_3="14000.00000" pt_clust_4="45.25873" pt_clust_5="101.87663" pt_clust_6="43.75752"></scales>
<clustering>
<clus scale="   43.758">  2  6  1 -1</clus>
<clus scale="   45.259">  2  4  1 -1</clus>
<clus scale="  101.877">  2  5  1 -1</clus>
<clus scale="  101.877">  1  3  2 -1</clus>
</clustering>
</event>
<event>
 6    0  0.1080632E+003  0.2396340E+03  0.7546771E-02  0.1120037E+00
         21   -1    0    0  504  501  0.00000000000E+00  0.00000000000E+00  0.21433207665E+04  0.21433207665E+04  0.00000000000E+00 0. -1.
         21   -1    0    0  505  502 -0.00000000000E+00 -0.00000000000E+00 -0.80331139855E+03  0.80331139855E+03  0.00000000000E+00 0.  1.
         21    1    1    2  503  506  0.11352555215E+03 -0.16803719348E+03  0.22061807815E+03  0.29966128510E+03  0.00000000000E+00 0.  1.
         21    1    1    2  504  502 -0.15670515650E+03  0.14451463530E+03 -0.53827375333E+03  0.57894699189E+03  0.00000000000E+00 0.  1.
         21    1    1    2  505  503  0.41052262003E+02  0.75826831156E+02 -0.19573438345E+03  0.21388535575E+03  0.00000000000E+00 0.  1.
         21    1    1    2  506  501  0.21273423490E+01 -0.52304272979E+02  0.18533994266E+04  0.18541385323E+04  0.00000000000E+00 0. -1.
<scales pt_clust_3="14000.00000" pt_clust_4="239.63402" pt_clust_5="84.82066" pt_clust_6="52.34752"></scales>
<clustering>
<clus scale="   52.348">  1  6  2 -1</clus>
<clus scale="   84.821">  2  5  1 -1</clus>
<clus scale="  239.634">  2  4  1 -1</clus>
<clus scale="   52.348">  1  3  2 -1</clus>
</clustering>
</event>
<event>
 6    0  0.1080632E+003  0.2115781E+03  0.7546771E-02  0.1140322E+00
         21   -1    0    0  506  501  0.00000000000E+00  0.00000000000E+00  0.21597604475E+03  0.21597604475E+03  0.00000000000E+00 0. -1.
         21   -1    0    0  504  502 -0.00000000000E+00 -0.00000000000E+00 -0.66770151525E+03  0.66770151525E+03  0.00000000000E+00 0. -1.
         21    1    1    2  503  502  0.78700679331E+02  0.15511574666E+03 -0.23414612893E+03  0.29168322111E+03  0.00000000000E+00 0. -1.
         21    1    1    2  504  505 -0.13074831821E+03 -0.26218481241E+03 -0.28271886497E+03  0.40714365423E+03  0.00000000000E+00 0. -1.
         21    1    1    2  505  501 -0.29817761690E+02  0.17061455648E+02 -0.16720575678E+02  0.38206934345E+02  0.00000000000E+00 0. -1.
         21    1    1    2  506  503  0.81865400570E+02  0.90007610102E+02  0.81860099059E+02  0.14664375031E+03  0.00000000000E+00 0. -1.
<scales pt_clust_3="211.57815" pt_clust_4="14000.00000" pt_clust_5="34.35393" pt_clust_6="119.00010"></scales>
<clustering>
<clus scale="   34.354">  1  5  2 -1</clus>
<clus scale="  119.000">  1  6  2 -1</clus>
<clus scale="  211.578">  2  3  1 -1</clus>
<clus scale="   34.354">  1  3  2 -1</clus>
</clustering>
</event>
<event>
 6    0  0.1080632E+003  0.1283885E+03  0.7546771E-02  0.1229867E+00
         21   -1    0    0  505  501  0.00000000000E+00  0.00000000000E+00  0.31676943453E+03  0.31676943453E+03  0.00000000000E+00 0.  1.
         21   -1    0    0  503  502 -0.00000000000E+00 -0.00000000000E+00 -0.26347305238E+03  0.26347305238E+03  0.00000000000E+00 0. -1.
         21    1    1    2  503  506 -0.32542733776E+02  0.19636750667E+02 -0.53298193122E+02  0.65462423485E+02  0.00000000000E+00 0.  1.
         21    1    1    2  504  502  0.66002354255E+02  0.80375347782E+01  0.44456531112E+02  0.79983097533E+02  0.00000000000E+00 0.  1.
         21    1    1    2  505  504  0.64383714323E+02  0.11590145403E+02  0.22858954493E+03  0.23776621752E+03  0.00000000000E+00 0.  1.
         21    1    1    2  506  501 -0.97843334802E+02 -0.39264430848E+02 -0.16645150077E+03  0.19703074837E+03  0.00000000000E+00 0. -1.
<scales pt_clust_3="34.10821" pt_clust_4="115.13752" pt_clust_5="65.41861" pt_clust_6="34.10821"></scales>
<clustering>
<clus scale="   34.108">  3  6 -1 -1</clus>
<clus scale="   65.419">  1  5  2 -1</clus>
<clus scale="  115.138">  1  4  2 -1</clus>
<clus scale="   65.419">  1  3  2 -1</clus>
</clustering>
</event>
<event>
 6    0  0.1080632E+003  0.9648109E+02  0.7546771E-02  0.1287875E+00
         21   -1    0    0  503  501  0.00000000000E+00  0.00000000000E+00  0.37346029763E+03  0.37346029763E+03  0.00000000000E+00 0.  1.
         21   -1    0    0  504  502 -0.00000000000E+00 -0.00000000000E+00 -0.39565277215E+03  0.39565277215E+03  0.00000000000E+00 0. -1.
         21    1    1    2  503  506 -0.44870551349E+02  0.21420298363E+02  0.27412077432E+03  0.27859360092E+03  0.00000000000E+00 0.  1.
         21    1    1    2  504  505  0.75255889933E+02  0.69600258101E+02 -0.33666232146E+03  0.35192209875E+03  0.00000000000E+00 0. -1.
         21    1    1    2  505  501 -0.44749687405E+02 -0.47398153213E+01  0.16577603538E+02  0.47956410533E+02  0.00000000000E+00 0.  1.
         21    1    1    2  506  502  0.14364348821E+02 -0.86280741143E+02  0.23771469088E+02  0.90640959570E+02  0.00000000000E+00 0.  1.
<scales pt_clust_3="82.99997" pt_clust_4="14000.00000" pt_clust_5="45.00000" pt_clust_6="96.48109"></scales>
<clustering>
<clus scale="   45.000">  1  5  2 -1</clus>
<clus scale="   83.000">  1  3  2 -1</clus>
<clus scale="   96.481">  1  6  2 -1</clus>
<clus scale="   45.000">  1  3  2 -1</clus>
</clustering>
</event>
<event>
 6    0  0.1080632E+003  0.7143745E+02  0.7546771E-02  0.1355272E+00
         21   -1    0    0  504  501  0.00000000000E+00  0.00000000000E+00  0.28382560814E+03  0.28382560814E+03  0.00000000000E+00 0.  1.
         21   -1    0    0  505  502 -0.00000000000E+00 -0.00000000000E+00 -0.12282385246E+03  0.12282385246E+03  0.00000000000E+00 0.  1.
         21    1    1    2  503  501 -0.61985298870E+02  0.32345486305E+02  0.84567758412E+02  0.10972745109E+03  0.00000000000E+00 0. -1.
         21    1    1    2  504  502  0.53712983027E+02 -0.52386819390E+02  0.74774908893E+02  0.10592804346E+03  0.00000000000E+00 0.  1.
         21    1    1    2  505  506  0.26489940092E+02 -0.46240993029E+02 -0.72433295730E+02  0.89925128261E+02  0.00000000000E+00 0.  1.
         21    1    1    2  506  503 -0.18217624249E+02  0.66282326113E+02  0.74092384109E+02  0.10106883779E+03  0.00000000000E+00 0.  1.
<scales pt_clust_3="14000.00000" pt_clust_4="71.43745" pt_clust_5="53.29115" pt_clust_6="52.20279"></scales>
<clustering>
<clus scale="   53.291">  2  5  1 -1</clus>
<clus scale="   52.203">  2  6  1 -1</clus>
<clus scale="   71.437">  2  4  1 -1</clus>
<clus scale="   71.437">  1  3  2 -1</clus>
</clustering>
</event>
<event>
 6    0  0.1080632E+003  0.3105743E+03  0.7546771E-02  0.1080071E+00
         21   -1    0    0  504  501  0.00000000000E+00  0.00000000000E+00  0.87427252529E+03  0.87427252529E+03  0.00000000000E+00 0. -1.
         21   -1    0    0  503  502 -0.00000000000E+00 -0.00000000000E+00 -0.18629328514E+03  0.18629328514E+03  0.00000000000E+00 0. -1.
         21    1    1    2  503  506 -0.47011713498E+02 -0.29166190423E+01 -0.44185515478E+02  0.64583029124E+02  0.00000000000E+00 0.  1.
         21    1    1    2  504  502  0.33530256369E+03  0.36973889115E+02  0.21589782050E+03  0.40050811052E+03  0.00000000000E+00 0. -1.
         21    1    1    2  505  501 -0.20723179873E+03 -0.31904175144E+02  0.42135409823E+03  0.47064017136E+03  0.00000000000E+00 0. -1.
         21    1    1    2  506  505 -0.81059051456E+02 -0.21530949290E+01  0.94912836899E+02  0.12483449943E+03  0.00000000000E+00 0. -1.
<scales pt_clust_3="47.10210" pt_clust_4="304.41646" pt_clust_5="38.26967" pt_clust_6="38.26967"></scales>
<clustering>
<clus scale="   38.270">  5  6 -1 -1</clus>
<clus scale="   47.102">  2  3  1 -1</clus>
<clus scale="  304.416">  2  4  1 -1</clus>
<clus scale="  310.574">  1  3  2 -1</clus>
</clustering>
</event>
<event>
 6    0  0.1080632E+003  0.1508038E+03  0.7546771E-02  0.1199489E+00
         21   -1    0    0  505  501  0.00000000000E+00  0.00000000000E+00  0.10212209808E+03  0.10212209808E+03  0.00000000000E+00 0. -1.
         21   -1    0    0  503  502 -0.00000000000E+00 -0.00000000000E+00 -0.71236816631E+03  0.71236816631E+03  0.00000000000E+00 0. -1.
         21    1    1    2  503  506  0.10638697255E+03 -0.13620781733E+03 -0.16486835137E+03  0.23885629720E+03  0.00000000000E+00 0. -1.
         21    1    1    2  504  502  0.42539266690E+01  0.81889308609E+02 -0.35099584433E+03  0.36044699679E+03  0.00000000000E+00 0. -1.
         21    1    1    2  505  504 -0.14183406059E+03  0.60707739751E+02 -0.98557562482E+02  0.18307354678E+03  0.00000000000E+00 0. -1.
         21    1    1    2  506  501  0.31193161374E+02 -0.63892310267E+01  0.41756899562E+01  0.32113423615E+02  0.00000000000E+00 0. -1.
<scales pt_clust_3="150.80376" pt_clust_4="81.75093" pt_clust_5="14000.00000" pt_clust_6="31.84079"></scales>
<clustering>
<clus scale="   31.841">  1  6  2 -1</clus>
<clus scale="   81.751">  2  4  1 -1</clus>
<clus scale="  150.804">  2  3  1 -1</clus>
<clus scale="   31.841">  1  3  2 -1</clus>
</clustering>
</event>
<event>
 6    0  0.1080632E+003  0.8881221E+02  0.7546771E-02  0.1305754E+00
         21   -1    0    0  505  501  0.00000000000E+00  0.00000000000E+00  0.17466205576E+03  0.17466205576E+03  0.00000000000E+00 0. -1.
         21   -1    0    0  506  502 -0.00000000000E+00 -0.00000000000E+00 -0.60996857504E+03  0.60996857504E+03  0.00000000000E+00 0.  1.
         21    1    1    2  503  501 -0.40634357768E+02 -0.53784661442E+02 -0.37155722223E+02  0.76970699176E+02  0.00000000000E+00 0.  1.
         21    1    1    2  504  503  0.32355657144E+02  0.92920653278E+02 -0.14627490134E+02  0.99474116344E+02  0.00000000000E+00 0.  1.
         21    1    1    2  505  502 -0.39156955473E+02 -0.11296267573E+03  0.75136621740E+02  0.14120674628E+03  0.00000000000E+00 0. -1.
         21    1    1    2  506  504  0.47435656098E+02  0.73826683890E+02 -0.45865992866E+03  0.46697906900E+03  0.00000000000E+00 0.  1.
<scales pt_clust_3="67.40876" pt_clust_4="81.00435" pt_clust_5="14000.00000" pt_clust_6="88.81221"></scales>
<clustering>
<clus scale="   67.409">  1  3  2 -1</clus>
<clus scale="   81.004">  1  4  2 -1</clus>
<clus scale="   88.812">  2  6  1 -1</clus>
<clus scale="   67.409">  1  3  2 -1</clus>
</clustering>
</event>
<event>
 6    0  0.1080632E+003  0.1054116E+03  0.7546771E-02  0.1269311E+00
         21   -1    0    0  504  501  0.00000000000E+00  0.00000000000E+00  0.36227798926E+02  0.36227798926E+02  0.00000000000E+00 0.  1.
         21   -1    0    0  503  502 -0.00000000000E+00 -0.00000000000E+00 -0.61798245202E+03  0.61798245202E+03  0.00000000000E+00 0.  1.
         21    1    1    2  503  501 -0.15938633556E+02 -0.11615854967E+03 -0.13074098961E+03  0.17561336813E+03  0.00000000000E+00 0.  1.
         21    1    1    2  504  506  0.44720866184E+02  0.26440273054E+02 -0.95576827246E+02  0.10878406969E+03  0.00000000000E+00 0.  1.
         21    1    1    2  505  502 -0.25329673351E+02  0.30801250012E+02 -0.10025796964E+03  0.10789796027E+03  0.00000000000E+00 0.  1.
         21    1    1    2  506  505 -0.34525592777E+01  0.58917026605E+02 -0.25517886660E+03  0.26191485286E+03  0.00000000000E+00 0.  1.
<scales pt_clust_3="97.79172" pt_clust_4="51.95232" pt_clust_5="32.34576" pt_clust_6="32.34576"></scales>
<clustering>
<clus scale="   32.346">  5  6 -1 -1</clus>
<clus scale="   51.952">  1  4  2 -1</clus>
<clus scale="   97.792">  1  3  2 -1</clus>
<clus scale="   51.952">  1  3  2 -1</clus>
</clustering>
</event>
<event>
 6    0  0.1080632E+003  0.2304837E+03  0.7546771E-02  0.1126300E+00
         21   -1    0    0  505  501  0.00000000000E+00  0.00000000000E+00  0.37948300478E+03  0.37948300478E+03  0.00000000000E+00 0. -1.
         21   -1    0    0  506  502 -0.00000000000E+00 -0.00000000000E+00 -0.20236171126E+03  0.20236171126E+03  0.00000000000E+00 0.  1.
         21    1    1    2  503  501  0.66739213215E+02 -0.96628422482E+02  0.16354937695E+03  0.20134441466E+03  0.00000000000E+00 0. -1.
         21    1    1    2  504  502 -0.14973123896E+03  0.15344161725E+03 -0.55690019664E+02  0.22150655095E+03  0.00000000000E+00 0.  1.
         21    1    1    2  505  504  0.24243903229E+02  0.29476926108E+02  0.24886832483E+02  0.45563257649E+02  0.00000000000E+00 0. -1.
         21    1    1    2  506  503  0.58748122519E+02 -0.86290120871E+02  0.44375103758E+02  0.11343049278E+03  0.00000000000E+00 0. -1.
<scales pt_clust_3="77.35750" pt_clust_4="215.58837" pt_clust_5="38.16616" pt_clust_6="77.35750"></scales>
<clustering>
<clus scale="   38.166">  1  5  2 -1</clus>
<clus scale="   77.358">  3  6 -1 -1</clus>
<clus scale="  215.588">  2  4  1 -1</clus>
<clus scale="   38.166">  1  3  2 -1</clus>
</clustering>
</event>
<event>
 6    0  0.1080632E+003  0.1984913E+03  0.7546771E-02  0.1151018E+00
         21   -1    0    0  504  501  0.00000000000E+00  0.00000000000E+00  0.16653499530E+03  0.16653499530E+03  0.00000000000E+00 0. -1.
         21   -1    0    0  505  502 -0.00000000000E+00 -0.00000000000E+00 -0.87809414854E+03  0.87809414854E+03  0.00000000000E+00 0. -1.
         21    1    1    2  503  506  0.12497728163E+02  0.17874537635E+03 -0.62728146317E+02  0.18984447086E+03  0.00000000000E+00 0. -1.
         21    1    1    2  504  502 -0.73275141982E+01  0.44241619433E+02 -0.35816243964E+03  0.36095892637E+03  0.00000000000E+00 0. -1.
         21    1    1    2  505  503  0.13364089161E+03 -0.20394891493E+03 -0.24697202803E+03  0.34705940477E+03  0.00000000000E+00 0. -1.
         21    1    1    2  506  501 -0.13881110558E+03 -0.19038080847E+02 -0.43696539248E+02  0.14676634184E+03  0.00000000000E+00 0. -1.
<scales pt_clust_3="14000.00000" pt_clust_4="44.84432" pt_clust_5="198.49128" pt_clust_6="140.58105"></scales>
<clustering>
<clus scale="   44.844">  2  4  1 -1</clus>
<clus scale="  140.581">  1  6  2 -1</clus>
<clus scale="  198.491">  2  5  1 -1</clus>
<clus scale="  140.581">  1  3  2 -1</clus>
</clustering>
</event>
<event>
 6    0  0.1080632E+003  0.8428368E+02  0.7546771E-02  0.1317316E+00
         21   -1    0    0  504  501  0.00000000000E+00  0.00000000000E+00  0.13248901672E+03  0.13248901672E+03  0.00000000000E+00 0. -1.
         21   -1    0    0  505  502 -0.00000000000E+00 -0.00000000000E+00 -0.20876508711E+04  0.20876508711E+04  0.00000000000E+00 0. -1.
         21    1    1    2  503  506  0.79624523353E+02 -0.25762914637E+02 -0.11351329445E+03  0.14102858046E+03  0.00000000000E+00 0. -1.
         21    1    1    2  504  502 -0.50509647840E+02 -0.64915715998E+01 -0.18693077549E+03  0.19374333498E+03  0.00000000000E+00 0. -1.
         21    1    1    2  505  503 -0.39538523148E+02  0.76445076828E+02 -0.17644842054E+04  0.17665819131E+04  0.00000000000E+00 0. -1.
         21    1    1    2  506  501  0.10423647635E+02 -0.44190590591E+02  0.10976642091E+03  0.11878605931E+03  0.00000000000E+00 0. -1.
<scales pt_clust_3="14000.00000" pt_clust_4="50.75272" pt_clust_5="84.28368" pt_clust_6="45.40331"></scales>
<clustering>
<clus scale="   45.403">  1  6  2 -1</clus>
<clus scale="   50.753">  1  4  2 -1</clus>
<clus scale="   84.284">  2  5  1 -1</clus>
<clus scale="   45.403">  1  3  2 -1</clus>
</clustering>
</event>
<event>
 6    0  0.1477200E+003  0.9023515E+02  0.7546771E-02  0.1302283E+00
         21   -1    0    0  503  501  0.00000000000E+00  0.00000000000E+00  0.29086548527E+03  0.29086548527E+03  0.00000000000E+00 0. -1.
         21   -1    0    0  505  502 -0.00000000000E+00 -0.00000000000E+00 -0.21655120113E+04  0.21655120113E+04  0.00000000000E+00 0. -1.
         21    1    1    2  503  504 -0.82769711992E+02  0.36598131808E+02  0.23887748654E+03  0.25544608443E+03  0.00000000000E+00 0. -1.
         21    1    1    2  504  502  0.62840495810E+02 -0.67284974473E+02 -0.14969340212E+03  0.17573932498E+03  0.00000000000E+00 0. -1.
         21    1    1    2  505  506 -0.25163209413E+01 -0.35091455383E+02 -0.19547872224E+04  0.19551037893E+04  0.00000000000E+00 0. -1.
         21    1    1    2  506  501  0.22445537124E+02  0.65778298048E+02 -0.90433880663E+01  0.70088297872E+02  0.00000000000E+00 0. -1.
<scales pt_clust_3="90.23515" pt_clust_4="14000.00000" pt_clust_5="35.18156" pt_clust_6="63.13169"></scales>
<clustering>
<clus scale="   35.182">  2  5  1 -1</clus>
<clus scale="   63.132">  2  6  1 -1</clus>
<clus scale="   90.235">  1  3  2 -1</clus>
<clus scale="   90.235">  1  3  2 -1</clus>
</clustering>
</event>
<event>
 6    0  0.1080632E+003  0.1004884E+03  0.7546771E-02  0.1279272E+00
         21   -1    0    0  504  501  0.00000000000E+00  0.00000000000E+00  0.12130339691E+04  0.12130339691E+04  0.00000000000E+00 0. -1.
         21   -1    0    0  503  502 -0.00000000000E+00 -0.00000000000E+00 -0.87424780823E+02  0.87424780823E+02  0.00000000000E+00 0.  1.
         21    1    1    2  503  501  0.78212107846E+02 -0.11101226203E+03  0.26372032610E+02  0.13833416150E+03  0.00000000000E+00 0.  1.
         21    1    1    2  504  506 -0.41631937901E+02  0.17844484357E+01  0.99824168170E+03  0.99911103366E+03  0.00000000000E+00 0. -1.
         21    1    1    2  505  502 -0.98565395938E+01  0.34299367095E+02  0.16271771171E+01  0.35724580631E+02  0.00000000000E+00 0.  1.
         21    1    1    2  506  505 -0.26723630351E+02  0.74928446497E+02  0.99368296825E+02  0.12728897410E+03  0.00000000000E+00 0.  1.
<scales pt_clust_3="100.48840" pt_clust_4="41.74058" pt_clust_5="35.68750" pt_clust_6="14000.00000"></scales>
<clustering>
<clus scale="   35.688">  2  5  1 -1</clus>
<clus scale="   41.741">  1  4  2 -1</clus>
<clus scale="  100.488">  2  3  1 -1</clus>
<clus scale="   41.741">  1  3  2 -1</clus>
</clustering>
</event>
<event>
 6    0  0.1080632E+003  0.1623922E+03  0.7546771E-02  0.1186022E+00
         21   -1    0    0  506  501  0.00000000000E+00  0.00000000000E+00  0.24603039167E+04  0.24603039167E+04  0.00000000000E+00 0. -1.
         21   -1    0    0  504  502 -0.00000000000E+00 -0.00000000000E+00 -0.26512423075E+02  0.26512423075E+02  0.00000000000E+00 0. -1.
         21    1    1    2  503  505  0.43878774509E+02  0.40889078166E+01  0.61597032246E+03  0.61754473859E+03  0.00000000000E+00 0. -1.
         21    1    1    2  504  501 -0.16333087900E+03  0.71843928066E+02  0.37079187004E+03  0.41149135705E+03  0.00000000000E+00 0. -1.
         21    1    1    2  505  502  0.45855469346E+02  0.10242919077E+02  0.19284340999E+03  0.19848481613E+03  0.00000000000E+00 0. -1.
         21    1    1    2  506  503  0.73596635144E+02 -0.86175754960E+02  0.12541858911E+04  0.12592954280E+04  0.00000000000E+00 0. -1.
<scales pt_clust_3="41.85993" pt_clust_4="147.86886" pt_clust_5="46.98555" pt_clust_6="41.85993"></scales>
<clustering>
<clus scale="   41.860">  3  6 -1 -1</clus>
<clus scale="   46.986">  2  5  1 -1</clus>
<clus scale="  147.869">  2  4  1 -1</clus>
<clus scale="  162.392">  1  3  2 -1</clus>
</clustering>
</event>
<event>
 6    0  0.1080632E+003  0.7780635E+02  0.7546771E-02  0.1335395E+00
         21   -1    0    0  505  501  0.00000000000E+00  0.00000000000E+00  0.23848958736E+04  0.23848958736E+04  0.00000000000E+00 0.  1.
         21   -1    0    0  506  502 -0.00000000000E+00 -0.00000000000E+00 -0.45461347874E+02  0.45461347874E+02  0.00000000000E+00 0. -1.
         21    1    1    2  503  502  0.25285031945E+02 -0.24346909703E+02  0.89597733137E+02  0.96228159266E+02  0.00000000000E+00 0.  1.
         21    1    1    2  504  503 -0.23861882648E+02 -0.65726599683E+02  0.94330853783E+03  0.94589659736E+03  0.00000000000E+00 0.  1.
         21    1    1    2  505  504  0.48965520247E+02 -0.96138425229E+01  0.12696109021E+04  0.12705911580E+04  0.00000000000E+00 0.  1.
         21    1    1    2  506  501 -0.50388669544E+02  0.99687351909E+02  0.36917352700E+02  0.11764130686E+03  0.00000000000E+00 0. -1.
<scales pt_clust_3="35.10135" pt_clust_4="77.80635" pt_clust_5="50.24396" pt_clust_6="14000.00000"></scales>
<clustering>
<clus scale="   35.101">  2  3  1 -1</clus>
<clus scale="   50.244">  1  5  2 -1</clus>
<clus scale="   77.806">  1  4  2 -1</clus>
<clus scale="   50.244">  1  3  2 -1</clus>
</clustering>
</event>
<event>
 6    0  0.1080632E+003  0.1544788E+03  0.7546771E-02  0.1195075E+00
         21   -1    0    0  503  501  0.00000000000E+00  0.00000000000E+00  0.21519704684E+03  0.21519704684E+03  0.00000000000E+00 0.  1.
         21   -1    0    0  506  502 -0.00000000000E+00 -0.00000000000E+00 -0.23387127146E+04  0.23387127146E+04  0.00000000000E+00 0.  1.
         21    1    1    2  503  502 -0.47189727572E+02 -0.98529578752E+02 -0.19604050531E+04  0.19634466941E+04  0.00000000000E+00 0.  1.
         21    1    1    2  504  501  0.13290660717E+02 -0.31303560989E+02  0.16357458761E+03  0.16707244029E+03  0.00000000000E+00 0.  1.
         21    1    1    2  505  504  0.47760354268E+02  0.17447113343E+03 -0.13399636963E+03  0.22511387100E+03  0.00000000000E+00 0.  1.
         21    1    1    2  506  505 -0.13861287413E+02 -0.44637993693E+02 -0.19268883269E+03  0.19827675611E+03  0.00000000000E+00 0.  1.
<scales pt_clust_3="14000.00000" pt_clust_4="34.00815" pt_clust_5="154.47884" pt_clust_6="48.21031"></scales>
<clustering>
<clus scale="   34.008">  1  4  2 -1</clus>
<clus scale="   48.210">  2  6  1 -1</clus>
<clus scale="  154.479">  1  5  2 -1</clus>
<clus scale="   34.008">  1  3  2 -1</clus>
</clustering>
</event>
<event>
 6    0  0.1080632E+003  0.1387268E+03  0.7546771E-02  0.1215052E+00
         21   -1    0    0  506  501  0.00000000000E+00  0.00000000000E+00  0.55621096231E+03  0.55621096231E+03  0.00000000000E+00 0. -1.
         21   -1    0    0  505  502 -0.00000000000E+00 -0.00000000000E+00 -0.16818760550E+04  0.16818760550E+04  0.00000000000E+00 0. -1.
         21    1    1    2  503  501 -0.12197354416E+03 -0.19867602602E+02 -0.15849029342E+01  0.12359117698E+03  0.00000000000E+00 0.  1.
         21    1    1    2  504  502  0.39085324448E+02 -0.87730446565E+01 -0.98438258397E+03  0.98519729015E+03  0.00000000000E+00 0. -1.
         21    1    1    2  505  503  0.10624004827E+03  0.18455172620E+01 -0.62940094280E+03  0.63830705823E+03  0.00000000000E+00 0. -1.
         21    1    1    2  506  504 -0.23351828549E+02  0.26795129996E+02  0.48970333701E+03  0.49099149195E+03  0.00000000000E+00 0. -1.
<scales pt_clust_3="138.72680" pt_clust_4="39.88082" pt_clust_5="14000.00000" pt_clust_6="35.54275"></scales>
<clustering>
<clus scale="   35.543">  1  6  2 -1</clus>
<clus scale="   39.881">  2  4  1 -1</clus>
<clus scale="  138.727">  1  3  2 -1</clus>
<clus scale="   35.543">  1  3  2 -1</clus>
</clustering>
</event>
<event>
 6    0  0.1080632E+003  0.6833303E+02  0.7546771E-02  0.1365855E+00
         21   -1    0    0  506  501  0.00000000000E+00  0.00000000000E+00  0.36743457892E+03  0.36743457892E+03  0.00000000000E+00 0.  1.
         21   -1    0    0  503  502 -0.00000000000E+00 -0.00000000000E+00 -0.15658617283E+03  0.15658617283E+03  0.00000000000E+00 0. -1.
         21    1    1    2  503  504 -0.55576373149E+02  0.31533271821E+02  0.39083107043E+02  0.74903736491E+02  0.00000000000E+00 0. -1.
         21    1    1    2  504  501  0.33559224685E+02  0.49853828091E+01  0.25194850494E+02  0.42259390609E+02  0.00000000000E+00 0.  1.
         21    1    1    2  505  502 -0.64927270834E+02  0.17630331539E+02 -0.11092755703E+03  0.12973550784E+03  0.00000000000E+00 0. -1.
         21    1    1    2  506  505  0.86944419298E+02 -0.54148986169E+02  0.25749800558E+03  0.27712211681E+03  0.00000000000E+00 0.  1.
<scales pt_clust_3="59.44138" pt_clust_4="33.92751" pt_clust_5="68.33303" pt_clust_6="14000.00000"></scales>
<clustering>
<clus scale="   33.928">  1  4  2 -1</clus>
<clus scale="   59.441">  1  3  2 -1</clus>
<clus scale="   68.333">  2  5  1 -1</clus>
<clus scale="   33.928">  1  3  2 -1</clus>
</clustering>
</event>
<event>
 6    0  0.1080632E+003  0.8839695E+02  0.7546771E-02  0.1306781E+00
         21   -1    0    0  503  501  0.00000000000E+00  0.00000000000E+00  0.10408963233E+04  0.10408963233E+04  0.00000000000E+00 0.  1.
         21   -1    0    0  504  502 -0.00000000000E+00 -0.00000000000E+00 -0.22481420356E+03  0.22481420356E+03  0.00000000000E+00 0. -1.
         21    1    1    2  503  505 -0.95171627589E+01  0.77654813659E+02  0.81198586637E+03  0.81574621891E+03  0.00000000000E+00 0.  1.
         21    1    1    2  504  506 -0.73038369708E+02 -0.49840387558E+01  0.23223973505E+02  0.76803626459E+02  0.00000000000E+00 0. -1.
         21    1    1    2  505  502  0.30065039672E+02 -0.75668421333E+02 -0.18340967352E+03  0.20067068779E+03  0.00000000000E+00 0. -1.
         21    1    1    2  506  501  0.52490492795E+02  0.29976464299E+01  0.16428195341E+03  0.17248999373E+03  0.00000000000E+00 0.  1.
<scales pt_clust_3="14000.00000" pt_clust_4="70.19467" pt_clust_5="88.39695" pt_clust_6="52.57602"></scales>
<clustering>
<clus scale="   52.576">  1  6  2 -1</clus>
<clus scale="   70.195">  2  4  1 -1</clus>
<clus scale="   88.397">  2  5  1 -1</clus>
<clus scale="   52.576">  1  3  2 -1</clus>
</clustering>
</event>
<event>
 6    0  0.1080632E+003  0.1457012E+03  0.7546771E-02  0.1205857E+00
         21   -1    0    0  504  501  0.00000000000E+00  0.00000000000E+00  0.10545999156E+03  0.10545999156E+03  0.00000000000E+00 0.  1.
         21   -1    0    0  505  502 -0.00000000000E+00 -0.00000000000E+00 -0.44644343729E+03  0.44644343729E+03  0.00000000000E+00 0. -1.
         21    1    1    2  503  502  0.88907422065E+02  0.10620221492E+02 -0.79289680576E+02  0.11960005121E+03  0.00000000000E+00 0. -1.
         21    1    1    2  504  503  0.80793188048E+02  0.68900089843E+01  0.29425044867E+02  0.86260331116E+02  0.00000000000E+00 0.  1.
         21    1    1    2  505  506 -0.11862599404E+03  0.12320658112E+02 -0.23944135970E+03  0.26749970059E+03  0.00000000000E+00 0. -1.
         21    1    1    2  506  501 -0.51074616076E+02 -0.29830888588E+02 -0.51677450319E+02  0.78543345948E+02  0.00000000000E+00 0. -1.
<scales pt_clust_3="123.84711" pt_clust_4="81.08644" pt_clust_5="54.05052" pt_clust_6="54.05052"></scales>
<clustering>
<clus scale="   54.051">  5  6 -1 -1</clus>
<clus scale="   81.086">  1  4  2 -1</clus>
<clus scale="  123.847">  2  3  1 -1</clus>
<clus scale="   81.086">  1  3  2 -1</clus>
</clustering>
</event>
<event>
 6    0  0.1080632E+003  0.1142643E+03  0.7546771E-02  0.1252871E+00
         21   -1    0    0  503  501  0.00000000000E+00  0.00000000000E+00  0.16263597131E+04  0.16263597131E+04  0.00000000000E+00 0. -1.
         21   -1    0    0  506  502 -0.00000000000E+00 -0.00000000000E+00 -0.74484712808E+02  0.74484712808E+02  0.00000000000E+00 0. -1.
         21    1    1    2  503  504  0.56592848917E+02 -0.94484352552E+02  0.13151417777E+04  0.13197454068E+04  0.00000000000E+00 0. -1.
         21    1    1    2  504  502  0.49037156423E+02  0.60779794660E+01  0.13810528194E+02  0.51306093531E+02  0.00000000000E+00 0. -1.
         21    1    1    2  505  501 -0.10007389243E+03  0.12146654231E+03  0.24388380631E+03  0.29025543203E+03  0.00000000000E+00 0. -1.
         21    1    1    2  506  505 -0.55561129122E+01 -0.33060169219E+02 -0.20961111915E+02  0.39537493499E+02  0.00000000000E+00 0. -1.
<scales pt_clust_3="114.26433" pt_clust_4="47.35171" pt_clust_5="14000.00000" pt_clust_6="33.52380"></scales>
<clustering>
<clus scale="   33.524">  2  6  1 -1</clus>
<clus scale="   47.352">  2  4  1 -1</clus>
<clus scale="  114.264">  1  3  2 -1</clus>
<clus scale="  114.264">  1  3  2 -1</clus>
</clustering>
</event>
<event>
 6    0  0.1080632E+003  0.1008041E+03  0.7546771E-02  0.1278614E+00
         21   -1    0    0  505  501  0.00000000000E+00  0.00000000000E+00  0.31270943620E+03  0.31270943620E+03  0.00000000000E+00 0. -1.
         21   -1    0    0  503  502 -0.00000000000E+00 -0.00000000000E+00 -0.34977597242E+03  0.34977597242E+03  0.00000000000E+00 0. -1.
         21    1    1    2  503  504 -0.10385245552E+01 -0.41350815246E+02 -0.15035916415E+03  0.15594501178E+03  0.00000000000E+00 0. -1.
         21    1    1    2  504  506  0.72526792059E+02  0.10599206086E+03 -0.14336931313E+03  0.19248171986E+03  0.00000000000E+00 0. -1.
         21    1    1    2  505  502 -0.21701792555E+02  0.29096667568E+02 -0.19188962282E-01  0.36298543109E+02  0.00000000000E+00 0.  1.
         21    1    1    2  506  501 -0.49786474949E+02 -0.93737913180E+02  0.25668113003E+03  0.27776013387E+03  0.00000000000E+00 0. -1.
<scales pt_clust_3="41.09378" pt_clust_4="14000.00000" pt_clust_5="36.29854" pt_clust_6="100.80414"></scales>
<clustering>
<clus scale="   36.299">  1  5  2 -1</clus>
<clus scale="   41.094">  2  3  1 -1</clus>
<clus scale="  100.804">  1  6  2 -1</clus>
<clus scale="   36.299">  1  3  2 -1</clus>
</clustering>
</event>
<event>
 6    0  0.1080632E+003  0.1010561E+03  0.7546771E-02  0.1278091E+00
         21   -1    0    0  504  501  0.00000000000E+00  0.00000000000E+00  0.15662262732E+04  0.15662262732E+04  0.00000000000E+00 0.  1.
         21   -1    0    0  505  502 -0.00000000000E+00 -0.00000000000E+00 -0.16625142709E+04  0.16625142709E+04  0.00000000000E+00 0. -1.
         21    1    1    2  503  501 -0.90269063821E+02 -0.45487616666E+02  0.15559370018E+04  0.15592169768E+04  0.00000000000E+00 0.  1.
         21    1    1    2  504  506  0.75906466261E+02  0.60059117296E+02 -0.38470886928E+03  0.39669863032E+03  0.00000000000E+00 0. -1.
         21    1    1    2  505  503 -0.49919582245E+02 -0.95843335065E+01 -0.48470194243E+03  0.48736002825E+03  0.00000000000E+00 0.  1.
         21    1    1    2  506  502  0.64282179804E+02 -0.49871671242E+01 -0.78281418772E+03  0.78546490881E+03  0.00000000000E+00 0. -1.
<scales pt_clust_3="14000.00000" pt_clust_4="101.05611" pt_clust_5="50.83133" pt_clust_6="33.03073"></scales>
<clustering>
<clus scale="   50.831">  2  5  1 -1</clus>
<clus scale="   33.031">  2  6  1 -1</clus>
<clus scale="  101.056">  2  4  1 -1</clus>
<clus scale="  101.056">  1  3  2 -1</clus>
</clustering>
</event>
<event>
 6    0  0.1080632E+003  0.6597274E+02  0.7546771E-02  0.1374349E+00
         21   -1    0    0  504  501  0.00000000000E+00  0.00000000000E+00  0.47431321424E+03  0.47431321424E+03  0.00000000000E+00 0. -1.
         21   -1    0    0  506  502 -0.00000000000E+00 -0.00000000000E+00 -0.12401985651E+03  0.12401985651E+03  0.00000000000E+00 0. -1.
         21    1    1    2  503  505 -0.15810722623E+02  0.62437072059E+02  0.47890266833E+02  0.80261102500E+02  0.00000000000E+00 0. -1.
         21    1    1    2  504  503 -0.37271623304E+02 -0.25290599484E+02  0.35285487221E+03  0.35571807540E+03  0.00000000000E+00 0. -1.
         21    1    1    2  505  502  0.35916590219E+02  0.51600348023E+02 -0.30079626110E+02  0.69694915711E+02  0.00000000000E+00 0. -1.
         21    1    1    2  506  501  0.17165755709E+02 -0.88746820598E+02 -0.20372155202E+02  0.92658977131E+02  0.00000000000E+00 0. -1.
<scales pt_clust_3="14000.00000" pt_clust_4="45.04207" pt_clust_5="55.99370" pt_clust_6="65.97274"></scales>
<clustering>
<clus scale="   45.042">  1  4  2 -1</clus>
<clus scale="   55.994">  2  5  1 -1</clus>
<clus scale="   65.973">  2  6  1 -1</clus>
<clus scale="   45.042">  1  3  2 -1</clus>
</clustering>
</event>
<event>
 6    0  0.1080632E+003  0.7364016E+02  0.7546771E-02  0.1348134E+00
         21   -1    0    0  504  501  0.00000000000E+00  0.00000000000E+00  0.72808880360E+03  0.72808880360E+03  0.00000000000E+00 0.  1.
         21   -1    0    0  506  502 -0.00000000000E+00 -0.00000000000E+00 -0.10292579001E+04  0.10292579001E+04  0.00000000000E+00 0.  1.
         21    1    1    2  503  505  0.29903726869E+02 -0.60574129754E+02 -0.38180348195E+03  0.38773361591E+03  0.00000000000E+00 0.  1.
         21    1    1    2  504  502 -0.54521761624E+02  0.94767183823E+02 -0.58732798275E+03  0.59741744279E+03  0.00000000000E+00 0.  1.
         21    1    1    2  505  501  0.27834893860E+02 -0.68057108538E+02  0.71242704438E+03  0.71621145265E+03  0.00000000000E+00 0.  1.
         21    1    1    2  506  503 -0.32168591049E+01  0.33864054468E+02 -0.44464676223E+02  0.55984192404E+02  0.00000000000E+00 0. -1.
<scales pt_clust_3="55.26504" pt_clust_4="73.64016" pt_clust_5="14000.00000" pt_clust_6="34.01650"></scales>
<clustering>
<clus scale="   34.017">  2  6  1 -1</clus>
<clus scale="   55.265">  2  3  1 -1</clus>
<clus scale="   73.640">  2  4  1 -1</clus>
<clus scale="   73.640">  1  3  2 -1</clus>
</clustering>
</event>
<event>
 6    0  0.1080632E+003  0.7598661E+02  0.7546771E-02  0.1340843E+00
         21   -1    0    0  505  501  0.00000000000E+00  0.00000000000E+00  0.22240610432E+03  0.22240610432E+03  0.00000000000E+00 0. -1.
         21   -1    0    0  504  502 -0.00000000000E+00 -0.00000000000E+00 -0.52764337477E+03  0.52764337477E+03  0.00000000000E+00 0. -1.
         21    1    1    2  503  501  0.30330359785E+02 -0.86220146674E+01  0.26544594760E+02  0.41217537197E+02  0.00000000000E+00 0. -1.
         21    1    1    2  504  503 -0.93248623553E+01 -0.70067528825E+02 -0.47575750878E+03  0.48097985282E+03  0.00000000000E+00 0. -1.
         21    1    1    2  505  506 -0.84755771315E+02  0.14252708960E+02  0.68801573331E+02  0.11009240199E+03  0.00000000000E+00 0. -1.
         21    1    1    2  506  502  0.63750273885E+02  0.64436834533E+02  0.75174070238E+02  0.11775968708E+03  0.00000000000E+00 0. -1.
<scales pt_clust_3="31.53204" pt_clust_4="70.74958" pt_clust_5="75.98661" pt_clust_6="14000.00000"></scales>
<clustering>
<clus scale="   31.532">  1  3  2 -1</clus>
<clus scale="   70.750">  2  4  1 -1</clus>
<clus scale="   75.987">  1  5  2 -1</clus>
<clus scale="   31.532">  1  3  2 -1</clus>
</clustering>
</event>
<event>
 6    0  0.1080632E+003  0.1788529E+03  0.7546771E-02  0.1168918E+00
         21   -1    0    0  503  501  0.00000000000E+00  0.00000000000E+00  0.10753582598E+03  0.10753582598E+03  0.00000000000E+00 0. -1.
         21   -1    0    0  506  502 -0.00000000000E+00 -0.00000000000E+00 -0.65396367621E+03  0.65396367621E+03  0.00000000000E+00 0.  1.
         21    1    1    2  503  504  0.14308556460E+02 -0.73214244109E+02  0.23023115962E+02  0.78071276389E+02  0.00000000000E+00 0. -1.
         21    1    1    2  504  502  0.13162068291E+03 -0.45845864334E+02 -0.91971858589E+02  0.16698703608E+03  0.00000000000E+00 0.  1.
         21    1    1    2  505  501 -0.56625812803E+02  0.68608522406E+02 -0.16351044691E+03  0.18614316606E+03  0.00000000000E+00 0.  1.
         21    1    1    2  506  505 -0.89303426571E+02  0.50451586036E+02 -0.31396866069E+03  0.33029802365E+03  0.00000000000E+00 0.  1.
<scales pt_clust_3="74.59933" pt_clust_4="169.51054" pt_clust_5="53.12887" pt_clust_6="53.12887"></scales>
<clustering>
<clus scale="   53.129">  5  6 -1 -1</clus>
<clus scale="   74.599">  1  3  2 -1</clus>
<clus scale="  169.511">  1  4  2 -1</clus>
<clus scale="   74.599">  1  3  2 -1</clus>
</clustering>
</event>
<event>
 6    0  0.1080632E+003  0.1266929E+03  0.7546771E-02  0.1232447E+00
         21   -1    0    0  504  501  0.00000000000E+00  0.00000000000E+00  0.50251788552E+03  0.50251788552E+03  0.00000000000E+00 0. -1.
         21   -1    0    0  506  502 -0.00000000000E+00 -0.00000000000E+00 -0.68684070446E+02  0.68684070446E+02  0.00000000000E+00 0. -1.
         21    1    1    2  503  502 -0.28355278164E+02  0.15943686966E+02 -0.28634247684E+02  0.43337548319E+02  0.00000000000E+00 0. -1.
         21    1    1    2  504  503 -0.10846549453E+03 -0.27425943334E+02  0.22542843304E+03  0.25166430874E+03  0.00000000000E+00 0. -1.
         21    1    1    2  505  501  0.70084200112E+02  0.10892556118E+02  0.15489627543E+03  0.17036225822E+03  0.00000000000E+00 0. -1.
         21    1    1    2  506  505  0.66736572585E+02  0.58970024934E+00  0.82143354286E+02  0.10583784068E+03  0.00000000000E+00 0. -1.
<scales pt_clust_3="32.53034" pt_clust_4="121.67228" pt_clust_5="33.00233" pt_clust_6="33.00233"></scales>
<clustering>
<clus scale="   32.530">  2  3  1 -1</clus>
<clus scale="   33.002">  5  6 -1 -1</clus>
<clus scale="  121.672">  1  4  2 -1</clus>
<clus scale="  121.672">  1  3  2 -1</clus>
</clustering>
</event>
<event>
 6    0  0.1080632E+003  0.1817742E+03  0.7546771E-02  0.1166097E+00
         21   -1    0    0  504  501  0.00000000000E+00  0.00000000000E+00  0.16392859262E+04  0.16392859262E+04  0.00000000000E+00 0.  1.
         21   -1    0    0  506  502 -0.00000000000E+00 -0.00000000000E+00 -0.19912503122E+03  0.19912503122E+03  0.00000000000E+00 0.  1.
         21    1    1    2  503  501  0.35357168908E+02  0.68954215847E+02  0.44909959700E+03  0.45573595568E+03  0.00000000000E+00 0.  1.
         21    1    1    2  504  505 -0.14905788859E+03  0.45043382642E+02  0.22855906653E+03  0.27656176048E+03  0.00000000000E+00 0. -1.
         21    1    1    2  505  502 -0.45413667691E+02  0.39824290050E+01 -0.15804861019E+03  0.16449201846E+03  0.00000000000E+00 0.  1.
         21    1    1    2  506  503  0.15911438737E+03 -0.11798002749E+03  0.92055084165E+03  0.94162122280E+03  0.00000000000E+00 0.  1.
<scales pt_clust_3="76.07513" pt_clust_4="14000.00000" pt_clust_5="45.58795" pt_clust_6="181.77419"></scales>
<clustering>
<clus scale="   45.588">  2  5  1 -1</clus>
<clus scale="   76.075">  1  3  2 -1</clus>
<clus scale="  181.774">  1  6  2 -1</clus>
<clus scale="   76.075">  1  3  2 -1</clus>
</clustering>
</event>
<event>
 6    0  0.1080632E+003  0.9995865E+02  0.7546771E-02  0.1280383E+00
         21   -1    0    0  506  501  0.00000000000E+00  0.00000000000E+00  0.16182760433E+03  0.16182760433E+03  0.00000000000E+00 0. -1.
         21   -1    0    0  503  502 -0.00000000000E+00 -0.00000000000E+00 -0.29214867795E+03  0.29214867795E+03  0.00000000000E+00 0.  1.
         21    1    1    2  503  504 -0.35080747359E+02 -0.99209263075E+01 -0.15788952904E+03  0.16204378110E+03  0.00000000000E+00 0.  1.
         21    1    1    2  504  501 -0.59774091034E+02  0.68659050049E+02  0.53026927884E+02  0.10535113760E+03  0.00000000000E+00 0.  1.
         21    1    1    2  505  502  0.34457215694E+02  0.48016518096E+02 -0.24350819438E+02  0.63920639318E+02  0.00000000000E+00 0. -1.
         21    1    1    2  506  505  0.60397622699E+02 -0.10675464184E+03 -0.11076530259E+01  0.12266072426E+03  0.00000000000E+00 0. -1.
<scales pt_clust_3="36.45660" pt_clust_4="99.95865" pt_clust_5="50.15691" pt_clust_6="14000.00000"></scales>
<clustering>
<clus scale="   36.457">  2  3  1 -1</clus>
<clus scale="   50.157">  2  5  1 -1</clus>
<clus scale="   99.959">  1  4  2 -1</clus>
<clus scale="   99.959">  1  3  2 -1</clus>
</clustering>
</event>
<event>
 6    0  0.1080632E+003  0.1006483E+03  0.7546771E-02  0.1278939E+00
         21   -1    0    0  506  501  0.00000000000E+00  0.00000000000E+00  0.42908098998E+03  0.42908098998E+03  0.00000000000E+00 0. -1.
         21   -1    0    0  503  502 -0.00000000000E+00 -0.00000000000E+00 -0.14513976142E+03  0.14513976142E+03  0.00000000000E+00 0.  1.
         21    1    1    2  503  504 -0.99244580326E+01 -0.49177659151E+02  0.22870843977E+02  0.55136308645E+02  0.00000000000E+00 0. -1.
         21    1    1    2  504  501 -0.75366172368E+02 -0.42226204616E+02  0.34830830695E+03  0.35886179650E+03  0.00000000000E+00 0. -1.
         21    1    1    2  505  502  0.74368884122E+02  0.45733205942E+02 -0.60019004626E+02  0.10594592001E+03  0.00000000000E+00 0.  1.
         21    1    1    2  506  505  0.10921746278E+02  0.45670657825E+02 -0.27218917742E+02  0.54276726237E+02  0.00000000000E+00 0.  1.
<scales pt_clust_3="50.16908" pt_clust_4="87.74045" pt_clust_5="36.16507" pt_clust_6="36.16507"></scales>
<clustering>
<clus scale="   36.165">  5  6 -1 -1</clus>
<clus scale="   50.169">  2  3  1 -1</clus>
<clus scale="   87.740">  1  4  2 -1</clus>
<clus scale="   87.740">  1  3  2 -1</clus>
</clustering>
</event>
<event>
 6    0  0.1080632E+003  0.1189704E+03  0.7546771E-02  0.1244805E+00
         21   -1    0    0  503  501  0.00000000000E+00  0.00000000000E+00  0.44329493709E+02  0.44329493709E+02  0.00000000000E+00 0. -1.
         21   -1    0    0  506  502 -0.00000000000E+00 -0.00000000000E+00 -0.14010638923E+04  0.14010638923E+04  0.00000000000E+00 0.  1.
         21    1    1    2  503  504  0.21167116807E+02  0.25488825269E+02 -0.89411837370E+02  0.95353047720E+02  0.00000000000E+00 0.  1.
         21    1    1    2  504  502  0.78326155244E+02 -0.11752017548E+03 -0.10987185548E+04  0.11077582953E+04  0.00000000000E+00 0.  1.
         21    1    1    2  505  501 -0.71531635905E+02  0.22187832026E+02 -0.22925329681E+02  0.78323978233E+02  0.00000000000E+00 0. -1.
         21    1    1    2  506  505 -0.27961636146E+02  0.69843518186E+02 -0.14567867675E+03  0.16395806473E+03  0.00000000000E+00 0. -1.
<scales pt_clust_3="33.13196" pt_clust_4="118.97037" pt_clust_5="69.50443" pt_clust_6="14000.00000"></scales>
<clustering>
<clus scale="   33.132">  1  3  2 -1</clus>
<clus scale="   69.504">  1  5  2 -1</clus>
<clus scale="  118.970">  2  4  1 -1</clus>
<clus scale="   33.132">  1  3  2 -1</clus>
</clustering>
</event>
<event>
 6    0  0.1080632E+003  0.1478036E+03  0.7546771E-02  0.1203198E+00
         21   -1    0    0  504  501  0.00000000000E+00  0.00000000000E+00  0.26210502523E+03  0.26210502523E+03  0.00000000000E+00 0.  1.
         21   -1    0    0  503  502 -0.00000000000E+00 -0.00000000000E+00 -0.11373162841E+03  0.11373162841E+03  0.00000000000E+00 0.  1.
         21    1    1    2  503  506  0.21810128813E+02  0.65118927262E+02 -0.12494645563E+02  0.69801665986E+02  0.00000000000E+00 0.  1.
         21    1    1    2  504  502  0.31184962168E+02  0.39957777219E+01 -0.48684902570E+00  0.31443681829E+02  0.00000000000E+00 0.  1.
         21    1    1    2  505  501 -0.70492941571E+02 -0.13228560668E+03  0.14141751630E+03  0.20607680719E+03  0.00000000000E+00 0.  1.
         21    1    1    2  506  505  0.17497850590E+02  0.63170901695E+02  0.19937375112E+02  0.68514498630E+02  0.00000000000E+00 0.  1.
<scales pt_clust_3="31.32156" pt_clust_4="31.43991" pt_clust_5="144.12962" pt_clust_6="31.32156"></scales>
<clustering>
<clus scale="   31.440">  2  4  1 -1</clus>
<clus scale="   31.322">  3  6 -1 -1</clus>
<clus scale="  144.130">  1  5  2 -1</clus>
<clus scale="  144.130">  1  3  2 -1</clus>
</clustering>
</event>
<event>
 6    0  0.1080632E+003  0.1186528E+03  0.7546771E-02  0.1245336E+00
         21   -1    0    0  504  501  0.00000000000E+00  0.00000000000E+00  0.28040361733E+03  0.28040361733E+03  0.00000000000E+00 0.  1.
         21   -1    0    0  505  502 -0.00000000000E+00 -0.00000000000E+00 -0.20013714509E+03  0.20013714509E+03  0.00000000000E+00 0.  1.
         21    1    1    2  503  502 -0.21088625147E+02 -0.90308079303E+02 -0.77222928914E+02  0.12067999026E+03  0.00000000000E+00 0.  1.
         21    1    1    2  504  503 -0.48094994187E+01 -0.66711146460E+02 -0.21329011755E+02  0.70202813968E+02  0.00000000000E+00 0.  1.
         21    1    1    2  505  506  0.12325804833E+02  0.49567420300E+02 -0.26487150137E+02  0.57536281966E+02  0.00000000000E+00 0.  1.
         21    1    1    2  506  501  0.13572319733E+02  0.10745180546E+03  0.20530556304E+03  0.23212167623E+03  0.00000000000E+00 0.  1.
<scales pt_clust_3="31.75331" pt_clust_4="31.75331" pt_clust_5="51.07695" pt_clust_6="112.60759"></scales>
<clustering>
<clus scale="   31.753">  3  4 -1 -1</clus>
<clus scale="   51.077">  2  5  1 -1</clus>
<clus scale="  112.608">  1  6  2 -1</clus>
<clus scale="  112.608">  1  3  2 -1</clus>
</clustering>
</event>
<event>
 6    0  0.1080632E+003  0.2091173E+03  0.7546771E-02  0.1142267E+00
         21   -1    0    0  504  501  0.00000000000E+00  0.00000000000E+00  0.46224483352E+03  0.46224483352E+03  0.00000000000E+00 0.  1.
         21   -1    0    0  503  502 -0.00000000000E+00 -0.00000000000E+00 -0.30633518594E+03  0.30633518594E+03  0.00000000000E+00 0. -1.
         21    1    1    2  503  506  0.33550390817E+02  0.28701955688E+02 -0.72442808692E+02  0.84837441707E+02  0.00000000000E+00 0. -1.
         21    1    1    2  504  505 -0.76658988844E+02 -0.50514302318E+02  0.31060290287E+03  0.32388649028E+03  0.00000000000E+00 0.  1.
         21    1    1    2  505  502 -0.13474335809E+03 -0.50054251917E+02  0.15480900230E+02  0.14457129368E+03  0.00000000000E+00 0. -1.
         21    1    1    2  506  501  0.17785195612E+03  0.71866598546E+02 -0.97731346832E+02  0.21528479379E+03  0.00000000000E+00 0. -1.
<scales pt_clust_3="38.10755" pt_clust_4="91.80575" pt_clust_5="193.44485" pt_clust_6="38.10755"></scales>
<clustering>
<clus scale="   38.108">  3  6 -1 -1</clus>
<clus scale="   91.806">  1  4  2 -1</clus>
<clus scale="  193.445">  1  5  2 -1</clus>
<clus scale="   91.806">  1  3  2 -1</clus>
</clustering>
</event>
<event>
 6    0  0.1080632E+003  0.1105659E+03  0.7546771E-02  0.1259526E+00
         21   -1    0    0  503  501  0.00000000000E+00  0.00000000000E+00  0.13885815810E+03  0.13885815810E+03  0.00000000000E+00 0. -1.
         21   -1    0    0  506  502 -0.00000000000E+00 -0.00000000000E+00 -0.22502123826E+03  0.22502123826E+03  0.00000000000E+00 0. -1.
         21    1    1    2  503  504  0.51860088522E+02  0.72932741698E+01  0.28154255951E+02  0.59458580186E+02  0.00000000000E+00 0. -1.
         21    1    1    2  504  502  0.78087467649E+02  0.15577722388E+02 -0.83798007062E+01  0.80065842270E+02  0.00000000000E+00 0. -1.
         21    1    1    2  505  501 -0.76152997518E+02 -0.43089468905E+02  0.16555509271E+02  0.89050919416E+02  0.00000000000E+00 0. -1.
         21    1    1    2  506  505 -0.53794558652E+02  0.20218472347E+02 -0.12249304468E+03  0.13530405448E+03  0.00000000000E+00 0. -1.
<scales pt_clust_3="33.10770" pt_clust_4="33.10770" pt_clust_5="102.75322" pt_clust_6="57.46861"></scales>
<clustering>
<clus scale="   33.108">  3  4 -1 -1</clus>
<clus scale="   57.469">  2  6  1 -1</clus>
<clus scale="  102.753">  1  5  2 -1</clus>
<clus scale="  102.753">  1  3  2 -1</clus>
</clustering>
</event>
<event>
 6    0  0.1080632E+003  0.7233697E+02  0.7546771E-02  0.1352322E+00
         21   -1    0    0  506  501  0.00000000000E+00  0.00000000000E+00  0.70135773608E+03  0.70135773608E+03  0.00000000000E+00 0. -1.
         21   -1    0    0  504  502 -0.00000000000E+00 -0.00000000000E+00 -0.30999774933E+03  0.30999774933E+03  0.00000000000E+00 0.  1.
         21    1    1    2  503  501 -0.44801816105E+02 -0.56859325455E+02  0.63705592176E+03  0.64115554514E+03  0.00000000000E+00 0. -1.
         21    1    1    2  504  505  0.38250662713E+02  0.49865382022E+02 -0.11462052047E+03  0.13071929174E+03  0.00000000000E+00 0.  1.
         21    1    1    2  505  503  0.83639385597E+02  0.23749517682E+02 -0.52648163516E+00  0.86947476076E+02  0.00000000000E+00 0.  1.
         21    1    1    2  506  502 -0.77088232205E+02 -0.16755574250E+02 -0.13054893291E+03  0.15253317245E+03  0.00000000000E+00 0.  1.
<scales pt_clust_3="72.33697" pt_clust_4="62.84640" pt_clust_5="14000.00000" pt_clust_6="52.53272"></scales>
<clustering>
<clus scale="   62.846">  2  4  1 -1</clus>
<clus scale="   52.533">  2  6  1 -1</clus>
<clus scale="   72.337">  1  3  2 -1</clus>
<clus scale="   72.337">  1  3  2 -1</clus>
</clustering>
</event>
<event>
 6    0  0.1080632E+003  0.1004395E+03  0.7546771E-02  0.1279374E+00
         21   -1    0    0  506  501  0.00000000000E+00  0.00000000000E+00  0.13058214138E+03  0.13058214138E+03  0.00000000000E+00 0. -1.
         21   -1    0    0  505  502 -0.00000000000E+00 -0.00000000000E+00 -0.74127843655E+03  0.74127843655E+03  0.00000000000E+00 0. -1.
         21    1    1    2  503  501  0.70735249314E+02  0.59813708366E+01  0.95349116944E+02  0.11887264780E+03  0.00000000000E+00 0. -1.
         21    1    1    2  504  502 -0.42260011915E+02 -0.42700454268E+02 -0.41959318729E+03  0.42387224517E+03  0.00000000000E+00 0. -1.
         21    1    1    2  505  503 -0.66953201820E+02  0.50711336192E+02 -0.27360187894E+03  0.28620335256E+03  0.00000000000E+00 0. -1.
         21    1    1    2  506  504  0.38477964421E+02 -0.13992252760E+02 -0.12850345877E+02  0.42912332405E+02  0.00000000000E+00 0. -1.
<scales pt_clust_3="14000.00000" pt_clust_4="59.76388" pt_clust_5="100.43948" pt_clust_6="40.94309"></scales>
<clustering>
<clus scale="   40.943">  1  6  2 -1</clus>
<clus scale="   59.764">  2  4  1 -1</clus>
<clus scale="  100.439">  2  5  1 -1</clus>
<clus scale="   40.943">  1  3  2 -1</clus>
</clustering>
</event>
<event>
 6    0  0.1080632E+003  0.9778204E+02  0.7546771E-02  0.1285030E+00
         21   -1    0    0  505  501  0.00000000000E+00  0.00000000000E+00  0.80341262676E+02  0.80341262676E+02  0.00000000000E+00 0. -1.
         21   -1    0    0  506  502 -0.00000000000E+00 -0.00000000000E+00 -0.51268041504E+03  0.51268041504E+03  0.00000000000E+00 0.  1.
         21    1    1    2  503  501 -0.17925069302E+02 -0.25248562357E+02  0.12277533109E+02  0.33309695733E+02  0.00000000000E+00 0. -1.
         21    1    1    2  504  502 -0.75949012557E+02  0.14593759106E+02 -0.10671037577E+03  0.13178897757E+03  0.00000000000E+00 0. -1.
         21    1    1    2  505  504  0.11701392546E+03 -0.13152291112E+02 -0.34493193219E+02  0.12269890746E+03  0.00000000000E+00 0. -1.
         21    1    1    2  506  503 -0.23139843601E+02  0.23807094364E+02 -0.30341311649E+03  0.30522409695E+03  0.00000000000E+00 0.  1.
<scales pt_clust_3="30.96446" pt_clust_4="97.78204" pt_clust_5="14000.00000" pt_clust_6="33.11502"></scales>
<clustering>
<clus scale="   30.964">  1  3  2 -1</clus>
<clus scale="   33.115">  2  6  1 -1</clus>
<clus scale="   97.782">  2  4  1 -1</clus>
<clus scale="   30.964">  1  3  2 -1</clus>
</clustering>
</event>
<event>
 6    0  0.1080632E+003  0.1055570E+03  0.7546771E-02  0.1269026E+00
         21   -1    0    0  506  501  0.00000000000E+00  0.00000000000E+00  0.19979073372E+03  0.19979073372E+03  0.00000000000E+00 0.  1.
         21   -1    0    0  503  502 -0.00000000000E+00 -0.00000000000E+00 -0.39393604933E+03  0.39393604933E+03  0.00000000000E+00 0.  1.
         21    1    1    2  503  505 -0.24827596531E+02 -0.19371558435E+02 -0.38919624233E+02  0.50063998803E+02  0.00000000000E+00 0.  1.
         21    1    1    2  504  502 -0.33462356506E+02  0.97890472697E+02 -0.23851427988E+03  0.25998333726E+03  0.00000000000E+00 0.  1.
         21    1    1    2  505  501  0.97852126490E+02  0.45277204092E+02  0.10662423857E+03  0.15163704072E+03  0.00000000000E+00 0.  1.
         21    1    1    2  506  504 -0.39562173453E+02 -0.12379611835E+03 -0.23335650071E+02  0.13204240627E+03  0.00000000000E+00 0.  1.
<scales pt_clust_3="31.49074" pt_clust_4="98.42158" pt_clust_5="14000.00000" pt_clust_6="105.55700"></scales>
<clustering>
<clus scale="   31.491">  2  3  1 -1</clus>
<clus scale="   98.422">  2  4  1 -1</clus>
<clus scale="  105.557">  2  6  1 -1</clus>
<clus scale="  105.557">  1  3  2 -1</clus>
</clustering>
</event>
<event>
 6    0  0.1080632E+003  0.1570121E+03  0.7546771E-02  0.1192112E+00
         21   -1    0    0  503  501  0.00000000000E+00  0.00000000000E+00  0.57715246101E+03  0.57715246101E+03  0.00000000000E+00 0.  1.
         21   -1    0    0  504  502 -0.00000000000E+00 -0.00000000000E+00 -0.84464649377E+02  0.84464649377E+02  0.00000000000E+00 0.  1.
         21    1    1    2  503  505  0.67756772523E+02 -0.11730079790E+03  0.61340719565E+02  0.14870487984E+03  0.00000000000E+00 0.  1.
         21    1    1    2  504  506  0.32052367137E+02  0.41210662656E+01  0.70852491541E+01  0.33083805431E+02  0.00000000000E+00 0.  1.
         21    1    1    2  505  502 -0.16764215161E+02 -0.29209471129E+02  0.11862574334E+02  0.35706480973E+02  0.00000000000E+00 0.  1.
         21    1    1    2  506  501 -0.83044924498E+02  0.14238920276E+03  0.41239926858E+03  0.44412194415E+03  0.00000000000E+00 0.  1.
<scales pt_clust_3="157.01206" pt_clust_4="32.31621" pt_clust_5="30.72224" pt_clust_6="14000.00000"></scales>
<clustering>
<clus scale="   32.316">  2  4  1 -1</clus>
<clus scale="   30.722">  2  5  1 -1</clus>
<clus scale="  157.012">  2  3  1 -1</clus>
<clus scale="  157.012">  1  3  2 -1</clus>
</clustering>
</event>
<event>
 6    0  0.1080632E+003  0.1248356E+03  0.7546771E-02  0.1235326E+00
         21   -1    0    0  505  501  0.00000000000E+00  0.00000000000E+00  0.25694337973E+02  0.25694337973E+02  0.00000000000E+00 0.  1.
         21   -1    0    0  501  502 -0.00000000000E+00 -0.00000000000E+00 -0.13309714876E+04  0.13309714876E+04  0.00000000000E+00 0.  1.
         21    1    1    2  503  502  0.25284900587E+02 -0.18997203675E+02 -0.30490048475E+03  0.30653633642E+03  0.00000000000E+00 0.  1.
         21    1    1    2  504  503  0.11669122708E+03  0.47683397386E+02 -0.68425841832E+03  0.69577304626E+03  0.00000000000E+00 0.  1.
         21    1    1    2  505  506 -0.34633685018E+02  0.51857779634E+01 -0.27375910317E+02  0.44450251931E+02  0.00000000000E+00 0.  1.
         21    1    1    2  506  504 -0.10734244265E+03 -0.33871971674E+02 -0.28874233628E+03  0.30990619100E+03  0.00000000000E+00 0.  1.
<scales pt_clust_3="31.62625" pt_clust_4="124.83560" pt_clust_5="34.04938" pt_clust_6="14000.00000"></scales>
<clustering>
<clus scale="   31.626">  2  3  1 -1</clus>
<clus scale="   34.049">  1  5  2 -1</clus>
<clus scale="  124.836">  2  4  1 -1</clus>
<clus scale="   34.049">  1  3  2 -1</clus>
</clustering>
</event>
<event>
 6    0  0.1080632E+003  0.1470109E+03  0.7546771E-02  0.1204195E+00
         21   -1    0    0  506  501  0.00000000000E+00  0.00000000000E+00  0.45550116311E+02  0.45550116311E+02  0.00000000000E+00 0. -1.
         21   -1    0    0  503  502 -0.00000000000E+00 -0.00000000000E+00 -0.87653892860E+03  0.87653892860E+03  0.00000000000E+00 0. -1.
         21    1    1    2  503  504 -0.98215726743E+00  0.63630803791E+02 -0.33235089504E+03  0.33838877236E+03  0.00000000000E+00 0. -1.
         21    1    1    2  504  501 -0.13534783348E+03 -0.79722272550E+01 -0.15574543041E+03  0.20649269123E+03  0.00000000000E+00 0. -1.
         21    1    1    2  505  502  0.32039420999E+02 -0.11641937941E+02 -0.33657867456E+02  0.47905232059E+02  0.00000000000E+00 0.  1.
         21    1    1    2  506  505  0.10429056975E+03 -0.44016638595E+02 -0.30923461937E+03  0.32930234926E+03  0.00000000000E+00 0. -1.
<scales pt_clust_3="63.63838" pt_clust_4="136.32919" pt_clust_5="30.18982" pt_clust_6="30.18982"></scales>
<clustering>
<clus scale="   30.190">  5  6 -1 -1</clus>
<clus scale="   63.638">  2  3  1 -1</clus>
<clus scale="  136.329">  1  4  2 -1</clus>
<clus scale="  136.329">  1  3  2 -1</clus>
</clustering>
</event>
<event>
 6    0  0.1080632E+003  0.1799781E+03  0.7546771E-02  0.1167824E+00
         21   -1    0    0  505  501  0.00000000000E+00  0.00000000000E+00  0.68365110091E+02  0.68365110091E+02  0.00000000000E+00 0. -1.
         21   -1    0    0  501  502 -0.00000000000E+00 -0.00000000000E+00 -0.14047086813E+04  0.14047086813E+04  0.00000000000E+00 0. -1.
         21    1    1    2  503  504  0.21155215878E+03  0.23730858685E+02 -0.24075672907E+03  0.32137403774E+03  0.00000000000E+00 0. -1.
         21    1    1    2  504  506 -0.13848389793E+03  0.95866620314E+01 -0.34819235101E+03  0.37484344382E+03  0.00000000000E+00 0. -1.
         21    1    1    2  505  503  0.70656456713E+01 -0.41265343805E+02 -0.22550419269E+02  0.47552848046E+02  0.00000000000E+00 0. -1.
         21    1    1    2  506  502 -0.80133906514E+02  0.79478230880E+01 -0.72484407189E+03  0.72930346182E+03  0.00000000000E+00 0. -1.
<scales pt_clust_3="179.97810" pt_clust_4="14000.00000" pt_clust_5="41.86588" pt_clust_6="80.10010"></scales>
<clustering>
<clus scale="   41.866">  1  5  2 -1</clus>
<clus scale="   80.100">  2  6  1 -1</clus>
<clus scale="  179.978">  1  3  2 -1</clus>
<clus scale="   41.866">  1  3  2 -1</clus>
</clustering>
</event>
<event>
 6    0  0.1080632E+003  0.9601829E+02  0.7546771E-02  0.1288899E+00
         21   -1    0    0  506  501  0.00000000000E+00  0.00000000000E+00  0.14618147759E+03  0.14618147759E+03  0.00000000000E+00 0.  1.
         21   -1    0    0  505  502 -0.00000000000E+00 -0.00000000000E+00 -0.45550182649E+03  0.45550182649E+03  0.00000000000E+00 0.  1.
         21    1    1    2  503  501  0.63151394943E+02  0.12749103989E+02  0.55484451045E+02  0.85024482612E+02  0.00000000000E+00 0.  1.
         21    1    1    2  504  502 -0.56421737867E+02  0.47269408557E+02 -0.85292915928E+02  0.11266184357E+03  0.00000000000E+00 0.  1.
         21    1    1    2  505  503  0.10861486260E+03  0.83833275670E+01 -0.24099597140E+03  0.26447405693E+03  0.00000000000E+00 0.  1.
         21    1    1    2  506  504 -0.11534451967E+03 -0.68401840113E+02 -0.38515912620E+02  0.13952292096E+03  0.00000000000E+00 0.  1.
<scales pt_clust_3="64.42545" pt_clust_4="66.97384" pt_clust_5="14000.00000" pt_clust_6="96.01829"></scales>
<clustering>
<clus scale="   64.425">  1  3  2 -1</clus>
<clus scale="   66.974">  2  4  1 -1</clus>
<clus scale="   96.018">  1  6  2 -1</clus>
<clus scale="   64.425">  1  3  2 -1</clus>
</clustering>
</event>
<event>
 6    0  0.1080632E+003  0.6145977E+02  0.7546771E-02  0.1391806E+00
         21   -1    0    0  506  501  0.00000000000E+00  0.00000000000E+00  0.41494038624E+03  0.41494038624E+03  0.00000000000E+00 0.  1.
         21   -1    0    0  503  502 -0.00000000000E+00 -0.00000000000E+00 -0.11496043378E+04  0.11496043378E+04  0.00000000000E+00 0. -1.
         21    1    1    2  503  505 -0.31238584091E+02 -0.11032653735E+02 -0.18779116483E+03  0.19069108572E+03  0.00000000000E+00 0.  1.
         21    1    1    2  504  501  0.20270315434E+02 -0.57893651660E+02  0.39788722601E+03  0.40258763669E+03  0.00000000000E+00 0.  1.
         21    1    1    2  505  504 -0.41770215731E+01  0.11252476727E+03 -0.89985019185E+03  0.90686803810E+03  0.00000000000E+00 0. -1.
         21    1    1    2  506  502  0.15145290229E+02 -0.43598461872E+02 -0.44909820882E+02  0.64397963519E+02  0.00000000000E+00 0. -1.
<scales pt_clust_3="33.12957" pt_clust_4="14000.00000" pt_clust_5="61.45977" pt_clust_6="46.20236"></scales>
<clustering>
<clus scale="   33.130">  2  3  1 -1</clus>
<clus scale="   46.202">  2  6  1 -1</clus>
<clus scale="   61.460">  2  5  1 -1</clus>
<clus scale="   61.460">  1  3  2 -1</clus>
</clustering>
</event>
<event>
 6    0  0.1080632E+003  0.2864160E+03  0.7546771E-02  0.1092235E+00
         21   -1    0    0  503  501  0.00000000000E+00  0.00000000000E+00  0.44472708533E+03  0.44472708533E+03  0.00000000000E+00 0. -1.
         21   -1    0    0  504  502 -0.00000000000E+00 -0.00000000000E+00 -0.54028592417E+03  0.54028592417E+03  0.00000000000E+00 0. -1.
         21    1    1    2  503  502  0.16317117876E+03  0.11500536909E+03 -0.21529362384E+03  0.29360247438E+03  0.00000000000E+00 0. -1.
         21    1    1    2  504  505  0.87834653924E+02 -0.39787383053E+02 -0.90826228052E+02  0.13246647116E+03  0.00000000000E+00 0. -1.
         21    1    1    2  505  506  0.36282002294E+02 -0.13464138417E+03 -0.67334939980E+02  0.15485050909E+03  0.00000000000E+00 0. -1.
         21    1    1    2  506  501 -0.28728783498E+03  0.59423398135E+02  0.27789595303E+03  0.40409355486E+03  0.00000000000E+00 0. -1.
<scales pt_clust_3="199.62732" pt_clust_4="89.96972" pt_clust_5="89.96972" pt_clust_6="265.19495"></scales>
<clustering>
<clus scale="   89.970">  4  5 -1 -1</clus>
<clus scale="  199.627">  2  3  1 -1</clus>
<clus scale="  265.195">  1  6  2 -1</clus>
<clus scale="  265.195">  1  3  2 -1</clus>
</clustering>
</event>
<event>
 6    0  0.1501948E+003  0.1580371E+03  0.7546771E-02  0.1190931E+00
         21   -1    0    0  506  501  0.00000000000E+00  0.00000000000E+00  0.54840082008E+03  0.54840082008E+03  0.00000000000E+00 0. -1.
         21   -1    0    0  503  502 -0.00000000000E+00 -0.00000000000E+00 -0.69370178417E+03  0.69370178417E+03  0.00000000000E+00 0. -1.
         21    1    1    2  503  504  0.51990716489E+02  0.24974151556E+02 -0.23613282728E+02  0.62324393043E+02  0.00000000000E+00 0. -1.
         21    1    1    2  504  501 -0.34131291709E+02  0.38231649481E+01  0.51766673031E+02  0.62123667798E+02  0.00000000000E+00 0. -1.
         21    1    1    2  505  502  0.50840453402E+02  0.98212505764E+02 -0.62957915153E+03  0.63921855107E+03  0.00000000000E+00 0. -1.
         21    1    1    2  506  505 -0.68699878181E+02 -0.12700982227E+03  0.45612479713E+03  0.47843599234E+03  0.00000000000E+00 0. -1.
<scales pt_clust_3="56.53599" pt_clust_4="34.34475" pt_clust_5="158.03715" pt_clust_6="14000.00000"></scales>
<clustering>
<clus scale="   34.345">  1  4  2 -1</clus>
<clus scale="   56.536">  2  3  1 -1</clus>
<clus scale="  158.037">  2  5  1 -1</clus>
<clus scale="   34.345">  1  3  2 -1</clus>
</clustering>
</event>
<event>
 6    0  0.1080632E+003  0.9430831E+02  0.7546771E-02  0.1292742E+00
         21   -1    0    0  506  501  0.00000000000E+00  0.00000000000E+00  0.99138181691E+02  0.99138181691E+02  0.00000000000E+00 0. -1.
         21   -1    0    0  505  502 -0.00000000000E+00 -0.00000000000E+00 -0.28009818448E+04  0.28009818448E+04  0.00000000000E+00 0. -1.
         21    1    1    2  503  502  0.55340306247E+02  0.91148408635E+02 -0.25222629673E+04  0.25245160047E+04  0.00000000000E+00 0. -1.
         21    1    1    2  504  501 -0.56788554933E+02 -0.89047705750E+02  0.37047548556E+02  0.11192387915E+03  0.00000000000E+00 0. -1.
         21    1    1    2  505  504  0.16034736120E+02 -0.30052919690E+02 -0.22772248239E+03  0.23025598739E+03  0.00000000000E+00 0.  1.
         21    1    1    2  506  503 -0.14586487434E+02  0.27952216805E+02  0.11094237967E+02  0.33424155278E+02  0.00000000000E+00 0. -1.
<scales pt_clust_3="94.30831" pt_clust_4="14000.00000" pt_clust_5="33.54355" pt_clust_6="31.52923"></scales>
<clustering>
<clus scale="   31.529">  1  6  2 -1</clus>
<clus scale="   33.544">  2  5  1 -1</clus>
<clus scale="   94.308">  2  3  1 -1</clus>
<clus scale="   31.529">  1  3  2 -1</clus>
</clustering>
</event>
<event>
 6    0  0.1080632E+003  0.2402320E+03  0.7546771E-02  0.1119638E+00
         21   -1    0    0  504  501  0.00000000000E+00  0.00000000000E+00  0.23012662863E+04  0.23012662863E+04  0.00000000000E+00 0. -1.
         21   -1    0    0  506  502 -0.00000000000E+00 -0.00000000000E+00 -0.83750997885E+02  0.83750997885E+02  0.00000000000E+00 0. -1.
         21    1    1    2  503  502  0.47746984309E+01 -0.35617885956E+02  0.44897857400E+02  0.57508687554E+02  0.00000000000E+00 0. -1.
         21    1    1    2  504  503  0.39693259888E+02 -0.24437128757E+03  0.18229706302E+04  0.18397050849E+04  0.00000000000E+00 0. -1.
         21    1    1    2  505  501  0.31022362002E+02  0.19749960959E+03  0.12207707623E+03  0.23424622787E+03  0.00000000000E+00 0. -1.
         21    1    1    2  506  505 -0.75490320321E+02  0.82489563942E+02  0.22756972464E+03  0.25355728385E+03  0.00000000000E+00 0. -1.
<scales pt_clust_3="35.93649" pt_clust_4="14000.00000" pt_clust_5="240.23200" pt_clust_6="106.92433"></scales>
<clustering>
<clus scale="   35.936">  2  3  1 -1</clus>
<clus scale="  106.924">  2  6  1 -1</clus>
<clus scale="  240.232">  2  5  1 -1</clus>
<clus scale="  240.232">  1  3  2 -1</clus>
</clustering>
</event>
<event>
 6    0  0.1080632E+003  0.2040210E+03  0.7546771E-02  0.1146390E+00
         21   -1    0    0  506  501  0.00000000000E+00  0.00000000000E+00  0.15209752073E+03  0.15209752073E+03  0.00000000000E+00 0. -1.
         21   -1    0    0  504  502 -0.00000000000E+00 -0.00000000000E+00 -0.85337143279E+03  0.85337143279E+03  0.00000000000E+00 0. -1.
         21    1    1    2  503  505  0.63484595804E+02  0.13211852025E+03 -0.10319765636E+03  0.17926336373E+03  0.00000000000E+00 0. -1.
         21    1    1    2  504  501 -0.60013092182E+02 -0.21826358817E+02  0.50323159396E+02  0.81304252927E+02  0.00000000000E+00 0.  1.
         21    1    1    2  505  502 -0.66838018173E+02 -0.17742298086E+03 -0.61996467371E+03  0.64830735878E+03  0.00000000000E+00 0. -1.
         21    1    1    2  506  503  0.63366514552E+02  0.67130819421E+02 -0.28434741397E+02  0.96593978078E+02  0.00000000000E+00 0. -1.
<scales pt_clust_3="43.31205" pt_clust_4="63.85892" pt_clust_5="196.58555" pt_clust_6="43.31205"></scales>
<clustering>
<clus scale="   43.312">  3  6 -1 -1</clus>
<clus scale="   63.859">  1  4  2 -1</clus>
<clus scale="  196.586">  2  5  1 -1</clus>
<clus scale="   63.859">  1  3  2 -1</clus>
</clustering>
</event>
<event>
 6    0  0.1080632E+003  0.9926612E+02  0.7546771E-02  0.1281847E+00
         21   -1    0    0  505  501  0.00000000000E+00  0.00000000000E+00  0.43237329373E+03  0.43237329373E+03  0.00000000000E+00 0.  1.
         21   -1    0    0  506  502 -0.00000000000E+00 -0.00000000000E+00 -0.10775586292E+04  0.10775586292E+04  0.00000000000E+00 0. -1.
         21    1    1    2  503  501  0.94056550080E+02 -0.95473943742E+00 -0.16830511137E+03  0.19280600782E+03  0.00000000000E+00 0. -1.
         21    1    1    2  504  502 -0.68262466066E+02  0.53628969191E+02 -0.83722022732E+03  0.84170870237E+03  0.00000000000E+00 0. -1.
         21    1    1    2  505  504 -0.29474757862E+02 -0.95304876391E+02  0.40289968885E+03  0.41506618760E+03  0.00000000000E+00 0.  1.
         21    1    1    2  506  503  0.36806738467E+01  0.42630646637E+02 -0.42559685588E+02  0.60351025095E+02  0.00000000000E+00 0.  1.
<scales pt_clust_3="94.93022" pt_clust_4="99.26612" pt_clust_5="14000.00000" pt_clust_6="42.78924"></scales>
<clustering>
<clus scale="   42.789">  2  6  1 -1</clus>
<clus scale="   94.930">  2  3  1 -1</clus>
<clus scale="   99.266">  2  4  1 -1</clus>
<clus scale="   99.266">  1  3  2 -1</clus>
</clustering>
</event>
<event>
 6    0  0.1080632E+003  0.1514331E+03  0.7546771E-02  0.1198723E+00
         21   -1    0    0  506  501  0.00000000000E+00  0.00000000000E+00  0.46335814324E+03  0.46335814324E+03  0.00000000000E+00 0. -1.
         21   -1    0    0  504  502 -0.00000000000E+00 -0.00000000000E+00 -0.68578904408E+03  0.68578904408E+03  0.00000000000E+00 0.  1.
         21    1    1    2  503  501 -0.38791834059E+02 -0.45293607200E+00  0.40132153410E+03  0.40319224357E+03  0.00000000000E+00 0. -1.
         21    1    1    2  504  505  0.14956212238E+03  0.52791152560E+02 -0.42496806502E+03  0.45360069503E+03  0.00000000000E+00 0.  1.
         21    1    1    2  505  503 -0.26901379510E+01  0.47229912995E+02 -0.27921684288E+01  0.47388793277E+02  0.00000000000E+00 0. -1.
         21    1    1    2  506  502 -0.10808015037E+03 -0.99568129483E+02 -0.19599220150E+03  0.24496545544E+03  0.00000000000E+00 0. -1.
<scales pt_clust_3="38.79448" pt_clust_4="14000.00000" pt_clust_5="49.98894" pt_clust_6="151.43307"></scales>
<clustering>
<clus scale="   38.794">  1  3  2 -1</clus>
<clus scale="   49.989">  1  5  2 -1</clus>
<clus scale="  151.433">  1  6  2 -1</clus>
<clus scale="   38.794">  1  3  2 -1</clus>
</clustering>
</event>
<event>
 6    0  0.1080632E+003  0.1392039E+03  0.7546771E-02  0.1214404E+00
         21   -1    0    0  505  501  0.00000000000E+00  0.00000000000E+00  0.20850746205E+03  0.20850746205E+03  0.00000000000E+00 0.  1.
         21   -1    0    0  503  502 -0.00000000000E+00 -0.00000000000E+00 -0.15548296175E+03  0.15548296175E+03  0.00000000000E+00 0.  1.
         21    1    1    2  503  504 -0.62930761334E+02 -0.47858753425E+01 -0.33565914511E+02  0.71483256374E+02  0.00000000000E+00 0.  1.
         21    1    1    2  504  506 -0.50925971396E+02 -0.38985004516E+02 -0.39157907985E+01  0.64254327149E+02  0.00000000000E+00 0.  1.
         21    1    1    2  505  502  0.12985484519E+03  0.70531448278E+02  0.17422852552E+02  0.14879691464E+03  0.00000000000E+00 0.  1.
         21    1    1    2  506  501 -0.15998112465E+02 -0.26760568419E+02  0.73083353054E+02  0.79455925633E+02  0.00000000000E+00 0.  1.
<scales pt_clust_3="44.60209" pt_clust_4="44.60209" pt_clust_5="131.29034" pt_clust_6="31.17800"></scales>
<clustering>
<clus scale="   31.178">  1  6  2 -1</clus>
<clus scale="   44.602">  3  4 -1 -1</clus>
<clus scale="  131.290">  1  5  2 -1</clus>
<clus scale="   31.178">  1  3  2 -1</clus>
</clustering>
</event>
<event>
 6    0  0.1080632E+003  0.8512866E+02  0.7546771E-02  0.1315096E+00
         21   -1    0    0  505  501  0.00000000000E+00  0.00000000000E+00  0.55268320393E+03  0.55268320393E+03  0.00000000000E+00 0.  1.
         21   -1    0    0  503  502 -0.00000000000E+00 -0.00000000000E+00 -0.14631384002E+03  0.14631384002E+03  0.00000000000E+00 0.  1.
         21    1    1    2  503  506 -0.92384634509E+02 -0.20763681924E+02 -0.38636117361E+02  0.10226827829E+03  0.00000000000E+00 0.  1.
         21    1    1    2  504  502  0.53892136798E+02  0.28993417101E+02 -0.20857399699E+02  0.64653010495E+02  0.00000000000E+00 0.  1.
         21    1    1    2  505  504  0.13295364720E+02  0.75520294284E+02  0.22137151507E+02  0.79813125792E+02  0.00000000000E+00 0.  1.
         21    1    1    2  506  501  0.25197132991E+02 -0.83750029461E+02  0.44372572946E+03  0.45226262938E+03  0.00000000000E+00 0.  1.
<scales pt_clust_3="55.73085" pt_clust_4="61.19625" pt_clust_5="85.12866" pt_clust_6="14000.00000"></scales>
<clustering>
<clus scale="   61.196">  2  4  1 -1</clus>
<clus scale="   55.731">  2  3  1 -1</clus>
<clus scale="   85.129">  2  5  1 -1</clus>
<clus scale="   85.129">  1  3  2 -1</clus>
</clustering>
</event>
<event>
 6    0  0.1080632E+003  0.1670826E+03  0.7546771E-02  0.1180925E+00
         21   -1    0    0  506  501  0.00000000000E+00  0.00000000000E+00  0.12968405968E+04  0.12968405968E+04  0.00000000000E+00 0.  1.
         21   -1    0    0  504  502 -0.00000000000E+00 -0.00000000000E+00 -0.15529541562E+04  0.15529541562E+04  0.00000000000E+00 0. -1.
         21    1    1    2  503  502 -0.96185140512E+02 -0.42098829849E+02 -0.14930937053E+04  0.14967807807E+04  0.00000000000E+00 0. -1.
         21    1    1    2  504  505  0.80109531377E+02 -0.15256754535E+03  0.12613657482E+03  0.21355287031E+03  0.00000000000E+00 0.  1.
         21    1    1    2  505  501  0.37031293399E+02  0.10337344303E+03  0.92351523890E+03  0.93002031263E+03  0.00000000000E+00 0.  1.
         21    1    1    2  506  503 -0.20955684264E+02  0.91292932168E+02  0.18732833223E+03  0.20944078930E+03  0.00000000000E+00 0.  1.
<scales pt_clust_3="104.96563" pt_clust_4="167.08260" pt_clust_5="14000.00000" pt_clust_6="93.66718"></scales>
<clustering>
<clus scale="   93.667">  1  6  2 -1</clus>
<clus scale="  104.966">  2  3  1 -1</clus>
<clus scale="  167.083">  2  4  1 -1</clus>
<clus scale="   93.667">  1  3  2 -1</clus>
</clustering>
</event>
<event>
 6    0  0.1080632E+003  0.7847169E+02  0.7546771E-02  0.1333445E+00
         21   -1    0    0  503  501  0.00000000000E+00  0.00000000000E+00  0.23438825024E+03  0.23438825024E+03  0.00000000000E+00 0. -1.
         21   -1    0    0  505  502 -0.00000000000E+00 -0.00000000000E+00 -0.23138361401E+03  0.23138361401E+03  0.00000000000E+00 0. -1.
         21    1    1    2  503  504  0.73051654352E+02 -0.18759879667E+02  0.17220142340E+03  0.18799416882E+03  0.00000000000E+00 0. -1.
         21    1    1    2  504  502  0.33258532068E+02 -0.23900959898E+02 -0.12273344560E+03  0.12938657005E+03  0.00000000000E+00 0. -1.
         21    1    1    2  505  506 -0.49938191220E+00  0.33680651439E+02 -0.19134467409E+02  0.38739689037E+02  0.00000000000E+00 0.  1.
         21    1    1    2  506  501 -0.10581080451E+03  0.89801881259E+01 -0.27328874165E+02  0.10965143635E+03  0.00000000000E+00 0. -1.
<scales pt_clust_3="14000.00000" pt_clust_4="33.07748" pt_clust_5="33.68435" pt_clust_6="78.47169"></scales>
<clustering>
<clus scale="   33.684">  2  5  1 -1</clus>
<clus scale="   33.077">  2  4  1 -1</clus>
<clus scale="   78.472">  2  6  1 -1</clus>
<clus scale="   78.472">  1  3  2 -1</clus>
</clustering>
</event>
<event>
 6    0  0.1080632E+003  0.1099869E+03  0.7546771E-02  0.1260594E+00
         21   -1    0    0  504  501  0.00000000000E+00  0.00000000000E+00  0.10468419066E+04  0.10468419066E+04  0.00000000000E+00 0. -1.
         21   -1    0    0  505  502 -0.00000000000E+00 -0.00000000000E+00 -0.14423104287E+03  0.14423104287E+03  0.00000000000E+00 0. -1.
         21    1    1    2  503  501 -0.34491676619E+02 -0.65268074242E+02  0.61065240560E+03  0.61509833176E+03  0.00000000000E+00 0. -1.
         21    1    1    2  504  506 -0.28539935619E+02  0.66969502309E+02  0.31674340161E+03  0.32500126866E+03  0.00000000000E+00 0. -1.
         21    1    1    2  505  503  0.10469945407E+03  0.67775274881E+02 -0.84221442505E+02  0.15049490006E+03  0.00000000000E+00 0. -1.
         21    1    1    2  506  502 -0.41667841829E+02 -0.69476702948E+02  0.59436499015E+02  0.10047844898E+03  0.00000000000E+00 0. -1.
<scales pt_clust_3="59.23262" pt_clust_4="72.79727" pt_clust_5="109.98690" pt_clust_6="14000.00000"></scales>
<clustering>
<clus scale="   72.797">  1  4  2 -1</clus>
<clus scale="   59.233">  1  3  2 -1</clus>
<clus scale="  109.987">  2  5  1 -1</clus>
<clus scale="   72.797">  1  3  2 -1</clus>
</clustering>
</event>
<event>
 6    0  0.1080632E+003  0.1248696E+03  0.7546771E-02  0.1235273E+00
         21   -1    0    0  503  501  0.00000000000E+00  0.00000000000E+00  0.10510240448E+03  0.10510240448E+03  0.00000000000E+00 0. -1.
         21   -1    0    0  505  502 -0.00000000000E+00 -0.00000000000E+00 -0.46023489003E+03  0.46023489003E+03  0.00000000000E+00 0. -1.
         21    1    1    2  503  506  0.14624756426E+03 -0.74827733815E+02 -0.13279204334E+03  0.21123746489E+03  0.00000000000E+00 0. -1.
         21    1    1    2  504  501 -0.26544158790E+02  0.53638483393E+02  0.26404607878E+02  0.65413168275E+02  0.00000000000E+00 0. -1.
         21    1    1    2  505  504 -0.85044803837E+02  0.52172237934E+02 -0.17740290768E+03  0.20353464748E+03  0.00000000000E+00 0. -1.
         21    1    1    2  506  502 -0.34658601637E+02 -0.30982987513E+02 -0.71342142408E+02  0.85152013869E+02  0.00000000000E+00 0.  1.
<scales pt_clust_3="14000.00000" pt_clust_4="59.25834" pt_clust_5="124.86958" pt_clust_6="46.48832"></scales>
<clustering>
<clus scale="   46.488">  2  6  1 -1</clus>
<clus scale="   59.258">  1  4  2 -1</clus>
<clus scale="  124.870">  2  5  1 -1</clus>
<clus scale="   59.258">  1  3  2 -1</clus>
</clustering>
</event>
<event>
 6    0  0.1080632E+003  0.1216096E+03  0.7546771E-02  0.1240465E+00
         21   -1    0    0  505  501  0.00000000000E+00  0.00000000000E+00  0.79942823009E+03  0.79942823009E+03  0.00000000000E+00 0. -1.
         21   -1    0    0  504  502 -0.00000000000E+00 -0.00000000000E+00 -0.51991238070E+03  0.51991238070E+03  0.00000000000E+00 0.  1.
         21    1    1    2  503  502  0.11639338342E+03 -0.64704645658E+02  0.56957642883E+03  0.58493710701E+03  0.00000000000E+00 0. -1.
         21    1    1    2  504  506 -0.12165339100E+03  0.15459774475E+01 -0.49430920799E+03  0.50906142133E+03  0.00000000000E+00 0.  1.
         21    1    1    2  505  503  0.38012916318E+02  0.29333872196E+02  0.98134289631E+02  0.10925107169E+03  0.00000000000E+00 0. -1.
         21    1    1    2  506  501 -0.32752908734E+02  0.33824796015E+02  0.10611433892E+03  0.11609101076E+03  0.00000000000E+00 0.  1.
<scales pt_clust_3="121.60960" pt_clust_4="14000.00000" pt_clust_5="47.74510" pt_clust_6="47.08365"></scales>
<clustering>
<clus scale="   47.084">  1  6  2 -1</clus>
<clus scale="   47.745">  1  5  2 -1</clus>
<clus scale="  121.610">  1  3  2 -1</clus>
<clus scale="   47.084">  1  3  2 -1</clus>
</clustering>
</event>
<event>
 6    0  0.1080632E+003  0.7168800E+02  0.7546771E-02  0.1354445E+00
         21   -1    0    0  505  501  0.00000000000E+00  0.00000000000E+00  0.34003405572E+03  0.34003405572E+03  0.00000000000E+00 0. -1.
         21   -1    0    0  504  502 -0.00000000000E+00 -0.00000000000E+00 -0.39017387540E+03  0.39017387540E+03  0.00000000000E+00 0. -1.
         21    1    1    2  503  502 -0.71603787583E+02  0.13470606612E+02 -0.35519104637E+03  0.36258687105E+03  0.00000000000E+00 0. -1.
         21    1    1    2  504  501  0.52276226370E+02  0.23907471367E+02  0.66200534905E+02  0.87674864427E+02  0.00000000000E+00 0. -1.
         21    1    1    2  505  506  0.53548091227E+02  0.17405734360E+02  0.19217408408E+03  0.20025293070E+03  0.00000000000E+00 0. -1.
         21    1    1    2  506  503 -0.34220530014E+02 -0.54783812338E+02  0.46676607699E+02  0.79693264929E+02  0.00000000000E+00 0. -1.
<scales pt_clust_3="14000.00000" pt_clust_4="71.68800" pt_clust_5="56.30593" pt_clust_6="48.33503"></scales>
<clustering>
<clus scale="   56.306">  1  5  2 -1</clus>
<clus scale="   48.335">  1  6  2 -1</clus>
<clus scale="   71.688">  1  4  2 -1</clus>
<clus scale="   56.306">  1  3  2 -1</clus>
</clustering>
</event>
<event>
 6    0  0.1080632E+003  0.7717575E+02  0.7546771E-02  0.1337263E+00
         21   -1    0    0  505  501  0.00000000000E+00  0.00000000000E+00  0.25909581670E+04  0.25909581670E+04  0.00000000000E+00 0.  1.
         21   -1    0    0  506  502 -0.00000000000E+00 -0.00000000000E+00 -0.53250593805E+03  0.53250593805E+03  0.00000000000E+00 0.  1.
         21    1    1    2  503  504 -0.94401732923E+01 -0.90742164274E+02  0.11360020447E+03  0.14569922342E+03  0.00000000000E+00 0. -1.
         21    1    1    2  504  502  0.11994636280E+02  0.63385182062E+02 -0.32677003107E+03  0.33307687673E+03  0.00000000000E+00 0.  1.
         21    1    1    2  505  503  0.44673288444E+02  0.20715708728E+02  0.24548555923E+04  0.24553494298E+04  0.00000000000E+00 0.  1.
         21    1    1    2  506  501 -0.47227751431E+02  0.66412734837E+01 -0.18323353677E+03  0.18933857509E+03  0.00000000000E+00 0. -1.
<scales pt_clust_3="77.17575" pt_clust_4="14000.00000" pt_clust_5="49.21414" pt_clust_6="47.69242"></scales>
<clustering>
<clus scale="   47.692">  2  6  1 -1</clus>
<clus scale="   49.214">  1  5  2 -1</clus>
<clus scale="   77.176">  1  3  2 -1</clus>
<clus scale="   49.214">  1  3  2 -1</clus>
</clustering>
</event>
<event>
 6    0  0.1080632E+003  0.1796103E+03  0.7546771E-02  0.1168181E+00
         21   -1    0    0  504  501  0.00000000000E+00  0.00000000000E+00  0.18363256278E+04  0.18363256278E+04  0.00000000000E+00 0.  1.
         21   -1    0    0  503  502 -0.00000000000E+00 -0.00000000000E+00 -0.26147837594E+03  0.26147837594E+03  0.00000000000E+00 0.  1.
         21    1    1    2  503  506  0.36767572787E+02  0.39668024936E+01  0.19630058979E+01  0.37033003157E+02  0.00000000000E+00 0.  1.
         21    1    1    2  504  502 -0.18510762742E+03  0.17120050171E+03 -0.11568337617E+03  0.27741140755E+03  0.00000000000E+00 0.  1.
         21    1    1    2  505  501  0.17715658327E+03 -0.24741250703E+02  0.15926049465E+04  0.16026188256E+04  0.00000000000E+00 0.  1.
         21    1    1    2  506  505 -0.28816528643E+02 -0.15042605350E+03  0.95962675588E+02  0.18074076740E+03  0.00000000000E+00 0.  1.
<scales pt_clust_3="36.98094" pt_clust_4="14000.00000" pt_clust_5="179.61034" pt_clust_6="151.40704"></scales>
<clustering>
<clus scale="   36.981">  2  3  1 -1</clus>
<clus scale="  151.407">  2  6  1 -1</clus>
<clus scale="  179.610">  1  5  2 -1</clus>
<clus scale="  179.610">  1  3  2 -1</clus>
</clustering>
</event>
<event>
 6    0  0.1080632E+003  0.1250438E+03  0.7546771E-02  0.1235001E+00
         21   -1    0    0  505  501  0.00000000000E+00  0.00000000000E+00  0.12843472909E+04  0.12843472909E+04  0.00000000000E+00 0.  1.
         21   -1    0    0  503  502 -0.00000000000E+00 -0.00000000000E+00 -0.88021237660E+03  0.88021237660E+03  0.00000000000E+00 0.  1.
         21    1    1    2  503  501 -0.18921136045E+02  0.31170888014E+02 -0.18882503575E+02  0.41063153679E+02  0.00000000000E+00 0. -1.
         21    1    1    2  504  506  0.16958986100E+03 -0.62500554317E+02 -0.27989236598E+03  0.33317679508E+03  0.00000000000E+00 0.  1.
         21    1    1    2  505  504 -0.10158006039E+03  0.72054166103E+02  0.12416182011E+04  0.12478485760E+04  0.00000000000E+00 0.  1.
         21    1    1    2  506  502 -0.49088664566E+02 -0.40724499801E+02 -0.53870841722E+03  0.54247114269E+03  0.00000000000E+00 0.  1.
<scales pt_clust_3="36.46414" pt_clust_4="125.04376" pt_clust_5="14000.00000" pt_clust_6="64.59543"></scales>
<clustering>
<clus scale="   36.464">  2  3  1 -1</clus>
<clus scale="   64.595">  2  6  1 -1</clus>
<clus scale="  125.044">  2  4  1 -1</clus>
<clus scale="  125.044">  1  3  2 -1</clus>
</clustering>
</event>
<event>
 6    0  0.1080632E+003  0.7260940E+02  0.7546771E-02  0.1351438E+00
         21   -1    0    0  502  501  0.00000000000E+00  0.00000000000E+00  0.10472354310E+04  0.10472354310E+04  0.00000000000E+00 0. -1.
         21   -1    0    0  505  502 -0.00000000000E+00 -0.00000000000E+00 -0.27765384213E+02  0.27765384213E+02  0.00000000000E+00 0. -1.
         21    1    1    2  503  504 -0.48397981339E+02  0.21923707186E+02  0.16711475881E+03  0.17535779466E+03  0.00000000000E+00 0. -1.
         21    1    1    2  504  506  0.69131279413E+02 -0.80157958963E+02  0.55677609804E+03  0.56674867052E+03  0.00000000000E+00 0. -1.
         21    1    1    2  505  503 -0.36694247119E+02  0.50281886243E+00  0.59994396533E+01  0.37184860825E+02  0.00000000000E+00 0. -1.
         21    1    1    2  506  501  0.15960949045E+02  0.57731432915E+02  0.28957975029E+03  0.29570948923E+03  0.00000000000E+00 0. -1.
<scales pt_clust_3="72.60940" pt_clust_4="14000.00000" pt_clust_5="36.69769" pt_clust_6="58.24721"></scales>
<clustering>
<clus scale="   36.698">  2  5  1 -1</clus>
<clus scale="   58.247">  1  6  2 -1</clus>
<clus scale="   72.609">  2  3  1 -1</clus>
<clus scale="   58.247">  1  3  2 -1</clus>
</clustering>
</event>
<event>
 6    0  0.1080632E+003  0.1003257E+03  0.7546771E-02  0.1279613E+00
         21   -1    0    0  504  501  0.00000000000E+00  0.00000000000E+00  0.86307523773E+03  0.86307523773E+03  0.00000000000E+00 0.  1.
         21   -1    0    0  503  502 -0.00000000000E+00 -0.00000000000E+00 -0.13681916819E+03  0.13681916819E+03  0.00000000000E+00 0.  1.
         21    1    1    2  503  501  0.46965495726E+02 -0.66492298513E+02  0.93822847660E+02  0.12421638496E+03  0.00000000000E+00 0.  1.
         21    1    1    2  504  505  0.13117420803E+02  0.40953157229E+02  0.62744098755E+03  0.62891288798E+03  0.00000000000E+00 0.  1.
         21    1    1    2  505  506  0.41903686656E+02  0.67649383488E+02  0.80399112259E+02  0.11312106477E+03  0.00000000000E+00 0.  1.
         21    1    1    2  506  502 -0.10198660319E+03 -0.42110242205E+02 -0.75406877929E+02  0.13364406821E+03  0.00000000000E+00 0.  1.
<scales pt_clust_3="71.20064" pt_clust_4="43.00265" pt_clust_5="100.32566" pt_clust_6="14000.00000"></scales>
<clustering>
<clus scale="   43.003">  1  4  2 -1</clus>
<clus scale="   71.201">  1  3  2 -1</clus>
<clus scale="  100.326">  1  5  2 -1</clus>
<clus scale="   43.003">  1  3  2 -1</clus>
</clustering>
</event>
<event>
 6    0  0.1080632E+003  0.1441942E+03  0.7546771E-02  0.1207794E+00
         21   -1    0    0  503  501  0.00000000000E+00  0.00000000000E+00  0.49189972726E+03  0.49189972726E+03  0.00000000000E+00 0.  1.
         21   -1    0    0  505  502 -0.00000000000E+00 -0.00000000000E+00 -0.59420996089E+03  0.59420996089E+03  0.00000000000E+00 0.  1.
         21    1    1    2  503  506 -0.44493564730E+02 -0.78396608524E+02  0.45450001157E+02  0.10095250436E+03  0.00000000000E+00 0.  1.
         21    1    1    2  504  502  0.15573059965E+03  0.18253826248E+02 -0.48305139304E+03  0.50786205820E+03  0.00000000000E+00 0.  1.
         21    1    1    2  505  501 -0.80125034057E+01  0.70535173356E+02  0.36302906062E+03  0.36990473064E+03  0.00000000000E+00 0.  1.
         21    1    1    2  506  504 -0.10322453152E+03 -0.10392391079E+02 -0.27737902365E+02  0.10739039495E+03  0.00000000000E+00 0.  1.
<scales pt_clust_3="61.67614" pt_clust_4="144.19422" pt_clust_5="70.98881" pt_clust_6="14000.00000"></scales>
<clustering>
<clus scale="   70.989">  1  5  2 -1</clus>
<clus scale="   61.676">  1  3  2 -1</clus>
<clus scale="  144.194">  2  4  1 -1</clus>
<clus scale="   70.989">  1  3  2 -1</clus>
</clustering>
</event>
<event>
 6    0  0.1080632E+003  0.1230194E+03  0.7546771E-02  0.1238198E+00
         21   -1    0    0  503  501  0.00000000000E+00  0.00000000000E+00  0.17237401772E+02  0.17237401772E+02  0.00000000000E+00 0.  1.
         21   -1    0    0  504  502 -0.00000000000E+00 -0.00000000000E+00 -0.14558756270E+04  0.14558756270E+04  0.00000000000E+00 0.  1.
         21    1    1    2  503  502  0.67272219825E+02  0.82501420645E+02 -0.53504297986E+03  0.54553004158E+03  0.00000000000E+00 0.  1.
         21    1    1    2  504  506 -0.53471892832E+01 -0.45860910673E+02 -0.22135782026E+03  0.22612187013E+03  0.00000000000E+00 0.  1.
         21    1    1    2  505  501 -0.14722022648E+02  0.33486113475E+02 -0.42122257130E+02  0.55788370582E+02  0.00000000000E+00 0.  1.
         21    1    1    2  506  505 -0.47203007894E+02 -0.70126623447E+02 -0.64011516793E+03  0.64567274644E+03  0.00000000000E+00 0.  1.
<scales pt_clust_3="116.00969" pt_clust_4="30.25154" pt_clust_5="36.57947" pt_clust_6="30.25154"></scales>
<clustering>
<clus scale="   30.252">  4  6 -1 -1</clus>
<clus scale="   36.579">  1  5  2 -1</clus>
<clus scale="  116.010">  1  3  2 -1</clus>
<clus scale="   36.579">  1  3  2 -1</clus>
</clustering>
</event>
<event>
 6    0  0.1080632E+003  0.3403287E+03  0.7546771E-02  0.1066656E+00
         21   -1    0    0  504  501  0.00000000000E+00  0.00000000000E+00  0.10174908476E+04  0.10174908476E+04  0.00000000000E+00 0.  1.
         21   -1    0    0  503  502 -0.00000000000E+00 -0.00000000000E+00 -0.17975984081E+03  0.17975984081E+03  0.00000000000E+00 0.  1.
         21    1    1    2  503  505  0.87147748444E+01 -0.80926034622E+02 -0.25127321552E+02  0.85184227816E+02  0.00000000000E+00 0. -1.
         21    1    1    2  504  506  0.77865998955E+02  0.58251316073E+02  0.12751843912E+03  0.16036608723E+03  0.00000000000E+00 0.  1.
         21    1    1    2  505  501 -0.14479054396E+03 -0.25422267494E+03  0.51801318958E+03  0.59492111633E+03  0.00000000000E+00 0.  1.
         21    1    1    2  506  502  0.58209770160E+02  0.27689739349E+03  0.21732669962E+03  0.35677925700E+03  0.00000000000E+00 0.  1.
<scales pt_clust_3="81.39392" pt_clust_4="77.94989" pt_clust_5="313.27910" pt_clust_6="77.94989"></scales>
<clustering>
<clus scale="   77.950">  4  6 -1 -1</clus>
<clus scale="   81.394">  2  3  1 -1</clus>
<clus scale="  313.279">  1  5  2 -1</clus>
<clus scale="  313.279">  1  3  2 -1</clus>
</clustering>
</event>
<event>
 6    0  0.1080632E+003  0.8183797E+02  0.7546771E-02  0.1323915E+00
         21   -1    0    0  504  501  0.00000000000E+00  0.00000000000E+00  0.21323242344E+04  0.21323242344E+04  0.00000000000E+00 0. -1.
         21   -1    0    0  506  502 -0.00000000000E+00 -0.00000000000E+00 -0.18349083378E+03  0.18349083378E+03  0.00000000000E+00 0. -1.
         21    1    1    2  503  505 -0.73268552718E+02  0.20379000841E+02  0.25298877643E+03  0.26417211339E+03  0.00000000000E+00 0. -1.
         21    1    1    2  504  502 -0.16566073708E+02  0.42521736633E+02  0.93690080116E+02  0.10421307018E+03  0.00000000000E+00 0.  1.
         21    1    1    2  505  501  0.69483942956E+02  0.18116323678E+02  0.17639139306E+04  0.17653749103E+04  0.00000000000E+00 0. -1.
         21    1    1    2  506  503  0.20350683470E+02 -0.81017061153E+02 -0.16175938654E+03  0.18205497425E+03  0.00000000000E+00 0. -1.
<scales pt_clust_3="81.83797" pt_clust_4="45.63478" pt_clust_5="77.87063" pt_clust_6="14000.00000"></scales>
<clustering>
<clus scale="   45.635">  1  4  2 -1</clus>
<clus scale="   77.871">  1  5  2 -1</clus>
<clus scale="   81.838">  1  3  2 -1</clus>
<clus scale="   45.635">  1  3  2 -1</clus>
</clustering>
</event>
<event>
 6    0  0.1080632E+003  0.1449647E+03  0.7546771E-02  0.1206801E+00
         21   -1    0    0  506  501  0.00000000000E+00  0.00000000000E+00  0.68103376979E+02  0.68103376979E+02  0.00000000000E+00 0.  1.
         21   -1    0    0  501  502 -0.00000000000E+00 -0.00000000000E+00 -0.98850658972E+03  0.98850658972E+03  0.00000000000E+00 0.  1.
         21    1    1    2  503  502  0.33178648938E+02  0.12999255918E+03 -0.80818090618E+03  0.81924066384E+03  0.00000000000E+00 0.  1.
         21    1    1    2  504  505 -0.24974756989E+02 -0.10559571637E+03 -0.84619263901E+02  0.13760310181E+03  0.00000000000E+00 0.  1.
         21    1    1    2  505  503  0.20546478148E+02 -0.33723115996E+02 -0.48853923319E+02  0.62818087685E+02  0.00000000000E+00 0.  1.
         21    1    1    2  506  504 -0.28750370097E+02  0.93262731907E+01  0.21250880657E+02  0.36948113362E+02  0.00000000000E+00 0.  1.
<scales pt_clust_3="134.50106" pt_clust_4="30.91834" pt_clust_5="30.91834" pt_clust_6="30.22521"></scales>
<clustering>
<clus scale="   30.225">  1  6  2 -1</clus>
<clus scale="   30.918">  4  5 -1 -1</clus>
<clus scale="  134.501">  2  3  1 -1</clus>
<clus scale="   30.225">  1  3  2 -1</clus>
</clustering>
</event>
<event>
 6    0  0.1080632E+003  0.1043309E+03  0.7546771E-02  0.1271444E+00
         21   -1    0    0  506  501  0.00000000000E+00  0.00000000000E+00  0.36928585154E+02  0.36928585154E+02  0.00000000000E+00 0. -1.
         21   -1    0    0  505  502 -0.00000000000E+00 -0.00000000000E+00 -0.67518033568E+03  0.67518033568E+03  0.00000000000E+00 0.  1.
         21    1    1    2  503  502  0.80403466477E+02  0.29826183452E+01 -0.39546121978E+03  0.40356311748E+03  0.00000000000E+00 0.  1.
         21    1    1    2  504  501 -0.45918165637E+02 -0.14422275914E+02 -0.11968329714E+03  0.12899833949E+03  0.00000000000E+00 0. -1.
         21    1    1    2  505  504 -0.80187989107E+02 -0.80810082419E+01 -0.69184491051E+02  0.10621633628E+03  0.00000000000E+00 0. -1.
         21    1    1    2  506  503  0.45702688267E+02  0.19520665810E+02 -0.53922742558E+02  0.73331127589E+02  0.00000000000E+00 0.  1.
<scales pt_clust_3="87.40246" pt_clust_4="44.02632" pt_clust_5="44.02632" pt_clust_6="49.69700"></scales>
<clustering>
<clus scale="   44.026">  4  5 -1 -1</clus>
<clus scale="   49.697">  1  6  2 -1</clus>
<clus scale="   87.402">  2  3  1 -1</clus>
<clus scale="   49.697">  1  3  2 -1</clus>
</clustering>
</event>
<event>
 6    0  0.1080632E+003  0.9966465E+02  0.7546771E-02  0.1281003E+00
         21   -1    0    0  506  501  0.00000000000E+00  0.00000000000E+00  0.21323110551E+02  0.21323110551E+02  0.00000000000E+00 0. -1.
         21   -1    0    0  503  502 -0.00000000000E+00 -0.00000000000E+00 -0.18825774138E+04  0.18825774138E+04  0.00000000000E+00 0.  1.
         21    1    1    2  503  501  0.40253772250E+02  0.76349441103E+02 -0.97764902686E+02  0.13041311105E+03  0.00000000000E+00 0. -1.
         21    1    1    2  504  502  0.49082943123E+02  0.91268104180E+01 -0.30541642425E+03  0.30946991158E+03  0.00000000000E+00 0.  1.
         21    1    1    2  505  504 -0.10504251691E+02 -0.38599520676E+02 -0.42016434176E+03  0.42206437469E+03  0.00000000000E+00 0.  1.
         21    1    1    2  506  505 -0.78832463682E+02 -0.46876730845E+02 -0.10379086345E+04  0.10419531270E+04  0.00000000000E+00 0.  1.
<scales pt_clust_3="88.59932" pt_clust_4="49.92428" pt_clust_5="30.14317" pt_clust_6="30.14317"></scales>
<clustering>
<clus scale="   30.143">  5  6 -1 -1</clus>
<clus scale="   49.924">  2  4  1 -1</clus>
<clus scale="   88.599">  1  3  2 -1</clus>
<clus scale="   88.599">  1  3  2 -1</clus>
</clustering>
</event>
<event>
 6    0  0.1080632E+003  0.1981874E+03  0.7546771E-02  0.1151277E+00
         21   -1    0    0  506  501  0.00000000000E+00  0.00000000000E+00  0.14125535303E+04  0.14125535303E+04  0.00000000000E+00 0. -1.
         21   -1    0    0  505  502 -0.00000000000E+00 -0.00000000000E+00 -0.14261994491E+03  0.14261994491E+03  0.00000000000E+00 0. -1.
         21    1    1    2  503  502  0.13919122114E+03 -0.11727327749E+02  0.87426192317E+03  0.88535057269E+03  0.00000000000E+00 0. -1.
         21    1    1    2  504  501 -0.13441362056E+03  0.56192730044E+02  0.55751762695E+02  0.15599007451E+03  0.00000000000E+00 0.  1.
         21    1    1    2  505  504 -0.54419744346E+02 -0.19278070469E+01 -0.75617788308E+02  0.93184091578E+02  0.00000000000E+00 0. -1.
         21    1    1    2  506  503  0.49642143765E+02 -0.42537595247E+02  0.41553768788E+03  0.42064873647E+03  0.00000000000E+00 0. -1.
<scales pt_clust_3="40.17358" pt_clust_4="189.28764" pt_clust_5="54.45388" pt_clust_6="40.17358"></scales>
<clustering>
<clus scale="   40.174">  3  6 -1 -1</clus>
<clus scale="   54.454">  2  5  1 -1</clus>
<clus scale="  189.288">  2  4  1 -1</clus>
<clus scale="  198.187">  1  3  2 -1</clus>
</clustering>
</event>
<event>
 6    0  0.1080632E+003  0.1140555E+03  0.7546771E-02  0.1253239E+00
         21   -1    0    0  506  501  0.00000000000E+00  0.00000000000E+00  0.79737647061E+03  0.79737647061E+03  0.00000000000E+00 0.  1.
         21   -1    0    0  503  502 -0.00000000000E+00 -0.00000000000E+00 -0.12129620365E+03  0.12129620365E+03  0.00000000000E+00 0.  1.
         21    1    1    2  503  501 -0.98033967941E+02 -0.41817948595E+02  0.37736629178E+03  0.39212844563E+03  0.00000000000E+00 0.  1.
         21    1    1    2  504  502 -0.46602057605E+02  0.60950661695E+02 -0.44399632553E+02  0.88645712276E+02  0.00000000000E+00 0.  1.
         21    1    1    2  505  504  0.81753159273E+02 -0.12322361029E+03  0.21797788220E+03  0.26340462091E+03  0.00000000000E+00 0.  1.
         21    1    1    2  506  505  0.62882866273E+02  0.10409089719E+03  0.12513572552E+03  0.17449389545E+03  0.00000000000E+00 0.  1.
<scales pt_clust_3="109.59310" pt_clust_4="76.72506" pt_clust_5="114.05550" pt_clust_6="14000.00000"></scales>
<clustering>
<clus scale="   76.725">  2  4  1 -1</clus>
<clus scale="  109.593">  1  3  2 -1</clus>
<clus scale="  114.056">  2  5  1 -1</clus>
<clus scale="  109.593">  1  3  2 -1</clus>
</clustering>
</event>
<event>
 6    0  0.1080632E+003  0.9457216E+02  0.7546771E-02  0.1292143E+00
         21   -1    0    0  504  501  0.00000000000E+00  0.00000000000E+00  0.12737339421E+04  0.12737339421E+04  0.00000000000E+00 0.  1.
         21   -1    0    0  503  502 -0.00000000000E+00 -0.00000000000E+00 -0.14948586706E+04  0.14948586706E+04  0.00000000000E+00 0. -1.
         21    1    1    2  503  506 -0.14707409580E+02  0.33772453101E+02 -0.26540037116E+03  0.26794447838E+03  0.00000000000E+00 0. -1.
         21    1    1    2  504  505  0.77676826889E+02 -0.53936550000E+02  0.12531714650E+04  0.12567344833E+04  0.00000000000E+00 0.  1.
         21    1    1    2  505  502  0.62747962793E+02  0.29245095211E+02 -0.71383827556E+02  0.99439596063E+02  0.00000000000E+00 0. -1.
         21    1    1    2  506  501 -0.12571738010E+03 -0.90809983126E+01 -0.11375119947E+04  0.11444740549E+04  0.00000000000E+00 0. -1.
<scales pt_clust_3="36.83594" pt_clust_4="94.57216" pt_clust_5="69.34090" pt_clust_6="14000.00000"></scales>
<clustering>
<clus scale="   36.836">  2  3  1 -1</clus>
<clus scale="   69.341">  2  5  1 -1</clus>
<clus scale="   94.572">  1  4  2 -1</clus>
<clus scale="   94.572">  1  3  2 -1</clus>
</clustering>
</event>
<event>
 6    0  0.1080632E+003  0.7278494E+02  0.7546771E-02  0.1350871E+00
         21   -1    0    0  504  501  0.00000000000E+00  0.00000000000E+00  0.22283605596E+02  0.22283605596E+02  0.00000000000E+00 0. -1.
         21   -1    0    0  505  502 -0.00000000000E+00 -0.00000000000E+00 -0.13333672065E+04  0.13333672065E+04  0.00000000000E+00 0.  1.
         21    1    1    2  503  501  0.98532133938E+02  0.64863500825E+02 -0.31264999673E+03  0.33416444397E+03  0.00000000000E+00 0. -1.
         21    1    1    2  504  506 -0.57612560869E+02 -0.25424097721E+01 -0.82452887177E+02  0.10061883333E+03  0.00000000000E+00 0. -1.
         21    1    1    2  505  503 -0.93461852651E+01 -0.32065333729E+02 -0.15153818285E+03  0.15517524824E+03  0.00000000000E+00 0. -1.
         21    1    1    2  506  502 -0.31573387804E+02 -0.30255757324E+02 -0.76444253418E+03  0.76569228658E+03  0.00000000000E+00 0.  1.
<scales pt_clust_3="14000.00000" pt_clust_4="58.55399" pt_clust_5="33.39965" pt_clust_6="72.78494"></scales>
<clustering>
<clus scale="   33.400">  2  5  1 -1</clus>
<clus scale="   58.554">  1  4  2 -1</clus>
<clus scale="   72.785">  2  6  1 -1</clus>
<clus scale="   58.554">  1  3  2 -1</clus>
</clustering>
</event>
<event>
 6    0  0.1080632E+003  0.1954969E+03  0.7546771E-02  0.1153595E+00
         21   -1    0    0  504  501  0.00000000000E+00  0.00000000000E+00  0.12332993005E+03  0.12332993005E+03  0.00000000000E+00 0. -1.
         21   -1    0    0  503  502 -0.00000000000E+00 -0.00000000000E+00 -0.10532666596E+04  0.10532666596E+04  0.00000000000E+00 0. -1.
         21    1    1    2  503  505  0.15061850112E+03 -0.22645559940E+02 -0.47297197432E+03  0.49689158049E+03  0.00000000000E+00 0. -1.
         21    1    1    2  504  502  0.86317419502E+02 -0.92361747051E+02  0.20749541828E+02  0.12810906570E+03  0.00000000000E+00 0. -1.
         21    1    1    2  505  506 -0.20675139001E+03  0.10350872563E+03 -0.45979748176E+03  0.51465903061E+03  0.00000000000E+00 0. -1.
         21    1    1    2  506  501 -0.30184530607E+02  0.11498581365E+02 -0.17916815300E+02  0.36936912863E+02  0.00000000000E+00 0. -1.
<scales pt_clust_3="177.58715" pt_clust_4="126.41752" pt_clust_5="30.55235" pt_clust_6="30.55235"></scales>
<clustering>
<clus scale="   30.552">  5  6 -1 -1</clus>
<clus scale="  126.418">  1  4  2 -1</clus>
<clus scale="  177.587">  2  3  1 -1</clus>
<clus scale="  126.418">  1  3  2 -1</clus>
</clustering>
</event>
<event>
 6    0  0.1080632E+003  0.8673693E+02  0.7546771E-02  0.1310952E+00
         21   -1    0    0  505  501  0.00000000000E+00  0.00000000000E+00  0.58036776680E+02  0.58036776680E+02  0.00000000000E+00 0. -1.
         21   -1    0    0  503  502 -0.00000000000E+00 -0.00000000000E+00 -0.89954099262E+03  0.89954099262E+03  0.00000000000E+00 0.  1.
         21    1    1    2  503  504  0.39256447670E+02  0.20587761243E+02 -0.23586899754E+03  0.23999814290E+03  0.00000000000E+00 0.  1.
         21    1    1    2  504  501  0.83725331448E+02 -0.59008850617E+02 -0.52227653235E+03  0.53222622241E+03  0.00000000000E+00 0.  1.
         21    1    1    2  505  506 -0.83567817105E+02  0.20459624559E+02  0.57993190601E+01  0.86231133556E+02  0.00000000000E+00 0. -1.
         21    1    1    2  506  502 -0.39413962013E+02  0.17961464816E+02 -0.89158005106E+02  0.99122270426E+02  0.00000000000E+00 0. -1.
<scales pt_clust_3="37.85443" pt_clust_4="86.73693" pt_clust_5="14000.00000" pt_clust_6="43.31368"></scales>
<clustering>
<clus scale="   43.314">  2  6  1 -1</clus>
<clus scale="   37.854">  2  3  1 -1</clus>
<clus scale="   86.737">  2  4  1 -1</clus>
<clus scale="   86.737">  1  3  2 -1</clus>
</clustering>
</event>
<event>
 6    0  0.1080632E+003  0.1602297E+03  0.7546771E-02  0.1188438E+00
         21   -1    0    0  503  501  0.00000000000E+00  0.00000000000E+00  0.23120902421E+04  0.23120902421E+04  0.00000000000E+00 0.  1.
         21   -1    0    0  506  502 -0.00000000000E+00 -0.00000000000E+00 -0.44767244564E+02  0.44767244564E+02  0.00000000000E+00 0. -1.
         21    1    1    2  503  505  0.63452017186E+02 -0.11952327728E+02  0.15671557281E+03  0.16949568544E+03  0.00000000000E+00 0. -1.
         21    1    1    2  504  501 -0.43761458158E+02 -0.53777046171E+00  0.17340514515E+04  0.17346036408E+04  0.00000000000E+00 0.  1.
         21    1    1    2  505  502  0.11446493967E+03 -0.91749119900E+01  0.15618996405E+03  0.19386001727E+03  0.00000000000E+00 0. -1.
         21    1    1    2  506  504 -0.13415549870E+03  0.21665010180E+02  0.22036600916E+03  0.25889814308E+03  0.00000000000E+00 0. -1.
<scales pt_clust_3="33.67411" pt_clust_4="43.76476" pt_clust_5="33.67411" pt_clust_6="153.80786"></scales>
<clustering>
<clus scale="   33.674">  3  5 -1 -1</clus>
<clus scale="   43.765">  1  4  2 -1</clus>
<clus scale="  153.808">  2  6  1 -1</clus>
<clus scale="   43.765">  1  3  2 -1</clus>
</clustering>
</event>
<event>
 6    0  0.1080632E+003  0.1306553E+03  0.7546771E-02  0.1226487E+00
         21   -1    0    0  506  501  0.00000000000E+00  0.00000000000E+00  0.15402527851E+03  0.15402527851E+03  0.00000000000E+00 0.  1.
         21   -1    0    0  505  502 -0.00000000000E+00 -0.00000000000E+00 -0.41249257995E+03  0.41249257995E+03  0.00000000000E+00 0.  1.
         21    1    1    2  503  502 -0.34359162008E+02 -0.80285519472E+02 -0.21810046073E+03  0.23493430490E+03  0.00000000000E+00 0.  1.
         21    1    1    2  504  503 -0.85248134310E+02  0.13767275341E+03 -0.64059211578E+02  0.17413963944E+03  0.00000000000E+00 0.  1.
         21    1    1    2  505  501  0.32525348937E+02  0.13561573132E+02  0.28040676132E+02  0.45034365847E+02  0.00000000000E+00 0.  1.
         21    1    1    2  506  504  0.87081947381E+02 -0.70948807071E+02 -0.43483052742E+01  0.11240954827E+03  0.00000000000E+00 0.  1.
<scales pt_clust_3="85.53690" pt_clust_4="130.65525" pt_clust_5="35.23939" pt_clust_6="14000.00000"></scales>
<clustering>
<clus scale="   35.239">  1  5  2 -1</clus>
<clus scale="   85.537">  2  3  1 -1</clus>
<clus scale="  130.655">  2  4  1 -1</clus>
<clus scale="   35.239">  1  3  2 -1</clus>
</clustering>
</event>
<event>
 6    0  0.1080632E+003  0.7925345E+02  0.7546771E-02  0.1331183E+00
         21   -1    0    0  505  501  0.00000000000E+00  0.00000000000E+00  0.20291096350E+04  0.20291096350E+04  0.00000000000E+00 0.  1.
         21   -1    0    0  503  502 -0.00000000000E+00 -0.00000000000E+00 -0.13658386442E+04  0.13658386442E+04  0.00000000000E+00 0.  1.
         21    1    1    2  503  501  0.26646077269E+02  0.23165439774E+02  0.14386186949E+03  0.14813132189E+03  0.00000000000E+00 0. -1.
         21    1    1    2  504  502  0.75464762691E+02  0.24008206299E+02 -0.13575818222E+04  0.13598896015E+04  0.00000000000E+00 0.  1.
         21    1    1    2  505  506  0.37386116793E+02  0.10573308436E+02  0.55121997163E+03  0.55258752583E+03  0.00000000000E+00 0.  1.
         21    1    1    2  506  504 -0.13949695675E+03 -0.57746954509E+02  0.13257709719E+04  0.13343398299E+04  0.00000000000E+00 0.  1.
<scales pt_clust_3="35.30795" pt_clust_4="79.25345" pt_clust_5="48.41591" pt_clust_6="14000.00000"></scales>
<clustering>
<clus scale="   35.308">  1  3  2 -1</clus>
<clus scale="   48.416">  1  5  2 -1</clus>
<clus scale="   79.253">  2  4  1 -1</clus>
<clus scale="   35.308">  1  3  2 -1</clus>
</clustering>
</event>
<event>
 6    0  0.1080632E+003  0.1092603E+03  0.7546771E-02  0.1261946E+00
         21   -1    0    0  503  501  0.00000000000E+00  0.00000000000E+00  0.34083013519E+03  0.34083013519E+03  0.00000000000E+00 0.  1.
         21   -1    0    0  506  502 -0.00000000000E+00 -0.00000000000E+00 -0.16545936244E+03  0.16545936244E+03  0.00000000000E+00 0.  1.
         21    1    1    2  503  504  0.79068401694E+02 -0.53965323320E+02  0.54148415609E+02  0.10998235850E+03  0.00000000000E+00 0.  1.
         21    1    1    2  504  502  0.35881967715E+02 -0.17053565229E+02 -0.64910236523E+02  0.76103078122E+02  0.00000000000E+00 0.  1.
         21    1    1    2  505  501 -0.11164540434E+03  0.36248476455E+02  0.23350441941E+03  0.26134835419E+03  0.00000000000E+00 0.  1.
         21    1    1    2  506  505 -0.33049650683E+01  0.34770412094E+02 -0.47371825740E+02  0.58855706819E+02  0.00000000000E+00 0.  1.
<scales pt_clust_3="109.26033" pt_clust_4="34.14237" pt_clust_5="14000.00000" pt_clust_6="34.92713"></scales>
<clustering>
<clus scale="   34.927">  2  6  1 -1</clus>
<clus scale="   34.142">  2  4  1 -1</clus>
<clus scale="  109.260">  2  3  1 -1</clus>
<clus scale="  109.260">  1  3  2 -1</clus>
</clustering>
</event>
<event>
 6    0  0.1080632E+003  0.1087376E+03  0.7546771E-02  0.1262926E+00
         21   -1    0    0  506  501  0.00000000000E+00  0.00000000000E+00  0.40043678357E+03  0.40043678357E+03  0.00000000000E+00 0. -1.
         21   -1    0    0  504  502 -0.00000000000E+00 -0.00000000000E+00 -0.11829394264E+04  0.11829394264E+04  0.00000000000E+00 0. -1.
         21    1    1    2  503  501 -0.95573885270E+02 -0.39327112293E+02 -0.68077600495E+02  0.12375600590E+03  0.00000000000E+00 0. -1.
         21    1    1    2  504  503  0.61612589989E+02  0.48835844135E+02 -0.80660336261E+03  0.81042583590E+03  0.00000000000E+00 0. -1.
         21    1    1    2  505  502  0.57488275882E+02 -0.42008202342E+02 -0.27284013188E+03  0.28197753189E+03  0.00000000000E+00 0. -1.
         21    1    1    2  506  505 -0.23526980600E+02  0.32499470499E+02  0.36501845218E+03  0.36721683625E+03  0.00000000000E+00 0. -1.
<scales pt_clust_3="108.73759" pt_clust_4="14000.00000" pt_clust_5="66.14014" pt_clust_6="40.12150"></scales>
<clustering>
<clus scale="   40.121">  1  6  2 -1</clus>
<clus scale="   66.140">  2  5  1 -1</clus>
<clus scale="  108.738">  1  3  2 -1</clus>
<clus scale="   40.121">  1  3  2 -1</clus>
</clustering>
</event>
<event>
 6    0  0.1080632E+003  0.1803518E+03  0.7546771E-02  0.1167463E+00
         21   -1    0    0  503  501  0.00000000000E+00  0.00000000000E+00  0.27110279998E+03  0.27110279998E+03  0.00000000000E+00 0.  1.
         21   -1    0    0  505  502 -0.00000000000E+00 -0.00000000000E+00 -0.37055430754E+03  0.37055430754E+03  0.00000000000E+00 0. -1.
         21    1    1    2  503  506  0.84428121556E+02 -0.11466443483E+03  0.18197573183E+03  0.23106537452E+03  0.00000000000E+00 0.  1.
         21    1    1    2  504  502 -0.30624301175E+02  0.13656401279E+03 -0.26495744909E+03  0.29964984105E+03  0.00000000000E+00 0. -1.
         21    1    1    2  505  501 -0.49141250905E+02 -0.54928091269E+02  0.89103531296E-01  0.73701870332E+02  0.00000000000E+00 0. -1.
         21    1    1    2  506  504 -0.46625694754E+01  0.33028513312E+02 -0.16558893839E+02  0.37240021628E+02  0.00000000000E+00 0.  1.
<scales pt_clust_3="168.19704" pt_clust_4="31.77587" pt_clust_5="73.70182" pt_clust_6="31.77587"></scales>
<clustering>
<clus scale="   31.776">  4  6 -1 -1</clus>
<clus scale="   73.702">  1  5  2 -1</clus>
<clus scale="  168.197">  1  3  2 -1</clus>
<clus scale="   73.702">  1  3  2 -1</clus>
</clustering>
</event>
<event>
 6    0  0.1080632E+003  0.8245684E+02  0.7546771E-02  0.1322220E+00
         21   -1    0    0  504  501  0.00000000000E+00  0.00000000000E+00  0.14124950397E+03  0.14124950397E+03  0.00000000000E+00 0. -1.
         21   -1    0    0  503  502 -0.00000000000E+00 -0.00000000000E+00 -0.47233057159E+03  0.47233057159E+03  0.00000000000E+00 0.  1.
         21    1    1    2  503  501 -0.95623226534E+02  0.71909165618E+02 -0.17179840102E+03  0.20935477101E+03  0.00000000000E+00 0.  1.
         21    1    1    2  504  506  0.59643437918E+02 -0.32461222005E+01  0.10376291365E+03  0.11972727026E+03  0.00000000000E+00 0. -1.
         21    1    1    2  505  502 -0.18827051975E+02 -0.40360266997E+02 -0.13903555849E+03  0.14599416277E+03  0.00000000000E+00 0.  1.
         21    1    1    2  506  505  0.54806840592E+02 -0.28302776421E+02 -0.12401002176E+03  0.13850387152E+03  0.00000000000E+00 0. -1.
<scales pt_clust_3="14000.00000" pt_clust_4="59.33824" pt_clust_5="44.53548" pt_clust_6="82.45684"></scales>
<clustering>
<clus scale="   44.535">  2  5  1 -1</clus>
<clus scale="   59.338">  1  4  2 -1</clus>
<clus scale="   82.457">  2  6  1 -1</clus>
<clus scale="   59.338">  1  3  2 -1</clus>
</clustering>
</event>
<event>
 6    0  0.1080632E+003  0.3202648E+03  0.7546771E-02  0.1075528E+00
         21   -1    0    0  505  501  0.00000000000E+00  0.00000000000E+00  0.25910338768E+03  0.25910338768E+03  0.00000000000E+00 0. -1.
         21   -1    0    0  501  502 -0.00000000000E+00 -0.00000000000E+00 -0.61351955719E+03  0.61351955719E+03  0.00000000000E+00 0. -1.
         21    1    1    2  503  502  0.17518115501E+03 -0.24032851668E+03 -0.32522120238E+03  0.44069838152E+03  0.00000000000E+00 0. -1.
         21    1    1    2  504  506 -0.14757690699E+03  0.25572258843E+03 -0.10544462322E+03  0.31351483901E+03  0.00000000000E+00 0. -1.
         21    1    1    2  505  504 -0.19725850330E+02 -0.49578275440E+02  0.58201139181E+02  0.78958768789E+02  0.00000000000E+00 0. -1.
         21    1    1    2  506  503 -0.78783976867E+01  0.34184203686E+02  0.18048516906E+02  0.39450955556E+02  0.00000000000E+00 0. -1.
<scales pt_clust_3="306.32506" pt_clust_4="32.21474" pt_clust_5="53.35836" pt_clust_6="32.21474"></scales>
<clustering>
<clus scale="   32.215">  4  6 -1 -1</clus>
<clus scale="   53.358">  1  5  2 -1</clus>
<clus scale="  306.325">  2  3  1 -1</clus>
<clus scale="   53.358">  1  3  2 -1</clus>
</clustering>
</event>
<event>
 6    0  0.1080632E+003  0.9488027E+02  0.7546771E-02  0.1291446E+00
         21   -1    0    0  504  501  0.00000000000E+00  0.00000000000E+00  0.52230612866E+03  0.52230612866E+03  0.00000000000E+00 0. -1.
         21   -1    0    0  503  502 -0.00000000000E+00 -0.00000000000E+00 -0.30931736747E+03  0.30931736747E+03  0.00000000000E+00 0.  1.
         21    1    1    2  503  501  0.47654898994E+02  0.11335671106E+03 -0.18993361602E+01  0.12298105878E+03  0.00000000000E+00 0.  1.
         21    1    1    2  504  505 -0.34100849926E+02 -0.86243773074E+02  0.44689362803E+03  0.45641513026E+03  0.00000000000E+00 0. -1.
         21    1    1    2  505  506  0.25093643324E+02 -0.36454108398E+02 -0.53916441897E+02  0.69753678478E+02  0.00000000000E+00 0.  1.
         21    1    1    2  506  502 -0.38647692391E+02  0.93411704110E+01 -0.17808908878E+03  0.18247362860E+03  0.00000000000E+00 0.  1.
<scales pt_clust_3="94.88027" pt_clust_4="14000.00000" pt_clust_5="32.64637" pt_clust_6="39.76055"></scales>
<clustering>
<clus scale="   39.761">  2  6  1 -1</clus>
<clus scale="   32.646">  2  5  1 -1</clus>
<clus scale="   94.880">  2  3  1 -1</clus>
<clus scale="   94.880">  1  3  2 -1</clus>
</clustering>
</event>
<event>
 6    0  0.1080632E+003  0.8440335E+02  0.7546771E-02  0.1317000E+00
         21   -1    0    0  504  501  0.00000000000E+00  0.00000000000E+00  0.13877168055E+03  0.13877168055E+03  0.00000000000E+00 0.  1.
         21   -1    0    0  506  502 -0.00000000000E+00 -0.00000000000E+00 -0.12664257473E+04  0.12664257473E+04  0.00000000000E+00 0. -1.
         21    1    1    2  503  501 -0.65977042682E+02  0.37584472384E+02 -0.15245152800E+03  0.17031450647E+03  0.00000000000E+00 0. -1.
         21    1    1    2  504  505 -0.38124802159E+02 -0.27863841438E+01  0.11715114477E+03  0.12323009047E+03  0.00000000000E+00 0.  1.
         21    1    1    2  505  502  0.15754828514E+02 -0.44678757972E+02 -0.64854089819E+02  0.80314749590E+02  0.00000000000E+00 0. -1.
         21    1    1    2  506  503  0.88347016328E+02  0.98806697325E+01 -0.10274995937E+04  0.10313380813E+04  0.00000000000E+00 0. -1.
<scales pt_clust_3="14000.00000" pt_clust_4="38.22649" pt_clust_5="45.83811" pt_clust_6="84.40335"></scales>
<clustering>
<clus scale="   38.226">  1  4  2 -1</clus>
<clus scale="   45.838">  1  5  2 -1</clus>
<clus scale="   84.403">  2  6  1 -1</clus>
<clus scale="   38.226">  1  3  2 -1</clus>
</clustering>
</event>
<event>
 6    0  0.1080632E+003  0.7357114E+02  0.7546771E-02  0.1348354E+00
         21   -1    0    0  504  501  0.00000000000E+00  0.00000000000E+00  0.18884163714E+03  0.18884163714E+03  0.00000000000E+00 0. -1.
         21   -1    0    0  505  502 -0.00000000000E+00 -0.00000000000E+00 -0.26526220253E+03  0.26526220253E+03  0.00000000000E+00 0. -1.
         21    1    1    2  503  506 -0.36339255714E+02 -0.50503012396E+02 -0.58754421453E+02  0.85575567816E+02  0.00000000000E+00 0. -1.
         21    1    1    2  504  503 -0.62362016709E+02  0.27011287509E+01  0.10615353853E+03  0.12314581181E+03  0.00000000000E+00 0. -1.
         21    1    1    2  505  501  0.66307703164E+02  0.74620355571E+02  0.14444558836E+02  0.10086403841E+03  0.00000000000E+00 0. -1.
         21    1    1    2  506  502  0.32393569259E+02 -0.26818471927E+02 -0.13826424131E+03  0.14451842163E+03  0.00000000000E+00 0. -1.
<scales pt_clust_3="73.57114" pt_clust_4="60.14636" pt_clust_5="14000.00000" pt_clust_6="42.05441"></scales>
<clustering>
<clus scale="   42.054">  2  6  1 -1</clus>
<clus scale="   60.146">  1  4  2 -1</clus>
<clus scale="   73.571">  2  3  1 -1</clus>
<clus scale="   60.146">  1  3  2 -1</clus>
</clustering>
</event>
<event>
 6    0  0.1080632E+003  0.7749049E+02  0.7546771E-02  0.1336328E+00
         21   -1    0    0  503  501  0.00000000000E+00  0.00000000000E+00  0.52182243617E+03  0.52182243617E+03  0.00000000000E+00 0. -1.
         21   -1    0    0  504  502 -0.00000000000E+00 -0.00000000000E+00 -0.17407611886E+03  0.17407611886E+03  0.00000000000E+00 0.  1.
         21    1    1    2  503  502  0.50769653261E+02  0.70305377524E+02 -0.38680024894E+02  0.94955506038E+02  0.00000000000E+00 0.  1.
         21    1    1    2  504  506  0.59413332357E+01 -0.60976917568E+02 -0.31202518646E+02  0.68753771435E+02  0.00000000000E+00 0. -1.
         21    1    1    2  505  501  0.45940266034E+02 -0.19150966964E+02  0.42584366656E+03  0.42874245874E+03  0.00000000000E+00 0. -1.
         21    1    1    2  506  505 -0.10265125253E+03  0.98225070074E+01 -0.82148057120E+01  0.10344681881E+03  0.00000000000E+00 0.  1.
<scales pt_clust_3="77.49049" pt_clust_4="66.50962" pt_clust_5="49.77216" pt_clust_6="14000.00000"></scales>
<clustering>
<clus scale="   49.772">  1  5  2 -1</clus>
<clus scale="   66.510">  2  4  1 -1</clus>
<clus scale="   77.490">  2  3  1 -1</clus>
<clus scale="   49.772">  1  3  2 -1</clus>
</clustering>
</event>
<event>
 6    0  0.1080632E+003  0.1119974E+03  0.7546771E-02  0.1256915E+00
         21   -1    0    0  506  501  0.00000000000E+00  0.00000000000E+00  0.31367024320E+03  0.31367024320E+03  0.00000000000E+00 0.  1.
         21   -1    0    0  505  502 -0.00000000000E+00 -0.00000000000E+00 -0.18937542832E+04  0.18937542832E+04  0.00000000000E+00 0.  1.
         21    1    1    2  503  502 -0.11435005590E+03 -0.25237193461E+01 -0.16612994137E+04  0.16652321299E+04  0.00000000000E+00 0.  1.
         21    1    1    2  504  503  0.81478600583E+02 -0.84939290821E+02 -0.11531747558E+03  0.16477732141E+03  0.00000000000E+00 0.  1.
         21    1    1    2  505  501 -0.40337930150E+02  0.33169140912E+02  0.26074424457E+03  0.26592273613E+03  0.00000000000E+00 0.  1.
         21    1    1    2  506  504  0.73209385468E+02  0.54293869255E+02 -0.64211395249E+02  0.11149233893E+03  0.00000000000E+00 0.  1.
<scales pt_clust_3="14000.00000" pt_clust_4="111.99743" pt_clust_5="52.22395" pt_clust_6="88.46873"></scales>
<clustering>
<clus scale="   52.224">  1  5  2 -1</clus>
<clus scale="   88.469">  1  6  2 -1</clus>
<clus scale="  111.997">  1  4  2 -1</clus>
<clus scale="   52.224">  1  3  2 -1</clus>
</clustering>
</event>
<event>
 6    0  0.1080632E+003  0.2446207E+03  0.7546771E-02  0.1116752E+00
         21   -1    0    0  504  501  0.00000000000E+00  0.00000000000E+00  0.46926915375E+03  0.46926915375E+03  0.00000000000E+00 0.  1.
         21   -1    0    0  506  502 -0.00000000000E+00 -0.00000000000E+00 -0.35828149119E+03  0.35828149119E+03  0.00000000000E+00 0. -1.
         21    1    1    2  503  502 -0.76623717230E+02 -0.12131289873E+03 -0.19471123038E+03  0.24186871786E+03  0.00000000000E+00 0. -1.
         21    1    1    2  504  505 -0.77596497268E+02  0.17659040235E+03  0.13044462253E+03  0.23285443122E+03  0.00000000000E+00 0.  1.
         21    1    1    2  505  503 -0.10822020670E+02  0.61780632855E+02  0.13167122845E+03  0.14584675221E+03  0.00000000000E+00 0.  1.
         21    1    1    2  506  501  0.16504223517E+03 -0.11705813647E+03  0.43583041955E+02  0.20698074367E+03  0.00000000000E+00 0. -1.
<scales pt_clust_3="143.48524" pt_clust_4="57.22667" pt_clust_5="57.22667" pt_clust_6="223.08739"></scales>
<clustering>
<clus scale="   57.227">  4  5 -1 -1</clus>
<clus scale="  143.485">  2  3  1 -1</clus>
<clus scale="  223.087">  2  6  1 -1</clus>
<clus scale="  244.621">  1  3  2 -1</clus>
</clustering>
</event>
<event>
 6    0  0.1080632E+003  0.1885384E+03  0.7546771E-02  0.1159786E+00
         21   -1    0    0  503  501  0.00000000000E+00  0.00000000000E+00  0.26171722888E+03  0.26171722888E+03  0.00000000000E+00 0.  1.
         21   -1    0    0  506  502 -0.00000000000E+00 -0.00000000000E+00 -0.25256364157E+04  0.25256364157E+04  0.00000000000E+00 0.  1.
         21    1    1    2  503  505 -0.12528402324E+03  0.12827630323E+03  0.18171866928E+03  0.25528919134E+03  0.00000000000E+00 0.  1.
         21    1    1    2  504  501  0.63600857535E+02 -0.11453930660E+03 -0.97720644591E+02  0.16344309779E+03  0.00000000000E+00 0.  1.
         21    1    1    2  505  502  0.14587318067E+02  0.32262745824E+02 -0.22520390222E+04  0.22523173471E+04  0.00000000000E+00 0.  1.
         21    1    1    2  506  504  0.47095847639E+02 -0.45999742455E+02 -0.95878189310E+02  0.11630400834E+03  0.00000000000E+00 0.  1.
<scales pt_clust_3="181.09479" pt_clust_4="37.58742" pt_clust_5="35.40727" pt_clust_6="37.58742"></scales>
<clustering>
<clus scale="   35.407">  2  5  1 -1</clus>
<clus scale="   37.587">  4  6 -1 -1</clus>
<clus scale="  181.095">  1  3  2 -1</clus>
<clus scale="  181.095">  1  3  2 -1</clus>
</clustering>
</event>
<event>
 6    0  0.1262736E+003  0.1326665E+03  0.7546771E-02  0.1223552E+00
         21   -1    0    0  505  501  0.00000000000E+00  0.00000000000E+00  0.60559572183E+03  0.60559572183E+03  0.00000000000E+00 0.  1.
         21   -1    0    0  504  502 -0.00000000000E+00 -0.00000000000E+00 -0.42020610071E+03  0.42020610071E+03  0.00000000000E+00 0. -1.
         21    1    1    2  503  501 -0.48981100844E+02  0.33856770498E+02  0.51822986483E+03  0.52163936004E+03  0.00000000000E+00 0.  1.
         21    1    1    2  504  506 -0.44925970542E+02 -0.17932639667E+02  0.28464994852E+02  0.56126449438E+02  0.00000000000E+00 0. -1.
         21    1    1    2  505  502  0.13190895395E+03  0.25109691928E+02 -0.36797760546E+03  0.39171161188E+03  0.00000000000E+00 0. -1.
         21    1    1    2  506  503 -0.38001882561E+02 -0.41033822759E+02  0.66723669039E+01  0.56324401182E+02  0.00000000000E+00 0. -1.
<scales pt_clust_3="59.54351" pt_clust_4="30.22864" pt_clust_5="128.62311" pt_clust_6="30.22864"></scales>
<clustering>
<clus scale="   30.229">  4  6 -1 -1</clus>
<clus scale="   59.544">  1  3  2 -1</clus>
<clus scale="  128.623">  2  5  1 -1</clus>
<clus scale="   59.544">  1  3  2 -1</clus>
</clustering>
</event>
<event>
 6    0  0.1080632E+003  0.1322741E+03  0.7546771E-02  0.1224120E+00
         21   -1    0    0  503  501  0.00000000000E+00  0.00000000000E+00  0.41618675935E+03  0.41618675935E+03  0.00000000000E+00 0. -1.
         21   -1    0    0  506  502 -0.00000000000E+00 -0.00000000000E+00 -0.17686405399E+03  0.17686405399E+03  0.00000000000E+00 0. -1.
         21    1    1    2  503  502  0.19250480075E+02 -0.15354894627E+03 -0.94806822717E+01  0.15504110171E+03  0.00000000000E+00 0. -1.
         21    1    1    2  504  501 -0.69790245741E+02 -0.53417186845E+01  0.23689104482E+03  0.24701534259E+03  0.00000000000E+00 0. -1.
         21    1    1    2  505  504  0.75465686993E+02  0.11063559124E+03 -0.52767557203E+01  0.13402666941E+03  0.00000000000E+00 0. -1.
         21    1    1    2  506  505 -0.24925921327E+02  0.48255073713E+02  0.17189098527E+02  0.56967699630E+02  0.00000000000E+00 0.  1.
<scales pt_clust_3="14000.00000" pt_clust_4="70.69549" pt_clust_5="132.27408" pt_clust_6="54.31256"></scales>
<clustering>
<clus scale="   54.313">  2  6  1 -1</clus>
<clus scale="   70.695">  1  4  2 -1</clus>
<clus scale="  132.274">  1  5  2 -1</clus>
<clus scale="   70.695">  1  3  2 -1</clus>
</clustering>
</event>
<event>
 6    0  0.1080632E+003  0.9377588E+02  0.7546771E-02  0.1293957E+00
         21   -1    0    0  506  501  0.00000000000E+00  0.00000000000E+00  0.22264938260E+03  0.22264938260E+03  0.00000000000E+00 0. -1.
         21   -1    0    0  504  502 -0.00000000000E+00 -0.00000000000E+00 -0.16644841921E+03  0.16644841921E+03  0.00000000000E+00 0. -1.
         21    1    1    2  503  502 -0.38473986187E+02  0.16594666352E+02 -0.63935652928E+02  0.76442123727E+02  0.00000000000E+00 0. -1.
         21    1    1    2  504  501 -0.85801781934E+02 -0.83465288618E+01 -0.19824991340E+02  0.88456998642E+02  0.00000000000E+00 0. -1.
         21    1    1    2  505  503  0.96363810654E+02 -0.29075671925E+02  0.24492265862E+02  0.10359174576E+03  0.00000000000E+00 0. -1.
         21    1    1    2  506  505  0.27911957467E+02  0.20827534435E+02  0.11546934179E+03  0.12060693369E+03  0.00000000000E+00 0. -1.
<scales pt_clust_3="40.90110" pt_clust_4="93.77588" pt_clust_5="14000.00000" pt_clust_6="34.82619"></scales>
<clustering>
<clus scale="   34.826">  1  6  2 -1</clus>
<clus scale="   40.901">  2  3  1 -1</clus>
<clus scale="   93.776">  1  4  2 -1</clus>
<clus scale="   34.826">  1  3  2 -1</clus>
</clustering>
</event>
<event>
 6    0  0.1080632E+003  0.1237432E+03  0.7546771E-02  0.1237047E+00
         21   -1    0    0  504  501  0.00000000000E+00  0.00000000000E+00  0.10348175119E+03  0.10348175119E+03  0.00000000000E+00 0. -1.
         21   -1    0    0  503  502 -0.00000000000E+00 -0.00000000000E+00 -0.61483164608E+03  0.61483164608E+03  0.00000000000E+00 0. -1.
         21    1    1    2  503  506  0.79337336096E+02  0.61516933473E+02 -0.18268979071E+03  0.20845696350E+03  0.00000000000E+00 0. -1.
         21    1    1    2  504  502 -0.10378423353E+03 -0.12372860562E+03 -0.30882023166E+03  0.34849658601E+03  0.00000000000E+00 0. -1.
         21    1    1    2  505  501  0.35614635670E+02  0.15995422755E+01  0.54294124598E+02  0.64952388526E+02  0.00000000000E+00 0. -1.
         21    1    1    2  506  505 -0.11167738236E+02  0.60612129876E+02 -0.74133997129E+02  0.96407459232E+02  0.00000000000E+00 0. -1.
<scales pt_clust_3="123.74323" pt_clust_4="14000.00000" pt_clust_5="35.65054" pt_clust_6="61.05526"></scales>
<clustering>
<clus scale="   35.651">  1  5  2 -1</clus>
<clus scale="   61.055">  1  6  2 -1</clus>
<clus scale="  123.743">  2  3  1 -1</clus>
<clus scale="   35.651">  1  3  2 -1</clus>
</clustering>
</event>
<event>
 6    0  0.1080632E+003  0.7843053E+02  0.7546771E-02  0.1333565E+00
         21   -1    0    0  506  501  0.00000000000E+00  0.00000000000E+00  0.19619968980E+02  0.19619968980E+02  0.00000000000E+00 0.  1.
         21   -1    0    0  505  502 -0.00000000000E+00 -0.00000000000E+00 -0.22224292215E+04  0.22224292215E+04  0.00000000000E+00 0.  1.
         21    1    1    2  503  501 -0.16345712076E+01 -0.69000379228E+02 -0.14132985688E+03  0.15728271552E+03  0.00000000000E+00 0.  1.
         21    1    1    2  504  503  0.10025029781E+03  0.33226894088E+02 -0.60119164038E+03  0.61039785154E+03  0.00000000000E+00 0.  1.
         21    1    1    2  505  504 -0.49165648184E+02  0.55471648150E+02 -0.13487010531E+04  0.13507364271E+04  0.00000000000E+00 0.  1.
         21    1    1    2  506  502 -0.49450078419E+02 -0.19698163010E+02 -0.11158670218E+03  0.12363219640E+03  0.00000000000E+00 0.  1.
<scales pt_clust_3="14000.00000" pt_clust_4="78.43053" pt_clust_5="75.56855" pt_clust_6="53.22901"></scales>
<clustering>
<clus scale="   53.229">  1  6  2 -1</clus>
<clus scale="   75.569">  2  5  1 -1</clus>
<clus scale="   78.431">  2  4  1 -1</clus>
<clus scale="   53.229">  1  3  2 -1</clus>
</clustering>
</event>
<event>
 6    0  0.1080632E+003  0.1697046E+03  0.7546771E-02  0.1178156E+00
         21   -1    0    0  504  501  0.00000000000E+00  0.00000000000E+00  0.14455094606E+04  0.14455094606E+04  0.00000000000E+00 0. -1.
         21   -1    0    0  505  502 -0.00000000000E+00 -0.00000000000E+00 -0.42474020547E+03  0.42474020547E+03  0.00000000000E+00 0. -1.
         21    1    1    2  503  502 -0.79249968575E+02  0.28129946184E+00  0.40670272535E+02  0.89076976356E+02  0.00000000000E+00 0. -1.
         21    1    1    2  504  503  0.37950994177E+01  0.65912565627E+02  0.23687508565E+03  0.24590379275E+03  0.00000000000E+00 0. -1.
         21    1    1    2  505  506  0.18727701324E+03 -0.13429580700E+03 -0.35828821669E+03  0.42600292215E+03  0.00000000000E+00 0. -1.
         21    1    1    2  506  501 -0.11182214408E+03  0.68101941909E+02  0.11015121136E+04  0.11092659748E+04  0.00000000000E+00 0. -1.
<scales pt_clust_3="79.13835" pt_clust_4="66.02173" pt_clust_5="169.70458" pt_clust_6="14000.00000"></scales>
<clustering>
<clus scale="   66.022">  1  4  2 -1</clus>
<clus scale="   79.138">  2  3  1 -1</clus>
<clus scale="  169.705">  2  5  1 -1</clus>
<clus scale="   66.022">  1  3  2 -1</clus>
</clustering>
</event>
<event>
 6    0  0.1080632E+003  0.1141296E+03  0.7546771E-02  0.1253108E+00
         21   -1    0    0  506  501  0.00000000000E+00  0.00000000000E+00  0.63706206315E+03  0.63706206315E+03  0.00000000000E+00 0.  1.
         21   -1    0    0  504  502 -0.00000000000E+00 -0.00000000000E+00 -0.57750008242E+03  0.57750008242E+03  0.00000000000E+00 0. -1.
         21    1    1    2  503  502 -0.10105014852E+03 -0.36772358848E+02  0.28449566980E+03  0.30413997605E+03  0.00000000000E+00 0.  1.
         21    1    1    2  504  501  0.72579930315E+02  0.73586462407E+02 -0.54695747572E+03  0.55663748884E+03  0.00000000000E+00 0. -1.
         21    1    1    2  505  503 -0.40935601755E+02 -0.33245782930E+02  0.24252095875E+03  0.24818827734E+03  0.00000000000E+00 0.  1.
         21    1    1    2  506  505  0.69405819964E+02 -0.35683206289E+01  0.79502827896E+02  0.10559640335E+03  0.00000000000E+00 0. -1.
<scales pt_clust_3="33.27297" pt_clust_4="103.76936" pt_clust_5="33.27297" pt_clust_6="69.49749"></scales>
<clustering>
<clus scale="   33.273">  3  5 -1 -1</clus>
<clus scale="   69.497">  1  6  2 -1</clus>
<clus scale="  103.769">  2  4  1 -1</clus>
<clus scale="   69.497">  1  3  2 -1</clus>
</clustering>
</event>
<event>
 6    0  0.1080632E+003  0.9893897E+02  0.7546771E-02  0.1282543E+00
         21   -1    0    0  506  501  0.00000000000E+00  0.00000000000E+00  0.22149638619E+04  0.22149638619E+04  0.00000000000E+00 0.  1.
         21   -1    0    0  505  502 -0.00000000000E+00 -0.00000000000E+00 -0.21035938982E+02  0.21035938982E+02  0.00000000000E+00 0.  1.
         21    1    1    2  503  502 -0.85794244305E+02  0.39264820430E+02  0.13183762625E+03  0.16212198548E+03  0.00000000000E+00 0.  1.
         21    1    1    2  504  501  0.20824364289E+02  0.32712275386E+02  0.97343477723E+03  0.97420686337E+03  0.00000000000E+00 0.  1.
         21    1    1    2  505  504 -0.17049401523E+02 -0.27314770241E+02  0.73687237750E+02  0.80415096672E+02  0.00000000000E+00 0. -1.
         21    1    1    2  506  503  0.82019281539E+02 -0.44662325575E+02  0.10149682817E+04  0.10192558554E+04  0.00000000000E+00 0.  1.
<scales pt_clust_3="14000.00000" pt_clust_4="38.07482" pt_clust_5="32.19905" pt_clust_6="98.93897"></scales>
<clustering>
<clus scale="   32.199">  2  5  1 -1</clus>
<clus scale="   38.075">  1  4  2 -1</clus>
<clus scale="   98.939">  1  6  2 -1</clus>
<clus scale="   38.075">  1  3  2 -1</clus>
</clustering>
</event>
<event>
 6    0  0.1080632E+003  0.8327710E+02  0.7546771E-02  0.1320001E+00
         21   -1    0    0  504  501  0.00000000000E+00  0.00000000000E+00  0.15098323019E+04  0.15098323019E+04  0.00000000000E+00 0.  1.
         21   -1    0    0  506  502 -0.00000000000E+00 -0.00000000000E+00 -0.63741974334E+03  0.63741974334E+03  0.00000000000E+00 0. -1.
         21    1    1    2  503  505 -0.30754995725E+02 -0.44141582632E+02 -0.53339026064E+02  0.75758833021E+02  0.00000000000E+00 0. -1.
         21    1    1    2  504  503 -0.14995693500E+02 -0.33217125885E+02  0.14179138089E+04  0.14183821127E+04  0.00000000000E+00 0.  1.
         21    1    1    2  505  502 -0.43928662929E+02 -0.67322373571E+01 -0.52418953829E+03  0.52607007376E+03  0.00000000000E+00 0. -1.
         21    1    1    2  506  501  0.89679352155E+02  0.84090945874E+02  0.32027314056E+02  0.12704102576E+03  0.00000000000E+00 0.  1.
<scales pt_clust_3="14000.00000" pt_clust_4="36.44514" pt_clust_5="44.64626" pt_clust_6="83.27710"></scales>
<clustering>
<clus scale="   36.445">  1  4  2 -1</clus>
<clus scale="   44.646">  2  5  1 -1</clus>
<clus scale="   83.277">  1  6  2 -1</clus>
<clus scale="   36.445">  1  3  2 -1</clus>
</clustering>
</event>
<event>
 6    0  0.1080632E+003  0.1849788E+03  0.7546771E-02  0.1163070E+00
         21   -1    0    0  503  501  0.00000000000E+00  0.00000000000E+00  0.14202270272E+03  0.14202270272E+03  0.00000000000E+00 0.  1.
         21   -1    0    0  505  502 -0.00000000000E+00 -0.00000000000E+00 -0.19114844903E+04  0.19114844903E+04  0.00000000000E+00 0.  1.
         21    1    1    2  503  502  0.90506917435E+02 -0.99211077263E+01  0.10436349511E+03  0.13849790465E+03  0.00000000000E+00 0.  1.
         21    1    1    2  504  501  0.49748281014E+02 -0.12726652320E+03 -0.32623597753E+03  0.35369700653E+03  0.00000000000E+00 0.  1.
         21    1    1    2  505  506 -0.11440975431E+03  0.99735908202E+02 -0.95579480969E+03  0.96777092408E+03  0.00000000000E+00 0.  1.
         21    1    1    2  506  504 -0.25845444139E+02  0.37451722725E+02 -0.59179449541E+03  0.59354135772E+03  0.00000000000E+00 0.  1.
<scales pt_clust_3="91.04906" pt_clust_4="173.33709" pt_clust_5="35.36398" pt_clust_6="35.36398"></scales>
<clustering>
<clus scale="   35.364">  5  6 -1 -1</clus>
<clus scale="   91.049">  1  3  2 -1</clus>
<clus scale="  173.337">  1  4  2 -1</clus>
<clus scale="   91.049">  1  3  2 -1</clus>
</clustering>
</event>
<event>
 6    0  0.1080632E+003  0.1043763E+03  0.7546771E-02  0.1271353E+00
         21   -1    0    0  506  501  0.00000000000E+00  0.00000000000E+00  0.10730256243E+04  0.10730256243E+04  0.00000000000E+00 0. -1.
         21   -1    0    0  503  502 -0.00000000000E+00 -0.00000000000E+00 -0.35900420492E+02  0.35900420492E+02  0.00000000000E+00 0.  1.
         21    1    1    2  503  505  0.41808996796E+02 -0.74215105990E+02  0.81623968428E+02  0.11797604160E+03  0.00000000000E+00 0. -1.
         21    1    1    2  504  502 -0.40572578965E+02  0.69028718000E+01  0.35854215566E+02  0.54583042942E+02  0.00000000000E+00 0.  1.
         21    1    1    2  505  501 -0.41885337068E+02  0.10005016097E+03  0.77576872816E+03  0.78331445522E+03  0.00000000000E+00 0.  1.
         21    1    1    2  506  504  0.40648919238E+02 -0.32737926776E+02  0.14387829164E+03  0.15305250501E+03  0.00000000000E+00 0. -1.
<scales pt_clust_3="14000.00000" pt_clust_4="41.15560" pt_clust_5="104.37634" pt_clust_6="46.11298"></scales>
<clustering>
<clus scale="   41.156">  2  4  1 -1</clus>
<clus scale="   46.113">  2  6  1 -1</clus>
<clus scale="  104.376">  1  5  2 -1</clus>
<clus scale="  104.376">  1  3  2 -1</clus>
</clustering>
</event>
<event>
 6    0  0.1080632E+003  0.1351021E+03  0.7546771E-02  0.1220076E+00
         21   -1    0    0  503  501  0.00000000000E+00  0.00000000000E+00  0.22391732648E+03  0.22391732648E+03  0.00000000000E+00 0.  1.
         21   -1    0    0  506  502 -0.00000000000E+00 -0.00000000000E+00 -0.45331554697E+03  0.45331554697E+03  0.00000000000E+00 0.  1.
         21    1    1    2  503  505 -0.41737153542E+02 -0.56760082725E+02  0.31776994381E+02  0.77288254921E+02  0.00000000000E+00 0.  1.
         21    1    1    2  504  501  0.14232762750E+03 -0.22536908553E+02  0.90829957803E+02  0.17033833107E+03  0.00000000000E+00 0.  1.
         21    1    1    2  505  502 -0.12760381448E+03  0.12495932444E+03 -0.32313125229E+03  0.36920370047E+03  0.00000000000E+00 0.  1.
         21    1    1    2  506  504  0.27013340520E+02 -0.45662333159E+02 -0.28873920385E+02  0.60402586981E+02  0.00000000000E+00 0.  1.
<scales pt_clust_3="71.66237" pt_clust_4="14000.00000" pt_clust_5="135.10209" pt_clust_6="53.05440"></scales>
<clustering>
<clus scale="   53.054">  2  6  1 -1</clus>
<clus scale="   71.662">  1  3  2 -1</clus>
<clus scale="  135.102">  2  5  1 -1</clus>
<clus scale="   71.662">  1  3  2 -1</clus>
</clustering>
</event>
<event>
 6    0  0.1080632E+003  0.1414014E+03  0.7546771E-02  0.1211456E+00
         21   -1    0    0  506  501  0.00000000000E+00  0.00000000000E+00  0.11825045808E+04  0.11825045808E+04  0.00000000000E+00 0. -1.
         21   -1    0    0  504  502 -0.00000000000E+00 -0.00000000000E+00 -0.30659076630E+03  0.30659076630E+03  0.00000000000E+00 0. -1.
         21    1    1    2  503  502  0.12698615978E+03 -0.75826255488E+02  0.78003655830E+00  0.14790440918E+03  0.00000000000E+00 0. -1.
         21    1    1    2  504  501 -0.30310574119E+02 -0.59420720244E+02 -0.19923939133E+03  0.21010922863E+03  0.00000000000E+00 0. -1.
         21    1    1    2  505  503 -0.45125505377E+02  0.12316124237E+03  0.12814841964E+03  0.18337671693E+03  0.00000000000E+00 0. -1.
         21    1    1    2  506  505 -0.51550080284E+02  0.12085733363E+02  0.94622474965E+03  0.94770499238E+03  0.00000000000E+00 0. -1.
<scales pt_clust_3="141.40143" pt_clust_4="67.00755" pt_clust_5="14000.00000" pt_clust_6="52.94786"></scales>
<clustering>
<clus scale="   52.948">  1  6  2 -1</clus>
<clus scale="   67.008">  2  4  1 -1</clus>
<clus scale="  141.401">  2  3  1 -1</clus>
<clus scale="   52.948">  1  3  2 -1</clus>
</clustering>
</event>
<event>
 6    0  0.1080632E+003  0.1760161E+03  0.7546771E-02  0.1171715E+00
         21   -1    0    0  503  501  0.00000000000E+00  0.00000000000E+00  0.71779137957E+02  0.71779137957E+02  0.00000000000E+00 0. -1.
         21   -1    0    0  505  502 -0.00000000000E+00 -0.00000000000E+00 -0.87661179586E+03  0.87661179586E+03  0.00000000000E+00 0. -1.
         21    1    1    2  503  504 -0.16271641000E+03  0.48737179911E+02 -0.14472371024E+03  0.22315217923E+03  0.00000000000E+00 0. -1.
         21    1    1    2  504  502 -0.11893854189E+01  0.35885165875E+02 -0.11920020888E+03  0.12449035932E+03  0.00000000000E+00 0. -1.
         21    1    1    2  505  506  0.18213891896E+03 -0.14770613931E+02 -0.44209032112E+03  0.47836869553E+03  0.00000000000E+00 0. -1.
         21    1    1    2  506  501 -0.18233123548E+02 -0.69851731854E+02 -0.98818417660E+02  0.12237969973E+03  0.00000000000E+00 0. -1.
<scales pt_clust_3="176.01614" pt_clust_4="35.90487" pt_clust_5="14000.00000" pt_clust_6="67.16495"></scales>
<clustering>
<clus scale="   35.905">  2  4  1 -1</clus>
<clus scale="   67.165">  1  6  2 -1</clus>
<clus scale="  176.016">  1  3  2 -1</clus>
<clus scale="   67.165">  1  3  2 -1</clus>
</clustering>
</event>
<event>
 6    0  0.1080632E+003  0.7828534E+02  0.7546771E-02  0.1333989E+00
         21   -1    0    0  505  501  0.00000000000E+00  0.00000000000E+00  0.82809556838E+03  0.82809556838E+03  0.00000000000E+00 0. -1.
         21   -1    0    0  503  502 -0.00000000000E+00 -0.00000000000E+00 -0.46358136979E+03  0.46358136979E+03  0.00000000000E+00 0.  1.
         21    1    1    2  503  506  0.46519506870E+02 -0.63250299051E+02 -0.43231112055E+03  0.43938316968E+03  0.00000000000E+00 0.  1.
         21    1    1    2  504  502  0.38628922732E+01  0.91523997534E+02  0.70983154361E+02  0.11588862008E+03  0.00000000000E+00 0.  1.
         21    1    1    2  505  504 -0.54174400579E+02  0.31416403773E+01  0.67020986407E+03  0.67240315100E+03  0.00000000000E+00 0. -1.
         21    1    1    2  506  501  0.37920014355E+01 -0.31415338860E+02  0.55632300708E+02  0.64001997412E+02  0.00000000000E+00 0.  1.
<scales pt_clust_3="14000.00000" pt_clust_4="78.28534" pt_clust_5="56.37149" pt_clust_6="31.64337"></scales>
<clustering>
<clus scale="   31.643">  1  6  2 -1</clus>
<clus scale="   56.371">  1  5  2 -1</clus>
<clus scale="   78.285">  1  4  2 -1</clus>
<clus scale="   31.643">  1  3  2 -1</clus>
</clustering>
</event>
<event>
 6    0  0.1080632E+003  0.1385100E+03  0.7546771E-02  0.1215348E+00
         21   -1    0    0  502  501  0.00000000000E+00  0.00000000000E+00  0.10523964220E+04  0.10523964220E+04  0.00000000000E+00 0. -1.
         21   -1    0    0  505  502 -0.00000000000E+00 -0.00000000000E+00 -0.18700391401E+03  0.18700391401E+03  0.00000000000E+00 0. -1.
         21    1    1    2  503  504 -0.13390010755E+02  0.76373190883E+02  0.32414270272E+03  0.33328763613E+03  0.00000000000E+00 0. -1.
         21    1    1    2  504  501 -0.54284168182E+00  0.42805692716E+02  0.46777010102E+03  0.46972490823E+03  0.00000000000E+00 0. -1.
         21    1    1    2  505  506  0.46505982927E+02  0.37909658519E+02 -0.14984558365E+03  0.16141142337E+03  0.00000000000E+00 0. -1.
         21    1    1    2  506  503 -0.32573130491E+02 -0.15708854212E+03  0.22332528791E+03  0.27497636829E+03  0.00000000000E+00 0. -1.
<scales pt_clust_3="42.71998" pt_clust_4="42.71998" pt_clust_5="59.99957" pt_clust_6="126.01385"></scales>
<clustering>
<clus scale="   42.720">  3  4 -1 -1</clus>
<clus scale="   60.000">  2  5  1 -1</clus>
<clus scale="  126.014">  2  6  1 -1</clus>
<clus scale="  138.510">  1  3  2 -1</clus>
</clustering>
</event>
<event>
 6    0  0.1080632E+003  0.2870526E+03  0.7546771E-02  0.1091898E+00
         21   -1    0    0  505  501  0.00000000000E+00  0.00000000000E+00  0.16271840039E+04  0.16271840039E+04  0.00000000000E+00 0.  1.
         21   -1    0    0  506  502 -0.00000000000E+00 -0.00000000000E+00 -0.93861336995E+03  0.93861336995E+03  0.00000000000E+00 0. -1.
         21    1    1    2  503  504 -0.24597752999E+03  0.11063413759E+03  0.53694214451E+03  0.60087579765E+03  0.00000000000E+00 0.  1.
         21    1    1    2  504  501 -0.89145967161E+02 -0.27131870233E+02  0.62814812345E+03  0.63502220972E+03  0.00000000000E+00 0.  1.
         21    1    1    2  505  502  0.15588302190E+03  0.14320965065E+03  0.37502825771E+03  0.43064453397E+03  0.00000000000E+00 0.  1.
         21    1    1    2  506  503  0.17924047525E+03 -0.22671191801E+03 -0.85154789176E+03  0.89925483246E+03  0.00000000000E+00 0. -1.
<scales pt_clust_3="287.05263" pt_clust_4="93.18338" pt_clust_5="178.43869" pt_clust_6="14000.00000"></scales>
<clustering>
<clus scale="   93.183">  1  4  2 -1</clus>
<clus scale="  178.439">  1  5  2 -1</clus>
<clus scale="  287.053">  1  3  2 -1</clus>
<clus scale="   93.183">  1  3  2 -1</clus>
</clustering>
</event>
<event>
 6    0  0.1080632E+003  0.1534902E+03  0.7546771E-02  0.1196249E+00
         21   -1    0    0  506  501  0.00000000000E+00  0.00000000000E+00  0.17739283958E+03  0.17739283958E+03  0.00000000000E+00 0. -1.
         21   -1    0    0  504  502 -0.00000000000E+00 -0.00000000000E+00 -0.64972702665E+03  0.64972702665E+03  0.00000000000E+00 0.  1.
         21    1    1    2  503  502  0.41420819274E+02 -0.16611581890E+03 -0.50240118363E+03  0.53077028824E+03  0.00000000000E+00 0.  1.
         21    1    1    2  504  505  0.21669313976E+02  0.25678777744E+02 -0.55498857857E+02  0.64877438436E+02  0.00000000000E+00 0. -1.
         21    1    1    2  505  501  0.41698084329E+02  0.41049732044E+02 -0.84826762003E+01  0.59125007680E+02  0.00000000000E+00 0. -1.
         21    1    1    2  506  503 -0.10478821758E+03  0.99387309115E+02  0.94048530613E+02  0.17234713188E+03  0.00000000000E+00 0. -1.
<scales pt_clust_3="153.49017" pt_clust_4="33.59998" pt_clust_5="60.43200" pt_clust_6="14000.00000"></scales>
<clustering>
<clus scale="   33.600">  2  4  1 -1</clus>
<clus scale="   60.432">  1  5  2 -1</clus>
<clus scale="  153.490">  2  3  1 -1</clus>
<clus scale="   60.432">  1  3  2 -1</clus>
</clustering>
</event>
<event>
 6    0  0.1080632E+003  0.1187898E+03  0.7546771E-02  0.1245107E+00
         21   -1    0    0  505  501  0.00000000000E+00  0.00000000000E+00  0.81502082820E+03  0.81502082820E+03  0.00000000000E+00 0.  1.
         21   -1    0    0  503  502 -0.00000000000E+00 -0.00000000000E+00 -0.30026250927E+03  0.30026250927E+03  0.00000000000E+00 0.  1.
         21    1    1    2  503  506  0.44397804213E+02 -0.89139913156E+02  0.36808485008E+03  0.38131816898E+03  0.00000000000E+00 0.  1.
         21    1    1    2  504  502  0.93318629472E+01  0.56614871592E+02 -0.28020118799E+03  0.28601579170E+03  0.00000000000E+00 0.  1.
         21    1    1    2  505  504 -0.44384592197E+02  0.76352930114E+02  0.23875392676E+03  0.25456472557E+03  0.00000000000E+00 0.  1.
         21    1    1    2  506  501 -0.93450749629E+01 -0.43827888549E+02  0.18812073008E+03  0.19338465122E+03  0.00000000000E+00 0.  1.
<scales pt_clust_3="30.07158" pt_clust_4="57.37881" pt_clust_5="110.00663" pt_clust_6="30.07158"></scales>
<clustering>
<clus scale="   30.072">  3  6 -1 -1</clus>
<clus scale="   57.379">  2  4  1 -1</clus>
<clus scale="  110.007">  1  5  2 -1</clus>
<clus scale="  110.007">  1  3  2 -1</clus>
</clustering>
</event>
<event>
 6    0  0.1080632E+003  0.7101414E+02  0.7546771E-02  0.1356678E+00
         21   -1    0    0  504  501  0.00000000000E+00  0.00000000000E+00  0.13327739011E+04  0.13327739011E+04  0.00000000000E+00 0.  1.
         21   -1    0    0  503  502 -0.00000000000E+00 -0.00000000000E+00 -0.30668767914E+03  0.30668767914E+03  0.00000000000E+00 0.  1.
         21    1    1    2  503  501  0.34314986445E+02  0.17017869504E+02  0.38418816425E+02  0.54250637164E+02  0.00000000000E+00 0. -1.
         21    1    1    2  504  505 -0.18647420791E+01 -0.35651772221E+02  0.78741340819E+03  0.78822230463E+03  0.00000000000E+00 0.  1.
         21    1    1    2  505  506 -0.95680498328E+02  0.50250125549E+02  0.48844257630E+03  0.50025591773E+03  0.00000000000E+00 0.  1.
         21    1    1    2  506  502  0.63230253962E+02 -0.31616222833E+02 -0.28818857891E+03  0.29673272077E+03  0.00000000000E+00 0.  1.
<scales pt_clust_3="36.90917" pt_clust_4="35.70051" pt_clust_5="71.01414" pt_clust_6="14000.00000"></scales>
<clustering>
<clus scale="   35.701">  1  4  2 -1</clus>
<clus scale="   36.909">  1  3  2 -1</clus>
<clus scale="   71.014">  1  5  2 -1</clus>
<clus scale="   35.701">  1  3  2 -1</clus>
</clustering>
</event>
<event>
 6    0  0.1368119E+003  0.8420658E+02  0.7546771E-02  0.1317521E+00
         21   -1    0    0  504  501  0.00000000000E+00  0.00000000000E+00  0.22166464860E+03  0.22166464860E+03  0.00000000000E+00 0.  1.
         21   -1    0    0  503  502 -0.00000000000E+00 -0.00000000000E+00 -0.12365045187E+04  0.12365045187E+04  0.00000000000E+00 0.  1.
         21    1    1    2  503  506  0.31569219333E+02 -0.50793430522E+02  0.25142095311E+02  0.64874595568E+02  0.00000000000E+00 0. -1.
         21    1    1    2  504  505 -0.39157841786E+02 -0.30387062937E+02 -0.32918155066E+02  0.59500547058E+02  0.00000000000E+00 0. -1.
         21    1    1    2  505  502  0.32534512556E+02 -0.23991108907E+02 -0.11521563609E+04  0.11528652774E+04  0.00000000000E+00 0.  1.
         21    1    1    2  506  501 -0.24945890103E+02  0.10517160237E+03  0.14509255055E+03  0.18092874731E+03  0.00000000000E+00 0.  1.
<scales pt_clust_3="84.20658" pt_clust_4="48.49397" pt_clust_5="40.42360" pt_clust_6="14000.00000"></scales>
<clustering>
<clus scale="   40.424">  2  5  1 -1</clus>
<clus scale="   48.494">  2  4  1 -1</clus>
<clus scale="   84.207">  2  3  1 -1</clus>
<clus scale="   84.207">  1  3  2 -1</clus>
</clustering>
</event>
<event>
 6    0  0.1080632E+003  0.9495337E+02  0.7546771E-02  0.1291281E+00
         21   -1    0    0  504  501  0.00000000000E+00  0.00000000000E+00  0.13837932092E+03  0.13837932092E+03  0.00000000000E+00 0. -1.
         21   -1    0    0  506  502 -0.00000000000E+00 -0.00000000000E+00 -0.42186744972E+03  0.42186744972E+03  0.00000000000E+00 0.  1.
         21    1    1    2  503  505 -0.57297151992E+02  0.30737892552E+02 -0.14717361571E+03  0.16089703175E+03  0.00000000000E+00 0.  1.
         21    1    1    2  504  503 -0.32408200376E+02  0.58024396622E+02 -0.97697387032E+02  0.11816049038E+03  0.00000000000E+00 0.  1.
         21    1    1    2  505  502  0.47469367630E+02 -0.18789488531E+02 -0.14113138473E+03  0.15008148952E+03  0.00000000000E+00 0. -1.
         21    1    1    2  506  501  0.42235984738E+02 -0.69972800643E+02  0.10251425866E+03  0.13110775898E+03  0.00000000000E+00 0. -1.
<scales pt_clust_3="44.07355" pt_clust_4="44.07355" pt_clust_5="51.05277" pt_clust_6="83.84893"></scales>
<clustering>
<clus scale="   44.074">  3  4 -1 -1</clus>
<clus scale="   51.053">  2  5  1 -1</clus>
<clus scale="   83.849">  1  6  2 -1</clus>
<clus scale="   83.849">  1  3  2 -1</clus>
</clustering>
</event>
<event>
 6    0  0.1080632E+003  0.1737559E+03  0.7546771E-02  0.1173987E+00
         21   -1    0    0  505  501  0.00000000000E+00  0.00000000000E+00  0.39544334074E+03  0.39544334074E+03  0.00000000000E+00 0. -1.
         21   -1    0    0  503  502 -0.00000000000E+00 -0.00000000000E+00 -0.36485127105E+03  0.36485127105E+03  0.00000000000E+00 0. -1.
         21    1    1    2  503  501  0.85560221794E+02  0.38527845334E+02  0.50379088857E+01  0.93969819333E+02  0.00000000000E+00 0.  1.
         21    1    1    2  504  502 -0.10456884267E+02 -0.53030502500E+02 -0.10257457994E+02  0.55016325472E+02  0.00000000000E+00 0.  1.
         21    1    1    2  505  506  0.13603192498E+03 -0.97629396954E+02  0.24290141349E+03  0.29502081357E+03  0.00000000000E+00 0. -1.
         21    1    1    2  506  504 -0.21113526251E+03  0.11213205412E+03 -0.20708979469E+03  0.31628765341E+03  0.00000000000E+00 0. -1.
<scales pt_clust_3="89.83787" pt_clust_4="54.05165" pt_clust_5="173.75591" pt_clust_6="14000.00000"></scales>
<clustering>
<clus scale="   54.052">  2  4  1 -1</clus>
<clus scale="   89.838">  2  3  1 -1</clus>
<clus scale="  173.756">  1  5  2 -1</clus>
<clus scale="  173.756">  1  3  2 -1</clus>
</clustering>
</event>
<event>
 6    0  0.1080632E+003  0.8671862E+02  0.7546771E-02  0.1310998E+00
         21   -1    0    0  503  501  0.00000000000E+00  0.00000000000E+00  0.25850842449E+03  0.25850842449E+03  0.00000000000E+00 0. -1.
         21   -1    0    0  506  502 -0.00000000000E+00 -0.00000000000E+00 -0.63610380058E+03  0.63610380058E+03  0.00000000000E+00 0.  1.
         21    1    1    2  503  505  0.62041122479E+02  0.62788965525E+02  0.76374180099E+02  0.11672433532E+03  0.00000000000E+00 0. -1.
         21    1    1    2  504  501  0.27569342276E+02 -0.58311735764E+02  0.57025240332E+02  0.86094164705E+02  0.00000000000E+00 0. -1.
         21    1    1    2  505  502 -0.57336719147E+02 -0.64996180439E+02 -0.58471403704E+03  0.59110278966E+03  0.00000000000E+00 0.  1.
         21    1    1    2  506  504 -0.32273745608E+02  0.60518950678E+02  0.73719240517E+02  0.10069093539E+03  0.00000000000E+00 0. -1.
<scales pt_clust_3="14000.00000" pt_clust_4="64.50060" pt_clust_5="86.71862" pt_clust_6="38.56182"></scales>
<clustering>
<clus scale="   64.501">  1  4  2 -1</clus>
<clus scale="   38.562">  1  6  2 -1</clus>
<clus scale="   86.719">  2  5  1 -1</clus>
<clus scale="   64.501">  1  3  2 -1</clus>
</clustering>
</event>
<event>
 6    0  0.1080632E+003  0.1823883E+03  0.7546771E-02  0.1165511E+00
         21   -1    0    0  502  501  0.00000000000E+00  0.00000000000E+00  0.26428028469E+03  0.26428028469E+03  0.00000000000E+00 0. -1.
         21   -1    0    0  505  502 -0.00000000000E+00 -0.00000000000E+00 -0.15134521911E+03  0.15134521911E+03  0.00000000000E+00 0. -1.
         21    1    1    2  503  501  0.36889264409E+02 -0.51690896006E+01  0.13190376618E+02  0.39516115083E+02  0.00000000000E+00 0. -1.
         21    1    1    2  504  503  0.41368767632E+02 -0.10656636412E+03  0.37808703004E+02  0.12040458015E+03  0.00000000000E+00 0. -1.
         21    1    1    2  505  506 -0.69609092948E+02  0.15952036072E+03 -0.36657030987E+01  0.17408506163E+03  0.00000000000E+00 0. -1.
         21    1    1    2  506  504 -0.86489390929E+01 -0.47784906993E+02  0.65601689051E+02  0.81619746937E+02  0.00000000000E+00 0. -1.
<scales pt_clust_3="37.24966" pt_clust_4="46.24670" pt_clust_5="167.45229" pt_clust_6="46.24670"></scales>
<clustering>
<clus scale="   37.250">  1  3  2 -1</clus>
<clus scale="   46.247">  4  6 -1 -1</clus>
<clus scale="  167.452">  2  5  1 -1</clus>
<clus scale="   37.250">  1  3  2 -1</clus>
</clustering>
</event>
<event>
 6    0  0.1080632E+003  0.9512377E+02  0.7546771E-02  0.1290898E+00
         21   -1    0    0  504  501  0.00000000000E+00  0.00000000000E+00  0.10294260803E+03  0.10294260803E+03  0.00000000000E+00 0.  1.
         21   -1    0    0  503  502 -0.00000000000E+00 -0.00000000000E+00 -0.64432189622E+03  0.64432189622E+03  0.00000000000E+00 0.  1.
         21    1    1    2  503  506  0.62932042320E+01  0.80972108124E+02 -0.37944039890E+03  0.38803492501E+03  0.00000000000E+00 0.  1.
         21    1    1    2  504  505 -0.57149963991E+02 -0.55244235357E+02  0.68495140331E+02  0.10492677529E+03  0.00000000000E+00 0.  1.
         21    1    1    2  505  502  0.19905033750E+02 -0.57568253931E+02 -0.10698313593E+03  0.12310851150E+03  0.00000000000E+00 0. -1.
         21    1    1    2  506  501  0.30951726009E+02  0.31840381164E+02 -0.12345089370E+03  0.13119429244E+03  0.00000000000E+00 0.  1.
<scales pt_clust_3="37.59813" pt_clust_4="80.39308" pt_clust_5="60.91235" pt_clust_6="37.59813"></scales>
<clustering>
<clus scale="   37.598">  3  6 -1 -1</clus>
<clus scale="   60.912">  2  5  1 -1</clus>
<clus scale="   80.393">  1  4  2 -1</clus>
<clus scale="   80.393">  1  3  2 -1</clus>
</clustering>
</event>
<event>
 6    0  0.1080632E+003  0.9324703E+02  0.7546771E-02  0.1295174E+00
         21   -1    0    0  503  501  0.00000000000E+00  0.00000000000E+00  0.27685235486E+03  0.27685235486E+03  0.00000000000E+00 0.  1.
         21   -1    0    0  506  502 -0.00000000000E+00 -0.00000000000E+00 -0.22892580698E+03  0.22892580698E+03  0.00000000000E+00 0.  1.
         21    1    1    2  503  504 -0.13628200141E+02 -0.93264231401E+02  0.86782679597E+02  0.12812173186E+03  0.00000000000E+00 0.  1.
         21    1    1    2  504  505  0.70259045112E+02  0.69726915318E+02  0.40057055234E+01  0.99066754345E+02  0.00000000000E+00 0.  1.
         21    1    1    2  505  502 -0.26494172614E+02  0.16128678030E+02 -0.15714032813E+03  0.16017227651E+03  0.00000000000E+00 0.  1.
         21    1    1    2  506  501 -0.30136672356E+02  0.74086380525E+01  0.11427849088E+03  0.11841739913E+03  0.00000000000E+00 0.  1.
<scales pt_clust_3="93.24703" pt_clust_4="14000.00000" pt_clust_5="31.01734" pt_clust_6="31.90624"></scales>
<clustering>
<clus scale="   31.017">  2  5  1 -1</clus>
<clus scale="   31.906">  1  6  2 -1</clus>
<clus scale="   93.247">  1  3  2 -1</clus>
<clus scale="   31.906">  1  3  2 -1</clus>
</clustering>
</event>
<event>
 6    0  0.1080632E+003  0.1431800E+03  0.7546771E-02  0.1209113E+00
         21   -1    0    0  503  501  0.00000000000E+00  0.00000000000E+00  0.19328980760E+03  0.19328980760E+03  0.00000000000E+00 0. -1.
         21   -1    0    0  505  502 -0.00000000000E+00 -0.00000000000E+00 -0.47628849101E+03  0.47628849101E+03  0.00000000000E+00 0. -1.
         21    1    1    2  503  504 -0.52683322710E+02 -0.14005829339E+03 -0.73671461314E+02  0.16679131348E+03  0.00000000000E+00 0. -1.
         21    1    1    2  504  506 -0.19711250302E+02  0.53734781040E+02 -0.58770523986E+02  0.82036178431E+02  0.00000000000E+00 0. -1.
         21    1    1    2  505  501  0.94731449451E+02  0.10772027054E+03  0.95775776979E+02  0.17248392289E+03  0.00000000000E+00 0. -1.
         21    1    1    2  506  502 -0.22336876439E+02 -0.21396758182E+02 -0.24633247510E+03  0.24826688381E+03  0.00000000000E+00 0. -1.
<scales pt_clust_3="143.18004" pt_clust_4="54.13083" pt_clust_5="14000.00000" pt_clust_6="30.93149"></scales>
<clustering>
<clus scale="   30.931">  2  6  1 -1</clus>
<clus scale="   54.131">  2  4  1 -1</clus>
<clus scale="  143.180">  2  3  1 -1</clus>
<clus scale="  143.180">  1  3  2 -1</clus>
</clustering>
</event>
<event>
 6    0  0.1080632E+003  0.1827234E+03  0.7546771E-02  0.1165193E+00
         21   -1    0    0  506  501  0.00000000000E+00  0.00000000000E+00  0.70424266568E+03  0.70424266568E+03  0.00000000000E+00 0.  1.
         21   -1    0    0  503  502 -0.00000000000E+00 -0.00000000000E+00 -0.19928044336E+03  0.19928044336E+03  0.00000000000E+00 0. -1.
         21    1    1    2  503  504 -0.52761061345E+02  0.45339120362E+02 -0.14063987392E+03  0.15690423693E+03  0.00000000000E+00 0. -1.
         21    1    1    2  504  501 -0.15140989606E+03 -0.13581808342E+02  0.32656586064E+03  0.36021477410E+03  0.00000000000E+00 0.  1.
         21    1    1    2  505  502  0.12728987864E+03 -0.47542706272E+02  0.16691314337E+03  0.21522783173E+03  0.00000000000E+00 0.  1.
         21    1    1    2  506  505  0.76881078772E+02  0.15785394252E+02  0.15212309224E+03  0.17117626628E+03  0.00000000000E+00 0.  1.
<scales pt_clust_3="69.56555" pt_clust_4="168.99157" pt_clust_5="52.81745" pt_clust_6="52.81745"></scales>
<clustering>
<clus scale="   52.817">  5  6 -1 -1</clus>
<clus scale="   69.566">  2  3  1 -1</clus>
<clus scale="  168.992">  1  4  2 -1</clus>
<clus scale="  168.992">  1  3  2 -1</clus>
</clustering>
</event>
<event>
 6    0  0.1080632E+003  0.9932941E+02  0.7546771E-02  0.1281712E+00
         21   -1    0    0  506  501  0.00000000000E+00  0.00000000000E+00  0.37128868217E+03  0.37128868217E+03  0.00000000000E+00 0.  1.
         21   -1    0    0  505  502 -0.00000000000E+00 -0.00000000000E+00 -0.55217356544E+03  0.55217356544E+03  0.00000000000E+00 0. -1.
         21    1    1    2  503  501  0.47228513071E+02 -0.16728970382E+02 -0.85118063815E+02  0.98769811606E+02  0.00000000000E+00 0. -1.
         21    1    1    2  504  502  0.81259005574E+02 -0.25816037171E+02 -0.32889515455E+03  0.33976685602E+03  0.00000000000E+00 0. -1.
         21    1    1    2  505  503 -0.31103331465E+02  0.21507715951E+02 -0.11592234355E+03  0.12193436271E+03  0.00000000000E+00 0.  1.
         21    1    1    2  506  504 -0.97384187180E+02  0.21037291602E+02  0.34905067866E+03  0.36299121728E+03  0.00000000000E+00 0.  1.
<scales pt_clust_3="42.40977" pt_clust_4="14000.00000" pt_clust_5="37.81533" pt_clust_6="99.32941"></scales>
<clustering>
<clus scale="   37.815">  2  5  1 -1</clus>
<clus scale="   42.410">  2  3  1 -1</clus>
<clus scale="   99.329">  1  6  2 -1</clus>
<clus scale="   99.329">  1  3  2 -1</clus>
</clustering>
</event>
<event>
 6    0  0.1080632E+003  0.1674724E+03  0.7546771E-02  0.1180510E+00
         21   -1    0    0  505  501  0.00000000000E+00  0.00000000000E+00  0.95812637354E+02  0.95812637354E+02  0.00000000000E+00 0.  1.
         21   -1    0    0  506  502 -0.00000000000E+00 -0.00000000000E+00 -0.98931767347E+03  0.98931767347E+03  0.00000000000E+00 0.  1.
         21    1    1    2  503  504  0.62597570535E+02 -0.62369297906E+02 -0.42900404612E+01  0.88469144934E+02  0.00000000000E+00 0.  1.
         21    1    1    2  504  501  0.62501022880E+02 -0.68018784756E+02 -0.12129357191E+03  0.15246331863E+03  0.00000000000E+00 0. -1.
         21    1    1    2  505  502 -0.52404063977E+02 -0.47471663796E+02 -0.22187162616E+02  0.74108130254E+02  0.00000000000E+00 0.  1.
         21    1    1    2  506  503 -0.72694529439E+02  0.17785974646E+03 -0.74573426112E+03  0.77008971700E+03  0.00000000000E+00 0.  1.
<scales pt_clust_3="14000.00000" pt_clust_4="93.60094" pt_clust_5="70.70887" pt_clust_6="167.47237"></scales>
<clustering>
<clus scale="   70.709">  1  5  2 -1</clus>
<clus scale="   93.601">  1  4  2 -1</clus>
<clus scale="  167.472">  2  6  1 -1</clus>
<clus scale="   70.709">  1  3  2 -1</clus>
</clustering>
</event>
<event>
 6    0  0.1080632E+003  0.1153439E+03  0.7546771E-02  0.1250982E+00
         21   -1    0    0  504  501  0.00000000000E+00  0.00000000000E+00  0.50190906442E+03  0.50190906442E+03  0.00000000000E+00 0.  1.
         21   -1    0    0  505  502 -0.00000000000E+00 -0.00000000000E+00 -0.16172323848E+03  0.16172323848E+03  0.00000000000E+00 0.  1.
         21    1    1    2  503  501 -0.10084471972E+03  0.21102454201E+02 -0.31706598746E+02  0.10779740012E+03  0.00000000000E+00 0.  1.
         21    1    1    2  504  506  0.56245999529E+01 -0.65572129295E+02  0.15774853210E+03  0.17092670840E+03  0.00000000000E+00 0. -1.
         21    1    1    2  505  503 -0.11832894297E+02  0.30750840889E+02 -0.71948798946E+02  0.79134450605E+02  0.00000000000E+00 0.  1.
         21    1    1    2  506  502  0.10705301406E+03  0.13718834205E+02  0.28609269153E+03  0.30577374377E+03  0.00000000000E+00 0.  1.
<scales pt_clust_3="14000.00000" pt_clust_4="63.39699" pt_clust_5="32.94892" pt_clust_6="115.34385"></scales>
<clustering>
<clus scale="   32.949">  2  5  1 -1</clus>
<clus scale="   63.397">  1  4  2 -1</clus>
<clus scale="  115.344">  1  6  2 -1</clus>
<clus scale="   63.397">  1  3  2 -1</clus>
</clustering>
</event>
<event>
 6    0  0.1080632E+003  0.1239172E+03  0.7546771E-02  0.1236771E+00
         21   -1    0    0  506  501  0.00000000000E+00  0.00000000000E+00  0.19399693751E+02  0.19399693751E+02  0.00000000000E+00 0.  1.
         21   -1    0    0  504  502 -0.00000000000E+00 -0.00000000000E+00 -0.21217702881E+04  0.21217702881E+04  0.00000000000E+00 0.  1.
         21    1    1    2  503  505 -0.31603118943E+01  0.52936173018E+02 -0.18005420732E+03  0.18770120820E+03  0.00000000000E+00 0.  1.
         21    1    1    2  504  501  0.89425381147E+01 -0.38345960263E+02 -0.12232800378E+04  0.12239135723E+04  0.00000000000E+00 0.  1.
         21    1    1    2  505  502 -0.59987280414E+02  0.72678585036E+02 -0.45706044029E+03  0.46667429393E+03  0.00000000000E+00 0.  1.
         21    1    1    2  506  503  0.54205054194E+02 -0.87268797792E+02 -0.24197590899E+03  0.26288090744E+03  0.00000000000E+00 0.  1.
<scales pt_clust_3="37.69887" pt_clust_4="39.37489" pt_clust_5="37.69887" pt_clust_6="113.26935"></scales>
<clustering>
<clus scale="   37.699">  3  5 -1 -1</clus>
<clus scale="   39.375">  2  4  1 -1</clus>
<clus scale="  113.269">  1  6  2 -1</clus>
<clus scale="  113.269">  1  3  2 -1</clus>
</clustering>
</event>
<event>
 6    0  0.1080632E+003  0.8902817E+02  0.7546771E-02  0.1305222E+00
         21   -1    0    0  503  501  0.00000000000E+00  0.00000000000E+00  0.50366801273E+03  0.50366801273E+03  0.00000000000E+00 0.  1.
         21   -1    0    0  505  502 -0.00000000000E+00 -0.00000000000E+00 -0.21276014172E+03  0.21276014172E+03  0.00000000000E+00 0. -1.
         21    1    1    2  503  504  0.29682389686E+02 -0.33245105696E+02  0.10241049038E+03  0.11168791273E+03  0.00000000000E+00 0.  1.
         21    1    1    2  504  502 -0.10007091188E+03  0.42613354489E+02  0.28438095254E+03  0.30447103565E+03  0.00000000000E+00 0.  1.
         21    1    1    2  505  506 -0.37950352076E+02  0.36412901135E+02 -0.15851886430E+03  0.16701604393E+03  0.00000000000E+00 0. -1.
         21    1    1    2  506  501  0.10833887427E+03 -0.45781149928E+02  0.62635292384E+02  0.13325316213E+03  0.00000000000E+00 0.  1.
<scales pt_clust_3="44.56772" pt_clust_4="89.02817" pt_clust_5="52.11802" pt_clust_6="14000.00000"></scales>
<clustering>
<clus scale="   44.568">  1  3  2 -1</clus>
<clus scale="   52.118">  2  5  1 -1</clus>
<clus scale="   89.028">  1  4  2 -1</clus>
<clus scale="   44.568">  1  3  2 -1</clus>
</clustering>
</event>
<event>
 6    0  0.1080632E+003  0.1388741E+03  0.7546771E-02  0.1214852E+00
         21   -1    0    0  506  501  0.00000000000E+00  0.00000000000E+00  0.16496465963E+04  0.16496465963E+04  0.00000000000E+00 0.  1.
         21   -1    0    0  504  502 -0.00000000000E+00 -0.00000000000E+00 -0.25557353948E+02  0.25557353948E+02  0.00000000000E+00 0. -1.
         21    1    1    2  503  501  0.31927892672E+02 -0.31947140894E+02  0.26584442967E+03  0.26965398370E+03  0.00000000000E+00 0.  1.
         21    1    1    2  504  503  0.10782411545E+03 -0.31959420041E+02  0.16193379601E+03  0.19715475823E+03  0.00000000000E+00 0. -1.
         21    1    1    2  505  502 -0.12452531437E+03  0.23373292097E+02  0.85098154866E+03  0.86036181973E+03  0.00000000000E+00 0.  1.
         21    1    1    2  506  505 -0.15226693749E+02  0.40533268838E+02  0.34532946804E+03  0.34803338860E+03  0.00000000000E+00 0. -1.
<scales pt_clust_3="45.16647" pt_clust_4="117.65100" pt_clust_5="43.13401" pt_clust_6="43.13401"></scales>
<clustering>
<clus scale="   43.134">  5  6 -1 -1</clus>
<clus scale="   45.166">  1  3  2 -1</clus>
<clus scale="  117.651">  2  4  1 -1</clus>
<clus scale="   45.166">  1  3  2 -1</clus>
</clustering>
</event>
<event>
 6    0  0.1080632E+003  0.8470959E+02  0.7546771E-02  0.1316194E+00
         21   -1    0    0  502  501  0.00000000000E+00  0.00000000000E+00  0.64371758224E+03  0.64371758224E+03  0.00000000000E+00 0.  1.
         21   -1    0    0  506  502 -0.00000000000E+00 -0.00000000000E+00 -0.22961706532E+03  0.22961706532E+03  0.00000000000E+00 0. -1.
         21    1    1    2  503  501 -0.27806988873E+02 -0.26803225358E+02  0.16602685105E+03  0.17045983923E+03  0.00000000000E+00 0.  1.
         21    1    1    2  504  503  0.93888169860E+02  0.75085383003E+02  0.35580454658E+03  0.37556581121E+03  0.00000000000E+00 0.  1.
         21    1    1    2  505  504 -0.69473592050E+02 -0.11625582643E+02  0.96674660538E+02  0.11961489938E+03  0.00000000000E+00 0.  1.
         21    1    1    2  506  505  0.33924110634E+01 -0.36656575002E+02 -0.20440554125E+03  0.20769409774E+03  0.00000000000E+00 0. -1.
<scales pt_clust_3="40.87414" pt_clust_4="84.70959" pt_clust_5="14000.00000" pt_clust_6="36.81322"></scales>
<clustering>
<clus scale="   36.813">  2  6  1 -1</clus>
<clus scale="   40.874">  1  3  2 -1</clus>
<clus scale="   84.710">  1  4  2 -1</clus>
<clus scale="   40.874">  1  3  2 -1</clus>
</clustering>
</event>
<event>
 6    0  0.1080632E+003  0.9458995E+02  0.7546771E-02  0.1292102E+00
         21   -1    0    0  504  501  0.00000000000E+00  0.00000000000E+00  0.53556156377E+03  0.53556156377E+03  0.00000000000E+00 0.  1.
         21   -1    0    0  503  502 -0.00000000000E+00 -0.00000000000E+00 -0.99792487554E+02  0.99792487554E+02  0.00000000000E+00 0.  1.
         21    1    1    2  503  506  0.12707755484E+02  0.87004511801E+02 -0.11091354461E+02  0.88624433804E+02  0.00000000000E+00 0.  1.
         21    1    1    2  504  505  0.11427864747E+02 -0.12990425419E+03  0.40201020555E+03  0.42263212930E+03  0.00000000000E+00 0.  1.
         21    1    1    2  505  502 -0.38222257672E+02  0.22112591033E+01 -0.22315674380E+02  0.44315008421E+02  0.00000000000E+00 0. -1.
         21    1    1    2  506  501  0.14086637441E+02  0.40688483288E+02  0.67165899507E+02  0.79782479801E+02  0.00000000000E+00 0.  1.
<scales pt_clust_3="94.58995" pt_clust_4="14000.00000" pt_clust_5="38.28617" pt_clust_6="42.21463"></scales>
<clustering>
<clus scale="   38.286">  2  5  1 -1</clus>
<clus scale="   42.215">  1  6  2 -1</clus>
<clus scale="   94.590">  2  3  1 -1</clus>
<clus scale="   42.215">  1  3  2 -1</clus>
</clustering>
</event>
<event>
 6    0  0.1080632E+003  0.1499677E+03  0.7546771E-02  0.1200513E+00
         21   -1    0    0  505  501  0.00000000000E+00  0.00000000000E+00  0.16788661030E+04  0.16788661030E+04  0.00000000000E+00 0. -1.
         21   -1    0    0  506  502 -0.00000000000E+00 -0.00000000000E+00 -0.68953539440E+02  0.68953539440E+02  0.00000000000E+00 0. -1.
         21    1    1    2  503  504  0.12871334726E+03  0.14363943135E+02  0.12196827192E+04  0.12265395974E+04  0.00000000000E+00 0. -1.
         21    1    1    2  504  502  0.50139349125E+02 -0.24787584462E+01  0.81571277687E+02  0.95780853606E+02  0.00000000000E+00 0. -1.
         21    1    1    2  505  503  0.15240024563E+02 -0.49175636382E+02  0.18575936454E+03  0.19276162241E+03  0.00000000000E+00 0. -1.
         21    1    1    2  506  501 -0.19409272095E+03  0.37290451693E+02  0.12289920210E+03  0.23273756893E+03  0.00000000000E+00 0. -1.
<scales pt_clust_3="14000.00000" pt_clust_4="50.20058" pt_clust_5="52.52512" pt_clust_6="149.96769"></scales>
<clustering>
<clus scale="   50.201">  2  4  1 -1</clus>
<clus scale="   52.525">  1  5  2 -1</clus>
<clus scale="  149.968">  2  6  1 -1</clus>
<clus scale="   52.525">  1  3  2 -1</clus>
</clustering>
</event>
<event>
 6    0  0.1080632E+003  0.9138474E+02  0.7546771E-02  0.1299533E+00
         21   -1    0    0  504  501  0.00000000000E+00  0.00000000000E+00  0.14039628977E+03  0.14039628977E+03  0.00000000000E+00 0.  1.
         21   -1    0    0  503  502 -0.00000000000E+00 -0.00000000000E+00 -0.27724448602E+03  0.27724448602E+03  0.00000000000E+00 0.  1.
         21    1    1    2  503  505 -0.25755384610E+02 -0.24604735710E+02 -0.18433893411E+03  0.18774870301E+03  0.00000000000E+00 0.  1.
         21    1    1    2  504  506  0.86825675705E+02 -0.26616702494E+02  0.36164448641E+02  0.97749752730E+02  0.00000000000E+00 0.  1.
         21    1    1    2  505  501 -0.32167013306E+01 -0.30974448589E+02  0.25573411124E+01  0.31245857748E+02  0.00000000000E+00 0. -1.
         21    1    1    2  506  502 -0.57853589765E+02  0.82195886792E+02  0.87689480987E+01  0.10089646230E+03  0.00000000000E+00 0.  1.
<scales pt_clust_3="35.94785" pt_clust_4="91.38474" pt_clust_5="31.14103" pt_clust_6="14000.00000"></scales>
<clustering>
<clus scale="   31.141">  1  5  2 -1</clus>
<clus scale="   35.948">  2  3  1 -1</clus>
<clus scale="   91.385">  1  4  2 -1</clus>
<clus scale="   31.141">  1  3  2 -1</clus>
</clustering>
</event>
<event>
 6    0  0.1080632E+003  0.1813297E+03  0.7546771E-02  0.1166522E+00
         21   -1    0    0  503  501  0.00000000000E+00  0.00000000000E+00  0.34061034572E+03  0.34061034572E+03  0.00000000000E+00 0.  1.
         21   -1    0    0  506  502 -0.00000000000E+00 -0.00000000000E+00 -0.16625542319E+03  0.16625542319E+03  0.00000000000E+00 0.  1.
         21    1    1    2  503  502  0.10580111772E+03 -0.11084346098E+03  0.21828690739E+02  0.15477933032E+03  0.00000000000E+00 0.  1.
         21    1    1    2  504  505 -0.63304020443E+02  0.54356340517E+02  0.14018499148E+03  0.16313749598E+03  0.00000000000E+00 0.  1.
         21    1    1    2  505  501 -0.37811102807E+02  0.89658852991E+02  0.71645415210E+02  0.12083648015E+03  0.00000000000E+00 0.  1.
         21    1    1    2  506  504 -0.46859944720E+01 -0.33171732523E+02 -0.59304174890E+02  0.68112462458E+02  0.00000000000E+00 0.  1.
<scales pt_clust_3="167.55893" pt_clust_4="65.76699" pt_clust_5="65.76699" pt_clust_6="33.50108"></scales>
<clustering>
<clus scale="   33.501">  2  6  1 -1</clus>
<clus scale="   65.767">  4  5 -1 -1</clus>
<clus scale="  167.559">  2  3  1 -1</clus>
<clus scale="  181.330">  1  3  2 -1</clus>
</clustering>
</event>
<event>
 6    0  0.1080632E+003  0.6878075E+02  0.7546771E-02  0.1364289E+00
         21   -1    0    0  506  501  0.00000000000E+00  0.00000000000E+00  0.54096793575E+02  0.54096793575E+02  0.00000000000E+00 0.  1.
         21   -1    0    0  504  502 -0.00000000000E+00 -0.00000000000E+00 -0.38166434848E+03  0.38166434848E+03  0.00000000000E+00 0.  1.
         21    1    1    2  503  502 -0.77173477628E+01  0.52580423377E+02 -0.84782665287E+02  0.10006177448E+03  0.00000000000E+00 0.  1.
         21    1    1    2  504  501 -0.44945665497E+02 -0.17977289281E+02 -0.12574383711E+02  0.50014107036E+02  0.00000000000E+00 0.  1.
         21    1    1    2  505  503 -0.84787789267E+01 -0.86425171003E+02 -0.14245528418E+03  0.16683736951E+03  0.00000000000E+00 0.  1.
         21    1    1    2  506  505  0.61141792186E+02  0.51822036908E+02 -0.87755221724E+02  0.11884789102E+03  0.00000000000E+00 0.  1.
<scales pt_clust_3="51.72129" pt_clust_4="48.40760" pt_clust_5="68.78075" pt_clust_6="14000.00000"></scales>
<clustering>
<clus scale="   48.408">  1  4  2 -1</clus>
<clus scale="   51.721">  2  3  1 -1</clus>
<clus scale="   68.781">  2  5  1 -1</clus>
<clus scale="   48.408">  1  3  2 -1</clus>
</clustering>
</event>
<event>
 6    0  0.1080632E+003  0.1111828E+03  0.7546771E-02  0.1258395E+00
         21   -1    0    0  504  501  0.00000000000E+00  0.00000000000E+00  0.51562866734E+03  0.51562866734E+03  0.00000000000E+00 0. -1.
         21   -1    0    0  505  502 -0.00000000000E+00 -0.00000000000E+00 -0.11796651025E+03  0.11796651025E+03  0.00000000000E+00 0.  1.
         21    1    1    2  503  506  0.14656143421E+02 -0.70946401103E+02  0.78561972032E+01  0.72869158112E+02  0.00000000000E+00 0.  1.
         21    1    1    2  504  502 -0.82101794425E+02  0.12422060850E+03  0.33811674400E+03  0.36945148098E+03  0.00000000000E+00 0. -1.
         21    1    1    2  505  503  0.29509966614E+02  0.16086370513E+02 -0.51368359855E+02  0.61386625905E+02  0.00000000000E+00 0.  1.
         21    1    1    2  506  501  0.37935684390E+02 -0.69360577913E+02  0.10305757574E+03  0.12988791258E+03  0.00000000000E+00 0.  1.
<scales pt_clust_3="69.38803" pt_clust_4="14000.00000" pt_clust_5="33.60966" pt_clust_6="111.18279"></scales>
<clustering>
<clus scale="   33.610">  2  5  1 -1</clus>
<clus scale="   69.388">  2  3  1 -1</clus>
<clus scale="  111.183">  1  6  2 -1</clus>
<clus scale="  111.183">  1  3  2 -1</clus>
</clustering>
</event>
<event>
 6    0  0.1080632E+003  0.1378469E+03  0.7546771E-02  0.1216256E+00
         21   -1    0    0  505  501  0.00000000000E+00  0.00000000000E+00  0.13891545991E+04  0.13891545991E+04  0.00000000000E+00 0.  1.
         21   -1    0    0  504  502 -0.00000000000E+00 -0.00000000000E+00 -0.10443640894E+03  0.10443640894E+03  0.00000000000E+00 0.  1.
         21    1    1    2  503  506 -0.55049273194E+02 -0.25377796519E+01  0.75674773079E+03  0.75875160023E+03  0.00000000000E+00 0.  1.
         21    1    1    2  504  503 -0.50355737249E+02  0.70043453429E+02  0.43948621140E+03  0.44787265562E+03  0.00000000000E+00 0.  1.
         21    1    1    2  505  502  0.13841921805E+03 -0.46968364661E+02 -0.40966546472E+02  0.15180304718E+03  0.00000000000E+00 0.  1.
         21    1    1    2  506  501 -0.33014207603E+02 -0.20537309117E+02  0.12945079445E+03  0.13516370501E+03  0.00000000000E+00 0. -1.
<scales pt_clust_3="76.42392" pt_clust_4="14000.00000" pt_clust_5="137.84688" pt_clust_6="38.88083"></scales>
<clustering>
<clus scale="   38.881">  1  6  2 -1</clus>
<clus scale="   76.424">  1  3  2 -1</clus>
<clus scale="  137.847">  2  5  1 -1</clus>
<clus scale="   38.881">  1  3  2 -1</clus>
</clustering>
</event>
<event>
 6    0  0.1080632E+003  0.1246979E+03  0.7546771E-02  0.1235542E+00
         21   -1    0    0  502  501  0.00000000000E+00  0.00000000000E+00  0.81719849686E+03  0.81719849686E+03  0.00000000000E+00 0.  1.
         21   -1    0    0  504  502 -0.00000000000E+00 -0.00000000000E+00 -0.33068757935E+02  0.33068757935E+02  0.00000000000E+00 0.  1.
         21    1    1    2  503  506 -0.29419354936E+02 -0.67023948652E+02  0.10724039398E+03  0.12983917067E+03  0.00000000000E+00 0.  1.
         21    1    1    2  504  503  0.41229964185E+02  0.23658927565E+02  0.72514169725E+02  0.86706168241E+02  0.00000000000E+00 0. -1.
         21    1    1    2  505  501 -0.75092700365E+01  0.11320696334E+03  0.45242620872E+03  0.46643507589E+03  0.00000000000E+00 0.  1.
         21    1    1    2  506  505 -0.43013392121E+01 -0.69841942249E+02  0.15194896650E+03  0.16728684000E+03  0.00000000000E+00 0.  1.
<scales pt_clust_3="34.36572" pt_clust_4="47.53583" pt_clust_5="119.64186" pt_clust_6="34.36572"></scales>
<clustering>
<clus scale="   34.366">  3  6 -1 -1</clus>
<clus scale="   47.536">  2  4  1 -1</clus>
<clus scale="  119.642">  1  5  2 -1</clus>
<clus scale="  119.642">  1  3  2 -1</clus>
</clustering>
</event>
<event>
 6    0  0.1080632E+003  0.1025576E+03  0.7546771E-02  0.1275008E+00
         21   -1    0    0  505  501  0.00000000000E+00  0.00000000000E+00  0.17882806818E+04  0.17882806818E+04  0.00000000000E+00 0. -1.
         21   -1    0    0  503  502 -0.00000000000E+00 -0.00000000000E+00 -0.14241600433E+04  0.14241600433E+04  0.00000000000E+00 0.  1.
         21    1    1    2  503  506  0.37114649256E+02  0.20289394556E+02 -0.67650120958E+02  0.79785309340E+02  0.00000000000E+00 0.  1.
         21    1    1    2  504  502 -0.41235926096E+02  0.45124975771E+02 -0.11265296704E+04  0.11281869363E+04  0.00000000000E+00 0.  1.
         21    1    1    2  505  504 -0.77466930068E+02 -0.28009773496E+01 -0.21481470677E+03  0.22837322298E+03  0.00000000000E+00 0.  1.
         21    1    1    2  506  501  0.81588206908E+02 -0.62613392977E+02  0.17731151366E+04  0.17760952565E+04  0.00000000000E+00 0. -1.
<scales pt_clust_3="42.29842" pt_clust_4="62.90381" pt_clust_5="14000.00000" pt_clust_6="102.55758"></scales>
<clustering>
<clus scale="   42.298">  2  3  1 -1</clus>
<clus scale="   62.904">  2  4  1 -1</clus>
<clus scale="  102.558">  1  6  2 -1</clus>
<clus scale="  102.558">  1  3  2 -1</clus>
</clustering>
</event>
<event>
 6    0  0.1080632E+003  0.1248269E+03  0.7546771E-02  0.1235340E+00
         21   -1    0    0  503  501  0.00000000000E+00  0.00000000000E+00  0.13271858906E+03  0.13271858906E+03  0.00000000000E+00 0.  1.
         21   -1    0    0  504  502 -0.00000000000E+00 -0.00000000000E+00 -0.67011588912E+03  0.67011588912E+03  0.00000000000E+00 0.  1.
         21    1    1    2  503  502 -0.42133371555E+02  0.66423814450E+01 -0.41768628826E+03  0.41985852097E+03  0.00000000000E+00 0.  1.
         21    1    1    2  504  506  0.30297046075E+02 -0.12243308480E+02 -0.84419958303E+02  0.90523692828E+02  0.00000000000E+00 0.  1.
         21    1    1    2  505  501 -0.10392244660E+03 -0.10595988691E+02  0.77460626113E+02  0.13004729325E+03  0.00000000000E+00 0.  1.
         21    1    1    2  506  505  0.11575877208E+03  0.16196915726E+02 -0.11275167961E+03  0.16240497113E+03  0.00000000000E+00 0.  1.
<scales pt_clust_3="42.65375" pt_clust_4="32.37128" pt_clust_5="108.78160" pt_clust_6="32.37128"></scales>
<clustering>
<clus scale="   32.371">  4  6 -1 -1</clus>
<clus scale="   42.654">  2  3  1 -1</clus>
<clus scale="  108.782">  1  5  2 -1</clus>
<clus scale="  108.782">  1  3  2 -1</clus>
</clustering>
</event>
<event>
 6    0  0.1080632E+003  0.7327615E+02  0.7546771E-02  0.1349294E+00
         21   -1    0    0  506  501  0.00000000000E+00  0.00000000000E+00  0.31769266492E+02  0.31769266492E+02  0.00000000000E+00 0.  1.
         21   -1    0    0  504  502 -0.00000000000E+00 -0.00000000000E+00 -0.12885406106E+04  0.12885406106E+04  0.00000000000E+00 0.  1.
         21    1    1    2  503  505 -0.26078058976E+02  0.56362440603E+02 -0.20126837704E+03  0.21063178646E+03  0.00000000000E+00 0.  1.
         21    1    1    2  504  503 -0.16546766665E+02  0.70302637383E+02 -0.84897532646E+03  0.85204187764E+03  0.00000000000E+00 0.  1.
         21    1    1    2  505  501  0.42595458030E+02 -0.37995413392E+02 -0.12398701339E+03  0.13649470309E+03  0.00000000000E+00 0.  1.
         21    1    1    2  506  502  0.29367611009E-01 -0.88669664594E+02 -0.82540627246E+02  0.12114150993E+03  0.00000000000E+00 0.  1.
<scales pt_clust_3="52.65901" pt_clust_4="73.27615" pt_clust_5="57.07911" pt_clust_6="14000.00000"></scales>
<clustering>
<clus scale="   57.079">  1  5  2 -1</clus>
<clus scale="   52.659">  1  3  2 -1</clus>
<clus scale="   73.276">  2  4  1 -1</clus>
<clus scale="   57.079">  1  3  2 -1</clus>
</clustering>
</event>
<event>
 6    0  0.1080632E+003  0.1257771E+03  0.7546771E-02  0.1233860E+00
         21   -1    0    0  505  501  0.00000000000E+00  0.00000000000E+00  0.65371045196E+03  0.65371045196E+03  0.00000000000E+00 0. -1.
         21   -1    0    0  503  502 -0.00000000000E+00 -0.00000000000E+00 -0.49774487814E+03  0.49774487814E+03  0.00000000000E+00 0.  1.
         21    1    1    2  503  506 -0.50625058965E+02  0.97351385429E+01 -0.23048361415E+02  0.56470315048E+02  0.00000000000E+00 0.  1.
         21    1    1    2  504  502 -0.70184753036E+02  0.27403557197E+02 -0.43319933636E+03  0.43970276270E+03  0.00000000000E+00 0.  1.
         21    1    1    2  505  504  0.15461418798E+03  0.31215288871E+00  0.28533053540E+03  0.32452913428E+03  0.00000000000E+00 0. -1.
         21    1    1    2  506  501 -0.33804375975E+02 -0.37450848629E+02  0.32688273619E+03  0.33075311807E+03  0.00000000000E+00 0. -1.
<scales pt_clust_3="52.94285" pt_clust_4="14000.00000" pt_clust_5="125.77711" pt_clust_6="50.45099"></scales>
<clustering>
<clus scale="   50.451">  1  6  2 -1</clus>
<clus scale="   52.943">  2  3  1 -1</clus>
<clus scale="  125.777">  1  5  2 -1</clus>
<clus scale="   50.451">  1  3  2 -1</clus>
</clustering>
</event>
<event>
 6    0  0.1080632E+003  0.9221046E+02  0.7546771E-02  0.1297585E+00
         21   -1    0    0  504  501  0.00000000000E+00  0.00000000000E+00  0.23550990386E+03  0.23550990386E+03  0.00000000000E+00 0. -1.
         21   -1    0    0  505  502 -0.00000000000E+00 -0.00000000000E+00 -0.27859937940E+03  0.27859937940E+03  0.00000000000E+00 0.  1.
         21    1    1    2  503  502  0.43434571931E+02  0.88336327560E+00 -0.19310288832E+03  0.19792945170E+03  0.00000000000E+00 0.  1.
         21    1    1    2  504  506 -0.38403511867E+02  0.67533530900E+02  0.66396742417E+02  0.10219655045E+03  0.00000000000E+00 0. -1.
         21    1    1    2  505  501 -0.91614310929E+02 -0.31775372815E+02  0.68585001859E+02  0.11877187699E+03  0.00000000000E+00 0. -1.
         21    1    1    2  506  503  0.86583250865E+02 -0.36641521360E+02  0.15031668502E+02  0.95211404128E+02  0.00000000000E+00 0. -1.
<scales pt_clust_3="43.44355" pt_clust_4="73.68971" pt_clust_5="92.21046" pt_clust_6="14000.00000"></scales>
<clustering>
<clus scale="   43.444">  2  3  1 -1</clus>
<clus scale="   73.690">  1  4  2 -1</clus>
<clus scale="   92.210">  2  5  1 -1</clus>
<clus scale="   73.690">  1  3  2 -1</clus>
</clustering>
</event>
<event>
 6    0  0.1080632E+003  0.2163918E+03  0.7546771E-02  0.1136602E+00
         21   -1    0    0  506  501  0.00000000000E+00  0.00000000000E+00  0.55397565075E+03  0.55397565075E+03  0.00000000000E+00 0.  1.
         21   -1    0    0  504  502 -0.00000000000E+00 -0.00000000000E+00 -0.19630051894E+03  0.19630051894E+03  0.00000000000E+00 0.  1.
         21    1    1    2  503  501 -0.13950828642E+03  0.90007078409E+02  0.34125234161E+03  0.37949571381E+03  0.00000000000E+00 0.  1.
         21    1    1    2  504  505  0.39443218033E+02 -0.89859414186E+01 -0.75527281494E+02  0.85678963823E+02  0.00000000000E+00 0.  1.
         21    1    1    2  505  503 -0.27823864510E+02  0.49774555051E+02  0.84601263438E+02  0.10202473985E+03  0.00000000000E+00 0.  1.
         21    1    1    2  506  502  0.12788893290E+03 -0.13079569204E+03  0.73488082576E+01  0.18307675220E+03  0.00000000000E+00 0.  1.
<scales pt_clust_3="31.94805" pt_clust_4="40.45386" pt_clust_5="31.94805" pt_clust_6="209.41281"></scales>
<clustering>
<clus scale="   31.948">  3  5 -1 -1</clus>
<clus scale="   40.454">  2  4  1 -1</clus>
<clus scale="  209.413">  2  6  1 -1</clus>
<clus scale="  216.392">  1  3  2 -1</clus>
</clustering>
</event>
<event>
 6    0  0.1080632E+003  0.2286919E+03  0.7546771E-02  0.1127564E+00
         21   -1    0    0  505  501  0.00000000000E+00  0.00000000000E+00  0.56818633397E+03  0.56818633397E+03  0.00000000000E+00 0. -1.
         21   -1    0    0  503  502 -0.00000000000E+00 -0.00000000000E+00 -0.77010034107E+03  0.77010034107E+03  0.00000000000E+00 0. -1.
         21    1    1    2  503  504  0.18349271875E+03 -0.11405676123E+03  0.35235116164E+02  0.21890645497E+03  0.00000000000E+00 0. -1.
         21    1    1    2  504  501  0.80921058851E+02 -0.15744135810E+02  0.19650703868E+02  0.84748131192E+02  0.00000000000E+00 0.  1.
         21    1    1    2  505  506 -0.61035125843E+02  0.56375206570E+02  0.36602706927E+03  0.37533886815E+03  0.00000000000E+00 0. -1.
         21    1    1    2  506  502 -0.20337865175E+03  0.73425690468E+02 -0.62282689640E+03  0.65929322073E+03  0.00000000000E+00 0. -1.
<scales pt_clust_3="30.45471" pt_clust_4="30.45471" pt_clust_5="83.08701" pt_clust_6="223.31427"></scales>
<clustering>
<clus scale="   30.455">  3  4 -1 -1</clus>
<clus scale="   83.087">  1  5  2 -1</clus>
<clus scale="  223.314">  2  6  1 -1</clus>
<clus scale="   83.087">  1  3  2 -1</clus>
</clustering>
</event>
<event>
 6    0  0.1080632E+003  0.1799669E+03  0.7546771E-02  0.1167835E+00
         21   -1    0    0  503  501  0.00000000000E+00  0.00000000000E+00  0.32717651507E+04  0.32717651507E+04  0.00000000000E+00 0.  1.
         21   -1    0    0  506  502 -0.00000000000E+00 -0.00000000000E+00 -0.99319526059E+02  0.99319526059E+02  0.00000000000E+00 0. -1.
         21    1    1    2  503  502  0.65204967093E+02 -0.22716537946E+02  0.99276925574E+02  0.12092822988E+03  0.00000000000E+00 0. -1.
         21    1    1    2  504  501 -0.17403912531E+03 -0.52579283409E+02  0.30787270645E+04  0.30840905524E+04  0.00000000000E+00 0.  1.
         21    1    1    2  505  504  0.12428973073E+03  0.45581178236E+02 -0.66880213133E+01  0.13255304826E+03  0.00000000000E+00 0. -1.
         21    1    1    2  506  505 -0.15455572519E+02  0.29714643119E+02  0.11296559322E+01  0.33512846195E+02  0.00000000000E+00 0.  1.
<scales pt_clust_3="65.94284" pt_clust_4="179.96690" pt_clust_5="14000.00000" pt_clust_6="33.49380"></scales>
<clustering>
<clus scale="   33.494">  2  6  1 -1</clus>
<clus scale="   65.943">  2  3  1 -1</clus>
<clus scale="  179.967">  1  4  2 -1</clus>
<clus scale="  179.967">  1  3  2 -1</clus>
</clustering>
</event>
<event>
 6    0  0.1080632E+003  0.1099187E+03  0.7546771E-02  0.1260720E+00
         21   -1    0    0  503  501  0.00000000000E+00  0.00000000000E+00  0.24198170189E+02  0.24198170189E+02  0.00000000000E+00 0.  1.
         21   -1    0    0  505  502 -0.00000000000E+00 -0.00000000000E+00 -0.13677325428E+04  0.13677325428E+04  0.00000000000E+00 0. -1.
         21    1    1    2  503  502  0.43750556438E+02  0.73424347856E+02 -0.28228935104E+03  0.29494495038E+03  0.00000000000E+00 0.  1.
         21    1    1    2  504  506 -0.32231098155E+02 -0.66166987857E+02 -0.10534683890E+03  0.12851019585E+03  0.00000000000E+00 0.  1.
         21    1    1    2  505  504 -0.18954032138E+02  0.41340306708E+02 -0.85528580263E+03  0.85649406330E+03  0.00000000000E+00 0. -1.
         21    1    1    2  506  501  0.74345738552E+01 -0.48597666707E+02 -0.10061238000E+03  0.11198150342E+03  0.00000000000E+00 0.  1.
<scales pt_clust_3="102.22944" pt_clust_4="33.00985" pt_clust_5="45.47831" pt_clust_6="33.00985"></scales>
<clustering>
<clus scale="   33.010">  4  6 -1 -1</clus>
<clus scale="   45.478">  2  5  1 -1</clus>
<clus scale="  102.229">  2  3  1 -1</clus>
<clus scale="  109.919">  1  3  2 -1</clus>
</clustering>
</event>
<event>
 6    0  0.1080632E+003  0.2209200E+03  0.7546771E-02  0.1133199E+00
         21   -1    0    0  504  501  0.00000000000E+00  0.00000000000E+00  0.28449749745E+03  0.28449749745E+03  0.00000000000E+00 0. -1.
         21   -1    0    0  506  502 -0.00000000000E+00 -0.00000000000E+00 -0.51707771105E+03  0.51707771105E+03  0.00000000000E+00 0.  1.
         21    1    1    2  503  505 -0.52927228330E+02  0.29413429775E+03 -0.11270456430E+03  0.31940349939E+03  0.00000000000E+00 0.  1.
         21    1    1    2  504  502  0.97165832484E+02 -0.65662869189E+02 -0.95634524953E+02  0.15132340782E+03  0.00000000000E+00 0.  1.
         21    1    1    2  505  501  0.19916903463E+02 -0.19547152777E+03  0.73139234317E+02  0.20965483254E+03  0.00000000000E+00 0. -1.
         21    1    1    2  506  503 -0.64155507618E+02 -0.32999900794E+02 -0.97380358665E+02  0.12119346873E+03  0.00000000000E+00 0.  1.
<scales pt_clust_3="220.92002" pt_clust_4="108.47651" pt_clust_5="14000.00000" pt_clust_6="72.14515"></scales>
<clustering>
<clus scale="   72.145">  2  6  1 -1</clus>
<clus scale="  108.477">  2  4  1 -1</clus>
<clus scale="  220.920">  2  3  1 -1</clus>
<clus scale="  220.920">  1  3  2 -1</clus>
</clustering>
</event>
<event>
 6    0  0.1080632E+003  0.1124412E+03  0.7546771E-02  0.1256115E+00
         21   -1    0    0  504  501  0.00000000000E+00  0.00000000000E+00  0.66223813793E+03  0.66223813793E+03  0.00000000000E+00 0. -1.
         21   -1    0    0  505  502 -0.00000000000E+00 -0.00000000000E+00 -0.88994702030E+03  0.88994702030E+03  0.00000000000E+00 0.  1.
         21    1    1    2  503  506  0.72151966736E+02 -0.11447516129E+03  0.27640470335E+03  0.30774994540E+03  0.00000000000E+00 0. -1.
         21    1    1    2  504  502 -0.71534278806E+02  0.35607472989E+02  0.34102556091E+03  0.35026201389E+03  0.00000000000E+00 0. -1.
         21    1    1    2  505  503 -0.27299094243E+01  0.11235730154E+03 -0.85245231142E+03  0.85982937776E+03  0.00000000000E+00 0.  1.
         21    1    1    2  506  501  0.21122214944E+01 -0.33489613237E+02  0.73131647747E+01  0.34343821182E+02  0.00000000000E+00 0. -1.
<scales pt_clust_3="112.44122" pt_clust_4="72.55326" pt_clust_5="14000.00000" pt_clust_6="33.55616"></scales>
<clustering>
<clus scale="   33.556">  1  6  2 -1</clus>
<clus scale="   72.553">  1  4  2 -1</clus>
<clus scale="  112.441">  1  3  2 -1</clus>
<clus scale="   33.556">  1  3  2 -1</clus>
</clustering>
</event>
<event>
 6    0  0.1080632E+003  0.9039390E+02  0.7546771E-02  0.1301901E+00
         21   -1    0    0  503  501  0.00000000000E+00  0.00000000000E+00  0.50962026258E+03  0.50962026258E+03  0.00000000000E+00 0. -1.
         21   -1    0    0  506  502 -0.00000000000E+00 -0.00000000000E+00 -0.67925851899E+02  0.67925851899E+02  0.00000000000E+00 0.  1.
         21    1    1    2  503  504  0.55482484272E+02 -0.17660761689E+02  0.26188149681E+03  0.26827621388E+03  0.00000000000E+00 0. -1.
         21    1    1    2  504  505 -0.52609257543E+02 -0.61563247869E+02  0.68874083739E+02  0.10630807532E+03  0.00000000000E+00 0. -1.
         21    1    1    2  505  502  0.32272701924E+02  0.93648775319E+02  0.15525231022E+02  0.10026292040E+03  0.00000000000E+00 0.  1.
         21    1    1    2  506  501 -0.35145928653E+02 -0.14424765761E+02  0.95413599118E+02  0.10269890489E+03  0.00000000000E+00 0.  1.
<scales pt_clust_3="42.45971" pt_clust_4="90.39390" pt_clust_5="14000.00000" pt_clust_6="37.99092"></scales>
<clustering>
<clus scale="   37.991">  1  6  2 -1</clus>
<clus scale="   42.460">  1  3  2 -1</clus>
<clus scale="   90.394">  1  4  2 -1</clus>
<clus scale="   37.991">  1  3  2 -1</clus>
</clustering>
</event>
<event>
 6    0  0.1080632E+003  0.7230696E+02  0.7546771E-02  0.1352419E+00
         21   -1    0    0  506  501  0.00000000000E+00  0.00000000000E+00  0.85526516281E+02  0.85526516281E+02  0.00000000000E+00 0.  1.
         21   -1    0    0  505  502 -0.00000000000E+00 -0.00000000000E+00 -0.32961911687E+03  0.32961911687E+03  0.00000000000E+00 0.  1.
         21    1    1    2  503  501  0.68636095970E+02 -0.18583142346E+02  0.26318552811E+02  0.75821587107E+02  0.00000000000E+00 0.  1.
         21    1    1    2  504  502  0.51459131519E+02 -0.83411350332E+01 -0.45624240418E+02  0.69276172412E+02  0.00000000000E+00 0.  1.
         21    1    1    2  505  503 -0.87274142289E+02 -0.13985903820E+02 -0.18212329546E+03  0.20243832683E+03  0.00000000000E+00 0.  1.
         21    1    1    2  506  504 -0.32821085200E+02  0.40910181199E+02 -0.42663617519E+02  0.67609546805E+02  0.00000000000E+00 0.  1.
<scales pt_clust_3="14000.00000" pt_clust_4="52.13077" pt_clust_5="72.30696" pt_clust_6="45.16458"></scales>
<clustering>
<clus scale="   52.131">  2  4  1 -1</clus>
<clus scale="   45.165">  2  6  1 -1</clus>
<clus scale="   72.307">  2  5  1 -1</clus>
<clus scale="   72.307">  1  3  2 -1</clus>
</clustering>
</event>
<event>
 6    0  0.1080632E+003  0.1460871E+03  0.7546771E-02  0.1205365E+00
         21   -1    0    0  505  501  0.00000000000E+00  0.00000000000E+00  0.31809212213E+03  0.31809212213E+03  0.00000000000E+00 0. -1.
         21   -1    0    0  504  502 -0.00000000000E+00 -0.00000000000E+00 -0.27289779730E+03  0.27289779730E+03  0.00000000000E+00 0.  1.
         21    1    1    2  503  501  0.91955022043E+02  0.54508866241E+02 -0.22471951381E+02  0.10923337941E+03  0.00000000000E+00 0.  1.
         21    1    1    2  504  503 -0.20859945344E+02  0.85065395134E+02 -0.17144015728E+03  0.19251749608E+03  0.00000000000E+00 0.  1.
         21    1    1    2  505  506 -0.52918260363E+02 -0.81315750531E+02  0.11156832767E+03  0.14785156510E+03  0.00000000000E+00 0. -1.
         21    1    1    2  506  502 -0.18176816335E+02 -0.58258510844E+02  0.12753810582E+03  0.14138747884E+03  0.00000000000E+00 0. -1.
<scales pt_clust_3="139.24654" pt_clust_4="87.58572" pt_clust_5="35.03982" pt_clust_6="35.03982"></scales>
<clustering>
<clus scale="   35.040">  5  6 -1 -1</clus>
<clus scale="   87.586">  2  4  1 -1</clus>
<clus scale="  139.247">  2  3  1 -1</clus>
<clus scale="  146.087">  1  3  2 -1</clus>
</clustering>
</event>
<event>
 6    0  0.1080632E+003  0.1003455E+03  0.7546771E-02  0.1279571E+00
         21   -1    0    0  506  501  0.00000000000E+00  0.00000000000E+00  0.13706085653E+03  0.13706085653E+03  0.00000000000E+00 0.  1.
         21   -1    0    0  504  502 -0.00000000000E+00 -0.00000000000E+00 -0.47898034605E+03  0.47898034605E+03  0.00000000000E+00 0.  1.
         21    1    1    2  503  501 -0.73748871359E+02 -0.23820773668E+02  0.41089295301E+02  0.87719185320E+02  0.00000000000E+00 0.  1.
         21    1    1    2  504  503 -0.39228443432E+02 -0.63821968059E+02 -0.37121618126E+03  0.37869983841E+03  0.00000000000E+00 0.  1.
         21    1    1    2  505  502  0.52497104124E+02  0.66749194162E+02 -0.24416840623E+01  0.84955062731E+02  0.00000000000E+00 0.  1.
         21    1    1    2  506  505  0.60480210667E+02  0.20893547564E+02 -0.93509194928E+01  0.64667116122E+02  0.00000000000E+00 0.  1.
<scales pt_clust_3="90.92093" pt_clust_4="74.91405" pt_clust_5="36.85472" pt_clust_6="36.85472"></scales>
<clustering>
<clus scale="   36.855">  5  6 -1 -1</clus>
<clus scale="   74.914">  2  4  1 -1</clus>
<clus scale="   90.921">  1  3  2 -1</clus>
<clus scale="   90.921">  1  3  2 -1</clus>
</clustering>
</event>
<event>
 6    0  0.1080632E+003  0.1453502E+03  0.7546771E-02  0.1206306E+00
         21   -1    0    0  504  501  0.00000000000E+00  0.00000000000E+00  0.86475638998E+03  0.86475638998E+03  0.00000000000E+00 0. -1.
         21   -1    0    0  506  502 -0.00000000000E+00 -0.00000000000E+00 -0.20812525182E+03  0.20812525182E+03  0.00000000000E+00 0. -1.
         21    1    1    2  503  501  0.49418619219E+02  0.43425347248E+02  0.67377531311E+03  0.67697941865E+03  0.00000000000E+00 0. -1.
         21    1    1    2  504  502 -0.21847658476E+02 -0.55151259364E+02  0.27180219091E+02  0.65251405351E+02  0.00000000000E+00 0. -1.
         21    1    1    2  505  503  0.65056352056E+02  0.97474392750E+02  0.88923663743E+02  0.14710881741E+03  0.00000000000E+00 0.  1.
         21    1    1    2  506  505 -0.92627312799E+02 -0.85748480634E+02 -0.13324805779E+03  0.18354200040E+03  0.00000000000E+00 0. -1.
<scales pt_clust_3="65.34015" pt_clust_4="59.32100" pt_clust_5="14000.00000" pt_clust_6="145.35015"></scales>
<clustering>
<clus scale="   59.321">  2  4  1 -1</clus>
<clus scale="   65.340">  1  3  2 -1</clus>
<clus scale="  145.350">  2  6  1 -1</clus>
<clus scale="   65.340">  1  3  2 -1</clus>
</clustering>
</event>
<event>
 6    0  0.1080632E+003  0.1936631E+03  0.7546771E-02  0.1155198E+00
         21   -1    0    0  506  501  0.00000000000E+00  0.00000000000E+00  0.85095393858E+02  0.85095393858E+02  0.00000000000E+00 0.  1.
         21   -1    0    0  505  502 -0.00000000000E+00 -0.00000000000E+00 -0.10436034288E+04  0.10436034288E+04  0.00000000000E+00 0. -1.
         21    1    1    2  503  502  0.59428569362E+02  0.10588201282E+03 -0.54615905251E+03  0.55949304387E+03  0.00000000000E+00 0. -1.
         21    1    1    2  504  501 -0.23284163834E+02 -0.20089270599E+02  0.41904799737E+02  0.51978296621E+02  0.00000000000E+00 0.  1.
         21    1    1    2  505  504 -0.76485656293E+02 -0.14922532864E+03 -0.26508288325E+03  0.31366732268E+03  0.00000000000E+00 0.  1.
         21    1    1    2  506  503  0.40341250765E+02  0.63432586418E+02 -0.18917089888E+03  0.20356015945E+03  0.00000000000E+00 0.  1.
<scales pt_clust_3="41.79059" pt_clust_4="30.75274" pt_clust_5="185.97523" pt_clust_6="41.79059"></scales>
<clustering>
<clus scale="   30.753">  1  4  2 -1</clus>
<clus scale="   41.791">  3  6 -1 -1</clus>
<clus scale="  185.975">  1  5  2 -1</clus>
<clus scale="   30.753">  1  3  2 -1</clus>
</clustering>
</event>
<event>
 6    0  0.1080632E+003  0.1242342E+03  0.7546771E-02  0.1236271E+00
         21   -1    0    0  506  501  0.00000000000E+00  0.00000000000E+00  0.20866494383E+03  0.20866494383E+03  0.00000000000E+00 0. -1.
         21   -1    0    0  504  502 -0.00000000000E+00 -0.00000000000E+00 -0.31994396235E+03  0.31994396235E+03  0.00000000000E+00 0. -1.
         21    1    1    2  503  502  0.30034339568E+02  0.45404435999E+02  0.18396766285E+01  0.54470255844E+02  0.00000000000E+00 0. -1.
         21    1    1    2  504  501 -0.69230171042E+02 -0.10987067879E+03 -0.25851787676E+03  0.28930239412E+03  0.00000000000E+00 0. -1.
         21    1    1    2  505  503 -0.13581536102E+02  0.30968027958E+02  0.93046762643E+01  0.35072123957E+02  0.00000000000E+00 0. -1.
         21    1    1    2  506  505  0.52777367576E+02  0.33498214831E+02  0.13609450535E+03  0.14976413226E+03  0.00000000000E+00 0. -1.
<scales pt_clust_3="33.34656" pt_clust_4="116.80726" pt_clust_5="33.34656" pt_clust_6="62.51065"></scales>
<clustering>
<clus scale="   33.347">  3  5 -1 -1</clus>
<clus scale="   62.511">  1  6  2 -1</clus>
<clus scale="  116.807">  2  4  1 -1</clus>
<clus scale="   62.511">  1  3  2 -1</clus>
</clustering>
</event>
<event>
 6    0  0.1080632E+003  0.8105376E+02  0.7546771E-02  0.1326087E+00
         21   -1    0    0  505  501  0.00000000000E+00  0.00000000000E+00  0.37313306512E+02  0.37313306512E+02  0.00000000000E+00 0.  1.
         21   -1    0    0  506  502 -0.00000000000E+00 -0.00000000000E+00 -0.72033940135E+03  0.72033940135E+03  0.00000000000E+00 0.  1.
         21    1    1    2  503  501  0.70619357641E+02  0.73316722557E+01 -0.78891635015E+02  0.10613546611E+03  0.00000000000E+00 0.  1.
         21    1    1    2  504  502  0.24668597226E+01 -0.65384516873E+02 -0.96278305735E+02  0.11640761401E+03  0.00000000000E+00 0.  1.
         21    1    1    2  505  504  0.86864742938E+01  0.35342817160E+02 -0.23382171589E+02  0.43258473258E+02  0.00000000000E+00 0.  1.
         21    1    1    2  506  503 -0.81772691657E+02  0.22710027457E+02 -0.48447398250E+03  0.49185115448E+03  0.00000000000E+00 0.  1.
<scales pt_clust_3="14000.00000" pt_clust_4="52.69541" pt_clust_5="36.39464" pt_clust_6="81.05376"></scales>
<clustering>
<clus scale="   36.395">  1  5  2 -1</clus>
<clus scale="   52.695">  1  4  2 -1</clus>
<clus scale="   81.054">  2  6  1 -1</clus>
<clus scale="   36.395">  1  3  2 -1</clus>
</clustering>
</event>
<event>
 6    0  0.1080632E+003  0.1020832E+03  0.7546771E-02  0.1275975E+00
         21   -1    0    0  503  501  0.00000000000E+00  0.00000000000E+00  0.31724214024E+03  0.31724214024E+03  0.00000000000E+00 0. -1.
         21   -1    0    0  506  502 -0.00000000000E+00 -0.00000000000E+00 -0.53758886115E+03  0.53758886115E+03  0.00000000000E+00 0. -1.
         21    1    1    2  503  505 -0.49320228245E+00 -0.34450394451E+02  0.25078206327E+03  0.25313774153E+03  0.00000000000E+00 0. -1.
         21    1    1    2  504  501  0.27866045898E+02 -0.17519976508E+02  0.37573963666E+02  0.49952665959E+02  0.00000000000E+00 0. -1.
         21    1    1    2  505  502  0.61262533367E+02  0.96481311182E+02 -0.26162565583E+03  0.28549908089E+03  0.00000000000E+00 0. -1.
         21    1    1    2  506  504 -0.88635376983E+02 -0.44510940223E+02 -0.24707709202E+03  0.26624151302E+03  0.00000000000E+00 0. -1.
<scales pt_clust_3="56.51169" pt_clust_4="32.91605" pt_clust_5="14000.00000" pt_clust_6="102.08321"></scales>
<clustering>
<clus scale="   32.916">  1  4  2 -1</clus>
<clus scale="   56.512">  1  3  2 -1</clus>
<clus scale="  102.083">  2  6  1 -1</clus>
<clus scale="   32.916">  1  3  2 -1</clus>
</clustering>
</event>
<event>
 6    0  0.1080632E+003  0.1479840E+03  0.7546771E-02  0.1202972E+00
         21   -1    0    0  502  501  0.00000000000E+00  0.00000000000E+00  0.12696878304E+03  0.12696878304E+03  0.00000000000E+00 0.  1.
         21   -1    0    0  503  502 -0.00000000000E+00 -0.00000000000E+00 -0.17340876583E+04  0.17340876583E+04  0.00000000000E+00 0.  1.
         21    1    1    2  503  504 -0.55493894049E+01  0.44343164840E+02 -0.14336283685E+04  0.14343247230E+04  0.00000000000E+00 0.  1.
         21    1    1    2  504  506  0.26199404253E+02  0.40856069044E+02 -0.85941601764E+02  0.98699473528E+02  0.00000000000E+00 0.  1.
         21    1    1    2  505  501  0.12107694174E+03 -0.10539558822E+03 -0.57565408502E+00  0.16052472462E+03  0.00000000000E+00 0.  1.
         21    1    1    2  506  505 -0.14172695659E+03  0.20196354334E+02 -0.86973250900E+02  0.16750752020E+03  0.00000000000E+00 0.  1.
<scales pt_clust_3="44.68906" pt_clust_4="59.74773" pt_clust_5="14000.00000" pt_clust_6="147.98405"></scales>
<clustering>
<clus scale="   44.689">  2  3  1 -1</clus>
<clus scale="   59.748">  2  4  1 -1</clus>
<clus scale="  147.984">  2  6  1 -1</clus>
<clus scale="  147.984">  1  3  2 -1</clus>
</clustering>
</event>
<event>
 6    0  0.1080632E+003  0.9851529E+02  0.7546771E-02  0.1283449E+00
         21   -1    0    0  503  501  0.00000000000E+00  0.00000000000E+00  0.41715788725E+03  0.41715788725E+03  0.00000000000E+00 0. -1.
         21   -1    0    0  504  502 -0.00000000000E+00 -0.00000000000E+00 -0.91397365616E+03  0.91397365616E+03  0.00000000000E+00 0.  1.
         21    1    1    2  503  502  0.19047998545E+02  0.29469669769E+02  0.38813452763E+01  0.35303718303E+02  0.00000000000E+00 0. -1.
         21    1    1    2  504  505  0.98950599325E+02  0.30070372739E+01 -0.88073869890E+03  0.88628489726E+03  0.00000000000E+00 0.  1.
         21    1    1    2  505  506 -0.72568566391E+02 -0.43098774988E+02  0.12869500802E+03  0.15390291200E+03  0.00000000000E+00 0. -1.
         21    1    1    2  506  501 -0.45430031479E+02  0.10622067944E+02  0.25134657669E+03  0.25564001585E+03  0.00000000000E+00 0. -1.
<scales pt_clust_3="35.08971" pt_clust_4="14000.00000" pt_clust_5="98.51529" pt_clust_6="44.41803"></scales>
<clustering>
<clus scale="   35.090">  1  3  2 -1</clus>
<clus scale="   44.418">  1  6  2 -1</clus>
<clus scale="   98.515">  1  5  2 -1</clus>
<clus scale="   35.090">  1  3  2 -1</clus>
</clustering>
</event>
<event>
 6    0  0.1080632E+003  0.2247721E+03  0.7546771E-02  0.1130374E+00
         21   -1    0    0  504  501  0.00000000000E+00  0.00000000000E+00  0.27470267770E+03  0.27470267770E+03  0.00000000000E+00 0. -1.
         21   -1    0    0  506  502 -0.00000000000E+00 -0.00000000000E+00 -0.12741222264E+04  0.12741222264E+04  0.00000000000E+00 0.  1.
         21    1    1    2  503  505 -0.47786868279E+02 -0.18177819475E+02 -0.28173576254E+02  0.58376093563E+02  0.00000000000E+00 0. -1.
         21    1    1    2  504  502  0.39105276440E+02 -0.20975083413E+03 -0.10795158177E+02  0.21363794257E+03  0.00000000000E+00 0.  1.
         21    1    1    2  505  501 -0.38665977973E+02  0.51299094445E+01  0.14396312580E+03  0.14915346263E+03  0.00000000000E+00 0. -1.
         21    1    1    2  506  503  0.47347569812E+02  0.22279874416E+03 -0.11044139400E+04  0.11276574053E+04  0.00000000000E+00 0.  1.
<scales pt_clust_3="55.21468" pt_clust_4="14000.00000" pt_clust_5="39.00479" pt_clust_6="224.77206"></scales>
<clustering>
<clus scale="   39.005">  1  5  2 -1</clus>
<clus scale="   55.215">  1  3  2 -1</clus>
<clus scale="  224.772">  2  6  1 -1</clus>
<clus scale="   39.005">  1  3  2 -1</clus>
</clustering>
</event>
<event>
 6    0  0.1080632E+003  0.1243945E+03  0.7546771E-02  0.1236019E+00
         21   -1    0    0  504  501  0.00000000000E+00  0.00000000000E+00  0.10973639251E+04  0.10973639251E+04  0.00000000000E+00 0. -1.
         21   -1    0    0  506  502 -0.00000000000E+00 -0.00000000000E+00 -0.71865226384E+03  0.71865226384E+03  0.00000000000E+00 0.  1.
         21    1    1    2  503  505  0.50025047909E+02 -0.59916326334E+02 -0.48339797334E+02  0.91810716074E+02  0.00000000000E+00 0.  1.
         21    1    1    2  504  502  0.31614515271E+02  0.38884814583E+02 -0.58933781778E+02  0.77360823520E+02  0.00000000000E+00 0. -1.
         21    1    1    2  505  501 -0.10739347677E+03  0.67973965629E+02  0.10613806624E+04  0.10689633901E+04  0.00000000000E+00 0. -1.
         21    1    1    2  506  503  0.25753913590E+02 -0.46942453878E+02 -0.57539542205E+03  0.57788125922E+03  0.00000000000E+00 0.  1.
<scales pt_clust_3="124.39446" pt_clust_4="50.11493" pt_clust_5="14000.00000" pt_clust_6="55.20604"></scales>
<clustering>
<clus scale="   50.115">  2  4  1 -1</clus>
<clus scale="   55.206">  2  6  1 -1</clus>
<clus scale="  124.394">  2  3  1 -1</clus>
<clus scale="  124.394">  1  3  2 -1</clus>
</clustering>
</event>
<event>
 6    0  0.1080632E+003  0.1234512E+03  0.7546771E-02  0.1237510E+00
         21   -1    0    0  503  501  0.00000000000E+00  0.00000000000E+00  0.91844629309E+03  0.91844629309E+03  0.00000000000E+00 0.  1.
         21   -1    0    0  505  502 -0.00000000000E+00 -0.00000000000E+00 -0.11008729842E+03  0.11008729842E+03  0.00000000000E+00 0.  1.
         21    1    1    2  503  502  0.51177276051E+02 -0.10603074433E+03 -0.65747324628E+02  0.13484933453E+03  0.00000000000E+00 0.  1.
         21    1    1    2  504  501 -0.18934966206E+02 -0.24055010808E+02  0.35961442312E+03  0.36091510055E+03  0.00000000000E+00 0.  1.
         21    1    1    2  505  506 -0.28679655196E+02  0.55418338350E+02  0.26933477715E+03  0.27646869087E+03  0.00000000000E+00 0.  1.
         21    1    1    2  506  504 -0.35626546483E+01  0.74667416789E+02  0.24515711903E+03  0.25630046557E+03  0.00000000000E+00 0.  1.
<scales pt_clust_3="118.57915" pt_clust_4="30.61334" pt_clust_5="32.39417" pt_clust_6="32.39417"></scales>
<clustering>
<clus scale="   30.613">  1  4  2 -1</clus>
<clus scale="   32.394">  5  6 -1 -1</clus>
<clus scale="  118.579">  2  3  1 -1</clus>
<clus scale="   30.613">  1  3  2 -1</clus>
</clustering>
</event>
<event>
 6    0  0.1080632E+003  0.1226120E+03  0.7546771E-02  0.1238849E+00
         21   -1    0    0  503  501  0.00000000000E+00  0.00000000000E+00  0.88691799265E+03  0.88691799265E+03  0.00000000000E+00 0.  1.
         21   -1    0    0  506  502 -0.00000000000E+00 -0.00000000000E+00 -0.13196292338E+03  0.13196292338E+03  0.00000000000E+00 0. -1.
         21    1    1    2  503  504 -0.50045772770E+02 -0.76159685625E+01  0.70346420682E+02  0.86667186709E+02  0.00000000000E+00 0.  1.
         21    1    1    2  504  505  0.75122963428E+02 -0.10202404112E+02 -0.70806445961E+02  0.10373572901E+03  0.00000000000E+00 0. -1.
         21    1    1    2  505  502  0.55999420814E+02  0.37787259012E+02 -0.90553425350E+00  0.67562060859E+02  0.00000000000E+00 0. -1.
         21    1    1    2  506  501 -0.81076611473E+02 -0.19968886338E+02  0.75632062881E+03  0.76091593945E+03  0.00000000000E+00 0.  1.
<scales pt_clust_3="50.62196" pt_clust_4="14000.00000" pt_clust_5="65.67617" pt_clust_6="122.61195"></scales>
<clustering>
<clus scale="   50.622">  1  3  2 -1</clus>
<clus scale="   65.676">  2  5  1 -1</clus>
<clus scale="  122.612">  1  6  2 -1</clus>
<clus scale="   50.622">  1  3  2 -1</clus>
</clustering>
</event>
<event>
 6    0  0.1080632E+003  0.1079274E+03  0.7546771E-02  0.1264457E+00
         21   -1    0    0  504  501  0.00000000000E+00  0.00000000000E+00  0.27629998002E+03  0.27629998002E+03  0.00000000000E+00 0. -1.
         21   -1    0    0  506  502 -0.00000000000E+00 -0.00000000000E+00 -0.14270328552E+03  0.14270328552E+03  0.00000000000E+00 0. -1.
         21    1    1    2  503  505 -0.17952486803E+01 -0.81565082729E+02  0.13761126956E+03  0.15997795832E+03  0.00000000000E+00 0. -1.
         21    1    1    2  504  502  0.49406057388E+02  0.43751339220E+02  0.40491507293E+02  0.77425450292E+02  0.00000000000E+00 0. -1.
         21    1    1    2  505  501  0.27677908689E+02 -0.22012535867E+02  0.40134539912E+02  0.53492052294E+02  0.00000000000E+00 0. -1.
         21    1    1    2  506  503 -0.75288717396E+02  0.59826279376E+02 -0.84640622268E+02  0.12810780464E+03  0.00000000000E+00 0. -1.
<scales pt_clust_3="33.42623" pt_clust_4="65.99347" pt_clust_5="33.42623" pt_clust_6="95.24013"></scales>
<clustering>
<clus scale="   33.426">  3  5 -1 -1</clus>
<clus scale="   65.993">  1  4  2 -1</clus>
<clus scale="   95.240">  2  6  1 -1</clus>
<clus scale="   65.993">  1  3  2 -1</clus>
</clustering>
</event>
<event>
 6    0  0.1080632E+003  0.1434255E+03  0.7546771E-02  0.1208793E+00
         21   -1    0    0  506  501  0.00000000000E+00  0.00000000000E+00  0.24124503112E+03  0.24124503112E+03  0.00000000000E+00 0. -1.
         21   -1    0    0  504  502 -0.00000000000E+00 -0.00000000000E+00 -0.12601643628E+04  0.12601643628E+04  0.00000000000E+00 0.  1.
         21    1    1    2  503  502 -0.43257417853E+02  0.34405884731E+00 -0.51889136098E+03  0.52069143173E+03  0.00000000000E+00 0. -1.
         21    1    1    2  504  501 -0.40708020413E+02 -0.12272309964E+03  0.21335663760E+03  0.24947776838E+03  0.00000000000E+00 0. -1.
         21    1    1    2  505  503  0.42521408393E+02  0.15699265876E+02 -0.17041467866E+03  0.17633972844E+03  0.00000000000E+00 0. -1.
         21    1    1    2  506  505  0.41444029872E+02  0.10667977491E+03 -0.54296992960E+03  0.55490046535E+03  0.00000000000E+00 0.  1.
<scales pt_clust_3="43.25879" pt_clust_4="129.62665" pt_clust_5="38.62954" pt_clust_6="38.62954"></scales>
<clustering>
<clus scale="   38.630">  5  6 -1 -1</clus>
<clus scale="   43.259">  2  3  1 -1</clus>
<clus scale="  129.627">  1  4  2 -1</clus>
<clus scale="  129.627">  1  3  2 -1</clus>
</clustering>
</event>
<event>
 6    0  0.1080632E+003  0.7812279E+02  0.7546771E-02  0.1334465E+00
         21   -1    0    0  505  501  0.00000000000E+00  0.00000000000E+00  0.36581185995E+03  0.36581185995E+03  0.00000000000E+00 0.  1.
         21   -1    0    0  506  502 -0.00000000000E+00 -0.00000000000E+00 -0.79677042562E+02  0.79677042562E+02  0.00000000000E+00 0.  1.
         21    1    1    2  503  501  0.15461275590E+02 -0.75297857872E+02  0.19113341629E+03  0.20601165323E+03  0.00000000000E+00 0.  1.
         21    1    1    2  504  502 -0.32011192117E+02 -0.33805543896E+02 -0.14020825096E+02  0.48622163209E+02  0.00000000000E+00 0.  1.
         21    1    1    2  505  504 -0.43931979590E+02  0.73736522818E+02  0.50650642431E+02  0.99662335948E+02  0.00000000000E+00 0.  1.
         21    1    1    2  506  503  0.60481896117E+02  0.35366878949E+02  0.58371583762E+02  0.91192750125E+02  0.00000000000E+00 0.  1.
<scales pt_clust_3="14000.00000" pt_clust_4="46.55675" pt_clust_5="78.12279" pt_clust_6="55.07171"></scales>
<clustering>
<clus scale="   46.557">  2  4  1 -1</clus>
<clus scale="   55.072">  2  6  1 -1</clus>
<clus scale="   78.123">  2  5  1 -1</clus>
<clus scale="   78.123">  1  3  2 -1</clus>
</clustering>
</event>
<event>
 6    0  0.1080632E+003  0.1624774E+03  0.7546771E-02  0.1185928E+00
         21   -1    0    0  505  501  0.00000000000E+00  0.00000000000E+00  0.32259455177E+03  0.32259455177E+03  0.00000000000E+00 0.  1.
         21   -1    0    0  503  502 -0.00000000000E+00 -0.00000000000E+00 -0.20257574314E+03  0.20257574314E+03  0.00000000000E+00 0. -1.
         21    1    1    2  503  506  0.52681442225E+00  0.33906977481E+02 -0.12375812428E+03  0.12832004512E+03  0.00000000000E+00 0. -1.
         21    1    1    2  504  502  0.90290490717E+01 -0.48899946784E+02  0.19379117295E+02  0.53369267465E+02  0.00000000000E+00 0.  1.
         21    1    1    2  505  504  0.83940823454E+02 -0.84482078033E+02  0.13632849427E+03  0.18102138465E+03  0.00000000000E+00 0.  1.
         21    1    1    2  506  501 -0.93496686948E+02  0.99475047336E+02  0.88069321342E+02  0.16245959767E+03  0.00000000000E+00 0.  1.
<scales pt_clust_3="33.91107" pt_clust_4="40.07207" pt_clust_5="40.07207" pt_clust_6="148.79161"></scales>
<clustering>
<clus scale="   33.911">  2  3  1 -1</clus>
<clus scale="   40.072">  4  5 -1 -1</clus>
<clus scale="  148.792">  2  6  1 -1</clus>
<clus scale="  162.477">  1  3  2 -1</clus>
</clustering>
</event>
<event>
 6    0  0.1080632E+003  0.1222734E+03  0.7546771E-02  0.1239393E+00
         21   -1    0    0  503  501  0.00000000000E+00  0.00000000000E+00  0.19069748028E+03  0.19069748028E+03  0.00000000000E+00 0.  1.
         21   -1    0    0  505  502 -0.00000000000E+00 -0.00000000000E+00 -0.25475828188E+03  0.25475828188E+03  0.00000000000E+00 0.  1.
         21    1    1    2  503  506 -0.11296917549E+01  0.75843098120E+02  0.53576095602E+02  0.92864685192E+02  0.00000000000E+00 0.  1.
         21    1    1    2  504  502 -0.72030264012E+02 -0.98259596976E+02 -0.16635192163E+03  0.20619473602E+03  0.00000000000E+00 0.  1.
         21    1    1    2  505  501  0.10063392793E+03  0.43527365662E+01  0.19896647161E+02  0.10267429248E+03  0.00000000000E+00 0.  1.
         21    1    1    2  506  504 -0.27473972168E+02  0.18063762291E+02  0.28818377261E+02  0.43722048474E+02  0.00000000000E+00 0.  1.
<scales pt_clust_3="31.09420" pt_clust_4="112.78460" pt_clust_5="100.72802" pt_clust_6="31.09420"></scales>
<clustering>
<clus scale="   31.094">  3  6 -1 -1</clus>
<clus scale="  100.728">  1  5  2 -1</clus>
<clus scale="  112.785">  2  4  1 -1</clus>
<clus scale="  100.728">  1  3  2 -1</clus>
</clustering>
</event>
<event>
 6    0  0.1080632E+003  0.1459999E+03  0.7546771E-02  0.1205476E+00
         21   -1    0    0  506  501  0.00000000000E+00  0.00000000000E+00  0.47576367424E+03  0.47576367424E+03  0.00000000000E+00 0.  1.
         21   -1    0    0  504  502 -0.00000000000E+00 -0.00000000000E+00 -0.28136978500E+03  0.28136978500E+03  0.00000000000E+00 0.  1.
         21    1    1    2  503  501 -0.34163005782E+02 -0.36165096586E+02  0.33138224527E+03  0.33509583354E+03  0.00000000000E+00 0.  1.
         21    1    1    2  504  503 -0.12516729295E+03 -0.16195723305E+02  0.28399629972E+02  0.12936650131E+03  0.00000000000E+00 0.  1.
         21    1    1    2  505  502  0.12798800985E+00  0.79559913081E+02 -0.62509555116E+02  0.10117925000E+03  0.00000000000E+00 0.  1.
         21    1    1    2  506  505  0.15920231073E+03 -0.27199093190E+02 -0.10287843089E+03  0.19149187438E+03  0.00000000000E+00 0.  1.
<scales pt_clust_3="49.74962" pt_clust_4="145.99992" pt_clust_5="74.78967" pt_clust_6="14000.00000"></scales>
<clustering>
<clus scale="   49.750">  1  3  2 -1</clus>
<clus scale="   74.790">  2  5  1 -1</clus>
<clus scale="  146.000">  1  4  2 -1</clus>
<clus scale="   49.750">  1  3  2 -1</clus>
</clustering>
</event>
<event>
 6    0  0.1080632E+003  0.1295289E+03  0.7546771E-02  0.1228156E+00
         21   -1    0    0  505  501  0.00000000000E+00  0.00000000000E+00  0.52856831504E+03  0.52856831504E+03  0.00000000000E+00 0.  1.
         21   -1    0    0  503  502 -0.00000000000E+00 -0.00000000000E+00 -0.11011397276E+03  0.11011397276E+03  0.00000000000E+00 0.  1.
         21    1    1    2  503  501  0.21906269164E+02  0.29317367693E+02  0.26412388724E+02  0.45133213438E+02  0.00000000000E+00 0.  1.
         21    1    1    2  504  502  0.35665556710E+02 -0.52449284287E+02  0.18195744767E+02  0.65985183831E+02  0.00000000000E+00 0.  1.
         21    1    1    2  505  506 -0.13738844698E+03  0.15128857903E+02  0.41499583067E+03  0.43740828431E+03  0.00000000000E+00 0.  1.
         21    1    1    2  506  504  0.79816621103E+02  0.80030586902E+01 -0.41149621884E+02  0.90155606226E+02  0.00000000000E+00 0.  1.
<scales pt_clust_3="36.59771" pt_clust_4="61.15169" pt_clust_5="129.52892" pt_clust_6="14000.00000"></scales>
<clustering>
<clus scale="   36.598">  2  3  1 -1</clus>
<clus scale="   61.152">  2  4  1 -1</clus>
<clus scale="  129.529">  1  5  2 -1</clus>
<clus scale="  129.529">  1  3  2 -1</clus>
</clustering>
</event>
<event>
 6    0  0.1080632E+003  0.1122544E+03  0.7546771E-02  0.1256451E+00
         21   -1    0    0  504  501  0.00000000000E+00  0.00000000000E+00  0.14687063702E+03  0.14687063702E+03  0.00000000000E+00 0. -1.
         21   -1    0    0  506  502 -0.00000000000E+00 -0.00000000000E+00 -0.21767078743E+04  0.21767078743E+04  0.00000000000E+00 0. -1.
         21    1    1    2  503  501  0.13048763251E+03  0.59690225471E+02 -0.21425527972E+03  0.25786676820E+03  0.00000000000E+00 0. -1.
         21    1    1    2  504  505 -0.78144977344E+02 -0.77128727361E+02  0.97835130883E+02  0.14706186080E+03  0.00000000000E+00 0. -1.
         21    1    1    2  505  502 -0.82862549026E+02  0.48482344606E+01 -0.17480383088E+04  0.17500078961E+04  0.00000000000E+00 0. -1.
         21    1    1    2  506  503  0.30519893860E+02  0.12590267429E+02 -0.16537877966E+03  0.16864198622E+03  0.00000000000E+00 0.  1.
<scales pt_clust_3="112.25440" pt_clust_4="14000.00000" pt_clust_5="58.47780" pt_clust_6="33.01483"></scales>
<clustering>
<clus scale="   33.015">  2  6  1 -1</clus>
<clus scale="   58.478">  2  5  1 -1</clus>
<clus scale="  112.254">  2  3  1 -1</clus>
<clus scale="  112.254">  1  3  2 -1</clus>
</clustering>
</event>
<event>
 6    0  0.1080632E+003  0.1169568E+03  0.7546771E-02  0.1248203E+00
         21   -1    0    0  505  501  0.00000000000E+00  0.00000000000E+00  0.18942979094E+02  0.18942979094E+02  0.00000000000E+00 0. -1.
         21   -1    0    0  506  502 -0.00000000000E+00 -0.00000000000E+00 -0.24155879598E+04  0.24155879598E+04  0.00000000000E+00 0.  1.
         21    1    1    2  503  502 -0.50996430862E+02 -0.76455472412E+02 -0.81676903445E+03  0.82192319037E+03  0.00000000000E+00 0.  1.
         21    1    1    2  504  501  0.42554616010E+02  0.13152317525E+03 -0.31985301119E+03  0.34844682483E+03  0.00000000000E+00 0. -1.
         21    1    1    2  505  503  0.20581310794E+02 -0.22447062410E+02 -0.12688539570E+03  0.13048894439E+03  0.00000000000E+00 0. -1.
         21    1    1    2  506  504 -0.12139495942E+02 -0.32620640429E+02 -0.11331375393E+04  0.11336719793E+04  0.00000000000E+00 0.  1.
<scales pt_clust_3="14000.00000" pt_clust_4="116.95682" pt_clust_5="30.45424" pt_clust_6="35.02484"></scales>
<clustering>
<clus scale="   30.454">  1  5  2 -1</clus>
<clus scale="   35.025">  2  6  1 -1</clus>
<clus scale="  116.957">  1  4  2 -1</clus>
<clus scale="   30.454">  1  3  2 -1</clus>
</clustering>
</event>
<event>
 6    0  0.1080632E+003  0.7169503E+02  0.7546771E-02  0.1354422E+00
         21   -1    0    0  506  501  0.00000000000E+00  0.00000000000E+00  0.22006322159E+03  0.22006322159E+03  0.00000000000E+00 0.  1.
         21   -1    0    0  505  502 -0.00000000000E+00 -0.00000000000E+00 -0.12484497412E+03  0.12484497412E+03  0.00000000000E+00 0. -1.
         21    1    1    2  503  502 -0.66683032499E+02  0.50986004213E+02 -0.14411597686E+02  0.85169792748E+02  0.00000000000E+00 0.  1.
         21    1    1    2  504  503  0.93762714139E+01 -0.68486235733E+02  0.15958062400E+02  0.70943207610E+02  0.00000000000E+00 0.  1.
         21    1    1    2  505  501  0.11307595076E+02  0.66469713926E+02 -0.69744951892E+01  0.67784424162E+02  0.00000000000E+00 0. -1.
         21    1    1    2  506  504  0.45999166010E+02 -0.48969482406E+02  0.10064627794E+03  0.12101077119E+03  0.00000000000E+00 0.  1.
<scales pt_clust_3="14000.00000" pt_clust_4="71.69503" pt_clust_5="58.08048" pt_clust_6="67.18581"></scales>
<clustering>
<clus scale="   67.186">  1  6  2 -1</clus>
<clus scale="   58.080">  1  5  2 -1</clus>
<clus scale="   71.695">  1  4  2 -1</clus>
<clus scale="   67.186">  1  3  2 -1</clus>
</clustering>
</event>
<event>
 6    0  0.1080632E+003  0.1149674E+03  0.7546771E-02  0.1251638E+00
         21   -1    0    0  503  501  0.00000000000E+00  0.00000000000E+00  0.53637823917E+03  0.53637823917E+03  0.00000000000E+00 0. -1.
         21   -1    0    0  505  502 -0.00000000000E+00 -0.00000000000E+00 -0.58487315967E+03  0.58487315967E+03  0.00000000000E+00 0.  1.
         21    1    1    2  503  506  0.21348488187E+02 -0.49468704878E+02  0.39948345838E+03  0.40310041457E+03  0.00000000000E+00 0. -1.
         21    1    1    2  504  501  0.90503800514E+02 -0.50307257816E+01  0.10721018901E+03  0.14039327169E+03  0.00000000000E+00 0.  1.
         21    1    1    2  505  504 -0.85518439648E+02  0.20813481435E+02 -0.18239888056E+03  0.20252396440E+03  0.00000000000E+00 0.  1.
         21    1    1    2  506  502 -0.26333849053E+02  0.33685949225E+02 -0.37278968734E+03  0.37523374817E+03  0.00000000000E+00 0.  1.
<scales pt_clust_3="53.52399" pt_clust_4="114.96744" pt_clust_5="14000.00000" pt_clust_6="42.75763"></scales>
<clustering>
<clus scale="   42.758">  2  6  1 -1</clus>
<clus scale="   53.524">  1  3  2 -1</clus>
<clus scale="  114.967">  1  4  2 -1</clus>
<clus scale="   53.524">  1  3  2 -1</clus>
</clustering>
</event>
<event>
 6    0  0.1080632E+003  0.1666323E+03  0.7546771E-02  0.1181406E+00
         21   -1    0    0  505  501  0.00000000000E+00  0.00000000000E+00  0.10723447321E+04  0.10723447321E+04  0.00000000000E+00 0. -1.
         21   -1    0    0  503  502 -0.00000000000E+00 -0.00000000000E+00 -0.39946009205E+03  0.39946009205E+03  0.00000000000E+00 0.  1.
         21    1    1    2  503  506  0.13413548911E+03 -0.83749229487E+02  0.61586654707E+03  0.63584421573E+03  0.00000000000E+00 0. -1.
         21    1    1    2  504  502 -0.35627485822E+02  0.34332778613E+02 -0.33944178909E+03  0.34302884079E+03  0.00000000000E+00 0.  1.
         21    1    1    2  505  504 -0.12991395541E+03  0.37699942112E+02  0.49024337920E+02  0.14388296339E+03  0.00000000000E+00 0.  1.
         21    1    1    2  506  501  0.31405952118E+02  0.11716508763E+02  0.34743554418E+03  0.34904880428E+03  0.00000000000E+00 0. -1.
<scales pt_clust_3="166.63232" pt_clust_4="49.44203" pt_clust_5="14000.00000" pt_clust_6="33.52030"></scales>
<clustering>
<clus scale="   33.520">  1  6  2 -1</clus>
<clus scale="   49.442">  2  4  1 -1</clus>
<clus scale="  166.632">  1  3  2 -1</clus>
<clus scale="   33.520">  1  3  2 -1</clus>
</clustering>
</event>
<event>
 6    0  0.1080632E+003  0.2436131E+03  0.7546771E-02  0.1117409E+00
         21   -1    0    0  506  501  0.00000000000E+00  0.00000000000E+00  0.13646992490E+03  0.13646992490E+03  0.00000000000E+00 0.  1.
         21   -1    0    0  505  502 -0.00000000000E+00 -0.00000000000E+00 -0.73088149434E+03  0.73088149434E+03  0.00000000000E+00 0. -1.
         21    1    1    2  503  504 -0.10539357915E+03  0.73953533310E+02 -0.16608454876E+03  0.21014520921E+03  0.00000000000E+00 0. -1.
         21    1    1    2  504  501  0.11591289917E+03 -0.18412414755E+03 -0.34003415991E+02  0.22021292924E+03  0.00000000000E+00 0.  1.
         21    1    1    2  505  503 -0.64698202953E+02  0.70971678798E+02 -0.33189422726E+03  0.34550921080E+03  0.00000000000E+00 0. -1.
         21    1    1    2  506  502  0.54178882931E+02  0.39198935443E+02 -0.62429377423E+02  0.91484069984E+02  0.00000000000E+00 0.  1.
<scales pt_clust_3="90.95063" pt_clust_4="220.25648" pt_clust_5="90.95063" pt_clust_6="66.87233"></scales>
<clustering>
<clus scale="   66.872">  1  6  2 -1</clus>
<clus scale="   90.951">  3  5 -1 -1</clus>
<clus scale="  220.256">  1  4  2 -1</clus>
<clus scale="   66.872">  1  3  2 -1</clus>
</clustering>
</event>
<event>
 6    0  0.1080632E+003  0.1872733E+03  0.7546771E-02  0.1160944E+00
         21   -1    0    0  505  501  0.00000000000E+00  0.00000000000E+00  0.14559945554E+04  0.14559945554E+04  0.00000000000E+00 0. -1.
         21   -1    0    0  504  502 -0.00000000000E+00 -0.00000000000E+00 -0.20331147557E+03  0.20331147557E+03  0.00000000000E+00 0. -1.
         21    1    1    2  503  506 -0.10022527805E+03  0.19604128767E+02  0.52621358770E+03  0.53603187228E+03  0.00000000000E+00 0. -1.
         21    1    1    2  504  501  0.15218218373E+03 -0.91527331388E+00  0.24536706969E+03  0.28873041693E+03  0.00000000000E+00 0. -1.
         21    1    1    2  505  503 -0.89487259143E+02 -0.24455171223E+02  0.65246385834E+03  0.65902588066E+03  0.00000000000E+00 0. -1.
         21    1    1    2  506  502  0.37530353457E+02  0.57663157698E+01 -0.17136143593E+03  0.17551786106E+03  0.00000000000E+00 0. -1.
<scales pt_clust_3="51.38319" pt_clust_4="179.45239" pt_clust_5="51.38319" pt_clust_6="37.97075"></scales>
<clustering>
<clus scale="   37.971">  2  6  1 -1</clus>
<clus scale="   51.383">  3  5 -1 -1</clus>
<clus scale="  179.452">  2  4  1 -1</clus>
<clus scale="  187.273">  1  3  2 -1</clus>
</clustering>
</event>
<event>
 6    0  0.1080632E+003  0.1303521E+03  0.7546771E-02  0.1226934E+00
         21   -1    0    0  506  501  0.00000000000E+00  0.00000000000E+00  0.79032499510E+02  0.79032499510E+02  0.00000000000E+00 0. -1.
         21   -1    0    0  503  502 -0.00000000000E+00 -0.00000000000E+00 -0.80497658671E+03  0.80497658671E+03  0.00000000000E+00 0.  1.
         21    1    1    2  503  504 -0.28493131457E+02  0.87436471015E+02 -0.15989987012E+03  0.18445856844E+03  0.00000000000E+00 0.  1.
         21    1    1    2  504  501 -0.86868879580E+01  0.48419833823E+02 -0.19034420547E+03  0.19659821689E+03  0.00000000000E+00 0.  1.
         21    1    1    2  505  502  0.30475504629E+02 -0.10567077918E+03 -0.42815928907E+03  0.44205819387E+03  0.00000000000E+00 0. -1.
         21    1    1    2  506  505  0.67045147861E+01 -0.30185525655E+02  0.52459277461E+02  0.60894107016E+02  0.00000000000E+00 0. -1.
<scales pt_clust_3="40.12774" pt_clust_4="40.12774" pt_clust_5="119.57252" pt_clust_6="30.92113"></scales>
<clustering>
<clus scale="   30.921">  1  6  2 -1</clus>
<clus scale="   40.128">  3  4 -1 -1</clus>
<clus scale="  119.573">  2  5  1 -1</clus>
<clus scale="   30.921">  1  3  2 -1</clus>
</clustering>
</event>
<event>
 6    0  0.1080632E+003  0.1531712E+03  0.7546771E-02  0.1196630E+00
         21   -1    0    0  506  501  0.00000000000E+00  0.00000000000E+00  0.18492135533E+03  0.18492135533E+03  0.00000000000E+00 0. -1.
         21   -1    0    0  505  502 -0.00000000000E+00 -0.00000000000E+00 -0.83280288171E+03  0.83280288171E+03  0.00000000000E+00 0. -1.
         21    1    1    2  503  502  0.27171042799E+02 -0.84887964663E+02 -0.32980987134E+03  0.34164130801E+03  0.00000000000E+00 0. -1.
         21    1    1    2  504  503 -0.61956470252E+02 -0.11700219339E+03 -0.26092200102E+03  0.29258914552E+03  0.00000000000E+00 0. -1.
         21    1    1    2  505  501 -0.27940011520E+01  0.17580180629E+03 -0.18047135605E+03  0.25196029825E+03  0.00000000000E+00 0. -1.
         21    1    1    2  506  504  0.37579428605E+02  0.26088351765E+02  0.12332170203E+03  0.13153348525E+03  0.00000000000E+00 0. -1.
<scales pt_clust_3="87.86797" pt_clust_4="153.17120" pt_clust_5="14000.00000" pt_clust_6="45.74730"></scales>
<clustering>
<clus scale="   45.747">  1  6  2 -1</clus>
<clus scale="   87.868">  2  3  1 -1</clus>
<clus scale="  153.171">  1  4  2 -1</clus>
<clus scale="   45.747">  1  3  2 -1</clus>
</clustering>
</event>
<event>
 6    0  0.1080632E+003  0.1044272E+03  0.7546771E-02  0.1271252E+00
         21   -1    0    0  506  501  0.00000000000E+00  0.00000000000E+00  0.62848175495E+02  0.62848175495E+02  0.00000000000E+00 0.  1.
         21   -1    0    0  503  502 -0.00000000000E+00 -0.00000000000E+00 -0.14002732691E+04  0.14002732691E+04  0.00000000000E+00 0.  1.
         21    1    1    2  503  505  0.94415857253E+02 -0.11280808088E+03 -0.15539714630E+03  0.21398198590E+03  0.00000000000E+00 0.  1.
         21    1    1    2  504  502 -0.88442766304E+02  0.50194925377E+02 -0.11054224121E+04  0.11100902498E+04  0.00000000000E+00 0.  1.
         21    1    1    2  505  501  0.31240178124E+02  0.50950091889E+01  0.54891900791E+01  0.32125364676E+02  0.00000000000E+00 0. -1.
         21    1    1    2  506  504 -0.37213269073E+02  0.57518146312E+02 -0.82094725272E+02  0.10692384424E+03  0.00000000000E+00 0.  1.
<scales pt_clust_3="14000.00000" pt_clust_4="104.42717" pt_clust_5="31.65293" pt_clust_6="65.44141"></scales>
<clustering>
<clus scale="   31.653">  1  5  2 -1</clus>
<clus scale="   65.441">  1  6  2 -1</clus>
<clus scale="  104.427">  2  4  1 -1</clus>
<clus scale="   31.653">  1  3  2 -1</clus>
</clustering>
</event>
<event>
 6    0  0.1080632E+003  0.2137435E+03  0.7546771E-02  0.1138635E+00
         21   -1    0    0  505  501  0.00000000000E+00  0.00000000000E+00  0.96552748870E+03  0.96552748870E+03  0.00000000000E+00 0. -1.
         21   -1    0    0  506  502 -0.00000000000E+00 -0.00000000000E+00 -0.10305219720E+03  0.10305219720E+03  0.00000000000E+00 0. -1.
         21    1    1    2  503  504 -0.12487672633E+02  0.46621267583E+02  0.11975109793E+02  0.49728139050E+02  0.00000000000E+00 0. -1.
         21    1    1    2  504  501  0.21752775544E+03 -0.50271881333E+02  0.71323282465E+03  0.74735978524E+03  0.00000000000E+00 0. -1.
         21    1    1    2  505  502 -0.10990093552E+03 -0.24467056193E+02  0.13005789355E+03  0.17202298725E+03  0.00000000000E+00 0.  1.
         21    1    1    2  506  503 -0.95139147287E+02  0.28117669943E+02  0.72094635161E+01  0.99468774365E+02  0.00000000000E+00 0. -1.
<scales pt_clust_3="47.93106" pt_clust_4="202.39574" pt_clust_5="112.59153" pt_clust_6="47.93106"></scales>
<clustering>
<clus scale="   47.931">  3  6 -1 -1</clus>
<clus scale="  112.592">  2  5  1 -1</clus>
<clus scale="  202.396">  1  4  2 -1</clus>
<clus scale="  202.396">  1  3  2 -1</clus>
</clustering>
</event>
<event>
 6    0  0.1080632E+003  0.1910456E+03  0.7546771E-02  0.1157522E+00
         21   -1    0    0  503  501  0.00000000000E+00  0.00000000000E+00  0.12953193419E+03  0.12953193419E+03  0.00000000000E+00 0. -1.
         21   -1    0    0  504  502 -0.00000000000E+00 -0.00000000000E+00 -0.89952011690E+03  0.89952011690E+03  0.00000000000E+00 0.  1.
         21    1    1    2  503  506  0.72235600512E+02  0.18852984144E+03  0.68549894246E+01  0.20201107389E+03  0.00000000000E+00 0. -1.
         21    1    1    2  504  501 -0.21476356755E+02  0.25597445429E+02 -0.11139612318E+03  0.11629943840E+03  0.00000000000E+00 0. -1.
         21    1    1    2  505  502  0.99093164657E+01 -0.95490394048E+02 -0.14797839441E+03  0.17639221955E+03  0.00000000000E+00 0. -1.
         21    1    1    2  506  505 -0.60668560222E+02 -0.11863689282E+03 -0.51746865455E+03  0.53434931924E+03  0.00000000000E+00 0.  1.
<scales pt_clust_3="14000.00000" pt_clust_4="33.41352" pt_clust_5="90.37240" pt_clust_6="191.04556"></scales>
<clustering>
<clus scale="   33.414">  2  4  1 -1</clus>
<clus scale="   90.372">  2  5  1 -1</clus>
<clus scale="  191.046">  2  6  1 -1</clus>
<clus scale="  191.046">  1  3  2 -1</clus>
</clustering>
</event>
<event>
 6    0  0.1080632E+003  0.1827496E+03  0.7546771E-02  0.1165168E+00
         21   -1    0    0  504  501  0.00000000000E+00  0.00000000000E+00  0.10352954454E+03  0.10352954454E+03  0.00000000000E+00 0.  1.
         21   -1    0    0  505  502 -0.00000000000E+00 -0.00000000000E+00 -0.50222650183E+03  0.50222650183E+03  0.00000000000E+00 0.  1.
         21    1    1    2  503  501  0.22523555386E+02 -0.27448323698E+02  0.27677500149E+02  0.45019607235E+02  0.00000000000E+00 0. -1.
         21    1    1    2  504  506 -0.27296223899E+02  0.86080554729E+02 -0.66838328350E+02  0.11234904485E+03  0.00000000000E+00 0.  1.
         21    1    1    2  505  503 -0.34937529928E+02 -0.15640083578E+03 -0.24391938489E+03  0.29185359130E+03  0.00000000000E+00 0.  1.
         21    1    1    2  506  502  0.39710198441E+02  0.97768604753E+02 -0.11561674420E+03  0.15653380298E+03  0.00000000000E+00 0.  1.
<scales pt_clust_3="35.50663" pt_clust_4="63.03415" pt_clust_5="168.35643" pt_clust_6="63.03415"></scales>
<clustering>
<clus scale="   35.507">  1  3  2 -1</clus>
<clus scale="   63.034">  4  6 -1 -1</clus>
<clus scale="  168.356">  2  5  1 -1</clus>
<clus scale="   35.507">  1  3  2 -1</clus>
</clustering>
</event>
<event>
 6    0  0.1080632E+003  0.1639941E+03  0.7546771E-02  0.1184260E+00
         21   -1    0    0  506  501  0.00000000000E+00  0.00000000000E+00  0.27184783952E+03  0.27184783952E+03  0.00000000000E+00 0.  1.
         21   -1    0    0  504  502 -0.00000000000E+00 -0.00000000000E+00 -0.49682296731E+03  0.49682296731E+03  0.00000000000E+00 0.  1.
         21    1    1    2  503  505 -0.19517662649E+02  0.11272069107E+03  0.61741729706E+02  0.12999590200E+03  0.00000000000E+00 0.  1.
         21    1    1    2  504  503  0.50379591486E+02 -0.95289873758E+02  0.56252615299E+00  0.10778951579E+03  0.00000000000E+00 0.  1.
         21    1    1    2  505  501 -0.36825098605E+02  0.64022196500E+02  0.10601220376E+03  0.12920339344E+03  0.00000000000E+00 0.  1.
         21    1    1    2  506  502  0.59631697685E+01 -0.81453013812E+02 -0.39329158741E+03  0.40168199558E+03  0.00000000000E+00 0.  1.
<scales pt_clust_3="54.67571" pt_clust_4="149.21036" pt_clust_5="54.67571" pt_clust_6="81.67100"></scales>
<clustering>
<clus scale="   54.676">  3  5 -1 -1</clus>
<clus scale="   81.671">  2  6  1 -1</clus>
<clus scale="  149.210">  2  4  1 -1</clus>
<clus scale="  163.994">  1  3  2 -1</clus>
</clustering>
</event>
<event>
 6    0  0.1080632E+003  0.9629964E+02  0.7546771E-02  0.1288276E+00
         21   -1    0    0  502  501  0.00000000000E+00  0.00000000000E+00  0.50185377058E+02  0.50185377058E+02  0.00000000000E+00 0.  1.
         21   -1    0    0  504  502 -0.00000000000E+00 -0.00000000000E+00 -0.16350399987E+04  0.16350399987E+04  0.00000000000E+00 0.  1.
         21    1    1    2  503  505 -0.38729959801E+02  0.13835882962E+03 -0.15622703714E+03  0.21225000036E+03  0.00000000000E+00 0.  1.
         21    1    1    2  504  506  0.20783570099E+02 -0.33002497350E+02 -0.99610888797E+03  0.99687212736E+03  0.00000000000E+00 0.  1.
         21    1    1    2  505  501 -0.36764313373E+02 -0.63499301527E+02 -0.53328421113E+02  0.90706650972E+02  0.00000000000E+00 0.  1.
         21    1    1    2  506  503  0.54710703074E+02 -0.41857030744E+02 -0.37919027540E+03  0.38539659704E+03  0.00000000000E+00 0.  1.
<scales pt_clust_3="14000.00000" pt_clust_4="39.00156" pt_clust_5="75.52136" pt_clust_6="96.29964"></scales>
<clustering>
<clus scale="   39.002">  2  4  1 -1</clus>
<clus scale="   75.521">  1  5  2 -1</clus>
<clus scale="   96.300">  2  6  1 -1</clus>
<clus scale="   75.521">  1  3  2 -1</clus>
</clustering>
</event>
<event>
 6    0  0.1080632E+003  0.1159579E+03  0.7546771E-02  0.1249918E+00
         21   -1    0    0  505  501  0.00000000000E+00  0.00000000000E+00  0.14584639262E+03  0.14584639262E+03  0.00000000000E+00 0.  1.
         21   -1    0    0  506  502 -0.00000000000E+00 -0.00000000000E+00 -0.29885690695E+03  0.29885690695E+03  0.00000000000E+00 0.  1.
         21    1    1    2  503  504  0.25701218021E+01  0.61734569912E+02  0.28128307424E+02  0.67889353560E+02  0.00000000000E+00 0.  1.
         21    1    1    2  504  502 -0.20232058122E+02 -0.13972054962E+03 -0.21716201271E+03  0.25901835442E+03  0.00000000000E+00 0.  1.
         21    1    1    2  505  503  0.82344680509E+01  0.44307603333E+02  0.60258095158E+02  0.75246316915E+02  0.00000000000E+00 0.  1.
         21    1    1    2  506  501  0.94274682692E+01  0.33678376380E+02 -0.24234904193E+02  0.42549274668E+02  0.00000000000E+00 0.  1.
<scales pt_clust_3="30.95768" pt_clust_4="110.14646" pt_clust_5="30.95768" pt_clust_6="34.97299"></scales>
<clustering>
<clus scale="   30.958">  3  5 -1 -1</clus>
<clus scale="   34.973">  2  6  1 -1</clus>
<clus scale="  110.146">  2  4  1 -1</clus>
<clus scale="  115.958">  1  3  2 -1</clus>
</clustering>
</event>
<event>
 6    0  0.1080632E+003  0.8749290E+02  0.7546771E-02  0.1309039E+00
         21   -1    0    0  506  501  0.00000000000E+00  0.00000000000E+00  0.40008835176E+03  0.40008835176E+03  0.00000000000E+00 0.  1.
         21   -1    0    0  503  502 -0.00000000000E+00 -0.00000000000E+00 -0.52416059836E+02  0.52416059836E+02  0.00000000000E+00 0.  1.
         21    1    1    2  503  501 -0.56469237656E+02 -0.41415668860E+02  0.17080916579E+02  0.72081829470E+02  0.00000000000E+00 0.  1.
         21    1    1    2  504  502  0.43514024794E+02  0.26876798688E+02  0.86914735604E+02  0.10084643735E+03  0.00000000000E+00 0.  1.
         21    1    1    2  505  504  0.68951877337E+02 -0.72956443842E+01  0.83743176309E+02  0.10872215687E+03  0.00000000000E+00 0.  1.
         21    1    1    2  506  505 -0.55996664475E+02  0.21834514556E+02  0.15993346344E+03  0.17085398791E+03  0.00000000000E+00 0.  1.
<scales pt_clust_3="76.76025" pt_clust_4="36.06044" pt_clust_5="36.06044" pt_clust_6="60.10302"></scales>
<clustering>
<clus scale="   36.060">  4  5 -1 -1</clus>
<clus scale="   60.103">  1  6  2 -1</clus>
<clus scale="   76.760">  2  3  1 -1</clus>
<clus scale="   60.103">  1  3  2 -1</clus>
</clustering>
</event>
<event>
 6    0  0.1080632E+003  0.1384570E+03  0.7546771E-02  0.1215420E+00
         21   -1    0    0  503  501  0.00000000000E+00  0.00000000000E+00  0.22712412784E+04  0.22712412784E+04  0.00000000000E+00 0. -1.
         21   -1    0    0  505  502 -0.00000000000E+00 -0.00000000000E+00 -0.12246561914E+03  0.12246561914E+03  0.00000000000E+00 0. -1.
         21    1    1    2  503  502  0.60667082532E+02 -0.10030587230E+02  0.14288712882E+04  0.14301937861E+04  0.00000000000E+00 0. -1.
         21    1    1    2  504  506 -0.12894686892E+03  0.10348971917E+02  0.29682842216E+02  0.13272327356E+03  0.00000000000E+00 0. -1.
         21    1    1    2  505  504 -0.85563390436E+01 -0.69419799497E+02 -0.48346367444E+02  0.85027588141E+02  0.00000000000E+00 0.  1.
         21    1    1    2  506  501  0.76836125429E+02  0.69101414810E+02  0.73856789635E+03  0.74576224980E+03  0.00000000000E+00 0. -1.
<scales pt_clust_3="61.49071" pt_clust_4="14000.00000" pt_clust_5="70.01313" pt_clust_6="138.45704"></scales>
<clustering>
<clus scale="   61.491">  1  3  2 -1</clus>
<clus scale="   70.013">  2  5  1 -1</clus>
<clus scale="  138.457">  1  6  2 -1</clus>
<clus scale="   61.491">  1  3  2 -1</clus>
</clustering>
</event>
<event>
 6    0  0.1080632E+003  0.1921120E+03  0.7546771E-02  0.1156570E+00
         21   -1    0    0  504  501  0.00000000000E+00  0.00000000000E+00  0.11756979914E+04  0.11756979914E+04  0.00000000000E+00 0.  1.
         21   -1    0    0  506  502 -0.00000000000E+00 -0.00000000000E+00 -0.88768421115E+02  0.88768421115E+02  0.00000000000E+00 0.  1.
         21    1    1    2  503  502  0.28108907109E+02  0.16665121760E+03  0.55458700069E+03  0.57976674648E+03  0.00000000000E+00 0.  1.
         21    1    1    2  504  503 -0.12006120194E+03  0.54471459687E+02  0.20431506893E+03  0.24315937063E+03  0.00000000000E+00 0.  1.
         21    1    1    2  505  501  0.15849623364E+02 -0.29108617661E+02  0.19058297660E+03  0.19344351411E+03  0.00000000000E+00 0.  1.
         21    1    1    2  506  505  0.76102671468E+02 -0.19201405963E+03  0.13744452409E+03  0.24809678132E+03  0.00000000000E+00 0.  1.
<scales pt_clust_3="192.11198" pt_clust_4="125.90373" pt_clust_5="33.14396" pt_clust_6="14000.00000"></scales>
<clustering>
<clus scale="   33.144">  1  5  2 -1</clus>
<clus scale="  125.904">  1  4  2 -1</clus>
<clus scale="  192.112">  1  3  2 -1</clus>
<clus scale="   33.144">  1  3  2 -1</clus>
</clustering>
</event>
<event>
 6    0  0.1080632E+003  0.1127823E+03  0.7546771E-02  0.1255502E+00
         21   -1    0    0  503  501  0.00000000000E+00  0.00000000000E+00  0.18317916833E+04  0.18317916833E+04  0.00000000000E+00 0. -1.
         21   -1    0    0  505  502 -0.00000000000E+00 -0.00000000000E+00 -0.27866958077E+02  0.27866958077E+02  0.00000000000E+00 0. -1.
         21    1    1    2  503  506 -0.36367794536E+02  0.20531757653E+02  0.39940602326E+03  0.40158354170E+03  0.00000000000E+00 0. -1.
         21    1    1    2  504  502 -0.27874072734E+02  0.20541718431E+02 -0.68278742292E+01  0.35292293682E+02  0.00000000000E+00 0. -1.
         21    1    1    2  505  501  0.11929595824E+03 -0.28484063564E+02  0.10301139450E+04  0.10373898048E+04  0.00000000000E+00 0. -1.
         21    1    1    2  506  504 -0.55054090969E+02 -0.12589412520E+02  0.38123263118E+03  0.38539300113E+03  0.00000000000E+00 0. -1.
<scales pt_clust_3="33.46404" pt_clust_4="34.62551" pt_clust_5="105.85617" pt_clust_6="33.46404"></scales>
<clustering>
<clus scale="   33.464">  3  6 -1 -1</clus>
<clus scale="   34.626">  2  4  1 -1</clus>
<clus scale="  105.856">  2  5  1 -1</clus>
<clus scale="  112.782">  1  3  2 -1</clus>
</clustering>
</event>
<event>
 6    0  0.1080632E+003  0.1111578E+03  0.7546771E-02  0.1258441E+00
         21   -1    0    0  504  501  0.00000000000E+00  0.00000000000E+00  0.42090319904E+03  0.42090319904E+03  0.00000000000E+00 0.  1.
         21   -1    0    0  506  502 -0.00000000000E+00 -0.00000000000E+00 -0.82185006467E+02  0.82185006467E+02  0.00000000000E+00 0.  1.
         21    1    1    2  503  502 -0.69204929499E+02  0.34723866948E+02  0.35967685776E+02  0.85374139076E+02  0.00000000000E+00 0.  1.
         21    1    1    2  504  505  0.81375798767E+01 -0.62687704786E+02  0.23876622597E+03  0.24699246790E+03  0.00000000000E+00 0.  1.
         21    1    1    2  505  503 -0.37476724844E+02  0.47539231518E+01  0.58111069982E+02  0.69310902063E+02  0.00000000000E+00 0.  1.
         21    1    1    2  506  501  0.98544074467E+02  0.23209914686E+02  0.58732108489E+01  0.10141069647E+03  0.00000000000E+00 0.  1.
<scales pt_clust_3="32.29132" pt_clust_4="63.21367" pt_clust_5="32.29132" pt_clust_6="101.08847"></scales>
<clustering>
<clus scale="   32.291">  3  5 -1 -1</clus>
<clus scale="   63.214">  1  4  2 -1</clus>
<clus scale="  101.088">  2  6  1 -1</clus>
<clus scale="   63.214">  1  3  2 -1</clus>
</clustering>
</event>
<event>
 6    0  0.1080632E+003  0.2926425E+03  0.7546771E-02  0.1088977E+00
         21   -1    0    0  505  501  0.00000000000E+00  0.00000000000E+00  0.39103299892E+03  0.39103299892E+03  0.00000000000E+00 0. -1.
         21   -1    0    0  503  502 -0.00000000000E+00 -0.00000000000E+00 -0.16041500659E+04  0.16041500659E+04  0.00000000000E+00 0. -1.
         21    1    1    2  503  501  0.24142073627E+03  0.11128524119E+03 -0.71741184169E+02  0.27534555437E+03  0.00000000000E+00 0. -1.
         21    1    1    2  504  502  0.28746907227E+02 -0.18885544082E+02 -0.12577694958E+04  0.12582397041E+04  0.00000000000E+00 0. -1.
         21    1    1    2  505  506  0.66794922776E+02 -0.61904281670E+02  0.80160444481E+02  0.12132352887E+03  0.00000000000E+00 0.  1.
         21    1    1    2  506  504 -0.33696256627E+03 -0.30495415437E+02  0.36233168471E+02  0.34027427750E+03  0.00000000000E+00 0. -1.
<scales pt_clust_3="14000.00000" pt_clust_4="34.39547" pt_clust_5="93.08734" pt_clust_6="292.64250"></scales>
<clustering>
<clus scale="   34.395">  2  4  1 -1</clus>
<clus scale="   93.087">  1  5  2 -1</clus>
<clus scale="  292.642">  1  6  2 -1</clus>
<clus scale="   93.087">  1  3  2 -1</clus>
</clustering>
</event>
<event>
 6    0  0.1080632E+003  0.1359636E+03  0.7546771E-02  0.1218866E+00
         21   -1    0    0  503  501  0.00000000000E+00  0.00000000000E+00  0.46829345368E+03  0.46829345368E+03  0.00000000000E+00 0.  1.
         21   -1    0    0  504  502 -0.00000000000E+00 -0.00000000000E+00 -0.12158930066E+03  0.12158930066E+03  0.00000000000E+00 0.  1.
         21    1    1    2  503  506  0.56432795773E+02  0.39653239064E+02  0.75149139268E+02  0.10200212223E+03  0.00000000000E+00 0.  1.
         21    1    1    2  504  501  0.99930083169E+01 -0.57738352383E+02  0.22971530171E+03  0.23707108088E+03  0.00000000000E+00 0.  1.
         21    1    1    2  505  502 -0.91376160934E+02 -0.74517335642E+02 -0.40230024798E+02  0.12458286798E+03  0.00000000000E+00 0.  1.
         21    1    1    2  506  505  0.24950356843E+02  0.92602448961E+02  0.82069736830E+02  0.12622668325E+03  0.00000000000E+00 0.  1.
<scales pt_clust_3="48.38879" pt_clust_4="58.59674" pt_clust_5="123.41094" pt_clust_6="48.38879"></scales>
<clustering>
<clus scale="   48.389">  3  6 -1 -1</clus>
<clus scale="   58.597">  1  4  2 -1</clus>
<clus scale="  123.411">  2  5  1 -1</clus>
<clus scale="   58.597">  1  3  2 -1</clus>
</clustering>
</event>
<event>
 6    0  0.1080632E+003  0.1397270E+03  0.7546771E-02  0.1213697E+00
         21   -1    0    0  503  501  0.00000000000E+00  0.00000000000E+00  0.44605200336E+03  0.44605200336E+03  0.00000000000E+00 0.  1.
         21   -1    0    0  505  502 -0.00000000000E+00 -0.00000000000E+00 -0.91363045822E+03  0.91363045822E+03  0.00000000000E+00 0.  1.
         21    1    1    2  503  504  0.36302392308E+02  0.30648206994E+02  0.40252435029E+03  0.40531842896E+03  0.00000000000E+00 0.  1.
         21    1    1    2  504  506  0.58924053181E+02 -0.19308162621E+02 -0.47237088941E+03  0.47642324287E+03  0.00000000000E+00 0.  1.
         21    1    1    2  505  501 -0.16110253800E+03 -0.71409229945E+01 -0.14544708669E+03  0.21716324633E+03  0.00000000000E+00 0. -1.
         21    1    1    2  506  502  0.65876092509E+02 -0.41991213781E+01 -0.25228482905E+03  0.26077754342E+03  0.00000000000E+00 0.  1.
<scales pt_clust_3="47.50975" pt_clust_4="45.57758" pt_clust_5="131.57590" pt_clust_6="45.57758"></scales>
<clustering>
<clus scale="   45.578">  4  6 -1 -1</clus>
<clus scale="   47.510">  1  3  2 -1</clus>
<clus scale="  131.576">  1  5  2 -1</clus>
<clus scale="   47.510">  1  3  2 -1</clus>
</clustering>
</event>
<event>
 6    0  0.1080632E+003  0.1237820E+03  0.7546771E-02  0.1236985E+00
         21   -1    0    0  506  501  0.00000000000E+00  0.00000000000E+00  0.67545208453E+03  0.67545208453E+03  0.00000000000E+00 0.  1.
         21   -1    0    0  505  502 -0.00000000000E+00 -0.00000000000E+00 -0.44482708964E+02  0.44482708964E+02  0.00000000000E+00 0.  1.
         21    1    1    2  503  502  0.74518548516E+01  0.35772039695E+02  0.45226268595E+01  0.36818787573E+02  0.00000000000E+00 0.  1.
         21    1    1    2  504  503 -0.50578716530E+02 -0.19309830743E+02  0.68148164600E+02  0.87035903324E+02  0.00000000000E+00 0.  1.
         21    1    1    2  505  501  0.90407342767E+02  0.58522604823E+02  0.40422101924E+03  0.41832166487E+03  0.00000000000E+00 0.  1.
         21    1    1    2  506  504 -0.47280481088E+02 -0.74984813776E+02  0.15407756487E+03  0.17775843773E+03  0.00000000000E+00 0.  1.
<scales pt_clust_3="36.53996" pt_clust_4="38.44456" pt_clust_5="114.27215" pt_clust_6="38.44456"></scales>
<clustering>
<clus scale="   36.540">  2  3  1 -1</clus>
<clus scale="   38.445">  4  6 -1 -1</clus>
<clus scale="  114.272">  1  5  2 -1</clus>
<clus scale="  114.272">  1  3  2 -1</clus>
</clustering>
</event>
<event>
 6    0  0.1080632E+003  0.1775437E+03  0.7546771E-02  0.1170202E+00
         21   -1    0    0  503  501  0.00000000000E+00  0.00000000000E+00  0.72171577501E+03  0.72171577501E+03  0.00000000000E+00 0. -1.
         21   -1    0    0  505  502 -0.00000000000E+00 -0.00000000000E+00 -0.72969301158E+03  0.72969301158E+03  0.00000000000E+00 0.  1.
         21    1    1    2  503  502 -0.16893267737E+02  0.17679804911E+03  0.65494283467E+03  0.67859638177E+03  0.00000000000E+00 0. -1.
         21    1    1    2  504  506  0.12005171633E+03 -0.26939700710E+02 -0.31424220476E+03  0.33747048066E+03  0.00000000000E+00 0.  1.
         21    1    1    2  505  504  0.15704668882E+02  0.36367315048E+02 -0.57983261414E+02  0.70223050579E+02  0.00000000000E+00 0.  1.
         21    1    1    2  506  501 -0.11886311747E+03 -0.18622566345E+03 -0.29069460507E+03  0.36511887357E+03  0.00000000000E+00 0.  1.
<scales pt_clust_3="14000.00000" pt_clust_4="128.06656" pt_clust_5="39.61336" pt_clust_6="177.54366"></scales>
<clustering>
<clus scale="   39.613">  2  5  1 -1</clus>
<clus scale="  128.067">  2  4  1 -1</clus>
<clus scale="  177.544">  2  6  1 -1</clus>
<clus scale="  177.544">  1  3  2 -1</clus>
</clustering>
</event>
<event>
 6    0  0.1080632E+003  0.1385014E+03  0.7546771E-02  0.1215360E+00
         21   -1    0    0  504  501  0.00000000000E+00  0.00000000000E+00  0.18937147736E+04  0.18937147736E+04  0.00000000000E+00 0. -1.
         21   -1    0    0  503  502 -0.00000000000E+00 -0.00000000000E+00 -0.29986712899E+02  0.29986712899E+02  0.00000000000E+00 0.  1.
         21    1    1    2  503  501  0.15030892346E+03  0.85476683035E+02  0.87274699013E+03  0.88971138275E+03  0.00000000000E+00 0. -1.
         21    1    1    2  504  506 -0.26493821400E+02 -0.21098481329E+02  0.50729329403E+03  0.50842261422E+03  0.00000000000E+00 0.  1.
         21    1    1    2  505  502 -0.13184634156E+03 -0.11316187369E+02  0.22212262744E+03  0.25855362209E+03  0.00000000000E+00 0.  1.
         21    1    1    2  506  505  0.80312394941E+01 -0.53062014337E+02  0.26156514907E+03  0.26701386740E+03  0.00000000000E+00 0. -1.
<scales pt_clust_3="14000.00000" pt_clust_4="33.86840" pt_clust_5="138.50136" pt_clust_6="57.16326"></scales>
<clustering>
<clus scale="   33.868">  1  4  2 -1</clus>
<clus scale="   57.163">  1  6  2 -1</clus>
<clus scale="  138.501">  2  5  1 -1</clus>
<clus scale="   33.868">  1  3  2 -1</clus>
</clustering>
</event>
<event>
 6    0  0.1080632E+003  0.1046664E+03  0.7546771E-02  0.1270778E+00
         21   -1    0    0  505  501  0.00000000000E+00  0.00000000000E+00  0.50899294762E+03  0.50899294762E+03  0.00000000000E+00 0.  1.
         21   -1    0    0  506  502 -0.00000000000E+00 -0.00000000000E+00 -0.51576460781E+02  0.51576460781E+02  0.00000000000E+00 0.  1.
         21    1    1    2  503  502  0.54462661998E+02  0.21000113558E+02  0.32223542405E+02  0.66674905373E+02  0.00000000000E+00 0. -1.
         21    1    1    2  504  503  0.12602750801E+02  0.36805166239E+02  0.43534341022E+02  0.58383974153E+02  0.00000000000E+00 0. -1.
         21    1    1    2  505  504 -0.38092409735E+02 -0.10056252519E+03  0.92710720999E+02  0.14198285439E+03  0.00000000000E+00 0.  1.
         21    1    1    2  506  501 -0.28973003064E+02  0.42757245390E+02  0.28894788242E+03  0.29352767449E+03  0.00000000000E+00 0.  1.
<scales pt_clust_3="37.06449" pt_clust_4="37.06449" pt_clust_5="94.30697" pt_clust_6="51.64898"></scales>
<clustering>
<clus scale="   37.064">  3  4 -1 -1</clus>
<clus scale="   51.649">  1  6  2 -1</clus>
<clus scale="   94.307">  1  5  2 -1</clus>
<clus scale="   51.649">  1  3  2 -1</clus>
</clustering>
</event>
<event>
 6    0  0.1080632E+003  0.1101888E+03  0.7546771E-02  0.1260221E+00
         21   -1    0    0  502  501  0.00000000000E+00  0.00000000000E+00  0.13712953200E+04  0.13712953200E+04  0.00000000000E+00 0.  1.
         21   -1    0    0  506  502 -0.00000000000E+00 -0.00000000000E+00 -0.98678818822E+02  0.98678818822E+02  0.00000000000E+00 0. -1.
         21    1    1    2  503  505 -0.38791711107E+02  0.11934376952E+03  0.29646094001E+03  0.32192673254E+03  0.00000000000E+00 0. -1.
         21    1    1    2  504  501  0.45147450424E+02 -0.68730361624E+02  0.81141199583E+03  0.81556825702E+03  0.00000000000E+00 0.  1.
         21    1    1    2  505  504 -0.25093474116E+02  0.39395002109E+02  0.22020748374E+03  0.22510660703E+03  0.00000000000E+00 0. -1.
         21    1    1    2  506  503  0.18737734799E+02 -0.90008410005E+02 -0.55463918409E+02  0.10737254222E+03  0.00000000000E+00 0. -1.
<scales pt_clust_3="33.52648" pt_clust_4="82.23232" pt_clust_5="33.52648" pt_clust_6="95.50744"></scales>
<clustering>
<clus scale="   33.526">  3  5 -1 -1</clus>
<clus scale="   82.232">  1  4  2 -1</clus>
<clus scale="   95.507">  2  6  1 -1</clus>
<clus scale="   82.232">  1  3  2 -1</clus>
</clustering>
</event>
<event>
 6    0  0.1080632E+003  0.1775860E+03  0.7546771E-02  0.1170160E+00
         21   -1    0    0  506  501  0.00000000000E+00  0.00000000000E+00  0.25021005658E+03  0.25021005658E+03  0.00000000000E+00 0.  1.
         21   -1    0    0  503  502 -0.00000000000E+00 -0.00000000000E+00 -0.18064372960E+03  0.18064372960E+03  0.00000000000E+00 0.  1.
         21    1    1    2  503  504  0.19300721012E+02 -0.37599247332E+02 -0.36228307569E+02  0.55666071361E+02  0.00000000000E+00 0.  1.
         21    1    1    2  504  501 -0.29496531014E+02 -0.15806521716E+03  0.60377290040E+02  0.17175585978E+03  0.00000000000E+00 0.  1.
         21    1    1    2  505  502 -0.71933175375E+01  0.10003491842E+03  0.32223934656E+02  0.10534282455E+03  0.00000000000E+00 0.  1.
         21    1    1    2  506  505  0.17389127539E+02  0.95629546073E+02  0.13193409850E+02  0.98089030489E+02  0.00000000000E+00 0.  1.
<scales pt_clust_3="42.26371" pt_clust_4="174.93863" pt_clust_5="30.07396" pt_clust_6="30.07396"></scales>
<clustering>
<clus scale="   30.074">  5  6 -1 -1</clus>
<clus scale="   42.264">  2  3  1 -1</clus>
<clus scale="  174.939">  1  4  2 -1</clus>
<clus scale="  174.939">  1  3  2 -1</clus>
</clustering>
</event>
<event>
 6    0  0.1080632E+003  0.9210254E+02  0.7546771E-02  0.1297839E+00
         21   -1    0    0  504  501  0.00000000000E+00  0.00000000000E+00  0.22572132847E+03  0.22572132847E+03  0.00000000000E+00 0. -1.
         21   -1    0    0  503  502 -0.00000000000E+00 -0.00000000000E+00 -0.26757108085E+03  0.26757108085E+03  0.00000000000E+00 0. -1.
         21    1    1    2  503  501  0.41968814318E+02 -0.94990386777E+02  0.46453948381E+02  0.11376521558E+03  0.00000000000E+00 0. -1.
         21    1    1    2  504  505 -0.52251103983E+02  0.21815770068E+02  0.89300105516E+02  0.10573842507E+03  0.00000000000E+00 0. -1.
         21    1    1    2  505  506  0.27498411027E+02  0.11261752814E+03 -0.29586793403E+02  0.11964216898E+03  0.00000000000E+00 0. -1.
         21    1    1    2  506  502 -0.17216121362E+02 -0.39442911432E+02 -0.14801701288E+03  0.15414659970E+03  0.00000000000E+00 0. -1.
<scales pt_clust_3="14000.00000" pt_clust_4="56.75246" pt_clust_5="92.10254" pt_clust_6="43.03647"></scales>
<clustering>
<clus scale="   43.036">  2  6  1 -1</clus>
<clus scale="   56.752">  1  4  2 -1</clus>
<clus scale="   92.103">  2  5  1 -1</clus>
<clus scale="   56.752">  1  3  2 -1</clus>
</clustering>
</event>
<event>
 6    0  0.1080632E+003  0.9924044E+02  0.7546771E-02  0.1281901E+00
         21   -1    0    0  504  501  0.00000000000E+00  0.00000000000E+00  0.29764980417E+04  0.29764980417E+04  0.00000000000E+00 0.  1.
         21   -1    0    0  505  502 -0.00000000000E+00 -0.00000000000E+00 -0.69853446928E+02  0.69853446928E+02  0.00000000000E+00 0. -1.
         21    1    1    2  503  501  0.77401422699E+02  0.25137616698E+02  0.70009638095E+03  0.70481048703E+03  0.00000000000E+00 0.  1.
         21    1    1    2  504  502 -0.63940672073E+02  0.30589543183E+02  0.19768372889E+04  0.19781076302E+04  0.00000000000E+00 0.  1.
         21    1    1    2  505  506 -0.67858962051E+02 -0.35403856211E+02 -0.40817195959E+02  0.86742810948E+02  0.00000000000E+00 0. -1.
         21    1    1    2  506  503  0.54398211425E+02 -0.20323303670E+02  0.27052812087E+03  0.27669056048E+03  0.00000000000E+00 0.  1.
<scales pt_clust_3="52.33264" pt_clust_4="70.88110" pt_clust_5="77.52808" pt_clust_6="52.33264"></scales>
<clustering>
<clus scale="   52.333">  3  6 -1 -1</clus>
<clus scale="   70.881">  1  4  2 -1</clus>
<clus scale="   77.528">  2  5  1 -1</clus>
<clus scale="   70.881">  1  3  2 -1</clus>
</clustering>
</event>
<event>
 6    0  0.1080632E+003  0.1589840E+03  0.7546771E-02  0.1189849E+00
         21   -1    0    0  505  501  0.00000000000E+00  0.00000000000E+00  0.11373559943E+03  0.11373559943E+03  0.00000000000E+00 0. -1.
         21   -1    0    0  503  502 -0.00000000000E+00 -0.00000000000E+00 -0.19891581588E+04  0.19891581588E+04  0.00000000000E+00 0. -1.
         21    1    1    2  503  504 -0.13639341657E+03  0.72892665356E+02 -0.16674485843E+04  0.16746048149E+04  0.00000000000E+00 0. -1.
         21    1    1    2  504  506  0.93146676939E+01  0.81049362075E+02  0.46548379780E+01  0.81715541017E+02  0.00000000000E+00 0. -1.
         21    1    1    2  505  502  0.16199668956E+03 -0.15434175512E+03 -0.21661507368E+03  0.31142638769E+03  0.00000000000E+00 0. -1.
         21    1    1    2  506  501 -0.34917940688E+02  0.39972768908E+00  0.39862606271E+01  0.35147014638E+02  0.00000000000E+00 0. -1.
<scales pt_clust_3="158.98400" pt_clust_4="81.50838" pt_clust_5="14000.00000" pt_clust_6="34.92023"></scales>
<clustering>
<clus scale="   34.920">  1  6  2 -1</clus>
<clus scale="   81.508">  1  4  2 -1</clus>
<clus scale="  158.984">  2  3  1 -1</clus>
<clus scale="   34.920">  1  3  2 -1</clus>
</clustering>
</event>
<event>
 6    0  0.1080632E+003  0.1246443E+03  0.7546771E-02  0.1235626E+00
         21   -1    0    0  506  501  0.00000000000E+00  0.00000000000E+00  0.15095694812E+04  0.15095694812E+04  0.00000000000E+00 0.  1.
         21   -1    0    0  503  502 -0.00000000000E+00 -0.00000000000E+00 -0.34020823659E+03  0.34020823659E+03  0.00000000000E+00 0. -1.
         21    1    1    2  503  501 -0.32163176927E+02 -0.10596539256E+03  0.14521011800E+04  0.14563176067E+04  0.00000000000E+00 0.  1.
         21    1    1    2  504  502  0.11058650997E+03 -0.10015581014E+02 -0.17344713354E+03  0.20594561462E+03  0.00000000000E+00 0. -1.
         21    1    1    2  505  504 -0.49302238063E+02  0.41302413350E+02 -0.78893495878E+02  0.10178793503E+03  0.00000000000E+00 0. -1.
         21    1    1    2  506  505 -0.29121094980E+02  0.74678560228E+02 -0.30399306047E+02  0.85726561454E+02  0.00000000000E+00 0. -1.
<scales pt_clust_3="110.73904" pt_clust_4="109.18443" pt_clust_5="53.85746" pt_clust_6="53.85746"></scales>
<clustering>
<clus scale="   53.857">  5  6 -1 -1</clus>
<clus scale="  110.739">  1  3  2 -1</clus>
<clus scale="  109.184">  2  4  1 -1</clus>
<clus scale="  110.739">  1  3  2 -1</clus>
</clustering>
</event>
<event>
 6    0  0.1080632E+003  0.1432855E+03  0.7546771E-02  0.1208975E+00
         21   -1    0    0  504  501  0.00000000000E+00  0.00000000000E+00  0.78879815166E+03  0.78879815166E+03  0.00000000000E+00 0. -1.
         21   -1    0    0  505  502 -0.00000000000E+00 -0.00000000000E+00 -0.74481218335E+03  0.74481218335E+03  0.00000000000E+00 0. -1.
         21    1    1    2  503  502 -0.16589256642E+03  0.21970679533E+02 -0.56795996590E+03  0.59209929676E+03  0.00000000000E+00 0. -1.
         21    1    1    2  504  503  0.15560315879E+03 -0.94129295921E+02  0.16290006691E+03  0.24414974744E+03  0.00000000000E+00 0.  1.
         21    1    1    2  505  506  0.74737841114E+02  0.81531993766E+02 -0.97201138806E+02  0.14724561891E+03  0.00000000000E+00 0.  1.
         21    1    1    2  506  501 -0.64448433486E+02 -0.93733773784E+01  0.54624700611E+03  0.55011567190E+03  0.00000000000E+00 0. -1.
<scales pt_clust_3="143.28550" pt_clust_4="14000.00000" pt_clust_5="105.44348" pt_clust_6="65.12650"></scales>
<clustering>
<clus scale="   65.126">  1  6  2 -1</clus>
<clus scale="  105.443">  2  5  1 -1</clus>
<clus scale="  143.286">  2  3  1 -1</clus>
<clus scale="   65.126">  1  3  2 -1</clus>
</clustering>
</event>
<event>
 6    0  0.1080632E+003  0.1388101E+03  0.7546771E-02  0.1214939E+00
         21   -1    0    0  505  501  0.00000000000E+00  0.00000000000E+00  0.22463299058E+04  0.22463299058E+04  0.00000000000E+00 0.  1.
         21   -1    0    0  503  502 -0.00000000000E+00 -0.00000000000E+00 -0.11756763592E+03  0.11756763592E+03  0.00000000000E+00 0.  1.
         21    1    1    2  503  506 -0.41649776107E+02  0.37016362101E+01 -0.38872828250E+02  0.57092054934E+02  0.00000000000E+00 0.  1.
         21    1    1    2  504  502 -0.36089526854E+02  0.30314085082E+02  0.27431712590E+01  0.47211467797E+02  0.00000000000E+00 0.  1.
         21    1    1    2  505  504  0.11131569037E+03  0.86156247009E+02  0.21234601735E+04  0.21281205770E+04  0.00000000000E+00 0.  1.
         21    1    1    2  506  501 -0.33576387413E+02 -0.12017196830E+03  0.41431753364E+02  0.13147344197E+03  0.00000000000E+00 0.  1.
<scales pt_clust_3="41.81394" pt_clust_4="58.58479" pt_clust_5="138.81014" pt_clust_6="14000.00000"></scales>
<clustering>
<clus scale="   41.814">  2  3  1 -1</clus>
<clus scale="   58.585">  2  4  1 -1</clus>
<clus scale="  138.810">  1  5  2 -1</clus>
<clus scale="  138.810">  1  3  2 -1</clus>
</clustering>
</event>
<event>
 6    0  0.1080632E+003  0.7650113E+02  0.7546771E-02  0.1339285E+00
         21   -1    0    0  504  501  0.00000000000E+00  0.00000000000E+00  0.14921248107E+04  0.14921248107E+04  0.00000000000E+00 0. -1.
         21   -1    0    0  503  502 -0.00000000000E+00 -0.00000000000E+00 -0.20146896055E+02  0.20146896055E+02  0.00000000000E+00 0.  1.
         21    1    1    2  503  501  0.73211908683E+02  0.11730161023E+03  0.63324157749E+03  0.64816243859E+03  0.00000000000E+00 0. -1.
         21    1    1    2  504  506  0.12687979728E+02 -0.35186603898E+02  0.37629937878E+03  0.37815381050E+03  0.00000000000E+00 0. -1.
         21    1    1    2  505  502 -0.37479465885E+02 -0.53936934053E+02  0.10286593674E+03  0.12204631973E+03  0.00000000000E+00 0.  1.
         21    1    1    2  506  505 -0.48420422527E+02 -0.28178072282E+02  0.35957102164E+03  0.36390913794E+03  0.00000000000E+00 0.  1.
<scales pt_clust_3="76.50113" pt_clust_4="37.40430" pt_clust_5="14000.00000" pt_clust_6="59.41850"></scales>
<clustering>
<clus scale="   37.404">  1  4  2 -1</clus>
<clus scale="   59.418">  1  6  2 -1</clus>
<clus scale="   76.501">  1  3  2 -1</clus>
<clus scale="   37.404">  1  3  2 -1</clus>
</clustering>
</event>
<event>
 6    0  0.1080632E+003  0.1212714E+03  0.7546771E-02  0.1241014E+00
         21   -1    0    0  506  501  0.00000000000E+00  0.00000000000E+00  0.16038899793E+04  0.16038899793E+04  0.00000000000E+00 0. -1.
         21   -1    0    0  504  502 -0.00000000000E+00 -0.00000000000E+00 -0.81035262311E+02  0.81035262311E+02  0.00000000000E+00 0. -1.
         21    1    1    2  503  502 -0.33110246110E+02  0.56698593814E+02 -0.38738421586E+02  0.76234403290E+02  0.00000000000E+00 0. -1.
         21    1    1    2  504  501  0.14307544224E+03  0.13249398837E+02  0.12747760349E+04  0.12828484197E+04  0.00000000000E+00 0. -1.
         21    1    1    2  505  503 -0.41996601352E+02 -0.74595245199E+02  0.17690739570E+03  0.19653089270E+03  0.00000000000E+00 0. -1.
         21    1    1    2  506  505 -0.67968594774E+02  0.46472525475E+01  0.10990970796E+03  0.12931152592E+03  0.00000000000E+00 0.  1.
<scales pt_clust_3="65.65835" pt_clust_4="14000.00000" pt_clust_5="75.57021" pt_clust_6="121.27135"></scales>
<clustering>
<clus scale="   65.658">  2  3  1 -1</clus>
<clus scale="   75.570">  2  5  1 -1</clus>
<clus scale="  121.271">  2  6  1 -1</clus>
<clus scale="  121.271">  1  3  2 -1</clus>
</clustering>
</event>
<event>
 6    0  0.1080632E+003  0.2488910E+03  0.7546771E-02  0.1114008E+00
         21   -1    0    0  503  501  0.00000000000E+00  0.00000000000E+00  0.61811183611E+03  0.61811183611E+03  0.00000000000E+00 0. -1.
         21   -1    0    0  506  502 -0.00000000000E+00 -0.00000000000E+00 -0.77244821614E+03  0.77244821614E+03  0.00000000000E+00 0. -1.
         21    1    1    2  503  505 -0.98355312273E+00  0.59521236353E+02  0.16450933078E+03  0.17494874926E+03  0.00000000000E+00 0. -1.
         21    1    1    2  504  502  0.18037894022E+03 -0.84576415108E+02  0.33489484983E+03  0.38967203199E+03  0.00000000000E+00 0. -1.
         21    1    1    2  505  504  0.54869207325E+02  0.12738957977E+02  0.55398469017E+02  0.79005704429E+02  0.00000000000E+00 0.  1.
         21    1    1    2  506  501 -0.23426459443E+03  0.12316220778E+02 -0.70913902965E+03  0.74693356657E+03  0.00000000000E+00 0. -1.
<scales pt_clust_3="59.52936" pt_clust_4="43.93697" pt_clust_5="43.93697" pt_clust_6="234.77457"></scales>
<clustering>
<clus scale="   43.937">  4  5 -1 -1</clus>
<clus scale="   59.529">  1  3  2 -1</clus>
<clus scale="  234.775">  2  6  1 -1</clus>
<clus scale="   59.529">  1  3  2 -1</clus>
</clustering>
</event>
<event>
 6    0  0.1080632E+003  0.7886115E+02  0.7546771E-02  0.1332315E+00
         21   -1    0    0  503  501  0.00000000000E+00  0.00000000000E+00  0.95508853989E+03  0.95508853989E+03  0.00000000000E+00 0.  1.
         21   -1    0    0  504  502 -0.00000000000E+00 -0.00000000000E+00 -0.52622771816E+02  0.52622771816E+02  0.00000000000E+00 0.  1.
         21    1    1    2  503  506 -0.56182078604E+02  0.64258505877E+02  0.57938817037E+03  0.58564172793E+03  0.00000000000E+00 0.  1.
         21    1    1    2  504  505 -0.32328337371E+02  0.15248912365E+02  0.36460109242E+02  0.51058694573E+02  0.00000000000E+00 0.  1.
         21    1    1    2  505  501 -0.11585250066E+02 -0.84511144191E+02  0.25026166126E+03  0.26439979313E+03  0.00000000000E+00 0.  1.
         21    1    1    2  506  502  0.10009566604E+03  0.50037259490E+01  0.36355827205E+02  0.10661109607E+03  0.00000000000E+00 0.  1.
<scales pt_clust_3="78.86115" pt_clust_4="35.74424" pt_clust_5="14000.00000" pt_clust_6="76.90230"></scales>
<clustering>
<clus scale="   35.744">  2  4  1 -1</clus>
<clus scale="   76.902">  2  6  1 -1</clus>
<clus scale="   78.861">  1  3  2 -1</clus>
<clus scale="   78.861">  1  3  2 -1</clus>
</clustering>
</event>
<event>
 6    0  0.1080632E+003  0.7760342E+02  0.7546771E-02  0.1335994E+00
         21   -1    0    0  503  501  0.00000000000E+00  0.00000000000E+00  0.38954180759E+02  0.38954180759E+02  0.00000000000E+00 0. -1.
         21   -1    0    0  506  502 -0.00000000000E+00 -0.00000000000E+00 -0.10285808596E+04  0.10285808596E+04  0.00000000000E+00 0. -1.
         21    1    1    2  503  504 -0.70256823283E+02  0.10164781635E+02 -0.29481256332E+03  0.30323883573E+03  0.00000000000E+00 0. -1.
         21    1    1    2  504  502 -0.51363404777E+02 -0.23151102922E+02 -0.50964821524E+03  0.51275284126E+03  0.00000000000E+00 0. -1.
         21    1    1    2  505  501  0.75761584473E+02  0.25686664128E+02 -0.24030906557E+02  0.83529077966E+02  0.00000000000E+00 0. -1.
         21    1    1    2  506  505  0.45858643587E+02 -0.12700342840E+02 -0.16113499376E+03  0.16801428545E+03  0.00000000000E+00 0. -1.
<scales pt_clust_3="14000.00000" pt_clust_4="39.08308" pt_clust_5="77.60342" pt_clust_6="47.58481"></scales>
<clustering>
<clus scale="   47.585">  2  6  1 -1</clus>
<clus scale="   39.083">  2  4  1 -1</clus>
<clus scale="   77.603">  1  5  2 -1</clus>
<clus scale="   77.603">  1  3  2 -1</clus>
</clustering>
</event>
<event>
 6    0  0.1080632E+003  0.9475557E+02  0.7546771E-02  0.1291728E+00
         21   -1    0    0  503  501  0.00000000000E+00  0.00000000000E+00  0.11428315647E+04  0.11428315647E+04  0.00000000000E+00 0. -1.
         21   -1    0    0  504  502 -0.00000000000E+00 -0.00000000000E+00 -0.81481737227E+02  0.81481737227E+02  0.00000000000E+00 0.  1.
         21    1    1    2  503  506  0.31263039655E+02  0.29602601769E+02  0.26260331574E+02  0.50431108399E+02  0.00000000000E+00 0.  1.
         21    1    1    2  504  505  0.19592448662E+01 -0.79046663610E+02 -0.34796989663E+02  0.86388912240E+02  0.00000000000E+00 0.  1.
         21    1    1    2  505  501 -0.30017633964E+02  0.90618061955E+02  0.10114030006E+04  0.10158979876E+04  0.00000000000E+00 0. -1.
         21    1    1    2  506  502 -0.32046505571E+01 -0.41174000113E+02  0.58483484939E+02  0.71595293708E+02  0.00000000000E+00 0. -1.
<scales pt_clust_3="38.37378" pt_clust_4="94.75557" pt_clust_5="14000.00000" pt_clust_6="41.29852"></scales>
<clustering>
<clus scale="   41.299">  2  6  1 -1</clus>
<clus scale="   38.374">  2  3  1 -1</clus>
<clus scale="   94.756">  2  4  1 -1</clus>
<clus scale="   94.756">  1  3  2 -1</clus>
</clustering>
</event>
<event>
 6    0  0.1080632E+003  0.2403709E+03  0.7546771E-02  0.1119546E+00
         21   -1    0    0  505  501  0.00000000000E+00  0.00000000000E+00  0.14945468761E+03  0.14945468761E+03  0.00000000000E+00 0. -1.
         21   -1    0    0  504  502 -0.00000000000E+00 -0.00000000000E+00 -0.80673166875E+03  0.80673166875E+03  0.00000000000E+00 0. -1.
         21    1    1    2  503  502  0.22052900612E+02 -0.79965095689E+02 -0.42565797553E+03  0.43366514627E+03  0.00000000000E+00 0. -1.
         21    1    1    2  504  506 -0.12820775631E+03  0.14038694727E+03 -0.99361028062E+02  0.21451885148E+03  0.00000000000E+00 0.  1.
         21    1    1    2  505  503  0.15145132503E+03 -0.10234396044E+03 -0.15753580054E+03  0.24130751862E+03  0.00000000000E+00 0. -1.
         21    1    1    2  506  501 -0.45296469336E+02  0.41922108859E+02  0.25277822992E+02  0.66694839985E+02  0.00000000000E+00 0. -1.
<scales pt_clust_3="82.95027" pt_clust_4="57.69129" pt_clust_5="218.00386" pt_clust_6="57.69129"></scales>
<clustering>
<clus scale="   57.691">  4  6 -1 -1</clus>
<clus scale="   82.950">  2  3  1 -1</clus>
<clus scale="  218.004">  2  5  1 -1</clus>
<clus scale="  240.371">  1  3  2 -1</clus>
</clustering>
</event>
<event>
 6    0  0.1080632E+003  0.1295226E+03  0.7546771E-02  0.1228166E+00
         21   -1    0    0  503  501  0.00000000000E+00  0.00000000000E+00  0.11153492385E+03  0.11153492385E+03  0.00000000000E+00 0.  1.
         21   -1    0    0  505  502 -0.00000000000E+00 -0.00000000000E+00 -0.37176596821E+03  0.37176596821E+03  0.00000000000E+00 0.  1.
         21    1    1    2  503  504  0.99648266774E+01  0.11376497657E+03  0.51862575684E+02  0.12542525432E+03  0.00000000000E+00 0.  1.
         21    1    1    2  504  506 -0.54923357334E+02 -0.55607171576E+02 -0.12702360170E+03  0.14914331396E+03  0.00000000000E+00 0.  1.
         21    1    1    2  505  501  0.36447874127E+02 -0.56208013736E+00 -0.91921373868E+02  0.98885299394E+02  0.00000000000E+00 0.  1.
         21    1    1    2  506  502  0.85106565295E+01 -0.57595724856E+02 -0.93148644487E+02  0.10984702438E+03  0.00000000000E+00 0.  1.
<scales pt_clust_3="114.65147" pt_clust_4="57.93561" pt_clust_5="36.45221" pt_clust_6="57.93561"></scales>
<clustering>
<clus scale="   36.452">  2  5  1 -1</clus>
<clus scale="   57.936">  4  6 -1 -1</clus>
<clus scale="  114.651">  1  3  2 -1</clus>
<clus scale="  114.651">  1  3  2 -1</clus>
</clustering>
</event>
<event>
 6    0  0.1080632E+003  0.1229305E+03  0.7546771E-02  0.1238340E+00
         21   -1    0    0  506  501  0.00000000000E+00  0.00000000000E+00  0.25950232154E+04  0.25950232154E+04  0.00000000000E+00 0.  1.
         21   -1    0    0  504  502 -0.00000000000E+00 -0.00000000000E+00 -0.16536525914E+02  0.16536525914E+02  0.00000000000E+00 0. -1.
         21    1    1    2  503  501  0.26720145341E+02  0.37358025657E+02  0.24557689896E+03  0.24983514875E+03  0.00000000000E+00 0. -1.
         21    1    1    2  504  505 -0.20311768123E+02  0.24713151327E+02  0.27690133659E+02  0.42308997564E+02  0.00000000000E+00 0. -1.
         21    1    1    2  505  503  0.85750932306E+01  0.54829883062E+02  0.13450903022E+03  0.14550782629E+03  0.00000000000E+00 0. -1.
         21    1    1    2  506  502 -0.14983470449E+02 -0.11690106005E+03  0.21707106267E+04  0.21739077687E+04  0.00000000000E+00 0.  1.
<scales pt_clust_3="38.06539" pt_clust_4="31.98918" pt_clust_5="38.06539" pt_clust_6="114.12934"></scales>
<clustering>
<clus scale="   31.989">  2  4  1 -1</clus>
<clus scale="   38.065">  3  5 -1 -1</clus>
<clus scale="  114.129">  1  6  2 -1</clus>
<clus scale="  114.129">  1  3  2 -1</clus>
</clustering>
</event>
<event>
 6    0  0.1080632E+003  0.1272218E+03  0.7546771E-02  0.1231637E+00
         21   -1    0    0  503  501  0.00000000000E+00  0.00000000000E+00  0.77329362039E+03  0.77329362039E+03  0.00000000000E+00 0.  1.
         21   -1    0    0  504  502 -0.00000000000E+00 -0.00000000000E+00 -0.21539604136E+03  0.21539604136E+03  0.00000000000E+00 0. -1.
         21    1    1    2  503  506  0.53558822662E+02  0.11739300923E+03  0.70490538573E+03  0.71661793791E+03  0.00000000000E+00 0.  1.
         21    1    1    2  504  501  0.33317759185E+02 -0.17772799435E+02 -0.22752965401E+02  0.44086765717E+02  0.00000000000E+00 0. -1.
         21    1    1    2  505  502 -0.58916785074E+02 -0.24068516692E+02  0.16553056736E+02  0.65760814674E+02  0.00000000000E+00 0.  1.
         21    1    1    2  506  505 -0.27959796772E+02 -0.75551693107E+02 -0.14080789803E+03  0.16222414344E+03  0.00000000000E+00 0. -1.
<scales pt_clust_3="14000.00000" pt_clust_4="37.76169" pt_clust_5="60.50963" pt_clust_6="127.22180"></scales>
<clustering>
<clus scale="   37.762">  2  4  1 -1</clus>
<clus scale="   60.510">  2  5  1 -1</clus>
<clus scale="  127.222">  2  6  1 -1</clus>
<clus scale="  127.222">  1  3  2 -1</clus>
</clustering>
</event>
<event>
 6    0  0.1080632E+003  0.1692423E+03  0.7546771E-02  0.1178640E+00
         21   -1    0    0  506  501  0.00000000000E+00  0.00000000000E+00  0.31906078300E+03  0.31906078300E+03  0.00000000000E+00 0.  1.
         21   -1    0    0  505  502 -0.00000000000E+00 -0.00000000000E+00 -0.32007661425E+03  0.32007661425E+03  0.00000000000E+00 0. -1.
         21    1    1    2  503  501 -0.83608876539E+02  0.17398662794E+03  0.13104914901E+03  0.23331453103E+03  0.00000000000E+00 0.  1.
         21    1    1    2  504  503 -0.60082966799E+01 -0.68596073711E+02 -0.49135905451E+02  0.84592305572E+02  0.00000000000E+00 0.  1.
         21    1    1    2  505  504  0.25132516047E+02 -0.77382296419E+02 -0.18222605800E+03  0.19956452434E+03  0.00000000000E+00 0. -1.
         21    1    1    2  506  502  0.64484657171E+02 -0.28008257806E+02  0.99296983195E+02  0.12166603629E+03  0.00000000000E+00 0.  1.
<scales pt_clust_3="151.99220" pt_clust_4="68.48213" pt_clust_5="68.48213" pt_clust_6="70.30458"></scales>
<clustering>
<clus scale="   68.482">  4  5 -1 -1</clus>
<clus scale="   70.305">  1  6  2 -1</clus>
<clus scale="  151.992">  1  3  2 -1</clus>
<clus scale="   70.305">  1  3  2 -1</clus>
</clustering>
</event>
<event>
 6    0  0.1080632E+003  0.5217941E+02  0.7546771E-02  0.1433929E+00
         21   -1    0    0  503  501  0.00000000000E+00  0.00000000000E+00  0.40281937624E+03  0.40281937624E+03  0.00000000000E+00 0.  1.
         21   -1    0    0  505  502 -0.00000000000E+00 -0.00000000000E+00 -0.67095013897E+03  0.67095013897E+03  0.00000000000E+00 0. -1.
         21    1    1    2  503  506 -0.13121759484E+02  0.49595815841E+02  0.34620189519E+03  0.34998239635E+03  0.00000000000E+00 0.  1.
         21    1    1    2  504  502 -0.16251176343E+01  0.39272165855E+02 -0.47709934970E+03  0.47871571261E+03  0.00000000000E+00 0. -1.
         21    1    1    2  505  501  0.10226410011E+02  0.45869624889E+02  0.71466077068E+01  0.47536048962E+02  0.00000000000E+00 0.  1.
         21    1    1    2  506  504  0.45204671073E+01 -0.13473760659E+03 -0.14437991594E+03  0.19753535728E+03  0.00000000000E+00 0. -1.
<scales pt_clust_3="14000.00000" pt_clust_4="39.30578" pt_clust_5="50.97971" pt_clust_6="52.17941"></scales>
<clustering>
<clus scale="   39.306">  2  4  1 -1</clus>
<clus scale="   50.980">  2  5  1 -1</clus>
<clus scale="   52.179">  2  6  1 -1</clus>
<clus scale="   52.179">  1  3  2 -1</clus>
</clustering>
</event>
<event>
 6    0  0.1080632E+003  0.1543356E+03  0.7546771E-02  0.1195244E+00
         21   -1    0    0  503  501  0.00000000000E+00  0.00000000000E+00  0.52200975686E+02  0.52200975686E+02  0.00000000000E+00 0.  1.
         21   -1    0    0  506  502 -0.00000000000E+00 -0.00000000000E+00 -0.10943975907E+04  0.10943975907E+04  0.00000000000E+00 0. -1.
         21    1    1    2  503  505 -0.50856394878E+02 -0.40346443835E+02 -0.15616182155E+02  0.66768806903E+02  0.00000000000E+00 0.  1.
         21    1    1    2  504  501  0.54170927999E+02  0.69360229676E+02 -0.39234172427E+03  0.40209123281E+03  0.00000000000E+00 0. -1.
         21    1    1    2  505  502 -0.13592935968E+02 -0.81932863062E+02 -0.63724809608E+02  0.10468339561E+03  0.00000000000E+00 0.  1.
         21    1    1    2  506  504  0.10278402848E+02  0.52919077221E+02 -0.57051389893E+03  0.57305513101E+03  0.00000000000E+00 0. -1.
<scales pt_clust_3="55.87995" pt_clust_4="53.73287" pt_clust_5="151.98969" pt_clust_6="53.73287"></scales>
<clustering>
<clus scale="   53.733">  4  6 -1 -1</clus>
<clus scale="   55.880">  3  5 -1 -1</clus>
<clus scale="  151.990">  1  3  2 -1</clus>
<clus scale="  151.990">  1  3  2 -1</clus>
</clustering>
</event>
<event>
 6    0  0.1080632E+003  0.2850326E+03  0.7546771E-02  0.1092972E+00
         21   -1    0    0  505  501  0.00000000000E+00  0.00000000000E+00  0.43106410772E+03  0.43106410772E+03  0.00000000000E+00 0.  1.
         21   -1    0    0  506  502 -0.00000000000E+00 -0.00000000000E+00 -0.38240860298E+03  0.38240860298E+03  0.00000000000E+00 0.  1.
         21    1    1    2  503  502 -0.14546764511E+03 -0.23426506048E+03 -0.11128196776E+03  0.29736279304E+03  0.00000000000E+00 0.  1.
         21    1    1    2  504  501  0.11637368894E+03  0.30328654886E+03  0.17797961538E+03  0.37040830132E+03  0.00000000000E+00 0.  1.
         21    1    1    2  505  503 -0.19780702559E+02 -0.51447600822E+02  0.39782304793E+02  0.67976198766E+02  0.00000000000E+00 0. -1.
         21    1    1    2  506  504  0.48874658732E+02 -0.17573887562E+02 -0.57824447658E+02  0.77725417575E+02  0.00000000000E+00 0.  1.
<scales pt_clust_3="14000.00000" pt_clust_4="285.03261" pt_clust_5="55.11746" pt_clust_6="51.93817"></scales>
<clustering>
<clus scale="   51.938">  2  6  1 -1</clus>
<clus scale="   55.117">  1  5  2 -1</clus>
<clus scale="  285.033">  1  4  2 -1</clus>
<clus scale="   55.117">  1  3  2 -1</clus>
</clustering>
</event>
<event>
 6    0  0.1080632E+003  0.3102107E+03  0.7546771E-02  0.1080245E+00
         21   -1    0    0  504  501  0.00000000000E+00  0.00000000000E+00  0.23277837711E+03  0.23277837711E+03  0.00000000000E+00 0. -1.
         21   -1    0    0  506  502 -0.00000000000E+00 -0.00000000000E+00 -0.68420690363E+03  0.68420690363E+03  0.00000000000E+00 0. -1.
         21    1    1    2  503  502 -0.10578735934E+03  0.30437672813E+03 -0.17304765034E+03  0.36576173571E+03  0.00000000000E+00 0. -1.
         21    1    1    2  504  503  0.10506980984E+01  0.30301193330E+02  0.31559198922E+02  0.43763561559E+02  0.00000000000E+00 0. -1.
         21    1    1    2  505  501  0.72121392110E+02 -0.29611621311E+03 -0.14990306922E+03  0.33964280800E+03  0.00000000000E+00 0. -1.
         21    1    1    2  506  505  0.32615269128E+02 -0.38561708342E+02 -0.16003700589E+03  0.16781717548E+03  0.00000000000E+00 0. -1.
<scales pt_clust_3="310.21071" pt_clust_4="30.31940" pt_clust_5="14000.00000" pt_clust_6="50.05898"></scales>
<clustering>
<clus scale="   30.319">  1  4  2 -1</clus>
<clus scale="   50.059">  2  6  1 -1</clus>
<clus scale="  310.211">  2  3  1 -1</clus>
<clus scale="   30.319">  1  3  2 -1</clus>
</clustering>
</event>
<event>
 6    0  0.1080632E+003  0.1669216E+03  0.7546771E-02  0.1181097E+00
         21   -1    0    0  503  501  0.00000000000E+00  0.00000000000E+00  0.27770083410E+03  0.27770083410E+03  0.00000000000E+00 0.  1.
         21   -1    0    0  505  502 -0.00000000000E+00 -0.00000000000E+00 -0.16523085078E+04  0.16523085078E+04  0.00000000000E+00 0.  1.
         21    1    1    2  503  504 -0.75001550867E+02 -0.16488310539E+03 -0.36812382808E+03  0.41027652123E+03  0.00000000000E+00 0. -1.
         21    1    1    2  504  502  0.85129222028E+02  0.11397983794E+03 -0.11978943708E+04  0.12063122777E+04  0.00000000000E+00 0.  1.
         21    1    1    2  505  506  0.14468033959E+02  0.26724869820E+02 -0.55948137984E+02  0.63668962748E+02  0.00000000000E+00 0.  1.
         21    1    1    2  506  501 -0.24595705121E+02  0.24178397631E+02  0.24735866309E+03  0.24975158023E+03  0.00000000000E+00 0.  1.
<scales pt_clust_3="14000.00000" pt_clust_4="166.92159" pt_clust_5="30.38984" pt_clust_6="34.49609"></scales>
<clustering>
<clus scale="   30.390">  2  5  1 -1</clus>
<clus scale="   34.496">  1  6  2 -1</clus>
<clus scale="  166.922">  2  4  1 -1</clus>
<clus scale="   34.496">  1  3  2 -1</clus>
</clustering>
</event>
<event>
 6    0  0.1080632E+003  0.1383885E+03  0.7546771E-02  0.1215514E+00
         21   -1    0    0  503  501  0.00000000000E+00  0.00000000000E+00  0.61612779643E+02  0.61612779643E+02  0.00000000000E+00 0.  1.
         21   -1    0    0  506  502 -0.00000000000E+00 -0.00000000000E+00 -0.12171977803E+04  0.12171977803E+04  0.00000000000E+00 0.  1.
         21    1    1    2  503  504  0.32806650763E+02  0.13158506609E+02  0.37616059640E+02  0.51617735066E+02  0.00000000000E+00 0.  1.
         21    1    1    2  504  502 -0.17144361300E+02  0.12265516358E+03 -0.33700275515E+03  0.35903909990E+03  0.00000000000E+00 0.  1.
         21    1    1    2  505  501 -0.10122267205E+02 -0.52858395048E+02 -0.21715178582E+03  0.22372163128E+03  0.00000000000E+00 0. -1.
         21    1    1    2  506  505 -0.55400222585E+01 -0.82955275137E+02 -0.63904651931E+03  0.64443209368E+03  0.00000000000E+00 0.  1.
<scales pt_clust_3="35.34717" pt_clust_4="131.25042" pt_clust_5="35.29740" pt_clust_6="35.29740"></scales>
<clustering>
<clus scale="   35.297">  5  6 -1 -1</clus>
<clus scale="   35.347">  1  3  2 -1</clus>
<clus scale="  131.250">  1  4  2 -1</clus>
<clus scale="   35.347">  1  3  2 -1</clus>
</clustering>
</event>
<event>
 6    0  0.1080632E+003  0.1466703E+03  0.7546771E-02  0.1204625E+00
         21   -1    0    0  503  501  0.00000000000E+00  0.00000000000E+00  0.52928536412E+03  0.52928536412E+03  0.00000000000E+00 0. -1.
         21   -1    0    0  504  502 -0.00000000000E+00 -0.00000000000E+00 -0.27630657273E+03  0.27630657273E+03  0.00000000000E+00 0. -1.
         21    1    1    2  503  505  0.12856779648E+03 -0.50104706220E+02  0.44338527275E+03  0.46436048494E+03  0.00000000000E+00 0. -1.
         21    1    1    2  504  501  0.52041249712E+02  0.75056131930E+01 -0.13324733435E+03  0.14324621465E+03  0.00000000000E+00 0. -1.
         21    1    1    2  505  506 -0.11199385876E+03  0.20781342816E+02 -0.53627260670E+02  0.12589825930E+03  0.00000000000E+00 0. -1.
         21    1    1    2  506  502 -0.68615187434E+02  0.21817750211E+02 -0.35318863507E+01  0.72086977964E+02  0.00000000000E+00 0. -1.
<scales pt_clust_3="141.47617" pt_clust_4="52.57971" pt_clust_5="30.75805" pt_clust_6="30.75805"></scales>
<clustering>
<clus scale="   30.758">  5  6 -1 -1</clus>
<clus scale="   52.580">  2  4  1 -1</clus>
<clus scale="  141.476">  1  3  2 -1</clus>
<clus scale="  141.476">  1  3  2 -1</clus>
</clustering>
</event>
<event>
 6    0  0.1080632E+003  0.1678458E+03  0.7546771E-02  0.1180113E+00
         21   -1    0    0  505  501  0.00000000000E+00  0.00000000000E+00  0.95947248037E+02  0.95947248037E+02  0.00000000000E+00 0. -1.
         21   -1    0    0  503  502 -0.00000000000E+00 -0.00000000000E+00 -0.28615304168E+04  0.28615304168E+04  0.00000000000E+00 0. -1.
         21    1    1    2  503  504 -0.13935843823E+02  0.83287567958E+02 -0.61353029966E+03  0.61931450437E+03  0.00000000000E+00 0. -1.
         21    1    1    2  504  501  0.20941415467E+02  0.11889285834E+03 -0.11720904594E+04  0.11782911778E+04  0.00000000000E+00 0. -1.
         21    1    1    2  505  506  0.12410660581E+03 -0.10593312072E+03  0.33450762082E+01  0.16320375365E+03  0.00000000000E+00 0. -1.
         21    1    1    2  506  502 -0.13111217745E+03 -0.96247305583E+02 -0.98330748592E+03  0.99666822903E+03  0.00000000000E+00 0. -1.
<scales pt_clust_3="37.57749" pt_clust_4="37.57749" pt_clust_5="161.72054" pt_clust_6="162.64669"></scales>
<clustering>
<clus scale="   37.577">  3  4 -1 -1</clus>
<clus scale="  162.647">  2  6  1 -1</clus>
<clus scale="  161.721">  1  5  2 -1</clus>
<clus scale="  161.721">  1  3  2 -1</clus>
</clustering>
</event>
<event>
 6    0  0.1080632E+003  0.2244491E+03  0.7546771E-02  0.1130609E+00
         21   -1    0    0  503  501  0.00000000000E+00  0.00000000000E+00  0.28734325902E+03  0.28734325902E+03  0.00000000000E+00 0. -1.
         21   -1    0    0  504  502 -0.00000000000E+00 -0.00000000000E+00 -0.12078593921E+04  0.12078593921E+04  0.00000000000E+00 0.  1.
         21    1    1    2  503  506 -0.21851694781E+02 -0.87805359808E+02  0.18203161896E+03  0.20328007300E+03  0.00000000000E+00 0. -1.
         21    1    1    2  504  505  0.15164162072E+03 -0.15504782217E+03 -0.76361870194E+03  0.79381895307E+03  0.00000000000E+00 0.  1.
         21    1    1    2  505  501 -0.89455125146E+02  0.26878622536E+03 -0.18862232307E+03  0.34033312375E+03  0.00000000000E+00 0. -1.
         21    1    1    2  506  502 -0.40334800792E+02 -0.25933043389E+02 -0.15030672707E+03  0.15777050135E+03  0.00000000000E+00 0. -1.
<scales pt_clust_3="90.83609" pt_clust_4="224.44908" pt_clust_5="14000.00000" pt_clust_6="47.95226"></scales>
<clustering>
<clus scale="   47.952">  2  6  1 -1</clus>
<clus scale="   90.836">  1  3  2 -1</clus>
<clus scale="  224.449">  2  4  1 -1</clus>
<clus scale="   90.836">  1  3  2 -1</clus>
</clustering>
</event>
<event>
 6    0  0.1080632E+003  0.1974582E+03  0.7546771E-02  0.1151901E+00
         21   -1    0    0  506  501  0.00000000000E+00  0.00000000000E+00  0.84132350945E+02  0.84132350945E+02  0.00000000000E+00 0.  1.
         21   -1    0    0  504  502 -0.00000000000E+00 -0.00000000000E+00 -0.13806251612E+04  0.13806251612E+04  0.00000000000E+00 0.  1.
         21    1    1    2  503  505  0.20528576318E+02  0.61761415512E+02 -0.11854514186E+03  0.13523625827E+03  0.00000000000E+00 0.  1.
         21    1    1    2  504  501  0.13079768554E+03 -0.19394943074E+03 -0.27143763817E+03  0.35833337500E+03  0.00000000000E+00 0.  1.
         21    1    1    2  505  502  0.45179758767E+02  0.11445826333E+03 -0.55123163133E+03  0.56479927056E+03  0.00000000000E+00 0.  1.
         21    1    1    2  506  503 -0.19650602062E+03  0.17729751900E+02 -0.35527839888E+03  0.40638860830E+03  0.00000000000E+00 0.  1.
<scales pt_clust_3="56.69782" pt_clust_4="181.41636" pt_clust_5="56.69782" pt_clust_6="197.30423"></scales>
<clustering>
<clus scale="   56.698">  3  5 -1 -1</clus>
<clus scale="  197.304">  1  6  2 -1</clus>
<clus scale="  181.416">  1  4  2 -1</clus>
<clus scale="  197.304">  1  3  2 -1</clus>
</clustering>
</event>
<event>
 6    0  0.1080632E+003  0.5865135E+02  0.7546771E-02  0.1403580E+00
         21   -1    0    0  504  501  0.00000000000E+00  0.00000000000E+00  0.13544380418E+04  0.13544380418E+04  0.00000000000E+00 0.  1.
         21   -1    0    0  503  502 -0.00000000000E+00 -0.00000000000E+00 -0.76566627803E+02  0.76566627803E+02  0.00000000000E+00 0.  1.
         21    1    1    2  503  506  0.64697255745E+02  0.17094186103E+02  0.53010073645E+01  0.67127094221E+02  0.00000000000E+00 0.  1.
         21    1    1    2  504  505 -0.56554660619E+02 -0.59259095392E+02  0.55702251147E+02  0.99059632582E+02  0.00000000000E+00 0.  1.
         21    1    1    2  505  502 -0.50588961699E+02  0.14626797225E+02  0.61227632442E+01  0.53015794557E+02  0.00000000000E+00 0.  1.
         21    1    1    2  506  501  0.42446366572E+02  0.27538112064E+02  0.12107453922E+04  0.12118021482E+04  0.00000000000E+00 0.  1.
<scales pt_clust_3="58.65135" pt_clust_4="14000.00000" pt_clust_5="46.49478" pt_clust_6="50.59685"></scales>
<clustering>
<clus scale="   50.597">  1  6  2 -1</clus>
<clus scale="   46.495">  2  5  1 -1</clus>
<clus scale="   58.651">  2  3  1 -1</clus>
<clus scale="   50.597">  1  3  2 -1</clus>
</clustering>
</event>
<event>
 6    0  0.1080632E+003  0.9853432E+02  0.7546771E-02  0.1283409E+00
         21   -1    0    0  506  501  0.00000000000E+00  0.00000000000E+00  0.22207710231E+02  0.22207710231E+02  0.00000000000E+00 0.  1.
         21   -1    0    0  505  502 -0.00000000000E+00 -0.00000000000E+00 -0.12093465167E+04  0.12093465167E+04  0.00000000000E+00 0.  1.
         21    1    1    2  503  504 -0.69046697863E+02  0.75584457435E+02 -0.23385371065E+03  0.25528026692E+03  0.00000000000E+00 0.  1.
         21    1    1    2  504  501  0.38038036480E+02  0.63713183535E+01 -0.71004765027E+02  0.80803233681E+02  0.00000000000E+00 0. -1.
         21    1    1    2  505  503 -0.37489352601E+02  0.96845534839E+01 -0.22367762332E+03  0.22700423192E+03  0.00000000000E+00 0.  1.
         21    1    1    2  506  502  0.68498013983E+02 -0.91640329272E+02 -0.65860270749E+03  0.66846649444E+03  0.00000000000E+00 0.  1.
<scales pt_clust_3="98.53432" pt_clust_4="38.56794" pt_clust_5="35.36613" pt_clust_6="14000.00000"></scales>
<clustering>
<clus scale="   38.568">  1  4  2 -1</clus>
<clus scale="   35.366">  2  5  1 -1</clus>
<clus scale="   98.534">  1  3  2 -1</clus>
<clus scale="   38.568">  1  3  2 -1</clus>
</clustering>
</event>
<event>
 6    0  0.1080632E+003  0.1597654E+03  0.7546771E-02  0.1188962E+00
         21   -1    0    0  502  501  0.00000000000E+00  0.00000000000E+00  0.30370515041E+03  0.30370515041E+03  0.00000000000E+00 0. -1.
         21   -1    0    0  503  502 -0.00000000000E+00 -0.00000000000E+00 -0.78167157876E+03  0.78167157876E+03  0.00000000000E+00 0.  1.
         21    1    1    2  503  505  0.27287769553E+02 -0.43400247839E+02 -0.46431802724E+03  0.46713963041E+03  0.00000000000E+00 0.  1.
         21    1    1    2  504  501 -0.14599529507E+03  0.37314544315E+02  0.26765645716E+03  0.30715953585E+03  0.00000000000E+00 0. -1.
         21    1    1    2  505  506  0.42267843604E+02  0.30986979881E+02 -0.11050658398E+03  0.12230481849E+03  0.00000000000E+00 0.  1.
         21    1    1    2  506  504  0.76439681911E+02 -0.24901276357E+02 -0.17079827430E+03  0.18877274443E+03  0.00000000000E+00 0.  1.
<scales pt_clust_3="51.26601" pt_clust_4="148.38016" pt_clust_5="47.82383" pt_clust_6="47.82383"></scales>
<clustering>
<clus scale="   47.824">  5  6 -1 -1</clus>
<clus scale="   51.266">  2  3  1 -1</clus>
<clus scale="  148.380">  1  4  2 -1</clus>
<clus scale="  148.380">  1  3  2 -1</clus>
</clustering>
</event>
<event>
 6    0  0.1080632E+003  0.9042477E+02  0.7546771E-02  0.1301826E+00
         21   -1    0    0  505  501  0.00000000000E+00  0.00000000000E+00  0.40681436617E+03  0.40681436617E+03  0.00000000000E+00 0.  1.
         21   -1    0    0  506  502 -0.00000000000E+00 -0.00000000000E+00 -0.23731499190E+03  0.23731499190E+03  0.00000000000E+00 0.  1.
         21    1    1    2  503  502 -0.44005658647E+02 -0.60367357536E+02  0.12587647182E+03  0.14637486808E+03  0.00000000000E+00 0.  1.
         21    1    1    2  504  501  0.47099989737E+02  0.11776035083E+03  0.17357215767E+03  0.21497256378E+03  0.00000000000E+00 0.  1.
         21    1    1    2  505  503 -0.45818963888E+02  0.22671282033E+02  0.56027362434E+02  0.75844774521E+02  0.00000000000E+00 0.  1.
         21    1    1    2  506  504  0.42724632797E+02 -0.80064275327E+02 -0.18597661766E+03  0.20693715168E+03  0.00000000000E+00 0.  1.
<scales pt_clust_3="80.71409" pt_clust_4="90.42477" pt_clust_5="51.12108" pt_clust_6="14000.00000"></scales>
<clustering>
<clus scale="   51.121">  1  5  2 -1</clus>
<clus scale="   80.714">  1  3  2 -1</clus>
<clus scale="   90.425">  1  4  2 -1</clus>
<clus scale="   51.121">  1  3  2 -1</clus>
</clustering>
</event>
<event>
 6    0  0.1080632E+003  0.2443059E+03  0.7546771E-02  0.1116957E+00
         21   -1    0    0  504  501  0.00000000000E+00  0.00000000000E+00  0.55356792704E+03  0.55356792704E+03  0.00000000000E+00 0. -1.
         21   -1    0    0  506  502 -0.00000000000E+00 -0.00000000000E+00 -0.43806111109E+03  0.43806111109E+03  0.00000000000E+00 0. -1.
         21    1    1    2  503  501 -0.38130882791E+02 -0.30359346517E+02  0.38617323064E+03  0.38923696922E+03  0.00000000000E+00 0. -1.
         21    1    1    2  504  505  0.46381228493E+01  0.30204146927E+02  0.11319513302E+02  0.32587329693E+02  0.00000000000E+00 0.  1.
         21    1    1    2  505  502  0.17439980100E+03 -0.18445126020E+03 -0.20121753035E+03  0.32392291135E+03  0.00000000000E+00 0. -1.
         21    1    1    2  506  503 -0.14090704106E+03  0.18460645979E+03 -0.80768397650E+02  0.24588182787E+03  0.00000000000E+00 0. -1.
<scales pt_clust_3="35.73317" pt_clust_4="30.55819" pt_clust_5="244.30591" pt_clust_6="14000.00000"></scales>
<clustering>
<clus scale="   30.558">  1  4  2 -1</clus>
<clus scale="   35.733">  1  3  2 -1</clus>
<clus scale="  244.306">  2  5  1 -1</clus>
<clus scale="   30.558">  1  3  2 -1</clus>
</clustering>
</event>
<event>
 6    0  0.1080632E+003  0.7059984E+02  0.7546771E-02  0.1358065E+00
         21   -1    0    0  503  501  0.00000000000E+00  0.00000000000E+00  0.19689776762E+04  0.19689776762E+04  0.00000000000E+00 0. -1.
         21   -1    0    0  506  502 -0.00000000000E+00 -0.00000000000E+00 -0.64491969225E+02  0.64491969225E+02  0.00000000000E+00 0. -1.
         21    1    1    2  503  502 -0.88336697514E+02  0.79574718889E+02  0.47806215545E+03  0.49262453501E+03  0.00000000000E+00 0. -1.
         21    1    1    2  504  501  0.61816304480E+02 -0.20275194733E+02  0.10509228864E+04  0.10529345907E+04  0.00000000000E+00 0. -1.
         21    1    1    2  505  504 -0.29164008864E+02 -0.67617822227E+02  0.41348636501E+03  0.41999248010E+03  0.00000000000E+00 0. -1.
         21    1    1    2  506  505  0.55684401898E+02  0.83182980709E+01 -0.37985699976E+02  0.67918039578E+02  0.00000000000E+00 0. -1.
<scales pt_clust_3="14000.00000" pt_clust_4="70.59984" pt_clust_5="66.64774" pt_clust_6="56.30228"></scales>
<clustering>
<clus scale="   56.302">  2  6  1 -1</clus>
<clus scale="   66.648">  2  5  1 -1</clus>
<clus scale="   70.600">  1  4  2 -1</clus>
<clus scale="   70.600">  1  3  2 -1</clus>
</clustering>
</event>
<event>
 6    0  0.1080632E+003  0.6499507E+02  0.7546771E-02  0.1377990E+00
         21   -1    0    0  504  501  0.00000000000E+00  0.00000000000E+00  0.47883708989E+02  0.47883708989E+02  0.00000000000E+00 0. -1.
         21   -1    0    0  503  502 -0.00000000000E+00 -0.00000000000E+00 -0.12210485111E+04  0.12210485111E+04  0.00000000000E+00 0. -1.
         21    1    1    2  503  505  0.64899433974E+01  0.62590871966E+02 -0.21072509162E+03  0.21991998740E+03  0.00000000000E+00 0. -1.
         21    1    1    2  504  506 -0.77024133818E+02  0.25777139807E+02 -0.41362602171E+03  0.42152540133E+03  0.00000000000E+00 0. -1.
         21    1    1    2  505  501  0.34966097130E+02 -0.56975549143E+02  0.91829517361E+01  0.67477164665E+02  0.00000000000E+00 0. -1.
         21    1    1    2  506  502  0.35568093291E+02 -0.31392462630E+02 -0.55799664049E+03  0.56000966667E+03  0.00000000000E+00 0. -1.
<scales pt_clust_3="64.99507" pt_clust_4="54.91627" pt_clust_5="14000.00000" pt_clust_6="47.44024"></scales>
<clustering>
<clus scale="   47.440">  2  6  1 -1</clus>
<clus scale="   54.916">  2  4  1 -1</clus>
<clus scale="   64.995">  2  3  1 -1</clus>
<clus scale="   64.995">  1  3  2 -1</clus>
</clustering>
</event>
<event>
 6    0  0.1080632E+003  0.8618421E+02  0.7546771E-02  0.1312364E+00
         21   -1    0    0  506  501  0.00000000000E+00  0.00000000000E+00  0.24332338996E+03  0.24332338996E+03  0.00000000000E+00 0.  1.
         21   -1    0    0  503  502 -0.00000000000E+00 -0.00000000000E+00 -0.17510797221E+03  0.17510797221E+03  0.00000000000E+00 0.  1.
         21    1    1    2  503  505  0.57912893381E+02 -0.41904047031E+02 -0.14835180565E+02  0.73006403553E+02  0.00000000000E+00 0.  1.
         21    1    1    2  504  502  0.31045889107E+02  0.13515265660E+02  0.53359235388E+01  0.34278006306E+02  0.00000000000E+00 0. -1.
         21    1    1    2  505  501  0.28049679822E+02  0.20697234566E+02  0.16265854335E+03  0.16635192148E+03  0.00000000000E+00 0.  1.
         21    1    1    2  506  504 -0.11700846231E+03  0.76915468060E+01 -0.84943868573E+02  0.14479503083E+03  0.00000000000E+00 0.  1.
<scales pt_clust_3="86.18421" pt_clust_4="33.86015" pt_clust_5="35.23869" pt_clust_6="14000.00000"></scales>
<clustering>
<clus scale="   33.860">  2  4  1 -1</clus>
<clus scale="   35.239">  1  5  2 -1</clus>
<clus scale="   86.184">  1  3  2 -1</clus>
<clus scale="   35.239">  1  3  2 -1</clus>
</clustering>
</event>
<event>
 6    0  0.1080632E+003  0.9371090E+02  0.7546771E-02  0.1294106E+00
         21   -1    0    0  505  501  0.00000000000E+00  0.00000000000E+00  0.19030847854E+04  0.19030847854E+04  0.00000000000E+00 0.  1.
         21   -1    0    0  504  502 -0.00000000000E+00 -0.00000000000E+00 -0.98230354207E+02  0.98230354207E+02  0.00000000000E+00 0.  1.
         21    1    1    2  503  501  0.48144592624E+02 -0.33237037179E+02  0.15246064410E+03  0.16329987887E+03  0.00000000000E+00 0.  1.
         21    1    1    2  504  503  0.93028024660E+02  0.81877877384E+01 -0.64091131792E+02  0.11326485075E+03  0.00000000000E+00 0.  1.
         21    1    1    2  505  506 -0.33525018371E+02 -0.74961691993E+01  0.88840306781E+03  0.88906699990E+03  0.00000000000E+00 0.  1.
         21    1    1    2  506  502 -0.10764759891E+03  0.32545418640E+02  0.82808185104E+03  0.83568341006E+03  0.00000000000E+00 0.  1.
<scales pt_clust_3="55.01189" pt_clust_4="93.71090" pt_clust_5="34.35287" pt_clust_6="14000.00000"></scales>
<clustering>
<clus scale="   34.353">  1  5  2 -1</clus>
<clus scale="   55.012">  1  3  2 -1</clus>
<clus scale="   93.711">  2  4  1 -1</clus>
<clus scale="   34.353">  1  3  2 -1</clus>
</clustering>
</event>
<event>
 6    0  0.1080632E+003  0.1336348E+03  0.7546771E-02  0.1222160E+00
         21   -1    0    0  504  501  0.00000000000E+00  0.00000000000E+00  0.54772579897E+03  0.54772579897E+03  0.00000000000E+00 0. -1.
         21   -1    0    0  505  502 -0.00000000000E+00 -0.00000000000E+00 -0.36622186530E+03  0.36622186530E+03  0.00000000000E+00 0. -1.
         21    1    1    2  503  506 -0.67681419218E+02 -0.16018577036E+03  0.64355763691E+02  0.18542362269E+03  0.00000000000E+00 0. -1.
         21    1    1    2  504  502  0.36370636503E+01 -0.31578578767E+02 -0.42731945309E+02  0.53258370411E+02  0.00000000000E+00 0. -1.
         21    1    1    2  505  503  0.80204963014E+02  0.12209839792E+03 -0.23350278389E+03  0.27543493778E+03  0.00000000000E+00 0. -1.
         21    1    1    2  506  501 -0.16160607446E+02  0.69665951206E+02  0.39338289918E+03  0.39983073338E+03  0.00000000000E+00 0. -1.
<scales pt_clust_3="133.63481" pt_clust_4="31.78734" pt_clust_5="14000.00000" pt_clust_6="71.19584"></scales>
<clustering>
<clus scale="   31.787">  2  4  1 -1</clus>
<clus scale="   71.196">  1  6  2 -1</clus>
<clus scale="  133.635">  1  3  2 -1</clus>
<clus scale="   71.196">  1  3  2 -1</clus>
</clustering>
</event>
<event>
 6    0  0.1080632E+003  0.8447473E+02  0.7546771E-02  0.1316812E+00
         21   -1    0    0  502  501  0.00000000000E+00  0.00000000000E+00  0.23218669278E+03  0.23218669278E+03  0.00000000000E+00 0. -1.
         21   -1    0    0  503  502 -0.00000000000E+00 -0.00000000000E+00 -0.15717894566E+03  0.15717894566E+03  0.00000000000E+00 0. -1.
         21    1    1    2  503  504 -0.32142137829E+02 -0.14758635363E+02 -0.50468114734E+02  0.61627631358E+02  0.00000000000E+00 0. -1.
         21    1    1    2  504  505 -0.31596690224E+01  0.96147299335E+02 -0.53946478862E+02  0.11029283413E+03  0.00000000000E+00 0. -1.
         21    1    1    2  505  506  0.62340909701E+02 -0.47676991363E+02  0.10104982152E+03  0.12794745389E+03  0.00000000000E+00 0. -1.
         21    1    1    2  506  501 -0.27039102850E+02 -0.33711672610E+02  0.78372519197E+02  0.89497719068E+02  0.00000000000E+00 0.  1.
<scales pt_clust_3="35.36855" pt_clust_4="84.47473" pt_clust_5="14000.00000" pt_clust_6="44.96348"></scales>
<clustering>
<clus scale="   35.369">  2  3  1 -1</clus>
<clus scale="   44.963">  1  6  2 -1</clus>
<clus scale="   84.475">  2  4  1 -1</clus>
<clus scale="   44.963">  1  3  2 -1</clus>
</clustering>
</event>
<event>
 6    0  0.1080632E+003  0.1007448E+03  0.7546771E-02  0.1278737E+00
         21   -1    0    0  506  501  0.00000000000E+00  0.00000000000E+00  0.16761691312E+03  0.16761691312E+03  0.00000000000E+00 0.  1.
         21   -1    0    0  505  502 -0.00000000000E+00 -0.00000000000E+00 -0.18950388009E+03  0.18950388009E+03  0.00000000000E+00 0.  1.
         21    1    1    2  503  501 -0.38875853001E+02  0.13084169764E+02  0.79561400011E+02  0.89512813701E+02  0.00000000000E+00 0.  1.
         21    1    1    2  504  502  0.91811783383E+02  0.50669970238E+02 -0.57681370680E+02  0.11968287252E+03  0.00000000000E+00 0.  1.
         21    1    1    2  505  503 -0.88208144146E+02 -0.39557126536E+02 -0.41166580624E+02  0.10507202441E+03  0.00000000000E+00 0.  1.
         21    1    1    2  506  504  0.35272213765E+02 -0.24197013466E+02 -0.26004156695E+01  0.42853082575E+02  0.00000000000E+00 0.  1.
<scales pt_clust_3="41.01862" pt_clust_4="100.74482" pt_clust_5="14000.00000" pt_clust_6="33.32566"></scales>
<clustering>
<clus scale="   41.019">  1  3  2 -1</clus>
<clus scale="   33.326">  1  6  2 -1</clus>
<clus scale="  100.745">  2  4  1 -1</clus>
<clus scale="   41.019">  1  3  2 -1</clus>
</clustering>
</event>
<event>
 6    0  0.1080632E+003  0.1784478E+03  0.7546771E-02  0.1169314E+00
         21   -1    0    0  506  501  0.00000000000E+00  0.00000000000E+00  0.33690589745E+03  0.33690589745E+03  0.00000000000E+00 0.  1.
         21   -1    0    0  504  502 -0.00000000000E+00 -0.00000000000E+00 -0.12915308899E+04  0.12915308899E+04  0.00000000000E+00 0. -1.
         21    1    1    2  503  502 -0.11811507857E+01 -0.49660027054E+02 -0.98706047210E+03  0.98830961190E+03  0.00000000000E+00 0. -1.
         21    1    1    2  504  505 -0.15459079137E+02  0.90868115053E+02  0.63160044895E+01  0.92389877009E+02  0.00000000000E+00 0. -1.
         21    1    1    2  505  501  0.42479163412E+02 -0.17882873883E+03  0.23371417034E+03  0.29733232346E+03  0.00000000000E+00 0.  1.
         21    1    1    2  506  503 -0.25838933489E+02  0.13762065083E+03 -0.20759469518E+03  0.25040497497E+03  0.00000000000E+00 0. -1.
<scales pt_clust_3="49.67407" pt_clust_4="85.27815" pt_clust_5="178.44779" pt_clust_6="14000.00000"></scales>
<clustering>
<clus scale="   49.674">  2  3  1 -1</clus>
<clus scale="   85.278">  2  4  1 -1</clus>
<clus scale="  178.448">  1  5  2 -1</clus>
<clus scale="  178.448">  1  3  2 -1</clus>
</clustering>
</event>
<event>
 6    0  0.1080632E+003  0.1629031E+03  0.7546771E-02  0.1185458E+00
         21   -1    0    0  503  501  0.00000000000E+00  0.00000000000E+00  0.99423994804E+03  0.99423994804E+03  0.00000000000E+00 0.  1.
         21   -1    0    0  504  502 -0.00000000000E+00 -0.00000000000E+00 -0.51498705947E+03  0.51498705947E+03  0.00000000000E+00 0. -1.
         21    1    1    2  503  506 -0.18246414308E+02  0.26208711407E+02  0.60346877953E+02  0.68275719457E+02  0.00000000000E+00 0. -1.
         21    1    1    2  504  505 -0.65450328247E+02 -0.11908085584E+03  0.57481649060E+03  0.59065894860E+03  0.00000000000E+00 0.  1.
         21    1    1    2  505  501  0.45167624521E+02 -0.66160341117E+02  0.32895032981E+03  0.33856406266E+03  0.00000000000E+00 0.  1.
         21    1    1    2  506  502  0.38529118034E+02  0.15903248555E+03 -0.48486080980E+03  0.51172827680E+03  0.00000000000E+00 0. -1.
<scales pt_clust_3="31.93475" pt_clust_4="14000.00000" pt_clust_5="68.64706" pt_clust_6="162.90308"></scales>
<clustering>
<clus scale="   31.935">  1  3  2 -1</clus>
<clus scale="   68.647">  1  5  2 -1</clus>
<clus scale="  162.903">  2  6  1 -1</clus>
<clus scale="   31.935">  1  3  2 -1</clus>
</clustering>
</event>
<event>
 6    0  0.1080632E+003  0.1659085E+03  0.7546771E-02  0.1182183E+00
         21   -1    0    0  506  501  0.00000000000E+00  0.00000000000E+00  0.70507102750E+02  0.70507102750E+02  0.00000000000E+00 0. -1.
         21   -1    0    0  504  502 -0.00000000000E+00 -0.00000000000E+00 -0.21987881405E+04  0.21987881405E+04  0.00000000000E+00 0.  1.
         21    1    1    2  503  501 -0.53548852080E+02 -0.15666389420E+03 -0.50007304551E+02  0.17295024086E+03  0.00000000000E+00 0. -1.
         21    1    1    2  504  503 -0.21110432620E+02 -0.31968836656E+02 -0.16420565677E+03  0.16861540439E+03  0.00000000000E+00 0. -1.
         21    1    1    2  505  502  0.27959273920E+02  0.25589334907E+02 -0.79299981423E+03  0.79390505756E+03  0.00000000000E+00 0. -1.
         21    1    1    2  506  505  0.46700010779E+02  0.16304339595E+03 -0.11210682622E+04  0.11338245404E+04  0.00000000000E+00 0.  1.
<scales pt_clust_3="165.90848" pt_clust_4="33.97467" pt_clust_5="37.90165" pt_clust_6="14000.00000"></scales>
<clustering>
<clus scale="   37.902">  2  5  1 -1</clus>
<clus scale="   33.975">  2  4  1 -1</clus>
<clus scale="  165.908">  1  3  2 -1</clus>
<clus scale="  165.908">  1  3  2 -1</clus>
</clustering>
</event>
<event>
 6    0  0.1080632E+003  0.1173026E+03  0.7546771E-02  0.1247614E+00
         21   -1    0    0  503  501  0.00000000000E+00  0.00000000000E+00  0.18149308195E+04  0.18149308195E+04  0.00000000000E+00 0.  1.
         21   -1    0    0  504  502 -0.00000000000E+00 -0.00000000000E+00 -0.29204675685E+03  0.29204675685E+03  0.00000000000E+00 0. -1.
         21    1    1    2  503  506  0.65459786927E+02 -0.97275982502E+01  0.17141406181E+04  0.17154176368E+04  0.00000000000E+00 0.  1.
         21    1    1    2  504  501 -0.15167338603E+03  0.22789152962E+02 -0.32601063253E+02  0.15680239426E+03  0.00000000000E+00 0. -1.
         21    1    1    2  505  502 -0.14279886325E+02  0.49298426157E+02 -0.70708344344E+02  0.87372306453E+02  0.00000000000E+00 0.  1.
         21    1    1    2  506  505  0.10049348543E+03 -0.62359980868E+02 -0.87947147842E+02  0.14738523888E+03  0.00000000000E+00 0. -1.
<scales pt_clust_3="66.11471" pt_clust_4="14000.00000" pt_clust_5="51.32494" pt_clust_6="117.30261"></scales>
<clustering>
<clus scale="   51.325">  2  5  1 -1</clus>
<clus scale="   66.115">  1  3  2 -1</clus>
<clus scale="  117.303">  2  6  1 -1</clus>
<clus scale="   66.115">  1  3  2 -1</clus>
</clustering>
</event>
<event>
 6    0  0.1080632E+003  0.1303482E+03  0.7546771E-02  0.1226940E+00
         21   -1    0    0  503  501  0.00000000000E+00  0.00000000000E+00  0.10496219896E+04  0.10496219896E+04  0.00000000000E+00 0. -1.
         21   -1    0    0  506  502 -0.00000000000E+00 -0.00000000000E+00 -0.72782895520E+02  0.72782895520E+02  0.00000000000E+00 0.  1.
         21    1    1    2  503  505 -0.51841689528E+02 -0.23364809021E+02  0.69757380502E+03  0.69988762564E+03  0.00000000000E+00 0. -1.
         21    1    1    2  504  502  0.72374297559E+02 -0.48184379371E+01  0.10565616391E+03  0.12815803238E+03  0.00000000000E+00 0. -1.
         21    1    1    2  505  504  0.65533474369E+02 -0.50197291588E+02  0.15617938063E+03  0.17665334211E+03  0.00000000000E+00 0. -1.
         21    1    1    2  506  501 -0.86066082399E+02  0.78380538545E+02  0.17429744496E+02  0.11770588497E+03  0.00000000000E+00 0.  1.
<scales pt_clust_3="56.86365" pt_clust_4="45.02191" pt_clust_5="45.02191" pt_clust_6="121.17682"></scales>
<clustering>
<clus scale="   45.022">  4  5 -1 -1</clus>
<clus scale="   56.864">  1  3  2 -1</clus>
<clus scale="  121.177">  2  6  1 -1</clus>
<clus scale="   56.864">  1  3  2 -1</clus>
</clustering>
</event>
<event>
 6    0  0.1080632E+003  0.1186934E+03  0.7546771E-02  0.1245268E+00
         21   -1    0    0  506  501  0.00000000000E+00  0.00000000000E+00  0.27117245712E+03  0.27117245712E+03  0.00000000000E+00 0.  1.
         21   -1    0    0  505  502 -0.00000000000E+00 -0.00000000000E+00 -0.36718728587E+03  0.36718728587E+03  0.00000000000E+00 0.  1.
         21    1    1    2  503  504 -0.73644717708E+02  0.87414789892E+02 -0.19533754551E+03  0.22632199766E+03  0.00000000000E+00 0.  1.
         21    1    1    2  504  501  0.43754656029E+02 -0.35593054539E+02  0.19379771115E+03  0.20183876809E+03  0.00000000000E+00 0.  1.
         21    1    1    2  505  503 -0.32990821723E+02  0.41334066112E+01 -0.11816728999E+03  0.12275580553E+03  0.00000000000E+00 0.  1.
         21    1    1    2  506  502  0.62880883401E+02 -0.55955141964E+02  0.23692295592E+02  0.87443171717E+02  0.00000000000E+00 0. -1.
<scales pt_clust_3="118.69344" pt_clust_4="55.94452" pt_clust_5="33.24875" pt_clust_6="14000.00000"></scales>
<clustering>
<clus scale="   33.249">  2  5  1 -1</clus>
<clus scale="   55.945">  1  4  2 -1</clus>
<clus scale="  118.693">  2  3  1 -1</clus>
<clus scale="   55.945">  1  3  2 -1</clus>
</clustering>
</event>
<event>
 6    0  0.1080632E+003  0.1339993E+03  0.7546771E-02  0.1221639E+00
         21   -1    0    0  502  501  0.00000000000E+00  0.00000000000E+00  0.38481159285E+02  0.38481159285E+02  0.00000000000E+00 0.  1.
         21   -1    0    0  506  502 -0.00000000000E+00 -0.00000000000E+00 -0.10302567234E+04  0.10302567234E+04  0.00000000000E+00 0.  1.
         21    1    1    2  503  501 -0.12184787312E+02  0.74436004792E+02 -0.59396180868E+02  0.96005698544E+02  0.00000000000E+00 0.  1.
         21    1    1    2  504  503 -0.64497090403E+02 -0.78599729797E+01 -0.22083859370E+03  0.23019847592E+03  0.00000000000E+00 0.  1.
         21    1    1    2  505  504 -0.55081764715E+02 -0.29567679049E+02 -0.11933239394E+03  0.13471625251E+03  0.00000000000E+00 0.  1.
         21    1    1    2  506  505  0.13176364243E+03 -0.37008352764E+02 -0.59220839566E+03  0.60781745576E+03  0.00000000000E+00 0.  1.
<scales pt_clust_3="75.42671" pt_clust_4="40.99326" pt_clust_5="40.99326" pt_clust_6="127.31572"></scales>
<clustering>
<clus scale="   40.993">  4  5 -1 -1</clus>
<clus scale="   75.427">  1  3  2 -1</clus>
<clus scale="  127.316">  2  6  1 -1</clus>
<clus scale="   75.427">  1  3  2 -1</clus>
</clustering>
</event>
<event>
 6    0  0.1080632E+003  0.7217032E+02  0.7546771E-02  0.1352864E+00
         21   -1    0    0  505  501  0.00000000000E+00  0.00000000000E+00  0.30742945930E+04  0.30742945930E+04  0.00000000000E+00 0. -1.
         21   -1    0    0  503  502 -0.00000000000E+00 -0.00000000000E+00 -0.19975197706E+03  0.19975197706E+03  0.00000000000E+00 0.  1.
         21    1    1    2  503  506 -0.61541352844E+02  0.37233186962E+02 -0.11108216959E+03  0.13233630160E+03  0.00000000000E+00 0.  1.
         21    1    1    2  504  501  0.41355860300E+02 -0.14752833136E+02  0.30023373796E+04  0.30026584378E+04  0.00000000000E+00 0. -1.
         21    1    1    2  505  502  0.36262870092E+02 -0.74407550702E+02 -0.17868711130E+02  0.84680400248E+02  0.00000000000E+00 0. -1.
         21    1    1    2  506  504 -0.16077377548E+02  0.51927196875E+02  0.11561171289E+01  0.54371430466E+02  0.00000000000E+00 0.  1.
<scales pt_clust_3="14000.00000" pt_clust_4="43.90846" pt_clust_5="72.17032" pt_clust_6="46.22236"></scales>
<clustering>
<clus scale="   43.908">  1  4  2 -1</clus>
<clus scale="   46.222">  1  6  2 -1</clus>
<clus scale="   72.170">  1  5  2 -1</clus>
<clus scale="   43.908">  1  3  2 -1</clus>
</clustering>
</event>
<event>
 6    0  0.1080632E+003  0.1008995E+03  0.7546771E-02  0.1278416E+00
         21   -1    0    0  503  501  0.00000000000E+00  0.00000000000E+00  0.11560603607E+03  0.11560603607E+03  0.00000000000E+00 0. -1.
         21   -1    0    0  505  502 -0.00000000000E+00 -0.00000000000E+00 -0.40095301318E+03  0.40095301318E+03  0.00000000000E+00 0. -1.
         21    1    1    2  503  506  0.31918843930E+02  0.48737596353E+02 -0.28885433931E+02  0.65027180390E+02  0.00000000000E+00 0.  1.
         21    1    1    2  504  501 -0.62027092941E+01 -0.13474856185E+03  0.20803518048E+02  0.13648602451E+03  0.00000000000E+00 0. -1.
         21    1    1    2  505  504 -0.18614677433E+02 -0.23970532694E+02 -0.23508128732E+02  0.38389123070E+02  0.00000000000E+00 0.  1.
         21    1    1    2  506  502 -0.71014572033E+01  0.10998149819E+03 -0.25375693250E+03  0.27665672128E+03  0.00000000000E+00 0. -1.
<scales pt_clust_3="54.42124" pt_clust_4="100.89952" pt_clust_5="30.34951" pt_clust_6="14000.00000"></scales>
<clustering>
<clus scale="   30.350">  2  5  1 -1</clus>
<clus scale="   54.421">  1  3  2 -1</clus>
<clus scale="  100.900">  1  4  2 -1</clus>
<clus scale="   54.421">  1  3  2 -1</clus>
</clustering>
</event>
<event>
 6    0  0.1080632E+003  0.1470551E+03  0.7546771E-02  0.1204139E+00
         21   -1    0    0  505  501  0.00000000000E+00  0.00000000000E+00  0.21394670841E+03  0.21394670841E+03  0.00000000000E+00 0.  1.
         21   -1    0    0  506  502 -0.00000000000E+00 -0.00000000000E+00 -0.90028649480E+03  0.90028649480E+03  0.00000000000E+00 0. -1.
         21    1    1    2  503  502 -0.10337067464E+03  0.30043207800E+02 -0.44719275604E+03  0.45996679420E+03  0.00000000000E+00 0. -1.
         21    1    1    2  504  503 -0.89027121864E+02 -0.74459950528E+02 -0.16810528785E+03  0.20427799799E+03  0.00000000000E+00 0.  1.
         21    1    1    2  505  504  0.14898292363E+03  0.38987879776E+02  0.15574116108E+03  0.21902345893E+03  0.00000000000E+00 0.  1.
         21    1    1    2  506  501  0.43414872874E+02  0.54288629516E+01 -0.22678290359E+03  0.23096495210E+03  0.00000000000E+00 0. -1.
<scales pt_clust_3="81.35434" pt_clust_4="147.05506" pt_clust_5="14000.00000" pt_clust_6="43.75299"></scales>
<clustering>
<clus scale="   43.753">  2  6  1 -1</clus>
<clus scale="   81.354">  2  3  1 -1</clus>
<clus scale="  147.055">  2  4  1 -1</clus>
<clus scale="  147.055">  1  3  2 -1</clus>
</clustering>
</event>
<event>
 6    0  0.1080632E+003  0.1059265E+03  0.7546771E-02  0.1268305E+00
         21   -1    0    0  504  501  0.00000000000E+00  0.00000000000E+00  0.25075105204E+03  0.25075105204E+03  0.00000000000E+00 0. -1.
         21   -1    0    0  505  502 -0.00000000000E+00 -0.00000000000E+00 -0.88946119118E+03  0.88946119118E+03  0.00000000000E+00 0. -1.
         21    1    1    2  503  502 -0.87036726175E+02  0.26032914111E+02 -0.47985883733E+03  0.48838264515E+03  0.00000000000E+00 0. -1.
         21    1    1    2  504  506  0.42268693360E+02 -0.12653506248E+02 -0.11476485181E+03  0.12295415760E+03  0.00000000000E+00 0. -1.
         21    1    1    2  505  501  0.10117818614E+02  0.52267676638E+02  0.23455238890E+03  0.24051840556E+03  0.00000000000E+00 0. -1.
         21    1    1    2  506  503  0.34650214201E+02 -0.65647084500E+02 -0.27863883889E+03  0.28835703492E+03  0.00000000000E+00 0. -1.
<scales pt_clust_3="94.11426" pt_clust_4="37.47676" pt_clust_5="53.23796" pt_clust_6="37.47676"></scales>
<clustering>
<clus scale="   37.477">  4  6 -1 -1</clus>
<clus scale="   53.238">  1  5  2 -1</clus>
<clus scale="   94.114">  2  3  1 -1</clus>
<clus scale="   53.238">  1  3  2 -1</clus>
</clustering>
</event>
<event>
 6    0  0.1080632E+003  0.1515209E+03  0.7546771E-02  0.1198616E+00
         21   -1    0    0  505  501  0.00000000000E+00  0.00000000000E+00  0.85416924532E+02  0.85416924532E+02  0.00000000000E+00 0.  1.
         21   -1    0    0  503  502 -0.00000000000E+00 -0.00000000000E+00 -0.68908136222E+03  0.68908136222E+03  0.00000000000E+00 0.  1.
         21    1    1    2  503  504 -0.43854389364E+02  0.47081844150E+02 -0.36056360136E+03  0.36625949564E+03  0.00000000000E+00 0.  1.
         21    1    1    2  504  506  0.73285360527E+02  0.45543736379E+02 -0.11630116856E+03  0.14481345862E+03  0.00000000000E+00 0.  1.
         21    1    1    2  505  502 -0.45886103474E+02 -0.14428622844E+03 -0.32813397253E+02  0.15492181657E+03  0.00000000000E+00 0.  1.
         21    1    1    2  506  501  0.16455132311E+02  0.51660647912E+02 -0.93986270513E+02  0.10850351592E+03  0.00000000000E+00 0.  1.
<scales pt_clust_3="64.34211" pt_clust_4="39.20943" pt_clust_5="143.21995" pt_clust_6="39.20943"></scales>
<clustering>
<clus scale="   39.209">  4  6 -1 -1</clus>
<clus scale="   64.342">  2  3  1 -1</clus>
<clus scale="  143.220">  1  5  2 -1</clus>
<clus scale="  143.220">  1  3  2 -1</clus>
</clustering>
</event>
<event>
 6    0  0.1080632E+003  0.1354676E+03  0.7546771E-02  0.1219561E+00
         21   -1    0    0  503  501  0.00000000000E+00  0.00000000000E+00  0.56207454961E+02  0.56207454961E+02  0.00000000000E+00 0. -1.
         21   -1    0    0  506  502 -0.00000000000E+00 -0.00000000000E+00 -0.15645968143E+04  0.15645968143E+04  0.00000000000E+00 0.  1.
         21    1    1    2  503  505  0.34776983702E+02 -0.37100784493E+02 -0.16234878268E+03  0.17012652363E+03  0.00000000000E+00 0.  1.
         21    1    1    2  504  502  0.18316211661E+02  0.13462690011E+03 -0.10556740656E+04  0.10643813314E+04  0.00000000000E+00 0.  1.
         21    1    1    2  505  504 -0.55401273328E+01 -0.70523042855E+02 -0.31747511265E+03  0.32526087950E+03  0.00000000000E+00 0.  1.
         21    1    1    2  506  501 -0.47553068030E+02 -0.27003072759E+02  0.27108601602E+02  0.61035534718E+02  0.00000000000E+00 0. -1.
<scales pt_clust_3="44.38100" pt_clust_4="124.94572" pt_clust_5="44.38100" pt_clust_6="54.68510"></scales>
<clustering>
<clus scale="   44.381">  3  5 -1 -1</clus>
<clus scale="   54.685">  1  6  2 -1</clus>
<clus scale="  124.946">  2  4  1 -1</clus>
<clus scale="   54.685">  1  3  2 -1</clus>
</clustering>
</event>
<event>
 6    0  0.1080632E+003  0.1819229E+03  0.7546771E-02  0.1165955E+00
         21   -1    0    0  503  501  0.00000000000E+00  0.00000000000E+00  0.35995359543E+03  0.35995359543E+03  0.00000000000E+00 0. -1.
         21   -1    0    0  505  502 -0.00000000000E+00 -0.00000000000E+00 -0.25297679408E+04  0.25297679408E+04  0.00000000000E+00 0.  1.
         21    1    1    2  503  502 -0.15594703634E+03 -0.11419478593E+03  0.28345869354E+03  0.34308710005E+03  0.00000000000E+00 0. -1.
         21    1    1    2  504  506  0.12299464900E+03  0.19448921850E+03 -0.41642783804E+03  0.47577923882E+03  0.00000000000E+00 0.  1.
         21    1    1    2  505  504 -0.16252843776E+02 -0.57622057304E+02 -0.20090903089E+04  0.20099821705E+04  0.00000000000E+00 0.  1.
         21    1    1    2  506  501  0.49205231109E+02 -0.22672375274E+02 -0.27754891946E+02  0.60873026834E+02  0.00000000000E+00 0. -1.
<scales pt_clust_3="14000.00000" pt_clust_4="181.92287" pt_clust_5="59.88136" pt_clust_6="54.17741"></scales>
<clustering>
<clus scale="   54.177">  1  6  2 -1</clus>
<clus scale="   59.881">  2  5  1 -1</clus>
<clus scale="  181.923">  2  4  1 -1</clus>
<clus scale="   54.177">  1  3  2 -1</clus>
</clustering>
</event>
<event>
 6    0  0.1080632E+003  0.1507793E+03  0.7546771E-02  0.1199519E+00
         21   -1    0    0  505  501  0.00000000000E+00  0.00000000000E+00  0.12013938605E+03  0.12013938605E+03  0.00000000000E+00 0. -1.
         21   -1    0    0  506  502 -0.00000000000E+00 -0.00000000000E+00 -0.23230016650E+03  0.23230016650E+03  0.00000000000E+00 0. -1.
         21    1    1    2  503  502 -0.10474423712E+02 -0.60018555259E+02 -0.28875562092E+02  0.67422092919E+02  0.00000000000E+00 0. -1.
         21    1    1    2  504  501  0.20758502796E+02  0.25012580510E+02 -0.58451382577E+01  0.33025902915E+02  0.00000000000E+00 0. -1.
         21    1    1    2  505  503  0.60455672252E+02 -0.69661746531E+02 -0.85006798170E+02  0.12543445688E+03  0.00000000000E+00 0. -1.
         21    1    1    2  506  504 -0.70739751335E+02  0.10466772128E+03  0.75667180780E+01  0.12655709984E+03  0.00000000000E+00 0. -1.
<scales pt_clust_3="54.78414" pt_clust_4="32.50453" pt_clust_5="54.78414" pt_clust_6="133.51049"></scales>
<clustering>
<clus scale="   32.505">  1  4  2 -1</clus>
<clus scale="   54.784">  3  5 -1 -1</clus>
<clus scale="  133.510">  1  6  2 -1</clus>
<clus scale="   32.505">  1  3  2 -1</clus>
</clustering>
</event>
<event>
 6    0  0.1080632E+003  0.3554794E+03  0.7546771E-02  0.1060388E+00
         21   -1    0    0  506  501  0.00000000000E+00  0.00000000000E+00  0.13980718837E+04  0.13980718837E+04  0.00000000000E+00 0.  1.
         21   -1    0    0  503  502 -0.00000000000E+00 -0.00000000000E+00 -0.12431906672E+03  0.12431906672E+03  0.00000000000E+00 0. -1.
         21    1    1    2  503  504  0.30761595667E+02 -0.62177964404E+02  0.35691370229E+02  0.78014414913E+02  0.00000000000E+00 0. -1.
         21    1    1    2  504  505 -0.99869449360E+02 -0.26784423490E+03  0.27279577807E+03  0.39513539150E+03  0.00000000000E+00 0. -1.
         21    1    1    2  505  501  0.34820663343E+02  0.29131414901E+01  0.34860457705E+03  0.35035141805E+03  0.00000000000E+00 0.  1.
         21    1    1    2  506  502  0.34287190350E+02  0.32710905781E+03  0.61666109162E+03  0.69888972595E+03  0.00000000000E+00 0.  1.
<scales pt_clust_3="61.16744" pt_clust_4="61.16744" pt_clust_5="34.94231" pt_clust_6="333.69111"></scales>
<clustering>
<clus scale="   34.942">  1  5  2 -1</clus>
<clus scale="   61.167">  3  4 -1 -1</clus>
<clus scale="  333.691">  1  6  2 -1</clus>
<clus scale="   34.942">  1  3  2 -1</clus>
</clustering>
</event>
<event>
 6    0  0.1080632E+003  0.9653176E+02  0.7546771E-02  0.1287763E+00
         21   -1    0    0  505  501  0.00000000000E+00  0.00000000000E+00  0.79619210673E+02  0.79619210673E+02  0.00000000000E+00 0.  1.
         21   -1    0    0  504  502 -0.00000000000E+00 -0.00000000000E+00 -0.45449014695E+03  0.45449014695E+03  0.00000000000E+00 0. -1.
         21    1    1    2  503  506 -0.18389347492E+01 -0.93802942810E+02 -0.32441238689E+03  0.33770663382E+03  0.00000000000E+00 0. -1.
         21    1    1    2  504  501  0.37212839936E+02  0.31379717722E+02 -0.14576466552E+02  0.50812946358E+02  0.00000000000E+00 0. -1.
         21    1    1    2  505  503 -0.65308477261E+02  0.67341820066E+02  0.58564312887E+01  0.93991572598E+02  0.00000000000E+00 0.  1.
         21    1    1    2  506  502  0.29934572074E+02 -0.49185949776E+01 -0.41738514121E+02  0.51598204842E+02  0.00000000000E+00 0. -1.
<scales pt_clust_3="96.53176" pt_clust_4="50.29173" pt_clust_5="14000.00000" pt_clust_6="30.33597"></scales>
<clustering>
<clus scale="   30.336">  2  6  1 -1</clus>
<clus scale="   50.292">  1  4  2 -1</clus>
<clus scale="   96.532">  2  3  1 -1</clus>
<clus scale="   50.292">  1  3  2 -1</clus>
</clustering>
</event>
<event>
 6    0  0.1080632E+003  0.9021178E+02  0.7546771E-02  0.1302340E+00
         21   -1    0    0  504  501  0.00000000000E+00  0.00000000000E+00  0.42854948875E+02  0.42854948875E+02  0.00000000000E+00 0. -1.
         21   -1    0    0  506  502 -0.00000000000E+00 -0.00000000000E+00 -0.60244422389E+03  0.60244422389E+03  0.00000000000E+00 0. -1.
         21    1    1    2  503  502 -0.46145615773E+02  0.13259608631E+02 -0.12467754272E+03  0.13360286201E+03  0.00000000000E+00 0. -1.
         21    1    1    2  504  505 -0.14307935134E+02  0.78103483509E+02 -0.75117947535E+02  0.10930497329E+03  0.00000000000E+00 0. -1.
         21    1    1    2  505  503  0.52463941638E+02  0.19885796494E+02 -0.19859182078E+03  0.20636526199E+03  0.00000000000E+00 0. -1.
         21    1    1    2  506  501  0.79896092690E+01 -0.11124888863E+03 -0.16120196397E+03  0.19602607548E+03  0.00000000000E+00 0. -1.
<scales pt_clust_3="48.01286" pt_clust_4="14000.00000" pt_clust_5="41.52124" pt_clust_6="90.21178"></scales>
<clustering>
<clus scale="   48.013">  2  3  1 -1</clus>
<clus scale="   41.521">  2  5  1 -1</clus>
<clus scale="   90.212">  2  6  1 -1</clus>
<clus scale="   90.212">  1  3  2 -1</clus>
</clustering>
</event>
<event>
 6    0  0.1080632E+003  0.1257324E+03  0.7546771E-02  0.1233929E+00
         21   -1    0    0  505  501  0.00000000000E+00  0.00000000000E+00  0.24825899840E+03  0.24825899840E+03  0.00000000000E+00 0. -1.
         21   -1    0    0  503  502 -0.00000000000E+00 -0.00000000000E+00 -0.17291554372E+03  0.17291554372E+03  0.00000000000E+00 0. -1.
         21    1    1    2  503  504 -0.40190672527E+02 -0.33387907866E+02 -0.23457808053E+02  0.57274002030E+02  0.00000000000E+00 0. -1.
         21    1    1    2  504  501 -0.12421421872E+03  0.40432441867E+02  0.66011765309E+02  0.14636088154E+03  0.00000000000E+00 0. -1.
         21    1    1    2  505  506  0.33764252156E+02  0.32308331408E+02  0.62365823786E+02  0.77931694313E+02  0.00000000000E+00 0.  1.
         21    1    1    2  506  502  0.13064063909E+03 -0.39352865410E+02 -0.29576326364E+02  0.13960796424E+03  0.00000000000E+00 0. -1.
<scales pt_clust_3="47.82547" pt_clust_4="125.73236" pt_clust_5="46.73171" pt_clust_6="14000.00000"></scales>
<clustering>
<clus scale="   46.732">  1  5  2 -1</clus>
<clus scale="   47.825">  2  3  1 -1</clus>
<clus scale="  125.732">  1  4  2 -1</clus>
<clus scale="   46.732">  1  3  2 -1</clus>
</clustering>
</event>
<event>
 6    0  0.1080632E+003  0.1901387E+03  0.7546771E-02  0.1158336E+00
         21   -1    0    0  502  501  0.00000000000E+00  0.00000000000E+00  0.82506481454E+02  0.82506481454E+02  0.00000000000E+00 0. -1.
         21   -1    0    0  503  502 -0.00000000000E+00 -0.00000000000E+00 -0.55909545471E+03  0.55909545471E+03  0.00000000000E+00 0. -1.
         21    1    1    2  503  505  0.38527195114E+02  0.29709452324E+02 -0.66029738721E+02  0.82017819504E+02  0.00000000000E+00 0. -1.
         21    1    1    2  504  506 -0.18059350403E+01  0.83624689519E+02 -0.44506437440E+02  0.94747944949E+02  0.00000000000E+00 0. -1.
         21    1    1    2  505  504 -0.16904282944E+02 -0.19823223369E+03 -0.24360731463E+03  0.31452551089E+03  0.00000000000E+00 0. -1.
         21    1    1    2  506  501 -0.19816977129E+02  0.84898091848E+02 -0.12244548246E+03  0.15031066082E+03  0.00000000000E+00 0. -1.
<scales pt_clust_3="48.65179" pt_clust_4="55.77799" pt_clust_5="181.21648" pt_clust_6="55.77799"></scales>
<clustering>
<clus scale="   48.652">  2  3  1 -1</clus>
<clus scale="   55.778">  4  6 -1 -1</clus>
<clus scale="  181.216">  2  5  1 -1</clus>
<clus scale="  190.139">  1  3  2 -1</clus>
</clustering>
</event>
<event>
 6    0  0.1080632E+003  0.1225365E+03  0.7546771E-02  0.1238970E+00
         21   -1    0    0  502  501  0.00000000000E+00  0.00000000000E+00  0.54077968238E+03  0.54077968238E+03  0.00000000000E+00 0.  1.
         21   -1    0    0  506  502 -0.00000000000E+00 -0.00000000000E+00 -0.10971904112E+04  0.10971904112E+04  0.00000000000E+00 0. -1.
         21    1    1    2  503  505  0.78079798157E+02  0.78174442439E+02 -0.19226641673E+03  0.22175227921E+03  0.00000000000E+00 0. -1.
         21    1    1    2  504  501 -0.42329681542E+02 -0.42200545265E+01  0.38552781686E+03  0.38786764285E+03  0.00000000000E+00 0.  1.
         21    1    1    2  505  504 -0.68858791224E+02 -0.61753779941E+02  0.12359402046E+03  0.15437144930E+03  0.00000000000E+00 0.  1.
         21    1    1    2  506  503  0.33108674609E+02 -0.12200607972E+02 -0.87326614944E+03  0.87397872224E+03  0.00000000000E+00 0. -1.
<scales pt_clust_3="122.53647" pt_clust_4="42.37353" pt_clust_5="14000.00000" pt_clust_6="35.28511"></scales>
<clustering>
<clus scale="   35.285">  2  6  1 -1</clus>
<clus scale="   42.374">  1  4  2 -1</clus>
<clus scale="  122.536">  2  3  1 -1</clus>
<clus scale="   42.374">  1  3  2 -1</clus>
</clustering>
</event>
<event>
 6    0  0.1080632E+003  0.1880427E+03  0.7546771E-02  0.1160239E+00
         21   -1    0    0  504  501  0.00000000000E+00  0.00000000000E+00  0.13450734728E+03  0.13450734728E+03  0.00000000000E+00 0. -1.
         21   -1    0    0  503  502 -0.00000000000E+00 -0.00000000000E+00 -0.83304943639E+03  0.83304943639E+03  0.00000000000E+00 0. -1.
         21    1    1    2  503  505 -0.35907767232E+02 -0.21204577990E+02 -0.69873646681E+02  0.81371545247E+02  0.00000000000E+00 0. -1.
         21    1    1    2  504  506  0.56678383754E+02 -0.87924763810E+02  0.30312584593E+02  0.10891306653E+03  0.00000000000E+00 0. -1.
         21    1    1    2  505  501  0.12820669101E+03 -0.93596383089E+02 -0.29163028825E+03  0.33203232309E+03  0.00000000000E+00 0. -1.
         21    1    1    2  506  502 -0.14897730754E+03  0.20272572489E+03 -0.36735073876E+03  0.44523984880E+03  0.00000000000E+00 0. -1.
<scales pt_clust_3="41.70134" pt_clust_4="104.54741" pt_clust_5="14000.00000" pt_clust_6="188.04271"></scales>
<clustering>
<clus scale="   41.701">  2  3  1 -1</clus>
<clus scale="  104.547">  1  4  2 -1</clus>
<clus scale="  188.043">  1  6  2 -1</clus>
<clus scale="  104.547">  1  3  2 -1</clus>
</clustering>
</event>
<event>
 6    0  0.1080632E+003  0.1455699E+03  0.7546771E-02  0.1206025E+00
         21   -1    0    0  506  501  0.00000000000E+00  0.00000000000E+00  0.22356933989E+04  0.22356933989E+04  0.00000000000E+00 0.  1.
         21   -1    0    0  504  502 -0.00000000000E+00 -0.00000000000E+00 -0.26481137873E+03  0.26481137873E+03  0.00000000000E+00 0. -1.
         21    1    1    2  503  502 -0.95749983216E+02 -0.15650930561E+03 -0.20007297108E+03  0.27146347045E+03  0.00000000000E+00 0. -1.
         21    1    1    2  504  505  0.29123627306E+02  0.21068023609E+02  0.19035986531E+01  0.35995429905E+02  0.00000000000E+00 0. -1.
         21    1    1    2  505  501  0.39331278213E+02  0.33025675180E+02  0.19397885187E+04  0.19404682790E+04  0.00000000000E+00 0.  1.
         21    1    1    2  506  503  0.27295077697E+02  0.10241560682E+03  0.22926287396E+03  0.25257759830E+03  0.00000000000E+00 0.  1.
<scales pt_clust_3="14000.00000" pt_clust_4="35.94506" pt_clust_5="51.40719" pt_clust_6="145.56985"></scales>
<clustering>
<clus scale="   35.945">  2  4  1 -1</clus>
<clus scale="   51.407">  1  5  2 -1</clus>
<clus scale="  145.570">  1  6  2 -1</clus>
<clus scale="   51.407">  1  3  2 -1</clus>
</clustering>
</event>
<event>
 6    0  0.1080632E+003  0.1366927E+03  0.7546771E-02  0.1217850E+00
         21   -1    0    0  504  501  0.00000000000E+00  0.00000000000E+00  0.30231273289E+02  0.30231273289E+02  0.00000000000E+00 0.  1.
         21   -1    0    0  503  502 -0.00000000000E+00 -0.00000000000E+00 -0.12874865074E+04  0.12874865074E+04  0.00000000000E+00 0.  1.
         21    1    1    2  503  506 -0.46286148570E+01  0.59358507369E+02 -0.60141312343E+03  0.60435304377E+03  0.00000000000E+00 0.  1.
         21    1    1    2  504  505 -0.27332360698E+02 -0.60184760869E+02 -0.14351161334E+03  0.15800267892E+03  0.00000000000E+00 0.  1.
         21    1    1    2  505  502 -0.71043021445E+02 -0.59053683790E+02 -0.26914531416E+03  0.28455869096E+03  0.00000000000E+00 0.  1.
         21    1    1    2  506  501  0.10300399700E+03  0.59879937290E+02 -0.24318518322E+03  0.27080336709E+03  0.00000000000E+00 0.  1.
<scales pt_clust_3="59.53870" pt_clust_4="34.66353" pt_clust_5="34.66353" pt_clust_6="130.40548"></scales>
<clustering>
<clus scale="   34.664">  4  5 -1 -1</clus>
<clus scale="   59.539">  2  3  1 -1</clus>
<clus scale="  130.405">  1  6  2 -1</clus>
<clus scale="  130.405">  1  3  2 -1</clus>
</clustering>
</event>
<event>
 6    0  0.1080632E+003  0.1065321E+03  0.7546771E-02  0.1267130E+00
         21   -1    0    0  505  501  0.00000000000E+00  0.00000000000E+00  0.73309532409E+03  0.73309532409E+03  0.00000000000E+00 0. -1.
         21   -1    0    0  506  502 -0.00000000000E+00 -0.00000000000E+00 -0.60391291721E+03  0.60391291721E+03  0.00000000000E+00 0. -1.
         21    1    1    2  503  502  0.26612611782E+02  0.52196215794E+02 -0.37769968998E+03  0.38221686496E+03  0.00000000000E+00 0. -1.
         21    1    1    2  504  503  0.67812643483E+02  0.71920591046E+01 -0.19727681333E+03  0.20873049947E+03  0.00000000000E+00 0. -1.
         21    1    1    2  505  504 -0.99931343708E+02 -0.17592803385E+02  0.69570422914E+03  0.70306482961E+03  0.00000000000E+00 0. -1.
         21    1    1    2  506  501  0.55060884437E+01 -0.41795471513E+02  0.84546810527E+01  0.42996047268E+02  0.00000000000E+00 0.  1.
<scales pt_clust_3="58.47819" pt_clust_4="106.53207" pt_clust_5="14000.00000" pt_clust_6="42.15659"></scales>
<clustering>
<clus scale="   42.157">  1  6  2 -1</clus>
<clus scale="   58.478">  2  3  1 -1</clus>
<clus scale="  106.532">  2  4  1 -1</clus>
<clus scale="   42.157">  1  3  2 -1</clus>
</clustering>
</event>
<event>
 6    0  0.1080632E+003  0.1049426E+03  0.7546771E-02  0.1270233E+00
         21   -1    0    0  503  501  0.00000000000E+00  0.00000000000E+00  0.80772835565E+03  0.80772835565E+03  0.00000000000E+00 0. -1.
         21   -1    0    0  506  502 -0.00000000000E+00 -0.00000000000E+00 -0.75177679983E+02  0.75177679983E+02  0.00000000000E+00 0.  1.
         21    1    1    2  503  502  0.40605032122E+02  0.58141875394E+01 -0.16282841892E+02  0.44132803564E+02  0.00000000000E+00 0.  1.
         21    1    1    2  504  505  0.11241625354E+03  0.30750953707E+02  0.18566714333E+03  0.21921524428E+03  0.00000000000E+00 0.  1.
         21    1    1    2  505  501 -0.53874254135E+02  0.28262498863E+02  0.45529783040E+03  0.45934444426E+03  0.00000000000E+00 0. -1.
         21    1    1    2  506  504 -0.99147031526E+02 -0.64827640110E+02  0.10786854383E+03  0.16021354353E+03  0.00000000000E+00 0. -1.
<scales pt_clust_3="41.01918" pt_clust_4="104.94262" pt_clust_5="59.35106" pt_clust_6="14000.00000"></scales>
<clustering>
<clus scale="   41.019">  2  3  1 -1</clus>
<clus scale="   59.351">  1  5  2 -1</clus>
<clus scale="  104.943">  1  4  2 -1</clus>
<clus scale="   59.351">  1  3  2 -1</clus>
</clustering>
</event>
<event>
 6    0  0.1080632E+003  0.2428788E+03  0.7546771E-02  0.1117890E+00
         21   -1    0    0  505  501  0.00000000000E+00  0.00000000000E+00  0.24467174427E+03  0.24467174427E+03  0.00000000000E+00 0.  1.
         21   -1    0    0  503  502 -0.00000000000E+00 -0.00000000000E+00 -0.32773263889E+03  0.32773263889E+03  0.00000000000E+00 0.  1.
         21    1    1    2  503  504 -0.15925219276E+03 -0.17052021944E+03 -0.12240742513E+03  0.26348051894E+03  0.00000000000E+00 0.  1.
         21    1    1    2  504  501  0.19966569890E+02 -0.36989660190E+02  0.35090116190E+02  0.54755959753E+02  0.00000000000E+00 0.  1.
         21    1    1    2  505  506  0.27839673212E+02  0.79592536133E+02  0.56031332540E+01  0.84506889156E+02  0.00000000000E+00 0.  1.
         21    1    1    2  506  502  0.11144594966E+03  0.12791734350E+03 -0.13467189393E+01  0.16966101530E+03  0.00000000000E+00 0.  1.
<scales pt_clust_3="238.46955" pt_clust_4="42.03450" pt_clust_5="32.47837" pt_clust_6="32.47837"></scales>
<clustering>
<clus scale="   32.478">  5  6 -1 -1</clus>
<clus scale="   42.034">  1  4  2 -1</clus>
<clus scale="  238.470">  2  3  1 -1</clus>
<clus scale="   42.034">  1  3  2 -1</clus>
</clustering>
</event>
<event>
 6    0  0.1080632E+003  0.1126777E+03  0.7546771E-02  0.1255690E+00
         21   -1    0    0  503  501  0.00000000000E+00  0.00000000000E+00  0.13136794599E+03  0.13136794599E+03  0.00000000000E+00 0. -1.
         21   -1    0    0  506  502 -0.00000000000E+00 -0.00000000000E+00 -0.26393139119E+03  0.26393139119E+03  0.00000000000E+00 0. -1.
         21    1    1    2  503  505 -0.27656084735E+02 -0.11928421823E+03 -0.80182432961E+02  0.14636531794E+03  0.00000000000E+00 0. -1.
         21    1    1    2  504  501 -0.21474407457E+01  0.39823668642E+02  0.24571163605E+02  0.46843122940E+02  0.00000000000E+00 0. -1.
         21    1    1    2  505  502 -0.49667135495E+02  0.11305903666E+02 -0.82823136958E+02  0.97233326702E+02  0.00000000000E+00 0. -1.
         21    1    1    2  506  504  0.79470660975E+02  0.68154645920E+02  0.58709611191E+01  0.10485756959E+03  0.00000000000E+00 0. -1.
<scales pt_clust_3="14000.00000" pt_clust_4="39.88153" pt_clust_5="51.84170" pt_clust_6="112.67773"></scales>
<clustering>
<clus scale="   39.882">  1  4  2 -1</clus>
<clus scale="   51.842">  2  5  1 -1</clus>
<clus scale="  112.678">  1  6  2 -1</clus>
<clus scale="   39.882">  1  3  2 -1</clus>
</clustering>
</event>
<event>
 6    0  0.1080632E+003  0.7841902E+02  0.7546771E-02  0.1333599E+00
         21   -1    0    0  506  501  0.00000000000E+00  0.00000000000E+00  0.29855654735E+03  0.29855654735E+03  0.00000000000E+00 0. -1.
         21   -1    0    0  504  502 -0.00000000000E+00 -0.00000000000E+00 -0.73037440645E+02  0.73037440645E+02  0.00000000000E+00 0. -1.
         21    1    1    2  503  501 -0.67712172704E+02 -0.15219900552E+02  0.11542719380E+03  0.13468489438E+03  0.00000000000E+00 0. -1.
         21    1    1    2  504  503 -0.51200492705E+02  0.12950832219E+02  0.22422304297E+02  0.57375728653E+02  0.00000000000E+00 0. -1.
         21    1    1    2  505  502  0.25587703272E+02 -0.39095760527E+02  0.28494316429E+01  0.46811625806E+02  0.00000000000E+00 0. -1.
         21    1    1    2  506  505  0.93324962137E+02  0.41364828861E+02  0.84820176960E+02  0.13272173915E+03  0.00000000000E+00 0. -1.
<scales pt_clust_3="78.41902" pt_clust_4="42.44395" pt_clust_5="46.72482" pt_clust_6="14000.00000"></scales>
<clustering>
<clus scale="   46.725">  2  5  1 -1</clus>
<clus scale="   42.444">  2  4  1 -1</clus>
<clus scale="   78.419">  1  3  2 -1</clus>
<clus scale="   78.419">  1  3  2 -1</clus>
</clustering>
</event>
<event>
 6    0  0.1080632E+003  0.1309868E+03  0.7546771E-02  0.1225999E+00
         21   -1    0    0  506  501  0.00000000000E+00  0.00000000000E+00  0.44562300827E+03  0.44562300827E+03  0.00000000000E+00 0. -1.
         21   -1    0    0  504  502 -0.00000000000E+00 -0.00000000000E+00 -0.41532493894E+03  0.41532493894E+03  0.00000000000E+00 0. -1.
         21    1    1    2  503  505 -0.80887996062E+02 -0.59610932661E+02 -0.16706762745E+03  0.19495620878E+03  0.00000000000E+00 0. -1.
         21    1    1    2  504  503 -0.36232457550E+02 -0.89343032461E+01 -0.19616512447E+03  0.19968317108E+03  0.00000000000E+00 0. -1.
         21    1    1    2  505  501  0.12697389813E+03  0.39793178270E+02  0.41047989765E+03  0.43150853319E+03  0.00000000000E+00 0. -1.
         21    1    1    2  506  502 -0.98534445158E+01  0.28752057637E+02 -0.16949076397E+02  0.34800034165E+02  0.00000000000E+00 0. -1.
<scales pt_clust_3="130.98683" pt_clust_4="41.62914" pt_clust_5="14000.00000" pt_clust_6="30.39360"></scales>
<clustering>
<clus scale="   30.394">  2  6  1 -1</clus>
<clus scale="   41.629">  2  4  1 -1</clus>
<clus scale="  130.987">  2  3  1 -1</clus>
<clus scale="  130.987">  1  3  2 -1</clus>
</clustering>
</event>
<event>
 6    0  0.1080632E+003  0.1011262E+03  0.7546771E-02  0.1277945E+00
         21   -1    0    0  504  501  0.00000000000E+00  0.00000000000E+00  0.57420586850E+03  0.57420586850E+03  0.00000000000E+00 0.  1.
         21   -1    0    0  505  502 -0.00000000000E+00 -0.00000000000E+00 -0.52339322618E+02  0.52339322618E+02  0.00000000000E+00 0. -1.
         21    1    1    2  503  506  0.75842189862E+02  0.37943568613E+02  0.12779545064E+03  0.15337349630E+03  0.00000000000E+00 0.  1.
         21    1    1    2  504  502 -0.21276452825E+02  0.23949424420E+02  0.17099208352E+03  0.17396710897E+03  0.00000000000E+00 0.  1.
         21    1    1    2  505  503 -0.69988652363E+02 -0.92154057649E+02  0.55721718200E+02  0.12843555458E+03  0.00000000000E+00 0. -1.
         21    1    1    2  506  501  0.15422915326E+02  0.30261064617E+02  0.16735729352E+03  0.17076903127E+03  0.00000000000E+00 0.  1.
<scales pt_clust_3="101.12617" pt_clust_4="32.03533" pt_clust_5="14000.00000" pt_clust_6="40.85536"></scales>
<clustering>
<clus scale="   32.035">  1  4  2 -1</clus>
<clus scale="   40.855">  1  6  2 -1</clus>
<clus scale="  101.126">  1  3  2 -1</clus>
<clus scale="   32.035">  1  3  2 -1</clus>
</clustering>
</event>
<event>
 6    0  0.1080632E+003  0.2804412E+03  0.7546771E-02  0.1095448E+00
         21   -1    0    0  506  501  0.00000000000E+00  0.00000000000E+00  0.76020357706E+03  0.76020357706E+03  0.00000000000E+00 0. -1.
         21   -1    0    0  504  502 -0.00000000000E+00 -0.00000000000E+00 -0.21732435756E+04  0.21732435756E+04  0.00000000000E+00 0.  1.
         21    1    1    2  503  505  0.11275711232E+03 -0.22278117276E+03  0.44216808211E+02  0.25357591258E+03  0.00000000000E+00 0.  1.
         21    1    1    2  504  503 -0.17751309681E+03  0.22011838185E+03 -0.20562285751E+04  0.20755815943E+04  0.00000000000E+00 0.  1.
         21    1    1    2  505  501  0.29927567303E+02 -0.16007052500E+02  0.16098002041E+03  0.16451884994E+03  0.00000000000E+00 0.  1.
         21    1    1    2  506  502  0.34828417190E+02  0.18669843411E+02  0.43799174788E+03  0.43977079588E+03  0.00000000000E+00 0. -1.
<scales pt_clust_3="280.44120" pt_clust_4="14000.00000" pt_clust_5="33.93943" pt_clust_6="57.23162"></scales>
<clustering>
<clus scale="   33.939">  1  5  2 -1</clus>
<clus scale="   57.232">  1  6  2 -1</clus>
<clus scale="  280.441">  1  3  2 -1</clus>
<clus scale="   33.939">  1  3  2 -1</clus>
</clustering>
</event>
<event>
 6    0  0.1080632E+003  0.6962903E+02  0.7546771E-02  0.1361359E+00
         21   -1    0    0  506  501  0.00000000000E+00  0.00000000000E+00  0.12148080429E+03  0.12148080429E+03  0.00000000000E+00 0. -1.
         21   -1    0    0  505  502 -0.00000000000E+00 -0.00000000000E+00 -0.42276933566E+03  0.42276933566E+03  0.00000000000E+00 0.  1.
         21    1    1    2  503  504  0.11390490901E+01  0.11586981428E+03 -0.78535096298E+02  0.13998168682E+03  0.00000000000E+00 0. -1.
         21    1    1    2  504  501  0.32998449713E+02 -0.40329650708E+02  0.50247778908E+01  0.52350996195E+02  0.00000000000E+00 0. -1.
         21    1    1    2  505  503  0.82748803026E+01 -0.47814228891E+02 -0.27703392078E+03  0.28125160869E+03  0.00000000000E+00 0.  1.
         21    1    1    2  506  502 -0.42412379106E+02 -0.27725934679E+02  0.49255707817E+02  0.70665848242E+02  0.00000000000E+00 0. -1.
<scales pt_clust_3="69.62903" pt_clust_4="14000.00000" pt_clust_5="48.52498" pt_clust_6="52.21035"></scales>
<clustering>
<clus scale="   48.525">  2  5  1 -1</clus>
<clus scale="   52.210">  1  6  2 -1</clus>
<clus scale="   69.629">  2  3  1 -1</clus>
<clus scale="   52.210">  1  3  2 -1</clus>
</clustering>
</event>
<event>
 6    0  0.1080632E+003  0.1045045E+03  0.7546771E-02  0.1271099E+00
         21   -1    0    0  506  501  0.00000000000E+00  0.00000000000E+00  0.20368413377E+03  0.20368413377E+03  0.00000000000E+00 0. -1.
         21   -1    0    0  503  502 -0.00000000000E+00 -0.00000000000E+00 -0.13905865263E+03  0.13905865263E+03  0.00000000000E+00 0. -1.
         21    1    1    2  503  505 -0.88745961414E+02  0.69243065275E+02  0.30361682791E+01  0.11260402335E+03  0.00000000000E+00 0. -1.
         21    1    1    2  504  502 -0.34687339684E+01 -0.34922689143E+02 -0.43572662464E+02  0.55948219333E+02  0.00000000000E+00 0. -1.
         21    1    1    2  505  501  0.10257047111E+02  0.29888785761E+02  0.41476469109E+02  0.52142535607E+02  0.00000000000E+00 0. -1.
         21    1    1    2  506  504  0.81957648272E+02 -0.64209161894E+02  0.63685506222E+02  0.12204800811E+03  0.00000000000E+00 0. -1.
<scales pt_clust_3="104.50452" pt_clust_4="33.88259" pt_clust_5="31.59979" pt_clust_6="14000.00000"></scales>
<clustering>
<clus scale="   31.600">  1  5  2 -1</clus>
<clus scale="   33.883">  2  4  1 -1</clus>
<clus scale="  104.505">  2  3  1 -1</clus>
<clus scale="   31.600">  1  3  2 -1</clus>
</clustering>
</event>
<event>
 6    0  0.1080632E+003  0.1030409E+03  0.7546771E-02  0.1274028E+00
         21   -1    0    0  504  501  0.00000000000E+00  0.00000000000E+00  0.62330196337E+03  0.62330196337E+03  0.00000000000E+00 0.  1.
         21   -1    0    0  503  502 -0.00000000000E+00 -0.00000000000E+00 -0.94388522331E+02  0.94388522331E+02  0.00000000000E+00 0.  1.
         21    1    1    2  503  505  0.39122618892E+02  0.12110216118E+02 -0.50313792692E+02  0.64874605035E+02  0.00000000000E+00 0.  1.
         21    1    1    2  504  502 -0.28404124735E+02 -0.50401356189E+02  0.24531699509E+03  0.25204666053E+03  0.00000000000E+00 0.  1.
         21    1    1    2  505  506  0.85017581111E+02  0.14079614329E+02  0.48782010195E+02  0.99024790614E+02  0.00000000000E+00 0.  1.
         21    1    1    2  506  501 -0.95736075268E+02  0.24211525742E+02  0.28512822845E+03  0.30174442952E+03  0.00000000000E+00 0.  1.
<scales pt_clust_3="40.95408" pt_clust_4="55.19271" pt_clust_5="103.04089" pt_clust_6="14000.00000"></scales>
<clustering>
<clus scale="   40.954">  2  3  1 -1</clus>
<clus scale="   55.193">  1  4  2 -1</clus>
<clus scale="  103.041">  2  5  1 -1</clus>
<clus scale="   55.193">  1  3  2 -1</clus>
</clustering>
</event>
<event>
 6    0  0.1080632E+003  0.1174824E+03  0.7546771E-02  0.1247309E+00
         21   -1    0    0  505  501  0.00000000000E+00  0.00000000000E+00  0.46053201338E+02  0.46053201338E+02  0.00000000000E+00 0. -1.
         21   -1    0    0  503  502 -0.00000000000E+00 -0.00000000000E+00 -0.44614653260E+03  0.44614653260E+03  0.00000000000E+00 0. -1.
         21    1    1    2  503  504  0.45464758200E+02  0.75499794260E+02 -0.14036277640E+03  0.16573766069E+03  0.00000000000E+00 0. -1.
         21    1    1    2  504  501 -0.73003552078E+01  0.50271992066E+02 -0.79240130282E+02  0.94125270887E+02  0.00000000000E+00 0. -1.
         21    1    1    2  505  506  0.14385949872E+01 -0.39971927966E+02 -0.16916012671E+02  0.43427825936E+02  0.00000000000E+00 0. -1.
         21    1    1    2  506  502 -0.39602997979E+02 -0.85799858359E+02 -0.16357441192E+03  0.18890897643E+03  0.00000000000E+00 0. -1.
<scales pt_clust_3="34.19179" pt_clust_4="34.19179" pt_clust_5="39.99781" pt_clust_6="108.50746"></scales>
<clustering>
<clus scale="   34.192">  3  4 -1 -1</clus>
<clus scale="   39.998">  1  5  2 -1</clus>
<clus scale="  108.507">  2  6  1 -1</clus>
<clus scale="   39.998">  1  3  2 -1</clus>
</clustering>
</event>
<event>
 6    0  0.1080632E+003  0.1611783E+03  0.7546771E-02  0.1187373E+00
         21   -1    0    0  503  501  0.00000000000E+00  0.00000000000E+00  0.22534572514E+03  0.22534572514E+03  0.00000000000E+00 0. -1.
         21   -1    0    0  505  502 -0.00000000000E+00 -0.00000000000E+00 -0.47784949903E+03  0.47784949903E+03  0.00000000000E+00 0.  1.
         21    1    1    2  503  504 -0.10439393353E+03  0.10481931736E+03  0.14253680427E+03  0.20543106684E+03  0.00000000000E+00 0. -1.
         21    1    1    2  504  506  0.85267567962E+02 -0.49050447114E+02 -0.59468677537E+02  0.11494793655E+03  0.00000000000E+00 0.  1.
         21    1    1    2  505  501 -0.42858418113E+02  0.22811159319E+02 -0.23849181492E+03  0.24338352200E+03  0.00000000000E+00 0.  1.
         21    1    1    2  506  502  0.61984783682E+02 -0.78580029566E+02 -0.97080085696E+02  0.13943269880E+03  0.00000000000E+00 0.  1.
<scales pt_clust_3="154.10795" pt_clust_4="46.80802" pt_clust_5="48.55093" pt_clust_6="46.80802"></scales>
<clustering>
<clus scale="   46.808">  4  6 -1 -1</clus>
<clus scale="   48.551">  2  5  1 -1</clus>
<clus scale="  154.108">  1  3  2 -1</clus>
<clus scale="  154.108">  1  3  2 -1</clus>
</clustering>
</event>
<event>
 6    0  0.1080632E+003  0.1687871E+03  0.7546771E-02  0.1179119E+00
         21   -1    0    0  506  501  0.00000000000E+00  0.00000000000E+00  0.16392306403E+04  0.16392306403E+04  0.00000000000E+00 0. -1.
         21   -1    0    0  501  502 -0.00000000000E+00 -0.00000000000E+00 -0.62938523349E+02  0.62938523349E+02  0.00000000000E+00 0.  1.
         21    1    1    2  503  504 -0.10014689242E+02 -0.68411273451E+02  0.19791397198E+02  0.71917284007E+02  0.00000000000E+00 0.  1.
         21    1    1    2  504  502 -0.24000938778E+02 -0.99028451226E+02  0.80729206885E+02  0.12999955407E+03  0.00000000000E+00 0.  1.
         21    1    1    2  505  503  0.12893408287E+02  0.14545561406E+03  0.43156046956E+03  0.45559632848E+03  0.00000000000E+00 0. -1.
         21    1    1    2  506  505  0.21122219733E+02  0.21984110615E+02  0.10442110433E+04  0.10446559971E+04  0.00000000000E+00 0. -1.
<scales pt_clust_3="31.90956" pt_clust_4="31.90956" pt_clust_5="164.36599" pt_clust_6="30.48687"></scales>
<clustering>
<clus scale="   30.487">  1  6  2 -1</clus>
<clus scale="   31.910">  3  4 -1 -1</clus>
<clus scale="  164.366">  1  5  2 -1</clus>
<clus scale="   30.487">  1  3  2 -1</clus>
</clustering>
</event>
<event>
 6    0  0.1080632E+003  0.1110737E+03  0.7546771E-02  0.1258594E+00
         21   -1    0    0  504  501  0.00000000000E+00  0.00000000000E+00  0.35262957257E+03  0.35262957257E+03  0.00000000000E+00 0. -1.
         21   -1    0    0  503  502 -0.00000000000E+00 -0.00000000000E+00 -0.96878779578E+02  0.96878779578E+02  0.00000000000E+00 0. -1.
         21    1    1    2  503  506  0.82238959238E+02  0.13723432719E+01  0.60595707017E+02  0.10216148712E+03  0.00000000000E+00 0. -1.
         21    1    1    2  504  505 -0.42084892933E+02 -0.27513958068E+02  0.14945307024E+03  0.15768441999E+03  0.00000000000E+00 0. -1.
         21    1    1    2  505  502 -0.92803674996E+02 -0.92750816650E+01 -0.23082805106E+02  0.96079993361E+02  0.00000000000E+00 0. -1.
         21    1    1    2  506  501  0.52649608690E+02  0.35416696462E+02  0.68784820832E+02  0.93582451669E+02  0.00000000000E+00 0. -1.
<scales pt_clust_3="39.55425" pt_clust_4="50.28077" pt_clust_5="101.53497" pt_clust_6="39.55425"></scales>
<clustering>
<clus scale="   39.554">  3  6 -1 -1</clus>
<clus scale="   50.281">  1  4  2 -1</clus>
<clus scale="  101.535">  2  5  1 -1</clus>
<clus scale="   50.281">  1  3  2 -1</clus>
</clustering>
</event>
<event>
 6    0  0.1080632E+003  0.1800845E+03  0.7546771E-02  0.1167721E+00
         21   -1    0    0  503  501  0.00000000000E+00  0.00000000000E+00  0.42435681138E+03  0.42435681138E+03  0.00000000000E+00 0. -1.
         21   -1    0    0  505  502 -0.00000000000E+00 -0.00000000000E+00 -0.10488597457E+03  0.10488597457E+03  0.00000000000E+00 0. -1.
         21    1    1    2  503  506 -0.89278271445E+02  0.79018942958E+02  0.41933487604E+02  0.12638441550E+03  0.00000000000E+00 0. -1.
         21    1    1    2  504  501  0.43442350903E+02 -0.24367611641E+02  0.11226418658E+03  0.12281801959E+03  0.00000000000E+00 0. -1.
         21    1    1    2  505  504  0.60825357468E+02 -0.13300901179E+03  0.10924990741E+03  0.18255591910E+03  0.00000000000E+00 0. -1.
         21    1    1    2  506  502 -0.14989436926E+02  0.78357680477E+02  0.56023255222E+02  0.97484431755E+02  0.00000000000E+00 0.  1.
<scales pt_clust_3="57.76440" pt_clust_4="49.80982" pt_clust_5="165.97545" pt_clust_6="57.76440"></scales>
<clustering>
<clus scale="   49.810">  1  4  2 -1</clus>
<clus scale="   57.764">  3  6 -1 -1</clus>
<clus scale="  165.975">  2  5  1 -1</clus>
<clus scale="   49.810">  1  3  2 -1</clus>
</clustering>
</event>
<event>
 6    0  0.1080632E+003  0.1552583E+03  0.7546771E-02  0.1194157E+00
         21   -1    0    0  503  501  0.00000000000E+00  0.00000000000E+00  0.90863802122E+03  0.90863802122E+03  0.00000000000E+00 0.  1.
         21   -1    0    0  505  502 -0.00000000000E+00 -0.00000000000E+00 -0.54516055115E+03  0.54516055115E+03  0.00000000000E+00 0.  1.
         21    1    1    2  503  506 -0.76760237160E+02 -0.10491840754E+03 -0.41754049663E+02  0.13654086170E+03  0.00000000000E+00 0. -1.
         21    1    1    2  504  501 -0.15377559328E+03 -0.17223989198E+01  0.78369967736E+03  0.79864578133E+03  0.00000000000E+00 0.  1.
         21    1    1    2  505  504  0.23245741832E+03  0.17607329154E+02 -0.35803802283E+03  0.42724430384E+03  0.00000000000E+00 0.  1.
         21    1    1    2  506  502 -0.19215878747E+01  0.89033477309E+02 -0.20430134797E+02  0.91367625501E+02  0.00000000000E+00 0.  1.
<scales pt_clust_3="117.52851" pt_clust_4="155.25829" pt_clust_5="14000.00000" pt_clust_6="89.05421"></scales>
<clustering>
<clus scale="   89.054">  2  6  1 -1</clus>
<clus scale="  117.529">  2  3  1 -1</clus>
<clus scale="  155.258">  1  4  2 -1</clus>
<clus scale="  155.258">  1  3  2 -1</clus>
</clustering>
</event>
<event>
 6    0  0.1080632E+003  0.8946467E+02  0.7546771E-02  0.1304153E+00
         21   -1    0    0  504  501  0.00000000000E+00  0.00000000000E+00  0.15200925894E+04  0.15200925894E+04  0.00000000000E+00 0.  1.
         21   -1    0    0  506  502 -0.00000000000E+00 -0.00000000000E+00 -0.10240113168E+03  0.10240113168E+03  0.00000000000E+00 0. -1.
         21    1    1    2  503  505  0.41903642307E+01 -0.73020765061E+02  0.10862899690E+03  0.13095743679E+03  0.00000000000E+00 0.  1.
         21    1    1    2  504  503  0.88268139205E+02  0.34327681617E+02  0.13267762532E+04  0.13301522019E+04  0.00000000000E+00 0.  1.
         21    1    1    2  505  502 -0.35982819890E+02  0.11576758723E+02 -0.70151108203E+02  0.79686652909E+02  0.00000000000E+00 0. -1.
         21    1    1    2  506  501 -0.56475683545E+02  0.27116324721E+02  0.52437315860E+02  0.81697429537E+02  0.00000000000E+00 0. -1.
<scales pt_clust_3="69.10903" pt_clust_4="89.46467" pt_clust_5="37.79927" pt_clust_6="14000.00000"></scales>
<clustering>
<clus scale="   37.799">  2  5  1 -1</clus>
<clus scale="   69.109">  2  3  1 -1</clus>
<clus scale="   89.465">  1  4  2 -1</clus>
<clus scale="   89.465">  1  3  2 -1</clus>
</clustering>
</event>
<event>
 6    0  0.1080632E+003  0.5538398E+02  0.7546771E-02  0.1418292E+00
         21   -1    0    0  503  501  0.00000000000E+00  0.00000000000E+00  0.89848371364E+03  0.89848371364E+03  0.00000000000E+00 0.  1.
         21   -1    0    0  505  502 -0.00000000000E+00 -0.00000000000E+00 -0.23574372971E+03  0.23574372971E+03  0.00000000000E+00 0.  1.
         21    1    1    2  503  504  0.24535689379E+02  0.48375753138E+02  0.78984137745E+03  0.79170172103E+03  0.00000000000E+00 0.  1.
         21    1    1    2  504  502  0.36883389708E+02  0.57829858014E+02 -0.17497241883E+03  0.18793622393E+03  0.00000000000E+00 0.  1.
         21    1    1    2  505  506  0.99953929056E+01 -0.42627668593E+02 -0.70135874991E+01  0.44342038955E+02  0.00000000000E+00 0. -1.
         21    1    1    2  506  501 -0.71414471993E+02 -0.63577942559E+02  0.54884612813E+02  0.11024745944E+03  0.00000000000E+00 0. -1.
<scales pt_clust_3="55.38398" pt_clust_4="50.13159" pt_clust_5="43.78386" pt_clust_6="14000.00000"></scales>
<clustering>
<clus scale="   43.784">  2  5  1 -1</clus>
<clus scale="   50.132">  2  4  1 -1</clus>
<clus scale="   55.384">  1  3  2 -1</clus>
<clus scale="   55.384">  1  3  2 -1</clus>
</clustering>
</event>
<event>
 6    0  0.1080632E+003  0.1169803E+03  0.7546771E-02  0.1248163E+00
         21   -1    0    0  505  501  0.00000000000E+00  0.00000000000E+00  0.14986721015E+04  0.14986721015E+04  0.00000000000E+00 0. -1.
         21   -1    0    0  503  502 -0.00000000000E+00 -0.00000000000E+00 -0.55345292035E+02  0.55345292035E+02  0.00000000000E+00 0. -1.
         21    1    1    2  503  506  0.32727180979E+02  0.12060181748E+03  0.35139432917E+02  0.12981004006E+03  0.00000000000E+00 0. -1.
         21    1    1    2  504  502 -0.24091991008E+02 -0.74922223523E+02  0.39232641606E+03  0.40014220015E+03  0.00000000000E+00 0. -1.
         21    1    1    2  505  504  0.32563832378E+02 -0.64358519304E+02  0.81441476242E+03  0.81760248742E+03  0.00000000000E+00 0. -1.
         21    1    1    2  506  501 -0.41199022349E+02  0.18678925347E+02  0.20144619805E+03  0.20646266588E+03  0.00000000000E+00 0. -1.
<scales pt_clust_3="14000.00000" pt_clust_4="116.98025" pt_clust_5="52.99822" pt_clust_6="45.23562"></scales>
<clustering>
<clus scale="   45.236">  1  6  2 -1</clus>
<clus scale="   52.998">  1  5  2 -1</clus>
<clus scale="  116.980">  1  4  2 -1</clus>
<clus scale="   45.236">  1  3  2 -1</clus>
</clustering>
</event>
<event>
 6    0  0.1080632E+003  0.1331037E+03  0.7546771E-02  0.1222922E+00
         21   -1    0    0  504  501  0.00000000000E+00  0.00000000000E+00  0.30981151112E+03  0.30981151112E+03  0.00000000000E+00 0. -1.
         21   -1    0    0  503  502 -0.00000000000E+00 -0.00000000000E+00 -0.28161540500E+03  0.28161540500E+03  0.00000000000E+00 0.  1.
         21    1    1    2  503  506 -0.86255455776E+02 -0.93683103484E+02 -0.23710075084E+03  0.26913434114E+03  0.00000000000E+00 0.  1.
         21    1    1    2  504  505  0.62503048540E+02  0.32680976600E+02  0.11847032883E+03  0.13787637985E+03  0.00000000000E+00 0. -1.
         21    1    1    2  505  502  0.54201800798E+02  0.49418681539E+02  0.71890652883E+02  0.10270495249E+03  0.00000000000E+00 0. -1.
         21    1    1    2  506  501 -0.30449393562E+02  0.11583445346E+02  0.74935875252E+02  0.81711242642E+02  0.00000000000E+00 0. -1.
<scales pt_clust_3="128.19863" pt_clust_4="33.48753" pt_clust_5="33.48753" pt_clust_6="32.57824"></scales>
<clustering>
<clus scale="   32.578">  1  6  2 -1</clus>
<clus scale="   33.488">  4  5 -1 -1</clus>
<clus scale="  128.199">  2  3  1 -1</clus>
<clus scale="   32.578">  1  3  2 -1</clus>
</clustering>
</event>
<event>
 6    0  0.1080632E+003  0.1234421E+03  0.7546771E-02  0.1237524E+00
         21   -1    0    0  506  501  0.00000000000E+00  0.00000000000E+00  0.62177522687E+03  0.62177522687E+03  0.00000000000E+00 0. -1.
         21   -1    0    0  504  502 -0.00000000000E+00 -0.00000000000E+00 -0.47681253174E+02  0.47681253174E+02  0.00000000000E+00 0. -1.
         21    1    1    2  503  501 -0.55384392676E+02  0.98717158775E+02  0.21898538188E+03  0.24650984943E+03  0.00000000000E+00 0. -1.
         21    1    1    2  504  503  0.12031804055E+03 -0.69926986124E+02  0.15657300780E+03  0.20947868875E+03  0.00000000000E+00 0. -1.
         21    1    1    2  505  502 -0.32222378320E+02 -0.21866951049E+02  0.64666269514E+02  0.75486234677E+02  0.00000000000E+00 0. -1.
         21    1    1    2  506  505 -0.32711269550E+02 -0.69232216012E+01  0.13386931450E+03  0.13798170719E+03  0.00000000000E+00 0.  1.
<scales pt_clust_3="123.44214" pt_clust_4="14000.00000" pt_clust_5="78.43586" pt_clust_6="30.82904"></scales>
<clustering>
<clus scale="   30.829">  5  6 -1 -1</clus>
<clus scale="   78.436">  1  5  2 -1</clus>
<clus scale="  123.442">  1  3  2 -1</clus>
<clus scale="   78.436">  1  3  2 -1</clus>
</clustering>
</event>
<event>
 6    0  0.1080632E+003  0.1513529E+03  0.7546771E-02  0.1198820E+00
         21   -1    0    0  506  501  0.00000000000E+00  0.00000000000E+00  0.11419545625E+04  0.11419545625E+04  0.00000000000E+00 0.  1.
         21   -1    0    0  503  502 -0.00000000000E+00 -0.00000000000E+00 -0.42018101914E+02  0.42018101914E+02  0.00000000000E+00 0.  1.
         21    1    1    2  503  504  0.33452947704E+02  0.26488819626E+02  0.72310588417E+02  0.83961767922E+02  0.00000000000E+00 0.  1.
         21    1    1    2  504  505 -0.23093782944E+01  0.14275177088E+03  0.19534677666E+03  0.24195818745E+03  0.00000000000E+00 0.  1.
         21    1    1    2  505  501 -0.69425590009E+01 -0.69345714245E+02  0.60018135385E+03  0.60421410503E+03  0.00000000000E+00 0.  1.
         21    1    1    2  506  502 -0.24201010409E+02 -0.99894876264E+02  0.23209774169E+03  0.25383860405E+03  0.00000000000E+00 0.  1.
<scales pt_clust_3="38.54500" pt_clust_4="38.54500" pt_clust_5="69.69238" pt_clust_6="133.92782"></scales>
<clustering>
<clus scale="   38.545">  3  4 -1 -1</clus>
<clus scale="   69.692">  1  5  2 -1</clus>
<clus scale="  133.928">  2  6  1 -1</clus>
<clus scale="   69.692">  1  3  2 -1</clus>
</clustering>
</event>
<event>
 6    0  0.1080632E+003  0.2452500E+03  0.7546771E-02  0.1116344E+00
         21   -1    0    0  505  501  0.00000000000E+00  0.00000000000E+00  0.54219668511E+03  0.54219668511E+03  0.00000000000E+00 0.  1.
         21   -1    0    0  504  502 -0.00000000000E+00 -0.00000000000E+00 -0.27084345647E+03  0.27084345647E+03  0.00000000000E+00 0. -1.
         21    1    1    2  503  501 -0.17443311854E+01 -0.49292144035E+02  0.24430712940E+03  0.24923629677E+03  0.00000000000E+00 0. -1.
         21    1    1    2  504  503 -0.13459468752E+03 -0.19464274959E+03 -0.63925023990E+02  0.24512841241E+03  0.00000000000E+00 0. -1.
         21    1    1    2  505  506 -0.14184058648E+02  0.31673144124E+02  0.40981292159E+02  0.53701414185E+02  0.00000000000E+00 0.  1.
         21    1    1    2  506  502  0.15052307735E+03  0.21226174950E+03  0.49989831070E+02  0.26497401821E+03  0.00000000000E+00 0.  1.
<scales pt_clust_3="34.63864" pt_clust_4="245.25002" pt_clust_5="34.70411" pt_clust_6="14000.00000"></scales>
<clustering>
<clus scale="   34.704">  1  5  2 -1</clus>
<clus scale="   34.639">  1  3  2 -1</clus>
<clus scale="  245.250">  2  4  1 -1</clus>
<clus scale="   34.704">  1  3  2 -1</clus>
</clustering>
</event>
<event>
 6    0  0.1080632E+003  0.2075980E+03  0.7546771E-02  0.1143482E+00
         21   -1    0    0  504  501  0.00000000000E+00  0.00000000000E+00  0.63626615193E+03  0.63626615193E+03  0.00000000000E+00 0.  1.
         21   -1    0    0  506  502 -0.00000000000E+00 -0.00000000000E+00 -0.43325638897E+03  0.43325638897E+03  0.00000000000E+00 0. -1.
         21    1    1    2  503  502  0.31061682384E+02  0.48759500869E+02 -0.29138884749E+02  0.64740957993E+02  0.00000000000E+00 0.  1.
         21    1    1    2  504  505 -0.20898940502E+03  0.33490900873E+02  0.55821612637E+03  0.59699535642E+03  0.00000000000E+00 0.  1.
         21    1    1    2  505  503  0.53736138138E+02  0.69678936591E+01 -0.78732273191E+01  0.54755016140E+02  0.00000000000E+00 0. -1.
         21    1    1    2  506  501  0.12419158450E+03 -0.89218295401E+02 -0.31819425134E+03  0.35303121035E+03  0.00000000000E+00 0. -1.
<scales pt_clust_3="113.61950" pt_clust_4="14000.00000" pt_clust_5="49.48986" pt_clust_6="207.59800"></scales>
<clustering>
<clus scale="   49.490">  3  5 -1 -1</clus>
<clus scale="  113.620">  2  3  1 -1</clus>
<clus scale="  207.598">  2  6  1 -1</clus>
<clus scale="  207.598">  1  3  2 -1</clus>
</clustering>
</event>
<event>
 6    0  0.1080632E+003  0.2457212E+03  0.7546771E-02  0.1116039E+00
         21   -1    0    0  502  501  0.00000000000E+00  0.00000000000E+00  0.60847577358E+03  0.60847577358E+03  0.00000000000E+00 0. -1.
         21   -1    0    0  503  502 -0.00000000000E+00 -0.00000000000E+00 -0.14683653695E+04  0.14683653695E+04  0.00000000000E+00 0.  1.
         21    1    1    2  503  505  0.62684456551E+02  0.11801417224E+02 -0.13408938651E+04  0.13424101355E+04  0.00000000000E+00 0.  1.
         21    1    1    2  504  506 -0.13431556781E+03 -0.16951295895E+03  0.42960272413E+03  0.48097174094E+03  0.00000000000E+00 0. -1.
         21    1    1    2  505  504  0.10851306263E+03  0.16599847629E+03  0.11736572419E+02  0.19866636863E+03  0.00000000000E+00 0.  1.
         21    1    1    2  506  501 -0.36881951372E+02 -0.82869345648E+01  0.39664972593E+02  0.54792898009E+02  0.00000000000E+00 0.  1.
<scales pt_clust_3="63.78569" pt_clust_4="32.14036" pt_clust_5="233.38532" pt_clust_6="32.14036"></scales>
<clustering>
<clus scale="   32.140">  4  6 -1 -1</clus>
<clus scale="   63.786">  2  3  1 -1</clus>
<clus scale="  233.385">  2  5  1 -1</clus>
<clus scale="  245.721">  1  3  2 -1</clus>
</clustering>
</event>
<event>
 6    0  0.1080632E+003  0.1846429E+03  0.7546771E-02  0.1163384E+00
         21   -1    0    0  503  501  0.00000000000E+00  0.00000000000E+00  0.16783213905E+03  0.16783213905E+03  0.00000000000E+00 0.  1.
         21   -1    0    0  504  502 -0.00000000000E+00 -0.00000000000E+00 -0.44912501091E+03  0.44912501091E+03  0.00000000000E+00 0. -1.
         21    1    1    2  503  506 -0.90212054832E+02 -0.38670972051E+02  0.62899650356E+01  0.98352542298E+02  0.00000000000E+00 0.  1.
         21    1    1    2  504  501 -0.17492082168E+02  0.24397569188E+02  0.37151781235E+02  0.47764727255E+02  0.00000000000E+00 0.  1.
         21    1    1    2  505  502  0.15987043809E+03  0.81276564652E+02 -0.34015169114E+03  0.38453557692E+03  0.00000000000E+00 0. -1.
         21    1    1    2  506  505 -0.52166301088E+02 -0.67003161789E+02  0.15417073008E+02  0.86304303479E+02  0.00000000000E+00 0.  1.
<scales pt_clust_3="42.10481" pt_clust_4="30.02023" pt_clust_5="178.61881" pt_clust_6="42.10481"></scales>
<clustering>
<clus scale="   30.020">  1  4  2 -1</clus>
<clus scale="   42.105">  3  6 -1 -1</clus>
<clus scale="  178.619">  2  5  1 -1</clus>
<clus scale="   30.020">  1  3  2 -1</clus>
</clustering>
</event>
<event>
 6    0  0.1080632E+003  0.9664835E+02  0.7546771E-02  0.1287506E+00
         21   -1    0    0  503  501  0.00000000000E+00  0.00000000000E+00  0.13797797524E+04  0.13797797524E+04  0.00000000000E+00 0.  1.
         21   -1    0    0  504  502 -0.00000000000E+00 -0.00000000000E+00 -0.24652074051E+02  0.24652074051E+02  0.00000000000E+00 0.  1.
         21    1    1    2  503  505  0.88685547353E+02  0.56350150171E+02  0.99506925654E+03  0.10006014646E+04  0.00000000000E+00 0.  1.
         21    1    1    2  504  506 -0.45822605645E+01 -0.30414287757E+02  0.48172881349E+02  0.57154636812E+02  0.00000000000E+00 0.  1.
         21    1    1    2  505  502 -0.90942905212E+02  0.54668531718E+01  0.11272830386E+03  0.14494195039E+03  0.00000000000E+00 0.  1.
         21    1    1    2  506  501  0.68396184233E+01 -0.31402715586E+02  0.19915723657E+03  0.20173377458E+03  0.00000000000E+00 0.  1.
<scales pt_clust_3="96.64835" pt_clust_4="30.75754" pt_clust_5="14000.00000" pt_clust_6="33.98273"></scales>
<clustering>
<clus scale="   30.758">  2  4  1 -1</clus>
<clus scale="   33.983">  1  6  2 -1</clus>
<clus scale="   96.648">  1  3  2 -1</clus>
<clus scale="   33.983">  1  3  2 -1</clus>
</clustering>
</event>
<event>
 6    0  0.1080632E+003  0.9595308E+02  0.7546771E-02  0.1289044E+00
         21   -1    0    0  506  501  0.00000000000E+00  0.00000000000E+00  0.45637171867E+03  0.45637171867E+03  0.00000000000E+00 0.  1.
         21   -1    0    0  504  502 -0.00000000000E+00 -0.00000000000E+00 -0.20927066422E+04  0.20927066422E+04  0.00000000000E+00 0.  1.
         21    1    1    2  503  502  0.55557092102E+02  0.46650427623E+02 -0.31421071473E+02  0.79057805515E+02  0.00000000000E+00 0.  1.
         21    1    1    2  504  505  0.25605964773E+02  0.31944941527E+02 -0.20127500260E+04  0.20131663646E+04  0.00000000000E+00 0.  1.
         21    1    1    2  505  501 -0.85679025880E+02  0.29722807456E+02  0.12903097447E+03  0.15771281854E+03  0.00000000000E+00 0.  1.
         21    1    1    2  506  503  0.45159690051E+01 -0.10831817661E+03  0.27880519939E+03  0.29914137221E+03  0.00000000000E+00 0.  1.
<scales pt_clust_3="14000.00000" pt_clust_4="40.94075" pt_clust_5="88.49288" pt_clust_6="95.95308"></scales>
<clustering>
<clus scale="   40.941">  2  4  1 -1</clus>
<clus scale="   88.493">  1  5  2 -1</clus>
<clus scale="   95.953">  1  6  2 -1</clus>
<clus scale="   88.493">  1  3  2 -1</clus>
</clustering>
</event>
<event>
 6    0  0.1080632E+003  0.1286592E+03  0.7546771E-02  0.1229459E+00
         21   -1    0    0  503  501  0.00000000000E+00  0.00000000000E+00  0.71764408548E+02  0.71764408548E+02  0.00000000000E+00 0.  1.
         21   -1    0    0  504  502 -0.00000000000E+00 -0.00000000000E+00 -0.10811809795E+04  0.10811809795E+04  0.00000000000E+00 0.  1.
         21    1    1    2  503  505  0.12606249504E+02  0.29799288943E+02  0.15715092002E+02  0.35970533283E+02  0.00000000000E+00 0.  1.
         21    1    1    2  504  506 -0.24863411610E+02 -0.44071598479E+02 -0.61990423824E+02  0.80020670300E+02  0.00000000000E+00 0.  1.
         21    1    1    2  505  502  0.27884754727E+02  0.11161465941E+03 -0.92359023045E+03  0.93072783644E+03  0.00000000000E+00 0.  1.
         21    1    1    2  506  501 -0.15627592621E+02 -0.97342349873E+02 -0.39551008700E+02  0.10622634805E+03  0.00000000000E+00 0.  1.
<scales pt_clust_3="32.35607" pt_clust_4="39.96516" pt_clust_5="117.53008" pt_clust_6="39.96516"></scales>
<clustering>
<clus scale="   32.356">  1  3  2 -1</clus>
<clus scale="   39.965">  4  6 -1 -1</clus>
<clus scale="  117.530">  2  5  1 -1</clus>
<clus scale="   32.356">  1  3  2 -1</clus>
</clustering>
</event>
<event>
 6    0  0.1080632E+003  0.1139122E+03  0.7546771E-02  0.1253492E+00
         21   -1    0    0  506  501  0.00000000000E+00  0.00000000000E+00  0.96909612642E+02  0.96909612642E+02  0.00000000000E+00 0. -1.
         21   -1    0    0  503  502 -0.00000000000E+00 -0.00000000000E+00 -0.12811727188E+04  0.12811727188E+04  0.00000000000E+00 0. -1.
         21    1    1    2  503  505 -0.25914852555E+02 -0.14263386802E+03 -0.31962222155E+03  0.35096205550E+03  0.00000000000E+00 0. -1.
         21    1    1    2  504  502 -0.69080632347E+00 -0.32334617229E+02 -0.80332397584E+03  0.80397476008E+03  0.00000000000E+00 0. -1.
         21    1    1    2  505  501  0.38184887866E+02  0.10316157305E+03  0.22385427236E+02  0.11225641704E+03  0.00000000000E+00 0. -1.
         21    1    1    2  506  504 -0.11579228987E+02  0.71806912203E+02 -0.83702335989E+02  0.11088909881E+03  0.00000000000E+00 0. -1.
<scales pt_clust_3="113.91218" pt_clust_4="32.34200" pt_clust_5="14000.00000" pt_clust_6="66.26340"></scales>
<clustering>
<clus scale="   32.342">  2  4  1 -1</clus>
<clus scale="   66.263">  2  6  1 -1</clus>
<clus scale="  113.912">  2  3  1 -1</clus>
<clus scale="  113.912">  1  3  2 -1</clus>
</clustering>
</event>
<event>
 6    0  0.1080632E+003  0.2032016E+03  0.7546771E-02  0.1147066E+00
         21   -1    0    0  504  501  0.00000000000E+00  0.00000000000E+00  0.10398956139E+04  0.10398956139E+04  0.00000000000E+00 0.  1.
         21   -1    0    0  506  502 -0.00000000000E+00 -0.00000000000E+00 -0.17602209747E+03  0.17602209747E+03  0.00000000000E+00 0. -1.
         21    1    1    2  503  505  0.49054465010E+02 -0.11642165765E+03 -0.75147544843E+02  0.14699488563E+03  0.00000000000E+00 0. -1.
         21    1    1    2  504  503 -0.14084038616E+03  0.13453628546E+03  0.84848314841E+03  0.87055136530E+03  0.00000000000E+00 0.  1.
         21    1    1    2  505  502  0.12374307976E+03 -0.20443547442E+02  0.28605510231E+02  0.12864122060E+03  0.00000000000E+00 0. -1.
         21    1    1    2  506  501 -0.31957158611E+02  0.23289196305E+01  0.61932402588E+02  0.69730239806E+02  0.00000000000E+00 0. -1.
<scales pt_clust_3="203.20162" pt_clust_4="14000.00000" pt_clust_5="122.84505" pt_clust_6="32.04191"></scales>
<clustering>
<clus scale="   32.042">  1  6  2 -1</clus>
<clus scale="  122.845">  2  5  1 -1</clus>
<clus scale="  203.202">  2  3  1 -1</clus>
<clus scale="   32.042">  1  3  2 -1</clus>
</clustering>
</event>
<event>
 6    0  0.1080632E+003  0.2456625E+03  0.7546771E-02  0.1116077E+00
         21   -1    0    0  506  501  0.00000000000E+00  0.00000000000E+00  0.81988408021E+03  0.81988408021E+03  0.00000000000E+00 0.  1.
         21   -1    0    0  503  502 -0.00000000000E+00 -0.00000000000E+00 -0.19891083365E+03  0.19891083365E+03  0.00000000000E+00 0.  1.
         21    1    1    2  503  504  0.26511989586E+02 -0.45558831642E+02 -0.78549890585E+02  0.94596924069E+02  0.00000000000E+00 0.  1.
         21    1    1    2  504  501  0.22997015527E+03 -0.40260296493E+02  0.10585325626E+03  0.25634366708E+03  0.00000000000E+00 0.  1.
         21    1    1    2  505  502 -0.22047126214E+03  0.95348334003E+02  0.37020222277E+03  0.44130326078E+03  0.00000000000E+00 0.  1.
         21    1    1    2  506  505 -0.36010882719E+02 -0.95292058682E+01  0.22346765812E+03  0.22655106194E+03  0.00000000000E+00 0.  1.
<scales pt_clust_3="52.58044" pt_clust_4="14000.00000" pt_clust_5="245.66252" pt_clust_6="37.25036"></scales>
<clustering>
<clus scale="   37.250">  1  6  2 -1</clus>
<clus scale="   52.580">  2  3  1 -1</clus>
<clus scale="  245.663">  1  5  2 -1</clus>
<clus scale="   37.250">  1  3  2 -1</clus>
</clustering>
</event>
<event>
 6    0  0.1080632E+003  0.1142000E+03  0.7546771E-02  0.1252984E+00
         21   -1    0    0  506  501  0.00000000000E+00  0.00000000000E+00  0.14683232366E+03  0.14683232366E+03  0.00000000000E+00 0.  1.
         21   -1    0    0  503  502 -0.00000000000E+00 -0.00000000000E+00 -0.79439586388E+03  0.79439586388E+03  0.00000000000E+00 0.  1.
         21    1    1    2  503  505  0.30569894714E+02  0.11303826465E+03 -0.14572686496E+03  0.18694514412E+03  0.00000000000E+00 0.  1.
         21    1    1    2  504  502 -0.30349290815E+02 -0.93030459705E+02 -0.56087471784E+03  0.56934716562E+03  0.00000000000E+00 0.  1.
         21    1    1    2  505  501  0.29489292415E+02  0.47063886999E+02 -0.35016532595E+02  0.65656571504E+02  0.00000000000E+00 0.  1.
         21    1    1    2  506  504 -0.29709896314E+02 -0.67071691948E+02  0.94054575174E+02  0.11927930630E+03  0.00000000000E+00 0.  1.
<scales pt_clust_3="30.01653" pt_clust_4="105.55569" pt_clust_5="30.01653" pt_clust_6="73.35728"></scales>
<clustering>
<clus scale="   30.017">  3  5 -1 -1</clus>
<clus scale="   73.357">  1  6  2 -1</clus>
<clus scale="  105.556">  2  4  1 -1</clus>
<clus scale="   73.357">  1  3  2 -1</clus>
</clustering>
</event>
<event>
 6    0  0.1080632E+003  0.9489466E+02  0.7546771E-02  0.1291414E+00
         21   -1    0    0  504  501  0.00000000000E+00  0.00000000000E+00  0.50600704869E+03  0.50600704869E+03  0.00000000000E+00 0.  1.
         21   -1    0    0  505  502 -0.00000000000E+00 -0.00000000000E+00 -0.24563551441E+03  0.24563551441E+03  0.00000000000E+00 0.  1.
         21    1    1    2  503  501  0.37936406513E+02 -0.81483779130E+02  0.35854100789E+03  0.36963553880E+03  0.00000000000E+00 0.  1.
         21    1    1    2  504  506 -0.72124389687E+02  0.10198873922E+03  0.92685430424E+02  0.15554491161E+03  0.00000000000E+00 0.  1.
         21    1    1    2  505  503  0.75064271920E+02 -0.92711754697E+01 -0.14786678626E+03  0.16608788665E+03  0.00000000000E+00 0.  1.
         21    1    1    2  506  502 -0.40876288746E+02 -0.11233784622E+02 -0.42988117786E+02  0.60374226035E+02  0.00000000000E+00 0.  1.
<scales pt_clust_3="14000.00000" pt_clust_4="94.89466" pt_clust_5="45.82151" pt_clust_6="42.39185"></scales>
<clustering>
<clus scale="   42.392">  2  6  1 -1</clus>
<clus scale="   45.822">  2  5  1 -1</clus>
<clus scale="   94.895">  2  4  1 -1</clus>
<clus scale="   94.895">  1  3  2 -1</clus>
</clustering>
</event>
<event>
 6    0  0.1080632E+003  0.1154100E+03  0.7546771E-02  0.1250867E+00
         21   -1    0    0  503  501  0.00000000000E+00  0.00000000000E+00  0.17847203193E+03  0.17847203193E+03  0.00000000000E+00 0.  1.
         21   -1    0    0  506  502 -0.00000000000E+00 -0.00000000000E+00 -0.14276799998E+03  0.14276799998E+03  0.00000000000E+00 0.  1.
         21    1    1    2  503  504 -0.35348361442E+02  0.21354904514E+02  0.35098050305E+02  0.54197894227E+02  0.00000000000E+00 0.  1.
         21    1    1    2  504  502 -0.35572256274E+02 -0.10489343039E+03 -0.70335819947E+02  0.13120649650E+03  0.00000000000E+00 0.  1.
         21    1    1    2  505  501  0.37160367507E+02  0.49168250075E+02  0.60856935717E+02  0.86613950110E+02  0.00000000000E+00 0.  1.
         21    1    1    2  506  505  0.33760250209E+02  0.34370275804E+02  0.10084865868E+02  0.49221691078E+02  0.00000000000E+00 0.  1.
<scales pt_clust_3="41.29817" pt_clust_4="109.12977" pt_clust_5="33.20139" pt_clust_6="33.20139"></scales>
<clustering>
<clus scale="   33.201">  5  6 -1 -1</clus>
<clus scale="   41.298">  1  3  2 -1</clus>
<clus scale="  109.130">  2  4  1 -1</clus>
<clus scale="   41.298">  1  3  2 -1</clus>
</clustering>
</event>
<event>
 6    0  0.1080632E+003  0.1676548E+03  0.7546771E-02  0.1180316E+00
         21   -1    0    0  502  501  0.00000000000E+00  0.00000000000E+00  0.10183923621E+04  0.10183923621E+04  0.00000000000E+00 0. -1.
         21   -1    0    0  504  502 -0.00000000000E+00 -0.00000000000E+00 -0.49460815731E+03  0.49460815731E+03  0.00000000000E+00 0.  1.
         21    1    1    2  503  505  0.13408549302E+02  0.20703970469E+03  0.27180265058E+03  0.34193845846E+03  0.00000000000E+00 0. -1.
         21    1    1    2  504  503  0.27490291940E+02 -0.43467247884E+02 -0.44495080059E+03  0.44791330940E+03  0.00000000000E+00 0.  1.
         21    1    1    2  505  506 -0.45316805895E+02 -0.13122937898E+03  0.38049927043E+03  0.40503636578E+03  0.00000000000E+00 0. -1.
         21    1    1    2  506  501  0.44179646528E+01 -0.32343077827E+02  0.31643308438E+03  0.31811238578E+03  0.00000000000E+00 0. -1.
<scales pt_clust_3="167.65477" pt_clust_4="51.49346" pt_clust_5="14000.00000" pt_clust_6="32.64342"></scales>
<clustering>
<clus scale="   32.643">  1  6  2 -1</clus>
<clus scale="   51.493">  2  4  1 -1</clus>
<clus scale="  167.655">  2  3  1 -1</clus>
<clus scale="   32.643">  1  3  2 -1</clus>
</clustering>
</event>
<event>
 6    0  0.1080632E+003  0.2070782E+03  0.7546771E-02  0.1143901E+00
         21   -1    0    0  505  501  0.00000000000E+00  0.00000000000E+00  0.19498186132E+04  0.19498186132E+04  0.00000000000E+00 0.  1.
         21   -1    0    0  506  502 -0.00000000000E+00 -0.00000000000E+00 -0.25686630890E+02  0.25686630890E+02  0.00000000000E+00 0.  1.
         21    1    1    2  503  501  0.75431179892E+02  0.54333953394E+02  0.26594139439E+03  0.28172125699E+03  0.00000000000E+00 0.  1.
         21    1    1    2  504  502 -0.89149348096E+02 -0.10031743883E+03  0.83629212798E+03  0.84699215942E+03  0.00000000000E+00 0.  1.
         21    1    1    2  505  504 -0.13996307516E+00 -0.67197602459E+02  0.51554320066E+03  0.51990415378E+03  0.00000000000E+00 0.  1.
         21    1    1    2  506  503  0.13858131279E+02  0.11318108790E+03  0.30635525929E+03  0.32688767391E+03  0.00000000000E+00 0.  1.
<scales pt_clust_3="74.71668" pt_clust_4="202.35310" pt_clust_5="49.59763" pt_clust_6="74.71668"></scales>
<clustering>
<clus scale="   49.598">  4  5 -1 -1</clus>
<clus scale="   74.717">  3  6 -1 -1</clus>
<clus scale="  202.353">  1  4  2 -1</clus>
<clus scale="  202.353">  1  3  2 -1</clus>
</clustering>
</event>
<event>
 6    0  0.1080632E+003  0.1305056E+03  0.7546771E-02  0.1226708E+00
         21   -1    0    0  504  501  0.00000000000E+00  0.00000000000E+00  0.86821532417E+03  0.86821532417E+03  0.00000000000E+00 0.  1.
         21   -1    0    0  505  502 -0.00000000000E+00 -0.00000000000E+00 -0.21755898291E+03  0.21755898291E+03  0.00000000000E+00 0. -1.
         21    1    1    2  503  502  0.11121973408E+03 -0.51529684464E+02 -0.12733110676E+03  0.17674373647E+03  0.00000000000E+00 0. -1.
         21    1    1    2  504  506 -0.31849920979E+02  0.33559450396E+02  0.73728945703E+03  0.73873973605E+03  0.00000000000E+00 0.  1.
         21    1    1    2  505  501  0.33772105228E+02  0.18651337203E+02 -0.18286883680E+02  0.42694702081E+02  0.00000000000E+00 0. -1.
         21    1    1    2  506  503 -0.11314191833E+03 -0.68110313492E+00  0.58984874671E+02  0.12759613249E+03  0.00000000000E+00 0. -1.
<scales pt_clust_3="14000.00000" pt_clust_4="46.22975" pt_clust_5="38.58014" pt_clust_6="130.50555"></scales>
<clustering>
<clus scale="   38.580">  2  5  1 -1</clus>
<clus scale="   46.230">  1  4  2 -1</clus>
<clus scale="  130.506">  1  6  2 -1</clus>
<clus scale="   46.230">  1  3  2 -1</clus>
</clustering>
</event>
<event>
 6    0  0.1080632E+003  0.9531400E+02  0.7546771E-02  0.1290470E+00
         21   -1    0    0  506  501  0.00000000000E+00  0.00000000000E+00  0.10093618369E+03  0.10093618369E+03  0.00000000000E+00 0. -1.
         21   -1    0    0  505  502 -0.00000000000E+00 -0.00000000000E+00 -0.76864259418E+03  0.76864259418E+03  0.00000000000E+00 0. -1.
         21    1    1    2  503  504 -0.22486514627E+02 -0.73529434327E+02 -0.15597669719E+03  0.17389925566E+03  0.00000000000E+00 0. -1.
         21    1    1    2  504  501 -0.70728824419E+02  0.65378298641E+02  0.58345576750E+02  0.11261036748E+03  0.00000000000E+00 0. -1.
         21    1    1    2  505  503  0.87391176706E+01  0.30818614172E+02 -0.10269034055E+03  0.10757074509E+03  0.00000000000E+00 0. -1.
         21    1    1    2  506  502  0.84476221375E+02 -0.22667478486E+02 -0.46738494950E+03  0.47549840965E+03  0.00000000000E+00 0. -1.
<scales pt_clust_3="68.92978" pt_clust_4="95.31400" pt_clust_5="32.03372" pt_clust_6="14000.00000"></scales>
<clustering>
<clus scale="   32.034">  2  5  1 -1</clus>
<clus scale="   68.930">  2  3  1 -1</clus>
<clus scale="   95.314">  1  4  2 -1</clus>
<clus scale="   95.314">  1  3  2 -1</clus>
</clustering>
</event>
<event>
 6    0  0.1080632E+003  0.1955781E+03  0.7546771E-02  0.1153524E+00
         21   -1    0    0  504  501  0.00000000000E+00  0.00000000000E+00  0.72377597986E+03  0.72377597986E+03  0.00000000000E+00 0. -1.
         21   -1    0    0  503  502 -0.00000000000E+00 -0.00000000000E+00 -0.51244998825E+03  0.51244998825E+03  0.00000000000E+00 0.  1.
         21    1    1    2  503  501  0.67815117422E+02 -0.50765055518E+02 -0.36011579793E+02  0.92047894555E+02  0.00000000000E+00 0.  1.
         21    1    1    2  504  505 -0.16840184194E+03  0.96927594495E+02  0.67413490926E+03  0.70157823144E+03  0.00000000000E+00 0. -1.
         21    1    1    2  505  506  0.31424444796E+02 -0.35199844631E+02 -0.17140349011E+03  0.17777986729E+03  0.00000000000E+00 0.  1.
         21    1    1    2  506  502  0.69162279718E+02 -0.10962694345E+02 -0.25539384774E+03  0.26481997483E+03  0.00000000000E+00 0.  1.
<scales pt_clust_3="84.71116" pt_clust_4="191.73108" pt_clust_5="31.68610" pt_clust_6="31.68610"></scales>
<clustering>
<clus scale="   31.686">  5  6 -1 -1</clus>
<clus scale="   84.711">  2  3  1 -1</clus>
<clus scale="  191.731">  1  4  2 -1</clus>
<clus scale="  191.731">  1  3  2 -1</clus>
</clustering>
</event>
<event>
 6    0  0.1080632E+003  0.2416578E+03  0.7546771E-02  0.1118693E+00
         21   -1    0    0  506  501  0.00000000000E+00  0.00000000000E+00  0.20768432862E+03  0.20768432862E+03  0.00000000000E+00 0. -1.
         21   -1    0    0  505  502 -0.00000000000E+00 -0.00000000000E+00 -0.66127061339E+03  0.66127061339E+03  0.00000000000E+00 0. -1.
         21    1    1    2  503  501  0.35901436950E+02 -0.43635754367E+02  0.11003327828E+03  0.12369444031E+03  0.00000000000E+00 0. -1.
         21    1    1    2  504  502  0.40443261157E+02  0.48635112459E+02 -0.92974087847E+02  0.11245093396E+03  0.00000000000E+00 0. -1.
         21    1    1    2  505  503 -0.16025908827E+03 -0.16745635576E+03 -0.32424911076E+03  0.39857507735E+03  0.00000000000E+00 0. -1.
         21    1    1    2  506  504  0.83914390166E+02  0.16245699767E+03 -0.14639636444E+03  0.23423449039E+03  0.00000000000E+00 0. -1.
<scales pt_clust_3="56.50657" pt_clust_4="31.49747" pt_clust_5="235.64939" pt_clust_6="31.49747"></scales>
<clustering>
<clus scale="   31.497">  4  6 -1 -1</clus>
<clus scale="   56.507">  1  3  2 -1</clus>
<clus scale="  235.649">  2  5  1 -1</clus>
<clus scale="   56.507">  1  3  2 -1</clus>
</clustering>
</event>
<event>
 6    0  0.1080632E+003  0.8921074E+02  0.7546771E-02  0.1304774E+00
         21   -1    0    0  503  501  0.00000000000E+00  0.00000000000E+00  0.10484472438E+04  0.10484472438E+04  0.00000000000E+00 0.  1.
         21   -1    0    0  505  502 -0.00000000000E+00 -0.00000000000E+00 -0.24398281777E+02  0.24398281777E+02  0.00000000000E+00 0.  1.
         21    1    1    2  503  506  0.64644952434E+02  0.51384286948E+02  0.32375547687E+03  0.33412112119E+03  0.00000000000E+00 0.  1.
         21    1    1    2  504  501  0.41679212588E+02 -0.48500609033E+02  0.27650143396E+03  0.28380012125E+03  0.00000000000E+00 0.  1.
         21    1    1    2  505  504 -0.22595996258E+02  0.48406672895E+02  0.71796616140E+02  0.89490441483E+02  0.00000000000E+00 0.  1.
         21    1    1    2  506  502 -0.83728168764E+02 -0.51290350810E+02  0.35199543505E+03  0.36543384166E+03  0.00000000000E+00 0.  1.
<scales pt_clust_3="89.21074" pt_clust_4="51.98793" pt_clust_5="53.42083" pt_clust_6="14000.00000"></scales>
<clustering>
<clus scale="   53.421">  2  5  1 -1</clus>
<clus scale="   51.988">  2  4  1 -1</clus>
<clus scale="   89.211">  1  3  2 -1</clus>
<clus scale="   89.211">  1  3  2 -1</clus>
</clustering>
</event>
<event>
 6    0  0.1080632E+003  0.1016320E+03  0.7546771E-02  0.1276901E+00
         21   -1    0    0  505  501  0.00000000000E+00  0.00000000000E+00  0.89407350632E+03  0.89407350632E+03  0.00000000000E+00 0. -1.
         21   -1    0    0  504  502 -0.00000000000E+00 -0.00000000000E+00 -0.59249788011E+03  0.59249788011E+03  0.00000000000E+00 0.  1.
         21    1    1    2  503  502  0.32960723846E+02 -0.56347148669E+02 -0.77184476064E+02  0.10108834663E+03  0.00000000000E+00 0.  1.
         21    1    1    2  504  501 -0.61298505032E+02  0.54343807205E+02 -0.42631801699E+03  0.43411727415E+03  0.00000000000E+00 0.  1.
         21    1    1    2  505  506  0.10101570392E+03 -0.19007032650E+02  0.85472043156E+03  0.86087888571E+03  0.00000000000E+00 0. -1.
         21    1    1    2  506  503 -0.72677922729E+02  0.21010374114E+02 -0.49642312294E+02  0.90486879947E+02  0.00000000000E+00 0.  1.
<scales pt_clust_3="65.27948" pt_clust_4="33.69967" pt_clust_5="14000.00000" pt_clust_6="101.63198"></scales>
<clustering>
<clus scale="   65.279">  2  3  1 -1</clus>
<clus scale="   33.700">  2  4  1 -1</clus>
<clus scale="  101.632">  2  6  1 -1</clus>
<clus scale="  101.632">  1  3  2 -1</clus>
</clustering>
</event>
<event>
 6    0  0.1080632E+003  0.1311901E+03  0.7546771E-02  0.1225700E+00
         21   -1    0    0  506  501  0.00000000000E+00  0.00000000000E+00  0.12492520485E+03  0.12492520485E+03  0.00000000000E+00 0.  1.
         21   -1    0    0  505  502 -0.00000000000E+00 -0.00000000000E+00 -0.24160934066E+03  0.24160934066E+03  0.00000000000E+00 0.  1.
         21    1    1    2  503  501  0.61560247963E+01  0.62020371081E+02  0.11521425815E+02  0.63381119611E+02  0.00000000000E+00 0.  1.
         21    1    1    2  504  502 -0.12466450161E+02 -0.12749716809E+03 -0.14556551507E+03  0.19390786324E+03  0.00000000000E+00 0.  1.
         21    1    1    2  505  503 -0.37336914495E+02  0.41844814078E+02  0.20002425527E+02  0.59540999960E+02  0.00000000000E+00 0.  1.
         21    1    1    2  506  504  0.43647339861E+02  0.23631982929E+02 -0.26424720874E+01  0.49704562696E+02  0.00000000000E+00 0.  1.
<scales pt_clust_3="46.04159" pt_clust_4="121.88102" pt_clust_5="46.04159" pt_clust_6="49.63427"></scales>
<clustering>
<clus scale="   46.042">  3  5 -1 -1</clus>
<clus scale="   49.634">  1  6  2 -1</clus>
<clus scale="  121.881">  2  4  1 -1</clus>
<clus scale="   49.634">  1  3  2 -1</clus>
</clustering>
</event>
<event>
 6    0  0.1080632E+003  0.1221356E+03  0.7546771E-02  0.1239615E+00
         21   -1    0    0  503  501  0.00000000000E+00  0.00000000000E+00  0.10907029225E+03  0.10907029225E+03  0.00000000000E+00 0. -1.
         21   -1    0    0  505  502 -0.00000000000E+00 -0.00000000000E+00 -0.41572140342E+03  0.41572140342E+03  0.00000000000E+00 0.  1.
         21    1    1    2  503  504 -0.43122616506E+02  0.12247687396E+03 -0.13718015747E+03  0.18888763938E+03  0.00000000000E+00 0.  1.
         21    1    1    2  504  502 -0.12042546233E+02 -0.40740550416E+02 -0.82945567073E+02  0.93192180278E+02  0.00000000000E+00 0.  1.
         21    1    1    2  505  506  0.17421724619E+02  0.32049135449E+02 -0.11402362869E+03  0.11971654636E+03  0.00000000000E+00 0.  1.
         21    1    1    2  506  501  0.37743438120E+02 -0.11378545899E+03  0.27498242073E+02  0.12299532965E+03  0.00000000000E+00 0. -1.
<scales pt_clust_3="122.13558" pt_clust_4="32.04940" pt_clust_5="36.47826" pt_clust_6="14000.00000"></scales>
<clustering>
<clus scale="   36.478">  2  5  1 -1</clus>
<clus scale="   32.049">  2  4  1 -1</clus>
<clus scale="  122.136">  2  3  1 -1</clus>
<clus scale="  122.136">  1  3  2 -1</clus>
</clustering>
</event>
<event>
 6    0  0.1080632E+003  0.1201645E+03  0.7546771E-02  0.1242826E+00
         21   -1    0    0  503  501  0.00000000000E+00  0.00000000000E+00  0.16193024981E+03  0.16193024981E+03  0.00000000000E+00 0.  1.
         21   -1    0    0  506  502 -0.00000000000E+00 -0.00000000000E+00 -0.46814184840E+03  0.46814184840E+03  0.00000000000E+00 0.  1.
         21    1    1    2  503  505  0.11733275965E+03  0.26615949865E+02 -0.16518506660E+03  0.20435628569E+03  0.00000000000E+00 0.  1.
         21    1    1    2  504  501 -0.44521359142E+02 -0.28983396324E+02  0.61149355869E+02  0.81002669126E+02  0.00000000000E+00 0.  1.
         21    1    1    2  505  502 -0.52541460152E+02  0.67111000148E+02 -0.24840286259E+03  0.26261849424E+03  0.00000000000E+00 0.  1.
         21    1    1    2  506  504 -0.20269940359E+02 -0.64743553689E+02  0.46226974728E+02  0.82094649150E+02  0.00000000000E+00 0.  1.
<scales pt_clust_3="111.13556" pt_clust_4="40.43925" pt_clust_5="85.23199" pt_clust_6="40.43925"></scales>
<clustering>
<clus scale="   40.439">  4  6 -1 -1</clus>
<clus scale="   85.232">  2  5  1 -1</clus>
<clus scale="  111.136">  2  3  1 -1</clus>
<clus scale="  120.165">  1  3  2 -1</clus>
</clustering>
</event>
<event>
 6    0  0.1080632E+003  0.8363774E+02  0.7546771E-02  0.1319034E+00
         21   -1    0    0  503  501  0.00000000000E+00  0.00000000000E+00  0.59501601954E+02  0.59501601954E+02  0.00000000000E+00 0.  1.
         21   -1    0    0  505  502 -0.00000000000E+00 -0.00000000000E+00 -0.15460741729E+04  0.15460741729E+04  0.00000000000E+00 0. -1.
         21    1    1    2  503  506  0.49273154201E+01 -0.11791427612E+03 -0.40297127433E+03  0.41989749093E+03  0.00000000000E+00 0. -1.
         21    1    1    2  504  501 -0.31600656420E+02  0.50969761539E+02  0.26889336233E+02  0.65723317632E+02  0.00000000000E+00 0.  1.
         21    1    1    2  505  504  0.37204028710E+02 -0.21296409290E+01 -0.94761801114E+02  0.10182570438E+03  0.00000000000E+00 0. -1.
         21    1    1    2  506  502 -0.10530687710E+02  0.69074155514E+02 -0.10157288317E+04  0.10181292619E+04  0.00000000000E+00 0. -1.
<scales pt_clust_3="83.63774" pt_clust_4="59.68518" pt_clust_5="37.26493" pt_clust_6="14000.00000"></scales>
<clustering>
<clus scale="   37.265">  2  5  1 -1</clus>
<clus scale="   59.685">  1  4  2 -1</clus>
<clus scale="   83.638">  1  3  2 -1</clus>
<clus scale="   59.685">  1  3  2 -1</clus>
</clustering>
</event>
<event>
 6    0  0.1080632E+003  0.1046375E+03  0.7546771E-02  0.1270835E+00
         21   -1    0    0  506  501  0.00000000000E+00  0.00000000000E+00  0.10408289133E+02  0.10408289133E+02  0.00000000000E+00 0. -1.
         21   -1    0    0  504  502 -0.00000000000E+00 -0.00000000000E+00 -0.34952528599E+04  0.34952528599E+04  0.00000000000E+00 0.  1.
         21    1    1    2  503  502 -0.35428722369E+02 -0.48914420884E+01 -0.54130166350E+03  0.54248189969E+03  0.00000000000E+00 0. -1.
         21    1    1    2  504  501  0.28747613928E+02  0.19688748873E+02 -0.31846100623E+03  0.32036149055E+03  0.00000000000E+00 0.  1.
         21    1    1    2  505  503  0.50533999133E+02 -0.10736470315E+03 -0.22741273579E+04  0.22772211365E+04  0.00000000000E+00 0.  1.
         21    1    1    2  506  505 -0.43852890692E+02  0.92567396366E+02 -0.35095454312E+03  0.36559662229E+03  0.00000000000E+00 0. -1.
<scales pt_clust_3="30.56196" pt_clust_4="34.84354" pt_clust_5="104.63753" pt_clust_6="14000.00000"></scales>
<clustering>
<clus scale="   34.844">  2  4  1 -1</clus>
<clus scale="   30.562">  2  3  1 -1</clus>
<clus scale="  104.638">  2  5  1 -1</clus>
<clus scale="  104.638">  1  3  2 -1</clus>
</clustering>
</event>
<event>
 6    0  0.1080632E+003  0.1376105E+03  0.7546771E-02  0.1216581E+00
         21   -1    0    0  506  501  0.00000000000E+00  0.00000000000E+00  0.37319380554E+03  0.37319380554E+03  0.00000000000E+00 0. -1.
         21   -1    0    0  505  502 -0.00000000000E+00 -0.00000000000E+00 -0.11940939794E+03  0.11940939794E+03  0.00000000000E+00 0. -1.
         21    1    1    2  503  501 -0.22481205805E+01  0.53442585966E+02  0.19542367463E+03  0.20261188674E+03  0.00000000000E+00 0. -1.
         21    1    1    2  504  503  0.42711532337E+02  0.32089863502E+02  0.15650608204E+02  0.55668445921E+02  0.00000000000E+00 0. -1.
         21    1    1    2  505  504  0.59094811800E+02  0.18287647227E+02  0.63890045418E+02  0.88930156450E+02  0.00000000000E+00 0.  1.
         21    1    1    2  506  502 -0.99558223556E+02 -0.10382009669E+03 -0.21179920656E+02  0.14539271438E+03  0.00000000000E+00 0. -1.
<scales pt_clust_3="53.48985" pt_clust_4="38.08600" pt_clust_5="38.08600" pt_clust_6="131.36599"></scales>
<clustering>
<clus scale="   38.086">  4  5 -1 -1</clus>
<clus scale="   53.490">  1  3  2 -1</clus>
<clus scale="  131.366">  2  6  1 -1</clus>
<clus scale="   53.490">  1  3  2 -1</clus>
</clustering>
</event>
<event>
 6    0  0.1080632E+003  0.6967623E+02  0.7546771E-02  0.1361198E+00
         21   -1    0    0  504  501  0.00000000000E+00  0.00000000000E+00  0.35640880951E+03  0.35640880951E+03  0.00000000000E+00 0.  1.
         21   -1    0    0  503  502 -0.00000000000E+00 -0.00000000000E+00 -0.32031997570E+03  0.32031997570E+03  0.00000000000E+00 0. -1.
         21    1    1    2  503  501 -0.17057331153E+02 -0.86790528592E+02 -0.21395687514E+03  0.23151909818E+03  0.00000000000E+00 0. -1.
         21    1    1    2  504  506 -0.55800583446E+02  0.16776013192E+02  0.30824481444E+03  0.31370369039E+03  0.00000000000E+00 0.  1.
         21    1    1    2  505  502  0.55861721056E+02  0.11643927973E+02 -0.30436232009E+02  0.64672074011E+02  0.00000000000E+00 0.  1.
         21    1    1    2  506  505  0.16996193543E+02  0.58370587427E+02 -0.27762873485E+02  0.66833922641E+02  0.00000000000E+00 0. -1.
<scales pt_clust_3="14000.00000" pt_clust_4="57.76670" pt_clust_5="57.06236" pt_clust_6="69.67623"></scales>
<clustering>
<clus scale="   57.062">  2  5  1 -1</clus>
<clus scale="   57.767">  1  4  2 -1</clus>
<clus scale="   69.676">  1  6  2 -1</clus>
<clus scale="   57.767">  1  3  2 -1</clus>
</clustering>
</event>
<event>
 6    0  0.1080632E+003  0.1041007E+03  0.7546771E-02  0.1271902E+00
         21   -1    0    0  504  501  0.00000000000E+00  0.00000000000E+00  0.29389069892E+03  0.29389069892E+03  0.00000000000E+00 0. -1.
         21   -1    0    0  505  502 -0.00000000000E+00 -0.00000000000E+00 -0.27213162234E+03  0.27213162234E+03  0.00000000000E+00 0. -1.
         21    1    1    2  503  506 -0.46937118926E+01 -0.46353055430E+02  0.37724243325E+02  0.59947937525E+02  0.00000000000E+00 0. -1.
         21    1    1    2  504  503  0.49779574486E+02  0.43276347459E+02  0.19126283555E+03  0.20231737579E+03  0.00000000000E+00 0. -1.
         21    1    1    2  505  501 -0.63960573369E+02  0.69929370849E+02 -0.21391750850E+03  0.23396959695E+03  0.00000000000E+00 0. -1.
         21    1    1    2  506  502  0.18874710776E+02 -0.66852662878E+02  0.66895062015E+01  0.69787410999E+02  0.00000000000E+00 0. -1.
<scales pt_clust_3="35.14880" pt_clust_4="65.96096" pt_clust_5="94.84147" pt_clust_6="35.14880"></scales>
<clustering>
<clus scale="   35.149">  3  6 -1 -1</clus>
<clus scale="   65.961">  1  4  2 -1</clus>
<clus scale="   94.841">  2  5  1 -1</clus>
<clus scale="   65.961">  1  3  2 -1</clus>
</clustering>
</event>
<event>
 6    0  0.1080632E+003  0.1280679E+03  0.7546771E-02  0.1230351E+00
         21   -1    0    0  506  501  0.00000000000E+00  0.00000000000E+00  0.13642999547E+03  0.13642999547E+03  0.00000000000E+00 0.  1.
         21   -1    0    0  505  502 -0.00000000000E+00 -0.00000000000E+00 -0.57713707175E+03  0.57713707175E+03  0.00000000000E+00 0.  1.
         21    1    1    2  503  504 -0.71509585536E+02  0.64441917534E+02 -0.14368019054E+02  0.97328420981E+02  0.00000000000E+00 0. -1.
         21    1    1    2  504  502 -0.82616779138E+02  0.80249419666E+02 -0.26730417030E+03  0.29106188519E+03  0.00000000000E+00 0.  1.
         21    1    1    2  505  501  0.76229789724E+02 -0.15774284262E+03 -0.17156013458E+03  0.24520739184E+03  0.00000000000E+00 0.  1.
         21    1    1    2  506  503  0.77896574950E+02  0.13051505418E+02  0.12525247646E+02  0.79969369206E+02  0.00000000000E+00 0. -1.
<scales pt_clust_3="78.96583" pt_clust_4="128.06791" pt_clust_5="14000.00000" pt_clust_6="78.98239"></scales>
<clustering>
<clus scale="   78.982">  1  6  2 -1</clus>
<clus scale="   78.966">  1  3  2 -1</clus>
<clus scale="  128.068">  2  4  1 -1</clus>
<clus scale="   78.982">  1  3  2 -1</clus>
</clustering>
</event>
<event>
 6    0  0.1080632E+003  0.7964144E+02  0.7546771E-02  0.1330072E+00
         21   -1    0    0  503  501  0.00000000000E+00  0.00000000000E+00  0.40270659405E+04  0.40270659405E+04  0.00000000000E+00 0. -1.
         21   -1    0    0  504  502 -0.00000000000E+00 -0.00000000000E+00 -0.32406833075E+02  0.32406833075E+02  0.00000000000E+00 0. -1.
         21    1    1    2  503  506  0.22299489106E+02 -0.21409564729E+02  0.29132055149E+03  0.29295614074E+03  0.00000000000E+00 0. -1.
         21    1    1    2  504  501 -0.57537184149E+02  0.40008494705E+02  0.28681073350E+04  0.28689633829E+04  0.00000000000E+00 0. -1.
         21    1    1    2  505  502  0.69788048309E+02  0.41011598632E+02  0.25459728377E+02  0.84855881812E+02  0.00000000000E+00 0. -1.
         21    1    1    2  506  505 -0.34550353266E+02 -0.59610528608E+02  0.80977149247E+03  0.81269736805E+03  0.00000000000E+00 0. -1.
<scales pt_clust_3="30.91337" pt_clust_4="46.77963" pt_clust_5="79.64144" pt_clust_6="14000.00000"></scales>
<clustering>
<clus scale="   30.913">  1  3  2 -1</clus>
<clus scale="   46.780">  1  4  2 -1</clus>
<clus scale="   79.641">  2  5  1 -1</clus>
<clus scale="   30.913">  1  3  2 -1</clus>
</clustering>
</event>
<event>
 6    0  0.1080632E+003  0.8132193E+02  0.7546771E-02  0.1325341E+00
         21   -1    0    0  505  501  0.00000000000E+00  0.00000000000E+00  0.14148230768E+03  0.14148230768E+03  0.00000000000E+00 0. -1.
         21   -1    0    0  504  502 -0.00000000000E+00 -0.00000000000E+00 -0.21305822099E+04  0.21305822099E+04  0.00000000000E+00 0.  1.
         21    1    1    2  503  502 -0.41446529677E+02 -0.20331174494E+02 -0.14407853882E+03  0.15129374352E+03  0.00000000000E+00 0.  1.
         21    1    1    2  504  506  0.46060646136E+02 -0.47227917891E+02 -0.16061060932E+04  0.16074603703E+04  0.00000000000E+00 0.  1.
         21    1    1    2  505  503 -0.50635167358E+02 -0.61467120582E+02  0.11152907933E+03  0.13704328741E+03  0.00000000000E+00 0. -1.
         21    1    1    2  506  501  0.46021050899E+02  0.12902621297E+03 -0.35044434954E+03  0.37626711640E+03  0.00000000000E+00 0.  1.
<scales pt_clust_3="46.16461" pt_clust_4="64.91283" pt_clust_5="14000.00000" pt_clust_6="81.32193"></scales>
<clustering>
<clus scale="   46.165">  2  3  1 -1</clus>
<clus scale="   64.913">  2  4  1 -1</clus>
<clus scale="   81.322">  2  6  1 -1</clus>
<clus scale="   81.322">  1  3  2 -1</clus>
</clustering>
</event>
<event>
 6    0  0.1080632E+003  0.8623646E+02  0.7546771E-02  0.1312230E+00
         21   -1    0    0  505  501  0.00000000000E+00  0.00000000000E+00  0.62077907017E+03  0.62077907017E+03  0.00000000000E+00 0.  1.
         21   -1    0    0  506  502 -0.00000000000E+00 -0.00000000000E+00 -0.10498375608E+03  0.10498375608E+03  0.00000000000E+00 0. -1.
         21    1    1    2  503  502 -0.85994004099E+01 -0.61331123754E+02 -0.48200670828E+02  0.78477774539E+02  0.00000000000E+00 0. -1.
         21    1    1    2  504  503 -0.79808250456E+02  0.10509328478E+03  0.10420065860E+03  0.16814200129E+03  0.00000000000E+00 0. -1.
         21    1    1    2  505  504  0.28799034830E+02 -0.28441663771E+02  0.35732619638E+03  0.35961135030E+03  0.00000000000E+00 0.  1.
         21    1    1    2  506  501  0.59608616035E+02 -0.15320497259E+02  0.10246912994E+03  0.11953170011E+03  0.00000000000E+00 0.  1.
<scales pt_clust_3="63.35353" pt_clust_4="86.23646" pt_clust_5="40.47607" pt_clust_6="14000.00000"></scales>
<clustering>
<clus scale="   40.476">  1  5  2 -1</clus>
<clus scale="   63.354">  2  3  1 -1</clus>
<clus scale="   86.236">  2  4  1 -1</clus>
<clus scale="   40.476">  1  3  2 -1</clus>
</clustering>
</event>
<event>
 6    0  0.1080632E+003  0.1011609E+03  0.7546771E-02  0.1277874E+00
         21   -1    0    0  503  501  0.00000000000E+00  0.00000000000E+00  0.14017216172E+04  0.14017216172E+04  0.00000000000E+00 0. -1.
         21   -1    0    0  505  502 -0.00000000000E+00 -0.00000000000E+00 -0.16151894269E+02  0.16151894269E+02  0.00000000000E+00 0. -1.
         21    1    1    2  503  504  0.13930150509E+02 -0.31226310993E+02  0.28892844406E+03  0.29094462941E+03  0.00000000000E+00 0. -1.
         21    1    1    2  504  506  0.91519239387E+02 -0.20857947642E+02  0.25901079040E+03  0.27549485422E+03  0.00000000000E+00 0. -1.
         21    1    1    2  505  501 -0.11277615187E+03  0.22459233245E+02  0.74711319271E+03  0.75591070921E+03  0.00000000000E+00 0. -1.
         21    1    1    2  506  502  0.73267619715E+01  0.29625025390E+02  0.90517295784E+02  0.95523318653E+02  0.00000000000E+00 0. -1.
<scales pt_clust_3="32.44438" pt_clust_4="14000.00000" pt_clust_5="101.16089" pt_clust_6="30.51759"></scales>
<clustering>
<clus scale="   30.518">  2  6  1 -1</clus>
<clus scale="   32.444">  1  3  2 -1</clus>
<clus scale="  101.161">  1  5  2 -1</clus>
<clus scale="   32.444">  1  3  2 -1</clus>
</clustering>
</event>
<event>
 6    0  0.1297854E+003  0.6738796E+02  0.7546771E-02  0.1369208E+00
         21   -1    0    0  503  501  0.00000000000E+00  0.00000000000E+00  0.37186100233E+03  0.37186100233E+03  0.00000000000E+00 0.  1.
         21   -1    0    0  504  502 -0.00000000000E+00 -0.00000000000E+00 -0.44391176545E+03  0.44391176545E+03  0.00000000000E+00 0.  1.
         21    1    1    2  503  502  0.48418781681E+02 -0.99719073501E+02  0.25969058296E+03  0.28236053357E+03  0.00000000000E+00 0.  1.
         21    1    1    2  504  505 -0.29512986291E+02  0.60088351851E+02 -0.40282152910E+03  0.40834643466E+03  0.00000000000E+00 0.  1.
         21    1    1    2  505  506  0.11451373100E+02  0.61318885876E+02  0.58970985888E+02  0.85841230697E+02  0.00000000000E+00 0.  1.
         21    1    1    2  506  501 -0.30357168490E+02 -0.21688164226E+02  0.12109197130E+02  0.39224568848E+02  0.00000000000E+00 0.  1.
<scales pt_clust_3="14000.00000" pt_clust_4="67.38796" pt_clust_5="57.01160" pt_clust_6="37.30863"></scales>
<clustering>
<clus scale="   37.309">  1  6  2 -1</clus>
<clus scale="   57.012">  1  5  2 -1</clus>
<clus scale="   67.388">  2  4  1 -1</clus>
<clus scale="   37.309">  1  3  2 -1</clus>
</clustering>
</event>
<event>
 6    0  0.1080632E+003  0.1181788E+03  0.7546771E-02  0.1246132E+00
         21   -1    0    0  504  501  0.00000000000E+00  0.00000000000E+00  0.19866901437E+04  0.19866901437E+04  0.00000000000E+00 0.  1.
         21   -1    0    0  506  502 -0.00000000000E+00 -0.00000000000E+00 -0.11877329824E+03  0.11877329824E+03  0.00000000000E+00 0.  1.
         21    1    1    2  503  502 -0.11577904699E+03  0.13773899222E+02 -0.67202799316E+02  0.13457609096E+03  0.00000000000E+00 0.  1.
         21    1    1    2  504  505  0.18884057757E+02 -0.43246609357E+02  0.15207453814E+03  0.15922795612E+03  0.00000000000E+00 0.  1.
         21    1    1    2  505  503 -0.89048515684E+02  0.53433176993E+02  0.31466539435E+03  0.33135940149E+03  0.00000000000E+00 0.  1.
         21    1    1    2  506  501  0.18594350491E+03 -0.23960466858E+02  0.14683797122E+04  0.14802999933E+04  0.00000000000E+00 0.  1.
<scales pt_clust_3="118.17875" pt_clust_4="47.18980" pt_clust_5="97.18770" pt_clust_6="14000.00000"></scales>
<clustering>
<clus scale="   47.190">  1  4  2 -1</clus>
<clus scale="   97.188">  1  5  2 -1</clus>
<clus scale="  118.179">  2  3  1 -1</clus>
<clus scale="   47.190">  1  3  2 -1</clus>
</clustering>
</event>
<event>
 6    0  0.1080632E+003  0.1020005E+03  0.7546771E-02  0.1276145E+00
         21   -1    0    0  505  501  0.00000000000E+00  0.00000000000E+00  0.84035727137E+02  0.84035727137E+02  0.00000000000E+00 0. -1.
         21   -1    0    0  504  502 -0.00000000000E+00 -0.00000000000E+00 -0.88517848637E+03  0.88517848637E+03  0.00000000000E+00 0. -1.
         21    1    1    2  503  502  0.36413631423E+02 -0.96927254714E+02 -0.63588433833E+03  0.64425906047E+03  0.00000000000E+00 0. -1.
         21    1    1    2  504  506  0.65227416411E+01  0.10310581118E+03 -0.14840650195E+03  0.18082545252E+03  0.00000000000E+00 0. -1.
         21    1    1    2  505  503  0.32899770016E+02 -0.46588360203E+02 -0.32224606061E+01  0.57124901976E+02  0.00000000000E+00 0. -1.
         21    1    1    2  506  501 -0.75836143080E+02  0.40409803740E+02 -0.13629458347E+02  0.87004798548E+02  0.00000000000E+00 0. -1.
<scales pt_clust_3="14000.00000" pt_clust_4="102.00048" pt_clust_5="57.03394" pt_clust_6="55.68453"></scales>
<clustering>
<clus scale="   57.034">  1  5  2 -1</clus>
<clus scale="   55.685">  1  6  2 -1</clus>
<clus scale="  102.000">  1  4  2 -1</clus>
<clus scale="   57.034">  1  3  2 -1</clus>
</clustering>
</event>
<event>
 6    0  0.1080632E+003  0.8388784E+02  0.7546771E-02  0.1318367E+00
         21   -1    0    0  503  501  0.00000000000E+00  0.00000000000E+00  0.84250686078E+03  0.84250686078E+03  0.00000000000E+00 0.  1.
         21   -1    0    0  506  502 -0.00000000000E+00 -0.00000000000E+00 -0.63849801490E+02  0.63849801490E+02  0.00000000000E+00 0. -1.
         21    1    1    2  503  505 -0.59244022784E+02  0.20205323359E+02  0.59529213078E+03  0.59857399734E+03  0.00000000000E+00 0.  1.
         21    1    1    2  504  501  0.10816728149E+02 -0.28992702303E+02  0.62917652951E+02  0.70115686174E+02  0.00000000000E+00 0.  1.
         21    1    1    2  505  502 -0.47569051766E+01  0.79385073288E+02  0.12611565256E+03  0.14909653191E+03  0.00000000000E+00 0.  1.
         21    1    1    2  506  504  0.53184199811E+02 -0.70597694343E+02 -0.56683769988E+01  0.88570446843E+02  0.00000000000E+00 0. -1.
<scales pt_clust_3="50.96639" pt_clust_4="30.94476" pt_clust_5="83.88784" pt_clust_6="14000.00000"></scales>
<clustering>
<clus scale="   30.945">  1  4  2 -1</clus>
<clus scale="   50.966">  1  3  2 -1</clus>
<clus scale="   83.888">  1  5  2 -1</clus>
<clus scale="   30.945">  1  3  2 -1</clus>
</clustering>
</event>
<event>
 6    0  0.1080632E+003  0.1513834E+03  0.7546771E-02  0.1198783E+00
         21   -1    0    0  505  501  0.00000000000E+00  0.00000000000E+00  0.11709463377E+04  0.11709463377E+04  0.00000000000E+00 0. -1.
         21   -1    0    0  503  502 -0.00000000000E+00 -0.00000000000E+00 -0.26711294310E+02  0.26711294310E+02  0.00000000000E+00 0. -1.
         21    1    1    2  503  506 -0.62478189414E+02  0.11180427189E+02  0.36711978332E+03  0.37256604973E+03  0.00000000000E+00 0. -1.
         21    1    1    2  504  501 -0.22078723894E+01 -0.34960937997E+02  0.18868437311E+03  0.19190866198E+03  0.00000000000E+00 0. -1.
         21    1    1    2  505  502  0.14072831287E+03  0.45559450741E+02  0.30587406995E+03  0.33976325325E+03  0.00000000000E+00 0. -1.
         21    1    1    2  506  504 -0.76042251068E+02 -0.21778939932E+02  0.28255681698E+03  0.29341966702E+03  0.00000000000E+00 0. -1.
<scales pt_clust_3="40.54466" pt_clust_4="35.03059" pt_clust_5="144.08287" pt_clust_6="40.54466"></scales>
<clustering>
<clus scale="   35.031">  1  4  2 -1</clus>
<clus scale="   40.545">  3  6 -1 -1</clus>
<clus scale="  144.083">  2  5  1 -1</clus>
<clus scale="   35.031">  1  3  2 -1</clus>
</clustering>
</event>
<event>
 6    0  0.1080632E+003  0.1205862E+03  0.7546771E-02  0.1242133E+00
         21   -1    0    0  506  501  0.00000000000E+00  0.00000000000E+00  0.25820395773E+03  0.25820395773E+03  0.00000000000E+00 0. -1.
         21   -1    0    0  505  502 -0.00000000000E+00 -0.00000000000E+00 -0.10238824407E+03  0.10238824407E+03  0.00000000000E+00 0. -1.
         21    1    1    2  503  502 -0.75922238598E+02  0.63575318129E+02  0.10480727263E+02  0.99578376332E+02  0.00000000000E+00 0. -1.
         21    1    1    2  504  503  0.42642704419E+02 -0.63348421811E+02  0.51222451389E+02  0.91951956545E+02  0.00000000000E+00 0. -1.
         21    1    1    2  505  501 -0.14955175008E+02  0.48096036911E+02  0.86852447032E+02  0.10040036644E+03  0.00000000000E+00 0. -1.
         21    1    1    2  506  504  0.48234709187E+02 -0.48322933229E+02  0.72600879694E+01  0.68661502485E+02  0.00000000000E+00 0. -1.
<scales pt_clust_3="113.55066" pt_clust_4="38.37744" pt_clust_5="50.36751" pt_clust_6="38.37744"></scales>
<clustering>
<clus scale="   38.377">  4  6 -1 -1</clus>
<clus scale="   50.368">  1  5  2 -1</clus>
<clus scale="  113.551">  2  3  1 -1</clus>
<clus scale="   50.368">  1  3  2 -1</clus>
</clustering>
</event>
<event>
 6    0  0.1080632E+003  0.8191608E+02  0.7546771E-02  0.1323700E+00
         21   -1    0    0  505  501  0.00000000000E+00  0.00000000000E+00  0.77220731635E+03  0.77220731635E+03  0.00000000000E+00 0. -1.
         21   -1    0    0  506  502 -0.00000000000E+00 -0.00000000000E+00 -0.81106704662E+02  0.81106704662E+02  0.00000000000E+00 0.  1.
         21    1    1    2  503  501 -0.35885014675E+02 -0.74565212196E+02  0.45354228777E+03  0.46102962155E+03  0.00000000000E+00 0. -1.
         21    1    1    2  504  502 -0.51684912459E+02  0.45648033700E+02  0.16588043695E+03  0.17964240179E+03  0.00000000000E+00 0. -1.
         21    1    1    2  505  504  0.30853644217E+02 -0.30419603438E+02  0.11279950317E+03  0.12083471170E+03  0.00000000000E+00 0. -1.
         21    1    1    2  506  503  0.56716282918E+02  0.59336781933E+02 -0.41121616213E+02  0.91807285976E+02  0.00000000000E+00 0.  1.
<scales pt_clust_3="81.91608" pt_clust_4="57.55638" pt_clust_5="43.32782" pt_clust_6="14000.00000"></scales>
<clustering>
<clus scale="   43.328">  1  5  2 -1</clus>
<clus scale="   57.556">  1  4  2 -1</clus>
<clus scale="   81.916">  1  3  2 -1</clus>
<clus scale="   43.328">  1  3  2 -1</clus>
</clustering>
</event>
<event>
 6    0  0.1080632E+003  0.2338948E+03  0.7546771E-02  0.1123928E+00
         21   -1    0    0  505  501  0.00000000000E+00  0.00000000000E+00  0.46095718130E+03  0.46095718130E+03  0.00000000000E+00 0.  1.
         21   -1    0    0  503  502 -0.00000000000E+00 -0.00000000000E+00 -0.28155665885E+03  0.28155665885E+03  0.00000000000E+00 0. -1.
         21    1    1    2  503  501 -0.46044276511E+02  0.20308328081E+03  0.73882026528E+02  0.22095576070E+03  0.00000000000E+00 0.  1.
         21    1    1    2  504  502  0.17245827615E+02  0.38030089629E+02 -0.15588622776E+03  0.16138222421E+03  0.00000000000E+00 0. -1.
         21    1    1    2  505  506 -0.88782857060E+01 -0.75429203346E+02  0.60844251777E+02  0.97316040039E+02  0.00000000000E+00 0. -1.
         21    1    1    2  506  504  0.37676734602E+02 -0.16568416709E+03  0.20056047191E+03  0.26285981520E+03  0.00000000000E+00 0.  1.
<scales pt_clust_3="228.64289" pt_clust_4="41.75771" pt_clust_5="32.95197" pt_clust_6="32.95197"></scales>
<clustering>
<clus scale="   32.952">  5  6 -1 -1</clus>
<clus scale="   41.758">  2  4  1 -1</clus>
<clus scale="  228.643">  2  3  1 -1</clus>
<clus scale="  233.895">  1  3  2 -1</clus>
</clustering>
</event>
<event>
 6    0  0.1080632E+003  0.9565929E+02  0.7546771E-02  0.1289698E+00
         21   -1    0    0  503  501  0.00000000000E+00  0.00000000000E+00  0.77017021948E+03  0.77017021948E+03  0.00000000000E+00 0. -1.
         21   -1    0    0  505  502 -0.00000000000E+00 -0.00000000000E+00 -0.70604725845E+02  0.70604725845E+02  0.00000000000E+00 0. -1.
         21    1    1    2  503  502 -0.27723607073E+02 -0.75059219983E+02  0.45115699602E+03  0.45819768654E+03  0.00000000000E+00 0. -1.
         21    1    1    2  504  501 -0.37384277516E+02 -0.23145738423E+02  0.66016455453E+02  0.79318861585E+02  0.00000000000E+00 0. -1.
         21    1    1    2  505  506  0.51188516246E+02 -0.19807467982E+01 -0.35978930888E+02  0.62599289303E+02  0.00000000000E+00 0. -1.
         21    1    1    2  506  504  0.13919368343E+02  0.10018570521E+03  0.21837097304E+03  0.24065910789E+03  0.00000000000E+00 0. -1.
<scales pt_clust_3="95.65929" pt_clust_4="43.96941" pt_clust_5="50.53322" pt_clust_6="14000.00000"></scales>
<clustering>
<clus scale="   43.969">  1  4  2 -1</clus>
<clus scale="   50.533">  2  5  1 -1</clus>
<clus scale="   95.659">  1  3  2 -1</clus>
<clus scale="   43.969">  1  3  2 -1</clus>
</clustering>
</event>
<event>
 6    0  0.3240945E+003  0.9044365E+02  0.7546771E-02  0.1301781E+00
         21   -1    0    0  506  501  0.00000000000E+00  0.00000000000E+00  0.98834965419E+03  0.98834965419E+03  0.00000000000E+00 0. -1.
         21   -1    0    0  504  502 -0.00000000000E+00 -0.00000000000E+00 -0.91851179226E+03  0.91851179226E+03  0.00000000000E+00 0. -1.
         21    1    1    2  503  501 -0.94210438696E+02  0.53586819886E+01  0.68858362189E+03  0.69501922748E+03  0.00000000000E+00 0. -1.
         21    1    1    2  504  505 -0.13932387937E+02 -0.56155156025E+02  0.69691748077E+02  0.90578434143E+02  0.00000000000E+00 0.  1.
         21    1    1    2  505  503  0.81315100070E+02  0.10527898793E+02  0.20797078926E+03  0.22355051183E+03  0.00000000000E+00 0. -1.
         21    1    1    2  506  502  0.26827726563E+02  0.40268575244E+02 -0.89640829730E+03  0.89771327300E+03  0.00000000000E+00 0. -1.
<scales pt_clust_3="14000.00000" pt_clust_4="36.56094" pt_clust_5="90.44365" pt_clust_6="48.38683"></scales>
<clustering>
<clus scale="   48.387">  2  6  1 -1</clus>
<clus scale="   36.561">  2  4  1 -1</clus>
<clus scale="   90.444">  2  5  1 -1</clus>
<clus scale="   90.444">  1  3  2 -1</clus>
</clustering>
</event>
<event>
 6    0  0.1080632E+003  0.2934490E+03  0.7546771E-02  0.1088562E+00
         21   -1    0    0  506  501  0.00000000000E+00  0.00000000000E+00  0.45949624641E+03  0.45949624641E+03  0.00000000000E+00 0.  1.
         21   -1    0    0  501  502 -0.00000000000E+00 -0.00000000000E+00 -0.48108811133E+03  0.48108811133E+03  0.00000000000E+00 0. -1.
         21    1    1    2  503  505 -0.53874958238E+02  0.16481240831E+02 -0.60453417342E+01  0.56662938339E+02  0.00000000000E+00 0.  1.
         21    1    1    2  504  503 -0.88898478586E+02  0.23452519645E+03  0.17980266419E+01  0.25081515138E+03  0.00000000000E+00 0.  1.
         21    1    1    2  505  502  0.11287295975E+03 -0.24372920002E+03 -0.26866931643E+03  0.37990450060E+03  0.00000000000E+00 0. -1.
         21    1    1    2  506  504  0.29900477077E+02 -0.72772372573E+01  0.25132476661E+03  0.25320176742E+03  0.00000000000E+00 0.  1.
<scales pt_clust_3="49.32597" pt_clust_4="49.32597" pt_clust_5="273.81753" pt_clust_6="30.77331"></scales>
<clustering>
<clus scale="   30.773">  1  6  2 -1</clus>
<clus scale="   49.326">  3  4 -1 -1</clus>
<clus scale="  273.818">  2  5  1 -1</clus>
<clus scale="   30.773">  1  3  2 -1</clus>
</clustering>
</event>
<event>
 6    0  0.1080632E+003  0.1239144E+03  0.7546771E-02  0.1236776E+00
         21   -1    0    0  505  501  0.00000000000E+00  0.00000000000E+00  0.79747133267E+03  0.79747133267E+03  0.00000000000E+00 0. -1.
         21   -1    0    0  504  502 -0.00000000000E+00 -0.00000000000E+00 -0.99697337223E+02  0.99697337223E+02  0.00000000000E+00 0. -1.
         21    1    1    2  503  502 -0.63403391410E+02  0.77521522867E+02  0.99059897402E+02  0.14086319542E+03  0.00000000000E+00 0. -1.
         21    1    1    2  504  506 -0.29092829937E+02 -0.12728499182E+02 -0.38245660156E+02  0.49710541798E+02  0.00000000000E+00 0.  1.
         21    1    1    2  505  503  0.17416320887E+03  0.17115726633E+02  0.26927268991E+03  0.32114413112E+03  0.00000000000E+00 0. -1.
         21    1    1    2  506  501 -0.81666987528E+02 -0.81908750318E+02  0.36768706829E+03  0.38545080156E+03  0.00000000000E+00 0. -1.
<scales pt_clust_3="103.99558" pt_clust_4="31.75543" pt_clust_5="123.91437" pt_clust_6="14000.00000"></scales>
<clustering>
<clus scale="   31.755">  2  4  1 -1</clus>
<clus scale="  103.996">  2  3  1 -1</clus>
<clus scale="  123.914">  2  5  1 -1</clus>
<clus scale="  123.914">  1  3  2 -1</clus>
</clustering>
</event>
<event>
 6    0  0.1080632E+003  0.1210229E+03  0.7546771E-02  0.1241419E+00
         21   -1    0    0  504  501  0.00000000000E+00  0.00000000000E+00  0.25684306042E+04  0.25684306042E+04  0.00000000000E+00 0. -1.
         21   -1    0    0  503  502 -0.00000000000E+00 -0.00000000000E+00 -0.13326947351E+03  0.13326947351E+03  0.00000000000E+00 0.  1.
         21    1    1    2  503  501  0.34763767329E+02 -0.36564435888E+02  0.11214664454E+04  0.11226007596E+04  0.00000000000E+00 0. -1.
         21    1    1    2  504  505 -0.72551900250E+02  0.23791707720E+02  0.82596568473E+03  0.82948727292E+03  0.00000000000E+00 0. -1.
         21    1    1    2  505  506 -0.78089232803E+02  0.84325590180E+01  0.58987421161E+03  0.59508034908E+03  0.00000000000E+00 0. -1.
         21    1    1    2  506  502  0.11587736572E+03  0.43401691497E+01 -0.10214521101E+03  0.15453169606E+03  0.00000000000E+00 0.  1.
<scales pt_clust_3="50.45273" pt_clust_4="32.08757" pt_clust_5="32.08757" pt_clust_6="116.56495"></scales>
<clustering>
<clus scale="   32.088">  4  5 -1 -1</clus>
<clus scale="   50.453">  1  3  2 -1</clus>
<clus scale="  116.565">  2  6  1 -1</clus>
<clus scale="   50.453">  1  3  2 -1</clus>
</clustering>
</event>
<event>
 6    0  0.1080632E+003  0.1429998E+03  0.7546771E-02  0.1209349E+00
         21   -1    0    0  504  501  0.00000000000E+00  0.00000000000E+00  0.83117614653E+02  0.83117614653E+02  0.00000000000E+00 0. -1.
         21   -1    0    0  503  502 -0.00000000000E+00 -0.00000000000E+00 -0.12971063214E+04  0.12971063214E+04  0.00000000000E+00 0.  1.
         21    1    1    2  503  506  0.12168257916E+02  0.13567138450E+03 -0.11898372532E+04  0.11976090681E+04  0.00000000000E+00 0.  1.
         21    1    1    2  504  502  0.37143426107E+02 -0.10483078006E+02 -0.11477555314E+02  0.40264914050E+02  0.00000000000E+00 0. -1.
         21    1    1    2  505  501 -0.23207350235E+02 -0.55437798994E+02  0.16565399280E+02  0.62340541508E+02  0.00000000000E+00 0. -1.
         21    1    1    2  506  505 -0.26104333788E+02 -0.69750507498E+02 -0.29239297494E+02  0.80009412301E+02  0.00000000000E+00 0. -1.
<scales pt_clust_3="135.83014" pt_clust_4="38.59442" pt_clust_5="40.57594" pt_clust_6="40.57594"></scales>
<clustering>
<clus scale="   38.594">  1  4  2 -1</clus>
<clus scale="   40.576">  5  6 -1 -1</clus>
<clus scale="  135.830">  2  3  1 -1</clus>
<clus scale="   38.594">  1  3  2 -1</clus>
</clustering>
</event>
<event>
 6    0  0.1080632E+003  0.7639526E+02  0.7546771E-02  0.1339604E+00
         21   -1    0    0  504  501  0.00000000000E+00  0.00000000000E+00  0.96383370328E+02  0.96383370328E+02  0.00000000000E+00 0.  1.
         21   -1    0    0  506  502 -0.00000000000E+00 -0.00000000000E+00 -0.68441254110E+03  0.68441254110E+03  0.00000000000E+00 0.  1.
         21    1    1    2  503  501 -0.26481805079E+02  0.46225864550E+02  0.65097354539E+02  0.84117668308E+02  0.00000000000E+00 0.  1.
         21    1    1    2  504  502  0.82140935835E+02 -0.57005140290E+02 -0.44473011575E+03  0.45583066506E+03  0.00000000000E+00 0.  1.
         21    1    1    2  505  503 -0.66444233885E+02 -0.31656424418E+02 -0.15653731037E+03  0.17297657344E+03  0.00000000000E+00 0.  1.
         21    1    1    2  506  505  0.10785103128E+02  0.42435700159E+02 -0.51859099195E+02  0.67871004610E+02  0.00000000000E+00 0.  1.
<scales pt_clust_3="53.75503" pt_clust_4="76.39526" pt_clust_5="14000.00000" pt_clust_6="43.78478"></scales>
<clustering>
<clus scale="   43.785">  2  6  1 -1</clus>
<clus scale="   53.755">  1  3  2 -1</clus>
<clus scale="   76.395">  2  4  1 -1</clus>
<clus scale="   53.755">  1  3  2 -1</clus>
</clustering>
</event>
<event>
 6    0  0.1080632E+003  0.1218286E+03  0.7546771E-02  0.1240111E+00
         21   -1    0    0  503  501  0.00000000000E+00  0.00000000000E+00  0.14036862939E+04  0.14036862939E+04  0.00000000000E+00 0.  1.
         21   -1    0    0  504  502 -0.00000000000E+00 -0.00000000000E+00 -0.98804702638E+02  0.98804702638E+02  0.00000000000E+00 0. -1.
         21    1    1    2  503  506 -0.40664170381E+02  0.43733381261E+02  0.10271226119E+04  0.10288571539E+04  0.00000000000E+00 0.  1.
         21    1    1    2  504  501  0.53790985067E+02  0.92458267743E+02 -0.47096136817E+02  0.11687620567E+03  0.00000000000E+00 0. -1.
         21    1    1    2  505  502 -0.10015002020E+02 -0.67037346478E+02  0.94979132989E+02  0.11668479675E+03  0.00000000000E+00 0.  1.
         21    1    1    2  506  505 -0.31118126664E+01 -0.69154302526E+02  0.22987598328E+03  0.24007284025E+03  0.00000000000E+00 0.  1.
<scales pt_clust_3="59.71753" pt_clust_4="108.70837" pt_clust_5="54.42093" pt_clust_6="54.42093"></scales>
<clustering>
<clus scale="   54.421">  5  6 -1 -1</clus>
<clus scale="   59.718">  1  3  2 -1</clus>
<clus scale="  108.708">  2  4  1 -1</clus>
<clus scale="   59.718">  1  3  2 -1</clus>
</clustering>
</event>
<event>
 6    0  0.1080632E+003  0.1083291E+03  0.7546771E-02  0.1263696E+00
         21   -1    0    0  503  501  0.00000000000E+00  0.00000000000E+00  0.69564575235E+02  0.69564575235E+02  0.00000000000E+00 0. -1.
         21   -1    0    0  506  502 -0.00000000000E+00 -0.00000000000E+00 -0.13611083081E+04  0.13611083081E+04  0.00000000000E+00 0.  1.
         21    1    1    2  503  505  0.58640515138E+02  0.22134279680E+02  0.31088457969E+02  0.69965195430E+02  0.00000000000E+00 0. -1.
         21    1    1    2  504  501  0.40196287611E+02  0.42104667388E+02 -0.40733733881E+02  0.71047741902E+02  0.00000000000E+00 0. -1.
         21    1    1    2  505  502 -0.12140832755E+02 -0.42930825020E+02 -0.64413704049E+03  0.64568024787E+03  0.00000000000E+00 0.  1.
         21    1    1    2  506  504 -0.86695969993E+02 -0.21308122048E+02 -0.63776141641E+03  0.64397969808E+03  0.00000000000E+00 0.  1.
<scales pt_clust_3="108.32914" pt_clust_4="55.15775" pt_clust_5="44.61452" pt_clust_6="14000.00000"></scales>
<clustering>
<clus scale="   44.615">  2  5  1 -1</clus>
<clus scale="   55.158">  1  4  2 -1</clus>
<clus scale="  108.329">  1  3  2 -1</clus>
<clus scale="   55.158">  1  3  2 -1</clus>
</clustering>
</event>
<event>
 6    0  0.1080632E+003  0.5779307E+02  0.7546771E-02  0.1407334E+00
         21   -1    0    0  504  501  0.00000000000E+00  0.00000000000E+00  0.20692253381E+04  0.20692253381E+04  0.00000000000E+00 0. -1.
         21   -1    0    0  505  502 -0.00000000000E+00 -0.00000000000E+00 -0.52410027876E+02  0.52410027876E+02  0.00000000000E+00 0. -1.
         21    1    1    2  503  506  0.45790506194E+02  0.52346704965E+02  0.10875115671E+03  0.12908819491E+03  0.00000000000E+00 0. -1.
         21    1    1    2  504  503 -0.11725077307E+02 -0.56447023388E+02  0.18519707322E+04  0.18528678682E+04  0.00000000000E+00 0. -1.
         21    1    1    2  505  501 -0.32259679112E+02  0.59741686317E+02  0.12649565600E+02  0.69063503316E+02  0.00000000000E+00 0. -1.
         21    1    1    2  506  502 -0.18057497753E+01 -0.55641367894E+02  0.43443855688E+02  0.70615799581E+02  0.00000000000E+00 0. -1.
<scales pt_clust_3="57.79307" pt_clust_4="14000.00000" pt_clust_5="38.73211" pt_clust_6="55.67066"></scales>
<clustering>
<clus scale="   55.671">  2  6  1 -1</clus>
<clus scale="   38.732">  2  5  1 -1</clus>
<clus scale="   57.793">  2  3  1 -1</clus>
<clus scale="   57.793">  1  3  2 -1</clus>
</clustering>
</event>
<event>
 6    0  0.2425967E+003  0.1480711E+03  0.7546771E-02  0.1202863E+00
         21   -1    0    0  503  501  0.00000000000E+00  0.00000000000E+00  0.90966971599E+03  0.90966971599E+03  0.00000000000E+00 0. -1.
         21   -1    0    0  504  502 -0.00000000000E+00 -0.00000000000E+00 -0.13203071129E+04  0.13203071129E+04  0.00000000000E+00 0. -1.
         21    1    1    2  503  506 -0.37904248988E+02  0.34950530830E+02  0.55132694896E+03  0.55373249529E+03  0.00000000000E+00 0. -1.
         21    1    1    2  504  505  0.14740326646E+03 -0.21243198467E+02 -0.12990444693E+04  0.13075532608E+04  0.00000000000E+00 0. -1.
         21    1    1    2  505  501 -0.18683709030E+02 -0.45852935842E+02  0.79193196084E+02  0.93397724889E+02  0.00000000000E+00 0.  1.
         21    1    1    2  506  502 -0.90815308444E+02  0.32145603479E+02  0.25788692742E+03  0.27529334791E+03  0.00000000000E+00 0. -1.
<scales pt_clust_3="50.61500" pt_clust_4="14000.00000" pt_clust_5="49.51336" pt_clust_6="148.07108"></scales>
<clustering>
<clus scale="   49.513">  1  5  2 -1</clus>
<clus scale="   50.615">  1  3  2 -1</clus>
<clus scale="  148.071">  1  6  2 -1</clus>
<clus scale="   49.513">  1  3  2 -1</clus>
</clustering>
</event>
<event>
 6    0  0.1080632E+003  0.1275984E+03  0.7546771E-02  0.1231063E+00
         21   -1    0    0  503  501  0.00000000000E+00  0.00000000000E+00  0.11869594814E+04  0.11869594814E+04  0.00000000000E+00 0. -1.
         21   -1    0    0  506  502 -0.00000000000E+00 -0.00000000000E+00 -0.75724190374E+03  0.75724190374E+03  0.00000000000E+00 0. -1.
         21    1    1    2  503  504  0.94002287703E+00 -0.61933059590E+02  0.85481816392E+02  0.10556385957E+03  0.00000000000E+00 0. -1.
         21    1    1    2  504  502 -0.57000285049E+02 -0.82979018992E+02  0.89504497016E+02  0.13470562377E+03  0.00000000000E+00 0. -1.
         21    1    1    2  505  501  0.35276893326E+02  0.32240614336E+02  0.97421319657E+03  0.97538467734E+03  0.00000000000E+00 0. -1.
         21    1    1    2  506  505  0.20783368846E+02  0.11267146425E+03 -0.71948193235E+03  0.72854722445E+03  0.00000000000E+00 0. -1.
<scales pt_clust_3="42.72582" pt_clust_4="42.72582" pt_clust_5="47.79034" pt_clust_6="115.38801"></scales>
<clustering>
<clus scale="   42.726">  3  4 -1 -1</clus>
<clus scale="   47.790">  1  5  2 -1</clus>
<clus scale="  115.388">  2  6  1 -1</clus>
<clus scale="   47.790">  1  3  2 -1</clus>
</clustering>
</event>
<event>
 6    0  0.1080632E+003  0.1233989E+03  0.7546771E-02  0.1237593E+00
         21   -1    0    0  505  501  0.00000000000E+00  0.00000000000E+00  0.22283174992E+03  0.22283174992E+03  0.00000000000E+00 0.  1.
         21   -1    0    0  504  502 -0.00000000000E+00 -0.00000000000E+00 -0.28353616867E+03  0.28353616867E+03  0.00000000000E+00 0.  1.
         21    1    1    2  503  506  0.88328316742E+02  0.18596303396E+01 -0.25414018331E+02  0.91930528614E+02  0.00000000000E+00 0.  1.
         21    1    1    2  504  503  0.61919460525E+02 -0.29553169759E+02 -0.27109987547E+02  0.73772358369E+02  0.00000000000E+00 0.  1.
         21    1    1    2  505  502 -0.62212111638E+02 -0.44815340579E+02 -0.14410297652E+03  0.16323121462E+03  0.00000000000E+00 0.  1.
         21    1    1    2  506  501 -0.88035665629E+02  0.72508879998E+02  0.13592256364E+03  0.17743381698E+03  0.00000000000E+00 0.  1.
<scales pt_clust_3="32.46707" pt_clust_4="32.46707" pt_clust_5="76.67308" pt_clust_6="117.77067"></scales>
<clustering>
<clus scale="   32.467">  3  4 -1 -1</clus>
<clus scale="   76.673">  2  5  1 -1</clus>
<clus scale="  117.771">  1  6  2 -1</clus>
<clus scale="  117.771">  1  3  2 -1</clus>
</clustering>
</event>
<event>
 6    0  0.1080632E+003  0.1174230E+03  0.7546771E-02  0.1247410E+00
         21   -1    0    0  506  501  0.00000000000E+00  0.00000000000E+00  0.38639441108E+03  0.38639441108E+03  0.00000000000E+00 0.  1.
         21   -1    0    0  505  502 -0.00000000000E+00 -0.00000000000E+00 -0.11029482458E+03  0.11029482458E+03  0.00000000000E+00 0. -1.
         21    1    1    2  503  504  0.17656938111E+02  0.61375502817E+02  0.38033325815E+02  0.74332050167E+02  0.00000000000E+00 0. -1.
         21    1    1    2  504  502  0.38436233606E+02 -0.69326623694E+01 -0.67449121527E+02  0.77940938256E+02  0.00000000000E+00 0. -1.
         21    1    1    2  505  501 -0.61601725686E+02 -0.97368421726E+02  0.23393534275E+03  0.26077025663E+03  0.00000000000E+00 0.  1.
         21    1    1    2  506  503  0.55085539683E+01  0.42925581278E+02  0.71580039462E+02  0.83645990605E+02  0.00000000000E+00 0. -1.
<scales pt_clust_3="32.16365" pt_clust_4="39.05644" pt_clust_5="110.73184" pt_clust_6="32.16365"></scales>
<clustering>
<clus scale="   32.164">  3  6 -1 -1</clus>
<clus scale="   39.056">  2  4  1 -1</clus>
<clus scale="  110.732">  1  5  2 -1</clus>
<clus scale="  110.732">  1  3  2 -1</clus>
</clustering>
</event>
<event>
 6    0  0.1080632E+003  0.8238030E+02  0.7546771E-02  0.1322429E+00
         21   -1    0    0  506  501  0.00000000000E+00  0.00000000000E+00  0.52936515540E+02  0.52936515540E+02  0.00000000000E+00 0. -1.
         21   -1    0    0  504  502 -0.00000000000E+00 -0.00000000000E+00 -0.15337147209E+04  0.15337147209E+04  0.00000000000E+00 0. -1.
         21    1    1    2  503  501  0.42454620867E+02 -0.23213125663E+02  0.58557769249E+01  0.48739451776E+02  0.00000000000E+00 0. -1.
         21    1    1    2  504  503  0.35305569472E+02  0.70148726394E+02 -0.76438250898E+02  0.10959075349E+03  0.00000000000E+00 0. -1.
         21    1    1    2  505  502  0.23811508896E+02 -0.39572724798E+02 -0.11167841337E+04  0.11177386948E+04  0.00000000000E+00 0. -1.
         21    1    1    2  506  505 -0.10157169924E+03 -0.73628759323E+01 -0.29341159767E+03  0.31058233639E+03  0.00000000000E+00 0. -1.
<scales pt_clust_3="50.45381" pt_clust_4="14000.00000" pt_clust_5="46.18429" pt_clust_6="82.38030"></scales>
<clustering>
<clus scale="   46.184">  2  5  1 -1</clus>
<clus scale="   50.454">  1  3  2 -1</clus>
<clus scale="   82.380">  2  6  1 -1</clus>
<clus scale="   50.454">  1  3  2 -1</clus>
</clustering>
</event>
<event>
 6    0  0.1080632E+003  0.7976937E+02  0.7546771E-02  0.1329707E+00
         21   -1    0    0  505  501  0.00000000000E+00  0.00000000000E+00  0.63811530095E+02  0.63811530095E+02  0.00000000000E+00 0. -1.
         21   -1    0    0  503  502 -0.00000000000E+00 -0.00000000000E+00 -0.12787555458E+04  0.12787555458E+04  0.00000000000E+00 0. -1.
         21    1    1    2  503  506  0.28555389096E+02 -0.76162967360E+02 -0.11185947410E+04  0.11215482168E+04  0.00000000000E+00 0. -1.
         21    1    1    2  504  502 -0.67474510020E+02  0.39606934585E+02 -0.74967138438E+02  0.10835862040E+03  0.00000000000E+00 0. -1.
         21    1    1    2  505  504 -0.44754412096E+01  0.48019886861E+02  0.19431192778E+02  0.51995291719E+02  0.00000000000E+00 0. -1.
         21    1    1    2  506  501  0.43394562134E+02 -0.11463854086E+02 -0.40813329055E+02  0.60664947060E+02  0.00000000000E+00 0. -1.
<scales pt_clust_3="79.76937" pt_clust_4="14000.00000" pt_clust_5="47.15606" pt_clust_6="44.88327"></scales>
<clustering>
<clus scale="   44.883">  1  6  2 -1</clus>
<clus scale="   47.156">  1  5  2 -1</clus>
<clus scale="   79.769">  2  3  1 -1</clus>
<clus scale="   44.883">  1  3  2 -1</clus>
</clustering>
</event>
<event>
 6    0  0.1080632E+003  0.1450876E+03  0.7546771E-02  0.1206643E+00
         21   -1    0    0  503  501  0.00000000000E+00  0.00000000000E+00  0.90999908370E+03  0.90999908370E+03  0.00000000000E+00 0. -1.
         21   -1    0    0  501  502 -0.00000000000E+00 -0.00000000000E+00 -0.25855615403E+03  0.25855615403E+03  0.00000000000E+00 0.  1.
         21    1    1    2  503  504 -0.25631109152E+02 -0.26704958779E+02  0.16612837073E+03  0.17020206856E+03  0.00000000000E+00 0. -1.
         21    1    1    2  504  505 -0.53112450679E+02 -0.90296208897E+01  0.63410882040E+03  0.63639332380E+03  0.00000000000E+00 0. -1.
         21    1    1    2  505  506 -0.49437781313E+02 -0.74877213282E+02  0.48486551575E+02  0.10198841588E+03  0.00000000000E+00 0. -1.
         21    1    1    2  506  502  0.12818134114E+03  0.11061179295E+03 -0.19728081304E+03  0.25997142949E+03  0.00000000000E+00 0.  1.
<scales pt_clust_3="37.01498" pt_clust_4="81.55748" pt_clust_5="145.08761" pt_clust_6="14000.00000"></scales>
<clustering>
<clus scale="   37.015">  1  3  2 -1</clus>
<clus scale="   81.557">  1  4  2 -1</clus>
<clus scale="  145.088">  1  5  2 -1</clus>
<clus scale="   37.015">  1  3  2 -1</clus>
</clustering>
</event>
<event>
 6    0  0.1080632E+003  0.1244029E+03  0.7546771E-02  0.1236005E+00
         21   -1    0    0  506  501  0.00000000000E+00  0.00000000000E+00  0.30729674931E+03  0.30729674931E+03  0.00000000000E+00 0.  1.
         21   -1    0    0  505  502 -0.00000000000E+00 -0.00000000000E+00 -0.10114142300E+03  0.10114142300E+03  0.00000000000E+00 0.  1.
         21    1    1    2  503  501 -0.39594364671E+02  0.10629981150E+03  0.18426801914E+03  0.21638407177E+03  0.00000000000E+00 0.  1.
         21    1    1    2  504  502  0.22284324727E+02 -0.61703875653E+02  0.21277262115E+02  0.68968697844E+02  0.00000000000E+00 0.  1.
         21    1    1    2  505  503 -0.43466512247E+02 -0.16966311865E+01 -0.16888959136E+02  0.46663188757E+02  0.00000000000E+00 0.  1.
         21    1    1    2  506  504  0.60776552192E+02 -0.42899304656E+02  0.17499004191E+02  0.76422213943E+02  0.00000000000E+00 0.  1.
<scales pt_clust_3="116.97052" pt_clust_4="39.77533" pt_clust_5="43.49961" pt_clust_6="39.77533"></scales>
<clustering>
<clus scale="   39.775">  4  6 -1 -1</clus>
<clus scale="   43.500">  2  5  1 -1</clus>
<clus scale="  116.971">  1  3  2 -1</clus>
<clus scale="  116.971">  1  3  2 -1</clus>
</clustering>
</event>
<event>
 6    0  0.1080632E+003  0.1665228E+03  0.7546771E-02  0.1181523E+00
         21   -1    0    0  506  501  0.00000000000E+00  0.00000000000E+00  0.62409930939E+03  0.62409930939E+03  0.00000000000E+00 0. -1.
         21   -1    0    0  503  502 -0.00000000000E+00 -0.00000000000E+00 -0.72657668255E+03  0.72657668255E+03  0.00000000000E+00 0.  1.
         21    1    1    2  503  505  0.54638890595E+02 -0.50011211734E+02 -0.62087418668E+03  0.62527696691E+03  0.00000000000E+00 0.  1.
         21    1    1    2  504  501 -0.32996116187E+02  0.24182540242E+01  0.96602784869E+02  0.10211116335E+03  0.00000000000E+00 0.  1.
         21    1    1    2  505  504 -0.92013106646E+01 -0.12260405161E+03 -0.41341120752E+02  0.12971316762E+03  0.00000000000E+00 0.  1.
         21    1    1    2  506  502 -0.12441463744E+02  0.17019700932E+03  0.46313514940E+03  0.49357469406E+03  0.00000000000E+00 0. -1.
<scales pt_clust_3="73.96220" pt_clust_4="33.08461" pt_clust_5="166.52278" pt_clust_6="14000.00000"></scales>
<clustering>
<clus scale="   33.085">  1  4  2 -1</clus>
<clus scale="   73.962">  2  3  1 -1</clus>
<clus scale="  166.523">  2  5  1 -1</clus>
<clus scale="   33.085">  1  3  2 -1</clus>
</clustering>
</event>
<event>
 6    0  0.1080632E+003  0.6776369E+02  0.7546771E-02  0.1367867E+00
         21   -1    0    0  506  501  0.00000000000E+00  0.00000000000E+00  0.72417083201E+01  0.72417083201E+01  0.00000000000E+00 0. -1.
         21   -1    0    0  503  502 -0.00000000000E+00 -0.00000000000E+00 -0.27066710516E+04  0.27066710516E+04  0.00000000000E+00 0. -1.
         21    1    1    2  503  504 -0.42297830320E+02  0.49025697447E+02 -0.96397185910E+03  0.96614407341E+03  0.00000000000E+00 0.  1.
         21    1    1    2  504  501  0.54693158778E+02  0.43960492188E+02 -0.43655327699E+03  0.44215679362E+03  0.00000000000E+00 0. -1.
         21    1    1    2  505  502  0.33400287071E+02 -0.64716815337E+02 -0.92384869223E+03  0.92671476275E+03  0.00000000000E+00 0. -1.
         21    1    1    2  506  505 -0.45795615529E+02 -0.28269374298E+02 -0.37505551497E+03  0.37889713015E+03  0.00000000000E+00 0. -1.
<scales pt_clust_3="14000.00000" pt_clust_4="42.19530" pt_clust_5="67.76369" pt_clust_6="53.81817"></scales>
<clustering>
<clus scale="   53.818">  1  6  2 -1</clus>
<clus scale="   42.195">  1  4  2 -1</clus>
<clus scale="   67.764">  1  5  2 -1</clus>
<clus scale="   53.818">  1  3  2 -1</clus>
</clustering>
</event>
<event>
 6    0  0.1080632E+003  0.1044702E+03  0.7546771E-02  0.1271167E+00
         21   -1    0    0  506  501  0.00000000000E+00  0.00000000000E+00  0.45494113060E+03  0.45494113060E+03  0.00000000000E+00 0.  1.
         21   -1    0    0  503  502 -0.00000000000E+00 -0.00000000000E+00 -0.36348076742E+03  0.36348076742E+03  0.00000000000E+00 0.  1.
         21    1    1    2  503  501 -0.20235099669E+02 -0.44511120380E+02  0.30017555628E+02  0.57373798393E+02  0.00000000000E+00 0.  1.
         21    1    1    2  504  505  0.10061466665E+03  0.17140154299E+02 -0.90588461687E+02  0.13646745189E+03  0.00000000000E+00 0.  1.
         21    1    1    2  505  502  0.23696670751E+02  0.38154066203E+02 -0.22698539491E+03  0.23138633165E+03  0.00000000000E+00 0.  1.
         21    1    1    2  506  504 -0.10407623773E+03 -0.10783100123E+02  0.37901666414E+03  0.39319431609E+03  0.00000000000E+00 0.  1.
<scales pt_clust_3="44.36220" pt_clust_4="104.47024" pt_clust_5="44.91397" pt_clust_6="14000.00000"></scales>
<clustering>
<clus scale="   44.914">  2  5  1 -1</clus>
<clus scale="   44.362">  2  3  1 -1</clus>
<clus scale="  104.470">  2  4  1 -1</clus>
<clus scale="  104.470">  1  3  2 -1</clus>
</clustering>
</event>
<event>
 6    0  0.1080632E+003  0.8508114E+02  0.7546771E-02  0.1315220E+00
         21   -1    0    0  506  501  0.00000000000E+00  0.00000000000E+00  0.67004221881E+03  0.67004221881E+03  0.00000000000E+00 0.  1.
         21   -1    0    0  505  502 -0.00000000000E+00 -0.00000000000E+00 -0.18559509488E+03  0.18559509488E+03  0.00000000000E+00 0.  1.
         21    1    1    2  503  504 -0.56988106774E+02 -0.46882206327E+02  0.45655328663E+02  0.86775541594E+02  0.00000000000E+00 0. -1.
         21    1    1    2  504  501  0.65402670102E+02 -0.68181867497E+00  0.54420635918E+03  0.54812273763E+03  0.00000000000E+00 0.  1.
         21    1    1    2  505  503 -0.83149993139E+02  0.40590017201E+02 -0.11213190921E+03  0.14537893904E+03  0.00000000000E+00 0.  1.
         21    1    1    2  506  502  0.74735429811E+02  0.69740078009E+01  0.67173452938E+01  0.75360095420E+02  0.00000000000E+00 0.  1.
<scales pt_clust_3="52.12982" pt_clust_4="65.40622" pt_clust_5="14000.00000" pt_clust_6="85.08114"></scales>
<clustering>
<clus scale="   65.406">  1  4  2 -1</clus>
<clus scale="   52.130">  1  3  2 -1</clus>
<clus scale="   85.081">  1  6  2 -1</clus>
<clus scale="   65.406">  1  3  2 -1</clus>
</clustering>
</event>
<event>
 6    0  0.1080632E+003  0.8199618E+02  0.7546771E-02  0.1323480E+00
         21   -1    0    0  505  501  0.00000000000E+00  0.00000000000E+00  0.14737988650E+02  0.14737988650E+02  0.00000000000E+00 0.  1.
         21   -1    0    0  503  502 -0.00000000000E+00 -0.00000000000E+00 -0.19029439066E+04  0.19029439066E+04  0.00000000000E+00 0.  1.
         21    1    1    2  503  506 -0.56930294970E+02  0.56821375852E+02 -0.77624555224E+03  0.78040174565E+03  0.00000000000E+00 0.  1.
         21    1    1    2  504  502 -0.16072009875E+01 -0.35622217566E+02 -0.39125264604E+03  0.39287422735E+03  0.00000000000E+00 0.  1.
         21    1    1    2  505  504 -0.23836318237E+02  0.58173952510E+02 -0.15529913614E+03  0.16754163812E+03  0.00000000000E+00 0.  1.
         21    1    1    2  506  501  0.82373814194E+02 -0.79373110797E+02 -0.56540858355E+03  0.57686428416E+03  0.00000000000E+00 0.  1.
<scales pt_clust_3="81.99618" pt_clust_4="35.65846" pt_clust_5="59.43297" pt_clust_6="14000.00000"></scales>
<clustering>
<clus scale="   35.658">  2  4  1 -1</clus>
<clus scale="   59.433">  1  5  2 -1</clus>
<clus scale="   81.996">  2  3  1 -1</clus>
<clus scale="   59.433">  1  3  2 -1</clus>
</clustering>
</event>
<event>
 6    0  0.1080632E+003  0.9162427E+02  0.7546771E-02  0.1298965E+00
         21   -1    0    0  506  501  0.00000000000E+00  0.00000000000E+00  0.21825360295E+03  0.21825360295E+03  0.00000000000E+00 0.  1.
         21   -1    0    0  504  502 -0.00000000000E+00 -0.00000000000E+00 -0.35485550554E+03  0.35485550554E+03  0.00000000000E+00 0.  1.
         21    1    1    2  503  502  0.60631654328E+02  0.29198072748E+02 -0.21605507120E+03  0.22629299315E+03  0.00000000000E+00 0.  1.
         21    1    1    2  504  505 -0.16443564225E+02  0.54352221914E+02 -0.84178357283E+02  0.10154088175E+03  0.00000000000E+00 0.  1.
         21    1    1    2  505  501  0.28030331064E+02  0.18643711632E+02 -0.62912191065E+01  0.34247144127E+02  0.00000000000E+00 0.  1.
         21    1    1    2  506  503 -0.72218421168E+02 -0.10219400629E+03  0.16992274499E+03  0.21102808947E+03  0.00000000000E+00 0.  1.
<scales pt_clust_3="14000.00000" pt_clust_4="57.21498" pt_clust_5="33.66433" pt_clust_6="91.62427"></scales>
<clustering>
<clus scale="   33.664">  1  5  2 -1</clus>
<clus scale="   57.215">  2  4  1 -1</clus>
<clus scale="   91.624">  1  6  2 -1</clus>
<clus scale="   33.664">  1  3  2 -1</clus>
</clustering>
</event>
<event>
 6    0  0.1080632E+003  0.1196864E+03  0.7546771E-02  0.1243615E+00
         21   -1    0    0  503  501  0.00000000000E+00  0.00000000000E+00  0.29853406403E+02  0.29853406403E+02  0.00000000000E+00 0. -1.
         21   -1    0    0  504  502 -0.00000000000E+00 -0.00000000000E+00 -0.29275096778E+04  0.29275096778E+04  0.00000000000E+00 0. -1.
         21    1    1    2  503  505 -0.15575037299E+02  0.83214620546E+02 -0.15999002632E+03  0.18100846218E+03  0.00000000000E+00 0. -1.
         21    1    1    2  504  506  0.32142569999E+02 -0.10036003218E+03 -0.23035971519E+03  0.25331971745E+03  0.00000000000E+00 0. -1.
         21    1    1    2  505  502  0.23224769983E+01  0.59700252145E+02 -0.24425365242E+04  0.24432671131E+04  0.00000000000E+00 0. -1.
         21    1    1    2  506  501 -0.18890009699E+02 -0.42554840511E+02 -0.64770005708E+02  0.79767791474E+02  0.00000000000E+00 0. -1.
<scales pt_clust_3="105.25863" pt_clust_4="37.86665" pt_clust_5="59.74541" pt_clust_6="37.86665"></scales>
<clustering>
<clus scale="   37.867">  4  6 -1 -1</clus>
<clus scale="   59.745">  2  5  1 -1</clus>
<clus scale="  105.259">  1  3  2 -1</clus>
<clus scale="  105.259">  1  3  2 -1</clus>
</clustering>
</event>
<event>
 6    0  0.1080632E+003  0.7995628E+02  0.7546771E-02  0.1329176E+00
         21   -1    0    0  505  501  0.00000000000E+00  0.00000000000E+00  0.22737428075E+03  0.22737428075E+03  0.00000000000E+00 0. -1.
         21   -1    0    0  506  502 -0.00000000000E+00 -0.00000000000E+00 -0.10708757469E+04  0.10708757469E+04  0.00000000000E+00 0.  1.
         21    1    1    2  503  504  0.47336264817E+02  0.20104850911E+02  0.44840988677E+00  0.51430808552E+02  0.00000000000E+00 0. -1.
         21    1    1    2  504  501  0.19328184724E+02 -0.85216441332E+02  0.16044159075E+03  0.18269352654E+03  0.00000000000E+00 0. -1.
         21    1    1    2  505  502 -0.78401831044E+02  0.20380771323E+02 -0.26631713287E+02  0.85272921279E+02  0.00000000000E+00 0. -1.
         21    1    1    2  506  503  0.11737381504E+02  0.44730819098E+02 -0.97775975347E+03  0.97885277127E+03  0.00000000000E+00 0.  1.
<scales pt_clust_3="60.06985" pt_clust_4="14000.00000" pt_clust_5="79.95628" pt_clust_6="46.24513"></scales>
<clustering>
<clus scale="   46.245">  2  6  1 -1</clus>
<clus scale="   60.070">  2  3  1 -1</clus>
<clus scale="   79.956">  2  5  1 -1</clus>
<clus scale="   79.956">  1  3  2 -1</clus>
</clustering>
</event>
<event>
 6    0  0.1080632E+003  0.2449354E+03  0.7546771E-02  0.1116548E+00
         21   -1    0    0  506  501  0.00000000000E+00  0.00000000000E+00  0.24684052257E+03  0.24684052257E+03  0.00000000000E+00 0.  1.
         21   -1    0    0  504  502 -0.00000000000E+00 -0.00000000000E+00 -0.41715339642E+03  0.41715339642E+03  0.00000000000E+00 0.  1.
         21    1    1    2  503  502  0.14907220894E+03 -0.13099195057E+03 -0.13399128692E+03  0.23944744635E+03  0.00000000000E+00 0.  1.
         21    1    1    2  504  505 -0.30690388742E+02  0.58069837748E+01 -0.67789399421E+02  0.74639290562E+02  0.00000000000E+00 0. -1.
         21    1    1    2  505  501 -0.14149957220E+03  0.18216265892E+03  0.10552112767E+03  0.25365344788E+03  0.00000000000E+00 0.  1.
         21    1    1    2  506  503  0.23117752005E+02 -0.56977692127E+02 -0.74053315181E+02  0.96253734199E+02  0.00000000000E+00 0.  1.
<scales pt_clust_3="37.25726" pt_clust_4="31.23493" pt_clust_5="235.71719" pt_clust_6="37.25726"></scales>
<clustering>
<clus scale="   31.235">  2  4  1 -1</clus>
<clus scale="   37.257">  3  6 -1 -1</clus>
<clus scale="  235.717">  1  5  2 -1</clus>
<clus scale="  235.717">  1  3  2 -1</clus>
</clustering>
</event>
<event>
 6    0  0.1080632E+003  0.1346153E+03  0.7546771E-02  0.1220764E+00
         21   -1    0    0  504  501  0.00000000000E+00  0.00000000000E+00  0.19076010692E+03  0.19076010692E+03  0.00000000000E+00 0.  1.
         21   -1    0    0  506  502 -0.00000000000E+00 -0.00000000000E+00 -0.35509377964E+03  0.35509377964E+03  0.00000000000E+00 0. -1.
         21    1    1    2  503  505 -0.51253000604E+01  0.51517353054E+02 -0.15221633147E+02  0.53962991782E+02  0.00000000000E+00 0. -1.
         21    1    1    2  504  502  0.87044655577E+02 -0.62883394376E+02  0.68046118440E+02  0.12712736758E+03  0.00000000000E+00 0.  1.
         21    1    1    2  505  501 -0.83163524441E+02  0.85251184553E+02  0.16008507342E+02  0.12016741893E+03  0.00000000000E+00 0. -1.
         21    1    1    2  506  503  0.12441689242E+01 -0.73885143230E+02 -0.23316666535E+03  0.24459610827E+03  0.00000000000E+00 0. -1.
<scales pt_clust_3="40.75133" pt_clust_4="119.58697" pt_clust_5="40.75133" pt_clust_6="73.89562"></scales>
<clustering>
<clus scale="   40.751">  3  5 -1 -1</clus>
<clus scale="   73.896">  2  6  1 -1</clus>
<clus scale="  119.587">  1  4  2 -1</clus>
<clus scale="  119.587">  1  3  2 -1</clus>
</clustering>
</event>
<event>
 6    0  0.1080632E+003  0.2387966E+03  0.7546771E-02  0.1120597E+00
         21   -1    0    0  504  501  0.00000000000E+00  0.00000000000E+00  0.57884979552E+03  0.57884979552E+03  0.00000000000E+00 0. -1.
         21   -1    0    0  503  502 -0.00000000000E+00 -0.00000000000E+00 -0.26026044440E+03  0.26026044440E+03  0.00000000000E+00 0.  1.
         21    1    1    2  503  501  0.26118092185E+02  0.37126997723E+02  0.27446991337E+02  0.53046263137E+02  0.00000000000E+00 0. -1.
         21    1    1    2  504  505  0.20924543079E+03 -0.66304764618E+02  0.44756889308E+03  0.49849562302E+03  0.00000000000E+00 0. -1.
         21    1    1    2  505  506 -0.10411095372E+03 -0.33350009979E+01 -0.50287808299E+02  0.11566795831E+03  0.00000000000E+00 0. -1.
         21    1    1    2  506  502 -0.13125256925E+03  0.32512767893E+02 -0.10613872501E+03  0.17190039545E+03  0.00000000000E+00 0.  1.
<scales pt_clust_3="45.39349" pt_clust_4="234.61643" pt_clust_5="39.04444" pt_clust_6="39.04444"></scales>
<clustering>
<clus scale="   39.044">  5  6 -1 -1</clus>
<clus scale="   45.393">  1  3  2 -1</clus>
<clus scale="  234.616">  1  4  2 -1</clus>
<clus scale="   45.393">  1  3  2 -1</clus>
</clustering>
</event>
<event>
 6    0  0.1080632E+003  0.1115881E+03  0.7546771E-02  0.1257657E+00
         21   -1    0    0  505  501  0.00000000000E+00  0.00000000000E+00  0.63805744284E+02  0.63805744284E+02  0.00000000000E+00 0. -1.
         21   -1    0    0  503  502 -0.00000000000E+00 -0.00000000000E+00 -0.43462302207E+03  0.43462302207E+03  0.00000000000E+00 0.  1.
         21    1    1    2  503  504 -0.71063853959E+02 -0.49260033861E+02 -0.40515432095E+02  0.95488860676E+02  0.00000000000E+00 0. -1.
         21    1    1    2  504  501 -0.51093062574E+02  0.10952054898E+01 -0.34560377829E+02  0.61693761710E+02  0.00000000000E+00 0. -1.
         21    1    1    2  505  506  0.31140662584E+02  0.12923870761E+02 -0.44133029454E+01  0.34003596053E+02  0.00000000000E+00 0. -1.
         21    1    1    2  506  502  0.91016253948E+02  0.35240957610E+02 -0.29132816492E+03  0.30724254792E+03  0.00000000000E+00 0.  1.
<scales pt_clust_3="32.86799" pt_clust_4="32.86799" pt_clust_5="33.71598" pt_clust_6="103.07315"></scales>
<clustering>
<clus scale="   32.868">  3  4 -1 -1</clus>
<clus scale="   33.716">  1  5  2 -1</clus>
<clus scale="  103.073">  2  6  1 -1</clus>
<clus scale="   33.716">  1  3  2 -1</clus>
</clustering>
</event>
<event>
 6    0  0.1080632E+003  0.8492214E+02  0.7546771E-02  0.1315636E+00
         21   -1    0    0  504  501  0.00000000000E+00  0.00000000000E+00  0.47276158265E+03  0.47276158265E+03  0.00000000000E+00 0. -1.
         21   -1    0    0  506  502 -0.00000000000E+00 -0.00000000000E+00 -0.15386649625E+04  0.15386649625E+04  0.00000000000E+00 0. -1.
         21    1    1    2  503  501 -0.35134046809E+01 -0.84861400716E+02  0.45756582469E+03  0.46538187037E+03  0.00000000000E+00 0. -1.
         21    1    1    2  504  505  0.72481102763E+02  0.80566518709E+02 -0.36211577303E+03  0.37798453311E+03  0.00000000000E+00 0. -1.
         21    1    1    2  505  502 -0.37051942650E+02 -0.84414325588E+00 -0.10783071883E+04  0.10789439056E+04  0.00000000000E+00 0. -1.
         21    1    1    2  506  503 -0.31915755433E+02  0.51390252626E+01 -0.83046243177E+02  0.89116236070E+02  0.00000000000E+00 0.  1.
<scales pt_clust_3="84.92214" pt_clust_4="14000.00000" pt_clust_5="60.82384" pt_clust_6="32.32685"></scales>
<clustering>
<clus scale="   32.327">  2  6  1 -1</clus>
<clus scale="   60.824">  2  5  1 -1</clus>
<clus scale="   84.922">  1  3  2 -1</clus>
<clus scale="   84.922">  1  3  2 -1</clus>
</clustering>
</event>
<event>
 6    0  0.1080632E+003  0.6649679E+02  0.7546771E-02  0.1372428E+00
         21   -1    0    0  504  501  0.00000000000E+00  0.00000000000E+00  0.13065982064E+04  0.13065982064E+04  0.00000000000E+00 0.  1.
         21   -1    0    0  503  502 -0.00000000000E+00 -0.00000000000E+00 -0.37049072156E+02  0.37049072156E+02  0.00000000000E+00 0.  1.
         21    1    1    2  503  506 -0.61364576637E+02  0.16684800987E+02  0.88995183148E+01  0.64212111599E+02  0.00000000000E+00 0.  1.
         21    1    1    2  504  502  0.57180099452E+00 -0.45615693833E+02  0.30319471091E+03  0.30660748719E+03  0.00000000000E+00 0.  1.
         21    1    1    2  505  501 -0.46095312344E+02  0.21463445018E+02  0.51838560066E+03  0.52087338986E+03  0.00000000000E+00 0.  1.
         21    1    1    2  506  505  0.10688808799E+03  0.74674478287E+01  0.43906930432E+03  0.45195428986E+03  0.00000000000E+00 0.  1.
<scales pt_clust_3="66.49679" pt_clust_4="45.61928" pt_clust_5="45.85148" pt_clust_6="14000.00000"></scales>
<clustering>
<clus scale="   45.619">  1  4  2 -1</clus>
<clus scale="   45.851">  1  5  2 -1</clus>
<clus scale="   66.497">  2  3  1 -1</clus>
<clus scale="   45.619">  1  3  2 -1</clus>
</clustering>
</event>
<event>
 6    0  0.1080632E+003  0.1358522E+03  0.7546771E-02  0.1219022E+00
         21   -1    0    0  505  501  0.00000000000E+00  0.00000000000E+00  0.40750371075E+02  0.40750371075E+02  0.00000000000E+00 0.  1.
         21   -1    0    0  504  502 -0.00000000000E+00 -0.00000000000E+00 -0.14762056242E+04  0.14762056242E+04  0.00000000000E+00 0. -1.
         21    1    1    2  503  502  0.46587087136E+02  0.59431766357E+02 -0.18539795720E+03  0.20018714762E+03  0.00000000000E+00 0.  1.
         21    1    1    2  504  501 -0.12794232149E+03 -0.11471989008E+02 -0.10385896459E+04  0.10465033668E+04  0.00000000000E+00 0. -1.
         21    1    1    2  505  506  0.28012651956E+02 -0.93663270619E+02 -0.13085806704E+03  0.16334427031E+03  0.00000000000E+00 0.  1.
         21    1    1    2  506  503  0.53342582400E+02  0.45703493269E+02 -0.80609582979E+02  0.10692121053E+03  0.00000000000E+00 0.  1.
<scales pt_clust_3="48.37923" pt_clust_4="126.25229" pt_clust_5="97.76255" pt_clust_6="48.37923"></scales>
<clustering>
<clus scale="   48.379">  3  6 -1 -1</clus>
<clus scale="   97.763">  1  5  2 -1</clus>
<clus scale="  126.252">  2  4  1 -1</clus>
<clus scale="   97.763">  1  3  2 -1</clus>
</clustering>
</event>
<event>
 6    0  0.1080632E+003  0.7882177E+02  0.7546771E-02  0.1332429E+00
         21   -1    0    0  503  501  0.00000000000E+00  0.00000000000E+00  0.20077392677E+03  0.20077392677E+03  0.00000000000E+00 0. -1.
         21   -1    0    0  505  502 -0.00000000000E+00 -0.00000000000E+00 -0.41825015956E+03  0.41825015956E+03  0.00000000000E+00 0.  1.
         21    1    1    2  503  504  0.10786017888E+02 -0.78750102054E+02  0.17255966962E+03  0.18998620038E+03  0.00000000000E+00 0. -1.
         21    1    1    2  504  502  0.18657299665E+02 -0.38506652757E+02 -0.58933974335E+02  0.72829049618E+02  0.00000000000E+00 0.  1.
         21    1    1    2  505  506  0.11740697437E+02  0.58148233872E+02 -0.14927655243E+03  0.16063172222E+03  0.00000000000E+00 0.  1.
         21    1    1    2  506  501 -0.41184014991E+02  0.59108520939E+02 -0.18182537564E+03  0.19557711411E+03  0.00000000000E+00 0.  1.
<scales pt_clust_3="78.82177" pt_clust_4="42.78852" pt_clust_5="45.78737" pt_clust_6="14000.00000"></scales>
<clustering>
<clus scale="   42.789">  2  4  1 -1</clus>
<clus scale="   45.787">  2  5  1 -1</clus>
<clus scale="   78.822">  1  3  2 -1</clus>
<clus scale="   78.822">  1  3  2 -1</clus>
</clustering>
</event>
<event>
 6    0  0.1080632E+003  0.9055475E+02  0.7546771E-02  0.1301514E+00
         21   -1    0    0  503  501  0.00000000000E+00  0.00000000000E+00  0.28593459632E+03  0.28593459632E+03  0.00000000000E+00 0.  1.
         21   -1    0    0  501  502 -0.00000000000E+00 -0.00000000000E+00 -0.26784132988E+03  0.26784132988E+03  0.00000000000E+00 0.  1.
         21    1    1    2  503  505  0.34124160686E+02 -0.65591968609E+02  0.83611188576E+02  0.11161359928E+03  0.00000000000E+00 0.  1.
         21    1    1    2  504  502  0.52656054484E+02  0.70278348675E+02 -0.17934257978E+03  0.19968842552E+03  0.00000000000E+00 0.  1.
         21    1    1    2  505  506 -0.18862527511E+02  0.92865471624E+02  0.42548892110E+02  0.10387588259E+03  0.00000000000E+00 0. -1.
         21    1    1    2  506  504 -0.67917687659E+02 -0.97551851689E+02  0.71275765533E+02  0.13859801881E+03  0.00000000000E+00 0.  1.
<scales pt_clust_3="73.93757" pt_clust_4="14000.00000" pt_clust_5="67.59791" pt_clust_6="90.55475"></scales>
<clustering>
<clus scale="   73.938">  1  3  2 -1</clus>
<clus scale="   67.598">  1  5  2 -1</clus>
<clus scale="   90.555">  1  6  2 -1</clus>
<clus scale="   73.938">  1  3  2 -1</clus>
</clustering>
</event>
<event>
 6    0  0.1080632E+003  0.1213470E+03  0.7546771E-02  0.1240891E+00
         21   -1    0    0  506  501  0.00000000000E+00  0.00000000000E+00  0.14614929963E+03  0.14614929963E+03  0.00000000000E+00 0.  1.
         21   -1    0    0  503  502 -0.00000000000E+00 -0.00000000000E+00 -0.16946395619E+03  0.16946395619E+03  0.00000000000E+00 0. -1.
         21    1    1    2  503  501  0.73490656884E+02  0.90417965660E+02  0.70158464617E+02  0.13600917366E+03  0.00000000000E+00 0.  1.
         21    1    1    2  504  502 -0.30314857010E+02  0.34576065691E+01 -0.49319319550E+02  0.57994317649E+02  0.00000000000E+00 0. -1.
         21    1    1    2  505  504 -0.35243141483E+02 -0.26417993509E+02 -0.26605215010E+02  0.51457039055E+02  0.00000000000E+00 0. -1.
         21    1    1    2  506  505 -0.79326583922E+01 -0.67457578721E+02 -0.17548586613E+02  0.70152725451E+02  0.00000000000E+00 0. -1.
<scales pt_clust_3="112.08252" pt_clust_4="30.51140" pt_clust_5="40.39013" pt_clust_6="40.39013"></scales>
<clustering>
<clus scale="   30.511">  2  4  1 -1</clus>
<clus scale="   40.390">  5  6 -1 -1</clus>
<clus scale="  112.083">  1  3  2 -1</clus>
<clus scale="  112.083">  1  3  2 -1</clus>
</clustering>
</event>
<event>
 6    0  0.1080632E+003  0.1523706E+03  0.7546771E-02  0.1197590E+00
         21   -1    0    0  504  501  0.00000000000E+00  0.00000000000E+00  0.40196923280E+03  0.40196923280E+03  0.00000000000E+00 0. -1.
         21   -1    0    0  503  502 -0.00000000000E+00 -0.00000000000E+00 -0.34888701915E+03  0.34888701915E+03  0.00000000000E+00 0. -1.
         21    1    1    2  503  501 -0.25270945844E+01 -0.16133459064E+03 -0.28031031276E+03  0.32343331272E+03  0.00000000000E+00 0. -1.
         21    1    1    2  504  505 -0.19669463480E+02  0.35919959065E+02  0.22392398166E+03  0.22763804782E+03  0.00000000000E+00 0. -1.
         21    1    1    2  505  506 -0.40661799218E+02  0.22349276215E+02  0.31031168734E+02  0.55819400713E+02  0.00000000000E+00 0.  1.
         21    1    1    2  506  502  0.62858357283E+02  0.10306535536E+03  0.78437376014E+02  0.14396549069E+03  0.00000000000E+00 0.  1.
<scales pt_clust_3="152.37063" pt_clust_4="40.95279" pt_clust_5="55.17911" pt_clust_6="14000.00000"></scales>
<clustering>
<clus scale="   40.953">  1  4  2 -1</clus>
<clus scale="   55.179">  1  5  2 -1</clus>
<clus scale="  152.371">  2  3  1 -1</clus>
<clus scale="   40.953">  1  3  2 -1</clus>
</clustering>
</event>
<event>
 6    0  0.1080632E+003  0.7103841E+02  0.7546771E-02  0.1356597E+00
         21   -1    0    0  504  501  0.00000000000E+00  0.00000000000E+00  0.35469929491E+03  0.35469929491E+03  0.00000000000E+00 0. -1.
         21   -1    0    0  503  502 -0.00000000000E+00 -0.00000000000E+00 -0.41795118648E+03  0.41795118648E+03  0.00000000000E+00 0.  1.
         21    1    1    2  503  505  0.17890993385E+02 -0.38443047743E+02 -0.16647721613E+02  0.45553289661E+02  0.00000000000E+00 0.  1.
         21    1    1    2  504  502 -0.65862099111E+02 -0.10550837447E+02 -0.15871071857E+03  0.17215756870E+03  0.00000000000E+00 0.  1.
         21    1    1    2  505  506  0.35340109991E+02  0.94275076390E+02 -0.20816600722E+03  0.23123537784E+03  0.00000000000E+00 0.  1.
         21    1    1    2  506  501  0.12630995735E+02 -0.45281191199E+02  0.32027255584E+03  0.32370424519E+03  0.00000000000E+00 0. -1.
<scales pt_clust_3="42.40231" pt_clust_4="71.03841" pt_clust_5="14000.00000" pt_clust_6="47.19545"></scales>
<clustering>
<clus scale="   42.402">  2  3  1 -1</clus>
<clus scale="   47.195">  1  6  2 -1</clus>
<clus scale="   71.038">  1  4  2 -1</clus>
<clus scale="   47.195">  1  3  2 -1</clus>
</clustering>
</event>
<event>
 6    0  0.1080632E+003  0.1814920E+03  0.7546771E-02  0.1166367E+00
         21   -1    0    0  503  501  0.00000000000E+00  0.00000000000E+00  0.38072589454E+03  0.38072589454E+03  0.00000000000E+00 0.  1.
         21   -1    0    0  506  502 -0.00000000000E+00 -0.00000000000E+00 -0.13264343527E+03  0.13264343527E+03  0.00000000000E+00 0.  1.
         21    1    1    2  503  505 -0.85460897093E+01 -0.88326407302E+02  0.93906342955E+02  0.12920135883E+03  0.00000000000E+00 0. -1.
         21    1    1    2  504  502  0.10930605669E+02 -0.39252498279E+02 -0.39344062744E+02  0.56640904254E+02  0.00000000000E+00 0.  1.
         21    1    1    2  505  504  0.15519145542E+02 -0.62099622171E+02  0.13517299179E+02  0.65421130602E+02  0.00000000000E+00 0.  1.
         21    1    1    2  506  501 -0.17903661502E+02  0.18967852775E+03  0.18000287988E+03  0.26210593612E+03  0.00000000000E+00 0.  1.
<scales pt_clust_3="53.81565" pt_clust_4="40.74600" pt_clust_5="53.81565" pt_clust_6="171.10777"></scales>
<clustering>
<clus scale="   40.746">  2  4  1 -1</clus>
<clus scale="   53.816">  3  5 -1 -1</clus>
<clus scale="  171.108">  1  6  2 -1</clus>
<clus scale="  171.108">  1  3  2 -1</clus>
</clustering>
</event>
<event>
 6    0  0.1080632E+003  0.2256928E+03  0.7546771E-02  0.1129709E+00
         21   -1    0    0  503  501  0.00000000000E+00  0.00000000000E+00  0.32350677897E+03  0.32350677897E+03  0.00000000000E+00 0. -1.
         21   -1    0    0  504  502 -0.00000000000E+00 -0.00000000000E+00 -0.24221158230E+04  0.24221158230E+04  0.00000000000E+00 0. -1.
         21    1    1    2  503  502 -0.81517984731E+02  0.18855497890E+03  0.27260324522E+03  0.34133662447E+03  0.00000000000E+00 0. -1.
         21    1    1    2  504  506  0.11563338131E+03  0.33991387684E+01 -0.15620238713E+04  0.15663017613E+04  0.00000000000E+00 0. -1.
         21    1    1    2  505  501 -0.67725622658E+02 -0.13212266281E+03 -0.58353046657E+03  0.60212205026E+03  0.00000000000E+00 0. -1.
         21    1    1    2  506  505  0.33610226080E+02 -0.59831454860E+02 -0.22565795145E+03  0.23586216598E+03  0.00000000000E+00 0.  1.
<scales pt_clust_3="203.75431" pt_clust_4="115.68333" pt_clust_5="65.99059" pt_clust_6="65.99059"></scales>
<clustering>
<clus scale="   65.991">  5  6 -1 -1</clus>
<clus scale="  115.683">  2  4  1 -1</clus>
<clus scale="  203.754">  1  3  2 -1</clus>
<clus scale="  203.754">  1  3  2 -1</clus>
</clustering>
</event>
<event>
 6    0  0.1080632E+003  0.9686426E+02  0.7546771E-02  0.1287032E+00
         21   -1    0    0  502  501  0.00000000000E+00  0.00000000000E+00  0.54526511772E+03  0.54526511772E+03  0.00000000000E+00 0.  1.
         21   -1    0    0  503  502 -0.00000000000E+00 -0.00000000000E+00 -0.57357720631E+02  0.57357720631E+02  0.00000000000E+00 0. -1.
         21    1    1    2  503  506  0.32939777721E+02  0.19786771822E+01  0.41835495102E+02  0.53283700792E+02  0.00000000000E+00 0. -1.
         21    1    1    2  504  501 -0.10301821518E+03 -0.11281538700E+02  0.36647758645E+03  0.38084885079E+03  0.00000000000E+00 0.  1.
         21    1    1    2  505  504  0.55937883526E+02  0.63502251536E+02  0.20512651668E+02  0.87076699765E+02  0.00000000000E+00 0. -1.
         21    1    1    2  506  505  0.14140553937E+02 -0.54199390018E+02  0.59081663871E+02  0.81413587009E+02  0.00000000000E+00 0. -1.
<scales pt_clust_3="32.99915" pt_clust_4="96.86426" pt_clust_5="14000.00000" pt_clust_6="57.82324"></scales>
<clustering>
<clus scale="   32.999">  2  3  1 -1</clus>
<clus scale="   57.823">  2  6  1 -1</clus>
<clus scale="   96.864">  1  4  2 -1</clus>
<clus scale="   96.864">  1  3  2 -1</clus>
</clustering>
</event>
<event>
 6    0  0.1080632E+003  0.6924273E+02  0.7546771E-02  0.1362687E+00
         21   -1    0    0  506  501  0.00000000000E+00  0.00000000000E+00  0.44210915215E+03  0.44210915215E+03  0.00000000000E+00 0. -1.
         21   -1    0    0  505  502 -0.00000000000E+00 -0.00000000000E+00 -0.12117967959E+03  0.12117967959E+03  0.00000000000E+00 0. -1.
         21    1    1    2  503  502  0.68199951687E+02 -0.68686901381E+01 -0.23870216040E+02  0.72582363754E+02  0.00000000000E+00 0. -1.
         21    1    1    2  504  503 -0.72424634348E+02 -0.90445805746E+02 -0.34106995612E+01  0.11591981845E+03  0.00000000000E+00 0. -1.
         21    1    1    2  505  501 -0.59979902497E+01  0.30684695850E+02  0.14730187082E+02  0.34561609596E+02  0.00000000000E+00 0.  1.
         21    1    1    2  506  504  0.10222672911E+02  0.66629800034E+02  0.33348020108E+03  0.34022503994E+03  0.00000000000E+00 0. -1.
<scales pt_clust_3="65.91468" pt_clust_4="69.24273" pt_clust_5="31.26542" pt_clust_6="14000.00000"></scales>
<clustering>
<clus scale="   31.265">  2  5  1 -1</clus>
<clus scale="   65.915">  2  3  1 -1</clus>
<clus scale="   69.243">  2  4  1 -1</clus>
<clus scale="   69.243">  1  3  2 -1</clus>
</clustering>
</event>
<event>
 6    0  0.1080632E+003  0.9698246E+02  0.7546771E-02  0.1286772E+00
         21   -1    0    0  503  501  0.00000000000E+00  0.00000000000E+00  0.13672867991E+04  0.13672867991E+04  0.00000000000E+00 0.  1.
         21   -1    0    0  506  502 -0.00000000000E+00 -0.00000000000E+00 -0.23525735428E+03  0.23525735428E+03  0.00000000000E+00 0. -1.
         21    1    1    2  503  504 -0.24731614091E+02 -0.54833886112E+02  0.11404531459E+04  0.11420384345E+04  0.00000000000E+00 0.  1.
         21    1    1    2  504  502 -0.60115252833E+02 -0.26468832991E+01 -0.18759012436E+03  0.19700483337E+03  0.00000000000E+00 0. -1.
         21    1    1    2  505  501 -0.35465554268E+02 -0.18320097887E+02  0.82220077457E+02  0.91397881065E+02  0.00000000000E+00 0. -1.
         21    1    1    2  506  505  0.12031242119E+03  0.75800867298E+02  0.96946345763E+02  0.17210300443E+03  0.00000000000E+00 0. -1.
<scales pt_clust_3="96.98246" pt_clust_4="60.30674" pt_clust_5="39.91781" pt_clust_6="14000.00000"></scales>
<clustering>
<clus scale="   39.918">  1  5  2 -1</clus>
<clus scale="   60.307">  2  4  1 -1</clus>
<clus scale="   96.982">  1  3  2 -1</clus>
<clus scale="   39.918">  1  3  2 -1</clus>
</clustering>
</event>
<event>
 6    0  0.1080632E+003  0.1355433E+03  0.7546771E-02  0.1219455E+00
         21   -1    0    0  504  501  0.00000000000E+00  0.00000000000E+00  0.16508477450E+03  0.16508477450E+03  0.00000000000E+00 0. -1.
         21   -1    0    0  505  502 -0.00000000000E+00 -0.00000000000E+00 -0.37124634784E+03  0.37124634784E+03  0.00000000000E+00 0. -1.
         21    1    1    2  503  501  0.14678262656E+03 -0.39623986258E+02 -0.28815751454E+02  0.15474348865E+03  0.00000000000E+00 0. -1.
         21    1    1    2  504  506 -0.75247316400E+02 -0.90215660824E+02  0.21437862973E+02  0.11941777946E+03  0.00000000000E+00 0.  1.
         21    1    1    2  505  503  0.15143138550E+02  0.27813959815E+02 -0.68012465757E+02  0.75024172799E+02  0.00000000000E+00 0. -1.
         21    1    1    2  506  502 -0.86678448712E+02  0.10202568727E+03 -0.13077121910E+03  0.18714568143E+03  0.00000000000E+00 0. -1.
<scales pt_clust_3="14000.00000" pt_clust_4="112.40578" pt_clust_5="31.66909" pt_clust_6="135.54328"></scales>
<clustering>
<clus scale="   31.669">  2  5  1 -1</clus>
<clus scale="  112.406">  1  4  2 -1</clus>
<clus scale="  135.543">  2  6  1 -1</clus>
<clus scale="  112.406">  1  3  2 -1</clus>
</clustering>
</event>
<event>
 6    0  0.1080632E+003  0.7631092E+02  0.7546771E-02  0.1339859E+00
         21   -1    0    0  506  501  0.00000000000E+00  0.00000000000E+00  0.16955400239E+03  0.16955400239E+03  0.00000000000E+00 0. -1.
         21   -1    0    0  505  502 -0.00000000000E+00 -0.00000000000E+00 -0.36186411146E+03  0.36186411146E+03  0.00000000000E+00 0.  1.
         21    1    1    2  503  502  0.39759676016E+02 -0.83043430236E+02  0.36546649771E+02  0.99059077079E+02  0.00000000000E+00 0. -1.
         21    1    1    2  504  501 -0.22259618600E+02  0.53292957170E+02 -0.14366099385E+02  0.59514827696E+02  0.00000000000E+00 0. -1.
         21    1    1    2  505  504 -0.62992486548E+02  0.42530805744E+02 -0.28108969219E+03  0.29118437089E+03  0.00000000000E+00 0.  1.
         21    1    1    2  506  503  0.45492429132E+02 -0.12780332678E+02  0.66599032724E+02  0.81659838179E+02  0.00000000000E+00 0. -1.
<scales pt_clust_3="76.31092" pt_clust_4="51.56764" pt_clust_5="14000.00000" pt_clust_6="47.25355"></scales>
<clustering>
<clus scale="   47.254">  1  6  2 -1</clus>
<clus scale="   51.568">  1  4  2 -1</clus>
<clus scale="   76.311">  1  3  2 -1</clus>
<clus scale="   47.254">  1  3  2 -1</clus>
</clustering>
</event>
<event>
 6    0  0.1080632E+003  0.2947076E+03  0.7546771E-02  0.1087917E+00
         21   -1    0    0  505  501  0.00000000000E+00  0.00000000000E+00  0.24913404992E+03  0.24913404992E+03  0.00000000000E+00 0.  1.
         21   -1    0    0  503  502 -0.00000000000E+00 -0.00000000000E+00 -0.34248243091E+03  0.34248243091E+03  0.00000000000E+00 0.  1.
         21    1    1    2  503  504 -0.99343242131E+02  0.13369121848E+03 -0.87416463749E+02  0.18810651182E+03  0.00000000000E+00 0.  1.
         21    1    1    2  504  501 -0.14401467731E+02  0.10745690294E+03  0.29233267160E+02  0.11228967972E+03  0.00000000000E+00 0.  1.
         21    1    1    2  505  506  0.80655063269E+02 -0.13290282002E+03  0.33226323192E+02  0.15897291390E+03  0.00000000000E+00 0.  1.
         21    1    1    2  506  502  0.33089646594E+02 -0.10824530140E+03 -0.68391507593E+02  0.13224737539E+03  0.00000000000E+00 0.  1.
<scales pt_clust_3="101.29170" pt_clust_4="101.29170" pt_clust_5="289.08937" pt_clust_6="95.33248"></scales>
<clustering>
<clus scale="   95.332">  5  6 -1 -1</clus>
<clus scale="  101.292">  3  4 -1 -1</clus>
<clus scale="  289.089">  1  5  2 -1</clus>
<clus scale="  289.089">  1  3  2 -1</clus>
</clustering>
</event>
<event>
 6    0  0.1080632E+003  0.7782320E+02  0.7546771E-02  0.1335345E+00
         21   -1    0    0  503  501  0.00000000000E+00  0.00000000000E+00  0.10076870912E+03  0.10076870912E+03  0.00000000000E+00 0. -1.
         21   -1    0    0  506  502 -0.00000000000E+00 -0.00000000000E+00 -0.14614319005E+04  0.14614319005E+04  0.00000000000E+00 0.  1.
         21    1    1    2  503  502 -0.54262848340E+02 -0.58447763233E+01 -0.19914175550E+03  0.20648500406E+03  0.00000000000E+00 0.  1.
         21    1    1    2  504  501 -0.20937014654E+02 -0.75404744043E+02  0.74474563157E+02  0.10803098891E+03  0.00000000000E+00 0. -1.
         21    1    1    2  505  504  0.27960532527E+02  0.66313661766E+02 -0.24249015666E+03  0.25294420174E+03  0.00000000000E+00 0.  1.
         21    1    1    2  506  505  0.47239330467E+02  0.14935858601E+02 -0.99350584235E+03  0.99474041489E+03  0.00000000000E+00 0.  1.
<scales pt_clust_3="33.76686" pt_clust_4="77.82320" pt_clust_5="14000.00000" pt_clust_6="49.54427"></scales>
<clustering>
<clus scale="   49.544">  2  6  1 -1</clus>
<clus scale="   33.767">  2  3  1 -1</clus>
<clus scale="   77.823">  1  4  2 -1</clus>
<clus scale="   77.823">  1  3  2 -1</clus>
</clustering>
</event>
<event>
 6    0  0.1080632E+003  0.1839123E+03  0.7546771E-02  0.1164070E+00
         21   -1    0    0  502  501  0.00000000000E+00  0.00000000000E+00  0.32721705982E+03  0.32721705982E+03  0.00000000000E+00 0. -1.
         21   -1    0    0  506  502 -0.00000000000E+00 -0.00000000000E+00 -0.38978114163E+03  0.38978114163E+03  0.00000000000E+00 0.  1.
         21    1    1    2  503  505 -0.90023895778E+01 -0.57173925596E+02 -0.21771745421E+02  0.61837769080E+02  0.00000000000E+00 0. -1.
         21    1    1    2  504  503 -0.53169446069E+02 -0.68928695660E+02 -0.10278961830E+03  0.13469914889E+03  0.00000000000E+00 0.  1.
         21    1    1    2  505  501  0.10312712580E+03  0.14853288422E+03  0.26018367326E+03  0.31684817437E+03  0.00000000000E+00 0. -1.
         21    1    1    2  506  504 -0.40955290151E+02 -0.22430262964E+02 -0.19818639135E+03  0.20361310911E+03  0.00000000000E+00 0.  1.
<scales pt_clust_3="43.46370" pt_clust_4="43.46370" pt_clust_5="174.58439" pt_clust_6="46.69532"></scales>
<clustering>
<clus scale="   46.695">  2  6  1 -1</clus>
<clus scale="   43.464">  3  4 -1 -1</clus>
<clus scale="  174.584">  1  5  2 -1</clus>
<clus scale="  174.584">  1  3  2 -1</clus>
</clustering>
</event>
<event>
 6    0  0.1080632E+003  0.1076873E+03  0.7546771E-02  0.1264914E+00
         21   -1    0    0  505  501  0.00000000000E+00  0.00000000000E+00  0.58980881605E+03  0.58980881605E+03  0.00000000000E+00 0. -1.
         21   -1    0    0  503  502 -0.00000000000E+00 -0.00000000000E+00 -0.57903277053E+02  0.57903277053E+02  0.00000000000E+00 0. -1.
         21    1    1    2  503  501  0.57992997604E+02 -0.49672566690E+01  0.19518218657E+02  0.61390734394E+02  0.00000000000E+00 0. -1.
         21    1    1    2  504  506 -0.10414619709E+02  0.51893633635E+02  0.60955749778E+02  0.80728043123E+02  0.00000000000E+00 0. -1.
         21    1    1    2  505  504 -0.25682025699E+01 -0.96603658084E+02  0.42104437492E+03  0.43199216205E+03  0.00000000000E+00 0. -1.
         21    1    1    2  506  502 -0.45010175326E+02  0.49677281117E+02  0.30387195633E+02  0.73601153527E+02  0.00000000000E+00 0. -1.
<scales pt_clust_3="58.20534" pt_clust_4="40.57773" pt_clust_5="97.52511" pt_clust_6="40.57773"></scales>
<clustering>
<clus scale="   40.578">  4  6 -1 -1</clus>
<clus scale="   58.205">  2  3  1 -1</clus>
<clus scale="   97.525">  1  5  2 -1</clus>
<clus scale="   97.525">  1  3  2 -1</clus>
</clustering>
</event>
<event>
 6    0  0.1080632E+003  0.1257793E+03  0.7546771E-02  0.1233856E+00
         21   -1    0    0  506  501  0.00000000000E+00  0.00000000000E+00  0.11103542198E+04  0.11103542198E+04  0.00000000000E+00 0. -1.
         21   -1    0    0  504  502 -0.00000000000E+00 -0.00000000000E+00 -0.44243528212E+02  0.44243528212E+02  0.00000000000E+00 0. -1.
         21    1    1    2  503  505  0.11643069602E+03 -0.34429944067E+02  0.34684653655E+03  0.36748339819E+03  0.00000000000E+00 0. -1.
         21    1    1    2  504  501 -0.11250222824E+02  0.78495762976E+02  0.14009852877E+03  0.16098369509E+03  0.00000000000E+00 0. -1.
         21    1    1    2  505  502 -0.13080195851E+03 -0.22030696066E+02  0.17025952149E+03  0.21583050891E+03  0.00000000000E+00 0. -1.
         21    1    1    2  506  503  0.25621485317E+02 -0.22035122844E+02  0.40890610481E+03  0.41030014586E+03  0.00000000000E+00 0. -1.
<scales pt_clust_3="125.77931" pt_clust_4="73.98546" pt_clust_5="14000.00000" pt_clust_6="33.79360"></scales>
<clustering>
<clus scale="   33.794">  1  6  2 -1</clus>
<clus scale="   73.985">  1  4  2 -1</clus>
<clus scale="  125.779">  1  3  2 -1</clus>
<clus scale="   33.794">  1  3  2 -1</clus>
</clustering>
</event>
<event>
 6    0  0.1080632E+003  0.1292151E+03  0.7546771E-02  0.1228625E+00
         21   -1    0    0  503  501  0.00000000000E+00  0.00000000000E+00  0.20788705203E+03  0.20788705203E+03  0.00000000000E+00 0.  1.
         21   -1    0    0  501  502 -0.00000000000E+00 -0.00000000000E+00 -0.59742416683E+03  0.59742416683E+03  0.00000000000E+00 0.  1.
         21    1    1    2  503  504  0.73061810958E+02  0.10279541511E+03  0.17720403283E+03  0.21749987319E+03  0.00000000000E+00 0.  1.
         21    1    1    2  504  506 -0.20616233970E+02 -0.49348935890E+02 -0.13037912766E+03  0.14092218954E+03  0.00000000000E+00 0.  1.
         21    1    1    2  505  502 -0.38568627045E+02  0.25307750039E+01 -0.18533450584E+03  0.18932200841E+03  0.00000000000E+00 0.  1.
         21    1    1    2  506  505 -0.13876949943E+02 -0.55977254224E+02 -0.25102751414E+03  0.25756714772E+03  0.00000000000E+00 0.  1.
<scales pt_clust_3="125.12877" pt_clust_4="31.04574" pt_clust_5="38.65157" pt_clust_6="31.04574"></scales>
<clustering>
<clus scale="   31.046">  4  6 -1 -1</clus>
<clus scale="   38.652">  2  5  1 -1</clus>
<clus scale="  125.129">  1  3  2 -1</clus>
<clus scale="  125.129">  1  3  2 -1</clus>
</clustering>
</event>
<event>
 6    0  0.1080632E+003  0.1089377E+03  0.7546771E-02  0.1262550E+00
         21   -1    0    0  504  501  0.00000000000E+00  0.00000000000E+00  0.25183427559E+04  0.25183427559E+04  0.00000000000E+00 0.  1.
         21   -1    0    0  506  502 -0.00000000000E+00 -0.00000000000E+00 -0.95574400589E+02  0.95574400589E+02  0.00000000000E+00 0.  1.
         21    1    1    2  503  505  0.77060195659E+02 -0.75128309444E+02  0.44136971791E+03  0.45430140273E+03  0.00000000000E+00 0. -1.
         21    1    1    2  504  502 -0.16541508961E+03  0.37292088813E+02  0.44644655075E+02  0.17534536488E+03  0.00000000000E+00 0.  1.
         21    1    1    2  505  501  0.15352253284E+02  0.28519825278E+02  0.19030491336E+04  0.19033247429E+04  0.00000000000E+00 0.  1.
         21    1    1    2  506  503  0.73002640664E+02  0.93163953535E+01  0.33704848662E+02  0.80945645897E+02  0.00000000000E+00 0.  1.
<scales pt_clust_3="14000.00000" pt_clust_4="108.93769" pt_clust_5="32.38938" pt_clust_6="75.39028"></scales>
<clustering>
<clus scale="   32.389">  1  5  2 -1</clus>
<clus scale="   75.390">  2  6  1 -1</clus>
<clus scale="  108.938">  2  4  1 -1</clus>
<clus scale="   32.389">  1  3  2 -1</clus>
</clustering>
</event>
<event>
 6    0  0.1080632E+003  0.1684077E+03  0.7546771E-02  0.1179519E+00
         21   -1    0    0  505  501  0.00000000000E+00  0.00000000000E+00  0.21864111376E+03  0.21864111376E+03  0.00000000000E+00 0. -1.
         21   -1    0    0  504  502 -0.00000000000E+00 -0.00000000000E+00 -0.11753151123E+04  0.11753151123E+04  0.00000000000E+00 0. -1.
         21    1    1    2  503  501 -0.32542255876E+02  0.37242849064E+02  0.16102429151E+03  0.16844836206E+03  0.00000000000E+00 0. -1.
         21    1    1    2  504  506  0.15160199942E+03 -0.15436783368E+02 -0.20597210604E+03  0.25621469313E+03  0.00000000000E+00 0. -1.
         21    1    1    2  505  502 -0.16900762896E+03 -0.54083291614E+02 -0.88752044778E+03  0.90508625352E+03  0.00000000000E+00 0. -1.
         21    1    1    2  506  503  0.49947885412E+02  0.32277225918E+02 -0.24205736262E+02  0.64206917369E+02  0.00000000000E+00 0. -1.
<scales pt_clust_3="49.45734" pt_clust_4="14000.00000" pt_clust_5="168.40771" pt_clust_6="59.65915"></scales>
<clustering>
<clus scale="   49.457">  1  3  2 -1</clus>
<clus scale="   59.659">  1  6  2 -1</clus>
<clus scale="  168.408">  2  5  1 -1</clus>
<clus scale="   49.457">  1  3  2 -1</clus>
</clustering>
</event>
<event>
 6    0  0.1080632E+003  0.1086022E+03  0.7546771E-02  0.1263181E+00
         21   -1    0    0  506  501  0.00000000000E+00  0.00000000000E+00  0.19780243259E+04  0.19780243259E+04  0.00000000000E+00 0. -1.
         21   -1    0    0  503  502 -0.00000000000E+00 -0.00000000000E+00 -0.21952810342E+02  0.21952810342E+02  0.00000000000E+00 0. -1.
         21    1    1    2  503  504  0.85840120538E+02  0.27533451774E+02  0.10267823049E+03  0.13663614557E+03  0.00000000000E+00 0. -1.
         21    1    1    2  504  501  0.54877293210E+01  0.50927740419E+02  0.31398194427E+03  0.31813269440E+03  0.00000000000E+00 0. -1.
         21    1    1    2  505  502 -0.41196117621E+02 -0.96581768869E+00  0.51676843621E+03  0.51840878616E+03  0.00000000000E+00 0.  1.
         21    1    1    2  506  505 -0.50131732238E+02 -0.77495374504E+02  0.10226429046E+04  0.10267995102E+04  0.00000000000E+00 0. -1.
<scales pt_clust_3="91.70584" pt_clust_4="51.22255" pt_clust_5="38.87222" pt_clust_6="38.87222"></scales>
<clustering>
<clus scale="   38.872">  5  6 -1 -1</clus>
<clus scale="   51.223">  1  4  2 -1</clus>
<clus scale="   91.706">  2  3  1 -1</clus>
<clus scale="   51.223">  1  3  2 -1</clus>
</clustering>
</event>
<event>
 6    0  0.1080632E+003  0.1679201E+03  0.7546771E-02  0.1180034E+00
         21   -1    0    0  502  501  0.00000000000E+00  0.00000000000E+00  0.39383762682E+03  0.39383762682E+03  0.00000000000E+00 0. -1.
         21   -1    0    0  503  502 -0.00000000000E+00 -0.00000000000E+00 -0.71848913899E+02  0.71848913899E+02  0.00000000000E+00 0. -1.
         21    1    1    2  503  505  0.73361742996E+02 -0.36781761514E+02  0.30558810379E+02  0.87571023787E+02  0.00000000000E+00 0. -1.
         21    1    1    2  504  506 -0.11410508405E+03  0.20974614677E+02  0.17905352380E+03  0.21335432747E+03  0.00000000000E+00 0. -1.
         21    1    1    2  505  504  0.76919029662E+02  0.92273483951E+00  0.94222816506E+02  0.12163604611E+03  0.00000000000E+00 0. -1.
         21    1    1    2  506  501 -0.36175688606E+02  0.14884411997E+02  0.18153562240E+02  0.43125143346E+02  0.00000000000E+00 0. -1.
<scales pt_clust_3="63.68575" pt_clust_4="163.98501" pt_clust_5="63.68575" pt_clust_6="31.91515"></scales>
<clustering>
<clus scale="   31.915">  4  6 -1 -1</clus>
<clus scale="   63.686">  3  5 -1 -1</clus>
<clus scale="  163.985">  1  4  2 -1</clus>
<clus scale="  163.985">  1  3  2 -1</clus>
</clustering>
</event>
<event>
 6    0  0.1080632E+003  0.2415813E+03  0.7546771E-02  0.1118744E+00
         21   -1    0    0  505  501  0.00000000000E+00  0.00000000000E+00  0.20815405364E+03  0.20815405364E+03  0.00000000000E+00 0. -1.
         21   -1    0    0  503  502 -0.00000000000E+00 -0.00000000000E+00 -0.30879968629E+03  0.30879968629E+03  0.00000000000E+00 0. -1.
         21    1    1    2  503  501 -0.16057577931E+03 -0.13810523700E+03  0.67869883980E+02  0.22240494271E+03  0.00000000000E+00 0. -1.
         21    1    1    2  504  502  0.47175507420E+02  0.64623933305E+02 -0.11250941000E+03  0.13805849700E+03  0.00000000000E+00 0. -1.
         21    1    1    2  505  506  0.87461100096E+02  0.25034109370E+02 -0.30955747199E+02  0.96095832098E+02  0.00000000000E+00 0. -1.
         21    1    1    2  506  504  0.25939171798E+02  0.48447194322E+02 -0.25050359430E+02  0.60394468115E+02  0.00000000000E+00 0. -1.
<scales pt_clust_3="211.79622" pt_clust_4="81.89648" pt_clust_5="81.89648" pt_clust_6="40.00446"></scales>
<clustering>
<clus scale="   40.004">  4  6 -1 -1</clus>
<clus scale="   81.896">  4  5 -1 -1</clus>
<clus scale="  211.796">  1  3  2 -1</clus>
<clus scale="  211.796">  1  3  2 -1</clus>
</clustering>
</event>
<event>
 6    0  0.1080632E+003  0.1223870E+03  0.7546771E-02  0.1239210E+00
         21   -1    0    0  505  501  0.00000000000E+00  0.00000000000E+00  0.28618233439E+03  0.28618233439E+03  0.00000000000E+00 0.  1.
         21   -1    0    0  503  502 -0.00000000000E+00 -0.00000000000E+00 -0.78061636927E+03  0.78061636927E+03  0.00000000000E+00 0.  1.
         21    1    1    2  503  501  0.45826708258E+02 -0.61161174844E+02 -0.72244324164E+03  0.72647437250E+03  0.00000000000E+00 0.  1.
         21    1    1    2  504  502 -0.97214403867E+02 -0.54484848874E+02  0.63704414858E+02  0.12836468186E+03  0.00000000000E+00 0.  1.
         21    1    1    2  505  506  0.19524829949E+02  0.62283468746E+02  0.11654062394E+03  0.13357457277E+03  0.00000000000E+00 0.  1.
         21    1    1    2  506  504  0.31862865660E+02  0.53362554972E+02  0.47764167974E+02  0.78385076535E+02  0.00000000000E+00 0.  1.
<scales pt_clust_3="76.42497" pt_clust_4="114.29103" pt_clust_5="42.71440" pt_clust_6="42.71440"></scales>
<clustering>
<clus scale="   42.714">  5  6 -1 -1</clus>
<clus scale="   76.425">  2  3  1 -1</clus>
<clus scale="  114.291">  2  4  1 -1</clus>
<clus scale="  122.387">  1  3  2 -1</clus>
</clustering>
</event>
<event>
 6    0  0.1080632E+003  0.9887676E+02  0.7546771E-02  0.1282676E+00
         21   -1    0    0  505  501  0.00000000000E+00  0.00000000000E+00  0.22119742626E+03  0.22119742626E+03  0.00000000000E+00 0. -1.
         21   -1    0    0  501  502 -0.00000000000E+00 -0.00000000000E+00 -0.20574392713E+03  0.20574392713E+03  0.00000000000E+00 0. -1.
         21    1    1    2  503  506 -0.27201964734E+02  0.14075264813E+02  0.13476470088E+02  0.33461548245E+02  0.00000000000E+00 0. -1.
         21    1    1    2  504  502  0.70885815163E+02  0.31544961962E+02 -0.14730775142E+03  0.16649161254E+03  0.00000000000E+00 0. -1.
         21    1    1    2  505  503  0.44598352708E+02  0.99566487939E+01  0.10335337689E+03  0.11300472748E+03  0.00000000000E+00 0. -1.
         21    1    1    2  506  504 -0.88282203137E+02 -0.55576875569E+02  0.45931403572E+02  0.11398346513E+03  0.00000000000E+00 0. -1.
<scales pt_clust_3="30.41947" pt_clust_4="81.39321" pt_clust_5="45.69626" pt_clust_6="30.41947"></scales>
<clustering>
<clus scale="   30.419">  3  6 -1 -1</clus>
<clus scale="   45.696">  1  5  2 -1</clus>
<clus scale="   81.393">  2  4  1 -1</clus>
<clus scale="   45.696">  1  3  2 -1</clus>
</clustering>
</event>
<event>
 6    0  0.1080632E+003  0.9686997E+02  0.7546771E-02  0.1287019E+00
         21   -1    0    0  506  501  0.00000000000E+00  0.00000000000E+00  0.55754533419E+03  0.55754533419E+03  0.00000000000E+00 0. -1.
         21   -1    0    0  503  502 -0.00000000000E+00 -0.00000000000E+00 -0.20653535433E+03  0.20653535433E+03  0.00000000000E+00 0.  1.
         21    1    1    2  503  505  0.68952456627E+01 -0.84786671748E+02 -0.60702553392E+02  0.10450418225E+03  0.00000000000E+00 0.  1.
         21    1    1    2  504  502  0.63708151620E+02  0.11325801955E+03 -0.70193233440E+02  0.14769291654E+03  0.00000000000E+00 0.  1.
         21    1    1    2  505  501 -0.29199199402E+02  0.10799042760E+02  0.43996083271E+03  0.44106093331E+03  0.00000000000E+00 0. -1.
         21    1    1    2  506  504 -0.41404197881E+02 -0.39270390558E+02  0.41944933984E+02  0.70822656429E+02  0.00000000000E+00 0.  1.
<scales pt_clust_3="14000.00000" pt_clust_4="96.86997" pt_clust_5="31.13218" pt_clust_6="65.09762"></scales>
<clustering>
<clus scale="   31.132">  1  5  2 -1</clus>
<clus scale="   65.098">  1  6  2 -1</clus>
<clus scale="   96.870">  1  4  2 -1</clus>
<clus scale="   31.132">  1  3  2 -1</clus>
</clustering>
</event>
<event>
 6    0  0.1080632E+003  0.3257603E+03  0.7546771E-02  0.1073028E+00
         21   -1    0    0  506  501  0.00000000000E+00  0.00000000000E+00  0.47017599829E+03  0.47017599829E+03  0.00000000000E+00 0. -1.
         21   -1    0    0  504  502 -0.00000000000E+00 -0.00000000000E+00 -0.77400797171E+03  0.77400797171E+03  0.00000000000E+00 0.  1.
         21    1    1    2  503  505  0.92483740626E+02  0.17350605222E+03  0.14903845903E+03  0.24671857389E+03  0.00000000000E+00 0. -1.
         21    1    1    2  504  501 -0.21007363813E+03 -0.15397948108E+03 -0.40378668212E+03  0.48050421298E+03  0.00000000000E+00 0.  1.
         21    1    1    2  505  502  0.14502550510E+02 -0.81728731250E+02 -0.26064295018E+03  0.27354096030E+03  0.00000000000E+00 0.  1.
         21    1    1    2  506  503  0.10308734700E+03  0.62202160116E+02  0.21155919986E+03  0.24342022283E+03  0.00000000000E+00 0. -1.
<scales pt_clust_3="101.44964" pt_clust_4="299.53430" pt_clust_5="83.00548" pt_clust_6="101.44964"></scales>
<clustering>
<clus scale="   83.005">  2  5  1 -1</clus>
<clus scale="  101.450">  3  6 -1 -1</clus>
<clus scale="  299.534">  2  4  1 -1</clus>
<clus scale="  325.760">  1  3  2 -1</clus>
</clustering>
</event>
<event>
 6    0  0.1080632E+003  0.3335685E+03  0.7546771E-02  0.1069569E+00
         21   -1    0    0  506  501  0.00000000000E+00  0.00000000000E+00  0.94745737882E+03  0.94745737882E+03  0.00000000000E+00 0. -1.
         21   -1    0    0  503  502 -0.00000000000E+00 -0.00000000000E+00 -0.17587142015E+03  0.17587142015E+03  0.00000000000E+00 0. -1.
         21    1    1    2  503  505 -0.91679437340E+01 -0.45736595394E+02 -0.38398249404E+02  0.60417819456E+02  0.00000000000E+00 0. -1.
         21    1    1    2  504  502  0.10583587643E+03  0.78410238351E+02  0.32743071041E+03  0.35293096823E+03  0.00000000000E+00 0. -1.
         21    1    1    2  505  501 -0.25830231788E+03 -0.15600053565E+03  0.20051891117E+03  0.36230386181E+03  0.00000000000E+00 0. -1.
         21    1    1    2  506  504  0.16163438519E+03  0.12332689269E+03  0.28203458649E+03  0.34767614948E+03  0.00000000000E+00 0. -1.
<scales pt_clust_3="46.64641" pt_clust_4="68.75642" pt_clust_5="322.65118" pt_clust_6="68.75642"></scales>
<clustering>
<clus scale="   46.646">  2  3  1 -1</clus>
<clus scale="   68.756">  4  6 -1 -1</clus>
<clus scale="  322.651">  2  5  1 -1</clus>
<clus scale="  333.569">  1  3  2 -1</clus>
</clustering>
</event>
<event>
 6    0  0.1080632E+003  0.1452241E+03  0.7546771E-02  0.1206467E+00
         21   -1    0    0  503  501  0.00000000000E+00  0.00000000000E+00  0.13503252246E+03  0.13503252246E+03  0.00000000000E+00 0.  1.
         21   -1    0    0  506  502 -0.00000000000E+00 -0.00000000000E+00 -0.92314114237E+03  0.92314114237E+03  0.00000000000E+00 0.  1.
         21    1    1    2  503  504 -0.82515413006E+02 -0.12139514433E+03  0.75401645049E+02  0.16501812787E+03  0.00000000000E+00 0.  1.
         21    1    1    2  504  505  0.56634211884E+02  0.11835129528E+03 -0.43212536669E+03  0.45160468951E+03  0.00000000000E+00 0.  1.
         21    1    1    2  505  502  0.55217916439E+02 -0.59404324987E+01 -0.35357980932E+03  0.35791477839E+03  0.00000000000E+00 0.  1.
         21    1    1    2  506  501 -0.29336715317E+02  0.89842815439E+01 -0.77805088950E+02  0.83636069055E+02  0.00000000000E+00 0.  1.
<scales pt_clust_3="145.22410" pt_clust_4="14000.00000" pt_clust_5="42.88301" pt_clust_6="30.68159"></scales>
<clustering>
<clus scale="   30.682">  2  6  1 -1</clus>
<clus scale="   42.883">  2  5  1 -1</clus>
<clus scale="  145.224">  1  3  2 -1</clus>
<clus scale="  145.224">  1  3  2 -1</clus>
</clustering>
</event>
<event>
 6    0  0.1080632E+003  0.9356030E+02  0.7546771E-02  0.1294452E+00
         21   -1    0    0  503  501  0.00000000000E+00  0.00000000000E+00  0.67025338000E+02  0.67025338000E+02  0.00000000000E+00 0. -1.
         21   -1    0    0  504  502 -0.00000000000E+00 -0.00000000000E+00 -0.35633450138E+03  0.35633450138E+03  0.00000000000E+00 0. -1.
         21    1    1    2  503  506 -0.45429616712E+02 -0.14446664484E+01  0.11675678073E+02  0.46928228117E+02  0.00000000000E+00 0. -1.
         21    1    1    2  504  505  0.27452816606E+02  0.15786249852E+02 -0.45713065757E+02  0.55610675279E+02  0.00000000000E+00 0. -1.
         21    1    1    2  505  501  0.89496115251E+02 -0.61363808164E+02 -0.13509866667E+03  0.17328220143E+03  0.00000000000E+00 0. -1.
         21    1    1    2  506  502 -0.71519315144E+02  0.47022224760E+02 -0.12017310903E+03  0.14753873455E+03  0.00000000000E+00 0. -1.
<scales pt_clust_3="43.84984" pt_clust_4="31.66801" pt_clust_5="14000.00000" pt_clust_6="93.56030"></scales>
<clustering>
<clus scale="   31.668">  2  4  1 -1</clus>
<clus scale="   43.850">  1  3  2 -1</clus>
<clus scale="   93.560">  2  6  1 -1</clus>
<clus scale="   43.850">  1  3  2 -1</clus>
</clustering>
</event>
<event>
 6    0  0.1080632E+003  0.1072914E+03  0.7546771E-02  0.1265670E+00
         21   -1    0    0  503  501  0.00000000000E+00  0.00000000000E+00  0.79060429103E+02  0.79060429103E+02  0.00000000000E+00 0.  1.
         21   -1    0    0  505  502 -0.00000000000E+00 -0.00000000000E+00 -0.17206203689E+04  0.17206203689E+04  0.00000000000E+00 0.  1.
         21    1    1    2  503  504 -0.54505025977E+02 -0.89162724254E+02 -0.37369024469E+03  0.38802730346E+03  0.00000000000E+00 0.  1.
         21    1    1    2  504  502  0.67566025830E+02 -0.88049514207E+02 -0.10958818022E+04  0.11014875438E+04  0.00000000000E+00 0.  1.
         21    1    1    2  505  506  0.12422225477E+02  0.68983084177E+02 -0.18536575093E+03  0.19817527395E+03  0.00000000000E+00 0.  1.
         21    1    1    2  506  501 -0.25483225329E+02  0.10822915428E+03  0.13377857977E+02  0.11199067682E+03  0.00000000000E+00 0.  1.
<scales pt_clust_3="107.29140" pt_clust_4="85.62466" pt_clust_5="70.09264" pt_clust_6="14000.00000"></scales>
<clustering>
<clus scale="   70.093">  2  5  1 -1</clus>
<clus scale="   85.625">  2  4  1 -1</clus>
<clus scale="  107.291">  2  3  1 -1</clus>
<clus scale="  107.291">  1  3  2 -1</clus>
</clustering>
</event>
<event>
 6    0  0.2620636E+003  0.1262038E+03  0.7546771E-02  0.1233200E+00
         21   -1    0    0  503  501  0.00000000000E+00  0.00000000000E+00  0.96233579953E+03  0.96233579953E+03  0.00000000000E+00 0. -1.
         21   -1    0    0  501  502 -0.00000000000E+00 -0.00000000000E+00 -0.74739565076E+03  0.74739565076E+03  0.00000000000E+00 0.  1.
         21    1    1    2  503  506  0.31664820627E+02  0.11316181012E+02  0.57853666416E+02  0.66916093250E+02  0.00000000000E+00 0. -1.
         21    1    1    2  504  505  0.35380348811E+02  0.44839215917E+02  0.44227597645E+03  0.44594883530E+03  0.00000000000E+00 0. -1.
         21    1    1    2  505  502 -0.55712293422E+02 -0.10320628941E+03 -0.73508141670E+03  0.74437899418E+03  0.00000000000E+00 0.  1.
         21    1    1    2  506  504 -0.11332876015E+02  0.47050892484E+02  0.44989192261E+03  0.45248752755E+03  0.00000000000E+00 0. -1.
<scales pt_clust_3="33.62613" pt_clust_4="40.31006" pt_clust_5="117.15433" pt_clust_6="40.31006"></scales>
<clustering>
<clus scale="   33.626">  1  3  2 -1</clus>
<clus scale="   40.310">  4  6 -1 -1</clus>
<clus scale="  117.154">  2  5  1 -1</clus>
<clus scale="   33.626">  1  3  2 -1</clus>
</clustering>
</event>
<event>
 6    0  0.1080632E+003  0.1358683E+03  0.7546771E-02  0.1218999E+00
         21   -1    0    0  505  501  0.00000000000E+00  0.00000000000E+00  0.43040234066E+03  0.43040234066E+03  0.00000000000E+00 0. -1.
         21   -1    0    0  504  502 -0.00000000000E+00 -0.00000000000E+00 -0.86405300635E+02  0.86405300635E+02  0.00000000000E+00 0. -1.
         21    1    1    2  503  502  0.46493147174E+02  0.27546951733E+02  0.37039577586E+02  0.65516239145E+02  0.00000000000E+00 0. -1.
         21    1    1    2  504  506 -0.20739994342E+02  0.47069660035E+02 -0.30426693201E+02  0.59761893546E+02  0.00000000000E+00 0. -1.
         21    1    1    2  505  503  0.17810068051E+02  0.56722103871E+02  0.11842648892E+03  0.13251199519E+03  0.00000000000E+00 0. -1.
         21    1    1    2  506  501 -0.43563220883E+02 -0.13133871564E+03  0.21895766672E+03  0.25901751341E+03  0.00000000000E+00 0. -1.
<scales pt_clust_3="58.15016" pt_clust_4="51.43637" pt_clust_5="58.15016" pt_clust_6="121.04082"></scales>
<clustering>
<clus scale="   51.436">  2  4  1 -1</clus>
<clus scale="   58.150">  3  5 -1 -1</clus>
<clus scale="  121.041">  2  6  1 -1</clus>
<clus scale="  135.868">  1  3  2 -1</clus>
</clustering>
</event>
<event>
 6    0  0.1080632E+003  0.1268771E+03  0.7546771E-02  0.1232165E+00
         21   -1    0    0  504  501  0.00000000000E+00  0.00000000000E+00  0.41514786646E+03  0.41514786646E+03  0.00000000000E+00 0.  1.
         21   -1    0    0  505  502 -0.00000000000E+00 -0.00000000000E+00 -0.55517353420E+03  0.55517353420E+03  0.00000000000E+00 0.  1.
         21    1    1    2  503  502  0.37671406159E+02  0.68619291601E+02 -0.23449277431E+03  0.24721367928E+03  0.00000000000E+00 0.  1.
         21    1    1    2  504  503 -0.48226479973E+02  0.26660715670E+02 -0.23078995717E+03  0.23727745671E+03  0.00000000000E+00 0.  1.
         21    1    1    2  505  506 -0.51397186074E+02  0.19676025760E+02 -0.58586353587E+02  0.80381450302E+02  0.00000000000E+00 0.  1.
         21    1    1    2  506  501  0.61952259888E+02 -0.11495603303E+03  0.38384341733E+03  0.40544881436E+03  0.00000000000E+00 0.  1.
<scales pt_clust_3="79.31793" pt_clust_4="126.87708" pt_clust_5="55.03469" pt_clust_6="14000.00000"></scales>
<clustering>
<clus scale="   55.035">  2  5  1 -1</clus>
<clus scale="   79.318">  2  3  1 -1</clus>
<clus scale="  126.877">  2  4  1 -1</clus>
<clus scale="  126.877">  1  3  2 -1</clus>
</clustering>
</event>
<event>
 6    0  0.1080632E+003  0.6957739E+02  0.7546771E-02  0.1361536E+00
         21   -1    0    0  502  501  0.00000000000E+00  0.00000000000E+00  0.13852133061E+04  0.13852133061E+04  0.00000000000E+00 0.  1.
         21   -1    0    0  505  502 -0.00000000000E+00 -0.00000000000E+00 -0.86111470893E+03  0.86111470893E+03  0.00000000000E+00 0. -1.
         21    1    1    2  503  501  0.25278149868E+02  0.19715068642E+02  0.13017055197E+04  0.13021001992E+04  0.00000000000E+00 0.  1.
         21    1    1    2  504  506  0.10033384245E+03  0.24081287477E+02 -0.74990317511E+03  0.75696866540E+03  0.00000000000E+00 0. -1.
         21    1    1    2  505  504 -0.35275780977E+02 -0.13147183003E+02 -0.72636623921E+02  0.81812641316E+02  0.00000000000E+00 0. -1.
         21    1    1    2  506  503 -0.90336211336E+02 -0.30649173116E+02  0.44932876510E+02  0.10544650911E+03  0.00000000000E+00 0.  1.
<scales pt_clust_3="32.05727" pt_clust_4="69.57739" pt_clust_5="35.96641" pt_clust_6="14000.00000"></scales>
<clustering>
<clus scale="   32.057">  1  3  2 -1</clus>
<clus scale="   35.966">  2  5  1 -1</clus>
<clus scale="   69.577">  2  4  1 -1</clus>
<clus scale="   32.057">  1  3  2 -1</clus>
</clustering>
</event>
<event>
 6    0  0.1080632E+003  0.8862737E+02  0.7546771E-02  0.1306210E+00
         21   -1    0    0  503  501  0.00000000000E+00  0.00000000000E+00  0.21658585933E+03  0.21658585933E+03  0.00000000000E+00 0. -1.
         21   -1    0    0  505  502 -0.00000000000E+00 -0.00000000000E+00 -0.45572470388E+03  0.45572470388E+03  0.00000000000E+00 0.  1.
         21    1    1    2  503  502 -0.41774639884E+02 -0.51088753426E+02 -0.35256673899E+03  0.35868995902E+03  0.00000000000E+00 0.  1.
         21    1    1    2  504  506  0.95224498514E+02  0.67870908189E+02 -0.38849178045E+01  0.11700110205E+03  0.00000000000E+00 0. -1.
         21    1    1    2  505  504  0.32193981405E+02 -0.12432149614E+02 -0.16053693590E+02  0.38062210401E+02  0.00000000000E+00 0. -1.
         21    1    1    2  506  501 -0.85643840035E+02 -0.43500051494E+01  0.13336650583E+03  0.15855729173E+03  0.00000000000E+00 0. -1.
<scales pt_clust_3="63.22397" pt_clust_4="14000.00000" pt_clust_5="34.51102" pt_clust_6="88.62737"></scales>
<clustering>
<clus scale="   34.511">  2  5  1 -1</clus>
<clus scale="   63.224">  2  3  1 -1</clus>
<clus scale="   88.627">  1  6  2 -1</clus>
<clus scale="   88.627">  1  3  2 -1</clus>
</clustering>
</event>
<event>
 6    0  0.1080632E+003  0.1034475E+03  0.7546771E-02  0.1273209E+00
         21   -1    0    0  506  501  0.00000000000E+00  0.00000000000E+00  0.20337004330E+03  0.20337004330E+03  0.00000000000E+00 0.  1.
         21   -1    0    0  503  502 -0.00000000000E+00 -0.00000000000E+00 -0.93085875574E+03  0.93085875574E+03  0.00000000000E+00 0.  1.
         21    1    1    2  503  501  0.96330505719E+02 -0.44575194166E+02  0.65911312592E+02  0.12494324870E+03  0.00000000000E+00 0.  1.
         21    1    1    2  504  502 -0.40372334688E+02 -0.94660134518E+02 -0.80615711504E+03  0.81269905907E+03  0.00000000000E+00 0.  1.
         21    1    1    2  505  504  0.29145632913E+01  0.12587294345E+03  0.37454953194E+02  0.13135968213E+03  0.00000000000E+00 0.  1.
         21    1    1    2  506  505 -0.58872734323E+02  0.13362385237E+02 -0.24697863185E+02  0.65226809149E+02  0.00000000000E+00 0.  1.
<scales pt_clust_3="75.65923" pt_clust_4="14000.00000" pt_clust_5="103.44754" pt_clust_6="60.37013"></scales>
<clustering>
<clus scale="   60.370">  1  6  2 -1</clus>
<clus scale="   75.659">  1  3  2 -1</clus>
<clus scale="  103.448">  1  5  2 -1</clus>
<clus scale="   60.370">  1  3  2 -1</clus>
</clustering>
</event>
<event>
 6    0  0.1080632E+003  0.1037118E+03  0.7546771E-02  0.1272679E+00
         21   -1    0    0  504  501  0.00000000000E+00  0.00000000000E+00  0.34655950405E+03  0.34655950405E+03  0.00000000000E+00 0.  1.
         21   -1    0    0  505  502 -0.00000000000E+00 -0.00000000000E+00 -0.86943828278E+03  0.86943828278E+03  0.00000000000E+00 0.  1.
         21    1    1    2  503  501 -0.14210221433E+02  0.28932262678E+02  0.28568526892E+03  0.28749796364E+03  0.00000000000E+00 0.  1.
         21    1    1    2  504  506 -0.96101873757E+02  0.70760862594E+01 -0.82244219305E+02  0.12668761875E+03  0.00000000000E+00 0.  1.
         21    1    1    2  505  503  0.10490548135E+03  0.59861322319E+02 -0.72274013096E+02  0.14075535832E+03  0.00000000000E+00 0.  1.
         21    1    1    2  506  502  0.54066138390E+01 -0.95869671256E+02 -0.65404581526E+03  0.66105684611E+03  0.00000000000E+00 0.  1.
<scales pt_clust_3="32.23362" pt_clust_4="14000.00000" pt_clust_5="103.71185" pt_clust_6="94.28949"></scales>
<clustering>
<clus scale="   32.234">  1  3  2 -1</clus>
<clus scale="   94.289">  2  6  1 -1</clus>
<clus scale="  103.712">  1  5  2 -1</clus>
<clus scale="   32.234">  1  3  2 -1</clus>
</clustering>
</event>
<event>
 6    0  0.1080632E+003  0.8704656E+02  0.7546771E-02  0.1310166E+00
         21   -1    0    0  503  501  0.00000000000E+00  0.00000000000E+00  0.25400458836E+03  0.25400458836E+03  0.00000000000E+00 0. -1.
         21   -1    0    0  504  502 -0.00000000000E+00 -0.00000000000E+00 -0.13528203187E+03  0.13528203187E+03  0.00000000000E+00 0. -1.
         21    1    1    2  503  506  0.30922638108E+02 -0.17025095140E+02  0.90630984719E+02  0.97262730803E+02  0.00000000000E+00 0. -1.
         21    1    1    2  504  505 -0.79749811430E+02 -0.84335809035E+02 -0.65607516025E+02  0.13333006888E+03  0.00000000000E+00 0. -1.
         21    1    1    2  505  501  0.35364402528E+02  0.70565782199E+02  0.96846285888E+02  0.12493747906E+03  0.00000000000E+00 0. -1.
         21    1    1    2  506  502  0.13462770795E+02  0.30795121976E+02 -0.31471980952E+01  0.33756341491E+02  0.00000000000E+00 0. -1.
<scales pt_clust_3="35.22561" pt_clust_4="87.04656" pt_clust_5="14000.00000" pt_clust_6="33.60931"></scales>
<clustering>
<clus scale="   33.609">  2  6  1 -1</clus>
<clus scale="   35.226">  1  3  2 -1</clus>
<clus scale="   87.047">  2  4  1 -1</clus>
<clus scale="   35.226">  1  3  2 -1</clus>
</clustering>
</event>
<event>
 6    0  0.1080632E+003  0.1243148E+03  0.7546771E-02  0.1236144E+00
         21   -1    0    0  502  501  0.00000000000E+00  0.00000000000E+00  0.18874568775E+04  0.18874568775E+04  0.00000000000E+00 0.  1.
         21   -1    0    0  506  502 -0.00000000000E+00 -0.00000000000E+00 -0.31691676764E+02  0.31691676764E+02  0.00000000000E+00 0. -1.
         21    1    1    2  503  504  0.19825290968E+01 -0.12133232551E+03  0.13612639511E+03  0.18236189043E+03  0.00000000000E+00 0. -1.
         21    1    1    2  504  505  0.29986024265E+00  0.12338802966E+03  0.74918911534E+03  0.75928191492E+03  0.00000000000E+00 0.  1.
         21    1    1    2  505  501 -0.32232392125E+02 -0.23169767945E+00  0.90422798081E+03  0.90480231105E+03  0.00000000000E+00 0.  1.
         21    1    1    2  506  503  0.29950002786E+02 -0.18240064754E+01  0.66221709434E+02  0.72702437833E+02  0.00000000000E+00 0. -1.
<scales pt_clust_3="14000.00000" pt_clust_4="124.31483" pt_clust_5="31.93108" pt_clust_6="30.00549"></scales>
<clustering>
<clus scale="   30.005">  2  6  1 -1</clus>
<clus scale="   31.931">  1  5  2 -1</clus>
<clus scale="  124.315">  1  4  2 -1</clus>
<clus scale="   31.931">  1  3  2 -1</clus>
</clustering>
</event>
<event>
 6    0  0.1080632E+003  0.9063733E+02  0.7546771E-02  0.1301316E+00
         21   -1    0    0  504  501  0.00000000000E+00  0.00000000000E+00  0.28427954600E+03  0.28427954600E+03  0.00000000000E+00 0. -1.
         21   -1    0    0  506  502 -0.00000000000E+00 -0.00000000000E+00 -0.22514198329E+03  0.22514198329E+03  0.00000000000E+00 0. -1.
         21    1    1    2  503  505  0.33386076133E+02 -0.50613147884E+02  0.11027333240E+02  0.61627290194E+02  0.00000000000E+00 0.  1.
         21    1    1    2  504  503  0.22224057524E+02  0.54598614506E+02  0.12190955395E+02  0.60195820720E+02  0.00000000000E+00 0. -1.
         21    1    1    2  505  502 -0.22326329074E+02 -0.88863610706E+02 -0.15271169554E+03  0.17809005652E+03  0.00000000000E+00 0. -1.
         21    1    1    2  506  501 -0.33283804583E+02  0.84878144084E+02  0.18863096961E+03  0.20950836186E+03  0.00000000000E+00 0. -1.
<scales pt_clust_3="56.20348" pt_clust_4="58.94843" pt_clust_5="14000.00000" pt_clust_6="90.63733"></scales>
<clustering>
<clus scale="   58.948">  1  4  2 -1</clus>
<clus scale="   56.203">  1  3  2 -1</clus>
<clus scale="   90.637">  1  6  2 -1</clus>
<clus scale="   58.948">  1  3  2 -1</clus>
</clustering>
</event>
<event>
 6    0  0.1080632E+003  0.1636778E+03  0.7546771E-02  0.1184606E+00
         21   -1    0    0  505  501  0.00000000000E+00  0.00000000000E+00  0.31869040684E+04  0.31869040684E+04  0.00000000000E+00 0.  1.
         21   -1    0    0  506  502 -0.00000000000E+00 -0.00000000000E+00 -0.77385065550E+02  0.77385065550E+02  0.00000000000E+00 0. -1.
         21    1    1    2  503  501  0.28152987088E+02  0.13340406048E+03  0.44757071852E+03  0.46787688777E+03  0.00000000000E+00 0.  1.
         21    1    1    2  504  503  0.86372811584E+01 -0.15520071886E+03  0.12526485063E+03  0.19963253383E+03  0.00000000000E+00 0. -1.
         21    1    1    2  505  502 -0.47432876918E+02  0.63803230741E+02  0.25501597942E+04  0.25513987744E+04  0.00000000000E+00 0.  1.
         21    1    1    2  506  504  0.10642608672E+02 -0.42006572355E+02 -0.13476360467E+02  0.45380937979E+02  0.00000000000E+00 0. -1.
<scales pt_clust_3="14000.00000" pt_clust_4="163.67779" pt_clust_5="78.98581" pt_clust_6="43.33379"></scales>
<clustering>
<clus scale="   43.334">  2  6  1 -1</clus>
<clus scale="   78.986">  1  5  2 -1</clus>
<clus scale="  163.678">  2  4  1 -1</clus>
<clus scale="   78.986">  1  3  2 -1</clus>
</clustering>
</event>
<event>
 6    0  0.1080632E+003  0.1024021E+03  0.7546771E-02  0.1275324E+00
         21   -1    0    0  503  501  0.00000000000E+00  0.00000000000E+00  0.10635701140E+03  0.10635701140E+03  0.00000000000E+00 0. -1.
         21   -1    0    0  506  502 -0.00000000000E+00 -0.00000000000E+00 -0.16293263171E+04  0.16293263171E+04  0.00000000000E+00 0.  1.
         21    1    1    2  503  504  0.91016586301E+01 -0.79718136916E+02  0.84410715997E+01  0.80678827662E+02  0.00000000000E+00 0. -1.
         21    1    1    2  504  502  0.26770053706E+02 -0.62869336993E+02 -0.14460124682E+03  0.15993345457E+03  0.00000000000E+00 0.  1.
         21    1    1    2  505  501 -0.77147956019E+02  0.16271557798E+03 -0.97184253347E+02  0.20462879937E+03  0.00000000000E+00 0.  1.
         21    1    1    2  506  505  0.41276243683E+02 -0.20128104068E+02 -0.12896248771E+04  0.12904422469E+04  0.00000000000E+00 0.  1.
<scales pt_clust_3="82.96584" pt_clust_4="102.40214" pt_clust_5="14000.00000" pt_clust_6="45.92242"></scales>
<clustering>
<clus scale="   45.922">  2  6  1 -1</clus>
<clus scale="   82.966">  1  3  2 -1</clus>
<clus scale="  102.402">  2  4  1 -1</clus>
<clus scale="   82.966">  1  3  2 -1</clus>
</clustering>
</event>
<event>
 6    0  0.1080632E+003  0.9243825E+02  0.7546771E-02  0.1297052E+00
         21   -1    0    0  505  501  0.00000000000E+00  0.00000000000E+00  0.10431929063E+04  0.10431929063E+04  0.00000000000E+00 0. -1.
         21   -1    0    0  503  502 -0.00000000000E+00 -0.00000000000E+00 -0.15204958500E+03  0.15204958500E+03  0.00000000000E+00 0.  1.
         21    1    1    2  503  506  0.27147553940E+02  0.11630635791E+03 -0.77843372388E+02  0.14256138748E+03  0.00000000000E+00 0.  1.
         21    1    1    2  504  501 -0.26692396859E+02 -0.39442434564E+02  0.91173241370E+03  0.91297545635E+03  0.00000000000E+00 0. -1.
         21    1    1    2  505  502 -0.50122529055E+02 -0.33518013322E+02  0.36991962835E+02  0.70739878783E+02  0.00000000000E+00 0. -1.
         21    1    1    2  506  504  0.49667371974E+02 -0.43345910023E+02  0.20262317150E+02  0.68965768689E+02  0.00000000000E+00 0.  1.
<scales pt_clust_3="92.43825" pt_clust_4="47.62552" pt_clust_5="14000.00000" pt_clust_6="69.79445"></scales>
<clustering>
<clus scale="   47.626">  1  4  2 -1</clus>
<clus scale="   69.794">  1  6  2 -1</clus>
<clus scale="   92.438">  2  3  1 -1</clus>
<clus scale="   47.626">  1  3  2 -1</clus>
</clustering>
</event>
<event>
 6    0  0.1080632E+003  0.1152751E+03  0.7546771E-02  0.1251102E+00
         21   -1    0    0  503  501  0.00000000000E+00  0.00000000000E+00  0.57079678974E+02  0.57079678974E+02  0.00000000000E+00 0. -1.
         21   -1    0    0  504  502 -0.00000000000E+00 -0.00000000000E+00 -0.48473070692E+03  0.48473070692E+03  0.00000000000E+00 0. -1.
         21    1    1    2  503  506 -0.21592919056E+02  0.51936953970E+02 -0.22769693231E+00  0.56247250483E+02  0.00000000000E+00 0. -1.
         21    1    1    2  504  505 -0.14647874860E+02 -0.48840783233E+02 -0.22855988040E+03  0.23417856707E+03  0.00000000000E+00 0. -1.
         21    1    1    2  505  501  0.66607806311E+02 -0.57107069447E+02 -0.14400305864E+03  0.16862591183E+03  0.00000000000E+00 0. -1.
         21    1    1    2  506  502 -0.30367012395E+02  0.54010898710E+02 -0.54860391983E+02  0.82758656524E+02  0.00000000000E+00 0. -1.
<scales pt_clust_3="46.31607" pt_clust_4="50.99002" pt_clust_5="104.52365" pt_clust_6="46.31607"></scales>
<clustering>
<clus scale="   46.316">  3  6 -1 -1</clus>
<clus scale="   50.990">  2  4  1 -1</clus>
<clus scale="  104.524">  2  5  1 -1</clus>
<clus scale="  115.275">  1  3  2 -1</clus>
</clustering>
</event>
<event>
 6    0  0.1080632E+003  0.8023910E+02  0.7546771E-02  0.1328374E+00
         21   -1    0    0  506  501  0.00000000000E+00  0.00000000000E+00  0.35950103839E+03  0.35950103839E+03  0.00000000000E+00 0. -1.
         21   -1    0    0  503  502 -0.00000000000E+00 -0.00000000000E+00 -0.38077289116E+03  0.38077289116E+03  0.00000000000E+00 0.  1.
         21    1    1    2  503  504  0.32919106004E+02 -0.41641592265E+02 -0.34035178398E+03  0.34446629241E+03  0.00000000000E+00 0.  1.
         21    1    1    2  504  505 -0.90436180540E+02  0.28782682541E+02  0.19370648899E+03  0.21570662818E+03  0.00000000000E+00 0. -1.
         21    1    1    2  505  501 -0.74306339320E+01 -0.40528815670E+02  0.21530838473E+02  0.46490603627E+02  0.00000000000E+00 0.  1.
         21    1    1    2  506  502  0.64947708468E+02  0.53387725394E+02  0.10384260375E+03  0.13361040533E+03  0.00000000000E+00 0. -1.
<scales pt_clust_3="53.25410" pt_clust_4="80.23910" pt_clust_5="41.20436" pt_clust_6="14000.00000"></scales>
<clustering>
<clus scale="   41.204">  1  5  2 -1</clus>
<clus scale="   53.254">  2  3  1 -1</clus>
<clus scale="   80.239">  1  4  2 -1</clus>
<clus scale="   41.204">  1  3  2 -1</clus>
</clustering>
</event>
<event>
 6    0  0.1080632E+003  0.7982067E+02  0.7546771E-02  0.1329561E+00
         21   -1    0    0  506  501  0.00000000000E+00  0.00000000000E+00  0.79101325443E+03  0.79101325443E+03  0.00000000000E+00 0. -1.
         21   -1    0    0  505  502 -0.00000000000E+00 -0.00000000000E+00 -0.47126245651E+02  0.47126245651E+02  0.00000000000E+00 0.  1.
         21    1    1    2  503  502  0.29124725077E+02  0.60920643841E+02  0.86982765535E+02  0.11011619298E+03  0.00000000000E+00 0.  1.
         21    1    1    2  504  503 -0.50020626164E+01  0.68136693066E+02  0.85681676417E+02  0.10958548830E+03  0.00000000000E+00 0.  1.
         21    1    1    2  505  501 -0.10428407928E+02 -0.63833518605E+02  0.26900211380E+02  0.70050632843E+02  0.00000000000E+00 0.  1.
         21    1    1    2  506  504 -0.13694254533E+02 -0.65223818302E+02  0.54432235545E+03  0.54838718596E+03  0.00000000000E+00 0. -1.
<scales pt_clust_3="34.69781" pt_clust_4="34.69781" pt_clust_5="64.67975" pt_clust_6="71.78593"></scales>
<clustering>
<clus scale="   34.698">  3  4 -1 -1</clus>
<clus scale="   64.680">  2  5  1 -1</clus>
<clus scale="   71.786">  1  6  2 -1</clus>
<clus scale="   71.786">  1  3  2 -1</clus>
</clustering>
</event>
<event>
 6    0  0.1080632E+003  0.1650162E+03  0.7546771E-02  0.1183147E+00
         21   -1    0    0  503  501  0.00000000000E+00  0.00000000000E+00  0.76391239594E+03  0.76391239594E+03  0.00000000000E+00 0. -1.
         21   -1    0    0  504  502 -0.00000000000E+00 -0.00000000000E+00 -0.17091663370E+04  0.17091663370E+04  0.00000000000E+00 0.  1.
         21    1    1    2  503  506  0.37081725063E+02  0.17133378347E+02  0.39313483070E+03  0.39525131511E+03  0.00000000000E+00 0. -1.
         21    1    1    2  504  505  0.16509352487E+02 -0.16505603334E+03 -0.16784576014E+04  0.16866345107E+04  0.00000000000E+00 0.  1.
         21    1    1    2  505  501 -0.12904374078E+02  0.54315239558E+02  0.27209006882E+02  0.62104735521E+02  0.00000000000E+00 0.  1.
         21    1    1    2  506  502 -0.40686703472E+02  0.93607415431E+02  0.31285982272E+03  0.32908817167E+03  0.00000000000E+00 0. -1.
<scales pt_clust_3="40.84859" pt_clust_4="165.01618" pt_clust_5="57.01073" pt_clust_6="14000.00000"></scales>
<clustering>
<clus scale="   40.849">  1  3  2 -1</clus>
<clus scale="   57.011">  1  5  2 -1</clus>
<clus scale="  165.016">  2  4  1 -1</clus>
<clus scale="   40.849">  1  3  2 -1</clus>
</clustering>
</event>
<event>
 6    0  0.1080632E+003  0.1644736E+03  0.7546771E-02  0.1183737E+00
         21   -1    0    0  505  501  0.00000000000E+00  0.00000000000E+00  0.28309537765E+03  0.28309537765E+03  0.00000000000E+00 0.  1.
         21   -1    0    0  504  502 -0.00000000000E+00 -0.00000000000E+00 -0.16479314658E+04  0.16479314658E+04  0.00000000000E+00 0. -1.
         21    1    1    2  503  501 -0.92007538079E+01  0.95304257502E+02  0.16115377584E+03  0.18745157998E+03  0.00000000000E+00 0.  1.
         21    1    1    2  504  506  0.26778452251E+02 -0.19723959956E+03 -0.14871017118E+04  0.15003639713E+04  0.00000000000E+00 0. -1.
         21    1    1    2  505  502 -0.64696271102E+02  0.55394172949E+02 -0.11449477136E+03  0.14269959551E+03  0.00000000000E+00 0.  1.
         21    1    1    2  506  503  0.47118572658E+02  0.46541169110E+02  0.75606619142E+02  0.10051169668E+03  0.00000000000E+00 0.  1.
<scales pt_clust_3="60.60182" pt_clust_4="147.45194" pt_clust_5="85.17113" pt_clust_6="60.60182"></scales>
<clustering>
<clus scale="   60.602">  3  6 -1 -1</clus>
<clus scale="   85.171">  2  5  1 -1</clus>
<clus scale="  147.452">  2  4  1 -1</clus>
<clus scale="  164.474">  1  3  2 -1</clus>
</clustering>
</event>
<event>
 6    0  0.1080632E+003  0.1255438E+03  0.7546771E-02  0.1234222E+00
         21   -1    0    0  505  501  0.00000000000E+00  0.00000000000E+00  0.64461216130E+03  0.64461216130E+03  0.00000000000E+00 0.  1.
         21   -1    0    0  504  502 -0.00000000000E+00 -0.00000000000E+00 -0.98665913532E+03  0.98665913532E+03  0.00000000000E+00 0. -1.
         21    1    1    2  503  502  0.43471999992E+02  0.53004128035E+02 -0.52494933279E+03  0.52940632256E+03  0.00000000000E+00 0. -1.
         21    1    1    2  504  506 -0.65721366438E+01  0.32858289232E+02 -0.36134985720E+02  0.49280800970E+02  0.00000000000E+00 0. -1.
         21    1    1    2  505  503  0.86243594246E+02 -0.57444652275E+02 -0.40388737627E+03  0.41696865389E+03  0.00000000000E+00 0.  1.
         21    1    1    2  506  501 -0.12314345759E+03 -0.28417764991E+02  0.62292472075E+03  0.63561551919E+03  0.00000000000E+00 0.  1.
<scales pt_clust_3="81.70482" pt_clust_4="33.50911" pt_clust_5="125.54378" pt_clust_6="14000.00000"></scales>
<clustering>
<clus scale="   33.509">  2  4  1 -1</clus>
<clus scale="   81.705">  2  3  1 -1</clus>
<clus scale="  125.544">  2  5  1 -1</clus>
<clus scale="  125.544">  1  3  2 -1</clus>
</clustering>
</event>
<event>
 6    0  0.1080632E+003  0.8963265E+02  0.7546771E-02  0.1303744E+00
         21   -1    0    0  505  501  0.00000000000E+00  0.00000000000E+00  0.35547801999E+02  0.35547801999E+02  0.00000000000E+00 0. -1.
         21   -1    0    0  506  502 -0.00000000000E+00 -0.00000000000E+00 -0.32668706282E+04  0.32668706282E+04  0.00000000000E+00 0. -1.
         21    1    1    2  503  502  0.31875958936E+02 -0.83763986949E+02 -0.24730316575E+04  0.24746551399E+04  0.00000000000E+00 0. -1.
         21    1    1    2  504  503  0.67021043731E+02  0.11721821620E+03 -0.38773830890E+03  0.41057633481E+03  0.00000000000E+00 0.  1.
         21    1    1    2  505  504 -0.40465090854E+02 -0.61158528644E+02 -0.33591709974E+03  0.34382857225E+03  0.00000000000E+00 0.  1.
         21    1    1    2  506  501 -0.58431911813E+02  0.27704299395E+02 -0.34635760087E+02  0.73358383296E+02  0.00000000000E+00 0. -1.
<scales pt_clust_3="14000.00000" pt_clust_4="89.63265" pt_clust_5="77.16909" pt_clust_6="64.66697"></scales>
<clustering>
<clus scale="   64.667">  1  6  2 -1</clus>
<clus scale="   77.169">  1  5  2 -1</clus>
<clus scale="   89.633">  1  4  2 -1</clus>
<clus scale="   64.667">  1  3  2 -1</clus>
</clustering>
</event>
<event>
 6    0  0.1080632E+003  0.1291619E+03  0.7546771E-02  0.1228705E+00
         21   -1    0    0  503  501  0.00000000000E+00  0.00000000000E+00  0.85119678441E+02  0.85119678441E+02  0.00000000000E+00 0.  1.
         21   -1    0    0  505  502 -0.00000000000E+00 -0.00000000000E+00 -0.18604699330E+04  0.18604699330E+04  0.00000000000E+00 0. -1.
         21    1    1    2  503  504  0.10695652589E+02 -0.51769976090E+02  0.32071599917E+02  0.61831342617E+02  0.00000000000E+00 0.  1.
         21    1    1    2  504  502 -0.14715175636E+02  0.12725560428E+03 -0.48435820773E+03  0.50101237371E+03  0.00000000000E+00 0.  1.
         21    1    1    2  505  506 -0.10899305903E+03 -0.45846423699E+02 -0.12236217576E+04  0.12293215963E+04  0.00000000000E+00 0. -1.
         21    1    1    2  506  501  0.11301258208E+03 -0.29639204492E+02 -0.99441889185E+02  0.15342429884E+03  0.00000000000E+00 0.  1.
<scales pt_clust_3="52.86329" pt_clust_4="116.62021" pt_clust_5="14000.00000" pt_clust_6="129.16189"></scales>
<clustering>
<clus scale="   52.863">  1  3  2 -1</clus>
<clus scale="  116.620">  2  4  1 -1</clus>
<clus scale="  129.162">  1  6  2 -1</clus>
<clus scale="   52.863">  1  3  2 -1</clus>
</clustering>
</event>
<event>
 6    0  0.1080632E+003  0.1211399E+03  0.7546771E-02  0.1241228E+00
         21   -1    0    0  504  501  0.00000000000E+00  0.00000000000E+00  0.10217261916E+04  0.10217261916E+04  0.00000000000E+00 0.  1.
         21   -1    0    0  506  502 -0.00000000000E+00 -0.00000000000E+00 -0.27023548478E+03  0.27023548478E+03  0.00000000000E+00 0. -1.
         21    1    1    2  503  505 -0.13203616670E+03  0.33029154548E+02  0.18762103692E+03  0.23178897269E+03  0.00000000000E+00 0.  1.
         21    1    1    2  504  502  0.13014491909E+03 -0.30596819193E+02 -0.18707543299E+03  0.22993712823E+03  0.00000000000E+00 0. -1.
         21    1    1    2  505  501  0.14130014194E+02 -0.50075452719E+02  0.77411519175E+03  0.77586180365E+03  0.00000000000E+00 0.  1.
         21    1    1    2  506  503 -0.12238766581E+02  0.47643117364E+02 -0.23170088884E+02  0.54373771788E+02  0.00000000000E+00 0. -1.
<scales pt_clust_3="121.13995" pt_clust_4="14000.00000" pt_clust_5="51.84530" pt_clust_6="49.18998"></scales>
<clustering>
<clus scale="   49.190">  2  6  1 -1</clus>
<clus scale="   51.845">  1  5  2 -1</clus>
<clus scale="  121.140">  1  3  2 -1</clus>
<clus scale="   51.845">  1  3  2 -1</clus>
</clustering>
</event>
<event>
 6    0  0.1080632E+003  0.1736695E+03  0.7546771E-02  0.1174074E+00
         21   -1    0    0  503  501  0.00000000000E+00  0.00000000000E+00  0.24096470713E+03  0.24096470713E+03  0.00000000000E+00 0.  1.
         21   -1    0    0  505  502 -0.00000000000E+00 -0.00000000000E+00 -0.23116590708E+03  0.23116590708E+03  0.00000000000E+00 0.  1.
         21    1    1    2  503  504  0.65145224062E+00 -0.48126735795E+02  0.29217867925E+02  0.56305336287E+02  0.00000000000E+00 0.  1.
         21    1    1    2  504  502  0.19043422551E+03 -0.17830707733E+02  0.11017181625E+02  0.19158420257E+03  0.00000000000E+00 0.  1.
         21    1    1    2  505  506 -0.16136743139E+03  0.24131455062E+02 -0.47890268457E+02  0.17004485541E+03  0.00000000000E+00 0.  1.
         21    1    1    2  506  501 -0.29718246361E+02  0.41825988466E+02  0.17454018960E+02  0.54196219940E+02  0.00000000000E+00 0.  1.
<scales pt_clust_3="48.13114" pt_clust_4="173.66949" pt_clust_5="14000.00000" pt_clust_6="44.42515"></scales>
<clustering>
<clus scale="   48.131">  1  3  2 -1</clus>
<clus scale="   44.425">  1  6  2 -1</clus>
<clus scale="  173.669">  1  4  2 -1</clus>
<clus scale="   48.131">  1  3  2 -1</clus>
</clustering>
</event>
<event>
 6    0  0.1080632E+003  0.1004720E+03  0.7546771E-02  0.1279306E+00
         21   -1    0    0  505  501  0.00000000000E+00  0.00000000000E+00  0.17699583959E+04  0.17699583959E+04  0.00000000000E+00 0.  1.
         21   -1    0    0  504  502 -0.00000000000E+00 -0.00000000000E+00 -0.34396131597E+02  0.34396131597E+02  0.00000000000E+00 0.  1.
         21    1    1    2  503  502  0.86945242518E+02 -0.28587961338E+02  0.15152910094E+03  0.17702489984E+03  0.00000000000E+00 0.  1.
         21    1    1    2  504  506 -0.11840768547E+03 -0.11840803420E+02  0.22510867963E+03  0.25462620102E+03  0.00000000000E+00 0.  1.
         21    1    1    2  505  503  0.99608442602E+02  0.63344445695E+02  0.97349582245E+03  0.98062657365E+03  0.00000000000E+00 0.  1.
         21    1    1    2  506  501 -0.68145999647E+02 -0.22915680937E+02  0.38542866125E+03  0.39207685294E+03  0.00000000000E+00 0.  1.
<scales pt_clust_3="100.47202" pt_clust_4="14000.00000" pt_clust_5="69.74088" pt_clust_6="71.89580"></scales>
<clustering>
<clus scale="   71.896">  1  6  2 -1</clus>
<clus scale="   69.741">  1  5  2 -1</clus>
<clus scale="  100.472">  2  3  1 -1</clus>
<clus scale="   71.896">  1  3  2 -1</clus>
</clustering>
</event>
<event>
 6    0  0.1080632E+003  0.2059816E+03  0.7546771E-02  0.1144788E+00
         21   -1    0    0  503  501  0.00000000000E+00  0.00000000000E+00  0.76341440283E+03  0.76341440283E+03  0.00000000000E+00 0. -1.
         21   -1    0    0  504  502 -0.00000000000E+00 -0.00000000000E+00 -0.37771147303E+03  0.37771147303E+03  0.00000000000E+00 0. -1.
         21    1    1    2  503  502 -0.22708867618E+02  0.26644637690E+02  0.55447300489E+03  0.55557712565E+03  0.00000000000E+00 0. -1.
         21    1    1    2  504  505 -0.28382516913E+02  0.19518426730E+03 -0.26891401763E+03  0.33349245021E+03  0.00000000000E+00 0. -1.
         21    1    1    2  505  506  0.17070725811E+02 -0.13273118206E+03  0.75075314439E+02  0.15344471060E+03  0.00000000000E+00 0. -1.
         21    1    1    2  506  501  0.34020658720E+02 -0.89097722930E+02  0.25068628099E+02  0.98611589410E+02  0.00000000000E+00 0. -1.
<scales pt_clust_3="35.00899" pt_clust_4="201.84960" pt_clust_5="34.65496" pt_clust_6="34.65496"></scales>
<clustering>
<clus scale="   34.655">  5  6 -1 -1</clus>
<clus scale="   35.009">  1  3  2 -1</clus>
<clus scale="  201.850">  2  4  1 -1</clus>
<clus scale="   35.009">  1  3  2 -1</clus>
</clustering>
</event>
<event>
 6    0  0.1080632E+003  0.8495218E+02  0.7546771E-02  0.1315558E+00
         21   -1    0    0  503  501  0.00000000000E+00  0.00000000000E+00  0.74668714959E+03  0.74668714959E+03  0.00000000000E+00 0. -1.
         21   -1    0    0  504  502 -0.00000000000E+00 -0.00000000000E+00 -0.26718911574E+03  0.26718911574E+03  0.00000000000E+00 0.  1.
         21    1    1    2  503  505  0.16221424381E+02  0.38383783010E+02  0.65892848891E+03  0.66024480528E+03  0.00000000000E+00 0. -1.
         21    1    1    2  504  506  0.31609172811E+02 -0.10300127019E+03 -0.18186557178E+03  0.21138469118E+03  0.00000000000E+00 0.  1.
         21    1    1    2  505  502  0.97646169678E+01  0.61305788281E+02 -0.37090554853E+02  0.72314982407E+02  0.00000000000E+00 0. -1.
         21    1    1    2  506  501 -0.57595214160E+02  0.33116988944E+01  0.39525671580E+02  0.69931786461E+02  0.00000000000E+00 0. -1.
<scales pt_clust_3="41.67073" pt_clust_4="84.95218" pt_clust_5="14000.00000" pt_clust_6="54.76680"></scales>
<clustering>
<clus scale="   41.671">  1  3  2 -1</clus>
<clus scale="   54.767">  1  6  2 -1</clus>
<clus scale="   84.952">  2  4  1 -1</clus>
<clus scale="   41.671">  1  3  2 -1</clus>
</clustering>
</event>
<event>
 6    0  0.1080632E+003  0.1088328E+03  0.7546771E-02  0.1262747E+00
         21   -1    0    0  503  501  0.00000000000E+00  0.00000000000E+00  0.47061524886E+03  0.47061524886E+03  0.00000000000E+00 0. -1.
         21   -1    0    0  505  502 -0.00000000000E+00 -0.00000000000E+00 -0.22318045095E+03  0.22318045095E+03  0.00000000000E+00 0. -1.
         21    1    1    2  503  504 -0.41138337585E+02 -0.49787182055E+02  0.28278943981E+03  0.29007066998E+03  0.00000000000E+00 0. -1.
         21    1    1    2  504  502 -0.74130734993E+02  0.53348298944E+02  0.68277731826E+02  0.11403181808E+03  0.00000000000E+00 0. -1.
         21    1    1    2  505  506 -0.37894795746E+02 -0.55934232782E+02 -0.10842428133E+03  0.12775162904E+03  0.00000000000E+00 0. -1.
         21    1    1    2  506  501  0.15316386832E+03  0.52373115894E+02  0.47919076077E+01  0.16194158270E+03  0.00000000000E+00 0. -1.
<scales pt_clust_3="64.58426" pt_clust_4="14000.00000" pt_clust_5="70.93619" pt_clust_6="108.83282"></scales>
<clustering>
<clus scale="   64.584">  1  3  2 -1</clus>
<clus scale="   70.936">  2  5  1 -1</clus>
<clus scale="  108.833">  2  6  1 -1</clus>
<clus scale="   64.584">  1  3  2 -1</clus>
</clustering>
</event>
<event>
 6    0  0.1080632E+003  0.2339387E+03  0.7546771E-02  0.1123898E+00
         21   -1    0    0  506  501  0.00000000000E+00  0.00000000000E+00  0.28922477440E+03  0.28922477440E+03  0.00000000000E+00 0. -1.
         21   -1    0    0  505  502 -0.00000000000E+00 -0.00000000000E+00 -0.46107808225E+03  0.46107808225E+03  0.00000000000E+00 0. -1.
         21    1    1    2  503  501 -0.90959274558E+01  0.37587677834E+02  0.60417734533E+02  0.71734734037E+02  0.00000000000E+00 0. -1.
         21    1    1    2  504  503 -0.22848263894E+02 -0.37379522988E+02  0.69554715455E+02  0.82201766063E+02  0.00000000000E+00 0. -1.
         21    1    1    2  505  504 -0.20624071375E+03  0.48685495948E+02 -0.40766704412E+01  0.21194841063E+03  0.00000000000E+00 0. -1.
         21    1    1    2  506  502  0.23818490510E+03 -0.48893650794E+02 -0.29774908740E+03  0.38441794593E+03  0.00000000000E+00 0. -1.
<scales pt_clust_3="38.67259" pt_clust_4="35.74951" pt_clust_5="14000.00000" pt_clust_6="233.93870"></scales>
<clustering>
<clus scale="   38.673">  1  3  2 -1</clus>
<clus scale="   35.750">  1  4  2 -1</clus>
<clus scale="  233.939">  2  6  1 -1</clus>
<clus scale="   38.673">  1  3  2 -1</clus>
</clustering>
</event>
<event>
 6    0  0.1080632E+003  0.1076570E+03  0.7546771E-02  0.1264971E+00
         21   -1    0    0  505  501  0.00000000000E+00  0.00000000000E+00  0.19183584255E+03  0.19183584255E+03  0.00000000000E+00 0.  1.
         21   -1    0    0  503  502 -0.00000000000E+00 -0.00000000000E+00 -0.75066312315E+03  0.75066312315E+03  0.00000000000E+00 0.  1.
         21    1    1    2  503  501 -0.51161534412E+02  0.10438575622E+02 -0.53483506787E+03  0.53737790826E+03  0.00000000000E+00 0.  1.
         21    1    1    2  504  502  0.36106535030E+02 -0.44529219850E+02 -0.11399723694E+03  0.12760056161E+03  0.00000000000E+00 0. -1.
         21    1    1    2  505  506 -0.48373301742E+02  0.78777242503E+02  0.15220397417E+03  0.17807829742E+03  0.00000000000E+00 0.  1.
         21    1    1    2  506  504  0.63428301123E+02 -0.44686598275E+02 -0.62198949961E+02  0.99442198412E+02  0.00000000000E+00 0. -1.
<scales pt_clust_3="52.21558" pt_clust_4="44.13801" pt_clust_5="94.62222" pt_clust_6="44.13801"></scales>
<clustering>
<clus scale="   44.138">  4  6 -1 -1</clus>
<clus scale="   52.216">  2  3  1 -1</clus>
<clus scale="   94.622">  1  5  2 -1</clus>
<clus scale="   94.622">  1  3  2 -1</clus>
</clustering>
</event>
<event>
 6    0  0.1080632E+003  0.1406020E+03  0.7546771E-02  0.1212521E+00
         21   -1    0    0  504  501  0.00000000000E+00  0.00000000000E+00  0.15779792925E+03  0.15779792925E+03  0.00000000000E+00 0.  1.
         21   -1    0    0  506  502 -0.00000000000E+00 -0.00000000000E+00 -0.14990464818E+04  0.14990464818E+04  0.00000000000E+00 0.  1.
         21    1    1    2  503  501  0.27814826475E+02  0.16177393839E+02  0.11448177838E+03  0.11891782972E+03  0.00000000000E+00 0.  1.
         21    1    1    2  504  505 -0.86111076630E+02 -0.12710522088E+03 -0.17460064836E+03  0.23249998086E+03  0.00000000000E+00 0.  1.
         21    1    1    2  505  502 -0.19898257998E+01 -0.64241884097E+02 -0.27785183322E+03  0.28518874505E+03  0.00000000000E+00 0. -1.
         21    1    1    2  506  503  0.60286075955E+02  0.17516971114E+03 -0.10032778494E+04  0.10202378554E+04  0.00000000000E+00 0.  1.
<scales pt_clust_3="32.17721" pt_clust_4="14000.00000" pt_clust_5="62.79981" pt_clust_6="140.60204"></scales>
<clustering>
<clus scale="   32.177">  1  3  2 -1</clus>
<clus scale="   62.800">  2  5  1 -1</clus>
<clus scale="  140.602">  2  6  1 -1</clus>
<clus scale="   32.177">  1  3  2 -1</clus>
</clustering>
</event>
<event>
 6    0  0.1206110E+003  0.8271365E+02  0.7546771E-02  0.1321522E+00
         21   -1    0    0  506  501  0.00000000000E+00  0.00000000000E+00  0.20444737761E+04  0.20444737761E+04  0.00000000000E+00 0. -1.
         21   -1    0    0  503  502 -0.00000000000E+00 -0.00000000000E+00 -0.17782202882E+03  0.17782202882E+03  0.00000000000E+00 0. -1.
         21    1    1    2  503  505  0.82215494046E+02  0.95320950626E+00 -0.15320290306E+03  0.17387186539E+03  0.00000000000E+00 0. -1.
         21    1    1    2  504  502 -0.99463020903E+02 -0.51002638522E+01  0.34549374045E+03  0.35956199730E+03  0.00000000000E+00 0. -1.
         21    1    1    2  505  501 -0.61203224230E+02 -0.19145591148E+02  0.14244599713E+04  0.14259027310E+04  0.00000000000E+00 0. -1.
         21    1    1    2  506  504  0.78450751088E+02  0.23292645494E+02  0.24990093855E+03  0.26295921123E+03  0.00000000000E+00 0.  1.
<scales pt_clust_3="14000.00000" pt_clust_4="82.71365" pt_clust_5="64.12791" pt_clust_6="55.28637"></scales>
<clustering>
<clus scale="   64.128">  1  5  2 -1</clus>
<clus scale="   55.286">  1  6  2 -1</clus>
<clus scale="   82.714">  1  4  2 -1</clus>
<clus scale="   64.128">  1  3  2 -1</clus>
</clustering>
</event>
<event>
 6    0  0.1080632E+003  0.2793853E+03  0.7546771E-02  0.1096025E+00
         21   -1    0    0  505  501  0.00000000000E+00  0.00000000000E+00  0.25373244284E+03  0.25373244284E+03  0.00000000000E+00 0.  1.
         21   -1    0    0  503  502 -0.00000000000E+00 -0.00000000000E+00 -0.81188298324E+03  0.81188298324E+03  0.00000000000E+00 0.  1.
         21    1    1    2  503  504 -0.68675259594E+02 -0.68421886435E+02 -0.40317810827E+03  0.41466906420E+03  0.00000000000E+00 0.  1.
         21    1    1    2  504  501 -0.84467085741E+02  0.30627360789E+03 -0.84110380049E+02  0.32865295905E+03  0.00000000000E+00 0.  1.
         21    1    1    2  505  506  0.67499410335E+02 -0.69311370323E+01 -0.99252764081E+01  0.68576396580E+02  0.00000000000E+00 0.  1.
         21    1    1    2  506  502  0.85642935001E+02 -0.23092058442E+03 -0.60936775680E+02  0.25371700624E+03  0.00000000000E+00 0.  1.
<scales pt_clust_3="95.85291" pt_clust_4="279.38531" pt_clust_5="67.85434" pt_clust_6="14000.00000"></scales>
<clustering>
<clus scale="   67.854">  1  5  2 -1</clus>
<clus scale="   95.853">  2  3  1 -1</clus>
<clus scale="  279.385">  2  4  1 -1</clus>
<clus scale="   67.854">  1  3  2 -1</clus>
</clustering>
</event>
<event>
 6    0  0.1080632E+003  0.1765732E+03  0.7546771E-02  0.1171161E+00
         21   -1    0    0  503  501  0.00000000000E+00  0.00000000000E+00  0.69159861119E+03  0.69159861119E+03  0.00000000000E+00 0. -1.
         21   -1    0    0  505  502 -0.00000000000E+00 -0.00000000000E+00 -0.14078016708E+03  0.14078016708E+03  0.00000000000E+00 0.  1.
         21    1    1    2  503  502 -0.71138001637E+02  0.14289762708E+03  0.53590042849E+02  0.16838123350E+03  0.00000000000E+00 0.  1.
         21    1    1    2  504  501 -0.45807924857E+02 -0.23088033924E+02  0.71627250542E+02  0.88101568150E+02  0.00000000000E+00 0. -1.
         21    1    1    2  505  506  0.79501416064E+02  0.53018956887E+02 -0.18989121659E+02  0.97427263571E+02  0.00000000000E+00 0.  1.
         21    1    1    2  506  504  0.37444510430E+02 -0.17282855004E+03  0.44459027238E+03  0.47846871304E+03  0.00000000000E+00 0. -1.
<scales pt_clust_3="14000.00000" pt_clust_4="51.29740" pt_clust_5="92.29508" pt_clust_6="176.57318"></scales>
<clustering>
<clus scale="   51.297">  1  4  2 -1</clus>
<clus scale="   92.295">  2  5  1 -1</clus>
<clus scale="  176.573">  1  6  2 -1</clus>
<clus scale="   51.297">  1  3  2 -1</clus>
</clustering>
</event>
<event>
 6    0  0.1080632E+003  0.1793699E+03  0.7546771E-02  0.1168414E+00
         21   -1    0    0  506  501  0.00000000000E+00  0.00000000000E+00  0.99004157814E+03  0.99004157814E+03  0.00000000000E+00 0. -1.
         21   -1    0    0  505  502 -0.00000000000E+00 -0.00000000000E+00 -0.89603026288E+03  0.89603026288E+03  0.00000000000E+00 0.  1.
         21    1    1    2  503  501  0.77442176976E+01 -0.17102873539E+03 -0.67564138024E+03  0.69699503293E+03  0.00000000000E+00 0.  1.
         21    1    1    2  504  502 -0.42903906085E+02  0.29857295773E+02  0.15134136471E+01  0.52292386531E+02  0.00000000000E+00 0. -1.
         21    1    1    2  505  503  0.65454363541E+02 -0.35741010695E+02 -0.16788653095E+03  0.18370514643E+03  0.00000000000E+00 0. -1.
         21    1    1    2  506  504 -0.30294675153E+02  0.17691245031E+03  0.93602581280E+03  0.95307927512E+03  0.00000000000E+00 0. -1.
<scales pt_clust_3="179.36987" pt_clust_4="52.27048" pt_clust_5="64.09437" pt_clust_6="14000.00000"></scales>
<clustering>
<clus scale="   52.270">  2  4  1 -1</clus>
<clus scale="   64.094">  2  5  1 -1</clus>
<clus scale="  179.370">  2  3  1 -1</clus>
<clus scale="  179.370">  1  3  2 -1</clus>
</clustering>
</event>
<event>
 6    0  0.1080632E+003  0.8740427E+02  0.7546771E-02  0.1309262E+00
         21   -1    0    0  503  501  0.00000000000E+00  0.00000000000E+00  0.63069474658E+03  0.63069474658E+03  0.00000000000E+00 0.  1.
         21   -1    0    0  504  502 -0.00000000000E+00 -0.00000000000E+00 -0.43239426937E+02  0.43239426937E+02  0.00000000000E+00 0.  1.
         21    1    1    2  503  505  0.45794257481E+02  0.72757789528E+01  0.27903524107E+03  0.28286165653E+03  0.00000000000E+00 0.  1.
         21    1    1    2  504  506  0.20375310481E+02  0.70663139485E+02  0.56700036027E+02  0.92861868626E+02  0.00000000000E+00 0.  1.
         21    1    1    2  505  502 -0.63945290048E+02 -0.10826255321E+03  0.17335266685E+03  0.21415164639E+03  0.00000000000E+00 0.  1.
         21    1    1    2  506  501 -0.22242779142E+01  0.30323634777E+02  0.78367375700E+02  0.84059001971E+02  0.00000000000E+00 0.  1.
<scales pt_clust_3="50.13166" pt_clust_4="87.40427" pt_clust_5="14000.00000" pt_clust_6="30.40510"></scales>
<clustering>
<clus scale="   30.405">  1  6  2 -1</clus>
<clus scale="   50.132">  1  3  2 -1</clus>
<clus scale="   87.404">  2  4  1 -1</clus>
<clus scale="   30.405">  1  3  2 -1</clus>
</clustering>
</event>
<event>
 6    0  0.1080632E+003  0.2382263E+03  0.7546771E-02  0.1120980E+00
         21   -1    0    0  504  501  0.00000000000E+00  0.00000000000E+00  0.13248068044E+03  0.13248068044E+03  0.00000000000E+00 0. -1.
         21   -1    0    0  505  502 -0.00000000000E+00 -0.00000000000E+00 -0.11309160538E+04  0.11309160538E+04  0.00000000000E+00 0.  1.
         21    1    1    2  503  502 -0.59902344046E+02 -0.48534617956E+01 -0.67333455128E+03  0.67601129048E+03  0.00000000000E+00 0.  1.
         21    1    1    2  504  506  0.10124688014E+03  0.44551115618E+02 -0.73073032425E+02  0.13257224713E+03  0.00000000000E+00 0. -1.
         21    1    1    2  505  501 -0.15934511514E+03 -0.95737772604E+02 -0.26482456922E+03  0.32355623821E+03  0.00000000000E+00 0. -1.
         21    1    1    2  506  503  0.11800057905E+03  0.56040118782E+02  0.12796779565E+02  0.13125695843E+03  0.00000000000E+00 0. -1.
<scales pt_clust_3="60.09864" pt_clust_4="78.60482" pt_clust_5="221.28529" pt_clust_6="78.60482"></scales>
<clustering>
<clus scale="   60.099">  2  3  1 -1</clus>
<clus scale="   78.605">  4  6 -1 -1</clus>
<clus scale="  221.285">  2  5  1 -1</clus>
<clus scale="  238.226">  1  3  2 -1</clus>
</clustering>
</event>
<event>
 6    0  0.1080632E+003  0.9299407E+02  0.7546771E-02  0.1295759E+00
         21   -1    0    0  505  501  0.00000000000E+00  0.00000000000E+00  0.13356297953E+04  0.13356297953E+04  0.00000000000E+00 0. -1.
         21   -1    0    0  501  502 -0.00000000000E+00 -0.00000000000E+00 -0.20492025358E+03  0.20492025358E+03  0.00000000000E+00 0.  1.
         21    1    1    2  503  504 -0.40350531603E+02 -0.60832925394E+02  0.39095307192E+03  0.39770983726E+03  0.00000000000E+00 0. -1.
         21    1    1    2  504  506  0.53387898437E+02  0.76011352867E+02  0.13608783604E+03  0.16476617548E+03  0.00000000000E+00 0. -1.
         21    1    1    2  505  503  0.12906259727E+02 -0.49686067485E+02  0.78753542379E+03  0.78920676668E+03  0.00000000000E+00 0. -1.
         21    1    1    2  506  502 -0.25943626562E+02  0.34507640011E+02 -0.18386679006E+03  0.18886726944E+03  0.00000000000E+00 0.  1.
<scales pt_clust_3="92.99407" pt_clust_4="14000.00000" pt_clust_5="49.54233" pt_clust_6="43.17232"></scales>
<clustering>
<clus scale="   43.172">  2  6  1 -1</clus>
<clus scale="   49.542">  1  5  2 -1</clus>
<clus scale="   92.994">  1  3  2 -1</clus>
<clus scale="   49.542">  1  3  2 -1</clus>
</clustering>
</event>
<event>
 6    0  0.1080632E+003  0.1524609E+03  0.7546771E-02  0.1197481E+00
         21   -1    0    0  504  501  0.00000000000E+00  0.00000000000E+00  0.24412955585E+03  0.24412955585E+03  0.00000000000E+00 0. -1.
         21   -1    0    0  505  502 -0.00000000000E+00 -0.00000000000E+00 -0.37496284735E+03  0.37496284735E+03  0.00000000000E+00 0. -1.
         21    1    1    2  503  502  0.43300881820E+02  0.14958610692E+03 -0.15707483074E+03  0.22118650999E+03  0.00000000000E+00 0. -1.
         21    1    1    2  504  506  0.16019405585E+02  0.62078458183E+02  0.12030073410E+03  0.13631809473E+03  0.00000000000E+00 0. -1.
         21    1    1    2  505  501 -0.78149883196E+02 -0.12934815429E+03 -0.92391865447E+02  0.17712878383E+03  0.00000000000E+00 0. -1.
         21    1    1    2  506  503  0.18829595790E+02 -0.82316410820E+02 -0.16673294207E+01  0.84459014648E+02  0.00000000000E+00 0. -1.
<scales pt_clust_3="152.46087" pt_clust_4="64.11206" pt_clust_5="14000.00000" pt_clust_6="64.94929"></scales>
<clustering>
<clus scale="   64.112">  1  4  2 -1</clus>
<clus scale="   64.949">  1  6  2 -1</clus>
<clus scale="  152.461">  2  3  1 -1</clus>
<clus scale="   64.112">  1  3  2 -1</clus>
</clustering>
</event>
<event>
 6    0  0.1080632E+003  0.1306790E+03  0.7546771E-02  0.1226452E+00
         21   -1    0    0  505  501  0.00000000000E+00  0.00000000000E+00  0.15806364842E+04  0.15806364842E+04  0.00000000000E+00 0.  1.
         21   -1    0    0  504  502 -0.00000000000E+00 -0.00000000000E+00 -0.41459297689E+02  0.41459297689E+02  0.00000000000E+00 0.  1.
         21    1    1    2  503  501  0.22731919487E+02 -0.12508240718E+03  0.13855854429E+04  0.13914055370E+04  0.00000000000E+00 0.  1.
         21    1    1    2  504  503 -0.36334190259E+02  0.39126027509E+01  0.70514399803E+02  0.79421422939E+02  0.00000000000E+00 0.  1.
         21    1    1    2  505  506  0.16324936056E+02  0.53501457220E+02  0.53382911027E+02  0.77321695866E+02  0.00000000000E+00 0.  1.
         21    1    1    2  506  502 -0.27226652842E+01  0.67668347212E+02  0.29694432773E+02  0.73947126099E+02  0.00000000000E+00 0.  1.
<scales pt_clust_3="126.34768" pt_clust_4="36.54424" pt_clust_5="30.32353" pt_clust_6="30.32353"></scales>
<clustering>
<clus scale="   30.324">  5  6 -1 -1</clus>
<clus scale="   36.544">  2  4  1 -1</clus>
<clus scale="  126.348">  1  3  2 -1</clus>
<clus scale="  126.348">  1  3  2 -1</clus>
</clustering>
</event>
<event>
 6    0  0.1080632E+003  0.1511536E+03  0.7546771E-02  0.1199063E+00
         21   -1    0    0  506  501  0.00000000000E+00  0.00000000000E+00  0.10085593217E+04  0.10085593217E+04  0.00000000000E+00 0.  1.
         21   -1    0    0  503  502 -0.00000000000E+00 -0.00000000000E+00 -0.82412571923E+03  0.82412571923E+03  0.00000000000E+00 0.  1.
         21    1    1    2  503  505  0.26823743741E+02  0.69332370586E+02 -0.57624599254E+02  0.94058945765E+02  0.00000000000E+00 0.  1.
         21    1    1    2  504  502  0.55131400726E+02  0.61976398454E+02 -0.72168449139E+03  0.72643585431E+03  0.00000000000E+00 0.  1.
         21    1    1    2  505  501 -0.42482385294E+02 -0.99918352685E+02  0.95482124766E+03  0.96097452893E+03  0.00000000000E+00 0.  1.
         21    1    1    2  506  504 -0.39472759174E+02 -0.31390416354E+02  0.89214453998E+01  0.51215711883E+02  0.00000000000E+00 0. -1.
<scales pt_clust_3="73.53169" pt_clust_4="14000.00000" pt_clust_5="151.15355" pt_clust_6="50.43270"></scales>
<clustering>
<clus scale="   50.433">  1  6  2 -1</clus>
<clus scale="   73.532">  2  3  1 -1</clus>
<clus scale="  151.154">  1  5  2 -1</clus>
<clus scale="   50.433">  1  3  2 -1</clus>
</clustering>
</event>
<event>
 6    0  0.1080632E+003  0.1462183E+03  0.7546771E-02  0.1205198E+00
         21   -1    0    0  506  501  0.00000000000E+00  0.00000000000E+00  0.79099184253E+03  0.79099184253E+03  0.00000000000E+00 0.  1.
         21   -1    0    0  501  502 -0.00000000000E+00 -0.00000000000E+00 -0.26411276169E+04  0.26411276169E+04  0.00000000000E+00 0.  1.
         21    1    1    2  503  502  0.38951249052E+02  0.25173124392E+02 -0.22012445951E+04  0.22017331022E+04  0.00000000000E+00 0.  1.
         21    1    1    2  504  505  0.27820431293E+02  0.26455644590E+02 -0.96045344804E+02  0.10343396824E+03  0.00000000000E+00 0.  1.
         21    1    1    2  505  503  0.46020354226E+02  0.33760171153E+02 -0.33108045594E+03  0.33596412080E+03  0.00000000000E+00 0. -1.
         21    1    1    2  506  504 -0.11279203457E+03 -0.85388940135E+02  0.77823462152E+03  0.79098826811E+03  0.00000000000E+00 0.  1.
<scales pt_clust_3="46.37765" pt_clust_4="32.34972" pt_clust_5="32.34972" pt_clust_6="140.79759"></scales>
<clustering>
<clus scale="   32.350">  4  5 -1 -1</clus>
<clus scale="   46.378">  2  3  1 -1</clus>
<clus scale="  140.798">  1  6  2 -1</clus>
<clus scale="  140.798">  1  3  2 -1</clus>
</clustering>
</event>
<event>
 6    0  0.1080632E+003  0.8223457E+02  0.7546771E-02  0.1322827E+00
         21   -1    0    0  504  501  0.00000000000E+00  0.00000000000E+00  0.80533101810E+03  0.80533101810E+03  0.00000000000E+00 0.  1.
         21   -1    0    0  503  502 -0.00000000000E+00 -0.00000000000E+00 -0.16391021302E+03  0.16391021302E+03  0.00000000000E+00 0.  1.
         21    1    1    2  503  501  0.19145983447E+02 -0.41004888772E+02  0.67403444190E+03  0.67555192136E+03  0.00000000000E+00 0.  1.
         21    1    1    2  504  506  0.47135946316E+02  0.12962290709E+02  0.51442800110E+02  0.70966048915E+02  0.00000000000E+00 0.  1.
         21    1    1    2  505  502  0.61562327966E+02  0.34731411729E+02 -0.59450281910E+02  0.92360853203E+02  0.00000000000E+00 0.  1.
         21    1    1    2  506  505 -0.12784425773E+03 -0.66888136656E+01 -0.24606155016E+02  0.13036240765E+03  0.00000000000E+00 0.  1.
<scales pt_clust_3="45.25450" pt_clust_4="56.46128" pt_clust_5="82.23457" pt_clust_6="14000.00000"></scales>
<clustering>
<clus scale="   45.254">  1  3  2 -1</clus>
<clus scale="   56.461">  1  4  2 -1</clus>
<clus scale="   82.235">  2  5  1 -1</clus>
<clus scale="   45.254">  1  3  2 -1</clus>
</clustering>
</event>
<event>
 6    0  0.1080632E+003  0.1428203E+03  0.7546771E-02  0.1209584E+00
         21   -1    0    0  504  501  0.00000000000E+00  0.00000000000E+00  0.37425567622E+03  0.37425567622E+03  0.00000000000E+00 0. -1.
         21   -1    0    0  505  502 -0.00000000000E+00 -0.00000000000E+00 -0.84842161987E+02  0.84842161987E+02  0.00000000000E+00 0.  1.
         21    1    1    2  503  502 -0.40063784695E+02 -0.98317238372E+01 -0.10671861541E+02  0.42610541729E+02  0.00000000000E+00 0.  1.
         21    1    1    2  504  503  0.13630069621E+03 -0.66545286258E+02  0.21665099481E+03  0.26446891776E+03  0.00000000000E+00 0. -1.
         21    1    1    2  505  506 -0.47713559656E+02  0.45708207617E+02  0.62402136566E+02  0.90883720581E+02  0.00000000000E+00 0.  1.
         21    1    1    2  506  501 -0.48523351859E+02  0.30668802479E+02  0.21032244405E+02  0.61134658140E+02  0.00000000000E+00 0.  1.
<scales pt_clust_3="41.25251" pt_clust_4="139.08395" pt_clust_5="30.25008" pt_clust_6="30.25008"></scales>
<clustering>
<clus scale="   30.250">  5  6 -1 -1</clus>
<clus scale="   41.253">  2  3  1 -1</clus>
<clus scale="  139.084">  1  4  2 -1</clus>
<clus scale="  139.084">  1  3  2 -1</clus>
</clustering>
</event>
<event>
 6    0  0.1080632E+003  0.5882635E+02  0.7546771E-02  0.1402824E+00
         21   -1    0    0  503  501  0.00000000000E+00  0.00000000000E+00  0.24549082014E+03  0.24549082014E+03  0.00000000000E+00 0.  1.
         21   -1    0    0  505  502 -0.00000000000E+00 -0.00000000000E+00 -0.86940943784E+03  0.86940943784E+03  0.00000000000E+00 0. -1.
         21    1    1    2  503  502  0.19375234534E+02 -0.34738826268E+02 -0.22503167877E+03  0.22852011337E+03  0.00000000000E+00 0. -1.
         21    1    1    2  504  506  0.67682793011E+02 -0.27570529238E+02 -0.12054946073E+03  0.14097257547E+03  0.00000000000E+00 0. -1.
         21    1    1    2  505  504 -0.39218585119E+02  0.78925268366E+02 -0.50526704777E+03  0.51289578373E+03  0.00000000000E+00 0. -1.
         21    1    1    2  506  501 -0.47839442425E+02 -0.16615912861E+02  0.22692956957E+03  0.23251178541E+03  0.00000000000E+00 0.  1.
<scales pt_clust_3="39.77670" pt_clust_4="14000.00000" pt_clust_5="58.82635" pt_clust_6="50.61317"></scales>
<clustering>
<clus scale="   39.777">  2  3  1 -1</clus>
<clus scale="   50.613">  1  6  2 -1</clus>
<clus scale="   58.826">  2  5  1 -1</clus>
<clus scale="   50.613">  1  3  2 -1</clus>
</clustering>
</event>
<event>
 6    0  0.1080632E+003  0.1365495E+03  0.7546771E-02  0.1218049E+00
         21   -1    0    0  506  501  0.00000000000E+00  0.00000000000E+00  0.30633435365E+03  0.30633435365E+03  0.00000000000E+00 0. -1.
         21   -1    0    0  503  502 -0.00000000000E+00 -0.00000000000E+00 -0.19416696182E+03  0.19416696182E+03  0.00000000000E+00 0. -1.
         21    1    1    2  503  504  0.78476371900E+02 -0.10423414842E+03 -0.30085583529E+02  0.13389712835E+03  0.00000000000E+00 0. -1.
         21    1    1    2  504  501  0.28532098499E+02 -0.20551968965E+02  0.16908560204E+03  0.17270322779E+03  0.00000000000E+00 0. -1.
         21    1    1    2  505  502 -0.12222461161E+03  0.83585662533E+02 -0.22406152234E+02  0.14975798584E+03  0.00000000000E+00 0. -1.
         21    1    1    2  506  505  0.15216141208E+02  0.41200454849E+02 -0.44264744475E+01  0.44142973496E+02  0.00000000000E+00 0. -1.
<scales pt_clust_3="136.54947" pt_clust_4="35.16339" pt_clust_5="14000.00000" pt_clust_6="42.83220"></scales>
<clustering>
<clus scale="   35.163">  1  4  2 -1</clus>
<clus scale="   42.832">  1  6  2 -1</clus>
<clus scale="  136.549">  2  3  1 -1</clus>
<clus scale="   35.163">  1  3  2 -1</clus>
</clustering>
</event>
<event>
 6    0  0.1431964E+003  0.1496528E+03  0.7546771E-02  0.1200900E+00
         21   -1    0    0  505  501  0.00000000000E+00  0.00000000000E+00  0.69653498415E+03  0.69653498415E+03  0.00000000000E+00 0.  1.
         21   -1    0    0  501  502 -0.00000000000E+00 -0.00000000000E+00 -0.57941518983E+03  0.57941518983E+03  0.00000000000E+00 0.  1.
         21    1    1    2  503  504  0.67791614958E+02 -0.14402448618E+02  0.14358093860E+03  0.15943217841E+03  0.00000000000E+00 0.  1.
         21    1    1    2  504  502 -0.82730127827E+02  0.11183170123E+03 -0.54679940200E+03  0.56421643851E+03  0.00000000000E+00 0.  1.
         21    1    1    2  505  506 -0.30646997306E+02 -0.53125554950E+02  0.46190011650E+03  0.46595416154E+03  0.00000000000E+00 0.  1.
         21    1    1    2  506  503  0.45585510174E+02 -0.44303697666E+02  0.58438141219E+02  0.86347395525E+02  0.00000000000E+00 0. -1.
<scales pt_clust_3="54.97584" pt_clust_4="138.20589" pt_clust_5="61.33158" pt_clust_6="54.97584"></scales>
<clustering>
<clus scale="   54.976">  3  6 -1 -1</clus>
<clus scale="   61.332">  1  5  2 -1</clus>
<clus scale="  138.206">  2  4  1 -1</clus>
<clus scale="   61.332">  1  3  2 -1</clus>
</clustering>
</event>
<event>
 6    0  0.1080632E+003  0.8354153E+02  0.7546771E-02  0.1319291E+00
         21   -1    0    0  502  501  0.00000000000E+00  0.00000000000E+00  0.60808193821E+03  0.60808193821E+03  0.00000000000E+00 0.  1.
         21   -1    0    0  503  502 -0.00000000000E+00 -0.00000000000E+00 -0.52555798552E+02  0.52555798552E+02  0.00000000000E+00 0.  1.
         21    1    1    2  503  504 -0.13185225794E+02 -0.33910505612E+02 -0.24564424360E+01  0.36466514497E+02  0.00000000000E+00 0.  1.
         21    1    1    2  504  506 -0.46491443878E+01  0.93458560910E+02  0.95057328480E+02  0.13338670417E+03  0.00000000000E+00 0.  1.
         21    1    1    2  505  501 -0.11991060274E+02  0.27667770422E+02  0.31535047499E+03  0.31678890941E+03  0.00000000000E+00 0.  1.
         21    1    1    2  506  505  0.29825430456E+02 -0.87215825720E+02  0.14757477862E+03  0.17399560868E+03  0.00000000000E+00 0. -1.
<scales pt_clust_3="35.15675" pt_clust_4="14000.00000" pt_clust_5="30.15445" pt_clust_6="83.54153"></scales>
<clustering>
<clus scale="   30.154">  1  5  2 -1</clus>
<clus scale="   35.157">  2  3  1 -1</clus>
<clus scale="   83.542">  1  6  2 -1</clus>
<clus scale="   30.154">  1  3  2 -1</clus>
</clustering>
</event>
<event>
 6    0  0.1080632E+003  0.6927026E+02  0.7546771E-02  0.1362592E+00
         21   -1    0    0  506  501  0.00000000000E+00  0.00000000000E+00  0.67733651283E+02  0.67733651283E+02  0.00000000000E+00 0. -1.
         21   -1    0    0  504  502 -0.00000000000E+00 -0.00000000000E+00 -0.10352088702E+04  0.10352088702E+04  0.00000000000E+00 0. -1.
         21    1    1    2  503  502  0.38992464807E+02 -0.50805758957E+02 -0.34978527035E+02  0.72973521283E+02  0.00000000000E+00 0. -1.
         21    1    1    2  504  505 -0.48841820418E+02 -0.50142902550E+02 -0.90099397150E+03  0.90370900780E+03  0.00000000000E+00 0. -1.
         21    1    1    2  505  501 -0.18691562825E+02  0.88218609670E+02 -0.29757741480E+02  0.94960101048E+02  0.00000000000E+00 0. -1.
         21    1    1    2  506  503  0.28540918436E+02  0.12730051836E+02 -0.17449788601E+01  0.31299891312E+02  0.00000000000E+00 0. -1.
<scales pt_clust_3="67.54078" pt_clust_4="14000.00000" pt_clust_5="69.27026" pt_clust_6="31.25121"></scales>
<clustering>
<clus scale="   31.251">  1  6  2 -1</clus>
<clus scale="   67.541">  1  3  2 -1</clus>
<clus scale="   69.270">  1  5  2 -1</clus>
<clus scale="   31.251">  1  3  2 -1</clus>
</clustering>
</event>
<event>
 6    0  0.1080632E+003  0.8041650E+02  0.7546771E-02  0.1327874E+00
         21   -1    0    0  506  501  0.00000000000E+00  0.00000000000E+00  0.97313730097E+02  0.97313730097E+02  0.00000000000E+00 0. -1.
         21   -1    0    0  505  502 -0.00000000000E+00 -0.00000000000E+00 -0.49531116570E+03  0.49531116570E+03  0.00000000000E+00 0.  1.
         21    1    1    2  503  502  0.40956730967E+02 -0.64413761635E+02 -0.22750876304E+03  0.23997254793E+03  0.00000000000E+00 0. -1.
         21    1    1    2  504  501 -0.20136185120E+02 -0.23109960829E+02  0.65465630825E+02  0.72286133248E+02  0.00000000000E+00 0. -1.
         21    1    1    2  505  504  0.16974281308E+02  0.10738333489E+03 -0.17133202419E+03  0.20291369927E+03  0.00000000000E+00 0.  1.
         21    1    1    2  506  503 -0.37794827156E+02 -0.19859612427E+02 -0.64622279194E+02  0.77452515348E+02  0.00000000000E+00 0.  1.
<scales pt_clust_3="80.41650" pt_clust_4="30.65186" pt_clust_5="14000.00000" pt_clust_6="49.20455"></scales>
<clustering>
<clus scale="   30.652">  1  4  2 -1</clus>
<clus scale="   49.205">  1  6  2 -1</clus>
<clus scale="   80.416">  2  3  1 -1</clus>
<clus scale="   30.652">  1  3  2 -1</clus>
</clustering>
</event>
<event>
 6    0  0.1080632E+003  0.1470042E+03  0.7546771E-02  0.1204203E+00
         21   -1    0    0  506  501  0.00000000000E+00  0.00000000000E+00  0.70763712288E+03  0.70763712288E+03  0.00000000000E+00 0. -1.
         21   -1    0    0  503  502 -0.00000000000E+00 -0.00000000000E+00 -0.26629233352E+03  0.26629233352E+03  0.00000000000E+00 0. -1.
         21    1    1    2  503  505 -0.41847002672E+02 -0.83516196292E+01 -0.23075174068E+03  0.23466420053E+03  0.00000000000E+00 0. -1.
         21    1    1    2  504  501  0.11303107265E+03  0.82002076617E+01  0.44590678107E+03  0.46008273624E+03  0.00000000000E+00 0. -1.
         21    1    1    2  505  504  0.31399181748E+02  0.31767914640E+02  0.12061693739E+03  0.12862175011E+03  0.00000000000E+00 0. -1.
         21    1    1    2  506  502 -0.10258325172E+03 -0.31616502672E+02  0.10557281157E+03  0.15056076952E+03  0.00000000000E+00 0. -1.
<scales pt_clust_3="42.67225" pt_clust_4="35.32635" pt_clust_5="35.32635" pt_clust_6="135.80840"></scales>
<clustering>
<clus scale="   35.326">  4  5 -1 -1</clus>
<clus scale="   42.672">  2  3  1 -1</clus>
<clus scale="  135.808">  2  6  1 -1</clus>
<clus scale="  147.004">  1  3  2 -1</clus>
</clustering>
</event>
<event>
 6    0  0.1080632E+003  0.1096844E+03  0.7546771E-02  0.1261155E+00
         21   -1    0    0  504  501  0.00000000000E+00  0.00000000000E+00  0.10794242374E+03  0.10794242374E+03  0.00000000000E+00 0. -1.
         21   -1    0    0  503  502 -0.00000000000E+00 -0.00000000000E+00 -0.32339127796E+03  0.32339127796E+03  0.00000000000E+00 0.  1.
         21    1    1    2  503  506 -0.57544982551E+02 -0.73722728837E+02 -0.15104428643E+03  0.17765371437E+03  0.00000000000E+00 0.  1.
         21    1    1    2  504  502 -0.37221599542E+02  0.62019559345E+01  0.64358270994E+02  0.74604951412E+02  0.00000000000E+00 0. -1.
         21    1    1    2  505  501  0.40199253007E+02  0.39376428771E+01 -0.36442642273E+02  0.54401756861E+02  0.00000000000E+00 0. -1.
         21    1    1    2  506  505  0.54567329086E+02  0.63583130025E+02 -0.92320196515E+02  0.12467327906E+03  0.00000000000E+00 0. -1.
<scales pt_clust_3="100.41130" pt_clust_4="37.73475" pt_clust_5="30.64618" pt_clust_6="30.64618"></scales>
<clustering>
<clus scale="   30.646">  5  6 -1 -1</clus>
<clus scale="   37.735">  1  4  2 -1</clus>
<clus scale="  100.411">  2  3  1 -1</clus>
<clus scale="   37.735">  1  3  2 -1</clus>
</clustering>
</event>
<event>
 6    0  0.1080632E+003  0.3352036E+03  0.7546771E-02  0.1068857E+00
         21   -1    0    0  506  501  0.00000000000E+00  0.00000000000E+00  0.38042316638E+03  0.38042316638E+03  0.00000000000E+00 0. -1.
         21   -1    0    0  505  502 -0.00000000000E+00 -0.00000000000E+00 -0.91542562803E+03  0.91542562803E+03  0.00000000000E+00 0. -1.
         21    1    1    2  503  502  0.37597834370E+03 -0.13629537669E+02 -0.46227100988E+03  0.59602010520E+03  0.00000000000E+00 0. -1.
         21    1    1    2  504  503 -0.20492365961E+03  0.10809425182E+02  0.16252935383E+03  0.26177536324E+03  0.00000000000E+00 0. -1.
         21    1    1    2  505  501 -0.51937175234E+02 -0.17956023310E+02 -0.29717121606E+03  0.30220956404E+03  0.00000000000E+00 0. -1.
         21    1    1    2  506  504 -0.11911750886E+03  0.20776135797E+02  0.61910410449E+02  0.13584376194E+03  0.00000000000E+00 0. -1.
<scales pt_clust_3="332.61692" pt_clust_4="31.90396" pt_clust_5="54.95352" pt_clust_6="31.90396"></scales>
<clustering>
<clus scale="   31.904">  4  6 -1 -1</clus>
<clus scale="   54.954">  2  5  1 -1</clus>
<clus scale="  332.617">  2  3  1 -1</clus>
<clus scale="  335.204">  1  3  2 -1</clus>
</clustering>
</event>
<event>
 6    0  0.1080632E+003  0.9327336E+02  0.7546771E-02  0.1295113E+00
         21   -1    0    0  503  501  0.00000000000E+00  0.00000000000E+00  0.49392070351E+02  0.49392070351E+02  0.00000000000E+00 0. -1.
         21   -1    0    0  506  502 -0.00000000000E+00 -0.00000000000E+00 -0.17330131386E+04  0.17330131386E+04  0.00000000000E+00 0. -1.
         21    1    1    2  503  505  0.20807710463E+02 -0.11500393520E+03 -0.89574673167E+02  0.14724974703E+03  0.00000000000E+00 0. -1.
         21    1    1    2  504  501  0.15521443929E+02  0.30650913783E+02 -0.26801810750E+02  0.43574428245E+02  0.00000000000E+00 0. -1.
         21    1    1    2  505  502 -0.87183954236E+02  0.43211188402E+02 -0.19646205073E+03  0.21923865092E+03  0.00000000000E+00 0. -1.
         21    1    1    2  506  504  0.50854799845E+02  0.41141833016E+02 -0.13707825336E+04  0.13723423828E+04  0.00000000000E+00 0. -1.
<scales pt_clust_3="14000.00000" pt_clust_4="34.35686" pt_clust_5="93.27336" pt_clust_6="66.00973"></scales>
<clustering>
<clus scale="   34.357">  1  4  2 -1</clus>
<clus scale="   66.010">  2  6  1 -1</clus>
<clus scale="   93.273">  2  5  1 -1</clus>
<clus scale="   34.357">  1  3  2 -1</clus>
</clustering>
</event>
<event>
 6    0  0.1080632E+003  0.9207024E+02  0.7546771E-02  0.1297914E+00
         21   -1    0    0  505  501  0.00000000000E+00  0.00000000000E+00  0.33022112110E+03  0.33022112110E+03  0.00000000000E+00 0.  1.
         21   -1    0    0  504  502 -0.00000000000E+00 -0.00000000000E+00 -0.64137787102E+02  0.64137787102E+02  0.00000000000E+00 0.  1.
         21    1    1    2  503  502 -0.33774137978E+02  0.25398113014E+02 -0.44169703117E+00  0.42260521023E+02  0.00000000000E+00 0.  1.
         21    1    1    2  504  506  0.34185824405E+02  0.78456100138E+01  0.15165898558E+02  0.38212938461E+02  0.00000000000E+00 0.  1.
         21    1    1    2  505  503 -0.86868357377E+02  0.12892604466E+02  0.95158579682E+02  0.12948932794E+03  0.00000000000E+00 0.  1.
         21    1    1    2  506  501  0.86456670950E+02 -0.46136327494E+02  0.15620055279E+03  0.18439612078E+03  0.00000000000E+00 0.  1.
<scales pt_clust_3="34.82800" pt_clust_4="35.07455" pt_clust_5="92.07024" pt_clust_6="14000.00000"></scales>
<clustering>
<clus scale="   35.075">  2  4  1 -1</clus>
<clus scale="   34.828">  2  3  1 -1</clus>
<clus scale="   92.070">  2  5  1 -1</clus>
<clus scale="   92.070">  1  3  2 -1</clus>
</clustering>
</event>
<event>
 6    0  0.1080632E+003  0.7918936E+02  0.7546771E-02  0.1331368E+00
         21   -1    0    0  502  501  0.00000000000E+00  0.00000000000E+00  0.37875943184E+03  0.37875943184E+03  0.00000000000E+00 0.  1.
         21   -1    0    0  503  502 -0.00000000000E+00 -0.00000000000E+00 -0.22727181531E+03  0.22727181531E+03  0.00000000000E+00 0.  1.
         21    1    1    2  503  504  0.14897748484E+02  0.29098520548E+02 -0.21986987611E+02  0.39396629706E+02  0.00000000000E+00 0. -1.
         21    1    1    2  504  506 -0.66500363111E+02 -0.22654312888E+02 -0.33730253052E+02  0.77931034622E+02  0.00000000000E+00 0.  1.
         21    1    1    2  505  501  0.27826174388E+02  0.74550610571E+02  0.33013057900E+03  0.33958546598E+03  0.00000000000E+00 0.  1.
         21    1    1    2  506  505  0.23776440238E+02 -0.80994818231E+02 -0.12292572180E+03  0.14911811684E+03  0.00000000000E+00 0.  1.
<scales pt_clust_3="32.69047" pt_clust_4="63.91036" pt_clust_5="79.18936" pt_clust_6="14000.00000"></scales>
<clustering>
<clus scale="   32.690">  2  3  1 -1</clus>
<clus scale="   63.910">  2  4  1 -1</clus>
<clus scale="   79.189">  1  5  2 -1</clus>
<clus scale="   79.189">  1  3  2 -1</clus>
</clustering>
</event>
<event>
 6    0  0.1080632E+003  0.8524761E+02  0.7546771E-02  0.1314786E+00
         21   -1    0    0  503  501  0.00000000000E+00  0.00000000000E+00  0.11961318029E+04  0.11961318029E+04  0.00000000000E+00 0.  1.
         21   -1    0    0  501  502 -0.00000000000E+00 -0.00000000000E+00 -0.70885737637E+02  0.70885737637E+02  0.00000000000E+00 0. -1.
         21    1    1    2  503  506 -0.36124542868E+02 -0.10718716596E+02  0.29389711460E+03  0.29630286440E+03  0.00000000000E+00 0.  1.
         21    1    1    2  504  502 -0.73590107565E+02 -0.43222639679E+02 -0.35554868288E+02  0.92454578963E+02  0.00000000000E+00 0. -1.
         21    1    1    2  505  504  0.89772504112E+02  0.10487761029E+02  0.64195578882E+03  0.64828722833E+03  0.00000000000E+00 0.  1.
         21    1    1    2  506  505  0.19942146321E+02  0.43453595246E+02  0.22494803008E+03  0.22997286879E+03  0.00000000000E+00 0.  1.
<scales pt_clust_3="37.68121" pt_clust_4="14000.00000" pt_clust_5="85.24761" pt_clust_6="42.16049"></scales>
<clustering>
<clus scale="   37.681">  1  3  2 -1</clus>
<clus scale="   42.160">  1  6  2 -1</clus>
<clus scale="   85.248">  1  5  2 -1</clus>
<clus scale="   37.681">  1  3  2 -1</clus>
</clustering>
</event>
<event>
 6    0  0.1080632E+003  0.9781975E+02  0.7546771E-02  0.1284949E+00
         21   -1    0    0  503  501  0.00000000000E+00  0.00000000000E+00  0.33362073876E+02  0.33362073876E+02  0.00000000000E+00 0. -1.
         21   -1    0    0  504  502 -0.00000000000E+00 -0.00000000000E+00 -0.11511209548E+04  0.11511209548E+04  0.00000000000E+00 0. -1.
         21    1    1    2  503  506  0.83475775617E+02  0.23835969911E+02 -0.14393002349E+03  0.16808393808E+03  0.00000000000E+00 0. -1.
         21    1    1    2  504  505 -0.71971577974E+00 -0.55315909232E+02 -0.48363358382E+03  0.48678723402E+03  0.00000000000E+00 0. -1.
         21    1    1    2  505  501 -0.11052527009E+03 -0.44811004331E+02 -0.28636639407E+03  0.31020891846E+03  0.00000000000E+00 0. -1.
         21    1    1    2  506  502  0.27769210255E+02  0.76290943652E+02 -0.20382887952E+03  0.21940293810E+03  0.00000000000E+00 0. -1.
<scales pt_clust_3="14000.00000" pt_clust_4="55.32059" pt_clust_5="97.81975" pt_clust_6="64.85080"></scales>
<clustering>
<clus scale="   55.321">  2  4  1 -1</clus>
<clus scale="   64.851">  2  6  1 -1</clus>
<clus scale="   97.820">  2  5  1 -1</clus>
<clus scale="   97.820">  1  3  2 -1</clus>
</clustering>
</event>
<event>
 6    0  0.1080632E+003  0.8580357E+02  0.7546771E-02  0.1313344E+00
         21   -1    0    0  503  501  0.00000000000E+00  0.00000000000E+00  0.74245870254E+03  0.74245870254E+03  0.00000000000E+00 0. -1.
         21   -1    0    0  504  502 -0.00000000000E+00 -0.00000000000E+00 -0.12688129372E+04  0.12688129372E+04  0.00000000000E+00 0.  1.
         21    1    1    2  503  505 -0.41808070668E+02 -0.31199185618E+02  0.44363346527E+03  0.44668999929E+03  0.00000000000E+00 0. -1.
         21    1    1    2  504  506  0.10262926972E+03 -0.59076818928E+02 -0.12325126290E+04  0.12381882806E+04  0.00000000000E+00 0.  1.
         21    1    1    2  505  502 -0.20027323053E+02  0.31507535053E+02 -0.14672257021E+02  0.40113508446E+02  0.00000000000E+00 0.  1.
         21    1    1    2  506  501 -0.40793875995E+02  0.58768469493E+02  0.27719718611E+03  0.28627985139E+03  0.00000000000E+00 0. -1.
<scales pt_clust_3="52.16270" pt_clust_4="14000.00000" pt_clust_5="37.33388" pt_clust_6="85.80357"></scales>
<clustering>
<clus scale="   37.334">  2  5  1 -1</clus>
<clus scale="   52.163">  1  3  2 -1</clus>
<clus scale="   85.804">  1  6  2 -1</clus>
<clus scale="   52.163">  1  3  2 -1</clus>
</clustering>
</event>
<event>
 6    0  0.1080632E+003  0.8630345E+02  0.7546771E-02  0.1312059E+00
         21   -1    0    0  504  501  0.00000000000E+00  0.00000000000E+00  0.17545442740E+04  0.17545442740E+04  0.00000000000E+00 0. -1.
         21   -1    0    0  506  502 -0.00000000000E+00 -0.00000000000E+00 -0.21027616616E+02  0.21027616616E+02  0.00000000000E+00 0. -1.
         21    1    1    2  503  501 -0.19616494116E+02  0.22902758755E+02  0.19302383886E+03  0.19536515956E+03  0.00000000000E+00 0. -1.
         21    1    1    2  504  505 -0.37224945607E+02 -0.17676970873E+02  0.88423223559E+03  0.88519196693E+03  0.00000000000E+00 0. -1.
         21    1    1    2  505  502  0.90700347343E+02 -0.78224655483E+02  0.54316093713E+03  0.55620990044E+03  0.00000000000E+00 0. -1.
         21    1    1    2  506  503 -0.33858907620E+02  0.72998867601E+02  0.11309964576E+03  0.13880486363E+03  0.00000000000E+00 0. -1.
<scales pt_clust_3="30.15532" pt_clust_4="48.57448" pt_clust_5="86.30345" pt_clust_6="14000.00000"></scales>
<clustering>
<clus scale="   30.155">  1  3  2 -1</clus>
<clus scale="   48.574">  1  4  2 -1</clus>
<clus scale="   86.303">  1  5  2 -1</clus>
<clus scale="   30.155">  1  3  2 -1</clus>
</clustering>
</event>
<event>
 6    0  0.1080632E+003  0.1428493E+03  0.7546771E-02  0.1209546E+00
         21   -1    0    0  506  501  0.00000000000E+00  0.00000000000E+00  0.20341487601E+04  0.20341487601E+04  0.00000000000E+00 0. -1.
         21   -1    0    0  504  502 -0.00000000000E+00 -0.00000000000E+00 -0.65804886263E+02  0.65804886263E+02  0.00000000000E+00 0. -1.
         21    1    1    2  503  501  0.13469129984E+03  0.54206676917E+02  0.12607540493E+03  0.19228915155E+03  0.00000000000E+00 0. -1.
         21    1    1    2  504  503  0.14351333988E+02 -0.46511359712E+02  0.10752844237E+03  0.11803234001E+03  0.00000000000E+00 0. -1.
         21    1    1    2  505  502 -0.10059053523E+03 -0.11628009108E+03  0.21002782770E+03  0.26029061406E+03  0.00000000000E+00 0. -1.
         21    1    1    2  506  505 -0.48452098602E+02  0.10858477387E+03  0.15247121989E+04  0.15293415408E+04  0.00000000000E+00 0. -1.
<scales pt_clust_3="14000.00000" pt_clust_4="48.67512" pt_clust_5="142.84925" pt_clust_6="117.05746"></scales>
<clustering>
<clus scale="   48.675">  2  4  1 -1</clus>
<clus scale="  117.057">  1  6  2 -1</clus>
<clus scale="  142.849">  1  5  2 -1</clus>
<clus scale="  117.057">  1  3  2 -1</clus>
</clustering>
</event>
<event>
 6    0  0.1080632E+003  0.1421835E+03  0.7546771E-02  0.1210421E+00
         21   -1    0    0  505  501  0.00000000000E+00  0.00000000000E+00  0.24579682195E+03  0.24579682195E+03  0.00000000000E+00 0.  1.
         21   -1    0    0  506  502 -0.00000000000E+00 -0.00000000000E+00 -0.20917390135E+04  0.20917390135E+04  0.00000000000E+00 0.  1.
         21    1    1    2  503  502  0.68424334687E+02 -0.27045592899E+02 -0.19679633981E+04  0.19693382873E+04  0.00000000000E+00 0.  1.
         21    1    1    2  504  503  0.19247869804E+02  0.45382172872E+02 -0.36979756469E+02  0.61624057762E+02  0.00000000000E+00 0.  1.
         21    1    1    2  505  504  0.12862399502E+00  0.88124949814E+02 -0.96595190696E+01  0.88652860262E+02  0.00000000000E+00 0.  1.
         21    1    1    2  506  501 -0.87800828485E+02 -0.10646152979E+03  0.16866048209E+03  0.21792063010E+03  0.00000000000E+00 0.  1.
<scales pt_clust_3="73.57550" pt_clust_4="35.14672" pt_clust_5="35.14672" pt_clust_6="134.19316"></scales>
<clustering>
<clus scale="   35.147">  4  5 -1 -1</clus>
<clus scale="   73.575">  2  3  1 -1</clus>
<clus scale="  134.193">  1  6  2 -1</clus>
<clus scale="  134.193">  1  3  2 -1</clus>
</clustering>
</event>
<event>
 6    0  0.1080632E+003  0.8723560E+02  0.7546771E-02  0.1309688E+00
         21   -1    0    0  505  501  0.00000000000E+00  0.00000000000E+00  0.12581497994E+03  0.12581497994E+03  0.00000000000E+00 0.  1.
         21   -1    0    0  503  502 -0.00000000000E+00 -0.00000000000E+00 -0.79744885073E+03  0.79744885073E+03  0.00000000000E+00 0.  1.
         21    1    1    2  503  506 -0.28859280277E+02  0.59391762357E+02 -0.28826228997E+03  0.29572857034E+03  0.00000000000E+00 0.  1.
         21    1    1    2  504  502  0.73726648936E+02 -0.57705534678E+02 -0.16389280835E+03  0.18874956986E+03  0.00000000000E+00 0.  1.
         21    1    1    2  505  504 -0.79644040316E+02 -0.80440567040E+02 -0.30016134397E+03  0.32079696133E+03  0.00000000000E+00 0.  1.
         21    1    1    2  506  501  0.34776671657E+02  0.78754339361E+02  0.80682571499E+02  0.11798872914E+03  0.00000000000E+00 0.  1.
<scales pt_clust_3="66.03211" pt_clust_4="73.62470" pt_clust_5="14000.00000" pt_clust_6="87.23560"></scales>
<clustering>
<clus scale="   66.032">  2  3  1 -1</clus>
<clus scale="   73.625">  2  4  1 -1</clus>
<clus scale="   87.236">  1  6  2 -1</clus>
<clus scale="   87.236">  1  3  2 -1</clus>
</clustering>
</event>
<event>
 6    0  0.1080632E+003  0.1621941E+03  0.7546771E-02  0.1186242E+00
         21   -1    0    0  503  501  0.00000000000E+00  0.00000000000E+00  0.15606234125E+04  0.15606234125E+04  0.00000000000E+00 0. -1.
         21   -1    0    0  505  502 -0.00000000000E+00 -0.00000000000E+00 -0.80901498326E+02  0.80901498326E+02  0.00000000000E+00 0. -1.
         21    1    1    2  503  504  0.19700476797E+01  0.60772842637E+02  0.40028278588E+02  0.72797545128E+02  0.00000000000E+00 0. -1.
         21    1    1    2  504  502 -0.39615976839E+02  0.56397032235E+02  0.64262359837E+02  0.94232169441E+02  0.00000000000E+00 0. -1.
         21    1    1    2  505  506 -0.34662396595E+02  0.27094632581E+02 -0.34158044279E+02  0.55698948297E+02  0.00000000000E+00 0. -1.
         21    1    1    2  506  501  0.72308325755E+02 -0.14426450745E+03  0.14095893200E+04  0.14187962479E+04  0.00000000000E+00 0. -1.
<scales pt_clust_3="40.68704" pt_clust_4="40.68704" pt_clust_5="43.99546" pt_clust_6="156.30272"></scales>
<clustering>
<clus scale="   40.687">  3  4 -1 -1</clus>
<clus scale="   43.995">  2  5  1 -1</clus>
<clus scale="  156.303">  1  6  2 -1</clus>
<clus scale="  156.303">  1  3  2 -1</clus>
</clustering>
</event>
<event>
 6    0  0.1080632E+003  0.1299077E+03  0.7546771E-02  0.1227593E+00
         21   -1    0    0  504  501  0.00000000000E+00  0.00000000000E+00  0.34340571719E+03  0.34340571719E+03  0.00000000000E+00 0. -1.
         21   -1    0    0  503  502 -0.00000000000E+00 -0.00000000000E+00 -0.36809984857E+03  0.36809984857E+03  0.00000000000E+00 0. -1.
         21    1    1    2  503  501  0.55964056616E+01  0.77533459902E+02  0.22688295543E+02  0.80978490449E+02  0.00000000000E+00 0.  1.
         21    1    1    2  504  506 -0.15734755400E+02  0.41230603590E+02  0.12927249478E+03  0.13659766874E+03  0.00000000000E+00 0. -1.
         21    1    1    2  505  502 -0.37601263822E+02 -0.14175423020E+03 -0.31408552253E+03  0.34663789794E+03  0.00000000000E+00 0. -1.
         21    1    1    2  506  505  0.47739613561E+02  0.22990166709E+02  0.13743060084E+03  0.14729150863E+03  0.00000000000E+00 0. -1.
<scales pt_clust_3="129.90767" pt_clust_4="44.13100" pt_clust_5="14000.00000" pt_clust_6="62.96640"></scales>
<clustering>
<clus scale="   44.131">  1  4  2 -1</clus>
<clus scale="   62.966">  1  6  2 -1</clus>
<clus scale="  129.908">  1  3  2 -1</clus>
<clus scale="   44.131">  1  3  2 -1</clus>
</clustering>
</event>
<event>
 6    0  0.1080632E+003  0.1853198E+03  0.7546771E-02  0.1162752E+00
         21   -1    0    0  502  501  0.00000000000E+00  0.00000000000E+00  0.18311105463E+04  0.18311105463E+04  0.00000000000E+00 0. -1.
         21   -1    0    0  505  502 -0.00000000000E+00 -0.00000000000E+00 -0.13929435288E+03  0.13929435288E+03  0.00000000000E+00 0. -1.
         21    1    1    2  503  506  0.79027733525E+02  0.48950318984E+02 -0.46519964009E+02  0.10395010075E+03  0.00000000000E+00 0. -1.
         21    1    1    2  504  501 -0.30462439637E+02 -0.20064659054E+03  0.16589566206E+04  0.16713240510E+04  0.00000000000E+00 0. -1.
         21    1    1    2  505  503 -0.31020155921E+01  0.42263789542E+02 -0.13600551128E+02  0.44506464679E+02  0.00000000000E+00 0. -1.
         21    1    1    2  506  504 -0.45463278295E+02  0.10943248202E+03  0.92980088001E+02  0.15062428277E+03  0.00000000000E+00 0.  1.
<scales pt_clust_3="109.39433" pt_clust_4="185.31980" pt_clust_5="42.37748" pt_clust_6="14000.00000"></scales>
<clustering>
<clus scale="   42.377">  2  5  1 -1</clus>
<clus scale="  109.394">  2  3  1 -1</clus>
<clus scale="  185.320">  1  4  2 -1</clus>
<clus scale="  185.320">  1  3  2 -1</clus>
</clustering>
</event>
<event>
 6    0  0.1080632E+003  0.1292036E+03  0.7546771E-02  0.1228642E+00
         21   -1    0    0  503  501  0.00000000000E+00  0.00000000000E+00  0.94909526893E+03  0.94909526893E+03  0.00000000000E+00 0.  1.
         21   -1    0    0  506  502 -0.00000000000E+00 -0.00000000000E+00 -0.29339679559E+03  0.29339679559E+03  0.00000000000E+00 0.  1.
         21    1    1    2  503  502 -0.17866314235E+02 -0.28282940759E+02  0.17149529891E+03  0.17472769521E+03  0.00000000000E+00 0.  1.
         21    1    1    2  504  505  0.10927888306E+03 -0.13002614265E+02  0.11026627188E+03  0.15578701157E+03  0.00000000000E+00 0. -1.
         21    1    1    2  505  501  0.97072446187E+01 -0.46295671910E+02  0.62537810961E+03  0.62716449183E+03  0.00000000000E+00 0.  1.
         21    1    1    2  506  504 -0.10111981345E+03  0.87581226934E+02 -0.25144120706E+03  0.28481286592E+03  0.00000000000E+00 0.  1.
<scales pt_clust_3="33.45340" pt_clust_4="129.20358" pt_clust_5="69.28234" pt_clust_6="14000.00000"></scales>
<clustering>
<clus scale="   33.453">  1  3  2 -1</clus>
<clus scale="   69.282">  1  5  2 -1</clus>
<clus scale="  129.204">  1  4  2 -1</clus>
<clus scale="   33.453">  1  3  2 -1</clus>
</clustering>
</event>
<event>
 6    0  0.1080632E+003  0.1345043E+03  0.7546771E-02  0.1220921E+00
         21   -1    0    0  504  501  0.00000000000E+00  0.00000000000E+00  0.30862083013E+03  0.30862083013E+03  0.00000000000E+00 0.  1.
         21   -1    0    0  506  502 -0.00000000000E+00 -0.00000000000E+00 -0.28371868353E+03  0.28371868353E+03  0.00000000000E+00 0.  1.
         21    1    1    2  503  501  0.65624855139E+01  0.50011505788E+02  0.97991738107E+02  0.11021160404E+03  0.00000000000E+00 0.  1.
         21    1    1    2  504  505 -0.19149168825E+02 -0.50974736155E+02  0.69386923749E+01  0.54893167559E+02  0.00000000000E+00 0.  1.
         21    1    1    2  505  502 -0.85387074514E+02 -0.72373094047E+02 -0.21662492321E+03  0.24383431792E+03  0.00000000000E+00 0.  1.
         21    1    1    2  506  503  0.97973757824E+02  0.73336324414E+02  0.13659663933E+03  0.18340042415E+03  0.00000000000E+00 0.  1.
<scales pt_clust_3="45.54911" pt_clust_4="54.45286" pt_clust_5="114.26988" pt_clust_6="45.54911"></scales>
<clustering>
<clus scale="   45.549">  3  6 -1 -1</clus>
<clus scale="   54.453">  1  4  2 -1</clus>
<clus scale="  114.270">  2  5  1 -1</clus>
<clus scale="   54.453">  1  3  2 -1</clus>
</clustering>
</event>
<event>
 6    0  0.1080632E+003  0.1292299E+03  0.7546771E-02  0.1228603E+00
         21   -1    0    0  504  501  0.00000000000E+00  0.00000000000E+00  0.50180133983E+03  0.50180133983E+03  0.00000000000E+00 0. -1.
         21   -1    0    0  505  502 -0.00000000000E+00 -0.00000000000E+00 -0.18751139568E+03  0.18751139568E+03  0.00000000000E+00 0. -1.
         21    1    1    2  503  506  0.37342764845E+02 -0.13282172651E+03  0.10195455075E+03  0.17155414171E+03  0.00000000000E+00 0. -1.
         21    1    1    2  504  502  0.24146224654E+02 -0.25982884377E+02 -0.88750546510E+02  0.95576199712E+02  0.00000000000E+00 0. -1.
         21    1    1    2  505  503 -0.12399167299E+02  0.13862493311E+03  0.25453968241E+02  0.14148680479E+03  0.00000000000E+00 0. -1.
         21    1    1    2  506  501 -0.49089822200E+02  0.20179677778E+02  0.27563197168E+03  0.28069558930E+03  0.00000000000E+00 0. -1.
<scales pt_clust_3="14000.00000" pt_clust_4="35.47042" pt_clust_5="129.22990" pt_clust_6="52.22186"></scales>
<clustering>
<clus scale="   35.470">  2  4  1 -1</clus>
<clus scale="   52.222">  1  6  2 -1</clus>
<clus scale="  129.230">  2  5  1 -1</clus>
<clus scale="   52.222">  1  3  2 -1</clus>
</clustering>
</event>
<event>
 6    0  0.1080632E+003  0.9517858E+02  0.7546771E-02  0.1290774E+00
         21   -1    0    0  503  501  0.00000000000E+00  0.00000000000E+00  0.69866357600E+03  0.69866357600E+03  0.00000000000E+00 0. -1.
         21   -1    0    0  505  502 -0.00000000000E+00 -0.00000000000E+00 -0.10537299219E+04  0.10537299219E+04  0.00000000000E+00 0.  1.
         21    1    1    2  503  502  0.54095701433E+02  0.64349789763E+02 -0.87337135778E+03  0.87740798318E+03  0.00000000000E+00 0.  1.
         21    1    1    2  504  506 -0.67939511254E+02 -0.11156867008E+03 -0.80519334330E+02  0.15344936798E+03  0.00000000000E+00 0.  1.
         21    1    1    2  505  504 -0.52518755850E+02  0.22544035574E+02 -0.45673551582E+02  0.73160963431E+02  0.00000000000E+00 0.  1.
         21    1    1    2  506  501  0.66362565671E+02  0.24674844740E+02  0.64449789779E+03  0.64837518332E+03  0.00000000000E+00 0. -1.
<scales pt_clust_3="14000.00000" pt_clust_4="95.17858" pt_clust_5="57.15289" pt_clust_6="70.72078"></scales>
<clustering>
<clus scale="   57.153">  2  5  1 -1</clus>
<clus scale="   70.721">  1  6  2 -1</clus>
<clus scale="   95.179">  1  4  2 -1</clus>
<clus scale="   70.721">  1  3  2 -1</clus>
</clustering>
</event>
<event>
 6    0  0.1080632E+003  0.1856687E+03  0.7546771E-02  0.1162427E+00
         21   -1    0    0  503  501  0.00000000000E+00  0.00000000000E+00  0.21992592839E+03  0.21992592839E+03  0.00000000000E+00 0.  1.
         21   -1    0    0  506  502 -0.00000000000E+00 -0.00000000000E+00 -0.13310986716E+04  0.13310986716E+04  0.00000000000E+00 0. -1.
         21    1    1    2  503  502  0.93085548076E+02 -0.10097378160E+03  0.40802340369E+01  0.13739458556E+03  0.00000000000E+00 0.  1.
         21    1    1    2  504  501 -0.86732834738E+02  0.14970686558E+03  0.34013563726E+02  0.17632825282E+03  0.00000000000E+00 0.  1.
         21    1    1    2  505  504  0.18010392316E+02  0.42862947891E+02  0.29283531084E+02  0.54946626157E+02  0.00000000000E+00 0. -1.
         21    1    1    2  506  505 -0.24363105654E+02 -0.91596031880E+02 -0.11785500721E+04  0.11823551355E+04  0.00000000000E+00 0. -1.
<scales pt_clust_3="163.69858" pt_clust_4="45.41587" pt_clust_5="45.41587" pt_clust_6="94.78077"></scales>
<clustering>
<clus scale="   45.416">  4  5 -1 -1</clus>
<clus scale="   94.781">  2  6  1 -1</clus>
<clus scale="  163.699">  1  3  2 -1</clus>
<clus scale="  163.699">  1  3  2 -1</clus>
</clustering>
</event>
<event>
 6    0  0.1080632E+003  0.1268242E+03  0.7546771E-02  0.1232246E+00
         21   -1    0    0  505  501  0.00000000000E+00  0.00000000000E+00  0.15012485730E+02  0.15012485730E+02  0.00000000000E+00 0.  1.
         21   -1    0    0  503  502 -0.00000000000E+00 -0.00000000000E+00 -0.29507604518E+04  0.29507604518E+04  0.00000000000E+00 0.  1.
         21    1    1    2  503  506  0.12612554561E+03 -0.17858865569E+02 -0.22505838068E+04  0.22541858983E+04  0.00000000000E+00 0.  1.
         21    1    1    2  504  502 -0.55489129180E+02  0.23111975859E+02 -0.50326402712E+03  0.50684108740E+03  0.00000000000E+00 0.  1.
         21    1    1    2  505  504 -0.39538024408E+02  0.13388633695E+02 -0.15236911719E+03  0.15798372941E+03  0.00000000000E+00 0.  1.
         21    1    1    2  506  501 -0.31098392021E+02 -0.18641743985E+02 -0.29531014895E+02  0.46762222422E+02  0.00000000000E+00 0.  1.
<scales pt_clust_3="119.62282" pt_clust_4="35.10677" pt_clust_5="35.10677" pt_clust_6="36.25775"></scales>
<clustering>
<clus scale="   35.107">  4  5 -1 -1</clus>
<clus scale="   36.258">  1  6  2 -1</clus>
<clus scale="  119.623">  2  3  1 -1</clus>
<clus scale="   36.258">  1  3  2 -1</clus>
</clustering>
</event>
<event>
 6    0  0.1080632E+003  0.9120779E+02  0.7546771E-02  0.1299953E+00
         21   -1    0    0  505  501  0.00000000000E+00  0.00000000000E+00  0.17035777959E+04  0.17035777959E+04  0.00000000000E+00 0. -1.
         21   -1    0    0  506  502 -0.00000000000E+00 -0.00000000000E+00 -0.56018345058E+02  0.56018345058E+02  0.00000000000E+00 0. -1.
         21    1    1    2  503  501  0.59140923747E+02  0.20361204330E+02  0.12190080792E+04  0.12206117010E+04  0.00000000000E+00 0. -1.
         21    1    1    2  504  502 -0.96382274060E+02  0.80396935165E+01  0.34131140565E+01  0.96777212051E+02  0.00000000000E+00 0. -1.
         21    1    1    2  505  504 -0.27235236675E+02 -0.46964162908E+02  0.17510408075E+03  0.18332711150E+03  0.00000000000E+00 0.  1.
         21    1    1    2  506  503  0.64476586988E+02  0.18563265062E+02  0.25003417688E+03  0.25888011644E+03  0.00000000000E+00 0.  1.
<scales pt_clust_3="41.12575" pt_clust_4="14000.00000" pt_clust_5="54.28988" pt_clust_6="91.20779"></scales>
<clustering>
<clus scale="   54.290">  1  5  2 -1</clus>
<clus scale="   41.126">  1  3  2 -1</clus>
<clus scale="   91.208">  1  6  2 -1</clus>
<clus scale="   54.290">  1  3  2 -1</clus>
</clustering>
</event>
<event>
 6    0  0.1080632E+003  0.1023290E+03  0.7546771E-02  0.1275473E+00
         21   -1    0    0  503  501  0.00000000000E+00  0.00000000000E+00  0.11314728994E+04  0.11314728994E+04  0.00000000000E+00 0.  1.
         21   -1    0    0  504  502 -0.00000000000E+00 -0.00000000000E+00 -0.24316244128E+02  0.24316244128E+02  0.00000000000E+00 0.  1.
         21    1    1    2  503  502 -0.62982158066E+01  0.36086670257E+02  0.26771375140E+03  0.27020837882E+03  0.00000000000E+00 0.  1.
         21    1    1    2  504  505  0.11210575826E+03 -0.24988055009E+02  0.17159943366E+03  0.20649084619E+03  0.00000000000E+00 0.  1.
         21    1    1    2  505  506 -0.75210619743E+02  0.19650435806E+02  0.36762563248E+03  0.37575441794E+03  0.00000000000E+00 0.  1.
         21    1    1    2  506  501 -0.30596922707E+02 -0.30749051054E+02  0.30021783777E+03  0.30333550062E+03  0.00000000000E+00 0.  1.
<scales pt_clust_3="36.63216" pt_clust_4="102.32898" pt_clust_5="14000.00000" pt_clust_6="37.47425"></scales>
<clustering>
<clus scale="   36.632">  1  3  2 -1</clus>
<clus scale="   37.474">  1  6  2 -1</clus>
<clus scale="  102.329">  2  4  1 -1</clus>
<clus scale="   36.632">  1  3  2 -1</clus>
</clustering>
</event>
<event>
 6    0  0.1080632E+003  0.1110044E+03  0.7546771E-02  0.1258721E+00
         21   -1    0    0  503  501  0.00000000000E+00  0.00000000000E+00  0.14262250573E+04  0.14262250573E+04  0.00000000000E+00 0. -1.
         21   -1    0    0  505  502 -0.00000000000E+00 -0.00000000000E+00 -0.92503109368E+02  0.92503109368E+02  0.00000000000E+00 0. -1.
         21    1    1    2  503  504 -0.93465435894E+02 -0.39795632762E+02  0.12524838782E+04  0.12565967313E+04  0.00000000000E+00 0. -1.
         21    1    1    2  504  502 -0.56135804012E+02 -0.40421266331E+02 -0.18646235454E+01  0.69199595988E+02  0.00000000000E+00 0. -1.
         21    1    1    2  505  506  0.62728203036E+02  0.55250621479E+02  0.36116449001E+02  0.91059631661E+02  0.00000000000E+00 0.  1.
         21    1    1    2  506  501  0.86873036871E+02  0.24966277615E+02  0.46986244360E+02  0.10187220775E+03  0.00000000000E+00 0.  1.
<scales pt_clust_3="104.02219" pt_clust_4="69.17447" pt_clust_5="37.26171" pt_clust_6="37.26171"></scales>
<clustering>
<clus scale="   37.262">  5  6 -1 -1</clus>
<clus scale="   69.174">  2  4  1 -1</clus>
<clus scale="  104.022">  1  3  2 -1</clus>
<clus scale="  104.022">  1  3  2 -1</clus>
</clustering>
</event>
<event>
 6    0  0.1080632E+003  0.9983446E+02  0.7546771E-02  0.1280644E+00
         21   -1    0    0  506  501  0.00000000000E+00  0.00000000000E+00  0.29695258832E+03  0.29695258832E+03  0.00000000000E+00 0. -1.
         21   -1    0    0  505  502 -0.00000000000E+00 -0.00000000000E+00 -0.41876572500E+03  0.41876572500E+03  0.00000000000E+00 0.  1.
         21    1    1    2  503  504 -0.11130419996E+03  0.81885901683E+02  0.61835098432E+02  0.15138528733E+03  0.00000000000E+00 0. -1.
         21    1    1    2  504  502  0.82750788744E+02 -0.50750817341E+02 -0.29564008389E+03  0.31116940354E+03  0.00000000000E+00 0.  1.
         21    1    1    2  505  501  0.43855483021E+02 -0.10202793767E+03 -0.97234192235E+01  0.11147891432E+03  0.00000000000E+00 0.  1.
         21    1    1    2  506  503 -0.15302071808E+02  0.70892853331E+02  0.12171526800E+03  0.14168470813E+03  0.00000000000E+00 0. -1.
<scales pt_clust_3="14000.00000" pt_clust_4="99.83446" pt_clust_5="89.24440" pt_clust_6="72.52551"></scales>
<clustering>
<clus scale="   72.526">  1  6  2 -1</clus>
<clus scale="   89.244">  1  5  2 -1</clus>
<clus scale="   99.834">  2  4  1 -1</clus>
<clus scale="   72.526">  1  3  2 -1</clus>
</clustering>
</event>
<event>
 6    0  0.1080632E+003  0.1242673E+03  0.7546771E-02  0.1236219E+00
         21   -1    0    0  502  501  0.00000000000E+00  0.00000000000E+00  0.14760907865E+03  0.14760907865E+03  0.00000000000E+00 0.  1.
         21   -1    0    0  503  502 -0.00000000000E+00 -0.00000000000E+00 -0.31916383666E+03  0.31916383666E+03  0.00000000000E+00 0.  1.
         21    1    1    2  503  505 -0.45492141955E+02 -0.11664567222E+03 -0.25304037451E+03  0.28232105653E+03  0.00000000000E+00 0.  1.
         21    1    1    2  504  506  0.42054655721E+02  0.21812090059E+02  0.15731292996E+02  0.49918282421E+02  0.00000000000E+00 0.  1.
         21    1    1    2  505  504  0.11983219517E+02  0.45867982871E+02 -0.54249032043E+01  0.47716862611E+02  0.00000000000E+00 0.  1.
         21    1    1    2  506  501 -0.85457332829E+01  0.48965599288E+02  0.71179226706E+02  0.86816713744E+02  0.00000000000E+00 0.  1.
<scales pt_clust_3="116.26109" pt_clust_4="43.86780" pt_clust_5="43.86780" pt_clust_6="49.70573"></scales>
<clustering>
<clus scale="   43.868">  4  5 -1 -1</clus>
<clus scale="   49.706">  1  6  2 -1</clus>
<clus scale="  116.261">  2  3  1 -1</clus>
<clus scale="   49.706">  1  3  2 -1</clus>
</clustering>
</event>
<event>
 6    0  0.1080632E+003  0.2114529E+03  0.7546771E-02  0.1140421E+00
         21   -1    0    0  504  501  0.00000000000E+00  0.00000000000E+00  0.20539482619E+04  0.20539482619E+04  0.00000000000E+00 0.  1.
         21   -1    0    0  505  502 -0.00000000000E+00 -0.00000000000E+00 -0.17525014542E+03  0.17525014542E+03  0.00000000000E+00 0. -1.
         21    1    1    2  503  502 -0.36323671125E+02  0.76581517954E+02 -0.63704740022E+02  0.10603033470E+03  0.00000000000E+00 0. -1.
         21    1    1    2  504  503  0.59921547628E+01 -0.30499628067E+02  0.15235058633E+04  0.15238229060E+04  0.00000000000E+00 0.  1.
         21    1    1    2  505  506  0.10601560776E+03  0.16059213286E+03  0.11519091997E+03  0.22427235734E+03  0.00000000000E+00 0. -1.
         21    1    1    2  506  501 -0.75684091398E+02 -0.20667402274E+03  0.30370607327E+03  0.37507280934E+03  0.00000000000E+00 0. -1.
<scales pt_clust_3="83.55762" pt_clust_4="31.08268" pt_clust_5="14000.00000" pt_clust_6="211.45286"></scales>
<clustering>
<clus scale="   31.083">  1  4  2 -1</clus>
<clus scale="   83.558">  2  3  1 -1</clus>
<clus scale="  211.453">  1  6  2 -1</clus>
<clus scale="   31.083">  1  3  2 -1</clus>
</clustering>
</event>
<event>
 6    0  0.1080632E+003  0.1868677E+03  0.7546771E-02  0.1161317E+00
         21   -1    0    0  506  501  0.00000000000E+00  0.00000000000E+00  0.15087935228E+03  0.15087935228E+03  0.00000000000E+00 0.  1.
         21   -1    0    0  503  502 -0.00000000000E+00 -0.00000000000E+00 -0.13493470377E+04  0.13493470377E+04  0.00000000000E+00 0. -1.
         21    1    1    2  503  504  0.18071615435E+03  0.69947243673E+02 -0.11286263105E+04  0.11451411677E+04  0.00000000000E+00 0. -1.
         21    1    1    2  504  501 -0.43587373306E+02 -0.87707027053E+02 -0.94803670416E+02  0.13630890518E+03  0.00000000000E+00 0.  1.
         21    1    1    2  505  502 -0.12374628665E+03 -0.54863304664E+02 -0.12560001544E+02  0.13594439782E+03  0.00000000000E+00 0.  1.
         21    1    1    2  506  505 -0.13382494384E+02  0.72623088045E+02  0.37522297020E+02  0.82831919251E+02  0.00000000000E+00 0.  1.
<scales pt_clust_3="14000.00000" pt_clust_4="85.02983" pt_clust_5="186.86771" pt_clust_6="73.84581"></scales>
<clustering>
<clus scale="   73.846">  1  6  2 -1</clus>
<clus scale="   85.030">  1  4  2 -1</clus>
<clus scale="  186.868">  1  5  2 -1</clus>
<clus scale="   73.846">  1  3  2 -1</clus>
</clustering>
</event>
<event>
 6    0  0.1080632E+003  0.8907855E+02  0.7546771E-02  0.1305099E+00
         21   -1    0    0  503  501  0.00000000000E+00  0.00000000000E+00  0.14473443759E+02  0.14473443759E+02  0.00000000000E+00 0.  1.
         21   -1    0    0  505  502 -0.00000000000E+00 -0.00000000000E+00 -0.19959648306E+04  0.19959648306E+04  0.00000000000E+00 0.  1.
         21    1    1    2  503  504 -0.35583242796E+02 -0.94299549997E+01 -0.59359833286E+02  0.69847555626E+02  0.00000000000E+00 0.  1.
         21    1    1    2  504  506 -0.10689372782E+02  0.82572878923E+02 -0.57490941841E+03  0.58090737850E+03  0.00000000000E+00 0.  1.
         21    1    1    2  505  501  0.51400574288E+02  0.19919520647E+02 -0.16862924612E+03  0.17741090437E+03  0.00000000000E+00 0.  1.
         21    1    1    2  506  502 -0.51279587100E+01 -0.93062444570E+02 -0.11785928890E+04  0.11822724359E+04  0.00000000000E+00 0.  1.
<scales pt_clust_3="36.81156" pt_clust_4="89.07855" pt_clust_5="37.76951" pt_clust_6="14000.00000"></scales>
<clustering>
<clus scale="   36.812">  1  3  2 -1</clus>
<clus scale="   37.770">  1  5  2 -1</clus>
<clus scale="   89.079">  1  4  2 -1</clus>
<clus scale="   36.812">  1  3  2 -1</clus>
</clustering>
</event>
<event>
 6    0  0.1080632E+003  0.1598192E+03  0.7546771E-02  0.1188901E+00
         21   -1    0    0  505  501  0.00000000000E+00  0.00000000000E+00  0.87273718132E+03  0.87273718132E+03  0.00000000000E+00 0.  1.
         21   -1    0    0  506  502 -0.00000000000E+00 -0.00000000000E+00 -0.31206837088E+02  0.31206837088E+02  0.00000000000E+00 0.  1.
         21    1    1    2  503  502 -0.27583967455E+02  0.89390359994E+02  0.21001080135E+03  0.22990443319E+03  0.00000000000E+00 0.  1.
         21    1    1    2  504  501  0.45144522082E+02 -0.59822205988E+02  0.23829870612E+03  0.24980591975E+03  0.00000000000E+00 0.  1.
         21    1    1    2  505  503  0.96145085026E+01  0.49595714775E+02  0.50464814931E+02  0.71406380974E+02  0.00000000000E+00 0.  1.
         21    1    1    2  506  504 -0.27175063129E+02 -0.79163868782E+02  0.34275602184E+03  0.35282728449E+03  0.00000000000E+00 0.  1.
<scales pt_clust_3="151.46174" pt_clust_4="72.69720" pt_clust_5="42.21873" pt_clust_6="72.69720"></scales>
<clustering>
<clus scale="   42.219">  3  5 -1 -1</clus>
<clus scale="   72.697">  4  6 -1 -1</clus>
<clus scale="  151.462">  2  3  1 -1</clus>
<clus scale="  159.819">  1  3  2 -1</clus>
</clustering>
</event>
<event>
 6    0  0.1080632E+003  0.1726461E+03  0.7546771E-02  0.1175116E+00
         21   -1    0    0  506  501  0.00000000000E+00  0.00000000000E+00  0.82055901544E+02  0.82055901544E+02  0.00000000000E+00 0.  1.
         21   -1    0    0  503  502 -0.00000000000E+00 -0.00000000000E+00 -0.17367858398E+04  0.17367858398E+04  0.00000000000E+00 0. -1.
         21    1    1    2  503  501 -0.17383355831E+03  0.65310365644E+02 -0.12783628476E+04  0.12917798265E+04  0.00000000000E+00 0. -1.
         21    1    1    2  504  502 -0.29831268208E+01 -0.39345191213E+02 -0.14108930706E+03  0.14650302278E+03  0.00000000000E+00 0. -1.
         21    1    1    2  505  504  0.11365687408E+03 -0.12927613671E+03 -0.17434960066E+03  0.24500609747E+03  0.00000000000E+00 0.  1.
         21    1    1    2  506  505  0.63159811054E+02  0.10331096227E+03 -0.60928182898E+02  0.13555279462E+03  0.00000000000E+00 0.  1.
<scales pt_clust_3="14000.00000" pt_clust_4="39.45812" pt_clust_5="172.64607" pt_clust_6="118.92705"></scales>
<clustering>
<clus scale="   39.458">  2  4  1 -1</clus>
<clus scale="  118.927">  1  6  2 -1</clus>
<clus scale="  172.646">  1  5  2 -1</clus>
<clus scale="  118.927">  1  3  2 -1</clus>
</clustering>
</event>
<event>
 6    0  0.1080632E+003  0.9096613E+02  0.7546771E-02  0.1300529E+00
         21   -1    0    0  505  501  0.00000000000E+00  0.00000000000E+00  0.98046039029E+02  0.98046039029E+02  0.00000000000E+00 0.  1.
         21   -1    0    0  506  502 -0.00000000000E+00 -0.00000000000E+00 -0.30056550836E+03  0.30056550836E+03  0.00000000000E+00 0.  1.
         21    1    1    2  503  504 -0.99432377449E+02  0.33244275189E+02  0.23358189854E+02  0.10741314888E+03  0.00000000000E+00 0.  1.
         21    1    1    2  504  501 -0.19287463770E+01  0.31190201511E+02 -0.18119908079E+02  0.36123120044E+02  0.00000000000E+00 0.  1.
         21    1    1    2  505  502  0.68166056161E+02 -0.31617319019E+01 -0.56712446671E+02  0.88729416591E+02  0.00000000000E+00 0.  1.
         21    1    1    2  506  503  0.33195067665E+02 -0.61272744799E+02 -0.15104530444E+03  0.16634586188E+03  0.00000000000E+00 0.  1.
<scales pt_clust_3="90.96613" pt_clust_4="31.24978" pt_clust_5="14000.00000" pt_clust_6="67.26129"></scales>
<clustering>
<clus scale="   31.250">  1  4  2 -1</clus>
<clus scale="   67.261">  2  6  1 -1</clus>
<clus scale="   90.966">  1  3  2 -1</clus>
<clus scale="   31.250">  1  3  2 -1</clus>
</clustering>
</event>
<event>
 6    0  0.1080632E+003  0.9646283E+02  0.7546771E-02  0.1287915E+00
         21   -1    0    0  506  501  0.00000000000E+00  0.00000000000E+00  0.49978362355E+03  0.49978362355E+03  0.00000000000E+00 0. -1.
         21   -1    0    0  504  502 -0.00000000000E+00 -0.00000000000E+00 -0.14043943402E+03  0.14043943402E+03  0.00000000000E+00 0.  1.
         21    1    1    2  503  501 -0.25969520112E+02 -0.43584517686E+02  0.18328029077E+03  0.19017279285E+03  0.00000000000E+00 0. -1.
         21    1    1    2  504  503  0.22505365009E+02 -0.32746916330E+02  0.18357858436E+02  0.43770571731E+02  0.00000000000E+00 0. -1.
         21    1    1    2  505  502  0.59948472599E+02 -0.23935108500E+02 -0.10285698449E+03  0.12143421282E+03  0.00000000000E+00 0.  1.
         21    1    1    2  506  505 -0.56484317496E+02  0.10026654252E+03  0.26056302481E+03  0.28484548017E+03  0.00000000000E+00 0. -1.
<scales pt_clust_3="51.19232" pt_clust_4="39.73477" pt_clust_5="96.46283" pt_clust_6="14000.00000"></scales>
<clustering>
<clus scale="   39.735">  2  4  1 -1</clus>
<clus scale="   51.192">  1  3  2 -1</clus>
<clus scale="   96.463">  2  5  1 -1</clus>
<clus scale="   51.192">  1  3  2 -1</clus>
</clustering>
</event>
<event>
 6    0  0.1080632E+003  0.8199251E+02  0.7546771E-02  0.1323490E+00
         21   -1    0    0  506  501  0.00000000000E+00  0.00000000000E+00  0.24379605639E+03  0.24379605639E+03  0.00000000000E+00 0.  1.
         21   -1    0    0  505  502 -0.00000000000E+00 -0.00000000000E+00 -0.16014130282E+03  0.16014130282E+03  0.00000000000E+00 0.  1.
         21    1    1    2  503  504  0.51261650263E+02  0.65331556371E+02  0.53028908225E+02  0.98529356809E+02  0.00000000000E+00 0.  1.
         21    1    1    2  504  502  0.46193966553E+02 -0.10691198448E+03  0.47821616622E+02  0.12590060360E+03  0.00000000000E+00 0.  1.
         21    1    1    2  505  501 -0.21612486105E+02  0.48353314915E+02 -0.69314904208E+02  0.87233586217E+02  0.00000000000E+00 0.  1.
         21    1    1    2  506  503 -0.75843130712E+02 -0.67728868078E+01  0.52119132929E+02  0.92273812586E+02  0.00000000000E+00 0.  1.
<scales pt_clust_3="81.99251" pt_clust_4="14000.00000" pt_clust_5="52.96360" pt_clust_6="81.30265"></scales>
<clustering>
<clus scale="   52.964">  2  5  1 -1</clus>
<clus scale="   81.303">  1  6  2 -1</clus>
<clus scale="   81.993">  1  3  2 -1</clus>
<clus scale="   81.303">  1  3  2 -1</clus>
</clustering>
</event>
<event>
 6    0  0.1080632E+003  0.3678113E+03  0.7546771E-02  0.1055533E+00
         21   -1    0    0  506  501  0.00000000000E+00  0.00000000000E+00  0.19598912399E+04  0.19598912399E+04  0.00000000000E+00 0. -1.
         21   -1    0    0  505  502 -0.00000000000E+00 -0.00000000000E+00 -0.67491674496E+03  0.67491674496E+03  0.00000000000E+00 0. -1.
         21    1    1    2  503  502 -0.88092030268E+01 -0.39767631516E+02 -0.32930148244E+02  0.52378060653E+02  0.00000000000E+00 0.  1.
         21    1    1    2  504  503  0.28032645671E+03 -0.17365459898E+03 -0.37940374274E+03  0.50267886576E+03  0.00000000000E+00 0. -1.
         21    1    1    2  505  501  0.59170095544E+02  0.48719948454E+02 -0.16458676091E+03  0.18155862814E+03  0.00000000000E+00 0. -1.
         21    1    1    2  506  504 -0.33068734922E+03  0.16470228204E+03  0.18618951469E+04  0.18981924303E+04  0.00000000000E+00 0. -1.
<scales pt_clust_3="40.73164" pt_clust_4="367.81135" pt_clust_5="68.21270" pt_clust_6="14000.00000"></scales>
<clustering>
<clus scale="   40.732">  2  3  1 -1</clus>
<clus scale="   68.213">  2  5  1 -1</clus>
<clus scale="  367.811">  2  4  1 -1</clus>
<clus scale="  367.811">  1  3  2 -1</clus>
</clustering>
</event>
<event>
 6    0  0.1080632E+003  0.9634485E+02  0.7546771E-02  0.1288176E+00
         21   -1    0    0  503  501  0.00000000000E+00  0.00000000000E+00  0.79012495801E+03  0.79012495801E+03  0.00000000000E+00 0. -1.
         21   -1    0    0  504  502 -0.00000000000E+00 -0.00000000000E+00 -0.19969026965E+03  0.19969026965E+03  0.00000000000E+00 0. -1.
         21    1    1    2  503  506 -0.34158131846E+02 -0.95550195718E+00  0.48086774856E+03  0.48208036940E+03  0.00000000000E+00 0. -1.
         21    1    1    2  504  501  0.69177438589E+02  0.35388099907E+02  0.20583851108E+03  0.22001665453E+03  0.00000000000E+00 0. -1.
         21    1    1    2  505  502 -0.96890186207E+02 -0.13138108460E+02 -0.16564806967E+03  0.19235280363E+03  0.00000000000E+00 0. -1.
         21    1    1    2  506  505  0.61870879464E+02 -0.21294489489E+02  0.69376498389E+02  0.95365400104E+02  0.00000000000E+00 0. -1.
<scales pt_clust_3="34.17149" pt_clust_4="96.34485" pt_clust_5="14000.00000" pt_clust_6="56.98654"></scales>
<clustering>
<clus scale="   34.171">  1  3  2 -1</clus>
<clus scale="   56.987">  1  6  2 -1</clus>
<clus scale="   96.345">  1  4  2 -1</clus>
<clus scale="   34.171">  1  3  2 -1</clus>
</clustering>
</event>
<event>
 6    0  0.1080632E+003  0.1130105E+03  0.7546771E-02  0.1255094E+00
         21   -1    0    0  503  501  0.00000000000E+00  0.00000000000E+00  0.12213909313E+04  0.12213909313E+04  0.00000000000E+00 0.  1.
         21   -1    0    0  506  502 -0.00000000000E+00 -0.00000000000E+00 -0.76665063733E+03  0.76665063733E+03  0.00000000000E+00 0.  1.
         21    1    1    2  503  502 -0.93706670063E+02 -0.65280845240E+02 -0.66706642582E+03  0.67677185611E+03  0.00000000000E+00 0.  1.
         21    1    1    2  504  505 -0.25123757468E+02  0.42278213754E+02 -0.49899436548E+02  0.70061432438E+02  0.00000000000E+00 0. -1.
         21    1    1    2  505  501  0.96068798188E+02  0.59508299548E+02  0.11893526973E+04  0.11947092911E+04  0.00000000000E+00 0.  1.
         21    1    1    2  506  504  0.22761629344E+02 -0.36505668062E+02 -0.17646540940E+02  0.46498989001E+02  0.00000000000E+00 0.  1.
<scales pt_clust_3="14000.00000" pt_clust_4="45.66790" pt_clust_5="113.01052" pt_clust_6="43.02041"></scales>
<clustering>
<clus scale="   43.020">  2  6  1 -1</clus>
<clus scale="   45.668">  2  4  1 -1</clus>
<clus scale="  113.011">  1  5  2 -1</clus>
<clus scale="  113.011">  1  3  2 -1</clus>
</clustering>
</event>
<event>
 6    0  0.1080632E+003  0.2119239E+03  0.7546771E-02  0.1140051E+00
         21   -1    0    0  505  501  0.00000000000E+00  0.00000000000E+00  0.85273224809E+03  0.85273224809E+03  0.00000000000E+00 0. -1.
         21   -1    0    0  506  502 -0.00000000000E+00 -0.00000000000E+00 -0.12857951468E+04  0.12857951468E+04  0.00000000000E+00 0.  1.
         21    1    1    2  503  504 -0.76726316111E+02  0.80513433381E+02 -0.23336445543E+02  0.11363947478E+03  0.00000000000E+00 0.  1.
         21    1    1    2  504  501  0.23639910904E+03 -0.71486083035E+02  0.69989555131E+03  0.74219174178E+03  0.00000000000E+00 0. -1.
         21    1    1    2  505  502 -0.92129891547E+02 -0.79823410767E+02  0.40475106267E+02  0.12844426048E+03  0.00000000000E+00 0.  1.
         21    1    1    2  506  503 -0.67542901383E+02  0.70796060421E+02 -0.11500971107E+04  0.11542519178E+04  0.00000000000E+00 0.  1.
<scales pt_clust_3="211.92391" pt_clust_4="14000.00000" pt_clust_5="127.56716" pt_clust_6="97.84746"></scales>
<clustering>
<clus scale="   97.847">  2  6  1 -1</clus>
<clus scale="  127.567">  2  5  1 -1</clus>
<clus scale="  211.924">  2  3  1 -1</clus>
<clus scale="  211.924">  1  3  2 -1</clus>
</clustering>
</event>
<event>
 6    0  0.1080632E+003  0.1060069E+03  0.7546771E-02  0.1268148E+00
         21   -1    0    0  505  501  0.00000000000E+00  0.00000000000E+00  0.22686810147E+03  0.22686810147E+03  0.00000000000E+00 0. -1.
         21   -1    0    0  503  502 -0.00000000000E+00 -0.00000000000E+00 -0.31724499635E+03  0.31724499635E+03  0.00000000000E+00 0. -1.
         21    1    1    2  503  506 -0.13518465817E+03 -0.20336240630E+01 -0.20572307463E+03  0.24617272568E+03  0.00000000000E+00 0. -1.
         21    1    1    2  504  502  0.38125444552E+02  0.31756693406E+02 -0.33400583088E+02  0.59813343402E+02  0.00000000000E+00 0.  1.
         21    1    1    2  505  504  0.80392636480E+02 -0.85011434614E+02  0.58063835607E+02  0.13061902243E+03  0.00000000000E+00 0. -1.
         21    1    1    2  506  501  0.16666577138E+02  0.55288365271E+02  0.90682927231E+02  0.10750800630E+03  0.00000000000E+00 0. -1.
<scales pt_clust_3="106.00687" pt_clust_4="49.61892" pt_clust_5="14000.00000" pt_clust_6="59.03908"></scales>
<clustering>
<clus scale="   49.619">  2  4  1 -1</clus>
<clus scale="   59.039">  1  6  2 -1</clus>
<clus scale="  106.007">  2  3  1 -1</clus>
<clus scale="   59.039">  1  3  2 -1</clus>
</clustering>
</event>
<event>
 6    0  0.1080632E+003  0.1736620E+03  0.7546771E-02  0.1174082E+00
         21   -1    0    0  502  501  0.00000000000E+00  0.00000000000E+00  0.41867180647E+03  0.41867180647E+03  0.00000000000E+00 0. -1.
         21   -1    0    0  506  502 -0.00000000000E+00 -0.00000000000E+00 -0.84770665280E+02  0.84770665280E+02  0.00000000000E+00 0. -1.
         21    1    1    2  503  504 -0.87023052154E+02 -0.59250135747E+02  0.70493363735E+02  0.12670005731E+03  0.00000000000E+00 0. -1.
         21    1    1    2  504  501 -0.13559313750E+02 -0.51347169071E+02  0.91918050797E+02  0.10615702908E+03  0.00000000000E+00 0. -1.
         21    1    1    2  505  503  0.88779391591E+02  0.13935863151E+03  0.17329415785E+03  0.23944409304E+03  0.00000000000E+00 0. -1.
         21    1    1    2  506  505  0.11802974312E+02 -0.28761326688E+02 -0.18044311879E+01  0.31141292320E+02  0.00000000000E+00 0. -1.
<scales pt_clust_3="53.09548" pt_clust_4="53.09548" pt_clust_5="157.04171" pt_clust_6="31.08897"></scales>
<clustering>
<clus scale="   31.089">  2  6  1 -1</clus>
<clus scale="   53.095">  3  4 -1 -1</clus>
<clus scale="  157.042">  2  5  1 -1</clus>
<clus scale="  173.662">  1  3  2 -1</clus>
</clustering>
</event>
<event>
 6    0  0.1080632E+003  0.9309197E+02  0.7546771E-02  0.1295532E+00
         21   -1    0    0  503  501  0.00000000000E+00  0.00000000000E+00  0.17753762054E+03  0.17753762054E+03  0.00000000000E+00 0. -1.
         21   -1    0    0  504  502 -0.00000000000E+00 -0.00000000000E+00 -0.57828735411E+03  0.57828735411E+03  0.00000000000E+00 0. -1.
         21    1    1    2  503  505  0.40045486922E+02 -0.28031281040E+02  0.69536160885E+02  0.84998067096E+02  0.00000000000E+00 0.  1.
         21    1    1    2  504  501 -0.10546045078E+02 -0.35568301891E+02 -0.17635201093E+03  0.18021197220E+03  0.00000000000E+00 0. -1.
         21    1    1    2  505  506 -0.24869737923E+02 -0.64961388624E+02  0.73568951260E+02  0.10124661212E+03  0.00000000000E+00 0. -1.
         21    1    1    2  506  502 -0.46297039208E+01  0.12856097155E+03 -0.36750283478E+03  0.38936832323E+03  0.00000000000E+00 0. -1.
<scales pt_clust_3="49.11336" pt_clust_4="37.09883" pt_clust_5="14000.00000" pt_clust_6="93.09197"></scales>
<clustering>
<clus scale="   37.099">  2  4  1 -1</clus>
<clus scale="   49.113">  1  3  2 -1</clus>
<clus scale="   93.092">  2  6  1 -1</clus>
<clus scale="   49.113">  1  3  2 -1</clus>
</clustering>
</event>
<event>
 6    0  0.1080632E+003  0.8005405E+02  0.7546771E-02  0.1328898E+00
         21   -1    0    0  505  501  0.00000000000E+00  0.00000000000E+00  0.59592967142E+03  0.59592967142E+03  0.00000000000E+00 0. -1.
         21   -1    0    0  503  502 -0.00000000000E+00 -0.00000000000E+00 -0.25072370784E+03  0.25072370784E+03  0.00000000000E+00 0. -1.
         21    1    1    2  503  501 -0.63639102728E+02  0.74696880617E+02 -0.69204052218E+02  0.12007814211E+03  0.00000000000E+00 0. -1.
         21    1    1    2  504  502 -0.29579833654E+02  0.32522864027E+02 -0.12136806316E+03  0.12908489454E+03  0.00000000000E+00 0. -1.
         21    1    1    2  505  506  0.25409279508E+02 -0.75527321994E+02  0.51314152748E+03  0.51929205181E+03  0.00000000000E+00 0. -1.
         21    1    1    2  506  504  0.67809656873E+02 -0.31692422650E+02  0.22636551479E+02  0.78198290784E+02  0.00000000000E+00 0.  1.
<scales pt_clust_3="80.05405" pt_clust_4="43.96252" pt_clust_5="14000.00000" pt_clust_6="65.97649"></scales>
<clustering>
<clus scale="   43.963">  2  4  1 -1</clus>
<clus scale="   65.976">  2  6  1 -1</clus>
<clus scale="   80.054">  2  3  1 -1</clus>
<clus scale="   80.054">  1  3  2 -1</clus>
</clustering>
</event>
<event>
 6    0  0.1080632E+003  0.2370535E+03  0.7546771E-02  0.1121771E+00
         21   -1    0    0  503  501  0.00000000000E+00  0.00000000000E+00  0.14800860865E+04  0.14800860865E+04  0.00000000000E+00 0.  1.
         21   -1    0    0  506  502 -0.00000000000E+00 -0.00000000000E+00 -0.56817317098E+02  0.56817317098E+02  0.00000000000E+00 0.  1.
         21    1    1    2  503  505  0.20162457606E+03  0.10978617756E+02  0.84046046358E+03  0.86437653286E+03  0.00000000000E+00 0.  1.
         21    1    1    2  504  501 -0.36829884876E+02  0.42959109898E+02  0.15085778723E+03  0.16112106477E+03  0.00000000000E+00 0. -1.
         21    1    1    2  505  502  0.39851209818E+02 -0.54113374645E+02  0.13451757151E+03  0.15037071950E+03  0.00000000000E+00 0. -1.
         21    1    1    2  506  504 -0.20464590100E+03  0.17564699061E+00  0.29743294707E+03  0.36103508645E+03  0.00000000000E+00 0.  1.
<scales pt_clust_3="211.38371" pt_clust_4="56.41745" pt_clust_5="67.20399" pt_clust_6="56.41745"></scales>
<clustering>
<clus scale="   56.417">  4  6 -1 -1</clus>
<clus scale="   67.204">  2  5  1 -1</clus>
<clus scale="  211.384">  1  3  2 -1</clus>
<clus scale="  211.384">  1  3  2 -1</clus>
</clustering>
</event>
<event>
 6    0  0.1080632E+003  0.1556966E+03  0.7546771E-02  0.1193643E+00
         21   -1    0    0  502  501  0.00000000000E+00  0.00000000000E+00  0.20253076781E+03  0.20253076781E+03  0.00000000000E+00 0.  1.
         21   -1    0    0  506  502 -0.00000000000E+00 -0.00000000000E+00 -0.17600037025E+04  0.17600037025E+04  0.00000000000E+00 0.  1.
         21    1    1    2  503  505  0.12244698389E+02  0.15068460634E+03 -0.14127273827E+01  0.15118789312E+03  0.00000000000E+00 0.  1.
         21    1    1    2  504  503  0.64047127904E+01 -0.14586375393E+03 -0.99625163625E+02  0.17675527795E+03  0.00000000000E+00 0.  1.
         21    1    1    2  505  501 -0.12816376028E+02  0.48935805196E+02  0.81382621706E+02  0.95823293830E+02  0.00000000000E+00 0.  1.
         21    1    1    2  506  504 -0.58330351518E+01 -0.53756657611E+02 -0.15378176654E+04  0.15387680054E+04  0.00000000000E+00 0.  1.
<scales pt_clust_3="14000.00000" pt_clust_4="155.69665" pt_clust_5="50.58629" pt_clust_6="53.87511"></scales>
<clustering>
<clus scale="   50.586">  1  5  2 -1</clus>
<clus scale="   53.875">  2  6  1 -1</clus>
<clus scale="  155.697">  2  4  1 -1</clus>
<clus scale="   50.586">  1  3  2 -1</clus>
</clustering>
</event>
<event>
 6    0  0.1080632E+003  0.1998876E+03  0.7546771E-02  0.1149834E+00
         21   -1    0    0  505  501  0.00000000000E+00  0.00000000000E+00  0.41273573712E+03  0.41273573712E+03  0.00000000000E+00 0. -1.
         21   -1    0    0  504  502 -0.00000000000E+00 -0.00000000000E+00 -0.30756742043E+04  0.30756742043E+04  0.00000000000E+00 0.  1.
         21    1    1    2  503  506 -0.15477679722E+03  0.38048663028E+02 -0.93411286558E+02  0.18474097048E+03  0.00000000000E+00 0. -1.
         21    1    1    2  504  501  0.14566834948E+03  0.26014757774E+02 -0.14192215203E+03  0.20503154123E+03  0.00000000000E+00 0. -1.
         21    1    1    2  505  503 -0.19043477410E+03 -0.10940180991E+03  0.29532086092E+03  0.36803338176E+03  0.00000000000E+00 0. -1.
         21    1    1    2  506  502  0.19954322184E+03  0.45338389105E+02 -0.27229258895E+04  0.27306040480E+04  0.00000000000E+00 0.  1.
<scales pt_clust_3="199.88760" pt_clust_4="147.97309" pt_clust_5="107.62882" pt_clust_6="14000.00000"></scales>
<clustering>
<clus scale="  147.973">  1  4  2 -1</clus>
<clus scale="  107.629">  1  5  2 -1</clus>
<clus scale="  199.888">  1  3  2 -1</clus>
<clus scale="  147.973">  1  3  2 -1</clus>
</clustering>
</event>
<event>
 6    0  0.1080632E+003  0.1046382E+03  0.7546771E-02  0.1270834E+00
         21   -1    0    0  504  501  0.00000000000E+00  0.00000000000E+00  0.11843163575E+03  0.11843163575E+03  0.00000000000E+00 0. -1.
         21   -1    0    0  503  502 -0.00000000000E+00 -0.00000000000E+00 -0.41836254470E+03  0.41836254470E+03  0.00000000000E+00 0. -1.
         21    1    1    2  503  506 -0.31986457731E+02  0.25778485748E+02 -0.24679858843E+03  0.25019433858E+03  0.00000000000E+00 0. -1.
         21    1    1    2  504  505 -0.36537826838E+02 -0.12220911067E+02  0.33714779129E+02  0.51196189204E+02  0.00000000000E+00 0. -1.
         21    1    1    2  505  502 -0.51281071816E+02  0.29525252741E+02  0.26598851983E+02  0.64876712331E+02  0.00000000000E+00 0. -1.
         21    1    1    2  506  501  0.11980535638E+03 -0.43082827423E+02 -0.11344595163E+03  0.17052694033E+03  0.00000000000E+00 0. -1.
<scales pt_clust_3="41.08119" pt_clust_4="34.45759" pt_clust_5="34.45759" pt_clust_6="95.52780"></scales>
<clustering>
<clus scale="   34.458">  4  5 -1 -1</clus>
<clus scale="   41.081">  2  3  1 -1</clus>
<clus scale="   95.528">  2  6  1 -1</clus>
<clus scale="  104.638">  1  3  2 -1</clus>
</clustering>
</event>
<event>
 6    0  0.1080632E+003  0.8752654E+02  0.7546771E-02  0.1308955E+00
         21   -1    0    0  503  501  0.00000000000E+00  0.00000000000E+00  0.55913359778E+03  0.55913359778E+03  0.00000000000E+00 0. -1.
         21   -1    0    0  504  502 -0.00000000000E+00 -0.00000000000E+00 -0.38135318476E+02  0.38135318476E+02  0.00000000000E+00 0. -1.
         21    1    1    2  503  505  0.20964843099E+02  0.34100112201E+02  0.83474350741E+02  0.92575966265E+02  0.00000000000E+00 0. -1.
         21    1    1    2  504  506  0.88579702402E+02 -0.94206091568E+01  0.73364226754E+02  0.11540113224E+03  0.00000000000E+00 0. -1.
         21    1    1    2  505  502 -0.84719144479E+02  0.47659285824E+01  0.15585508508E+03  0.17745662868E+03  0.00000000000E+00 0. -1.
         21    1    1    2  506  501 -0.24825401022E+02 -0.29445431627E+02  0.20830461673E+03  0.21183518908E+03  0.00000000000E+00 0. -1.
<scales pt_clust_3="30.45919" pt_clust_4="87.52654" pt_clust_5="14000.00000" pt_clust_6="38.51408"></scales>
<clustering>
<clus scale="   38.514">  1  6  2 -1</clus>
<clus scale="   30.459">  1  3  2 -1</clus>
<clus scale="   87.527">  2  4  1 -1</clus>
<clus scale="   38.514">  1  3  2 -1</clus>
</clustering>
</event>
<event>
 6    0  0.1080632E+003  0.1644744E+03  0.7546771E-02  0.1183736E+00
         21   -1    0    0  504  501  0.00000000000E+00  0.00000000000E+00  0.23245972855E+04  0.23245972855E+04  0.00000000000E+00 0. -1.
         21   -1    0    0  506  502 -0.00000000000E+00 -0.00000000000E+00 -0.66084115057E+03  0.66084115057E+03  0.00000000000E+00 0. -1.
         21    1    1    2  503  501  0.76657568317E+02 -0.75574275584E+02  0.21842299140E+04  0.21868809230E+04  0.00000000000E+00 0. -1.
         21    1    1    2  504  502 -0.60506880795E+02 -0.98375578126E+02  0.67378831877E+02  0.13371142053E+03  0.00000000000E+00 0.  1.
         21    1    1    2  505  503 -0.26441520469E+02  0.23875616458E+03 -0.40885994602E+03  0.47420471907E+03  0.00000000000E+00 0. -1.
         21    1    1    2  506  505  0.10290832947E+02 -0.64806310868E+02 -0.17899266497E+03  0.19064137348E+03  0.00000000000E+00 0.  1.
<scales pt_clust_3="107.79404" pt_clust_4="164.47436" pt_clust_5="14000.00000" pt_clust_6="65.61828"></scales>
<clustering>
<clus scale="   65.618">  2  6  1 -1</clus>
<clus scale="  107.794">  1  3  2 -1</clus>
<clus scale="  164.474">  1  4  2 -1</clus>
<clus scale="  107.794">  1  3  2 -1</clus>
</clustering>
</event>
<event>
 6    0  0.1080632E+003  0.1029670E+03  0.7546771E-02  0.1274178E+00
         21   -1    0    0  504  501  0.00000000000E+00  0.00000000000E+00  0.30242974518E+03  0.30242974518E+03  0.00000000000E+00 0. -1.
         21   -1    0    0  505  502 -0.00000000000E+00 -0.00000000000E+00 -0.11119465229E+04  0.11119465229E+04  0.00000000000E+00 0. -1.
         21    1    1    2  503  501 -0.30815468746E+02  0.88281168409E+01  0.25957724461E+03  0.26154899097E+03  0.00000000000E+00 0. -1.
         21    1    1    2  504  506 -0.82518578893E+02  0.70143343377E+02 -0.10769398721E+03  0.15273309846E+03  0.00000000000E+00 0.  1.
         21    1    1    2  505  503  0.44639405756E+02 -0.93490275996E+02 -0.13234971645E+03  0.16807604141E+03  0.00000000000E+00 0. -1.
         21    1    1    2  506  502  0.68694641882E+02  0.14518815778E+02 -0.82905031870E+03  0.83201813728E+03  0.00000000000E+00 0. -1.
<scales pt_clust_3="32.05509" pt_clust_4="102.96696" pt_clust_5="14000.00000" pt_clust_6="69.21032"></scales>
<clustering>
<clus scale="   32.055">  1  3  2 -1</clus>
<clus scale="   69.210">  2  6  1 -1</clus>
<clus scale="  102.967">  2  4  1 -1</clus>
<clus scale="   32.055">  1  3  2 -1</clus>
</clustering>
</event>
<event>
 6    0  0.1080632E+003  0.4364311E+03  0.7546771E-02  0.1031847E+00
         21   -1    0    0  505  501  0.00000000000E+00  0.00000000000E+00  0.91805081391E+03  0.91805081391E+03  0.00000000000E+00 0. -1.
         21   -1    0    0  504  502 -0.00000000000E+00 -0.00000000000E+00 -0.34060248614E+03  0.34060248614E+03  0.00000000000E+00 0.  1.
         21    1    1    2  503  502  0.77412921587E+01 -0.41391233153E+03  0.52860827269E+03  0.67142389871E+03  0.00000000000E+00 0. -1.
         21    1    1    2  504  506 -0.36966713259E+02  0.72400877561E+02 -0.13383809640E+02  0.82386596733E+02  0.00000000000E+00 0.  1.
         21    1    1    2  505  503  0.59176323394E+02 -0.18636969653E+02  0.12358027824E+03  0.13827964079E+03  0.00000000000E+00 0. -1.
         21    1    1    2  506  501 -0.29950902294E+02  0.36014842363E+03 -0.61356413517E+02  0.36656316382E+03  0.00000000000E+00 0.  1.
<scales pt_clust_3="431.36901" pt_clust_4="31.43490" pt_clust_5="62.04171" pt_clust_6="31.43490"></scales>
<clustering>
<clus scale="   31.435">  4  6 -1 -1</clus>
<clus scale="   62.042">  1  5  2 -1</clus>
<clus scale="  431.369">  1  3  2 -1</clus>
<clus scale="   62.042">  1  3  2 -1</clus>
</clustering>
</event>
<event>
 6    0  0.1080632E+003  0.1038390E+03  0.7546771E-02  0.1272424E+00
         21   -1    0    0  504  501  0.00000000000E+00  0.00000000000E+00  0.69431378367E+03  0.69431378367E+03  0.00000000000E+00 0. -1.
         21   -1    0    0  505  502 -0.00000000000E+00 -0.00000000000E+00 -0.31795018308E+03  0.31795018308E+03  0.00000000000E+00 0.  1.
         21    1    1    2  503  506 -0.89972471904E+02  0.58946140807E+02  0.12730244496E+03  0.16666015034E+03  0.00000000000E+00 0. -1.
         21    1    1    2  504  503  0.34539113156E+02 -0.10235296121E+03  0.50510929750E+03  0.51653120083E+03  0.00000000000E+00 0. -1.
         21    1    1    2  505  501  0.23934520260E+02  0.54222324747E+02  0.10721784103E+02  0.60231872089E+02  0.00000000000E+00 0. -1.
         21    1    1    2  506  502  0.31498838488E+02 -0.10815504340E+02 -0.26676992597E+03  0.26884074350E+03  0.00000000000E+00 0.  1.
<scales pt_clust_3="14000.00000" pt_clust_4="103.83898" pt_clust_5="62.83774" pt_clust_6="33.30393"></scales>
<clustering>
<clus scale="   33.304">  2  6  1 -1</clus>
<clus scale="   62.838">  2  5  1 -1</clus>
<clus scale="  103.839">  1  4  2 -1</clus>
<clus scale="  103.839">  1  3  2 -1</clus>
</clustering>
</event>
<event>
 6    0  0.1080632E+003  0.1180335E+03  0.7546771E-02  0.1246377E+00
         21   -1    0    0  505  501  0.00000000000E+00  0.00000000000E+00  0.37193772617E+03  0.37193772617E+03  0.00000000000E+00 0. -1.
         21   -1    0    0  504  502 -0.00000000000E+00 -0.00000000000E+00 -0.42322234320E+03  0.42322234320E+03  0.00000000000E+00 0. -1.
         21    1    1    2  503  501  0.34765254335E+02  0.45372939080E+02  0.27678399803E+03  0.28262467705E+03  0.00000000000E+00 0. -1.
         21    1    1    2  504  506 -0.21796556299E+02 -0.81312050637E+02 -0.27872626172E+03  0.29116158472E+03  0.00000000000E+00 0. -1.
         21    1    1    2  505  502 -0.81199176757E+02 -0.19902231569E+02 -0.91245610871E+02  0.12375446105E+03  0.00000000000E+00 0. -1.
         21    1    1    2  506  503  0.68230478722E+02  0.55841343126E+02  0.41903257530E+02  0.97619346547E+02  0.00000000000E+00 0. -1.
<scales pt_clust_3="57.16053" pt_clust_4="118.03354" pt_clust_5="76.01070" pt_clust_6="14000.00000"></scales>
<clustering>
<clus scale="   57.161">  1  3  2 -1</clus>
<clus scale="   76.011">  2  5  1 -1</clus>
<clus scale="  118.034">  2  4  1 -1</clus>
<clus scale="   57.161">  1  3  2 -1</clus>
</clustering>
</event>
<event>
 6    0  0.1080632E+003  0.1201615E+03  0.7546771E-02  0.1242831E+00
         21   -1    0    0  503  501  0.00000000000E+00  0.00000000000E+00  0.70119727238E+02  0.70119727238E+02  0.00000000000E+00 0.  1.
         21   -1    0    0  504  502 -0.00000000000E+00 -0.00000000000E+00 -0.50179263119E+03  0.50179263119E+03  0.00000000000E+00 0. -1.
         21    1    1    2  503  506 -0.71879312074E+02 -0.74755665496E+02 -0.88672869861E+01  0.10408493554E+03  0.00000000000E+00 0. -1.
         21    1    1    2  504  505  0.49404023679E+02  0.19536441293E+02 -0.23767138150E+03  0.24353668241E+03  0.00000000000E+00 0.  1.
         21    1    1    2  505  501  0.66810187822E+02  0.22045331399E+02 -0.11662630240E+03  0.13620312862E+03  0.00000000000E+00 0.  1.
         21    1    1    2  506  502 -0.44334899427E+02  0.33173892804E+02 -0.68507933066E+02  0.88087611864E+02  0.00000000000E+00 0. -1.
<scales pt_clust_3="104.87180" pt_clust_4="50.97251" pt_clust_5="50.97251" pt_clust_6="55.37229"></scales>
<clustering>
<clus scale="   50.973">  4  5 -1 -1</clus>
<clus scale="   55.372">  2  6  1 -1</clus>
<clus scale="  104.872">  1  3  2 -1</clus>
<clus scale="  104.872">  1  3  2 -1</clus>
</clustering>
</event>
<event>
 6    0  0.1080632E+003  0.8241883E+02  0.7546771E-02  0.1322324E+00
         21   -1    0    0  506  501  0.00000000000E+00  0.00000000000E+00  0.13877704043E+04  0.13877704043E+04  0.00000000000E+00 0.  1.
         21   -1    0    0  501  502 -0.00000000000E+00 -0.00000000000E+00 -0.47233779144E+02  0.47233779144E+02  0.00000000000E+00 0.  1.
         21    1    1    2  503  504  0.62944736894E+02  0.41360397410E+02  0.22333676036E+03  0.23569478336E+03  0.00000000000E+00 0.  1.
         21    1    1    2  504  505  0.39478407667E+02 -0.67436541304E+02  0.15399666321E+03  0.17268816999E+03  0.00000000000E+00 0.  1.
         21    1    1    2  505  502 -0.63131917697E+02  0.56813585994E+02  0.27043696721E+02  0.89133518487E+02  0.00000000000E+00 0.  1.
         21    1    1    2  506  503 -0.39291226864E+02 -0.30737442100E+02  0.93615950490E+03  0.93748771163E+03  0.00000000000E+00 0.  1.
<scales pt_clust_3="50.05754" pt_clust_4="82.41883" pt_clust_5="14000.00000" pt_clust_6="49.88578"></scales>
<clustering>
<clus scale="   49.886">  1  6  2 -1</clus>
<clus scale="   50.058">  1  3  2 -1</clus>
<clus scale="   82.419">  1  4  2 -1</clus>
<clus scale="   49.886">  1  3  2 -1</clus>
</clustering>
</event>
<event>
 6    0  0.1080632E+003  0.1031394E+03  0.7546771E-02  0.1273829E+00
         21   -1    0    0  506  501  0.00000000000E+00  0.00000000000E+00  0.47735475977E+03  0.47735475977E+03  0.00000000000E+00 0. -1.
         21   -1    0    0  504  502 -0.00000000000E+00 -0.00000000000E+00 -0.14456114604E+03  0.14456114604E+03  0.00000000000E+00 0. -1.
         21    1    1    2  503  502  0.14939174927E+02  0.28059207952E+02 -0.31665343359E+02  0.44868608943E+02  0.00000000000E+00 0. -1.
         21    1    1    2  504  501  0.38370759182E+02  0.25751512518E+02  0.33545864602E+03  0.33862657714E+03  0.00000000000E+00 0. -1.
         21    1    1    2  505  503  0.35215069972E+02 -0.11277348209E+03 -0.22463835492E+02  0.12026048113E+03  0.00000000000E+00 0. -1.
         21    1    1    2  506  505 -0.88525004081E+02  0.58962761622E+02  0.51464146558E+02  0.11816023860E+03  0.00000000000E+00 0. -1.
<scales pt_clust_3="31.78833" pt_clust_4="46.62938" pt_clust_5="14000.00000" pt_clust_6="103.13944"></scales>
<clustering>
<clus scale="   31.788">  2  3  1 -1</clus>
<clus scale="   46.629">  1  4  2 -1</clus>
<clus scale="  103.139">  1  6  2 -1</clus>
<clus scale="   46.629">  1  3  2 -1</clus>
</clustering>
</event>
<event>
 6    0  0.1080632E+003  0.9486390E+02  0.7546771E-02  0.1291483E+00
         21   -1    0    0  503  501  0.00000000000E+00  0.00000000000E+00  0.17775644546E+03  0.17775644546E+03  0.00000000000E+00 0. -1.
         21   -1    0    0  506  502 -0.00000000000E+00 -0.00000000000E+00 -0.19049344975E+04  0.19049344975E+04  0.00000000000E+00 0. -1.
         21    1    1    2  503  502  0.14025080323E+03 -0.63617395422E+01  0.44879633115E+02  0.14739382961E+03  0.00000000000E+00 0. -1.
         21    1    1    2  504  505 -0.17023766445E+02 -0.41832245720E+02 -0.49954952511E+02  0.67344210488E+02  0.00000000000E+00 0. -1.
         21    1    1    2  505  501 -0.35380736101E+02  0.13715358069E+02  0.66659359643E+02  0.76703179608E+02  0.00000000000E+00 0. -1.
         21    1    1    2  506  504 -0.87846300687E+02  0.34478627193E+02 -0.17887620923E+04  0.17912497232E+04  0.00000000000E+00 0. -1.
<scales pt_clust_3="94.86390" pt_clust_4="45.32221" pt_clust_5="37.94611" pt_clust_6="14000.00000"></scales>
<clustering>
<clus scale="   37.946">  1  5  2 -1</clus>
<clus scale="   45.322">  1  4  2 -1</clus>
<clus scale="   94.864">  1  3  2 -1</clus>
<clus scale="   37.946">  1  3  2 -1</clus>
</clustering>
</event>
<event>
 6    0  0.1080632E+003  0.1652184E+03  0.7546771E-02  0.1182928E+00
         21   -1    0    0  506  501  0.00000000000E+00  0.00000000000E+00  0.78080770390E+03  0.78080770390E+03  0.00000000000E+00 0. -1.
         21   -1    0    0  504  502 -0.00000000000E+00 -0.00000000000E+00 -0.37941796223E+03  0.37941796223E+03  0.00000000000E+00 0. -1.
         21    1    1    2  503  501  0.14905145233E+03 -0.23006884699E+02  0.70932282734E+03  0.72517896107E+03  0.00000000000E+00 0. -1.
         21    1    1    2  504  503 -0.45093214837E+02 -0.11180412765E+03 -0.93024304602E+02  0.15227305156E+03  0.00000000000E+00 0. -1.
         21    1    1    2  505  502 -0.52258951960E+02  0.75773454718E+02 -0.16740251166E+03  0.19103982676E+03  0.00000000000E+00 0. -1.
         21    1    1    2  506  505 -0.51699285531E+02  0.59037557630E+02 -0.47506269421E+02  0.91733826746E+02  0.00000000000E+00 0. -1.
<scales pt_clust_3="150.01100" pt_clust_4="120.55522" pt_clust_5="63.92950" pt_clust_6="63.92950"></scales>
<clustering>
<clus scale="   63.929">  5  6 -1 -1</clus>
<clus scale="  120.555">  2  4  1 -1</clus>
<clus scale="  150.011">  1  3  2 -1</clus>
<clus scale="  150.011">  1  3  2 -1</clus>
</clustering>
</event>
<event>
 6    0  0.1080632E+003  0.7250271E+02  0.7546771E-02  0.1351783E+00
         21   -1    0    0  506  501  0.00000000000E+00  0.00000000000E+00  0.52166360831E+02  0.52166360831E+02  0.00000000000E+00 0. -1.
         21   -1    0    0  504  502 -0.00000000000E+00 -0.00000000000E+00 -0.94302888721E+03  0.94302888721E+03  0.00000000000E+00 0. -1.
         21    1    1    2  503  502 -0.96233027620E+02  0.34642564098E+01 -0.21449552743E+03  0.23511939087E+03  0.00000000000E+00 0. -1.
         21    1    1    2  504  505  0.64197023309E+02  0.26351908527E+02 -0.63308647140E+03  0.63687845085E+03  0.00000000000E+00 0. -1.
         21    1    1    2  505  501  0.43488143036E+02 -0.59400604153E+02 -0.54410014797E+01  0.73819068374E+02  0.00000000000E+00 0. -1.
         21    1    1    2  506  503 -0.11452138724E+02  0.29584439217E+02 -0.37839526076E+02  0.49378337951E+02  0.00000000000E+00 0. -1.
<scales pt_clust_3="72.50271" pt_clust_4="14000.00000" pt_clust_5="51.40274" pt_clust_6="31.72366"></scales>
<clustering>
<clus scale="   31.724">  1  6  2 -1</clus>
<clus scale="   51.403">  1  5  2 -1</clus>
<clus scale="   72.503">  1  3  2 -1</clus>
<clus scale="   31.724">  1  3  2 -1</clus>
</clustering>
</event>
<event>
 6    0  0.1080632E+003  0.1265702E+03  0.7546771E-02  0.1232636E+00
         21   -1    0    0  504  501  0.00000000000E+00  0.00000000000E+00  0.72486047883E+02  0.72486047883E+02  0.00000000000E+00 0.  1.
         21   -1    0    0  503  502 -0.00000000000E+00 -0.00000000000E+00 -0.65406228892E+03  0.65406228892E+03  0.00000000000E+00 0. -1.
         21    1    1    2  503  505  0.13897703180E+02 -0.11543241572E+03 -0.55365428082E+03  0.56573036989E+03  0.00000000000E+00 0. -1.
         21    1    1    2  504  502  0.30135251636E+02  0.23782490554E+02 -0.24472439856E+02  0.45526262318E+02  0.00000000000E+00 0. -1.
         21    1    1    2  505  506  0.88860130691E+00  0.60067181542E+02  0.20160491399E+01  0.60107573274E+02  0.00000000000E+00 0.  1.
         21    1    1    2  506  501 -0.44921556123E+02  0.31582743625E+02 -0.54655695045E+01  0.55184131319E+02  0.00000000000E+00 0.  1.
<scales pt_clust_3="114.36061" pt_clust_4="38.38932" pt_clust_5="45.81555" pt_clust_6="45.81555"></scales>
<clustering>
<clus scale="   38.389">  1  4  2 -1</clus>
<clus scale="   45.816">  5  6 -1 -1</clus>
<clus scale="  114.361">  2  3  1 -1</clus>
<clus scale="   38.389">  1  3  2 -1</clus>
</clustering>
</event>
<event>
 6    0  0.1080632E+003  0.8121786E+02  0.7546771E-02  0.1325630E+00
         21   -1    0    0  503  501  0.00000000000E+00  0.00000000000E+00  0.12883203688E+03  0.12883203688E+03  0.00000000000E+00 0. -1.
         21   -1    0    0  506  502 -0.00000000000E+00 -0.00000000000E+00 -0.64174029233E+03  0.64174029233E+03  0.00000000000E+00 0. -1.
         21    1    1    2  503  504  0.13161958265E+02 -0.29772661215E+02  0.98741624694E+02  0.10396901918E+03  0.00000000000E+00 0. -1.
         21    1    1    2  504  505 -0.56853570897E+02  0.85103600746E+02 -0.13451445425E+03  0.16902393258E+03  0.00000000000E+00 0. -1.
         21    1    1    2  505  502  0.41664335364E+02  0.23686721252E+02 -0.29731493518E+03  0.30115303134E+03  0.00000000000E+00 0. -1.
         21    1    1    2  506  501  0.20272772681E+01 -0.79017660783E+02 -0.17982049072E+03  0.19642634612E+03  0.00000000000E+00 0. -1.
<scales pt_clust_3="32.55224" pt_clust_4="14000.00000" pt_clust_5="47.75185" pt_clust_6="81.21786"></scales>
<clustering>
<clus scale="   32.552">  1  3  2 -1</clus>
<clus scale="   47.752">  2  5  1 -1</clus>
<clus scale="   81.218">  2  6  1 -1</clus>
<clus scale="   32.552">  1  3  2 -1</clus>
</clustering>
</event>
<event>
 6    0  0.1080632E+003  0.7078282E+02  0.7546771E-02  0.1357451E+00
         21   -1    0    0  506  501  0.00000000000E+00  0.00000000000E+00  0.11002274132E+04  0.11002274132E+04  0.00000000000E+00 0. -1.
         21   -1    0    0  503  502 -0.00000000000E+00 -0.00000000000E+00 -0.26099285572E+03  0.26099285572E+03  0.00000000000E+00 0. -1.
         21    1    1    2  503  501  0.16723780699E+02 -0.80125319961E+02  0.47694598493E+03  0.48391861328E+03  0.00000000000E+00 0. -1.
         21    1    1    2  504  502 -0.34523144682E+02 -0.29651690849E+02 -0.24201849956E+03  0.24626007476E+03  0.00000000000E+00 0. -1.
         21    1    1    2  505  504  0.50010540879E+02  0.52911023941E+02  0.10676909671E+03  0.12922952707E+03  0.00000000000E+00 0. -1.
         21    1    1    2  506  505 -0.32211176896E+02  0.56865986869E+02  0.49753797539E+03  0.50181205380E+03  0.00000000000E+00 0. -1.
<scales pt_clust_3="70.78282" pt_clust_4="45.50901" pt_clust_5="42.76048" pt_clust_6="14000.00000"></scales>
<clustering>
<clus scale="   45.509">  2  4  1 -1</clus>
<clus scale="   42.760">  2  5  1 -1</clus>
<clus scale="   70.783">  2  3  1 -1</clus>
<clus scale="   70.783">  1  3  2 -1</clus>
</clustering>
</event>
<event>
 6    0  0.1080632E+003  0.1640380E+03  0.7546771E-02  0.1184212E+00
         21   -1    0    0  505  501  0.00000000000E+00  0.00000000000E+00  0.69268769558E+02  0.69268769558E+02  0.00000000000E+00 0.  1.
         21   -1    0    0  501  502 -0.00000000000E+00 -0.00000000000E+00 -0.10738815128E+04  0.10738815128E+04  0.00000000000E+00 0.  1.
         21    1    1    2  503  504  0.12396626243E+03 -0.30210646876E+02 -0.20739469776E+03  0.24350128965E+03  0.00000000000E+00 0.  1.
         21    1    1    2  504  506 -0.18644962866E+03  0.10763482441E+03 -0.35549496108E+03  0.41560243840E+03  0.00000000000E+00 0.  1.
         21    1    1    2  505  503  0.29474502535E+02 -0.35811090019E+02 -0.79787018073E+01  0.47062088252E+02  0.00000000000E+00 0.  1.
         21    1    1    2  506  502  0.33008863693E+02 -0.41613087510E+02 -0.43374438256E+03  0.43698446601E+03  0.00000000000E+00 0.  1.
<scales pt_clust_3="164.03798" pt_clust_4="14000.00000" pt_clust_5="46.38082" pt_clust_6="54.62608"></scales>
<clustering>
<clus scale="   46.381">  1  5  2 -1</clus>
<clus scale="   54.626">  2  6  1 -1</clus>
<clus scale="  164.038">  1  3  2 -1</clus>
<clus scale="   46.381">  1  3  2 -1</clus>
</clustering>
</event>
<event>
 6    0  0.1080632E+003  0.1959936E+03  0.7546771E-02  0.1153164E+00
         21   -1    0    0  504  501  0.00000000000E+00  0.00000000000E+00  0.50488157843E+03  0.50488157843E+03  0.00000000000E+00 0. -1.
         21   -1    0    0  506  502 -0.00000000000E+00 -0.00000000000E+00 -0.34113393614E+03  0.34113393614E+03  0.00000000000E+00 0. -1.
         21    1    1    2  503  501  0.93724923428E+02  0.77346437526E+02  0.37524007700E+03  0.39442609962E+03  0.00000000000E+00 0. -1.
         21    1    1    2  504  505 -0.46030902566E+02  0.19495585298E+02 -0.89618998544E+01  0.50786193854E+02  0.00000000000E+00 0. -1.
         21    1    1    2  505  502 -0.45056715082E+02  0.12008169789E+03 -0.63284453843E+02  0.14301973235E+03  0.00000000000E+00 0. -1.
         21    1    1    2  506  503 -0.26373057802E+01 -0.21692372072E+03 -0.13924608101E+03  0.25778348874E+03  0.00000000000E+00 0. -1.
<scales pt_clust_3="121.51886" pt_clust_4="42.16932" pt_clust_5="42.16932" pt_clust_6="183.98657"></scales>
<clustering>
<clus scale="   42.169">  4  5 -1 -1</clus>
<clus scale="  121.519">  1  3  2 -1</clus>
<clus scale="  183.987">  1  6  2 -1</clus>
<clus scale="  121.519">  1  3  2 -1</clus>
</clustering>
</event>
<event>
 6    0  0.1080632E+003  0.1193387E+03  0.7546771E-02  0.1244192E+00
         21   -1    0    0  503  501  0.00000000000E+00  0.00000000000E+00  0.10509699620E+03  0.10509699620E+03  0.00000000000E+00 0.  1.
         21   -1    0    0  504  502 -0.00000000000E+00 -0.00000000000E+00 -0.46275258312E+03  0.46275258312E+03  0.00000000000E+00 0.  1.
         21    1    1    2  503  506  0.14570841655E+03  0.83769602918E+02 -0.12636753647E+03  0.21027848987E+03  0.00000000000E+00 0.  1.
         21    1    1    2  504  505 -0.27952133449E+02  0.13826963090E+02 -0.63961787474E+02  0.71159095902E+02  0.00000000000E+00 0.  1.
         21    1    1    2  505  501 -0.10464070367E+03 -0.14373311933E+02 -0.76841972644E+01  0.10590238830E+03  0.00000000000E+00 0.  1.
         21    1    1    2  506  502 -0.13115579427E+02 -0.83223254075E+02 -0.15964206571E+03  0.18050960525E+03  0.00000000000E+00 0.  1.
<scales pt_clust_3="119.33869" pt_clust_4="31.18504" pt_clust_5="14000.00000" pt_clust_6="81.26094"></scales>
<clustering>
<clus scale="   31.185">  2  4  1 -1</clus>
<clus scale="   81.261">  2  6  1 -1</clus>
<clus scale="  119.339">  2  3  1 -1</clus>
<clus scale="  119.339">  1  3  2 -1</clus>
</clustering>
</event>
<event>
 6    0  0.1080632E+003  0.7984612E+02  0.7546771E-02  0.1329489E+00
         21   -1    0    0  505  501  0.00000000000E+00  0.00000000000E+00  0.80013357924E+02  0.80013357924E+02  0.00000000000E+00 0.  1.
         21   -1    0    0  504  502 -0.00000000000E+00 -0.00000000000E+00 -0.33581468450E+03  0.33581468450E+03  0.00000000000E+00 0.  1.
         21    1    1    2  503  506  0.72594644848E+02  0.90064451861E+02 -0.96895675038E+02  0.15089850825E+03  0.00000000000E+00 0.  1.
         21    1    1    2  504  503  0.93334364497E+01 -0.50648559721E+02 -0.14650192169E+03  0.15529070383E+03  0.00000000000E+00 0.  1.
         21    1    1    2  505  502 -0.54161864983E+02  0.48728189751E+01 -0.17477801890E+02  0.57120272602E+02  0.00000000000E+00 0.  1.
         21    1    1    2  506  501 -0.27766216314E+02 -0.44288711115E+02  0.50740720398E+01  0.52518557746E+02  0.00000000000E+00 0.  1.
<scales pt_clust_3="79.84612" pt_clust_4="51.50136" pt_clust_5="52.55161" pt_clust_6="14000.00000"></scales>
<clustering>
<clus scale="   51.501">  2  4  1 -1</clus>
<clus scale="   52.552">  1  5  2 -1</clus>
<clus scale="   79.846">  2  3  1 -1</clus>
<clus scale="   52.552">  1  3  2 -1</clus>
</clustering>
</event>
<event>
 6    0  0.1080632E+003  0.9175402E+02  0.7546771E-02  0.1298659E+00
         21   -1    0    0  503  501  0.00000000000E+00  0.00000000000E+00  0.29229269242E+03  0.29229269242E+03  0.00000000000E+00 0.  1.
         21   -1    0    0  506  502 -0.00000000000E+00 -0.00000000000E+00 -0.97546251263E+03  0.97546251263E+03  0.00000000000E+00 0. -1.
         21    1    1    2  503  504  0.13460160979E+01  0.38657623711E+02  0.33183197345E+02  0.50964185625E+02  0.00000000000E+00 0.  1.
         21    1    1    2  504  502 -0.14206691232E+02  0.34277778470E+02  0.82675639260E+02  0.90620403330E+02  0.00000000000E+00 0.  1.
         21    1    1    2  505  501  0.86215584916E+02 -0.78167032079E+02  0.14125263339E+03  0.18301780904E+03  0.00000000000E+00 0.  1.
         21    1    1    2  506  505 -0.73354909781E+02  0.52316298977E+01 -0.94028129020E+03  0.94315280705E+03  0.00000000000E+00 0. -1.
<scales pt_clust_3="33.03931" pt_clust_4="33.03931" pt_clust_5="85.32786" pt_clust_6="73.54123"></scales>
<clustering>
<clus scale="   33.039">  3  4 -1 -1</clus>
<clus scale="   73.541">  2  6  1 -1</clus>
<clus scale="   85.328">  2  5  1 -1</clus>
<clus scale="   91.754">  1  3  2 -1</clus>
</clustering>
</event>
<event>
 6    0  0.1080632E+003  0.1339912E+03  0.7546771E-02  0.1221651E+00
         21   -1    0    0  504  501  0.00000000000E+00  0.00000000000E+00  0.11955289630E+04  0.11955289630E+04  0.00000000000E+00 0. -1.
         21   -1    0    0  505  502 -0.00000000000E+00 -0.00000000000E+00 -0.10131215058E+03  0.10131215058E+03  0.00000000000E+00 0.  1.
         21    1    1    2  503  502 -0.98369834927E+02  0.93640539229E+02 -0.11083287899E+02  0.13626450118E+03  0.00000000000E+00 0.  1.
         21    1    1    2  504  503  0.11864560832E+01 -0.30755740229E+02  0.99842456864E+03  0.99889886500E+03  0.00000000000E+00 0. -1.
         21    1    1    2  505  506  0.46421789969E+02 -0.50956542866E+02  0.55792705522E+02  0.88681327428E+02  0.00000000000E+00 0. -1.
         21    1    1    2  506  501  0.50761588875E+02 -0.11928256134E+02  0.51082826105E+02  0.72996419929E+02  0.00000000000E+00 0.  1.
<scales pt_clust_3="128.97843" pt_clust_4="30.77862" pt_clust_5="30.64921" pt_clust_6="30.64921"></scales>
<clustering>
<clus scale="   30.779">  1  4  2 -1</clus>
<clus scale="   30.649">  5  6 -1 -1</clus>
<clus scale="  128.978">  2  3  1 -1</clus>
<clus scale="   30.779">  1  3  2 -1</clus>
</clustering>
</event>
<event>
 6    0  0.1080632E+003  0.1543008E+03  0.7546771E-02  0.1195286E+00
         21   -1    0    0  504  501  0.00000000000E+00  0.00000000000E+00  0.11212522728E+03  0.11212522728E+03  0.00000000000E+00 0.  1.
         21   -1    0    0  503  502 -0.00000000000E+00 -0.00000000000E+00 -0.41899937485E+03  0.41899937485E+03  0.00000000000E+00 0.  1.
         21    1    1    2  503  505  0.26249332459E+02  0.39704484707E+02 -0.87319456297E+02  0.99449288627E+02  0.00000000000E+00 0.  1.
         21    1    1    2  504  506 -0.12278047521E+03  0.10296092140E+03 -0.66155885162E+02  0.17335685037E+03  0.00000000000E+00 0.  1.
         21    1    1    2  505  501  0.11799561308E+03 -0.87108696569E+02 -0.12318354404E+03  0.19153348336E+03  0.00000000000E+00 0.  1.
         21    1    1    2  506  502 -0.21464470335E+02 -0.55556709538E+02 -0.30215262065E+02  0.66784979772E+02  0.00000000000E+00 0. -1.
<scales pt_clust_3="47.59699" pt_clust_4="154.30082" pt_clust_5="14000.00000" pt_clust_6="52.65519"></scales>
<clustering>
<clus scale="   47.597">  2  3  1 -1</clus>
<clus scale="   52.655">  2  6  1 -1</clus>
<clus scale="  154.301">  1  4  2 -1</clus>
<clus scale="  154.301">  1  3  2 -1</clus>
</clustering>
</event>
<event>
 6    0  0.1080632E+003  0.1558723E+03  0.7546771E-02  0.1193437E+00
         21   -1    0    0  506  501  0.00000000000E+00  0.00000000000E+00  0.98483249884E+03  0.98483249884E+03  0.00000000000E+00 0.  1.
         21   -1    0    0  505  502 -0.00000000000E+00 -0.00000000000E+00 -0.62930860029E+03  0.62930860029E+03  0.00000000000E+00 0.  1.
         21    1    1    2  503  501  0.20036191958E+02 -0.47227166698E+02  0.22168086864E+03  0.22753958289E+03  0.00000000000E+00 0.  1.
         21    1    1    2  504  503  0.63493260232E+02  0.33665558893E+02  0.72201137012E+02  0.10187133128E+03  0.00000000000E+00 0. -1.
         21    1    1    2  505  504 -0.12611422654E+03 -0.93106052468E+02 -0.59644236488E+03  0.61669849178E+03  0.00000000000E+00 0.  1.
         21    1    1    2  506  502  0.42584774355E+02  0.10666766027E+03  0.65808425778E+03  0.66803169318E+03  0.00000000000E+00 0.  1.
<scales pt_clust_3="51.30160" pt_clust_4="71.59958" pt_clust_5="155.87230" pt_clust_6="14000.00000"></scales>
<clustering>
<clus scale="   51.302">  1  3  2 -1</clus>
<clus scale="   71.600">  1  4  2 -1</clus>
<clus scale="  155.872">  2  5  1 -1</clus>
<clus scale="   51.302">  1  3  2 -1</clus>
</clustering>
</event>
<event>
 6    0  0.1080632E+003  0.8369432E+02  0.7546771E-02  0.1318883E+00
         21   -1    0    0  503  501  0.00000000000E+00  0.00000000000E+00  0.22944823234E+03  0.22944823234E+03  0.00000000000E+00 0. -1.
         21   -1    0    0  505  502 -0.00000000000E+00 -0.00000000000E+00 -0.77358875430E+03  0.77358875430E+03  0.00000000000E+00 0. -1.
         21    1    1    2  503  506  0.22877171084E+02 -0.33359361564E+02  0.70078020923E+02  0.80914405252E+02  0.00000000000E+00 0. -1.
         21    1    1    2  504  501 -0.57957993895E+02  0.52098606466E+02  0.10919657249E+03  0.13415396116E+03  0.00000000000E+00 0. -1.
         21    1    1    2  505  504 -0.91644107137E+01  0.55446926573E+02  0.31495589115E+01  0.56287368134E+02  0.00000000000E+00 0. -1.
         21    1    1    2  506  502  0.44245233524E+02 -0.74186171475E+02 -0.72656467429E+03  0.73168125209E+03  0.00000000000E+00 0. -1.
<scales pt_clust_3="40.45012" pt_clust_4="47.45927" pt_clust_5="83.69432" pt_clust_6="14000.00000"></scales>
<clustering>
<clus scale="   40.450">  1  3  2 -1</clus>
<clus scale="   47.459">  1  4  2 -1</clus>
<clus scale="   83.694">  1  5  2 -1</clus>
<clus scale="   40.450">  1  3  2 -1</clus>
</clustering>
</event>
<event>
 6    0  0.1080632E+003  0.7169884E+02  0.7546771E-02  0.1354410E+00
         21   -1    0    0  503  501  0.00000000000E+00  0.00000000000E+00  0.15836240322E+03  0.15836240322E+03  0.00000000000E+00 0. -1.
         21   -1    0    0  506  502 -0.00000000000E+00 -0.00000000000E+00 -0.20758706779E+03  0.20758706779E+03  0.00000000000E+00 0. -1.
         21    1    1    2  503  504 -0.13316068820E+02  0.42698388622E+02  0.99674873024E+02  0.10924994459E+03  0.00000000000E+00 0. -1.
         21    1    1    2  504  505 -0.26336621849E+01  0.71237583056E+02 -0.43728082745E+02  0.83629388594E+02  0.00000000000E+00 0.  1.
         21    1    1    2  505  502 -0.29900768676E+02 -0.42280977930E+02 -0.47709025272E+02  0.70412272755E+02  0.00000000000E+00 0. -1.
         21    1    1    2  506  501  0.45850499681E+02 -0.71654993747E+02 -0.57462429575E+02  0.10265786508E+03  0.00000000000E+00 0. -1.
<scales pt_clust_3="44.72661" pt_clust_4="14000.00000" pt_clust_5="46.66640" pt_clust_6="71.69884"></scales>
<clustering>
<clus scale="   44.727">  1  3  2 -1</clus>
<clus scale="   46.666">  2  5  1 -1</clus>
<clus scale="   71.699">  1  6  2 -1</clus>
<clus scale="   44.727">  1  3  2 -1</clus>
</clustering>
</event>
<event>
 6    0  0.1080632E+003  0.8814995E+02  0.7546771E-02  0.1307395E+00
         21   -1    0    0  504  501  0.00000000000E+00  0.00000000000E+00  0.15859286216E+03  0.15859286216E+03  0.00000000000E+00 0. -1.
         21   -1    0    0  505  502 -0.00000000000E+00 -0.00000000000E+00 -0.59806460274E+03  0.59806460274E+03  0.00000000000E+00 0. -1.
         21    1    1    2  503  502 -0.29191526270E+02 -0.14324804657E+02 -0.42352044909E+03  0.42476689611E+03  0.00000000000E+00 0. -1.
         21    1    1    2  504  503  0.32821637930E+02 -0.10448253444E+03 -0.16681535701E+02  0.11077966218E+03  0.00000000000E+00 0. -1.
         21    1    1    2  505  506 -0.32177221802E+01  0.86250337618E+02 -0.90010707247E+02  0.12470526009E+03  0.00000000000E+00 0. -1.
         21    1    1    2  506  501 -0.41238948044E+00  0.32557001481E+02  0.90740951451E+02  0.96405646519E+02  0.00000000000E+00 0. -1.
<scales pt_clust_3="32.51685" pt_clust_4="14000.00000" pt_clust_5="88.14995" pt_clust_6="32.33591"></scales>
<clustering>
<clus scale="   32.517">  2  3  1 -1</clus>
<clus scale="   32.336">  1  6  2 -1</clus>
<clus scale="   88.150">  2  5  1 -1</clus>
<clus scale="   32.336">  1  3  2 -1</clus>
</clustering>
</event>
<event>
 6    0  0.1080632E+003  0.1472987E+03  0.7546771E-02  0.1203832E+00
         21   -1    0    0  506  501  0.00000000000E+00  0.00000000000E+00  0.34479657091E+03  0.34479657091E+03  0.00000000000E+00 0.  1.
         21   -1    0    0  504  502 -0.00000000000E+00 -0.00000000000E+00 -0.21733315152E+04  0.21733315152E+04  0.00000000000E+00 0.  1.
         21    1    1    2  503  502  0.22247963082E+01  0.62150730288E+02 -0.18076999910E+04  0.18087694492E+04  0.00000000000E+00 0.  1.
         21    1    1    2  504  505  0.23041751865E+03  0.62620322167E+02 -0.22251860714E+03  0.32638637866E+03  0.00000000000E+00 0.  1.
         21    1    1    2  505  501 -0.13132642112E+03 -0.49631255755E+02  0.21431324156E+03  0.25620315365E+03  0.00000000000E+00 0.  1.
         21    1    1    2  506  503 -0.10131589384E+03 -0.75139796700E+02 -0.12629587731E+02  0.12676910459E+03  0.00000000000E+00 0. -1.
<scales pt_clust_3="62.19054" pt_clust_4="14000.00000" pt_clust_5="147.29874" pt_clust_6="119.09127"></scales>
<clustering>
<clus scale="   62.191">  2  3  1 -1</clus>
<clus scale="  119.091">  2  6  1 -1</clus>
<clus scale="  147.299">  1  5  2 -1</clus>
<clus scale="  147.299">  1  3  2 -1</clus>
</clustering>
</event>
<event>
 6    0  0.1080632E+003  0.1469968E+03  0.7546771E-02  0.1204213E+00
         21   -1    0    0  505  501  0.00000000000E+00  0.00000000000E+00  0.89505326307E+03  0.89505326307E+03  0.00000000000E+00 0. -1.
         21   -1    0    0  503  502 -0.00000000000E+00 -0.00000000000E+00 -0.32994626760E+02  0.32994626760E+02  0.00000000000E+00 0. -1.
         21    1    1    2  503  501 -0.14272466235E+03  0.50021901126E+02  0.45056930508E+03  0.47527383529E+03  0.00000000000E+00 0. -1.
         21    1    1    2  504  506  0.55732586419E+02 -0.55542407780E+02  0.18624600276E+03  0.20218470218E+03  0.00000000000E+00 0. -1.
         21    1    1    2  505  504  0.55192969552E+02 -0.90694912968E+01  0.19939115361E+03  0.20708778742E+03  0.00000000000E+00 0. -1.
         21    1    1    2  506  502  0.31799106379E+02  0.14589997950E+02  0.25852174852E+02  0.43501564929E+02  0.00000000000E+00 0. -1.
<scales pt_clust_3="138.92185" pt_clust_4="40.96524" pt_clust_5="40.96524" pt_clust_6="34.98644"></scales>
<clustering>
<clus scale="   34.986">  2  6  1 -1</clus>
<clus scale="   40.965">  4  5 -1 -1</clus>
<clus scale="  138.922">  2  3  1 -1</clus>
<clus scale="  146.997">  1  3  2 -1</clus>
</clustering>
</event>
<event>
 6    0  0.1080632E+003  0.1029976E+03  0.7546771E-02  0.1274116E+00
         21   -1    0    0  506  501  0.00000000000E+00  0.00000000000E+00  0.46602495865E+03  0.46602495865E+03  0.00000000000E+00 0.  1.
         21   -1    0    0  503  502 -0.00000000000E+00 -0.00000000000E+00 -0.80526161976E+02  0.80526161976E+02  0.00000000000E+00 0.  1.
         21    1    1    2  503  504 -0.31130963692E+02  0.35943735264E+02 -0.26888063362E+01  0.47626869356E+02  0.00000000000E+00 0.  1.
         21    1    1    2  504  501 -0.91141732737E+02  0.43804951101E+02  0.27724904468E+03  0.29511476067E+03  0.00000000000E+00 0.  1.
         21    1    1    2  505  502  0.32023875958E+02 -0.20618949509E+02 -0.12290230870E+02  0.40021487792E+02  0.00000000000E+00 0.  1.
         21    1    1    2  506  505  0.90248820470E+02 -0.59129736857E+02  0.12322878920E+03  0.16378800281E+03  0.00000000000E+00 0.  1.
<scales pt_clust_3="31.03611" pt_clust_4="14000.00000" pt_clust_5="38.08766" pt_clust_6="102.99760"></scales>
<clustering>
<clus scale="   38.088">  2  5  1 -1</clus>
<clus scale="   31.036">  2  3  1 -1</clus>
<clus scale="  102.998">  2  6  1 -1</clus>
<clus scale="  102.998">  1  3  2 -1</clus>
</clustering>
</event>
<event>
 6    0  0.1080632E+003  0.1276044E+03  0.7546771E-02  0.1231054E+00
         21   -1    0    0  504  501  0.00000000000E+00  0.00000000000E+00  0.72942447337E+03  0.72942447337E+03  0.00000000000E+00 0.  1.
         21   -1    0    0  503  502 -0.00000000000E+00 -0.00000000000E+00 -0.65376005052E+02  0.65376005052E+02  0.00000000000E+00 0.  1.
         21    1    1    2  503  506  0.23029895011E+01 -0.11021829181E+03  0.35316809436E+02  0.11576118796E+03  0.00000000000E+00 0.  1.
         21    1    1    2  504  505  0.29751080435E+02  0.94268778438E+02  0.16533662653E+03  0.19263418556E+03  0.00000000000E+00 0.  1.
         21    1    1    2  505  502 -0.12704191707E+02  0.51575581261E+02  0.56697951488E+02  0.77692308321E+02  0.00000000000E+00 0.  1.
         21    1    1    2  506  501 -0.19349878228E+02 -0.35626067890E+02  0.40669708087E+03  0.40871279658E+03  0.00000000000E+00 0.  1.
<scales pt_clust_3="118.60437" pt_clust_4="34.50630" pt_clust_5="34.50630" pt_clust_6="40.54176"></scales>
<clustering>
<clus scale="   34.506">  4  5 -1 -1</clus>
<clus scale="   40.542">  1  6  2 -1</clus>
<clus scale="  118.604">  2  3  1 -1</clus>
<clus scale="   40.542">  1  3  2 -1</clus>
</clustering>
</event>
<event>
 6    0  0.1080632E+003  0.1196816E+03  0.7546771E-02  0.1243623E+00
         21   -1    0    0  506  501  0.00000000000E+00  0.00000000000E+00  0.21405527537E+03  0.21405527537E+03  0.00000000000E+00 0.  1.
         21   -1    0    0  503  502 -0.00000000000E+00 -0.00000000000E+00 -0.22539005559E+03  0.22539005559E+03  0.00000000000E+00 0.  1.
         21    1    1    2  503  505  0.47067989411E+01  0.11337516340E+03  0.54170380544E+02  0.12573985749E+03  0.00000000000E+00 0.  1.
         21    1    1    2  504  502  0.24595293960E+02  0.37972048943E+02 -0.72424937439E+02  0.85394241896E+02  0.00000000000E+00 0.  1.
         21    1    1    2  505  501  0.50719571281E+02 -0.21892311770E+02  0.45202517277E+02  0.71379379331E+02  0.00000000000E+00 0.  1.
         21    1    1    2  506  504 -0.80021664182E+02 -0.12945490058E+03 -0.38282740604E+02  0.15693185225E+03  0.00000000000E+00 0.  1.
<scales pt_clust_3="14000.00000" pt_clust_4="45.24163" pt_clust_5="56.05766" pt_clust_6="119.68157"></scales>
<clustering>
<clus scale="   45.242">  2  4  1 -1</clus>
<clus scale="   56.058">  1  5  2 -1</clus>
<clus scale="  119.682">  2  6  1 -1</clus>
<clus scale="   56.058">  1  3  2 -1</clus>
</clustering>
</event>
<event>
 6    0  0.1080632E+003  0.4499446E+03  0.7546771E-02  0.1027739E+00
         21   -1    0    0  502  501  0.00000000000E+00  0.00000000000E+00  0.37433505939E+03  0.37433505939E+03  0.00000000000E+00 0.  1.
         21   -1    0    0  503  502 -0.00000000000E+00 -0.00000000000E+00 -0.83752949241E+03  0.83752949241E+03  0.00000000000E+00 0. -1.
         21    1    1    2  503  504  0.13159284076E+03  0.24511870654E+03 -0.30747474905E+03  0.41465718050E+03  0.00000000000E+00 0. -1.
         21    1    1    2  504  505  0.87869644990E+01  0.18024102597E+03 -0.17976498795E+03  0.25471452467E+03  0.00000000000E+00 0. -1.
         21    1    1    2  505  506 -0.10967707392E+03 -0.40697434320E+03 -0.83031196631E+02  0.42959440892E+03  0.00000000000E+00 0.  1.
         21    1    1    2  506  501 -0.30702731346E+02 -0.18385389318E+02  0.10707650061E+03  0.11289843770E+03  0.00000000000E+00 0.  1.
<scales pt_clust_3="80.89924" pt_clust_4="80.89924" pt_clust_5="438.67033" pt_clust_6="35.78659"></scales>
<clustering>
<clus scale="   35.787">  1  6  2 -1</clus>
<clus scale="   80.899">  3  4 -1 -1</clus>
<clus scale="  438.670">  1  5  2 -1</clus>
<clus scale="   35.787">  1  3  2 -1</clus>
</clustering>
</event>
<event>
 6    0  0.1080632E+003  0.7138374E+02  0.7546771E-02  0.1355450E+00
         21   -1    0    0  504  501  0.00000000000E+00  0.00000000000E+00  0.13433541848E+04  0.13433541848E+04  0.00000000000E+00 0.  1.
         21   -1    0    0  505  502 -0.00000000000E+00 -0.00000000000E+00 -0.28574268434E+03  0.28574268434E+03  0.00000000000E+00 0.  1.
         21    1    1    2  503  501  0.71248315389E+02  0.49919880957E+02  0.32917353792E+03  0.34047545437E+03  0.00000000000E+00 0.  1.
         21    1    1    2  504  506 -0.35987346896E+02 -0.57825701284E+02  0.81083605679E+03  0.81369159505E+03  0.00000000000E+00 0.  1.
         21    1    1    2  505  503  0.66228579386E+02  0.24614448534E+02 -0.26014465824E+03  0.26956880200E+03  0.00000000000E+00 0.  1.
         21    1    1    2  506  502 -0.10148954788E+03 -0.16708628207E+02  0.17774656395E+03  0.20536101767E+03  0.00000000000E+00 0.  1.
<scales pt_clust_3="50.39213" pt_clust_4="68.10948" pt_clust_5="14000.00000" pt_clust_6="71.38374"></scales>
<clustering>
<clus scale="   68.109">  1  4  2 -1</clus>
<clus scale="   50.392">  1  3  2 -1</clus>
<clus scale="   71.384">  1  6  2 -1</clus>
<clus scale="   68.109">  1  3  2 -1</clus>
</clustering>
</event>
<event>
 6    0  0.1080632E+003  0.1296534E+03  0.7546771E-02  0.1227971E+00
         21   -1    0    0  503  501  0.00000000000E+00  0.00000000000E+00  0.20988214765E+03  0.20988214765E+03  0.00000000000E+00 0.  1.
         21   -1    0    0  506  502 -0.00000000000E+00 -0.00000000000E+00 -0.20877425160E+03  0.20877425160E+03  0.00000000000E+00 0.  1.
         21    1    1    2  503  504 -0.17593002304E+02 -0.80526635645E+02  0.10802359496E+03  0.13587917370E+03  0.00000000000E+00 0.  1.
         21    1    1    2  504  505  0.16150225987E+01  0.93468138407E+02 -0.13862334880E+02  0.94504314841E+02  0.00000000000E+00 0.  1.
         21    1    1    2  505  502 -0.55556809307E+02  0.44829064562E+02 -0.34741665962E+02  0.79392615801E+02  0.00000000000E+00 0.  1.
         21    1    1    2  506  501  0.71534789012E+02 -0.57770567324E+02 -0.58311698069E+02  0.10888029491E+03  0.00000000000E+00 0.  1.
<scales pt_clust_3="82.42604" pt_clust_4="66.79236" pt_clust_5="66.79236" pt_clust_6="104.72842"></scales>
<clustering>
<clus scale="   66.792">  4  5 -1 -1</clus>
<clus scale="   82.426">  1  3  2 -1</clus>
<clus scale="  104.728">  2  6  1 -1</clus>
<clus scale="   82.426">  1  3  2 -1</clus>
</clustering>
</event>
<event>
 6    0  0.1080632E+003  0.9989219E+02  0.7546771E-02  0.1280523E+00
         21   -1    0    0  505  501  0.00000000000E+00  0.00000000000E+00  0.33517710485E+03  0.33517710485E+03  0.00000000000E+00 0. -1.
         21   -1    0    0  503  502 -0.00000000000E+00 -0.00000000000E+00 -0.54976965737E+03  0.54976965737E+03  0.00000000000E+00 0. -1.
         21    1    1    2  503  501  0.14549700608E+02  0.43498631968E+02 -0.35887945677E+02  0.58238899507E+02  0.00000000000E+00 0. -1.
         21    1    1    2  504  506  0.91123922287E+02 -0.11238221673E+03 -0.30356236957E+03  0.33627881894E+03  0.00000000000E+00 0. -1.
         21    1    1    2  505  504 -0.75315620710E+02  0.63999876538E+02  0.29831814806E+03  0.31426444976E+03  0.00000000000E+00 0. -1.
         21    1    1    2  506  502 -0.30358002186E+02  0.48837082201E+01 -0.17346038533E+03  0.17616459400E+03  0.00000000000E+00 0. -1.
<scales pt_clust_3="45.40007" pt_clust_4="14000.00000" pt_clust_5="99.89219" pt_clust_6="30.74832"></scales>
<clustering>
<clus scale="   30.748">  2  6  1 -1</clus>
<clus scale="   45.400">  2  3  1 -1</clus>
<clus scale="   99.892">  1  5  2 -1</clus>
<clus scale="   99.892">  1  3  2 -1</clus>
</clustering>
</event>
<event>
 6    0  0.1080632E+003  0.7162855E+02  0.7546771E-02  0.1354641E+00
         21   -1    0    0  504  501  0.00000000000E+00  0.00000000000E+00  0.46880872886E+03  0.46880872886E+03  0.00000000000E+00 0.  1.
         21   -1    0    0  506  502 -0.00000000000E+00 -0.00000000000E+00 -0.46530468903E+03  0.46530468903E+03  0.00000000000E+00 0.  1.
         21    1    1    2  503  505  0.52389407346E+02 -0.78060011825E+02  0.35839036397E+03  0.37051540917E+03  0.00000000000E+00 0.  1.
         21    1    1    2  504  503 -0.10069462412E+01  0.32383581476E+02  0.79307184269E+02  0.85669946694E+02  0.00000000000E+00 0.  1.
         21    1    1    2  505  502  0.68838252346E+01 -0.37123588550E+02 -0.33176257079E+03  0.33390410488E+03  0.00000000000E+00 0.  1.
         21    1    1    2  506  501 -0.58266286340E+02  0.82800018899E+02 -0.10243093762E+03  0.14402395716E+03  0.00000000000E+00 0. -1.
<scales pt_clust_3="14000.00000" pt_clust_4="32.39923" pt_clust_5="37.66767" pt_clust_6="71.62855"></scales>
<clustering>
<clus scale="   32.399">  1  4  2 -1</clus>
<clus scale="   37.668">  2  5  1 -1</clus>
<clus scale="   71.629">  2  6  1 -1</clus>
<clus scale="   32.399">  1  3  2 -1</clus>
</clustering>
</event>
<event>
 6    0  0.1080632E+003  0.8073470E+02  0.7546771E-02  0.1326979E+00
         21   -1    0    0  505  501  0.00000000000E+00  0.00000000000E+00  0.93373567592E+02  0.93373567592E+02  0.00000000000E+00 0. -1.
         21   -1    0    0  506  502 -0.00000000000E+00 -0.00000000000E+00 -0.39532387273E+03  0.39532387273E+03  0.00000000000E+00 0. -1.
         21    1    1    2  503  501 -0.51312955614E+02 -0.86354806561E+02 -0.53213471206E+02  0.11367429590E+03  0.00000000000E+00 0. -1.
         21    1    1    2  504  502 -0.33169506698E+02 -0.47860759196E+01 -0.48593820693E+02  0.59029502005E+02  0.00000000000E+00 0.  1.
         21    1    1    2  505  504  0.27955906124E+02  0.69445541040E+02  0.28020279838E+02  0.79933421919E+02  0.00000000000E+00 0. -1.
         21    1    1    2  506  503  0.56526556189E+02  0.21695341441E+02 -0.22816329307E+03  0.23606022050E+03  0.00000000000E+00 0. -1.
<scales pt_clust_3="14000.00000" pt_clust_4="33.51302" pt_clust_5="80.73470" pt_clust_6="38.66447"></scales>
<clustering>
<clus scale="   33.513">  2  4  1 -1</clus>
<clus scale="   38.664">  2  6  1 -1</clus>
<clus scale="   80.735">  1  5  2 -1</clus>
<clus scale="   80.735">  1  3  2 -1</clus>
</clustering>
</event>
<event>
 6    0  0.1080632E+003  0.8534620E+02  0.7546771E-02  0.1314530E+00
         21   -1    0    0  504  501  0.00000000000E+00  0.00000000000E+00  0.61380482352E+03  0.61380482352E+03  0.00000000000E+00 0.  1.
         21   -1    0    0  505  502 -0.00000000000E+00 -0.00000000000E+00 -0.32611254645E+02  0.32611254645E+02  0.00000000000E+00 0.  1.
         21    1    1    2  503  501  0.72742762919E+01  0.43879815153E+02  0.21162996759E+03  0.21625354669E+03  0.00000000000E+00 0.  1.
         21    1    1    2  504  502 -0.40529262078E+02 -0.11884509296E+02  0.89231937001E+02  0.98722850581E+02  0.00000000000E+00 0.  1.
         21    1    1    2  505  506 -0.88429462119E+01 -0.97393587004E+02  0.13635824136E+03  0.16780130653E+03  0.00000000000E+00 0.  1.
         21    1    1    2  506  503  0.42097931998E+02  0.65398281147E+02  0.14397342293E+03  0.16363837436E+03  0.00000000000E+00 0.  1.
<scales pt_clust_3="40.10716" pt_clust_4="42.23580" pt_clust_5="14000.00000" pt_clust_6="85.34620"></scales>
<clustering>
<clus scale="   42.236">  1  4  2 -1</clus>
<clus scale="   40.107">  1  3  2 -1</clus>
<clus scale="   85.346">  1  6  2 -1</clus>
<clus scale="   42.236">  1  3  2 -1</clus>
</clustering>
</event>
<event>
 6    0  0.1080632E+003  0.1198247E+03  0.7546771E-02  0.1243386E+00
         21   -1    0    0  506  501  0.00000000000E+00  0.00000000000E+00  0.56886258501E+03  0.56886258501E+03  0.00000000000E+00 0. -1.
         21   -1    0    0  504  502 -0.00000000000E+00 -0.00000000000E+00 -0.78289624489E+02  0.78289624489E+02  0.00000000000E+00 0.  1.
         21    1    1    2  503  501 -0.41716964820E+02  0.87956749979E+01  0.17795360757E+03  0.18298949559E+03  0.00000000000E+00 0. -1.
         21    1    1    2  504  503  0.75477979444E+01  0.38991072399E+02 -0.22962870174E+02  0.45875553263E+02  0.00000000000E+00 0.  1.
         21    1    1    2  505  502  0.11079959721E+03  0.39693141713E+02  0.95669825910E+02  0.15167337219E+03  0.00000000000E+00 0. -1.
         21    1    1    2  506  505 -0.76630430338E+02 -0.87479889109E+02  0.23991239722E+03  0.26661378845E+03  0.00000000000E+00 0.  1.
<scales pt_clust_3="42.73276" pt_clust_4="39.71490" pt_clust_5="14000.00000" pt_clust_6="119.82471"></scales>
<clustering>
<clus scale="   39.715">  2  4  1 -1</clus>
<clus scale="   42.733">  1  3  2 -1</clus>
<clus scale="  119.825">  1  6  2 -1</clus>
<clus scale="   42.733">  1  3  2 -1</clus>
</clustering>
</event>
<event>
 6    0  0.1080632E+003  0.6852902E+02  0.7546771E-02  0.1365168E+00
         21   -1    0    0  504  501  0.00000000000E+00  0.00000000000E+00  0.14608669794E+03  0.14608669794E+03  0.00000000000E+00 0.  1.
         21   -1    0    0  505  502 -0.00000000000E+00 -0.00000000000E+00 -0.48747277739E+03  0.48747277739E+03  0.00000000000E+00 0.  1.
         21    1    1    2  503  506  0.58112924104E-01 -0.54123355246E+02 -0.12744379205E+02  0.55603598458E+02  0.00000000000E+00 0.  1.
         21    1    1    2  504  502 -0.86272593031E+02  0.10349574996E+03  0.38872918449E+02  0.14023349941E+03  0.00000000000E+00 0.  1.
         21    1    1    2  505  503  0.61827215900E+02 -0.25531808904E+02 -0.39076346797E+03  0.39644743131E+03  0.00000000000E+00 0.  1.
         21    1    1    2  506  501  0.24387264207E+02 -0.23840585810E+02  0.23248849279E+02  0.41274946154E+02  0.00000000000E+00 0. -1.
<scales pt_clust_3="58.79591" pt_clust_4="68.52902" pt_clust_5="14000.00000" pt_clust_6="34.10443"></scales>
<clustering>
<clus scale="   34.104">  1  6  2 -1</clus>
<clus scale="   58.796">  1  3  2 -1</clus>
<clus scale="   68.529">  1  4  2 -1</clus>
<clus scale="   34.104">  1  3  2 -1</clus>
</clustering>
</event>
<event>
 6    0  0.1080632E+003  0.1454966E+03  0.7546771E-02  0.1206119E+00
         21   -1    0    0  505  501  0.00000000000E+00  0.00000000000E+00  0.81719474283E+03  0.81719474283E+03  0.00000000000E+00 0. -1.
         21   -1    0    0  506  502 -0.00000000000E+00 -0.00000000000E+00 -0.11863472041E+03  0.11863472041E+03  0.00000000000E+00 0.  1.
         21    1    1    2  503  501 -0.61666667405E+02  0.45232032088E+02  0.26257832648E+03  0.27348874224E+03  0.00000000000E+00 0. -1.
         21    1    1    2  504  503  0.35945761131E+02  0.79433177556E+02  0.14158044597E+03  0.16627311906E+03  0.00000000000E+00 0. -1.
         21    1    1    2  505  502  0.69407793163E+02 -0.23941890033E+03  0.27600192426E+03  0.37190847501E+03  0.00000000000E+00 0. -1.
         21    1    1    2  506  504 -0.43686886889E+02  0.11475369069E+03  0.18399325709E+02  0.12415912693E+03  0.00000000000E+00 0.  1.
<scales pt_clust_3="76.47689" pt_clust_4="93.98272" pt_clust_5="14000.00000" pt_clust_6="145.49659"></scales>
<clustering>
<clus scale="   76.477">  1  3  2 -1</clus>
<clus scale="   93.983">  1  4  2 -1</clus>
<clus scale="  145.497">  2  6  1 -1</clus>
<clus scale="   76.477">  1  3  2 -1</clus>
</clustering>
</event>
<event>
 6    0  0.1080632E+003  0.1083837E+03  0.7546771E-02  0.1263593E+00
         21   -1    0    0  505  501  0.00000000000E+00  0.00000000000E+00  0.23620158443E+02  0.23620158443E+02  0.00000000000E+00 0. -1.
         21   -1    0    0  503  502 -0.00000000000E+00 -0.00000000000E+00 -0.11347502572E+04  0.11347502572E+04  0.00000000000E+00 0. -1.
         21    1    1    2  503  504  0.35796588412E+02 -0.26195916646E+02 -0.29993845207E+03  0.30320075333E+03  0.00000000000E+00 0. -1.
         21    1    1    2  504  506 -0.25240148227E+02  0.12031388576E+03 -0.42124697740E+03  0.43881831338E+03  0.00000000000E+00 0. -1.
         21    1    1    2  505  502  0.33142004239E+02 -0.96579728610E+02 -0.26839670345E+03  0.28716341488E+03  0.00000000000E+00 0. -1.
         21    1    1    2  506  501 -0.43698444424E+02  0.24617594922E+01 -0.12154796586E+03  0.12918793407E+03  0.00000000000E+00 0. -1.
<scales pt_clust_3="41.37957" pt_clust_4="14000.00000" pt_clust_5="108.38366" pt_clust_6="43.76773"></scales>
<clustering>
<clus scale="   43.768">  1  6  2 -1</clus>
<clus scale="   41.380">  2  3  1 -1</clus>
<clus scale="  108.384">  1  5  2 -1</clus>
<clus scale="   43.768">  1  3  2 -1</clus>
</clustering>
</event>
<event>
 6    0  0.1080632E+003  0.1328502E+03  0.7546771E-02  0.1223287E+00
         21   -1    0    0  506  501  0.00000000000E+00  0.00000000000E+00  0.37138446467E+02  0.37138446467E+02  0.00000000000E+00 0. -1.
         21   -1    0    0  503  502 -0.00000000000E+00 -0.00000000000E+00 -0.93111536379E+03  0.93111536379E+03  0.00000000000E+00 0. -1.
         21    1    1    2  503  501  0.29045031031E+02 -0.13684305905E+03 -0.25668651474E+03  0.29233132484E+03  0.00000000000E+00 0. -1.
         21    1    1    2  504  502 -0.60165877912E+01  0.30181856068E+02 -0.46073186842E+03  0.46175859314E+03  0.00000000000E+00 0. -1.
         21    1    1    2  505  504  0.73452608408E+01  0.36387011894E+02 -0.96493254437E+02  0.10338721218E+03  0.00000000000E+00 0. -1.
         21    1    1    2  506  505 -0.30373704081E+02  0.70274191086E+02 -0.80065279726E+02  0.11077668008E+03  0.00000000000E+00 0. -1.
<scales pt_clust_3="121.91323" pt_clust_4="30.77570" pt_clust_5="38.17100" pt_clust_6="38.17100"></scales>
<clustering>
<clus scale="   30.776">  2  4  1 -1</clus>
<clus scale="   38.171">  5  6 -1 -1</clus>
<clus scale="  121.913">  2  3  1 -1</clus>
<clus scale="  132.850">  1  3  2 -1</clus>
</clustering>
</event>
<event>
 6    0  0.1080632E+003  0.8429953E+02  0.7546771E-02  0.1317275E+00
         21   -1    0    0  506  501  0.00000000000E+00  0.00000000000E+00  0.74344079162E+02  0.74344079162E+02  0.00000000000E+00 0.  1.
         21   -1    0    0  503  502 -0.00000000000E+00 -0.00000000000E+00 -0.12507322072E+04  0.12507322072E+04  0.00000000000E+00 0.  1.
         21    1    1    2  503  501  0.26243748605E+02  0.12643648841E+03 -0.60209378409E+02  0.14247838149E+03  0.00000000000E+00 0.  1.
         21    1    1    2  504  505  0.20364297376E+01 -0.82096587422E+02 -0.23110778542E+03  0.24526476549E+03  0.00000000000E+00 0.  1.
         21    1    1    2  505  502 -0.34362891942E+02  0.12695038000E+02 -0.87887830987E+03  0.87964143598E+03  0.00000000000E+00 0.  1.
         21    1    1    2  506  504  0.60827135998E+01 -0.57034938990E+02 -0.61926543115E+01  0.57691703370E+02  0.00000000000E+00 0. -1.
<scales pt_clust_3="84.29953" pt_clust_4="14000.00000" pt_clust_5="36.63294" pt_clust_6="56.03069"></scales>
<clustering>
<clus scale="   36.633">  2  5  1 -1</clus>
<clus scale="   56.031">  1  6  2 -1</clus>
<clus scale="   84.300">  1  3  2 -1</clus>
<clus scale="   56.031">  1  3  2 -1</clus>
</clustering>
</event>
<event>
 6    0  0.1080632E+003  0.1839991E+03  0.7546771E-02  0.1163988E+00
         21   -1    0    0  506  501  0.00000000000E+00  0.00000000000E+00  0.78921720451E+02  0.78921720451E+02  0.00000000000E+00 0. -1.
         21   -1    0    0  503  502 -0.00000000000E+00 -0.00000000000E+00 -0.11962635482E+04  0.11962635482E+04  0.00000000000E+00 0.  1.
         21    1    1    2  503  504 -0.34795984330E+02 -0.14372878112E+02 -0.12076510510E+03  0.12649723618E+03  0.00000000000E+00 0. -1.
         21    1    1    2  504  501 -0.66870111902E+00 -0.39927235103E+02 -0.11109005236E+03  0.11804927360E+03  0.00000000000E+00 0. -1.
         21    1    1    2  505  502 -0.50718486327E+02  0.21163730103E+03 -0.80520950859E+03  0.83410135161E+03  0.00000000000E+00 0.  1.
         21    1    1    2  506  505  0.86183171776E+02 -0.15733718782E+03 -0.80277161725E+02  0.19653740728E+03  0.00000000000E+00 0. -1.
<scales pt_clust_3="37.64758" pt_clust_4="41.69369" pt_clust_5="183.99911" pt_clust_6="14000.00000"></scales>
<clustering>
<clus scale="   37.648">  2  3  1 -1</clus>
<clus scale="   41.694">  2  4  1 -1</clus>
<clus scale="  183.999">  2  5  1 -1</clus>
<clus scale="  183.999">  1  3  2 -1</clus>
</clustering>
</event>
<event>
 6    0  0.1080632E+003  0.1915210E+03  0.7546771E-02  0.1157097E+00
         21   -1    0    0  502  501  0.00000000000E+00  0.00000000000E+00  0.71929500210E+03  0.71929500210E+03  0.00000000000E+00 0.  1.
         21   -1    0    0  504  502 -0.00000000000E+00 -0.00000000000E+00 -0.13740839077E+03  0.13740839077E+03  0.00000000000E+00 0.  1.
         21    1    1    2  503  505 -0.65741922199E+02  0.15043805017E+02  0.19060764519E+02  0.70083016116E+02  0.00000000000E+00 0.  1.
         21    1    1    2  504  506 -0.26943053605E+02  0.18704537384E+02 -0.57191208573E+02  0.65928917740E+02  0.00000000000E+00 0.  1.
         21    1    1    2  505  501  0.16941767169E+03 -0.95823094669E+02  0.58407631094E+03  0.61565375818E+03  0.00000000000E+00 0.  1.
         21    1    1    2  506  503 -0.76732695886E+02  0.62074752268E+02  0.35940744443E+02  0.10503770084E+03  0.00000000000E+00 0.  1.
<scales pt_clust_3="30.88325" pt_clust_4="32.79921" pt_clust_5="187.84163" pt_clust_6="30.88325"></scales>
<clustering>
<clus scale="   30.883">  3  6 -1 -1</clus>
<clus scale="   32.799">  2  4  1 -1</clus>
<clus scale="  187.842">  1  5  2 -1</clus>
<clus scale="  187.842">  1  3  2 -1</clus>
</clustering>
</event>
<event>
 6    0  0.1080632E+003  0.6061377E+02  0.7546771E-02  0.1395274E+00
         21   -1    0    0  503  501  0.00000000000E+00  0.00000000000E+00  0.72866155235E+02  0.72866155235E+02  0.00000000000E+00 0.  1.
         21   -1    0    0  506  502 -0.00000000000E+00 -0.00000000000E+00 -0.19283758132E+04  0.19283758132E+04  0.00000000000E+00 0.  1.
         21    1    1    2  503  502  0.35502913010E+02 -0.12017477217E+03 -0.15384792770E+03  0.19842282519E+03  0.00000000000E+00 0. -1.
         21    1    1    2  504  505 -0.12660126099E+02  0.37778828728E+02 -0.10255518655E+03  0.11002311112E+03  0.00000000000E+00 0.  1.
         21    1    1    2  505  501  0.14334765396E+02  0.36231122931E+02  0.38112415346E+02  0.54504458270E+02  0.00000000000E+00 0.  1.
         21    1    1    2  506  504 -0.37177552307E+02  0.46164820511E+02 -0.16372189591E+04  0.16382915739E+04  0.00000000000E+00 0.  1.
<scales pt_clust_3="60.61377" pt_clust_4="44.17455" pt_clust_5="38.96383" pt_clust_6="14000.00000"></scales>
<clustering>
<clus scale="   38.964">  1  5  2 -1</clus>
<clus scale="   44.175">  1  4  2 -1</clus>
<clus scale="   60.614">  1  3  2 -1</clus>
<clus scale="   38.964">  1  3  2 -1</clus>
</clustering>
</event>
<event>
 6    0  0.1080632E+003  0.1150829E+03  0.7546771E-02  0.1251436E+00
         21   -1    0    0  503  501  0.00000000000E+00  0.00000000000E+00  0.25576049582E+03  0.25576049582E+03  0.00000000000E+00 0.  1.
         21   -1    0    0  505  502 -0.00000000000E+00 -0.00000000000E+00 -0.32550003033E+03  0.32550003033E+03  0.00000000000E+00 0.  1.
         21    1    1    2  503  506  0.36521008225E+01 -0.65385242308E+02  0.12761459847E+03  0.14343658353E+03  0.00000000000E+00 0. -1.
         21    1    1    2  504  502  0.98162446794E+01  0.50480639883E+02 -0.26409583121E+03  0.26905624268E+03  0.00000000000E+00 0.  1.
         21    1    1    2  505  501 -0.27531608008E+02  0.74686453889E+02  0.21332290100E+01  0.79627925378E+02  0.00000000000E+00 0.  1.
         21    1    1    2  506  504  0.14063262506E+02 -0.59781851464E+02  0.64608469211E+02  0.89139774571E+02  0.00000000000E+00 0.  1.
<scales pt_clust_3="33.00267" pt_clust_4="51.42620" pt_clust_5="109.92118" pt_clust_6="33.00267"></scales>
<clustering>
<clus scale="   33.003">  3  6 -1 -1</clus>
<clus scale="   51.426">  2  4  1 -1</clus>
<clus scale="  109.921">  2  5  1 -1</clus>
<clus scale="  115.083">  1  3  2 -1</clus>
</clustering>
</event>
<event>
 6    0  0.1080632E+003  0.1205881E+03  0.7546771E-02  0.1242130E+00
         21   -1    0    0  506  501  0.00000000000E+00  0.00000000000E+00  0.81617003952E+02  0.81617003952E+02  0.00000000000E+00 0.  1.
         21   -1    0    0  504  502 -0.00000000000E+00 -0.00000000000E+00 -0.11305167040E+04  0.11305167040E+04  0.00000000000E+00 0.  1.
         21    1    1    2  503  505  0.48267504972E+02  0.92502720103E+02 -0.11161502429E+03  0.15278880492E+03  0.00000000000E+00 0.  1.
         21    1    1    2  504  503 -0.44312982869E+02  0.65070056209E+02 -0.87336094650E+03  0.87690198741E+03  0.00000000000E+00 0.  1.
         21    1    1    2  505  501  0.18793440183E+02 -0.13691818917E+03 -0.41152630772E+02  0.14419890062E+03  0.00000000000E+00 0.  1.
         21    1    1    2  506  502 -0.22747962286E+02 -0.20654587143E+02 -0.22771098538E+02  0.38244015046E+02  0.00000000000E+00 0.  1.
<scales pt_clust_3="14000.00000" pt_clust_4="78.62692" pt_clust_5="120.58810" pt_clust_6="30.72591"></scales>
<clustering>
<clus scale="   30.726">  1  6  2 -1</clus>
<clus scale="   78.627">  2  4  1 -1</clus>
<clus scale="  120.588">  1  5  2 -1</clus>
<clus scale="   30.726">  1  3  2 -1</clus>
</clustering>
</event>
<event>
 6    0  0.1080632E+003  0.1496966E+03  0.7546771E-02  0.1200846E+00
         21   -1    0    0  505  501  0.00000000000E+00  0.00000000000E+00  0.17863762010E+03  0.17863762010E+03  0.00000000000E+00 0. -1.
         21   -1    0    0  503  502 -0.00000000000E+00 -0.00000000000E+00 -0.44976034769E+03  0.44976034769E+03  0.00000000000E+00 0. -1.
         21    1    1    2  503  504  0.40143627510E+02  0.54556050318E+02 -0.50165391808E+01  0.67919357486E+02  0.00000000000E+00 0. -1.
         21    1    1    2  504  501  0.79989560728E+02  0.87100694071E+02 -0.69004776265E+02  0.13691793119E+03  0.00000000000E+00 0. -1.
         21    1    1    2  505  506 -0.82012078824E+02 -0.10216957337E+03  0.71605971110E+02  0.14930511677E+03  0.00000000000E+00 0. -1.
         21    1    1    2  506  502 -0.38121109413E+02 -0.39487171021E+02 -0.26870738326E+03  0.27425556234E+03  0.00000000000E+00 0. -1.
<scales pt_clust_3="33.68065" pt_clust_4="33.68065" pt_clust_5="142.92841" pt_clust_6="54.88584"></scales>
<clustering>
<clus scale="   33.681">  3  4 -1 -1</clus>
<clus scale="   54.886">  2  6  1 -1</clus>
<clus scale="  142.928">  1  5  2 -1</clus>
<clus scale="  142.928">  1  3  2 -1</clus>
</clustering>
</event>
<event>
 6    0  0.1080632E+003  0.1319914E+03  0.7546771E-02  0.1224530E+00
         21   -1    0    0  503  501  0.00000000000E+00  0.00000000000E+00  0.64221663688E+03  0.64221663688E+03  0.00000000000E+00 0.  1.
         21   -1    0    0  506  502 -0.00000000000E+00 -0.00000000000E+00 -0.58240086642E+02  0.58240086642E+02  0.00000000000E+00 0.  1.
         21    1    1    2  503  504  0.28821071301E+01 -0.53678505718E+02  0.15779417938E+03  0.16669940481E+03  0.00000000000E+00 0.  1.
         21    1    1    2  504  505 -0.11167835105E+03 -0.32972111563E+02  0.16327516081E+03  0.20054424044E+03  0.00000000000E+00 0.  1.
         21    1    1    2  505  502 -0.34210451368E+02  0.42006982941E+02  0.57809273081E+02  0.79226596877E+02  0.00000000000E+00 0.  1.
         21    1    1    2  506  501  0.14300669529E+03  0.44643634340E+02  0.20509793697E+03  0.25398648140E+03  0.00000000000E+00 0.  1.
<scales pt_clust_3="53.75582" pt_clust_4="131.99141" pt_clust_5="48.18602" pt_clust_6="14000.00000"></scales>
<clustering>
<clus scale="   53.756">  1  3  2 -1</clus>
<clus scale="   48.186">  2  5  1 -1</clus>
<clus scale="  131.991">  1  4  2 -1</clus>
<clus scale="   53.756">  1  3  2 -1</clus>
</clustering>
</event>
<event>
 6    0  0.1080632E+003  0.7548371E+02  0.7546771E-02  0.1342380E+00
         21   -1    0    0  504  501  0.00000000000E+00  0.00000000000E+00  0.57922864135E+03  0.57922864135E+03  0.00000000000E+00 0. -1.
         21   -1    0    0  506  502 -0.00000000000E+00 -0.00000000000E+00 -0.15812144421E+03  0.15812144421E+03  0.00000000000E+00 0.  1.
         21    1    1    2  503  505 -0.49962430795E+02  0.80358701033E+02 -0.28662090227E+02  0.98870019413E+02  0.00000000000E+00 0.  1.
         21    1    1    2  504  502 -0.36109953549E+02 -0.74734869767E+02 -0.12556485810E+02  0.83945785125E+02  0.00000000000E+00 0.  1.
         21    1    1    2  505  501  0.43004490090E+02  0.13878899008E+02  0.49500376350E+03  0.49706210466E+03  0.00000000000E+00 0. -1.
         21    1    1    2  506  503  0.43067894254E+02 -0.19502730273E+02 -0.32677990335E+02  0.57472176363E+02  0.00000000000E+00 0.  1.
<scales pt_clust_3="14000.00000" pt_clust_4="75.48371" pt_clust_5="45.18860" pt_clust_6="52.45803"></scales>
<clustering>
<clus scale="   45.189">  1  5  2 -1</clus>
<clus scale="   52.458">  2  6  1 -1</clus>
<clus scale="   75.484">  1  4  2 -1</clus>
<clus scale="   45.189">  1  3  2 -1</clus>
</clustering>
</event>
<event>
 6    0  0.1080632E+003  0.1459892E+03  0.7546771E-02  0.1205490E+00
         21   -1    0    0  503  501  0.00000000000E+00  0.00000000000E+00  0.24577303130E+02  0.24577303130E+02  0.00000000000E+00 0. -1.
         21   -1    0    0  506  502 -0.00000000000E+00 -0.00000000000E+00 -0.27606884640E+04  0.27606884640E+04  0.00000000000E+00 0. -1.
         21    1    1    2  503  502 -0.16364367601E+03  0.10997519445E+03 -0.13751816301E+04  0.13892437914E+04  0.00000000000E+00 0. -1.
         21    1    1    2  504  505  0.13328074697E+03  0.23057159304E+02 -0.45790606688E+03  0.47746555498E+03  0.00000000000E+00 0. -1.
         21    1    1    2  505  501 -0.64245620212E+01 -0.70375687976E+02 -0.20657806292E+03  0.21833119001E+03  0.00000000000E+00 0. -1.
         21    1    1    2  506  504  0.36787491065E+02 -0.62656665776E+02 -0.69644540093E+03  0.70022523073E+03  0.00000000000E+00 0. -1.
<scales pt_clust_3="14000.00000" pt_clust_4="145.98919" pt_clust_5="70.66833" pt_clust_6="78.57271"></scales>
<clustering>
<clus scale="   70.668">  1  5  2 -1</clus>
<clus scale="   78.573">  2  6  1 -1</clus>
<clus scale="  145.989">  1  4  2 -1</clus>
<clus scale="   70.668">  1  3  2 -1</clus>
</clustering>
</event>
<event>
 6    0  0.1080632E+003  0.1241553E+03  0.7546771E-02  0.1236395E+00
         21   -1    0    0  505  501  0.00000000000E+00  0.00000000000E+00  0.47289760017E+03  0.47289760017E+03  0.00000000000E+00 0. -1.
         21   -1    0    0  506  502 -0.00000000000E+00 -0.00000000000E+00 -0.59703845297E+02  0.59703845297E+02  0.00000000000E+00 0. -1.
         21    1    1    2  503  501 -0.25133856377E+02 -0.20758709650E+02  0.20807880429E+03  0.21061676941E+03  0.00000000000E+00 0. -1.
         21    1    1    2  504  502 -0.22778355324E+02  0.37956815555E+02  0.23652346781E+02  0.50189708373E+02  0.00000000000E+00 0.  1.
         21    1    1    2  505  504 -0.22454860016E+02  0.74853881341E+02  0.11242918133E+03  0.13692204024E+03  0.00000000000E+00 0. -1.
         21    1    1    2  506  503  0.70367071717E+02 -0.92051987245E+02  0.69033422476E+02  0.13487292744E+03  0.00000000000E+00 0. -1.
<scales pt_clust_3="32.59808" pt_clust_4="31.21642" pt_clust_5="31.21642" pt_clust_6="117.02222"></scales>
<clustering>
<clus scale="   31.216">  4  5 -1 -1</clus>
<clus scale="   32.598">  1  3  2 -1</clus>
<clus scale="  117.022">  2  6  1 -1</clus>
<clus scale="   32.598">  1  3  2 -1</clus>
</clustering>
</event>
<event>
 6    0  0.1080632E+003  0.1424764E+03  0.7546771E-02  0.1210035E+00
         21   -1    0    0  506  501  0.00000000000E+00  0.00000000000E+00  0.30402122658E+03  0.30402122658E+03  0.00000000000E+00 0.  1.
         21   -1    0    0  505  502 -0.00000000000E+00 -0.00000000000E+00 -0.26265785758E+03  0.26265785758E+03  0.00000000000E+00 0.  1.
         21    1    1    2  503  502  0.15879036982E+02  0.31629615281E+02 -0.16007986228E+02  0.38843686763E+02  0.00000000000E+00 0. -1.
         21    1    1    2  504  501 -0.60987838837E+02 -0.57711542596E+02 -0.78962277437E+02  0.11526135472E+03  0.00000000000E+00 0.  1.
         21    1    1    2  505  504 -0.21709227032E+02 -0.86326874555E+02 -0.10526454561E+03  0.13785588261E+03  0.00000000000E+00 0.  1.
         21    1    1    2  506  503  0.66818028886E+02  0.11240880187E+03  0.24159817827E+03  0.27471816006E+03  0.00000000000E+00 0.  1.
<scales pt_clust_3="35.39176" pt_clust_4="50.11969" pt_clust_5="50.11969" pt_clust_6="133.25381"></scales>
<clustering>
<clus scale="   35.392">  2  3  1 -1</clus>
<clus scale="   50.120">  4  5 -1 -1</clus>
<clus scale="  133.254">  1  6  2 -1</clus>
<clus scale="  133.254">  1  3  2 -1</clus>
</clustering>
</event>
<event>
 6    0  0.1080632E+003  0.1507233E+03  0.7546771E-02  0.1199587E+00
         21   -1    0    0  506  501  0.00000000000E+00  0.00000000000E+00  0.27456841551E+03  0.27456841551E+03  0.00000000000E+00 0. -1.
         21   -1    0    0  501  502 -0.00000000000E+00 -0.00000000000E+00 -0.14182578730E+04  0.14182578730E+04  0.00000000000E+00 0.  1.
         21    1    1    2  503  502 -0.21217131834E+02 -0.15021453192E+03 -0.13543907563E+04  0.13628605552E+04  0.00000000000E+00 0.  1.
         21    1    1    2  504  505  0.36509446577E+02  0.49941795795E+02 -0.37358247606E+01  0.61976439421E+02  0.00000000000E+00 0. -1.
         21    1    1    2  505  503  0.14382104998E+02  0.11639489309E+03  0.12043436049E+03  0.16810428689E+03  0.00000000000E+00 0. -1.
         21    1    1    2  506  504 -0.29674419741E+02 -0.16122156964E+02  0.94002763125E+02  0.99885006919E+02  0.00000000000E+00 0. -1.
<scales pt_clust_3="14000.00000" pt_clust_4="56.90819" pt_clust_5="150.72334" pt_clust_6="33.77122"></scales>
<clustering>
<clus scale="   33.771">  1  6  2 -1</clus>
<clus scale="   56.908">  1  4  2 -1</clus>
<clus scale="  150.723">  1  5  2 -1</clus>
<clus scale="   33.771">  1  3  2 -1</clus>
</clustering>
</event>
<event>
 6    0  0.1080632E+003  0.1943942E+03  0.7546771E-02  0.1154557E+00
         21   -1    0    0  506  501  0.00000000000E+00  0.00000000000E+00  0.20596860920E+03  0.20596860920E+03  0.00000000000E+00 0. -1.
         21   -1    0    0  504  502 -0.00000000000E+00 -0.00000000000E+00 -0.53782280828E+03  0.53782280828E+03  0.00000000000E+00 0. -1.
         21    1    1    2  503  502  0.36549547633E+02 -0.55347940026E+02 -0.31634809650E+03  0.32322651818E+03  0.00000000000E+00 0. -1.
         21    1    1    2  504  505  0.13477504507E+02 -0.29863285493E+02 -0.54210211454E+02  0.63341976399E+02  0.00000000000E+00 0. -1.
         21    1    1    2  505  501 -0.20342338211E+02 -0.11433008881E+03 -0.62116540122E+02  0.13169527132E+03  0.00000000000E+00 0. -1.
         21    1    1    2  506  503 -0.29684713929E+02  0.19954131433E+03  0.10082064899E+03  0.22552765158E+03  0.00000000000E+00 0. -1.
<scales pt_clust_3="66.32695" pt_clust_4="32.17302" pt_clust_5="32.17302" pt_clust_6="184.71693"></scales>
<clustering>
<clus scale="   32.173">  4  5 -1 -1</clus>
<clus scale="   66.327">  2  3  1 -1</clus>
<clus scale="  184.717">  1  6  2 -1</clus>
<clus scale="  184.717">  1  3  2 -1</clus>
</clustering>
</event>
<event>
 6    0  0.1080632E+003  0.1017544E+03  0.7546771E-02  0.1276649E+00
         21   -1    0    0  506  501  0.00000000000E+00  0.00000000000E+00  0.29565357516E+02  0.29565357516E+02  0.00000000000E+00 0.  1.
         21   -1    0    0  505  502 -0.00000000000E+00 -0.00000000000E+00 -0.15233414555E+04  0.15233414555E+04  0.00000000000E+00 0.  1.
         21    1    1    2  503  502  0.10512077587E+02 -0.32914764817E+02 -0.59803835930E+03  0.59903569569E+03  0.00000000000E+00 0.  1.
         21    1    1    2  504  501  0.65084293296E+01  0.78821430580E+02 -0.25002869577E+03  0.26223944455E+03  0.00000000000E+00 0.  1.
         21    1    1    2  505  504 -0.15721416666E+02  0.70724161927E+02 -0.49887865208E+03  0.50411207040E+03  0.00000000000E+00 0.  1.
         21    1    1    2  506  503 -0.12990902513E+01 -0.11663082769E+03 -0.14683039086E+03  0.18751960240E+03  0.00000000000E+00 0.  1.
<scales pt_clust_3="34.55265" pt_clust_4="101.75435" pt_clust_5="53.81663" pt_clust_6="14000.00000"></scales>
<clustering>
<clus scale="   34.553">  2  3  1 -1</clus>
<clus scale="   53.817">  2  5  1 -1</clus>
<clus scale="  101.754">  2  4  1 -1</clus>
<clus scale="  101.754">  1  3  2 -1</clus>
</clustering>
</event>
<event>
 6    0  0.1080632E+003  0.1097995E+03  0.7546771E-02  0.1260942E+00
         21   -1    0    0  505  501  0.00000000000E+00  0.00000000000E+00  0.83436934501E+02  0.83436934501E+02  0.00000000000E+00 0. -1.
         21   -1    0    0  503  502 -0.00000000000E+00 -0.00000000000E+00 -0.77004112918E+03  0.77004112918E+03  0.00000000000E+00 0.  1.
         21    1    1    2  503  504  0.32886243995E+02  0.29091871167E+01 -0.29609884997E+03  0.29793371305E+03  0.00000000000E+00 0. -1.
         21    1    1    2  504  501 -0.41551702397E+02 -0.34207799505E+02 -0.84716059696E+02  0.10036696812E+03  0.00000000000E+00 0.  1.
         21    1    1    2  505  506  0.74295444729E+02  0.85619888802E+02  0.22879675146E+02  0.11564626237E+03  0.00000000000E+00 0. -1.
         21    1    1    2  506  502 -0.65629986327E+02 -0.54321276414E+02 -0.32866896015E+03  0.33953112014E+03  0.00000000000E+00 0.  1.
<scales pt_clust_3="33.01467" pt_clust_4="48.62948" pt_clust_5="109.79945" pt_clust_6="14000.00000"></scales>
<clustering>
<clus scale="   33.015">  2  3  1 -1</clus>
<clus scale="   48.629">  2  4  1 -1</clus>
<clus scale="  109.799">  1  5  2 -1</clus>
<clus scale="  109.799">  1  3  2 -1</clus>
</clustering>
</event>
<event>
 6    0  0.1080632E+003  0.1060163E+03  0.7546771E-02  0.1268130E+00
         21   -1    0    0  506  501  0.00000000000E+00  0.00000000000E+00  0.13515549116E+03  0.13515549116E+03  0.00000000000E+00 0.  1.
         21   -1    0    0  503  502 -0.00000000000E+00 -0.00000000000E+00 -0.93894587474E+03  0.93894587474E+03  0.00000000000E+00 0.  1.
         21    1    1    2  503  504  0.23876348727E+02  0.43561179386E+02 -0.33414530130E+02  0.59868081662E+02  0.00000000000E+00 0.  1.
         21    1    1    2  504  501  0.10343185740E+03 -0.38847216432E+02  0.74955539331E+02  0.13351250214E+03  0.00000000000E+00 0.  1.
         21    1    1    2  505  502 -0.29801482990E+02  0.34166626539E+02 -0.69987424263E+03  0.70134117393E+03  0.00000000000E+00 0.  1.
         21    1    1    2  506  505 -0.97506723140E+02 -0.38880589494E+02 -0.14545715015E+03  0.17937960817E+03  0.00000000000E+00 0.  1.
<scales pt_clust_3="53.38912" pt_clust_4="14000.00000" pt_clust_5="45.33748" pt_clust_6="106.01626"></scales>
<clustering>
<clus scale="   45.337">  2  5  1 -1</clus>
<clus scale="   53.389">  2  3  1 -1</clus>
<clus scale="  106.016">  2  6  1 -1</clus>
<clus scale="  106.016">  1  3  2 -1</clus>
</clustering>
</event>
<event>
 6    0  0.1080632E+003  0.1665112E+03  0.7546771E-02  0.1181536E+00
         21   -1    0    0  503  501  0.00000000000E+00  0.00000000000E+00  0.25179277982E+03  0.25179277982E+03  0.00000000000E+00 0.  1.
         21   -1    0    0  501  502 -0.00000000000E+00 -0.00000000000E+00 -0.17124368583E+03  0.17124368583E+03  0.00000000000E+00 0.  1.
         21    1    1    2  503  506 -0.62954944274E+02 -0.49171446296E+01  0.10448449830E+03  0.12208404361E+03  0.00000000000E+00 0.  1.
         21    1    1    2  504  502  0.29240265228E+02 -0.35200762574E+02 -0.13550153673E+02  0.47725186862E+02  0.00000000000E+00 0.  1.
         21    1    1    2  505  504  0.11880124922E+03  0.92392664084E+01 -0.76086392715E+02  0.14137977230E+03  0.00000000000E+00 0.  1.
         21    1    1    2  506  505 -0.85086570174E+02  0.30878640796E+02  0.65701142084E+02  0.11184746288E+03  0.00000000000E+00 0.  1.
<scales pt_clust_3="47.03012" pt_clust_4="44.41020" pt_clust_5="44.41020" pt_clust_6="160.50171"></scales>
<clustering>
<clus scale="   44.410">  4  5 -1 -1</clus>
<clus scale="   47.030">  3  6 -1 -1</clus>
<clus scale="  160.502">  1  3  2 -1</clus>
<clus scale="  160.502">  1  3  2 -1</clus>
</clustering>
</event>
<event>
 6    0  0.1080632E+003  0.9497729E+02  0.7546771E-02  0.1291227E+00
         21   -1    0    0  506  501  0.00000000000E+00  0.00000000000E+00  0.20439871825E+04  0.20439871825E+04  0.00000000000E+00 0. -1.
         21   -1    0    0  503  502 -0.00000000000E+00 -0.00000000000E+00 -0.15106728952E+03  0.15106728952E+03  0.00000000000E+00 0.  1.
         21    1    1    2  503  501 -0.64738086526E+02 -0.38238942642E+02  0.17388448586E+04  0.17404696719E+04  0.00000000000E+00 0. -1.
         21    1    1    2  504  502  0.14709341449E+02  0.28569633151E+02 -0.77512925699E+02  0.83909727176E+02  0.00000000000E+00 0.  1.
         21    1    1    2  505  504 -0.17102760358E+02  0.74400935284E+02 -0.38098397907E+02  0.85319936158E+02  0.00000000000E+00 0.  1.
         21    1    1    2  506  505  0.67131505434E+02 -0.64731625794E+02  0.26968635797E+03  0.28535513676E+03  0.00000000000E+00 0. -1.
<scales pt_clust_3="74.87425" pt_clust_4="32.13392" pt_clust_5="14000.00000" pt_clust_6="94.97729"></scales>
<clustering>
<clus scale="   32.134">  2  4  1 -1</clus>
<clus scale="   74.874">  1  3  2 -1</clus>
<clus scale="   94.977">  1  6  2 -1</clus>
<clus scale="   74.874">  1  3  2 -1</clus>
</clustering>
</event>
<event>
 6    0  0.1080632E+003  0.2024197E+03  0.7546771E-02  0.1147713E+00
         21   -1    0    0  503  501  0.00000000000E+00  0.00000000000E+00  0.21493476590E+03  0.21493476590E+03  0.00000000000E+00 0. -1.
         21   -1    0    0  505  502 -0.00000000000E+00 -0.00000000000E+00 -0.49118822209E+03  0.49118822209E+03  0.00000000000E+00 0.  1.
         21    1    1    2  503  506  0.89085148204E+01 -0.13963010272E+03 -0.45547025178E+02  0.14714094849E+03  0.00000000000E+00 0.  1.
         21    1    1    2  504  501 -0.35428256859E+02  0.12920986781E+03  0.17081318580E+02  0.13506340277E+03  0.00000000000E+00 0. -1.
         21    1    1    2  505  504  0.38849665140E+02  0.98061996666E+02  0.47480471809E+02  0.11567128803E+03  0.00000000000E+00 0. -1.
         21    1    1    2  506  502 -0.12329923101E+02 -0.87641761761E+02 -0.29526822140E+03  0.30824734869E+03  0.00000000000E+00 0.  1.
<scales pt_clust_3="184.22343" pt_clust_4="74.42301" pt_clust_5="74.42301" pt_clust_6="88.50483"></scales>
<clustering>
<clus scale="   74.423">  4  5 -1 -1</clus>
<clus scale="   88.505">  2  6  1 -1</clus>
<clus scale="  184.223">  2  3  1 -1</clus>
<clus scale="  202.420">  1  3  2 -1</clus>
</clustering>
</event>
<event>
 6    0  0.1080632E+003  0.1019618E+03  0.7546771E-02  0.1276224E+00
         21   -1    0    0  504  501  0.00000000000E+00  0.00000000000E+00  0.10616968472E+03  0.10616968472E+03  0.00000000000E+00 0.  1.
         21   -1    0    0  503  502 -0.00000000000E+00 -0.00000000000E+00 -0.31232635144E+03  0.31232635144E+03  0.00000000000E+00 0.  1.
         21    1    1    2  503  505  0.36881808219E+02 -0.26866038060E+01 -0.15400131952E+03  0.15837895073E+03  0.00000000000E+00 0.  1.
         21    1    1    2  504  502  0.77842104295E+02  0.47794595281E+02 -0.27235705898E+02  0.95317890319E+02  0.00000000000E+00 0.  1.
         21    1    1    2  505  506 -0.12218054633E+03 -0.69833880656E+01 -0.28908479844E+02  0.12574797739E+03  0.00000000000E+00 0.  1.
         21    1    1    2  506  501  0.74566338137E+01 -0.38124603409E+02  0.39888385491E+01  0.39051217727E+02  0.00000000000E+00 0.  1.
<scales pt_clust_3="36.97953" pt_clust_4="101.96183" pt_clust_5="14000.00000" pt_clust_6="40.13833"></scales>
<clustering>
<clus scale="   36.980">  2  3  1 -1</clus>
<clus scale="   40.138">  1  6  2 -1</clus>
<clus scale="  101.962">  1  4  2 -1</clus>
<clus scale="   40.138">  1  3  2 -1</clus>
</clustering>
</event>
<event>
 6    0  0.1080632E+003  0.1547287E+03  0.7546771E-02  0.1194780E+00
         21   -1    0    0  504  501  0.00000000000E+00  0.00000000000E+00  0.62540622776E+03  0.62540622776E+03  0.00000000000E+00 0. -1.
         21   -1    0    0  503  502 -0.00000000000E+00 -0.00000000000E+00 -0.10859188409E+04  0.10859188409E+04  0.00000000000E+00 0. -1.
         21    1    1    2  503  506  0.10661632045E+03 -0.11340240981E+03 -0.10223777090E+04  0.10341582694E+04  0.00000000000E+00 0. -1.
         21    1    1    2  504  505 -0.95731706956E+02  0.21991043908E+02  0.16888651307E+03  0.19537353972E+03  0.00000000000E+00 0. -1.
         21    1    1    2  505  502  0.32877645034E+02  0.16255630363E+03  0.35122281891E+03  0.38841081333E+03  0.00000000000E+00 0. -1.
         21    1    1    2  506  501 -0.43762258527E+02 -0.71144937732E+02  0.41755763899E+02  0.93382446182E+02  0.00000000000E+00 0. -1.
<scales pt_clust_3="154.72871" pt_clust_4="110.02674" pt_clust_5="14000.00000" pt_clust_6="83.52687"></scales>
<clustering>
<clus scale="   83.527">  1  6  2 -1</clus>
<clus scale="  110.027">  1  4  2 -1</clus>
<clus scale="  154.729">  2  3  1 -1</clus>
<clus scale="   83.527">  1  3  2 -1</clus>
</clustering>
</event>
<event>
 6    0  0.1080632E+003  0.1031685E+03  0.7546771E-02  0.1273771E+00
         21   -1    0    0  503  501  0.00000000000E+00  0.00000000000E+00  0.20439289923E+04  0.20439289923E+04  0.00000000000E+00 0. -1.
         21   -1    0    0  501  502 -0.00000000000E+00 -0.00000000000E+00 -0.16185174665E+03  0.16185174665E+03  0.00000000000E+00 0. -1.
         21    1    1    2  503  505  0.32699298635E+02 -0.23031206355E+02  0.32618022663E+03  0.32862322018E+03  0.00000000000E+00 0. -1.
         21    1    1    2  504  506 -0.98139172579E+02 -0.37548877948E+02  0.11702755576E+03  0.15727893768E+03  0.00000000000E+00 0. -1.
         21    1    1    2  505  504  0.48505199705E+02  0.89105622469E+02  0.15757616563E+04  0.15790241809E+04  0.00000000000E+00 0. -1.
         21    1    1    2  506  502  0.16934674239E+02 -0.28525538165E+02 -0.13689219308E+03  0.14085440016E+03  0.00000000000E+00 0. -1.
<scales pt_clust_3="41.61143" pt_clust_4="103.16851" pt_clust_5="14000.00000" pt_clust_6="33.17363"></scales>
<clustering>
<clus scale="   33.174">  2  6  1 -1</clus>
<clus scale="   41.611">  1  3  2 -1</clus>
<clus scale="  103.169">  2  4  1 -1</clus>
<clus scale="   41.611">  1  3  2 -1</clus>
</clustering>
</event>
<event>
 6    0  0.1080632E+003  0.1549556E+03  0.7546771E-02  0.1194513E+00
         21   -1    0    0  504  501  0.00000000000E+00  0.00000000000E+00  0.77283782764E+03  0.77283782764E+03  0.00000000000E+00 0.  1.
         21   -1    0    0  506  502 -0.00000000000E+00 -0.00000000000E+00 -0.70411831337E+02  0.70411831337E+02  0.00000000000E+00 0.  1.
         21    1    1    2  503  502 -0.21109809939E+02 -0.29103398342E+02  0.49056641555E+02  0.60820933496E+02  0.00000000000E+00 0.  1.
         21    1    1    2  504  503 -0.20912834730E+02 -0.12192928284E+03  0.46836240923E+02  0.13227898598E+03  0.00000000000E+00 0.  1.
         21    1    1    2  505  501  0.12218157733E+01  0.32076472404E+02  0.44148259792E+03  0.44264802855E+03  0.00000000000E+00 0.  1.
         21    1    1    2  506  505  0.40800828895E+02  0.11895620877E+03  0.16505051591E+03  0.20750171095E+03  0.00000000000E+00 0.  1.
<scales pt_clust_3="31.96331" pt_clust_4="31.96331" pt_clust_5="32.09973" pt_clust_6="143.16379"></scales>
<clustering>
<clus scale="   31.963">  3  4 -1 -1</clus>
<clus scale="   32.100">  1  5  2 -1</clus>
<clus scale="  143.164">  1  6  2 -1</clus>
<clus scale="   32.100">  1  3  2 -1</clus>
</clustering>
</event>
<event>
 6    0  0.1080632E+003  0.1509993E+03  0.7546771E-02  0.1199250E+00
         21   -1    0    0  504  501  0.00000000000E+00  0.00000000000E+00  0.29717697762E+02  0.29717697762E+02  0.00000000000E+00 0.  1.
         21   -1    0    0  505  502 -0.00000000000E+00 -0.00000000000E+00 -0.11536358733E+04  0.11536358733E+04  0.00000000000E+00 0.  1.
         21    1    1    2  503  501 -0.81694171005E+01  0.36947491213E+02 -0.10040635028E+03  0.10730000773E+03  0.00000000000E+00 0.  1.
         21    1    1    2  504  502 -0.13337867762E+03 -0.57723982418E+02 -0.74999341890E+03  0.76394506228E+03  0.00000000000E+00 0.  1.
         21    1    1    2  505  506  0.44895408448E+02 -0.14047556051E+01 -0.13098337468E+03  0.13847099148E+03  0.00000000000E+00 0. -1.
         21    1    1    2  506  503  0.96652686275E+02  0.22181246810E+02 -0.14253503166E+03  0.17363750956E+03  0.00000000000E+00 0.  1.
<scales pt_clust_3="37.83988" pt_clust_4="143.76687" pt_clust_5="31.07478" pt_clust_6="31.07478"></scales>
<clustering>
<clus scale="   31.075">  5  6 -1 -1</clus>
<clus scale="   37.840">  1  3  2 -1</clus>
<clus scale="  143.767">  2  4  1 -1</clus>
<clus scale="   37.840">  1  3  2 -1</clus>
</clustering>
</event>
<event>
 6    0  0.1080632E+003  0.1049937E+03  0.7546771E-02  0.1270132E+00
         21   -1    0    0  506  501  0.00000000000E+00  0.00000000000E+00  0.35499179499E+02  0.35499179499E+02  0.00000000000E+00 0.  1.
         21   -1    0    0  505  502 -0.00000000000E+00 -0.00000000000E+00 -0.13754457417E+04  0.13754457417E+04  0.00000000000E+00 0.  1.
         21    1    1    2  503  504  0.70268240373E+02  0.30982124629E+02 -0.37912781475E+02  0.85644011179E+02  0.00000000000E+00 0.  1.
         21    1    1    2  504  501 -0.24754113731E+02  0.22950146734E+02 -0.52827396402E+02  0.62691380527E+02  0.00000000000E+00 0.  1.
         21    1    1    2  505  503 -0.97773059752E+02 -0.46329342737E+02 -0.10787001346E+04  0.10841125216E+04  0.00000000000E+00 0.  1.
         21    1    1    2  506  502  0.52258933110E+02 -0.76029286262E+01 -0.17050624970E+03  0.17849700782E+03  0.00000000000E+00 0.  1.
<scales pt_clust_3="14000.00000" pt_clust_4="33.75612" pt_clust_5="104.99369" pt_clust_6="49.23901"></scales>
<clustering>
<clus scale="   33.756">  1  4  2 -1</clus>
<clus scale="   49.239">  1  6  2 -1</clus>
<clus scale="  104.994">  2  5  1 -1</clus>
<clus scale="   33.756">  1  3  2 -1</clus>
</clustering>
</event>
<event>
 6    0  0.1080632E+003  0.1209038E+03  0.7546771E-02  0.1241613E+00
         21   -1    0    0  503  501  0.00000000000E+00  0.00000000000E+00  0.57132210545E+03  0.57132210545E+03  0.00000000000E+00 0. -1.
         21   -1    0    0  505  502 -0.00000000000E+00 -0.00000000000E+00 -0.57764635036E+03  0.57764635036E+03  0.00000000000E+00 0.  1.
         21    1    1    2  503  506 -0.20746950792E+02  0.99246549793E+02  0.42416446887E+03  0.43611444629E+03  0.00000000000E+00 0. -1.
         21    1    1    2  504  502  0.97761815342E+02  0.69094915799E+02 -0.47903233724E+03  0.49376457959E+03  0.00000000000E+00 0.  1.
         21    1    1    2  505  501 -0.31484911733E+02 -0.37706129941E+01  0.35855515097E+02  0.47865803577E+02  0.00000000000E+00 0.  1.
         21    1    1    2  506  504 -0.45529952817E+02 -0.16457085260E+03  0.12688108368E+02  0.17122362635E+03  0.00000000000E+00 0. -1.
<scales pt_clust_3="106.75805" pt_clust_4="14000.00000" pt_clust_5="31.70989" pt_clust_6="120.90379"></scales>
<clustering>
<clus scale="   31.710">  1  5  2 -1</clus>
<clus scale="  106.758">  1  3  2 -1</clus>
<clus scale="  120.904">  1  6  2 -1</clus>
<clus scale="   31.710">  1  3  2 -1</clus>
</clustering>
</event>
<event>
 6    0  0.1080632E+003  0.1114821E+03  0.7546771E-02  0.1257850E+00
         21   -1    0    0  504  501  0.00000000000E+00  0.00000000000E+00  0.11463066799E+03  0.11463066799E+03  0.00000000000E+00 0.  1.
         21   -1    0    0  506  502 -0.00000000000E+00 -0.00000000000E+00 -0.10834619256E+04  0.10834619256E+04  0.00000000000E+00 0. -1.
         21    1    1    2  503  505 -0.91594144482E+02  0.49005798197E+00 -0.27647599708E+03  0.29125367710E+03  0.00000000000E+00 0. -1.
         21    1    1    2  504  503  0.29928622808E+02  0.23071586855E+02 -0.43590760329E+02  0.57690336879E+02  0.00000000000E+00 0. -1.
         21    1    1    2  505  502 -0.24231453703E+02  0.32735505918E+02 -0.72191230783E+03  0.72306027197E+03  0.00000000000E+00 0. -1.
         21    1    1    2  506  501  0.85896975376E+02 -0.56297150754E+02  0.73147807632E+02  0.12608830764E+03  0.00000000000E+00 0.  1.
<scales pt_clust_3="14000.00000" pt_clust_4="37.78916" pt_clust_5="40.73252" pt_clust_6="111.48208"></scales>
<clustering>
<clus scale="   37.789">  1  4  2 -1</clus>
<clus scale="   40.733">  2  5  1 -1</clus>
<clus scale="  111.482">  1  6  2 -1</clus>
<clus scale="   37.789">  1  3  2 -1</clus>
</clustering>
</event>
<event>
 6    0  0.1080632E+003  0.7874285E+02  0.7546771E-02  0.1332657E+00
         21   -1    0    0  503  501  0.00000000000E+00  0.00000000000E+00  0.86126465177E+03  0.86126465177E+03  0.00000000000E+00 0. -1.
         21   -1    0    0  504  502 -0.00000000000E+00 -0.00000000000E+00 -0.16606398042E+04  0.16606398042E+04  0.00000000000E+00 0.  1.
         21    1    1    2  503  505 -0.12366643585E+02 -0.27518560063E+02  0.81745818045E+03  0.81801471980E+03  0.00000000000E+00 0. -1.
         21    1    1    2  504  501  0.58137782918E+02  0.68073836432E+02 -0.68639150382E+02  0.11280683479E+03  0.00000000000E+00 0.  1.
         21    1    1    2  505  506  0.33940733783E+02 -0.43995562438E+02 -0.17422548482E+02  0.58233393509E+02  0.00000000000E+00 0.  1.
         21    1    1    2  506  502 -0.79711873117E+02  0.34402860696E+01 -0.15307716340E+04  0.15328495078E+04  0.00000000000E+00 0.  1.
<scales pt_clust_3="30.16960" pt_clust_4="78.74285" pt_clust_5="63.47593" pt_clust_6="14000.00000"></scales>
<clustering>
<clus scale="   30.170">  1  3  2 -1</clus>
<clus scale="   63.476">  1  5  2 -1</clus>
<clus scale="   78.743">  1  4  2 -1</clus>
<clus scale="   30.170">  1  3  2 -1</clus>
</clustering>
</event>
<event>
 6    0  0.1080632E+003  0.1742241E+03  0.7546771E-02  0.1173513E+00
         21   -1    0    0  504  501  0.00000000000E+00  0.00000000000E+00  0.10254440413E+04  0.10254440413E+04  0.00000000000E+00 0. -1.
         21   -1    0    0  505  502 -0.00000000000E+00 -0.00000000000E+00 -0.93627160519E+02  0.93627160519E+02  0.00000000000E+00 0.  1.
         21    1    1    2  503  501  0.41224986156E+02 -0.68944190576E+02  0.43416203501E+03  0.44153082966E+03  0.00000000000E+00 0. -1.
         21    1    1    2  504  506 -0.55972056256E+02  0.31325069410E+02  0.10637931458E+03  0.12422032694E+03  0.00000000000E+00 0. -1.
         21    1    1    2  505  503  0.11511157878E+03 -0.11225468933E+03  0.32235081433E+03  0.36022470535E+03  0.00000000000E+00 0. -1.
         21    1    1    2  506  502 -0.10036450868E+03  0.14987381050E+03  0.68924716824E+02  0.19309533983E+03  0.00000000000E+00 0.  1.
<scales pt_clust_3="55.73963" pt_clust_4="64.14149" pt_clust_5="14000.00000" pt_clust_6="174.22409"></scales>
<clustering>
<clus scale="   64.141">  1  4  2 -1</clus>
<clus scale="   55.740">  1  3  2 -1</clus>
<clus scale="  174.224">  2  6  1 -1</clus>
<clus scale="   64.141">  1  3  2 -1</clus>
</clustering>
</event>
<event>
 6    0  0.1080632E+003  0.8937720E+02  0.7546771E-02  0.1304367E+00
         21   -1    0    0  505  501  0.00000000000E+00  0.00000000000E+00  0.24936263351E+04  0.24936263351E+04  0.00000000000E+00 0.  1.
         21   -1    0    0  503  502 -0.00000000000E+00 -0.00000000000E+00 -0.23530696007E+03  0.23530696007E+03  0.00000000000E+00 0. -1.
         21    1    1    2  503  501  0.84559059999E+02  0.31284067579E+02  0.23946607809E+04  0.23963574823E+04  0.00000000000E+00 0.  1.
         21    1    1    2  504  506 -0.72903576747E+02  0.32178087011E+02 -0.20960414261E+02  0.82399634417E+02  0.00000000000E+00 0. -1.
         21    1    1    2  505  504 -0.40620394793E+02 -0.74124016305E+02  0.38751148709E+02  0.92984072790E+02  0.00000000000E+00 0.  1.
         21    1    1    2  506  502  0.28964911541E+02  0.10661861715E+02 -0.15413214032E+03  0.15719210563E+03  0.00000000000E+00 0. -1.
<scales pt_clust_3="89.37720" pt_clust_4="66.75543" pt_clust_5="14000.00000" pt_clust_6="30.86489"></scales>
<clustering>
<clus scale="   30.865">  2  6  1 -1</clus>
<clus scale="   66.755">  2  4  1 -1</clus>
<clus scale="   89.377">  1  3  2 -1</clus>
<clus scale="   89.377">  1  3  2 -1</clus>
</clustering>
</event>
<event>
 6    0  0.1080632E+003  0.1526660E+03  0.7546771E-02  0.1197235E+00
         21   -1    0    0  505  501  0.00000000000E+00  0.00000000000E+00  0.44501816338E+03  0.44501816338E+03  0.00000000000E+00 0.  1.
         21   -1    0    0  504  502 -0.00000000000E+00 -0.00000000000E+00 -0.55345526598E+03  0.55345526598E+03  0.00000000000E+00 0. -1.
         21    1    1    2  503  506 -0.40008782448E+02 -0.17956478964E+02 -0.63692013656E+02  0.77329233885E+02  0.00000000000E+00 0. -1.
         21    1    1    2  504  501  0.10705493256E+03 -0.58902125665E+01 -0.14987720745E+03  0.18427867620E+03  0.00000000000E+00 0.  1.
         21    1    1    2  505  503  0.51450156483E+02 -0.45804939205E+02  0.40298348380E+03  0.40882869184E+03  0.00000000000E+00 0.  1.
         21    1    1    2  506  502 -0.11849630659E+03  0.69651630736E+02 -0.29785136530E+03  0.32803682743E+03  0.00000000000E+00 0. -1.
<scales pt_clust_3="43.06093" pt_clust_4="132.26917" pt_clust_5="68.88549" pt_clust_6="43.06093"></scales>
<clustering>
<clus scale="   43.061">  3  6 -1 -1</clus>
<clus scale="   68.885">  1  5  2 -1</clus>
<clus scale="  132.269">  2  4  1 -1</clus>
<clus scale="   68.885">  1  3  2 -1</clus>
</clustering>
</event>
<event>
 6    0  0.1080632E+003  0.9969500E+02  0.7546771E-02  0.1280939E+00
         21   -1    0    0  504  501  0.00000000000E+00  0.00000000000E+00  0.79252810571E+03  0.79252810571E+03  0.00000000000E+00 0. -1.
         21   -1    0    0  503  502 -0.00000000000E+00 -0.00000000000E+00 -0.84853787028E+03  0.84853787028E+03  0.00000000000E+00 0. -1.
         21    1    1    2  503  506 -0.72103460633E+02 -0.57506239525E+02  0.18727835463E+03  0.20875597891E+03  0.00000000000E+00 0. -1.
         21    1    1    2  504  505  0.13609189210E+03 -0.41772715969E+01  0.55481653287E+03  0.57127912428E+03  0.00000000000E+00 0. -1.
         21    1    1    2  505  502 -0.25150247283E+02  0.44682942819E+02 -0.81410345285E+03  0.81571657594E+03  0.00000000000E+00 0. -1.
         21    1    1    2  506  501 -0.38838184186E+02  0.17000568303E+02  0.15998800783E+02  0.45314296861E+02  0.00000000000E+00 0. -1.
<scales pt_clust_3="14000.00000" pt_clust_4="99.69500" pt_clust_5="51.31061" pt_clust_6="42.39604"></scales>
<clustering>
<clus scale="   42.396">  1  6  2 -1</clus>
<clus scale="   51.311">  2  5  1 -1</clus>
<clus scale="   99.695">  1  4  2 -1</clus>
<clus scale="   42.396">  1  3  2 -1</clus>
</clustering>
</event>
<event>
 6    0  0.1080632E+003  0.1517008E+03  0.7546771E-02  0.1198399E+00
         21   -1    0    0  504  501  0.00000000000E+00  0.00000000000E+00  0.55967352555E+02  0.55967352555E+02  0.00000000000E+00 0. -1.
         21   -1    0    0  505  502 -0.00000000000E+00 -0.00000000000E+00 -0.20230549436E+04  0.20230549436E+04  0.00000000000E+00 0.  1.
         21    1    1    2  503  501  0.87449435029E+02  0.14410357185E+03 -0.66006387490E+03  0.68124706389E+03  0.00000000000E+00 0.  1.
         21    1    1    2  504  506 -0.52628245152E+02 -0.11071798962E+03 -0.48313516898E+02  0.13176646512E+03  0.00000000000E+00 0. -1.
         21    1    1    2  505  503 -0.17429596382E+02  0.38041113464E+02 -0.18013336473E+03  0.18492957100E+03  0.00000000000E+00 0.  1.
         21    1    1    2  506  502 -0.17391593495E+02 -0.71426695688E+02 -0.10785768345E+04  0.10810791962E+04  0.00000000000E+00 0.  1.
<scales pt_clust_3="39.39257" pt_clust_4="129.46825" pt_clust_5="39.39257" pt_clust_6="73.51354"></scales>
<clustering>
<clus scale="   39.393">  3  5 -1 -1</clus>
<clus scale="   73.514">  2  6  1 -1</clus>
<clus scale="  129.468">  1  4  2 -1</clus>
<clus scale="  129.468">  1  3  2 -1</clus>
</clustering>
</event>
<event>
 6    0  0.1080632E+003  0.1266086E+03  0.7546771E-02  0.1232577E+00
         21   -1    0    0  504  501  0.00000000000E+00  0.00000000000E+00  0.10166801143E+03  0.10166801143E+03  0.00000000000E+00 0.  1.
         21   -1    0    0  503  502 -0.00000000000E+00 -0.00000000000E+00 -0.13259097282E+04  0.13259097282E+04  0.00000000000E+00 0.  1.
         21    1    1    2  503  506  0.48151845551E+02 -0.59043490165E+02 -0.71081079244E+03  0.71488230962E+03  0.00000000000E+00 0.  1.
         21    1    1    2  504  502 -0.33586074486E+02 -0.17389281691E+01 -0.15033177993E+03  0.15404769498E+03  0.00000000000E+00 0.  1.
         21    1    1    2  505  501 -0.10987429949E+03  0.71560251311E+02  0.45614291345E+02  0.13883045354E+03  0.00000000000E+00 0.  1.
         21    1    1    2  506  505  0.95308528426E+02 -0.10777832977E+02 -0.40871343576E+03  0.41981728149E+03  0.00000000000E+00 0.  1.
<scales pt_clust_3="66.19842" pt_clust_4="33.63106" pt_clust_5="14000.00000" pt_clust_6="126.60860"></scales>
<clustering>
<clus scale="   33.631">  2  4  1 -1</clus>
<clus scale="   66.198">  2  3  1 -1</clus>
<clus scale="  126.609">  2  6  1 -1</clus>
<clus scale="  126.609">  1  3  2 -1</clus>
</clustering>
</event>
<event>
 6    0  0.1080632E+003  0.1863443E+03  0.7546771E-02  0.1161800E+00
         21   -1    0    0  504  501  0.00000000000E+00  0.00000000000E+00  0.78225068133E+03  0.78225068133E+03  0.00000000000E+00 0. -1.
         21   -1    0    0  505  502 -0.00000000000E+00 -0.00000000000E+00 -0.62830636853E+03  0.62830636853E+03  0.00000000000E+00 0.  1.
         21    1    1    2  503  506 -0.10920178420E+03  0.99099059509E+02  0.38185731223E+02  0.15232794667E+03  0.00000000000E+00 0.  1.
         21    1    1    2  504  502  0.20154958009E+03 -0.13468613738E+03 -0.45308663356E+02  0.24660791514E+03  0.00000000000E+00 0.  1.
         21    1    1    2  505  503 -0.93458936782E+02 -0.24554741424E+02 -0.41821036361E+03  0.42922886252E+03  0.00000000000E+00 0.  1.
         21    1    1    2  506  501  0.11111408953E+01  0.60141819293E+02  0.57927760855E+03  0.58239232552E+03  0.00000000000E+00 0. -1.
<scales pt_clust_3="186.34429" pt_clust_4="14000.00000" pt_clust_5="96.19640" pt_clust_6="60.15208"></scales>
<clustering>
<clus scale="   60.152">  1  6  2 -1</clus>
<clus scale="   96.196">  2  5  1 -1</clus>
<clus scale="  186.344">  1  3  2 -1</clus>
<clus scale="   60.152">  1  3  2 -1</clus>
</clustering>
</event>
<event>
 6    0  0.1080632E+003  0.9540296E+02  0.7546771E-02  0.1290271E+00
         21   -1    0    0  506  501  0.00000000000E+00  0.00000000000E+00  0.76156002248E+03  0.76156002248E+03  0.00000000000E+00 0. -1.
         21   -1    0    0  505  502 -0.00000000000E+00 -0.00000000000E+00 -0.26784658968E+03  0.26784658968E+03  0.00000000000E+00 0. -1.
         21    1    1    2  503  502  0.50036821015E+02 -0.10018313753E+03 -0.21861333291E+03  0.24562600397E+03  0.00000000000E+00 0. -1.
         21    1    1    2  504  501  0.62090807682E+01  0.11870884995E+03  0.69897572245E+03  0.70901156853E+03  0.00000000000E+00 0. -1.
         21    1    1    2  505  504 -0.34200478645E+02  0.76783880125E+01 -0.58079458489E+01  0.35529742710E+02  0.00000000000E+00 0. -1.
         21    1    1    2  506  503 -0.22045423138E+02 -0.26204100430E+02  0.19158989114E+02  0.39239296943E+02  0.00000000000E+00 0.  1.
<scales pt_clust_3="95.40296" pt_clust_4="14000.00000" pt_clust_5="35.37720" pt_clust_6="34.24406"></scales>
<clustering>
<clus scale="   34.244">  1  6  2 -1</clus>
<clus scale="   35.377">  2  5  1 -1</clus>
<clus scale="   95.403">  2  3  1 -1</clus>
<clus scale="   34.244">  1  3  2 -1</clus>
</clustering>
</event>
<event>
 6    0  0.1080632E+003  0.9156293E+02  0.7546771E-02  0.1299110E+00
         21   -1    0    0  503  501  0.00000000000E+00  0.00000000000E+00  0.46715868711E+02  0.46715868711E+02  0.00000000000E+00 0. -1.
         21   -1    0    0  504  502 -0.00000000000E+00 -0.00000000000E+00 -0.14714540410E+04  0.14714540410E+04  0.00000000000E+00 0.  1.
         21    1    1    2  503  502 -0.55951958461E+02  0.58845445552E+02 -0.12065959347E+04  0.12093250836E+04  0.00000000000E+00 0.  1.
         21    1    1    2  504  506  0.35551045385E+02 -0.46810604634E+02 -0.11072050944E+03  0.12535605588E+03  0.00000000000E+00 0.  1.
         21    1    1    2  505  501 -0.48392285700E+02  0.23831523471E+02 -0.38458038473E+01  0.54079062801E+02  0.00000000000E+00 0. -1.
         21    1    1    2  506  505  0.68793198776E+02 -0.35866364389E+02 -0.10357592433E+03  0.12940970749E+03  0.00000000000E+00 0.  1.
<scales pt_clust_3="84.40580" pt_clust_4="30.89038" pt_clust_5="53.94214" pt_clust_6="30.89038"></scales>
<clustering>
<clus scale="   30.890">  4  6 -1 -1</clus>
<clus scale="   53.942">  1  5  2 -1</clus>
<clus scale="   84.406">  2  3  1 -1</clus>
<clus scale="   53.942">  1  3  2 -1</clus>
</clustering>
</event>
<event>
 6    0  0.1080632E+003  0.1329928E+03  0.7546771E-02  0.1223081E+00
         21   -1    0    0  505  501  0.00000000000E+00  0.00000000000E+00  0.78986420659E+02  0.78986420659E+02  0.00000000000E+00 0.  1.
         21   -1    0    0  503  502 -0.00000000000E+00 -0.00000000000E+00 -0.46106448095E+03  0.46106448095E+03  0.00000000000E+00 0.  1.
         21    1    1    2  503  501  0.77785781413E+02 -0.11011228174E+03 -0.23693798200E+03  0.27260768458E+03  0.00000000000E+00 0.  1.
         21    1    1    2  504  506 -0.44056954749E+02  0.49350726626E+02 -0.21794139391E+02  0.69652666798E+02  0.00000000000E+00 0.  1.
         21    1    1    2  505  504 -0.53439656639E+02  0.33433540653E+02  0.67547613277E+01  0.63397360693E+02  0.00000000000E+00 0.  1.
         21    1    1    2  506  502  0.19710829975E+02  0.27328014464E+02 -0.13010070023E+03  0.13439318953E+03  0.00000000000E+00 0.  1.
<scales pt_clust_3="128.72368" pt_clust_4="32.62868" pt_clust_5="32.62868" pt_clust_6="33.69477"></scales>
<clustering>
<clus scale="   32.629">  4  5 -1 -1</clus>
<clus scale="   33.695">  2  6  1 -1</clus>
<clus scale="  128.724">  2  3  1 -1</clus>
<clus scale="  132.993">  1  3  2 -1</clus>
</clustering>
</event>
<event>
 6    0  0.1080632E+003  0.1158583E+03  0.7546771E-02  0.1250090E+00
         21   -1    0    0  504  501  0.00000000000E+00  0.00000000000E+00  0.10150454178E+04  0.10150454178E+04  0.00000000000E+00 0. -1.
         21   -1    0    0  505  502 -0.00000000000E+00 -0.00000000000E+00 -0.27995599575E+03  0.27995599575E+03  0.00000000000E+00 0.  1.
         21    1    1    2  503  502  0.53970877132E+01 -0.95512240073E+02  0.17639180984E+03  0.20066336770E+03  0.00000000000E+00 0. -1.
         21    1    1    2  504  503 -0.51760317285E+02 -0.39245579715E+02  0.15964203347E+03  0.17235116717E+03  0.00000000000E+00 0. -1.
         21    1    1    2  505  506  0.76695955919E+02  0.91131375179E+02 -0.24675263209E+03  0.27399645735E+03  0.00000000000E+00 0.  1.
         21    1    1    2  506  501 -0.30332726348E+02  0.43626444609E+02  0.64580821085E+03  0.64799042135E+03  0.00000000000E+00 0. -1.
<scales pt_clust_3="14000.00000" pt_clust_4="68.30227" pt_clust_5="115.85831" pt_clust_6="53.13512"></scales>
<clustering>
<clus scale="   53.135">  1  6  2 -1</clus>
<clus scale="   68.302">  1  4  2 -1</clus>
<clus scale="  115.858">  2  5  1 -1</clus>
<clus scale="   53.135">  1  3  2 -1</clus>
</clustering>
</event>
<event>
 6    0  0.1080632E+003  0.1869214E+03  0.7546771E-02  0.1161268E+00
         21   -1    0    0  506  501  0.00000000000E+00  0.00000000000E+00  0.52500462069E+03  0.52500462069E+03  0.00000000000E+00 0.  1.
         21   -1    0    0  505  502 -0.00000000000E+00 -0.00000000000E+00 -0.13576416497E+03  0.13576416497E+03  0.00000000000E+00 0.  1.
         21    1    1    2  503  501  0.32023549821E+02 -0.16363039692E+03  0.24108458233E+03  0.29312487164E+03  0.00000000000E+00 0.  1.
         21    1    1    2  504  503 -0.69438529003E+02  0.11360363130E+03  0.14051732764E+03  0.19357844333E+03  0.00000000000E+00 0.  1.
         21    1    1    2  505  504 -0.43210807955E+02  0.67727744295E+02  0.34252313207E+02  0.87335229039E+02  0.00000000000E+00 0.  1.
         21    1    1    2  506  502  0.80625787137E+02 -0.17700978683E+02 -0.26613767454E+02  0.86730241646E+02  0.00000000000E+00 0.  1.
<scales pt_clust_3="179.28321" pt_clust_4="41.08232" pt_clust_5="41.08232" pt_clust_6="82.54600"></scales>
<clustering>
<clus scale="   41.082">  4  5 -1 -1</clus>
<clus scale="   82.546">  2  6  1 -1</clus>
<clus scale="  179.283">  1  3  2 -1</clus>
<clus scale="  179.283">  1  3  2 -1</clus>
</clustering>
</event>
<event>
 6    0  0.1080632E+003  0.1631042E+03  0.7546771E-02  0.1185236E+00
         21   -1    0    0  505  501  0.00000000000E+00  0.00000000000E+00  0.47781208913E+03  0.47781208913E+03  0.00000000000E+00 0. -1.
         21   -1    0    0  501  502 -0.00000000000E+00 -0.00000000000E+00 -0.13478169849E+03  0.13478169849E+03  0.00000000000E+00 0. -1.
         21    1    1    2  503  504 -0.12010113996E+03 -0.31452706055E+02  0.82245780913E+02  0.14892254703E+03  0.00000000000E+00 0. -1.
         21    1    1    2  504  502  0.10000269352E+03  0.10958388964E+03 -0.27906534424E+02  0.15095675620E+03  0.00000000000E+00 0. -1.
         21    1    1    2  505  506  0.52152398717E+02 -0.44101159587E+02  0.21366122452E+03  0.22431206796E+03  0.00000000000E+00 0. -1.
         21    1    1    2  506  503 -0.32053952278E+02 -0.34030023999E+02  0.75029919635E+02  0.88402416429E+02  0.00000000000E+00 0. -1.
<scales pt_clust_3="39.52289" pt_clust_4="149.84876" pt_clust_5="68.29923" pt_clust_6="39.52289"></scales>
<clustering>
<clus scale="   39.523">  3  6 -1 -1</clus>
<clus scale="   68.299">  1  5  2 -1</clus>
<clus scale="  149.849">  2  4  1 -1</clus>
<clus scale="   68.299">  1  3  2 -1</clus>
</clustering>
</event>
<event>
 6    0  0.1080632E+003  0.1892215E+03  0.7546771E-02  0.1159165E+00
         21   -1    0    0  506  501  0.00000000000E+00  0.00000000000E+00  0.30279175392E+03  0.30279175392E+03  0.00000000000E+00 0. -1.
         21   -1    0    0  503  502 -0.00000000000E+00 -0.00000000000E+00 -0.11775403535E+04  0.11775403535E+04  0.00000000000E+00 0.  1.
         21    1    1    2  503  505 -0.25978676242E+02  0.65766472966E+02 -0.71768006482E+03  0.72115518165E+03  0.00000000000E+00 0.  1.
         21    1    1    2  504  502  0.19514989299E+03  0.28548257348E+02  0.11431478408E+03  0.22796129845E+03  0.00000000000E+00 0. -1.
         21    1    1    2  505  501 -0.15318802194E+03 -0.12580869288E+03 -0.37367527883E+03  0.42299835848E+03  0.00000000000E+00 0.  1.
         21    1    1    2  506  504 -0.15983194804E+02  0.31493962561E+02  0.10229196000E+03  0.10821726884E+03  0.00000000000E+00 0. -1.
<scales pt_clust_3="71.02084" pt_clust_4="14000.00000" pt_clust_5="189.22153" pt_clust_6="35.31759"></scales>
<clustering>
<clus scale="   35.318">  1  6  2 -1</clus>
<clus scale="   71.021">  2  3  1 -1</clus>
<clus scale="  189.222">  2  5  1 -1</clus>
<clus scale="   35.318">  1  3  2 -1</clus>
</clustering>
</event>
<event>
 6    0  0.1080632E+003  0.6970101E+02  0.7546771E-02  0.1361113E+00
         21   -1    0    0  503  501  0.00000000000E+00  0.00000000000E+00  0.52361235706E+03  0.52361235706E+03  0.00000000000E+00 0. -1.
         21   -1    0    0  505  502 -0.00000000000E+00 -0.00000000000E+00 -0.57063207877E+02  0.57063207877E+02  0.00000000000E+00 0. -1.
         21    1    1    2  503  506  0.64900608501E+02 -0.79261259846E+01  0.24591485493E+03  0.25445830372E+03  0.00000000000E+00 0. -1.
         21    1    1    2  504  501 -0.89176681618E+02 -0.60937055702E+02  0.14181206716E+03  0.17825955148E+03  0.00000000000E+00 0. -1.
         21    1    1    2  505  504 -0.22631385084E+02  0.41167792266E+02 -0.57827424894E+01  0.47332935907E+02  0.00000000000E+00 0. -1.
         21    1    1    2  506  502  0.46907458201E+02  0.27695389421E+02  0.84604969579E+02  0.10062477383E+03  0.00000000000E+00 0. -1.
<scales pt_clust_3="14000.00000" pt_clust_4="69.70101" pt_clust_5="46.97836" pt_clust_6="56.22071"></scales>
<clustering>
<clus scale="   46.978">  2  5  1 -1</clus>
<clus scale="   56.221">  2  6  1 -1</clus>
<clus scale="   69.701">  2  4  1 -1</clus>
<clus scale="   69.701">  1  3  2 -1</clus>
</clustering>
</event>
<event>
 6    0  0.1080632E+003  0.2575588E+03  0.7546771E-02  0.1108619E+00
         21   -1    0    0  503  501  0.00000000000E+00  0.00000000000E+00  0.56810030097E+03  0.56810030097E+03  0.00000000000E+00 0. -1.
         21   -1    0    0  504  502 -0.00000000000E+00 -0.00000000000E+00 -0.43159127762E+03  0.43159127762E+03  0.00000000000E+00 0. -1.
         21    1    1    2  503  502 -0.18062747578E+02 -0.42359039107E+02 -0.23293116573E+03  0.23743942177E+03  0.00000000000E+00 0. -1.
         21    1    1    2  504  505 -0.14995113140E+03  0.55352400067E+02 -0.76733774194E+02  0.17730567420E+03  0.00000000000E+00 0. -1.
         21    1    1    2  505  506 -0.61225452798E+02  0.63280829399E+02  0.13070556437E+02  0.89016059705E+02  0.00000000000E+00 0. -1.
         21    1    1    2  506  501  0.22923933178E+03 -0.76274190360E+02  0.43310340684E+03  0.49593042291E+03  0.00000000000E+00 0. -1.
<scales pt_clust_3="46.04944" pt_clust_4="65.20128" pt_clust_5="65.20128" pt_clust_6="241.10505"></scales>
<clustering>
<clus scale="   46.049">  2  3  1 -1</clus>
<clus scale="   65.201">  4  5 -1 -1</clus>
<clus scale="  241.105">  1  6  2 -1</clus>
<clus scale="  241.105">  1  3  2 -1</clus>
</clustering>
</event>
<event>
 6    0  0.1080632E+003  0.9092759E+02  0.7546771E-02  0.1300621E+00
         21   -1    0    0  504  501  0.00000000000E+00  0.00000000000E+00  0.40170709338E+03  0.40170709338E+03  0.00000000000E+00 0. -1.
         21   -1    0    0  505  502 -0.00000000000E+00 -0.00000000000E+00 -0.79823229795E+03  0.79823229795E+03  0.00000000000E+00 0. -1.
         21    1    1    2  503  501  0.62305435852E+02 -0.28252455436E+02  0.35541822270E+03  0.36194237332E+03  0.00000000000E+00 0. -1.
         21    1    1    2  504  502 -0.39113824183E+02  0.10262350150E+03 -0.22114626684E+03  0.24691526003E+03  0.00000000000E+00 0. -1.
         21    1    1    2  505  506  0.35126672712E+02 -0.44951904187E+01 -0.49010826833E+03  0.49138600363E+03  0.00000000000E+00 0. -1.
         21    1    1    2  506  503 -0.58318284381E+02 -0.69875855643E+02 -0.40688892103E+02  0.99695754351E+02  0.00000000000E+00 0.  1.
<scales pt_clust_3="68.77093" pt_clust_4="14000.00000" pt_clust_5="35.41313" pt_clust_6="90.92759"></scales>
<clustering>
<clus scale="   35.413">  2  5  1 -1</clus>
<clus scale="   68.771">  1  3  2 -1</clus>
<clus scale="   90.928">  1  6  2 -1</clus>
<clus scale="   68.771">  1  3  2 -1</clus>
</clustering>
</event>
<event>
 6    0  0.1080632E+003  0.1201058E+03  0.7546771E-02  0.1242923E+00
         21   -1    0    0  506  501  0.00000000000E+00  0.00000000000E+00  0.33337413801E+03  0.33337413801E+03  0.00000000000E+00 0.  1.
         21   -1    0    0  505  502 -0.00000000000E+00 -0.00000000000E+00 -0.54199432743E+03  0.54199432743E+03  0.00000000000E+00 0. -1.
         21    1    1    2  503  504  0.53908545101E+02  0.33116679367E+02  0.24501993534E+03  0.25305654389E+03  0.00000000000E+00 0.  1.
         21    1    1    2  504  502 -0.12072549395E+03 -0.17552225470E+02 -0.48211332824E+03  0.49730874391E+03  0.00000000000E+00 0. -1.
         21    1    1    2  505  501  0.13607282020E+02  0.41268687678E+02  0.53166932589E+01  0.43778190162E+02  0.00000000000E+00 0.  1.
         21    1    1    2  506  503  0.53209666825E+02 -0.56833141574E+02  0.23156510216E+02  0.81224987474E+02  0.00000000000E+00 0. -1.
<scales pt_clust_3="14000.00000" pt_clust_4="120.10582" pt_clust_5="43.45414" pt_clust_6="74.61356"></scales>
<clustering>
<clus scale="   43.454">  1  5  2 -1</clus>
<clus scale="   74.614">  1  6  2 -1</clus>
<clus scale="  120.106">  2  4  1 -1</clus>
<clus scale="   43.454">  1  3  2 -1</clus>
</clustering>
</event>
<event>
 6    0  0.1080632E+003  0.1940138E+03  0.7546771E-02  0.1154890E+00
         21   -1    0    0  506  501  0.00000000000E+00  0.00000000000E+00  0.31081917769E+04  0.31081917769E+04  0.00000000000E+00 0. -1.
         21   -1    0    0  504  502 -0.00000000000E+00 -0.00000000000E+00 -0.44347760835E+02  0.44347760835E+02  0.00000000000E+00 0. -1.
         21    1    1    2  503  501  0.13083962128E+02 -0.82702210640E+02  0.21550194905E+04  0.21566455087E+04  0.00000000000E+00 0. -1.
         21    1    1    2  504  503  0.60883788114E+02 -0.10945721834E+03  0.62240780219E+03  0.63488517901E+03  0.00000000000E+00 0. -1.
         21    1    1    2  505  502 -0.10555697675E+01  0.93379372099E+02  0.92140764219E+02  0.13118971679E+03  0.00000000000E+00 0. -1.
         21    1    1    2  506  505 -0.72912180475E+02  0.98780056879E+02  0.19427595916E+03  0.22981913325E+03  0.00000000000E+00 0. -1.
<scales pt_clust_3="83.73079" pt_clust_4="178.17121" pt_clust_5="66.96950" pt_clust_6="66.96950"></scales>
<clustering>
<clus scale="   66.970">  5  6 -1 -1</clus>
<clus scale="   83.731">  1  3  2 -1</clus>
<clus scale="  178.171">  1  4  2 -1</clus>
<clus scale="   83.731">  1  3  2 -1</clus>
</clustering>
</event>
<event>
 6    0  0.1080632E+003  0.8533818E+02  0.7546771E-02  0.1314551E+00
         21   -1    0    0  505  501  0.00000000000E+00  0.00000000000E+00  0.28010359352E+03  0.28010359352E+03  0.00000000000E+00 0. -1.
         21   -1    0    0  506  502 -0.00000000000E+00 -0.00000000000E+00 -0.15973643819E+03  0.15973643819E+03  0.00000000000E+00 0. -1.
         21    1    1    2  503  502 -0.49326611267E+02  0.10245730014E+03 -0.49613392411E+02  0.12406490897E+03  0.00000000000E+00 0. -1.
         21    1    1    2  504  501  0.72095966408E+02 -0.21229245965E+02 -0.11183689285E+02  0.75984104670E+02  0.00000000000E+00 0. -1.
         21    1    1    2  505  503  0.10615550265E+00 -0.50021662251E+02  0.19296155239E+03  0.19933975686E+03  0.00000000000E+00 0. -1.
         21    1    1    2  506  504 -0.22875510644E+02 -0.31206391925E+02 -0.11797315368E+02  0.40451261217E+02  0.00000000000E+00 0. -1.
<scales pt_clust_3="85.33818" pt_clust_4="14000.00000" pt_clust_5="50.76841" pt_clust_6="38.69274"></scales>
<clustering>
<clus scale="   38.693">  2  6  1 -1</clus>
<clus scale="   50.768">  1  5  2 -1</clus>
<clus scale="   85.338">  2  3  1 -1</clus>
<clus scale="   50.768">  1  3  2 -1</clus>
</clustering>
</event>
<event>
 6    0  0.1080632E+003  0.9326282E+02  0.7546771E-02  0.1295137E+00
         21   -1    0    0  504  501  0.00000000000E+00  0.00000000000E+00  0.69434557730E+02  0.69434557730E+02  0.00000000000E+00 0. -1.
         21   -1    0    0  506  502 -0.00000000000E+00 -0.00000000000E+00 -0.11557195606E+04  0.11557195606E+04  0.00000000000E+00 0.  1.
         21    1    1    2  503  502  0.16586008725E+02 -0.37794517907E+02 -0.28803239819E+03  0.29097454128E+03  0.00000000000E+00 0. -1.
         21    1    1    2  504  505 -0.73709039878E+02 -0.62595179177E+02  0.14774415459E+02  0.97823628885E+02  0.00000000000E+00 0. -1.
         21    1    1    2  505  503  0.86470479279E+02 -0.48849438889E+01 -0.33811731216E+03  0.34903341280E+03  0.00000000000E+00 0.  1.
         21    1    1    2  506  501 -0.29347448126E+02  0.10527464097E+03 -0.47490970801E+03  0.48732253540E+03  0.00000000000E+00 0.  1.
<scales pt_clust_3="41.27374" pt_clust_4="14000.00000" pt_clust_5="93.26282" pt_clust_6="86.65449"></scales>
<clustering>
<clus scale="   41.274">  2  3  1 -1</clus>
<clus scale="   86.654">  2  6  1 -1</clus>
<clus scale="   93.263">  2  5  1 -1</clus>
<clus scale="   93.263">  1  3  2 -1</clus>
</clustering>
</event>
<event>
 6    0  0.1080632E+003  0.1043552E+03  0.7546771E-02  0.1271395E+00
         21   -1    0    0  504  501  0.00000000000E+00  0.00000000000E+00  0.61397525520E+03  0.61397525520E+03  0.00000000000E+00 0.  1.
         21   -1    0    0  503  502 -0.00000000000E+00 -0.00000000000E+00 -0.57554002955E+03  0.57554002955E+03  0.00000000000E+00 0. -1.
         21    1    1    2  503  505  0.93552944219E+02 -0.17994521020E+02 -0.24223316817E+03  0.26029380307E+03  0.00000000000E+00 0. -1.
         21    1    1    2  504  506  0.22033720466E+02  0.42822432726E+02 -0.15732221767E+02  0.50663086994E+02  0.00000000000E+00 0. -1.
         21    1    1    2  505  501 -0.11739359250E+01 -0.44208900247E+02  0.57503111748E+03  0.57672921814E+03  0.00000000000E+00 0.  1.
         21    1    1    2  506  502 -0.11441272876E+03  0.19380988542E+02 -0.27863050190E+03  0.30182917653E+03  0.00000000000E+00 0. -1.
<scales pt_clust_3="104.35524" pt_clust_4="31.15670" pt_clust_5="44.22448" pt_clust_6="14000.00000"></scales>
<clustering>
<clus scale="   44.224">  1  5  2 -1</clus>
<clus scale="   31.157">  1  4  2 -1</clus>
<clus scale="  104.355">  2  3  1 -1</clus>
<clus scale="   44.224">  1  3  2 -1</clus>
</clustering>
</event>
<event>
 6    0  0.1080632E+003  0.6253864E+02  0.7546771E-02  0.1387477E+00
         21   -1    0    0  504  501  0.00000000000E+00  0.00000000000E+00  0.55920592669E+02  0.55920592669E+02  0.00000000000E+00 0.  1.
         21   -1    0    0  506  502 -0.00000000000E+00 -0.00000000000E+00 -0.58063049636E+03  0.58063049636E+03  0.00000000000E+00 0. -1.
         21    1    1    2  503  502  0.53410775403E+02 -0.26471858142E+02 -0.36377894325E+03  0.36863069562E+03  0.00000000000E+00 0. -1.
         21    1    1    2  504  505  0.59006833435E+01  0.55953583917E+02 -0.42343388192E+02  0.70417214803E+02  0.00000000000E+00 0. -1.
         21    1    1    2  505  503 -0.10195156398E+03  0.58897805734E+01 -0.69951575500E+02  0.12378220320E+03  0.00000000000E+00 0.  1.
         21    1    1    2  506  501  0.42640105233E+02 -0.35371506348E+02 -0.48635996757E+02  0.73720975416E+02  0.00000000000E+00 0. -1.
<scales pt_clust_3="14000.00000" pt_clust_4="48.67202" pt_clust_5="62.53864" pt_clust_6="55.40146"></scales>
<clustering>
<clus scale="   55.401">  1  6  2 -1</clus>
<clus scale="   48.672">  1  4  2 -1</clus>
<clus scale="   62.539">  1  5  2 -1</clus>
<clus scale="   55.401">  1  3  2 -1</clus>
</clustering>
</event>
<event>
 6    0  0.1080632E+003  0.1559874E+03  0.7546771E-02  0.1193303E+00
         21   -1    0    0  503  501  0.00000000000E+00  0.00000000000E+00  0.93671767176E+02  0.93671767176E+02  0.00000000000E+00 0. -1.
         21   -1    0    0  504  502 -0.00000000000E+00 -0.00000000000E+00 -0.43897440534E+03  0.43897440534E+03  0.00000000000E+00 0.  1.
         21    1    1    2  503  506 -0.54456368922E+02  0.55803352827E+02 -0.75249834403E+01  0.78333490148E+02  0.00000000000E+00 0. -1.
         21    1    1    2  504  501  0.74633359107E+02 -0.91964089773E+02 -0.96608153786E+02  0.15284196897E+03  0.00000000000E+00 0.  1.
         21    1    1    2  505  502  0.53463285566E+02 -0.31560184577E+02 -0.16326668530E+03  0.17467220352E+03  0.00000000000E+00 0.  1.
         21    1    1    2  506  505 -0.73640275751E+02  0.67720921522E+02 -0.77902815641E+02  0.12679850989E+03  0.00000000000E+00 0. -1.
<scales pt_clust_3="49.26572" pt_clust_4="145.66342" pt_clust_5="62.08356" pt_clust_6="49.26572"></scales>
<clustering>
<clus scale="   49.266">  3  6 -1 -1</clus>
<clus scale="   62.084">  2  5  1 -1</clus>
<clus scale="  145.663">  1  4  2 -1</clus>
<clus scale="  145.663">  1  3  2 -1</clus>
</clustering>
</event>
<event>
 6    0  0.1080632E+003  0.1325085E+03  0.7546771E-02  0.1223780E+00
         21   -1    0    0  504  501  0.00000000000E+00  0.00000000000E+00  0.12510197643E+04  0.12510197643E+04  0.00000000000E+00 0.  1.
         21   -1    0    0  505  502 -0.00000000000E+00 -0.00000000000E+00 -0.28084575359E+02  0.28084575359E+02  0.00000000000E+00 0.  1.
         21    1    1    2  503  506  0.38762878620E+02  0.14833885717E+02  0.89585751263E+02  0.98733032738E+02  0.00000000000E+00 0.  1.
         21    1    1    2  504  502 -0.13328577944E+03  0.66296568903E+00  0.79931097906E+03  0.81034781407E+03  0.00000000000E+00 0.  1.
         21    1    1    2  505  503  0.33334328449E+02  0.83784712032E+01  0.52875610820E+01  0.34775487560E+02  0.00000000000E+00 0.  1.
         21    1    1    2  506  501  0.61188572376E+02 -0.23875322609E+02  0.32875089751E+03  0.33524800527E+03  0.00000000000E+00 0.  1.
<scales pt_clust_3="48.87958" pt_clust_4="119.56816" pt_clust_5="34.37115" pt_clust_6="48.87958"></scales>
<clustering>
<clus scale="   34.371">  2  5  1 -1</clus>
<clus scale="   48.880">  3  6 -1 -1</clus>
<clus scale="  119.568">  1  4  2 -1</clus>
<clus scale="  119.568">  1  3  2 -1</clus>
</clustering>
</event>
<event>
 6    0  0.1080632E+003  0.7904736E+02  0.7546771E-02  0.1331777E+00
         21   -1    0    0  503  501  0.00000000000E+00  0.00000000000E+00  0.60800558926E+02  0.60800558926E+02  0.00000000000E+00 0.  1.
         21   -1    0    0  504  502 -0.00000000000E+00 -0.00000000000E+00 -0.46341259126E+03  0.46341259126E+03  0.00000000000E+00 0. -1.
         21    1    1    2  503  505  0.76625797927E+02 -0.11071135712E+02 -0.54607481663E+02  0.94742070948E+02  0.00000000000E+00 0.  1.
         21    1    1    2  504  501 -0.64312814006E+02  0.54604148800E+02 -0.90403953718E+02  0.12365527065E+03  0.00000000000E+00 0. -1.
         21    1    1    2  505  506  0.19593660689E+02 -0.87431145386E+02 -0.80028200405E+02  0.12013587966E+03  0.00000000000E+00 0.  1.
         21    1    1    2  506  502 -0.31906644610E+02  0.43898132298E+02 -0.17757239655E+03  0.18567992893E+03  0.00000000000E+00 0. -1.
<scales pt_clust_3="68.17270" pt_clust_4="14000.00000" pt_clust_5="79.04736" pt_clust_6="54.26859"></scales>
<clustering>
<clus scale="   54.269">  2  6  1 -1</clus>
<clus scale="   68.173">  1  3  2 -1</clus>
<clus scale="   79.047">  2  5  1 -1</clus>
<clus scale="   68.173">  1  3  2 -1</clus>
</clustering>
</event>
<event>
 6    0  0.1080632E+003  0.1063072E+03  0.7546771E-02  0.1267565E+00
         21   -1    0    0  506  501  0.00000000000E+00  0.00000000000E+00  0.38500365020E+03  0.38500365020E+03  0.00000000000E+00 0.  1.
         21   -1    0    0  503  502 -0.00000000000E+00 -0.00000000000E+00 -0.15437593555E+04  0.15437593555E+04  0.00000000000E+00 0. -1.
         21    1    1    2  503  504  0.41290767530E+02  0.27427517078E+02 -0.91608193894E+02  0.10415976846E+03  0.00000000000E+00 0.  1.
         21    1    1    2  504  501  0.84113068884E+02 -0.30320733997E+02  0.37010320582E+03  0.38075023077E+03  0.00000000000E+00 0.  1.
         21    1    1    2  505  502 -0.86491299594E+02 -0.99405977503E+01 -0.11945024148E+04  0.11976708978E+04  0.00000000000E+00 0. -1.
         21    1    1    2  506  505 -0.38912536820E+02  0.12833814669E+02 -0.24274830243E+03  0.24618210872E+03  0.00000000000E+00 0.  1.
<scales pt_clust_3="49.57011" pt_clust_4="89.52005" pt_clust_5="39.33418" pt_clust_6="39.33418"></scales>
<clustering>
<clus scale="   39.334">  5  6 -1 -1</clus>
<clus scale="   49.570">  2  3  1 -1</clus>
<clus scale="   89.520">  1  4  2 -1</clus>
<clus scale="   89.520">  1  3  2 -1</clus>
</clustering>
</event>
<event>
 6    0  0.1080632E+003  0.1102239E+03  0.7546771E-02  0.1260156E+00
         21   -1    0    0  506  501  0.00000000000E+00  0.00000000000E+00  0.12380310185E+04  0.12380310185E+04  0.00000000000E+00 0. -1.
         21   -1    0    0  503  502 -0.00000000000E+00 -0.00000000000E+00 -0.10691981401E+03  0.10691981401E+03  0.00000000000E+00 0.  1.
         21    1    1    2  503  505 -0.13773684856E+02  0.56430262125E+02 -0.63522736933E+02  0.86076866727E+02  0.00000000000E+00 0.  1.
         21    1    1    2  504  502 -0.57026591591E+01  0.57565467023E+02  0.25631141436E+02  0.63271310452E+02  0.00000000000E+00 0. -1.
         21    1    1    2  505  501  0.97510349471E+02 -0.11740495404E+03  0.52051801134E+03  0.54243081735E+03  0.00000000000E+00 0. -1.
         21    1    1    2  506  504 -0.78034005456E+02  0.34092248892E+01  0.64848478861E+03  0.65317183794E+03  0.00000000000E+00 0. -1.
<scales pt_clust_3="110.22393" pt_clust_4="57.84724" pt_clust_5="14000.00000" pt_clust_6="78.34164"></scales>
<clustering>
<clus scale="   57.847">  2  4  1 -1</clus>
<clus scale="   78.342">  1  6  2 -1</clus>
<clus scale="  110.224">  2  3  1 -1</clus>
<clus scale="   78.342">  1  3  2 -1</clus>
</clustering>
</event>
<event>
 6    0  0.1080632E+003  0.2582754E+03  0.7546771E-02  0.1108184E+00
         21   -1    0    0  505  501  0.00000000000E+00  0.00000000000E+00  0.24668877674E+03  0.24668877674E+03  0.00000000000E+00 0.  1.
         21   -1    0    0  504  502 -0.00000000000E+00 -0.00000000000E+00 -0.74940512024E+03  0.74940512024E+03  0.00000000000E+00 0.  1.
         21    1    1    2  503  506  0.51994833691E+01 -0.15081337758E+03 -0.12444599263E+03  0.19559783886E+03  0.00000000000E+00 0.  1.
         21    1    1    2  504  501 -0.27470785977E+02  0.23397950480E+02 -0.37756303577E+03  0.37928347466E+03  0.00000000000E+00 0.  1.
         21    1    1    2  505  503  0.48434584472E+02  0.24693066143E+03  0.91771114915E+02  0.26784808766E+03  0.00000000000E+00 0.  1.
         21    1    1    2  506  502 -0.26163281864E+02 -0.11951523433E+03 -0.92478430017E+02  0.15336449581E+03  0.00000000000E+00 0. -1.
<scales pt_clust_3="31.21051" pt_clust_4="36.08474" pt_clust_5="255.93888" pt_clust_6="31.21051"></scales>
<clustering>
<clus scale="   31.211">  3  6 -1 -1</clus>
<clus scale="   36.085">  2  4  1 -1</clus>
<clus scale="  255.939">  1  5  2 -1</clus>
<clus scale="  255.939">  1  3  2 -1</clus>
</clustering>
</event>
<event>
 6    0  0.1080632E+003  0.9674127E+02  0.7546771E-02  0.1287302E+00
         21   -1    0    0  505  501  0.00000000000E+00  0.00000000000E+00  0.13857585606E+04  0.13857585606E+04  0.00000000000E+00 0. -1.
         21   -1    0    0  501  502 -0.00000000000E+00 -0.00000000000E+00 -0.81424537846E+02  0.81424537846E+02  0.00000000000E+00 0.  1.
         21    1    1    2  503  506  0.97419349610E+02  0.67263775469E+02  0.57553012551E+03  0.58757967165E+03  0.00000000000E+00 0. -1.
         21    1    1    2  504  503 -0.71425495703E+02 -0.32033176176E+02  0.28428181642E+03  0.29486247127E+03  0.00000000000E+00 0. -1.
         21    1    1    2  505  504 -0.22177377237E+02  0.42452704090E+02  0.49153251128E+03  0.49386058538E+03  0.00000000000E+00 0. -1.
         21    1    1    2  506  502 -0.38164766705E+01 -0.77683303382E+02 -0.47010430415E+02  0.90880370193E+02  0.00000000000E+00 0.  1.
<scales pt_clust_3="96.74127" pt_clust_4="14000.00000" pt_clust_5="47.89643" pt_clust_6="76.76459"></scales>
<clustering>
<clus scale="   47.896">  1  5  2 -1</clus>
<clus scale="   76.765">  2  6  1 -1</clus>
<clus scale="   96.741">  2  3  1 -1</clus>
<clus scale="   47.896">  1  3  2 -1</clus>
</clustering>
</event>
<event>
 6    0  0.1080632E+003  0.1357354E+03  0.7546771E-02  0.1219185E+00
         21   -1    0    0  506  501  0.00000000000E+00  0.00000000000E+00  0.23664522316E+03  0.23664522316E+03  0.00000000000E+00 0. -1.
         21   -1    0    0  504  502 -0.00000000000E+00 -0.00000000000E+00 -0.27664790550E+03  0.27664790550E+03  0.00000000000E+00 0. -1.
         21    1    1    2  503  502  0.52242590939E+02  0.72984130999E+01 -0.18214021624E+02  0.55805964964E+02  0.00000000000E+00 0. -1.
         21    1    1    2  504  505 -0.19105429566E+02 -0.33952613519E+02 -0.95276460801E+02  0.10293396615E+03  0.00000000000E+00 0. -1.
         21    1    1    2  505  501 -0.11345560157E+03  0.47585972421E+02  0.18092236134E+03  0.21879099417E+03  0.00000000000E+00 0. -1.
         21    1    1    2  506  503  0.80318440197E+02 -0.20931772002E+02 -0.10743456126E+03  0.13576220338E+03  0.00000000000E+00 0. -1.
<scales pt_clust_3="43.48626" pt_clust_4="38.95892" pt_clust_5="123.57827" pt_clust_6="43.48626"></scales>
<clustering>
<clus scale="   38.959">  2  4  1 -1</clus>
<clus scale="   43.486">  3  6 -1 -1</clus>
<clus scale="  123.578">  1  5  2 -1</clus>
<clus scale="  123.578">  1  3  2 -1</clus>
</clustering>
</event>
<event>
 6    0  0.1080632E+003  0.1579523E+03  0.7546771E-02  0.1191028E+00
         21   -1    0    0  505  501  0.00000000000E+00  0.00000000000E+00  0.65053839907E+03  0.65053839907E+03  0.00000000000E+00 0.  1.
         21   -1    0    0  506  502 -0.00000000000E+00 -0.00000000000E+00 -0.19341574684E+04  0.19341574684E+04  0.00000000000E+00 0.  1.
         21    1    1    2  503  504 -0.63161539116E+02  0.12490718777E+02 -0.41620488021E+03  0.42115543495E+03  0.00000000000E+00 0. -1.
         21    1    1    2  504  501  0.14461883391E+03 -0.47852988237E+02  0.63447310426E+03  0.65250336063E+03  0.00000000000E+00 0.  1.
         21    1    1    2  505  502 -0.44340238248E+01 -0.30216980629E+02 -0.91398398189E+03  0.91449409273E+03  0.00000000000E+00 0.  1.
         21    1    1    2  506  503 -0.77023270969E+02  0.65579250088E+02 -0.58790331149E+03  0.59654297915E+03  0.00000000000E+00 0. -1.
<scales pt_clust_3="34.77481" pt_clust_4="152.37721" pt_clust_5="30.54057" pt_clust_6="34.77481"></scales>
<clustering>
<clus scale="   30.541">  2  5  1 -1</clus>
<clus scale="   34.775">  3  6 -1 -1</clus>
<clus scale="  152.377">  1  4  2 -1</clus>
<clus scale="  152.377">  1  3  2 -1</clus>
</clustering>
</event>
<event>
 6    0  0.1080632E+003  0.1291045E+03  0.7546771E-02  0.1228791E+00
         21   -1    0    0  504  501  0.00000000000E+00  0.00000000000E+00  0.35227747634E+03  0.35227747634E+03  0.00000000000E+00 0. -1.
         21   -1    0    0  503  502 -0.00000000000E+00 -0.00000000000E+00 -0.20493154972E+03  0.20493154972E+03  0.00000000000E+00 0. -1.
         21    1    1    2  503  505  0.82386003285E+01 -0.84654718739E+02 -0.64265000152E+02  0.10660340606E+03  0.00000000000E+00 0. -1.
         21    1    1    2  504  506  0.97536327565E+01  0.72541285195E+02  0.26735336985E+03  0.27719162286E+03  0.00000000000E+00 0. -1.
         21    1    1    2  505  501 -0.50440254283E+02 -0.63897807423E+02 -0.23880317174E+02  0.84837601298E+02  0.00000000000E+00 0. -1.
         21    1    1    2  506  502  0.32448021198E+02  0.76011240967E+02 -0.31862125907E+02  0.88576395842E+02  0.00000000000E+00 0. -1.
<scales pt_clust_3="69.39364" pt_clust_4="73.19407" pt_clust_5="69.39364" pt_clust_6="107.87368"></scales>
<clustering>
<clus scale="   69.394">  3  5 -1 -1</clus>
<clus scale="   73.194">  1  4  2 -1</clus>
<clus scale="  107.874">  2  6  1 -1</clus>
<clus scale="   73.194">  1  3  2 -1</clus>
</clustering>
</event>
<event>
 6    0  0.1080632E+003  0.7781980E+02  0.7546771E-02  0.1335355E+00
         21   -1    0    0  505  501  0.00000000000E+00  0.00000000000E+00  0.38814734277E+03  0.38814734277E+03  0.00000000000E+00 0.  1.
         21   -1    0    0  504  502 -0.00000000000E+00 -0.00000000000E+00 -0.14362061035E+03  0.14362061035E+03  0.00000000000E+00 0. -1.
         21    1    1    2  503  506  0.65924583470E+02  0.46487548568E+02 -0.11198856308E+02  0.81440513629E+02  0.00000000000E+00 0. -1.
         21    1    1    2  504  503 -0.21008062955E+02 -0.32845086893E+02 -0.70598769703E+02  0.80649393834E+02  0.00000000000E+00 0. -1.
         21    1    1    2  505  502 -0.50733235367E+02  0.64407085813E+02  0.23769476313E+03  0.25143773443E+03  0.00000000000E+00 0.  1.
         21    1    1    2  506  501  0.58167148519E+01 -0.78049547488E+02  0.88629595303E+02  0.11824031122E+03  0.00000000000E+00 0. -1.
<scales pt_clust_3="56.96866" pt_clust_4="38.98895" pt_clust_5="14000.00000" pt_clust_6="77.81980"></scales>
<clustering>
<clus scale="   38.989">  2  4  1 -1</clus>
<clus scale="   56.969">  2  3  1 -1</clus>
<clus scale="   77.820">  2  6  1 -1</clus>
<clus scale="   77.820">  1  3  2 -1</clus>
</clustering>
</event>
<event>
 6    0  0.1080632E+003  0.1370833E+03  0.7546771E-02  0.1217308E+00
         21   -1    0    0  506  501  0.00000000000E+00  0.00000000000E+00  0.35881358235E+03  0.35881358235E+03  0.00000000000E+00 0.  1.
         21   -1    0    0  505  502 -0.00000000000E+00 -0.00000000000E+00 -0.96652204623E+02  0.96652204623E+02  0.00000000000E+00 0.  1.
         21    1    1    2  503  501 -0.41752252316E+02 -0.24287735302E+01  0.86074100948E+02  0.95696919325E+02  0.00000000000E+00 0.  1.
         21    1    1    2  504  502  0.11846008954E+03 -0.50959911117E+02 -0.57610984204E+01  0.12908483880E+03  0.00000000000E+00 0.  1.
         21    1    1    2  505  503 -0.81313430240E+02  0.17407196402E+02  0.57364833371E+02  0.10102281194E+03  0.00000000000E+00 0.  1.
         21    1    1    2  506  504  0.46055930189E+01  0.35981488246E+02  0.12448354183E+03  0.12966121690E+03  0.00000000000E+00 0.  1.
<scales pt_clust_3="36.70429" pt_clust_4="126.63896" pt_clust_5="36.70429" pt_clust_6="36.27505"></scales>
<clustering>
<clus scale="   36.275">  1  6  2 -1</clus>
<clus scale="   36.704">  3  5 -1 -1</clus>
<clus scale="  126.639">  2  4  1 -1</clus>
<clus scale="   36.275">  1  3  2 -1</clus>
</clustering>
</event>
<event>
 6    0  0.1080632E+003  0.1538448E+03  0.7546771E-02  0.1195827E+00
         21   -1    0    0  503  501  0.00000000000E+00  0.00000000000E+00  0.12438309902E+04  0.12438309902E+04  0.00000000000E+00 0.  1.
         21   -1    0    0  504  502 -0.00000000000E+00 -0.00000000000E+00 -0.11262126000E+03  0.11262126000E+03  0.00000000000E+00 0.  1.
         21    1    1    2  503  502 -0.54321988434E+02  0.15737477659E+03  0.70287108839E+03  0.72231950384E+03  0.00000000000E+00 0.  1.
         21    1    1    2  504  505 -0.28383311471E+02 -0.48683634009E+02 -0.84840600745E+02  0.10185104872E+03  0.00000000000E+00 0.  1.
         21    1    1    2  505  506  0.55010545007E+02 -0.45376078755E+02  0.23056329917E+03  0.24133914625E+03  0.00000000000E+00 0.  1.
         21    1    1    2  506  501  0.27694754897E+02 -0.63315063823E+02  0.28261594338E+03  0.29094255138E+03  0.00000000000E+00 0.  1.
<scales pt_clust_3="149.50345" pt_clust_4="56.35343" pt_clust_5="35.72469" pt_clust_6="35.72469"></scales>
<clustering>
<clus scale="   35.725">  5  6 -1 -1</clus>
<clus scale="   56.353">  2  4  1 -1</clus>
<clus scale="  149.503">  2  3  1 -1</clus>
<clus scale="  153.845">  1  3  2 -1</clus>
</clustering>
</event>
<event>
 6    0  0.1080632E+003  0.1063548E+03  0.7546771E-02  0.1267473E+00
         21   -1    0    0  503  501  0.00000000000E+00  0.00000000000E+00  0.66492734263E+02  0.66492734263E+02  0.00000000000E+00 0.  1.
         21   -1    0    0  505  502 -0.00000000000E+00 -0.00000000000E+00 -0.16537941384E+04  0.16537941384E+04  0.00000000000E+00 0.  1.
         21    1    1    2  503  504 -0.29866224306E+02 -0.84315431784E+02 -0.16836709540E+03  0.19065298897E+03  0.00000000000E+00 0.  1.
         21    1    1    2  504  502  0.61119591653E+02  0.60113998553E+02 -0.12848124280E+04  0.12876693179E+04  0.00000000000E+00 0.  1.
         21    1    1    2  505  506  0.29037147743E+02  0.24847351224E+02 -0.16834946783E+03  0.17263281881E+03  0.00000000000E+00 0.  1.
         21    1    1    2  506  501 -0.60290515090E+02 -0.64591799308E+00  0.34227587049E+02  0.69331746949E+02  0.00000000000E+00 0.  1.
<scales pt_clust_3="14000.00000" pt_clust_4="106.35480" pt_clust_5="38.21710" pt_clust_6="59.94795"></scales>
<clustering>
<clus scale="   38.217">  2  5  1 -1</clus>
<clus scale="   59.948">  1  6  2 -1</clus>
<clus scale="  106.355">  2  4  1 -1</clus>
<clus scale="   59.948">  1  3  2 -1</clus>
</clustering>
</event>
<event>
 6    0  0.1080632E+003  0.1011887E+03  0.7546771E-02  0.1277816E+00
         21   -1    0    0  505  501  0.00000000000E+00  0.00000000000E+00  0.44977273479E+03  0.44977273479E+03  0.00000000000E+00 0.  1.
         21   -1    0    0  506  502 -0.00000000000E+00 -0.00000000000E+00 -0.87218040405E+03  0.87218040405E+03  0.00000000000E+00 0.  1.
         21    1    1    2  503  502 -0.29075210665E+02  0.10031200014E+03 -0.61585170940E+03  0.62464485367E+03  0.00000000000E+00 0.  1.
         21    1    1    2  504  501  0.53542504566E+02 -0.11067883204E+03 -0.20551675485E+03  0.23948640918E+03  0.00000000000E+00 0.  1.
         21    1    1    2  505  503 -0.55352374797E+02  0.29391219387E+02  0.41388097809E+03  0.41859908408E+03  0.00000000000E+00 0.  1.
         21    1    1    2  506  504  0.30885080896E+02 -0.19024387494E+02 -0.14920183090E+02  0.39222791906E+02  0.00000000000E+00 0.  1.
<scales pt_clust_3="14000.00000" pt_clust_4="101.18866" pt_clust_5="62.57055" pt_clust_6="36.27417"></scales>
<clustering>
<clus scale="   36.274">  2  6  1 -1</clus>
<clus scale="   62.571">  1  5  2 -1</clus>
<clus scale="  101.189">  1  4  2 -1</clus>
<clus scale="   62.571">  1  3  2 -1</clus>
</clustering>
</event>
<event>
 6    0  0.1080632E+003  0.5745469E+02  0.7546771E-02  0.1408835E+00
         21   -1    0    0  506  501  0.00000000000E+00  0.00000000000E+00  0.88193817762E+03  0.88193817762E+03  0.00000000000E+00 0.  1.
         21   -1    0    0  504  502 -0.00000000000E+00 -0.00000000000E+00 -0.18918060107E+04  0.18918060107E+04  0.00000000000E+00 0. -1.
         21    1    1    2  503  505 -0.93550460524E+01  0.59455393301E+02 -0.47425523404E+02  0.76626633421E+02  0.00000000000E+00 0.  1.
         21    1    1    2  504  503 -0.14895828575E+02 -0.53756534452E+02 -0.14560169391E+04  0.14570850962E+04  0.00000000000E+00 0. -1.
         21    1    1    2  505  501 -0.55836086435E+02  0.13268477135E+02  0.86129971538E+03  0.86320966210E+03  0.00000000000E+00 0.  1.
         21    1    1    2  506  502  0.80086961063E+02 -0.18967335985E+02 -0.36772508598E+03  0.37682279658E+03  0.00000000000E+00 0. -1.
<scales pt_clust_3="53.05131" pt_clust_4="55.78217" pt_clust_5="57.45469" pt_clust_6="14000.00000"></scales>
<clustering>
<clus scale="   55.782">  2  4  1 -1</clus>
<clus scale="   53.051">  2  3  1 -1</clus>
<clus scale="   57.455">  1  5  2 -1</clus>
<clus scale="   57.455">  1  3  2 -1</clus>
</clustering>
</event>
<event>
 6    0  0.1080632E+003  0.1281953E+03  0.7546771E-02  0.1230158E+00
         21   -1    0    0  506  501  0.00000000000E+00  0.00000000000E+00  0.30482596470E+03  0.30482596470E+03  0.00000000000E+00 0. -1.
         21   -1    0    0  504  502 -0.00000000000E+00 -0.00000000000E+00 -0.91399613636E+02  0.91399613636E+02  0.00000000000E+00 0. -1.
         21    1    1    2  503  501  0.65182303508E+02 -0.84033619587E+02  0.14058049449E+03  0.17627608273E+03  0.00000000000E+00 0. -1.
         21    1    1    2  504  503  0.43545563952E+02 -0.10775658680E+02 -0.87859226011E+01  0.45711304902E+02  0.00000000000E+00 0.  1.
         21    1    1    2  505  502 -0.28192008528E+02  0.58142458925E+02  0.43421677306E+02  0.77850991868E+02  0.00000000000E+00 0. -1.
         21    1    1    2  506  505 -0.80535858932E+02  0.36666819342E+02  0.38210101870E+02  0.96387198836E+02  0.00000000000E+00 0. -1.
<scales pt_clust_3="116.40178" pt_clust_4="44.85901" pt_clust_5="49.24329" pt_clust_6="49.24329"></scales>
<clustering>
<clus scale="   44.859">  2  4  1 -1</clus>
<clus scale="   49.243">  5  6 -1 -1</clus>
<clus scale="  116.402">  1  3  2 -1</clus>
<clus scale="  116.402">  1  3  2 -1</clus>
</clustering>
</event>
<event>
 6    0  0.1080632E+003  0.1091092E+03  0.7546771E-02  0.1262229E+00
         21   -1    0    0  504  501  0.00000000000E+00  0.00000000000E+00  0.90239052123E+02  0.90239052123E+02  0.00000000000E+00 0. -1.
         21   -1    0    0  505  502 -0.00000000000E+00 -0.00000000000E+00 -0.23821594329E+04  0.23821594329E+04  0.00000000000E+00 0. -1.
         21    1    1    2  503  502  0.27911292174E+02  0.15037715516E+02 -0.87096388789E+03  0.87154074324E+03  0.00000000000E+00 0. -1.
         21    1    1    2  504  503 -0.34446638355E+02  0.10221555562E+03  0.48980745218E+02  0.11846393589E+03  0.00000000000E+00 0. -1.
         21    1    1    2  505  506 -0.32109746415E+02  0.27117506007E+02 -0.35753768757E+03  0.35999943469E+03  0.00000000000E+00 0. -1.
         21    1    1    2  506  501  0.38645092596E+02 -0.14437077714E+03 -0.11123995505E+04  0.11223943712E+04  0.00000000000E+00 0. -1.
<scales pt_clust_3="31.70447" pt_clust_4="109.10915" pt_clust_5="39.88870" pt_clust_6="14000.00000"></scales>
<clustering>
<clus scale="   31.704">  2  3  1 -1</clus>
<clus scale="   39.889">  2  5  1 -1</clus>
<clus scale="  109.109">  1  4  2 -1</clus>
<clus scale="  109.109">  1  3  2 -1</clus>
</clustering>
</event>
<event>
 6    0  0.1080632E+003  0.1038773E+03  0.7546771E-02  0.1272348E+00
         21   -1    0    0  504  501  0.00000000000E+00  0.00000000000E+00  0.32055493386E+03  0.32055493386E+03  0.00000000000E+00 0. -1.
         21   -1    0    0  506  502 -0.00000000000E+00 -0.00000000000E+00 -0.25535978386E+03  0.25535978386E+03  0.00000000000E+00 0. -1.
         21    1    1    2  503  505 -0.27903987895E+02  0.23740191124E+02  0.28039018173E+01  0.36743585568E+02  0.00000000000E+00 0. -1.
         21    1    1    2  504  502  0.15579239148E+03 -0.24580688944E+02 -0.39868967184E+02  0.16268071200E+03  0.00000000000E+00 0. -1.
         21    1    1    2  505  501 -0.98220691124E+02  0.73493421795E+01  0.22734852632E+03  0.24776736956E+03  0.00000000000E+00 0. -1.
         21    1    1    2  506  503 -0.29667712463E+02 -0.65088443593E+01 -0.12508831096E+03  0.12872305060E+03  0.00000000000E+00 0. -1.
<scales pt_clust_3="39.19482" pt_clust_4="103.87727" pt_clust_5="14000.00000" pt_clust_6="30.37331"></scales>
<clustering>
<clus scale="   30.373">  2  6  1 -1</clus>
<clus scale="   39.195">  2  3  1 -1</clus>
<clus scale="  103.877">  2  4  1 -1</clus>
<clus scale="  103.877">  1  3  2 -1</clus>
</clustering>
</event>
<event>
 6    0  0.1080632E+003  0.1064368E+03  0.7546771E-02  0.1267314E+00
         21   -1    0    0  506  501  0.00000000000E+00  0.00000000000E+00  0.50068184122E+03  0.50068184122E+03  0.00000000000E+00 0. -1.
         21   -1    0    0  504  502 -0.00000000000E+00 -0.00000000000E+00 -0.24460437808E+03  0.24460437808E+03  0.00000000000E+00 0. -1.
         21    1    1    2  503  502 -0.57912308707E+01  0.32727285724E+02 -0.86251565486E+02  0.92433468693E+02  0.00000000000E+00 0. -1.
         21    1    1    2  504  505  0.32396704879E+02  0.79953592860E+02  0.17774898903E+02  0.88079909907E+02  0.00000000000E+00 0. -1.
         21    1    1    2  505  501  0.33261516118E+02  0.68580205578E+01  0.40653206828E+03  0.40794813817E+03  0.00000000000E+00 0. -1.
         21    1    1    2  506  503 -0.59866990126E+02 -0.11953889914E+03 -0.81977938546E+02  0.15682470253E+03  0.00000000000E+00 0. -1.
<scales pt_clust_3="33.23573" pt_clust_4="14000.00000" pt_clust_5="33.96578" pt_clust_6="106.43676"></scales>
<clustering>
<clus scale="   33.236">  2  3  1 -1</clus>
<clus scale="   33.966">  1  5  2 -1</clus>
<clus scale="  106.437">  2  6  1 -1</clus>
<clus scale="   33.966">  1  3  2 -1</clus>
</clustering>
</event>
<event>
 6    0  0.1080632E+003  0.1382907E+03  0.7546771E-02  0.1215648E+00
         21   -1    0    0  506  501  0.00000000000E+00  0.00000000000E+00  0.22843576922E+04  0.22843576922E+04  0.00000000000E+00 0. -1.
         21   -1    0    0  503  502 -0.00000000000E+00 -0.00000000000E+00 -0.55809602437E+02  0.55809602437E+02  0.00000000000E+00 0.  1.
         21    1    1    2  503  501 -0.26410382743E+02 -0.39653314974E+02  0.78397783127E+02  0.91739337824E+02  0.00000000000E+00 0. -1.
         21    1    1    2  504  502 -0.20907147944E+02  0.25931151190E+02 -0.30804187733E+02  0.45369939597E+02  0.00000000000E+00 0.  1.
         21    1    1    2  505  504  0.19323704361E+02  0.14736594898E+03  0.68791260234E+03  0.70378539124E+03  0.00000000000E+00 0.  1.
         21    1    1    2  506  505  0.27993826326E+02 -0.13364378520E+03  0.14930418920E+04  0.14992726260E+04  0.00000000000E+00 0. -1.
<scales pt_clust_3="45.48283" pt_clust_4="33.30966" pt_clust_5="14000.00000" pt_clust_6="138.29067"></scales>
<clustering>
<clus scale="   33.310">  2  4  1 -1</clus>
<clus scale="   45.483">  2  3  1 -1</clus>
<clus scale="  138.291">  1  6  2 -1</clus>
<clus scale="  138.291">  1  3  2 -1</clus>
</clustering>
</event>
<event>
 6    0  0.1080632E+003  0.1133220E+03  0.7546771E-02  0.1254539E+00
         21   -1    0    0  503  501  0.00000000000E+00  0.00000000000E+00  0.34099376573E+02  0.34099376573E+02  0.00000000000E+00 0. -1.
         21   -1    0    0  505  502 -0.00000000000E+00 -0.00000000000E+00 -0.32225679002E+04  0.32225679002E+04  0.00000000000E+00 0.  1.
         21    1    1    2  503  504  0.72060852667E+02  0.28002678120E+02 -0.37336203608E+02  0.85853995649E+02  0.00000000000E+00 0. -1.
         21    1    1    2  504  506 -0.11092478361E+02  0.80214704136E+02 -0.37849003715E+03  0.38705574541E+03  0.00000000000E+00 0.  1.
         21    1    1    2  505  501 -0.79966268193E+02 -0.15382384673E+03 -0.14715034914E+04  0.14816811078E+04  0.00000000000E+00 0.  1.
         21    1    1    2  506  502  0.18997893887E+02  0.45606464473E+02 -0.13011387915E+04  0.13020764280E+04  0.00000000000E+00 0.  1.
<scales pt_clust_3="78.41632" pt_clust_4="14000.00000" pt_clust_5="113.32198" pt_clust_6="49.40516"></scales>
<clustering>
<clus scale="   49.405">  2  6  1 -1</clus>
<clus scale="   78.416">  1  3  2 -1</clus>
<clus scale="  113.322">  2  5  1 -1</clus>
<clus scale="   78.416">  1  3  2 -1</clus>
</clustering>
</event>
<event>
 6    0  0.1080632E+003  0.7540205E+02  0.7546771E-02  0.1342630E+00
         21   -1    0    0  503  501  0.00000000000E+00  0.00000000000E+00  0.28065400084E+03  0.28065400084E+03  0.00000000000E+00 0. -1.
         21   -1    0    0  506  502 -0.00000000000E+00 -0.00000000000E+00 -0.26027219127E+03  0.26027219127E+03  0.00000000000E+00 0. -1.
         21    1    1    2  503  504 -0.23455879729E+02  0.25415287975E+02  0.87538302823E+01  0.35675547666E+02  0.00000000000E+00 0. -1.
         21    1    1    2  504  502 -0.71094508086E+02 -0.27224254286E+02 -0.20505632238E+03  0.21873199229E+03  0.00000000000E+00 0. -1.
         21    1    1    2  505  501  0.40631956167E+02 -0.51628895229E+02  0.19761042196E+03  0.20824595446E+03  0.00000000000E+00 0. -1.
         21    1    1    2  506  505  0.53918431647E+02  0.53437861540E+02  0.19073879718E+02  0.78272697697E+02  0.00000000000E+00 0. -1.
<scales pt_clust_3="34.58490" pt_clust_4="75.40205" pt_clust_5="38.68630" pt_clust_6="14000.00000"></scales>
<clustering>
<clus scale="   34.585">  1  3  2 -1</clus>
<clus scale="   38.686">  1  5  2 -1</clus>
<clus scale="   75.402">  2  4  1 -1</clus>
<clus scale="   34.585">  1  3  2 -1</clus>
</clustering>
</event>
<event>
 6    0  0.1080632E+003  0.9726996E+02  0.7546771E-02  0.1286144E+00
         21   -1    0    0  506  501  0.00000000000E+00  0.00000000000E+00  0.22560215132E+04  0.22560215132E+04  0.00000000000E+00 0.  1.
         21   -1    0    0  503  502 -0.00000000000E+00 -0.00000000000E+00 -0.56275451847E+02  0.56275451847E+02  0.00000000000E+00 0.  1.
         21    1    1    2  503  504 -0.29187742140E+02  0.30534889739E+02  0.91184491254E+02  0.10049335912E+03  0.00000000000E+00 0.  1.
         21    1    1    2  504  501 -0.49113016076E+01  0.99644857873E+02  0.19013591352E+04  0.19039747319E+04  0.00000000000E+00 0.  1.
         21    1    1    2  505  502  0.97134632559E+02 -0.57549445282E+02  0.49857282954E+02  0.12342132781E+03  0.00000000000E+00 0.  1.
         21    1    1    2  506  505 -0.63035588811E+02 -0.72630302330E+02  0.15734515196E+03  0.18440754626E+03  0.00000000000E+00 0.  1.
<scales pt_clust_3="42.24102" pt_clust_4="14000.00000" pt_clust_5="84.31160" pt_clust_6="97.26996"></scales>
<clustering>
<clus scale="   42.241">  2  3  1 -1</clus>
<clus scale="   84.312">  2  5  1 -1</clus>
<clus scale="   97.270">  2  6  1 -1</clus>
<clus scale="   97.270">  1  3  2 -1</clus>
</clustering>
</event>
<event>
 6    0  0.1080632E+003  0.1092829E+03  0.7546771E-02  0.1261904E+00
         21   -1    0    0  505  501  0.00000000000E+00  0.00000000000E+00  0.57072021396E+02  0.57072021396E+02  0.00000000000E+00 0. -1.
         21   -1    0    0  504  502 -0.00000000000E+00 -0.00000000000E+00 -0.93506842066E+03  0.93506842066E+03  0.00000000000E+00 0. -1.
         21    1    1    2  503  501 -0.53749620979E+02  0.58109002675E+02 -0.17244615240E+02  0.81012682353E+02  0.00000000000E+00 0. -1.
         21    1    1    2  504  503  0.34234824227E+02  0.68988036368E+02 -0.13535562019E+03  0.15573219406E+03  0.00000000000E+00 0. -1.
         21    1    1    2  505  506  0.34792785560E+02  0.22760965138E+01 -0.24791935717E+02  0.42782690647E+02  0.00000000000E+00 0.  1.
         21    1    1    2  506  502 -0.15277988809E+02 -0.12937313556E+03 -0.70060422812E+03  0.71261287499E+03  0.00000000000E+00 0. -1.
<scales pt_clust_3="67.04730" pt_clust_4="14000.00000" pt_clust_5="34.86716" pt_clust_6="109.28291"></scales>
<clustering>
<clus scale="   34.867">  1  5  2 -1</clus>
<clus scale="   67.047">  1  3  2 -1</clus>
<clus scale="  109.283">  2  6  1 -1</clus>
<clus scale="   34.867">  1  3  2 -1</clus>
</clustering>
</event>
<event>
 6    0  0.1080632E+003  0.6655200E+02  0.7546771E-02  0.1372227E+00
         21   -1    0    0  504  501  0.00000000000E+00  0.00000000000E+00  0.41051530524E+02  0.41051530524E+02  0.00000000000E+00 0. -1.
         21   -1    0    0  505  502 -0.00000000000E+00 -0.00000000000E+00 -0.84735099528E+03  0.84735099528E+03  0.00000000000E+00 0. -1.
         21    1    1    2  503  501  0.49171562709E+00  0.86665306117E+02 -0.76019409828E+02  0.11528255609E+03  0.00000000000E+00 0. -1.
         21    1    1    2  504  506 -0.15460534409E+02 -0.31817988508E+02 -0.12709488752E+02  0.37589142332E+02  0.00000000000E+00 0. -1.
         21    1    1    2  505  503 -0.56449840105E+02  0.15262827677E+01 -0.14206185737E+03  0.15287408318E+03  0.00000000000E+00 0.  1.
         21    1    1    2  506  502  0.71418658887E+02 -0.56373600376E+02 -0.57550870881E+03  0.58265674421E+03  0.00000000000E+00 0. -1.
<scales pt_clust_3="66.55200" pt_clust_4="35.37531" pt_clust_5="59.54028" pt_clust_6="14000.00000"></scales>
<clustering>
<clus scale="   35.375">  1  4  2 -1</clus>
<clus scale="   59.540">  2  5  1 -1</clus>
<clus scale="   66.552">  1  3  2 -1</clus>
<clus scale="   35.375">  1  3  2 -1</clus>
</clustering>
</event>
<event>
 6    0  0.1080632E+003  0.1013765E+03  0.7546771E-02  0.1277428E+00
         21   -1    0    0  505  501  0.00000000000E+00  0.00000000000E+00  0.17302747887E+04  0.17302747887E+04  0.00000000000E+00 0.  1.
         21   -1    0    0  503  502 -0.00000000000E+00 -0.00000000000E+00 -0.58066135903E+03  0.58066135903E+03  0.00000000000E+00 0.  1.
         21    1    1    2  503  501 -0.29599224426E+02  0.22488644250E+02 -0.40950787787E+02  0.55306602021E+02  0.00000000000E+00 0. -1.
         21    1    1    2  504  502 -0.65349785250E+02  0.11448013002E+02 -0.47022538519E+03  0.47488268479E+03  0.00000000000E+00 0.  1.
         21    1    1    2  505  506 -0.26214545618E+02  0.14789788225E+02  0.16493805274E+04  0.16496551350E+04  0.00000000000E+00 0.  1.
         21    1    1    2  506  504  0.12116355529E+03 -0.48726445477E+02  0.11409075303E+02  0.13109172598E+03  0.00000000000E+00 0. -1.
<scales pt_clust_3="39.82549" pt_clust_4="14000.00000" pt_clust_5="30.09884" pt_clust_6="101.37648"></scales>
<clustering>
<clus scale="   30.099">  1  5  2 -1</clus>
<clus scale="   39.825">  2  3  1 -1</clus>
<clus scale="  101.376">  1  6  2 -1</clus>
<clus scale="   30.099">  1  3  2 -1</clus>
</clustering>
</event>
<event>
 6    0  0.1080632E+003  0.1449903E+03  0.7546771E-02  0.1206768E+00
         21   -1    0    0  503  501  0.00000000000E+00  0.00000000000E+00  0.64961212295E+02  0.64961212295E+02  0.00000000000E+00 0. -1.
         21   -1    0    0  506  502 -0.00000000000E+00 -0.00000000000E+00 -0.97266752295E+03  0.97266752295E+03  0.00000000000E+00 0.  1.
         21    1    1    2  503  505 -0.51629157292E+02 -0.10249232093E+02 -0.81296297421E+02  0.96848875138E+02  0.00000000000E+00 0.  1.
         21    1    1    2  504  501  0.84722899474E+02  0.92109403084E+02 -0.54910463957E+02  0.13666481216E+03  0.00000000000E+00 0. -1.
         21    1    1    2  505  502 -0.71609202652E+02 -0.94182317343E+02 -0.20900883516E+03  0.24017260456E+03  0.00000000000E+00 0.  1.
         21    1    1    2  506  504  0.38515460471E+02  0.12322146353E+02 -0.56249071412E+03  0.56394244339E+03  0.00000000000E+00 0.  1.
<scales pt_clust_3="37.80643" pt_clust_4="133.45193" pt_clust_5="37.80643" pt_clust_6="40.43855"></scales>
<clustering>
<clus scale="   37.806">  3  5 -1 -1</clus>
<clus scale="   40.439">  2  6  1 -1</clus>
<clus scale="  133.452">  1  4  2 -1</clus>
<clus scale="  133.452">  1  3  2 -1</clus>
</clustering>
</event>
<event>
 6    0  0.1080632E+003  0.8690064E+02  0.7546771E-02  0.1310536E+00
         21   -1    0    0  505  501  0.00000000000E+00  0.00000000000E+00  0.27987109958E+03  0.27987109958E+03  0.00000000000E+00 0.  1.
         21   -1    0    0  504  502 -0.00000000000E+00 -0.00000000000E+00 -0.10584596774E+04  0.10584596774E+04  0.00000000000E+00 0. -1.
         21    1    1    2  503  502 -0.63587900349E+02 -0.44048979931E+02 -0.91800379859E+03  0.92125713454E+03  0.00000000000E+00 0. -1.
         21    1    1    2  504  501 -0.31792300662E+02 -0.64747736613E+02  0.23126296105E+03  0.24225106177E+03  0.00000000000E+00 0.  1.
         21    1    1    2  505  506  0.28627379926E+02  0.58637508176E+02 -0.39981861677E+02  0.76527338316E+02  0.00000000000E+00 0.  1.
         21    1    1    2  506  503  0.66752821086E+02  0.50159208368E+02 -0.51865878597E+02  0.98295242355E+02  0.00000000000E+00 0.  1.
<scales pt_clust_3="79.74272" pt_clust_4="72.13196" pt_clust_5="30.53150" pt_clust_6="30.53150"></scales>
<clustering>
<clus scale="   30.532">  5  6 -1 -1</clus>
<clus scale="   72.132">  1  4  2 -1</clus>
<clus scale="   79.743">  2  3  1 -1</clus>
<clus scale="   72.132">  1  3  2 -1</clus>
</clustering>
</event>
<event>
 6    0  0.1080632E+003  0.8389469E+02  0.7546771E-02  0.1318349E+00
         21   -1    0    0  503  501  0.00000000000E+00  0.00000000000E+00  0.38457587274E+03  0.38457587274E+03  0.00000000000E+00 0.  1.
         21   -1    0    0  506  502 -0.00000000000E+00 -0.00000000000E+00 -0.85317939261E+03  0.85317939261E+03  0.00000000000E+00 0. -1.
         21    1    1    2  503  505  0.36975680094E+02 -0.84014054939E+02  0.36238312489E+03  0.37382762277E+03  0.00000000000E+00 0.  1.
         21    1    1    2  504  501 -0.31830966337E+02 -0.57102413214E+00 -0.11775589824E+02  0.33944086410E+02  0.00000000000E+00 0. -1.
         21    1    1    2  505  502  0.41215610686E+02  0.67431113056E+02 -0.60517509463E+03  0.61031350692E+03  0.00000000000E+00 0. -1.
         21    1    1    2  506  504 -0.46360324444E+02  0.17153966016E+02 -0.21403596030E+03  0.21967004924E+03  0.00000000000E+00 0. -1.
<scales pt_clust_3="14000.00000" pt_clust_4="31.83609" pt_clust_5="83.89469" pt_clust_6="49.65590"></scales>
<clustering>
<clus scale="   31.836">  1  4  2 -1</clus>
<clus scale="   49.656">  2  6  1 -1</clus>
<clus scale="   83.895">  2  5  1 -1</clus>
<clus scale="   31.836">  1  3  2 -1</clus>
</clustering>
</event>
<event>
 6    0  0.1080632E+003  0.9729076E+02  0.7546771E-02  0.1286099E+00
         21   -1    0    0  505  501  0.00000000000E+00  0.00000000000E+00  0.77273801901E+02  0.77273801901E+02  0.00000000000E+00 0.  1.
         21   -1    0    0  504  502 -0.00000000000E+00 -0.00000000000E+00 -0.60798683871E+03  0.60798683871E+03  0.00000000000E+00 0. -1.
         21    1    1    2  503  501 -0.62193527443E+02 -0.79051274471E+02 -0.18633456399E+01  0.10060124705E+03  0.00000000000E+00 0.  1.
         21    1    1    2  504  503  0.30648506085E+02  0.32340709236E+02 -0.32953178038E+03  0.33253036956E+03  0.00000000000E+00 0. -1.
         21    1    1    2  505  506  0.11336252703E+02  0.98315613745E+02 -0.12964614460E+03  0.16310301451E+03  0.00000000000E+00 0. -1.
         21    1    1    2  506  502  0.20208768656E+02 -0.51605048511E+02 -0.69671766185E+02  0.89026009490E+02  0.00000000000E+00 0.  1.
<scales pt_clust_3="97.29076" pt_clust_4="44.55617" pt_clust_5="14000.00000" pt_clust_6="51.31295"></scales>
<clustering>
<clus scale="   44.556">  2  4  1 -1</clus>
<clus scale="   51.313">  2  6  1 -1</clus>
<clus scale="   97.291">  1  3  2 -1</clus>
<clus scale="   97.291">  1  3  2 -1</clus>
</clustering>
</event>
<event>
 6    0  0.1080632E+003  0.6311357E+02  0.7546771E-02  0.1385211E+00
         21   -1    0    0  506  501  0.00000000000E+00  0.00000000000E+00  0.30901310912E+04  0.30901310912E+04  0.00000000000E+00 0. -1.
         21   -1    0    0  504  502 -0.00000000000E+00 -0.00000000000E+00 -0.98616474313E+01  0.98616474313E+01  0.00000000000E+00 0.  1.
         21    1    1    2  503  501  0.59339976813E+02 -0.46183356093E+02  0.48660862653E+03  0.49238408854E+03  0.00000000000E+00 0.  1.
         21    1    1    2  504  503  0.53780807515E+02  0.20932493667E+02  0.17818333522E+03  0.18729614385E+03  0.00000000000E+00 0.  1.
         21    1    1    2  505  502 -0.70357287569E+02 -0.18174530196E+02  0.70189873448E+03  0.70565026389E+03  0.00000000000E+00 0. -1.
         21    1    1    2  506  505 -0.42763496759E+02  0.43425392621E+02  0.17135787475E+04  0.17146622424E+04  0.00000000000E+00 0. -1.
<scales pt_clust_3="63.11357" pt_clust_4="57.71087" pt_clust_5="52.46027" pt_clust_6="14000.00000"></scales>
<clustering>
<clus scale="   57.711">  2  4  1 -1</clus>
<clus scale="   52.460">  2  5  1 -1</clus>
<clus scale="   63.114">  2  3  1 -1</clus>
<clus scale="   63.114">  1  3  2 -1</clus>
</clustering>
</event>
<event>
 6    0  0.1080632E+003  0.1022270E+03  0.7546771E-02  0.1275681E+00
         21   -1    0    0  506  501  0.00000000000E+00  0.00000000000E+00  0.33565008716E+04  0.33565008716E+04  0.00000000000E+00 0.  1.
         21   -1    0    0  505  502 -0.00000000000E+00 -0.00000000000E+00 -0.57623650575E+02  0.57623650575E+02  0.00000000000E+00 0. -1.
         21    1    1    2  503  501  0.32504856180E+02 -0.65271095115E+02  0.54136086096E+03  0.54624945155E+03  0.00000000000E+00 0.  1.
         21    1    1    2  504  502 -0.18091577591E+02 -0.58099300614E+02  0.10844780354E+04  0.10861838901E+04  0.00000000000E+00 0.  1.
         21    1    1    2  505  503  0.13082757987E+02  0.10531441177E+03 -0.21835597972E+01  0.10614636977E+03  0.00000000000E+00 0. -1.
         21    1    1    2  506  504 -0.27496036576E+02  0.18055983962E+02  0.16752218844E+04  0.16755448107E+04  0.00000000000E+00 0.  1.
<scales pt_clust_3="102.22701" pt_clust_4="58.66528" pt_clust_5="14000.00000" pt_clust_6="32.89454"></scales>
<clustering>
<clus scale="   32.895">  1  6  2 -1</clus>
<clus scale="   58.665">  1  4  2 -1</clus>
<clus scale="  102.227">  1  3  2 -1</clus>
<clus scale="   32.895">  1  3  2 -1</clus>
</clustering>
</event>
<event>
 6    0  0.1080632E+003  0.1940478E+03  0.7546771E-02  0.1154860E+00
         21   -1    0    0  505  501  0.00000000000E+00  0.00000000000E+00  0.10176215360E+04  0.10176215360E+04  0.00000000000E+00 0.  1.
         21   -1    0    0  506  502 -0.00000000000E+00 -0.00000000000E+00 -0.37143313553E+03  0.37143313553E+03  0.00000000000E+00 0.  1.
         21    1    1    2  503  501  0.59542258001E+02  0.14220438939E+03  0.36077991273E+03  0.39233852001E+03  0.00000000000E+00 0.  1.
         21    1    1    2  504  502 -0.21931990753E+03 -0.13735950305E+03  0.39380748105E+02  0.26176267541E+03  0.00000000000E+00 0.  1.
         21    1    1    2  505  504  0.44912197349E+02  0.31177286281E+02  0.47400350208E+03  0.47714615019E+03  0.00000000000E+00 0.  1.
         21    1    1    2  506  503  0.11486545218E+03 -0.36022172613E+02 -0.22797576247E+03  0.25780732592E+03  0.00000000000E+00 0.  1.
<scales pt_clust_3="14000.00000" pt_clust_4="194.04775" pt_clust_5="54.67292" pt_clust_6="121.30969"></scales>
<clustering>
<clus scale="   54.673">  1  5  2 -1</clus>
<clus scale="  121.310">  2  6  1 -1</clus>
<clus scale="  194.048">  2  4  1 -1</clus>
<clus scale="   54.673">  1  3  2 -1</clus>
</clustering>
</event>
<event>
 6    0  0.1080632E+003  0.2070979E+03  0.7546771E-02  0.1143885E+00
         21   -1    0    0  503  501  0.00000000000E+00  0.00000000000E+00  0.24621911490E+04  0.24621911490E+04  0.00000000000E+00 0.  1.
         21   -1    0    0  504  502 -0.00000000000E+00 -0.00000000000E+00 -0.29894854081E+02  0.29894854081E+02  0.00000000000E+00 0.  1.
         21    1    1    2  503  502  0.19751590550E+03 -0.47172544566E+02  0.82337878600E+03  0.84805094607E+03  0.00000000000E+00 0.  1.
         21    1    1    2  504  505  0.35557648692E+02 -0.11654315396E+02  0.47364168222E+02  0.60361692150E+02  0.00000000000E+00 0.  1.
         21    1    1    2  505  506 -0.22696810749E+02  0.44164490063E+02  0.21166886143E+03  0.21741516575E+03  0.00000000000E+00 0.  1.
         21    1    1    2  506  501 -0.21037674345E+03  0.14662369898E+02  0.13498844793E+04  0.13662581992E+04  0.00000000000E+00 0.  1.
<scales pt_clust_3="14000.00000" pt_clust_4="37.41884" pt_clust_5="46.49869" pt_clust_6="207.09795"></scales>
<clustering>
<clus scale="   37.419">  2  4  1 -1</clus>
<clus scale="   46.499">  2  5  1 -1</clus>
<clus scale="  207.098">  1  6  2 -1</clus>
<clus scale="  207.098">  1  3  2 -1</clus>
</clustering>
</event>
<event>
 6    0  0.1080632E+003  0.2354747E+03  0.7546771E-02  0.1122845E+00
         21   -1    0    0  504  501  0.00000000000E+00  0.00000000000E+00  0.99834163421E+02  0.99834163421E+02  0.00000000000E+00 0. -1.
         21   -1    0    0  505  502 -0.00000000000E+00 -0.00000000000E+00 -0.95865907286E+03  0.95865907286E+03  0.00000000000E+00 0. -1.
         21    1    1    2  503  502 -0.41019522891E+02 -0.76632927564E+01 -0.41180164337E+03  0.41391052269E+03  0.00000000000E+00 0.  1.
         21    1    1    2  504  506  0.87734382783E+02 -0.44397720759E+02 -0.10133338199E+03  0.14119820763E+03  0.00000000000E+00 0. -1.
         21    1    1    2  505  501 -0.19779134297E+03  0.53688444830E+02 -0.25506698155E+03  0.32720487395E+03  0.00000000000E+00 0. -1.
         21    1    1    2  506  503  0.15107648308E+03 -0.16274313153E+01 -0.90622902520E+02  0.17617963200E+03  0.00000000000E+00 0. -1.
<scales pt_clust_3="41.72921" pt_clust_4="55.28995" pt_clust_5="225.20170" pt_clust_6="55.28995"></scales>
<clustering>
<clus scale="   41.729">  2  3  1 -1</clus>
<clus scale="   55.290">  4  6 -1 -1</clus>
<clus scale="  225.202">  2  5  1 -1</clus>
<clus scale="  235.475">  1  3  2 -1</clus>
</clustering>
</event>
<event>
 6    0  0.1080632E+003  0.1469377E+03  0.7546771E-02  0.1204287E+00
         21   -1    0    0  503  501  0.00000000000E+00  0.00000000000E+00  0.87969401107E+03  0.87969401107E+03  0.00000000000E+00 0.  1.
         21   -1    0    0  505  502 -0.00000000000E+00 -0.00000000000E+00 -0.33024583662E+03  0.33024583662E+03  0.00000000000E+00 0.  1.
         21    1    1    2  503  504  0.26430602509E+02 -0.35030608487E+02  0.68429346212E+03  0.68569910498E+03  0.00000000000E+00 0.  1.
         21    1    1    2  504  502 -0.82675476054E+02 -0.44388947609E+02 -0.78769814337E+02  0.12251651587E+03  0.00000000000E+00 0.  1.
         21    1    1    2  505  506 -0.83102253826E+02  0.54975940821E+02 -0.18512240997E+03  0.21023473864E+03  0.00000000000E+00 0.  1.
         21    1    1    2  506  501  0.13934712737E+03  0.24443615276E+02  0.12904693663E+03  0.19148948819E+03  0.00000000000E+00 0.  1.
<scales pt_clust_3="43.88303" pt_clust_4="93.21116" pt_clust_5="14000.00000" pt_clust_6="146.93768"></scales>
<clustering>
<clus scale="   43.883">  1  3  2 -1</clus>
<clus scale="   93.211">  2  4  1 -1</clus>
<clus scale="  146.938">  1  6  2 -1</clus>
<clus scale="   43.883">  1  3  2 -1</clus>
</clustering>
</event>
<event>
 6    0  0.1080632E+003  0.1345813E+03  0.7546771E-02  0.1220812E+00
         21   -1    0    0  503  501  0.00000000000E+00  0.00000000000E+00  0.12170128070E+04  0.12170128070E+04  0.00000000000E+00 0. -1.
         21   -1    0    0  504  502 -0.00000000000E+00 -0.00000000000E+00 -0.13348006708E+03  0.13348006708E+03  0.00000000000E+00 0. -1.
         21    1    1    2  503  506 -0.50036875160E+02  0.14817610308E+03 -0.37427406203E+01  0.15644121741E+03  0.00000000000E+00 0. -1.
         21    1    1    2  504  505  0.77642881724E+02 -0.89333682142E+02  0.36783976528E+02  0.12394347412E+03  0.00000000000E+00 0. -1.
         21    1    1    2  505  501 -0.89138874027E+01 -0.97610292449E+02  0.99532243531E+03  0.10001369790E+04  0.00000000000E+00 0. -1.
         21    1    1    2  506  502 -0.18692119161E+02  0.38767871515E+02  0.55169068673E+02  0.69971203497E+02  0.00000000000E+00 0. -1.
<scales pt_clust_3="14000.00000" pt_clust_4="134.58126" pt_clust_5="97.31269" pt_clust_6="43.03886"></scales>
<clustering>
<clus scale="   43.039">  2  6  1 -1</clus>
<clus scale="   97.313">  1  5  2 -1</clus>
<clus scale="  134.581">  2  4  1 -1</clus>
<clus scale="   97.313">  1  3  2 -1</clus>
</clustering>
</event>
<event>
 6    0  0.1080632E+003  0.9902499E+02  0.7546771E-02  0.1282360E+00
         21   -1    0    0  505  501  0.00000000000E+00  0.00000000000E+00  0.50494551745E+02  0.50494551745E+02  0.00000000000E+00 0. -1.
         21   -1    0    0  506  502 -0.00000000000E+00 -0.00000000000E+00 -0.82813770655E+03  0.82813770655E+03  0.00000000000E+00 0. -1.
         21    1    1    2  503  501  0.10996897731E+02  0.80036778288E+02 -0.52115833203E+02  0.96139886150E+02  0.00000000000E+00 0. -1.
         21    1    1    2  504  502  0.14973381820E+02 -0.33224245332E+02 -0.81711367217E+02  0.89469548861E+02  0.00000000000E+00 0.  1.
         21    1    1    2  505  504 -0.95551095075E+02  0.12523742188E+01 -0.85150567836E+02  0.12799296627E+03  0.00000000000E+00 0. -1.
         21    1    1    2  506  503  0.69580815523E+02 -0.48064907175E+02 -0.55866538655E+03  0.56502985701E+03  0.00000000000E+00 0. -1.
<scales pt_clust_3="77.73034" pt_clust_4="36.44246" pt_clust_5="99.02499" pt_clust_6="14000.00000"></scales>
<clustering>
<clus scale="   36.442">  2  4  1 -1</clus>
<clus scale="   77.730">  1  3  2 -1</clus>
<clus scale="   99.025">  1  5  2 -1</clus>
<clus scale="   77.730">  1  3  2 -1</clus>
</clustering>
</event>
<event>
 6    0  0.1080632E+003  0.8899173E+02  0.7546771E-02  0.1305312E+00
         21   -1    0    0  504  501  0.00000000000E+00  0.00000000000E+00  0.60360329462E+03  0.60360329462E+03  0.00000000000E+00 0.  1.
         21   -1    0    0  505  502 -0.00000000000E+00 -0.00000000000E+00 -0.38870673049E+03  0.38870673049E+03  0.00000000000E+00 0.  1.
         21    1    1    2  503  502  0.41610117974E+02 -0.15269164157E+02 -0.34896725603E+03  0.35177079906E+03  0.00000000000E+00 0.  1.
         21    1    1    2  504  506  0.62139703459E+01 -0.58804765711E+02  0.26167456588E+03  0.26827260823E+03  0.00000000000E+00 0.  1.
         21    1    1    2  505  501  0.10543356675E+02  0.13099044006E+03  0.22158176137E+03  0.25762013650E+03  0.00000000000E+00 0.  1.
         21    1    1    2  506  503 -0.58367444995E+02 -0.56916510188E+02  0.80607492908E+02  0.11464648132E+03  0.00000000000E+00 0.  1.
<scales pt_clust_3="44.32324" pt_clust_4="60.91135" pt_clust_5="88.99173" pt_clust_6="14000.00000"></scales>
<clustering>
<clus scale="   44.323">  2  3  1 -1</clus>
<clus scale="   60.911">  1  4  2 -1</clus>
<clus scale="   88.992">  1  5  2 -1</clus>
<clus scale="   60.911">  1  3  2 -1</clus>
</clustering>
</event>
<event>
 6    0  0.1080632E+003  0.8228616E+02  0.7546771E-02  0.1322686E+00
         21   -1    0    0  505  501  0.00000000000E+00  0.00000000000E+00  0.64098712899E+03  0.64098712899E+03  0.00000000000E+00 0.  1.
         21   -1    0    0  504  502 -0.00000000000E+00 -0.00000000000E+00 -0.28452662679E+03  0.28452662679E+03  0.00000000000E+00 0.  1.
         21    1    1    2  503  502 -0.46037473760E+02  0.67612352495E+02 -0.25542220270E+03  0.26820026255E+03  0.00000000000E+00 0.  1.
         21    1    1    2  504  501 -0.34625417078E+02  0.13299726810E+02  0.15979427224E+03  0.16404271298E+03  0.00000000000E+00 0.  1.
         21    1    1    2  505  506 -0.47669942981E+02 -0.40723811422E+02  0.15243938455E+03  0.16482905764E+03  0.00000000000E+00 0.  1.
         21    1    1    2  506  503  0.12833283382E+03 -0.40188267882E+02  0.29964904812E+03  0.32844172260E+03  0.00000000000E+00 0.  1.
<scales pt_clust_3="82.28616" pt_clust_4="37.09181" pt_clust_5="69.39839" pt_clust_6="14000.00000"></scales>
<clustering>
<clus scale="   37.092">  1  4  2 -1</clus>
<clus scale="   69.398">  1  5  2 -1</clus>
<clus scale="   82.286">  2  3  1 -1</clus>
<clus scale="   37.092">  1  3  2 -1</clus>
</clustering>
</event>
<event>
 6    0  0.1080632E+003  0.1181819E+03  0.7546771E-02  0.1246127E+00
         21   -1    0    0  503  501  0.00000000000E+00  0.00000000000E+00  0.98099040062E+02  0.98099040062E+02  0.00000000000E+00 0. -1.
         21   -1    0    0  504  502 -0.00000000000E+00 -0.00000000000E+00 -0.43238718267E+03  0.43238718267E+03  0.00000000000E+00 0.  1.
         21    1    1    2  503  502 -0.14526964243E+03  0.15343574704E+01 -0.10313573569E+02  0.14564337632E+03  0.00000000000E+00 0. -1.
         21    1    1    2  504  505 -0.32406692281E+00  0.32985757523E+02 -0.10747333705E+03  0.11242189909E+03  0.00000000000E+00 0.  1.
         21    1    1    2  505  506  0.11174010520E+03 -0.25483882314E+02 -0.20618112506E+03  0.23589390771E+03  0.00000000000E+00 0.  1.
         21    1    1    2  506  501  0.33853604158E+02 -0.90362326791E+01 -0.10320106929E+02  0.36527039608E+02  0.00000000000E+00 0. -1.
<scales pt_clust_3="118.18193" pt_clust_4="32.98735" pt_clust_5="14000.00000" pt_clust_6="34.47554"></scales>
<clustering>
<clus scale="   32.987">  2  4  1 -1</clus>
<clus scale="   34.476">  1  6  2 -1</clus>
<clus scale="  118.182">  1  3  2 -1</clus>
<clus scale="   34.476">  1  3  2 -1</clus>
</clustering>
</event>
<event>
 6    0  0.1080632E+003  0.8437346E+02  0.7546771E-02  0.1317079E+00
         21   -1    0    0  506  501  0.00000000000E+00  0.00000000000E+00  0.20219052094E+04  0.20219052094E+04  0.00000000000E+00 0. -1.
         21   -1    0    0  503  502 -0.00000000000E+00 -0.00000000000E+00 -0.18241081950E+02  0.18241081950E+02  0.00000000000E+00 0.  1.
         21    1    1    2  503  504 -0.21494207923E+02  0.26792408135E+02  0.20448809971E+02  0.39974841302E+02  0.00000000000E+00 0.  1.
         21    1    1    2  504  501  0.42231533229E+02  0.24294388673E+02  0.21876414750E+03  0.22412378712E+03  0.00000000000E+00 0.  1.
         21    1    1    2  505  502  0.67935224388E+02 -0.50460097887E+02  0.40707771154E+03  0.41578080695E+03  0.00000000000E+00 0.  1.
         21    1    1    2  506  505 -0.88672549694E+02 -0.62669892023E+00  0.13573734585E+04  0.13602668560E+04  0.00000000000E+00 0. -1.
<scales pt_clust_3="34.34871" pt_clust_4="48.26218" pt_clust_5="14000.00000" pt_clust_6="84.37346"></scales>
<clustering>
<clus scale="   34.349">  2  3  1 -1</clus>
<clus scale="   48.262">  2  4  1 -1</clus>
<clus scale="   84.373">  1  6  2 -1</clus>
<clus scale="   84.373">  1  3  2 -1</clus>
</clustering>
</event>
<event>
 6    0  0.1080632E+003  0.1942470E+03  0.7546771E-02  0.1154686E+00
         21   -1    0    0  504  501  0.00000000000E+00  0.00000000000E+00  0.90480783094E+03  0.90480783094E+03  0.00000000000E+00 0.  1.
         21   -1    0    0  506  502 -0.00000000000E+00 -0.00000000000E+00 -0.56423044161E+03  0.56423044161E+03  0.00000000000E+00 0. -1.
         21    1    1    2  503  505  0.78849889740E+02  0.20739130303E+02 -0.21810089197E+02  0.84398439728E+02  0.00000000000E+00 0. -1.
         21    1    1    2  504  503 -0.30551051134E+02 -0.27980239769E+02  0.81803185633E+03  0.81908020273E+03  0.00000000000E+00 0.  1.
         21    1    1    2  505  502  0.11769459496E+03  0.69039737135E+02 -0.10309798523E+03  0.17101958234E+03  0.00000000000E+00 0. -1.
         21    1    1    2  506  501 -0.16599343356E+03 -0.61798627670E+02 -0.35254639257E+03  0.39454004775E+03  0.00000000000E+00 0. -1.
<scales pt_clust_3="40.94348" pt_clust_4="41.42778" pt_clust_5="40.94348" pt_clust_6="186.50881"></scales>
<clustering>
<clus scale="   41.428">  1  4  2 -1</clus>
<clus scale="   40.943">  3  5 -1 -1</clus>
<clus scale="  186.509">  2  6  1 -1</clus>
<clus scale="   41.428">  1  3  2 -1</clus>
</clustering>
</event>
<event>
 6    0  0.1080632E+003  0.9275898E+02  0.7546771E-02  0.1296305E+00
         21   -1    0    0  506  501  0.00000000000E+00  0.00000000000E+00  0.14567644629E+04  0.14567644629E+04  0.00000000000E+00 0.  1.
         21   -1    0    0  505  502 -0.00000000000E+00 -0.00000000000E+00 -0.38556809393E+02  0.38556809393E+02  0.00000000000E+00 0.  1.
         21    1    1    2  503  502 -0.47820818055E+02 -0.41473768296E+02  0.79802510963E+02  0.10185943674E+03  0.00000000000E+00 0.  1.
         21    1    1    2  504  501  0.49288680420E+02 -0.26449311585E+02  0.10887791599E+04  0.10902151160E+04  0.00000000000E+00 0.  1.
         21    1    1    2  505  504 -0.56849941154E+02  0.61134896497E+02  0.53066793421E+02  0.98921564600E+02  0.00000000000E+00 0.  1.
         21    1    1    2  506  503  0.55382078789E+02  0.67881833833E+01  0.19655918923E+03  0.20432515497E+03  0.00000000000E+00 0.  1.
<scales pt_clust_3="59.99594" pt_clust_4="14000.00000" pt_clust_5="92.75898" pt_clust_6="55.79654"></scales>
<clustering>
<clus scale="   55.797">  1  6  2 -1</clus>
<clus scale="   59.996">  2  3  1 -1</clus>
<clus scale="   92.759">  2  5  1 -1</clus>
<clus scale="   55.797">  1  3  2 -1</clus>
</clustering>
</event>
<event>
 6    0  0.1080632E+003  0.1020918E+03  0.7546771E-02  0.1275958E+00
         21   -1    0    0  503  501  0.00000000000E+00  0.00000000000E+00  0.11140303425E+03  0.11140303425E+03  0.00000000000E+00 0. -1.
         21   -1    0    0  506  502 -0.00000000000E+00 -0.00000000000E+00 -0.10663483039E+04  0.10663483039E+04  0.00000000000E+00 0. -1.
         21    1    1    2  503  504 -0.65731558162E+02 -0.67438224304E+02 -0.65516893317E+02  0.11472146768E+03  0.00000000000E+00 0. -1.
         21    1    1    2  504  502 -0.72564430148E+02  0.34510786049E+02 -0.34678502249E+03  0.35597253082E+03  0.00000000000E+00 0. -1.
         21    1    1    2  505  501  0.16485968200E+01  0.73805211052E+02  0.55363071034E+02  0.92276739670E+02  0.00000000000E+00 0. -1.
         21    1    1    2  506  505  0.13664739149E+03 -0.40877772796E+02 -0.59800642485E+03  0.61478059995E+03  0.00000000000E+00 0. -1.
<scales pt_clust_3="67.42165" pt_clust_4="102.09181" pt_clust_5="73.82362" pt_clust_6="14000.00000"></scales>
<clustering>
<clus scale="   73.824">  1  5  2 -1</clus>
<clus scale="   67.422">  1  3  2 -1</clus>
<clus scale="  102.092">  2  4  1 -1</clus>
<clus scale="   73.824">  1  3  2 -1</clus>
</clustering>
</event>
<event>
 6    0  0.1080632E+003  0.7708684E+02  0.7546771E-02  0.1337528E+00
         21   -1    0    0  506  501  0.00000000000E+00  0.00000000000E+00  0.16127677805E+03  0.16127677805E+03  0.00000000000E+00 0.  1.
         21   -1    0    0  505  502 -0.00000000000E+00 -0.00000000000E+00 -0.21376238723E+03  0.21376238723E+03  0.00000000000E+00 0.  1.
         21    1    1    2  503  501 -0.36088741505E+02  0.36857458918E+02  0.85126931071E+02  0.99536244328E+02  0.00000000000E+00 0.  1.
         21    1    1    2  504  502  0.14616163896E+02 -0.38747324370E+02 -0.97717472050E+02  0.10613054102E+03  0.00000000000E+00 0.  1.
         21    1    1    2  505  503 -0.31103711252E+02  0.70466695387E+02 -0.87608329304E+01  0.77522565786E+02  0.00000000000E+00 0.  1.
         21    1    1    2  506  504  0.52576288861E+02 -0.68576829935E+02 -0.31134235269E+02  0.91849814154E+02  0.00000000000E+00 0.  1.
<scales pt_clust_3="49.15308" pt_clust_4="41.41241" pt_clust_5="77.08684" pt_clust_6="14000.00000"></scales>
<clustering>
<clus scale="   41.412">  2  4  1 -1</clus>
<clus scale="   49.153">  1  3  2 -1</clus>
<clus scale="   77.087">  2  5  1 -1</clus>
<clus scale="   49.153">  1  3  2 -1</clus>
</clustering>
</event>
<event>
 6    0  0.1080632E+003  0.1404841E+03  0.7546771E-02  0.1212679E+00
         21   -1    0    0  506  501  0.00000000000E+00  0.00000000000E+00  0.21093303047E+03  0.21093303047E+03  0.00000000000E+00 0.  1.
         21   -1    0    0  504  502 -0.00000000000E+00 -0.00000000000E+00 -0.63730099124E+03  0.63730099124E+03  0.00000000000E+00 0.  1.
         21    1    1    2  503  501 -0.54966231480E+02 -0.44461997652E+02 -0.17905398747E+03  0.19250580840E+03  0.00000000000E+00 0.  1.
         21    1    1    2  504  503 -0.98720835649E+02 -0.34678310667E+02 -0.36287826780E+03  0.37766258203E+03  0.00000000000E+00 0.  1.
         21    1    1    2  505  502  0.40135872868E+02  0.91438762082E+01 -0.50442005984E+02  0.65106794812E+02  0.00000000000E+00 0.  1.
         21    1    1    2  506  505  0.11355119426E+03  0.69996432111E+02  0.16600630049E+03  0.21295883647E+03  0.00000000000E+00 0.  1.
<scales pt_clust_3="32.03136" pt_clust_4="32.03136" pt_clust_5="41.16429" pt_clust_6="134.97130"></scales>
<clustering>
<clus scale="   32.031">  3  4 -1 -1</clus>
<clus scale="   41.164">  2  5  1 -1</clus>
<clus scale="  134.971">  1  6  2 -1</clus>
<clus scale="  134.971">  1  3  2 -1</clus>
</clustering>
</event>
<event>
 6    0  0.1080632E+003  0.1057093E+03  0.7546771E-02  0.1268728E+00
         21   -1    0    0  505  501  0.00000000000E+00  0.00000000000E+00  0.42747478924E+03  0.42747478924E+03  0.00000000000E+00 0. -1.
         21   -1    0    0  506  502 -0.00000000000E+00 -0.00000000000E+00 -0.19879067365E+03  0.19879067365E+03  0.00000000000E+00 0.  1.
         21    1    1    2  503  504 -0.48018734523E+02 -0.48192569874E+02  0.27956425010E+02  0.73551916056E+02  0.00000000000E+00 0.  1.
         21    1    1    2  504  501  0.10515053554E+03 -0.15422425663E+02  0.33175226606E+03  0.34835908539E+03  0.00000000000E+00 0. -1.
         21    1    1    2  505  502 -0.89623967231E+02  0.66071374308E+02 -0.60627125909E+02  0.12678142767E+03  0.00000000000E+00 0.  1.
         21    1    1    2  506  503  0.32492166216E+02 -0.24563787716E+01 -0.70397449573E+02  0.77573033771E+02  0.00000000000E+00 0.  1.
<scales pt_clust_3="64.31947" pt_clust_4="14000.00000" pt_clust_5="105.70931" pt_clust_6="32.58488"></scales>
<clustering>
<clus scale="   32.585">  2  6  1 -1</clus>
<clus scale="   64.319">  2  3  1 -1</clus>
<clus scale="  105.709">  2  5  1 -1</clus>
<clus scale="  105.709">  1  3  2 -1</clus>
</clustering>
</event>
<event>
 6    0  0.1080632E+003  0.8055692E+02  0.7546771E-02  0.1327478E+00
         21   -1    0    0  503  501  0.00000000000E+00  0.00000000000E+00  0.22948659038E+03  0.22948659038E+03  0.00000000000E+00 0.  1.
         21   -1    0    0  506  502 -0.00000000000E+00 -0.00000000000E+00 -0.27387179600E+03  0.27387179600E+03  0.00000000000E+00 0.  1.
         21    1    1    2  503  502 -0.83029892814E+02 -0.42312555112E+02 -0.13421332733E+03  0.16339379626E+03  0.00000000000E+00 0.  1.
         21    1    1    2  504  501 -0.72117114784E+02  0.22078702365E+02  0.13993001950E+03  0.15896149754E+03  0.00000000000E+00 0.  1.
         21    1    1    2  505  504  0.12901070068E+03 -0.15078153042E+02 -0.40216921426E+02  0.13597246912E+03  0.00000000000E+00 0.  1.
         21    1    1    2  506  505  0.26136306915E+02  0.35312005789E+02 -0.98849763608E+01  0.45030623465E+02  0.00000000000E+00 0.  1.
<scales pt_clust_3="70.44606" pt_clust_4="80.55692" pt_clust_5="14000.00000" pt_clust_6="43.93227"></scales>
<clustering>
<clus scale="   43.932">  2  6  1 -1</clus>
<clus scale="   70.446">  2  3  1 -1</clus>
<clus scale="   80.557">  1  4  2 -1</clus>
<clus scale="   80.557">  1  3  2 -1</clus>
</clustering>
</event>
<event>
 6    0  0.1080632E+003  0.1923292E+03  0.7546771E-02  0.1156377E+00
         21   -1    0    0  506  501  0.00000000000E+00  0.00000000000E+00  0.53183339640E+03  0.53183339640E+03  0.00000000000E+00 0. -1.
         21   -1    0    0  503  502 -0.00000000000E+00 -0.00000000000E+00 -0.37259581561E+03  0.37259581561E+03  0.00000000000E+00 0. -1.
         21    1    1    2  503  501 -0.12632596529E+03  0.14011660307E+03 -0.31291369117E+03  0.36538457833E+03  0.00000000000E+00 0. -1.
         21    1    1    2  504  505  0.22489761084E+02 -0.72913512241E+02  0.91546546019E+02  0.11917608698E+03  0.00000000000E+00 0. -1.
         21    1    1    2  505  502  0.68181651873E+02 -0.97151866147E+02  0.19302849000E+03  0.22659925132E+03  0.00000000000E+00 0. -1.
         21    1    1    2  506  504  0.35654552338E+02  0.29948775320E+02  0.18757623594E+03  0.19326929538E+03  0.00000000000E+00 0. -1.
<scales pt_clust_3="188.56408" pt_clust_4="30.36364" pt_clust_5="30.36364" pt_clust_6="46.56368"></scales>
<clustering>
<clus scale="   30.364">  4  5 -1 -1</clus>
<clus scale="   46.564">  1  6  2 -1</clus>
<clus scale="  188.564">  2  3  1 -1</clus>
<clus scale="   46.564">  1  3  2 -1</clus>
</clustering>
</event>
<event>
 6    0  0.1080632E+003  0.1855761E+03  0.7546771E-02  0.1162513E+00
         21   -1    0    0  505  501  0.00000000000E+00  0.00000000000E+00  0.13226143800E+03  0.13226143800E+03  0.00000000000E+00 0. -1.
         21   -1    0    0  501  502 -0.00000000000E+00 -0.00000000000E+00 -0.78077307575E+03  0.78077307575E+03  0.00000000000E+00 0. -1.
         21    1    1    2  503  502 -0.39007264517E+02 -0.13482008924E+03 -0.39470697218E+03  0.41891719592E+03  0.00000000000E+00 0. -1.
         21    1    1    2  504  503  0.34024490508E+02  0.23345004260E+02 -0.14564691031E+02  0.43758260969E+02  0.00000000000E+00 0. -1.
         21    1    1    2  505  506 -0.79193774892E+01 -0.13188773530E+03 -0.47988103983E+02  0.14057008709E+03  0.00000000000E+00 0. -1.
         21    1    1    2  506  504  0.12902151498E+02  0.24336282027E+03 -0.19125187055E+03  0.30978896978E+03  0.00000000000E+00 0. -1.
<scales pt_clust_3="158.55120" pt_clust_4="39.68182" pt_clust_5="132.12529" pt_clust_6="39.68182"></scales>
<clustering>
<clus scale="   39.682">  4  6 -1 -1</clus>
<clus scale="  132.125">  1  5  2 -1</clus>
<clus scale="  158.551">  2  3  1 -1</clus>
<clus scale="  132.125">  1  3  2 -1</clus>
</clustering>
</event>
<event>
 6    0  0.1094625E+003  0.1213108E+03  0.7546771E-02  0.1240950E+00
         21   -1    0    0  503  501  0.00000000000E+00  0.00000000000E+00  0.11005858969E+03  0.11005858969E+03  0.00000000000E+00 0.  1.
         21   -1    0    0  504  502 -0.00000000000E+00 -0.00000000000E+00 -0.22549434515E+04  0.22549434515E+04  0.00000000000E+00 0.  1.
         21    1    1    2  503  506 -0.41911833656E+02  0.70352139886E+02  0.66540070922E+02  0.10551590603E+03  0.00000000000E+00 0.  1.
         21    1    1    2  504  505  0.41619414231E+01  0.77543888771E+02 -0.10034392401E+03  0.12688293631E+03  0.00000000000E+00 0. -1.
         21    1    1    2  505  501  0.35800800175E+02 -0.20096291300E+02 -0.39138031554E+02  0.56721633713E+02  0.00000000000E+00 0. -1.
         21    1    1    2  506  502  0.19490920578E+01 -0.12779973736E+03 -0.20719429772E+04  0.20758815651E+04  0.00000000000E+00 0.  1.
<scales pt_clust_3="54.50659" pt_clust_4="121.31077" pt_clust_5="41.05555" pt_clust_6="14000.00000"></scales>
<clustering>
<clus scale="   41.056">  1  5  2 -1</clus>
<clus scale="   54.507">  1  3  2 -1</clus>
<clus scale="  121.311">  1  4  2 -1</clus>
<clus scale="   41.056">  1  3  2 -1</clus>
</clustering>
</event>
<event>
 6    0  0.1080632E+003  0.1226204E+03  0.7546771E-02  0.1238836E+00
         21   -1    0    0  503  501  0.00000000000E+00  0.00000000000E+00  0.43226730955E+03  0.43226730955E+03  0.00000000000E+00 0.  1.
         21   -1    0    0  505  502 -0.00000000000E+00 -0.00000000000E+00 -0.49129679294E+02  0.49129679294E+02  0.00000000000E+00 0.  1.
         21    1    1    2  503  506 -0.53264756103E+02  0.26890638993E+02  0.99841947350E+02  0.11631274719E+03  0.00000000000E+00 0.  1.
         21    1    1    2  504  502  0.11299803121E+03  0.17482807301E+02  0.82356217135E+02  0.14091398124E+03  0.00000000000E+00 0.  1.
         21    1    1    2  505  501  0.56416698706E+01 -0.30123343688E+02  0.84354901503E+02  0.89749616609E+02  0.00000000000E+00 0.  1.
         21    1    1    2  506  504 -0.65374944978E+02 -0.14250102606E+02  0.11658456427E+03  0.13442064381E+03  0.00000000000E+00 0.  1.
<scales pt_clust_3="37.80842" pt_clust_4="115.08311" pt_clust_5="30.64709" pt_clust_6="37.80842"></scales>
<clustering>
<clus scale="   30.647">  1  5  2 -1</clus>
<clus scale="   37.808">  3  6 -1 -1</clus>
<clus scale="  115.083">  2  4  1 -1</clus>
<clus scale="   30.647">  1  3  2 -1</clus>
</clustering>
</event>
<event>
 6    0  0.1080632E+003  0.2231071E+03  0.7546771E-02  0.1131588E+00
         21   -1    0    0  506  501  0.00000000000E+00  0.00000000000E+00  0.12198790644E+03  0.12198790644E+03  0.00000000000E+00 0.  1.
         21   -1    0    0  505  502 -0.00000000000E+00 -0.00000000000E+00 -0.14536435473E+04  0.14536435473E+04  0.00000000000E+00 0. -1.
         21    1    1    2  503  501 -0.15866133843E+02 -0.22951133102E+03 -0.27533377099E+02  0.23170082461E+03  0.00000000000E+00 0.  1.
         21    1    1    2  504  502 -0.62779039486E+02  0.21160419624E+03 -0.10385337939E+04  0.10617297136E+04  0.00000000000E+00 0. -1.
         21    1    1    2  505  503  0.39229962109E+02  0.10926238801E+02 -0.20873027385E+03  0.21266569973E+03  0.00000000000E+00 0. -1.
         21    1    1    2  506  504  0.39415211220E+02  0.69808959763E+01 -0.56858196009E+02  0.69535215809E+02  0.00000000000E+00 0. -1.
<scales pt_clust_3="223.10711" pt_clust_4="14000.00000" pt_clust_5="41.40108" pt_clust_6="40.02864"></scales>
<clustering>
<clus scale="   40.029">  1  6  2 -1</clus>
<clus scale="   41.401">  2  5  1 -1</clus>
<clus scale="  223.107">  1  3  2 -1</clus>
<clus scale="   40.029">  1  3  2 -1</clus>
</clustering>
</event>
<event>
 6    0  0.1080632E+003  0.1246858E+03  0.7546771E-02  0.1235561E+00
         21   -1    0    0  505  501  0.00000000000E+00  0.00000000000E+00  0.15738062944E+02  0.15738062944E+02  0.00000000000E+00 0.  1.
         21   -1    0    0  503  502 -0.00000000000E+00 -0.00000000000E+00 -0.27023657613E+04  0.27023657613E+04  0.00000000000E+00 0.  1.
         21    1    1    2  503  504  0.35739451127E+02  0.51659388559E+02 -0.56092429030E+03  0.56443073999E+03  0.00000000000E+00 0.  1.
         21    1    1    2  504  506  0.51094275477E+02  0.15955397172E+01 -0.46069643604E+03  0.46352386876E+03  0.00000000000E+00 0.  1.
         21    1    1    2  505  502 -0.11980031071E+03  0.72558283075E+02 -0.11695157356E+04  0.11778726054E+04  0.00000000000E+00 0.  1.
         21    1    1    2  506  501  0.32966584103E+02 -0.12581321135E+03 -0.49549123643E+03  0.51227661004E+03  0.00000000000E+00 0.  1.
<scales pt_clust_3="113.93757" pt_clust_4="46.04742" pt_clust_5="14000.00000" pt_clust_6="124.68582"></scales>
<clustering>
<clus scale="   46.047">  3  4 -1 -1</clus>
<clus scale="  113.938">  2  3  1 -1</clus>
<clus scale="  124.686">  1  6  2 -1</clus>
<clus scale="  124.686">  1  3  2 -1</clus>
</clustering>
</event>
<event>
 6    0  0.1080632E+003  0.1089496E+03  0.7546771E-02  0.1262527E+00
         21   -1    0    0  504  501  0.00000000000E+00  0.00000000000E+00  0.19514407457E+03  0.19514407457E+03  0.00000000000E+00 0. -1.
         21   -1    0    0  506  502 -0.00000000000E+00 -0.00000000000E+00 -0.64459755593E+03  0.64459755593E+03  0.00000000000E+00 0.  1.
         21    1    1    2  503  502 -0.89243905172E+02 -0.50336513142E+02 -0.19078052717E+03  0.21655357008E+03  0.00000000000E+00 0.  1.
         21    1    1    2  504  505  0.59329180702E+02  0.64725963719E+02  0.15840234244E+03  0.18110964677E+03  0.00000000000E+00 0. -1.
         21    1    1    2  505  503 -0.37240123897E+02  0.98551628916E+01 -0.30970884830E+02  0.49428198133E+02  0.00000000000E+00 0. -1.
         21    1    1    2  506  501  0.67154848368E+02 -0.24244613469E+02 -0.38610441180E+03  0.39265021553E+03  0.00000000000E+00 0.  1.
<scales pt_clust_3="38.46668" pt_clust_4="89.07500" pt_clust_5="38.46668" pt_clust_6="71.39730"></scales>
<clustering>
<clus scale="   38.467">  3  5 -1 -1</clus>
<clus scale="   71.397">  2  6  1 -1</clus>
<clus scale="   89.075">  1  4  2 -1</clus>
<clus scale="   89.075">  1  3  2 -1</clus>
</clustering>
</event>
<event>
 6    0  0.1167324E+003  0.1258661E+03  0.7546771E-02  0.1233722E+00
         21   -1    0    0  505  501  0.00000000000E+00  0.00000000000E+00  0.15582255639E+03  0.15582255639E+03  0.00000000000E+00 0. -1.
         21   -1    0    0  506  502 -0.00000000000E+00 -0.00000000000E+00 -0.11228898068E+04  0.11228898068E+04  0.00000000000E+00 0.  1.
         21    1    1    2  503  502  0.84372841119E+02 -0.84689663970E+02 -0.10785483518E+04  0.10851532899E+04  0.00000000000E+00 0.  1.
         21    1    1    2  504  503 -0.90998583325E+01  0.51166232933E+02  0.36084329458E+02  0.63268235685E+02  0.00000000000E+00 0. -1.
         21    1    1    2  505  504 -0.28503210223E+02  0.29539863888E+02  0.72435678967E+02  0.83258417826E+02  0.00000000000E+00 0. -1.
         21    1    1    2  506  501 -0.46769772564E+02  0.39835671490E+01  0.29610929850E+01  0.47032419719E+02  0.00000000000E+00 0. -1.
<scales pt_clust_3="118.64342" pt_clust_4="37.34869" pt_clust_5="37.34869" pt_clust_6="46.93911"></scales>
<clustering>
<clus scale="   37.349">  4  5 -1 -1</clus>
<clus scale="   46.939">  1  6  2 -1</clus>
<clus scale="  118.643">  2  3  1 -1</clus>
<clus scale="   46.939">  1  3  2 -1</clus>
</clustering>
</event>
<event>
 6    0  0.1080632E+003  0.1563199E+03  0.7546771E-02  0.1192915E+00
         21   -1    0    0  504  501  0.00000000000E+00  0.00000000000E+00  0.16872457017E+04  0.16872457017E+04  0.00000000000E+00 0.  1.
         21   -1    0    0  506  502 -0.00000000000E+00 -0.00000000000E+00 -0.14038177527E+03  0.14038177527E+03  0.00000000000E+00 0. -1.
         21    1    1    2  503  505  0.19879400459E+03 -0.64720738480E+02  0.53654215088E+02  0.21583930376E+03  0.00000000000E+00 0. -1.
         21    1    1    2  504  502 -0.22512902333E+02  0.40899540044E+02 -0.23758386585E+02  0.52383815062E+02  0.00000000000E+00 0.  1.
         21    1    1    2  505  501 -0.14613064678E+03  0.47911356751E+02  0.15127897872E+04  0.15205862700E+04  0.00000000000E+00 0.  1.
         21    1    1    2  506  503 -0.30150455479E+02 -0.24090158315E+02  0.41783107291E+01  0.38818088229E+02  0.00000000000E+00 0. -1.
<scales pt_clust_3="156.31995" pt_clust_4="46.17906" pt_clust_5="14000.00000" pt_clust_6="38.59256"></scales>
<clustering>
<clus scale="   38.593">  2  6  1 -1</clus>
<clus scale="   46.179">  2  4  1 -1</clus>
<clus scale="  156.320">  2  3  1 -1</clus>
<clus scale="  156.320">  1  3  2 -1</clus>
</clustering>
</event>
<event>
 6    0  0.1080632E+003  0.1303099E+03  0.7546771E-02  0.1226997E+00
         21   -1    0    0  505  501  0.00000000000E+00  0.00000000000E+00  0.15196265246E+04  0.15196265246E+04  0.00000000000E+00 0. -1.
         21   -1    0    0  506  502 -0.00000000000E+00 -0.00000000000E+00 -0.31073997602E+03  0.31073997602E+03  0.00000000000E+00 0. -1.
         21    1    1    2  503  504  0.45141289584E+01  0.12553656213E+03  0.75246922012E+03  0.76288251587E+03  0.00000000000E+00 0. -1.
         21    1    1    2  504  501 -0.38060328268E+02 -0.23542058694E+02  0.58581467134E+03  0.58752161345E+03  0.00000000000E+00 0. -1.
         21    1    1    2  505  502 -0.28781785416E+02  0.12904908043E+02  0.15964788822E+03  0.16273406539E+03  0.00000000000E+00 0.  1.
         21    1    1    2  506  503  0.62327984725E+02 -0.11489941148E+03 -0.28904523111E+03  0.31722830590E+03  0.00000000000E+00 0. -1.
<scales pt_clust_3="130.30992" pt_clust_4="53.59246" pt_clust_5="31.54248" pt_clust_6="14000.00000"></scales>
<clustering>
<clus scale="   31.542">  1  5  2 -1</clus>
<clus scale="   53.592">  1  4  2 -1</clus>
<clus scale="  130.310">  1  3  2 -1</clus>
<clus scale="   31.542">  1  3  2 -1</clus>
</clustering>
</event>
<event>
 6    0  0.1080632E+003  0.1226205E+03  0.7546771E-02  0.1238836E+00
         21   -1    0    0  506  501  0.00000000000E+00  0.00000000000E+00  0.10621891699E+03  0.10621891699E+03  0.00000000000E+00 0.  1.
         21   -1    0    0  505  502 -0.00000000000E+00 -0.00000000000E+00 -0.45216156744E+03  0.45216156744E+03  0.00000000000E+00 0.  1.
         21    1    1    2  503  502  0.70916459139E+02 -0.14157060609E+03 -0.19095043682E+03  0.24805936791E+03  0.00000000000E+00 0.  1.
         21    1    1    2  504  501 -0.36637028850E+01  0.10870458027E+03 -0.68314248889E+02  0.12844043402E+03  0.00000000000E+00 0.  1.
         21    1    1    2  505  504 -0.13661882251E+02  0.46989449924E+02 -0.11103776273E+03  0.12134265608E+03  0.00000000000E+00 0.  1.
         21    1    1    2  506  503 -0.53590874003E+02 -0.14123424107E+02  0.24359797992E+02  0.60538026422E+02  0.00000000000E+00 0.  1.
<scales pt_clust_3="14000.00000" pt_clust_4="122.62052" pt_clust_5="48.93522" pt_clust_6="55.54972"></scales>
<clustering>
<clus scale="   48.935">  2  5  1 -1</clus>
<clus scale="   55.550">  1  6  2 -1</clus>
<clus scale="  122.621">  1  4  2 -1</clus>
<clus scale="   55.550">  1  3  2 -1</clus>
</clustering>
</event>
<event>
 6    0  0.1080632E+003  0.8903331E+02  0.7546771E-02  0.1305210E+00
         21   -1    0    0  504  501  0.00000000000E+00  0.00000000000E+00  0.11383433485E+03  0.11383433485E+03  0.00000000000E+00 0. -1.
         21   -1    0    0  506  502 -0.00000000000E+00 -0.00000000000E+00 -0.27141459674E+03  0.27141459674E+03  0.00000000000E+00 0. -1.
         21    1    1    2  503  501 -0.45051402406E+02 -0.62254565505E+02 -0.71977992433E+02  0.10529050850E+03  0.00000000000E+00 0. -1.
         21    1    1    2  504  505  0.51640040834E+02 -0.17557552999E+01  0.16284047475E+02  0.54175148326E+02  0.00000000000E+00 0.  1.
         21    1    1    2  505  502  0.67407507312E+01  0.91873765034E+02  0.24788122893E+02  0.95397470923E+02  0.00000000000E+00 0. -1.
         21    1    1    2  506  503 -0.13329389158E+02 -0.27863444229E+02 -0.12667443982E+03  0.13038580384E+03  0.00000000000E+00 0. -1.
<scales pt_clust_3="14000.00000" pt_clust_4="50.16958" pt_clust_5="89.03331" pt_clust_6="30.88760"></scales>
<clustering>
<clus scale="   30.888">  2  6  1 -1</clus>
<clus scale="   50.170">  1  4  2 -1</clus>
<clus scale="   89.033">  1  5  2 -1</clus>
<clus scale="   50.170">  1  3  2 -1</clus>
</clustering>
</event>
<event>
 6    0  0.1080632E+003  0.1043524E+03  0.7546771E-02  0.1271401E+00
         21   -1    0    0  506  501  0.00000000000E+00  0.00000000000E+00  0.11591335050E+04  0.11591335050E+04  0.00000000000E+00 0. -1.
         21   -1    0    0  504  502 -0.00000000000E+00 -0.00000000000E+00 -0.99001782059E+02  0.99001782059E+02  0.00000000000E+00 0.  1.
         21    1    1    2  503  501 -0.90104267573E+02 -0.84143161622E+02  0.60678554740E+02  0.13740719664E+03  0.00000000000E+00 0.  1.
         21    1    1    2  504  503 -0.67377888032E+01  0.10968852032E+03  0.10479267264E+01  0.10990026133E+03  0.00000000000E+00 0.  1.
         21    1    1    2  505  502  0.60305626863E+02 -0.34367121679E+02  0.93154154251E+03  0.93412392813E+03  0.00000000000E+00 0. -1.
         21    1    1    2  506  505  0.36536429513E+02  0.88217629760E+01  0.66863698934E+02  0.76703900935E+02  0.00000000000E+00 0.  1.
<scales pt_clust_3="14000.00000" pt_clust_4="104.35237" pt_clust_5="95.48781" pt_clust_6="37.58636"></scales>
<clustering>
<clus scale="   37.586">  1  6  2 -1</clus>
<clus scale="   95.488">  1  5  2 -1</clus>
<clus scale="  104.352">  2  4  1 -1</clus>
<clus scale="   37.586">  1  3  2 -1</clus>
</clustering>
</event>
<event>
 6    0  0.1080632E+003  0.9909737E+02  0.7546771E-02  0.1282206E+00
         21   -1    0    0  503  501  0.00000000000E+00  0.00000000000E+00  0.16386529953E+03  0.16386529953E+03  0.00000000000E+00 0.  1.
         21   -1    0    0  505  502 -0.00000000000E+00 -0.00000000000E+00 -0.11443590760E+04  0.11443590760E+04  0.00000000000E+00 0.  1.
         21    1    1    2  503  506  0.44799681476E+02  0.78491448226E+02 -0.23846406590E+03  0.25501574389E+03  0.00000000000E+00 0. -1.
         21    1    1    2  504  502 -0.23145906493E+02 -0.28302698152E+02 -0.73448133369E+02  0.82045133953E+02  0.00000000000E+00 0. -1.
         21    1    1    2  505  501  0.54882747578E+02 -0.10542729616E+01  0.14368878101E+03  0.15381707728E+03  0.00000000000E+00 0.  1.
         21    1    1    2  506  504 -0.76536522562E+02 -0.49134477113E+02 -0.81227035824E+03  0.81734642044E+03  0.00000000000E+00 0.  1.
<scales pt_clust_3="99.09737" pt_clust_4="36.56194" pt_clust_5="54.78575" pt_clust_6="14000.00000"></scales>
<clustering>
<clus scale="   36.562">  2  4  1 -1</clus>
<clus scale="   54.786">  1  5  2 -1</clus>
<clus scale="   99.097">  1  3  2 -1</clus>
<clus scale="   54.786">  1  3  2 -1</clus>
</clustering>
</event>
<event>
 6    0  0.1080632E+003  0.1571638E+03  0.7546771E-02  0.1191937E+00
         21   -1    0    0  504  501  0.00000000000E+00  0.00000000000E+00  0.75038691822E+03  0.75038691822E+03  0.00000000000E+00 0.  1.
         21   -1    0    0  501  502 -0.00000000000E+00 -0.00000000000E+00 -0.59037796974E+02  0.59037796974E+02  0.00000000000E+00 0.  1.
         21    1    1    2  503  505 -0.39109008217E+02 -0.19737438952E+02  0.86388119010E+02  0.96860663462E+02  0.00000000000E+00 0.  1.
         21    1    1    2  504  503 -0.76081945720E+02 -0.83205075368E+02  0.49286008749E+03  0.50559134968E+03  0.00000000000E+00 0.  1.
         21    1    1    2  505  506  0.73452246022E+02  0.10128955583E+03  0.10748323620E+03  0.16494681759E+03  0.00000000000E+00 0.  1.
         21    1    1    2  506  502  0.41738707915E+02  0.16529584855E+01  0.46176785441E+01  0.42025884468E+02  0.00000000000E+00 0.  1.
<scales pt_clust_3="37.15967" pt_clust_4="37.15967" pt_clust_5="145.41877" pt_clust_6="41.77143"></scales>
<clustering>
<clus scale="   37.160">  3  4 -1 -1</clus>
<clus scale="   41.771">  2  6  1 -1</clus>
<clus scale="  145.419">  2  5  1 -1</clus>
<clus scale="  157.164">  1  3  2 -1</clus>
</clustering>
</event>
<event>
 6    0  0.1080632E+003  0.1091303E+03  0.7546771E-02  0.1262189E+00
         21   -1    0    0  504  501  0.00000000000E+00  0.00000000000E+00  0.42243428340E+03  0.42243428340E+03  0.00000000000E+00 0.  1.
         21   -1    0    0  506  502 -0.00000000000E+00 -0.00000000000E+00 -0.56308500429E+03  0.56308500429E+03  0.00000000000E+00 0.  1.
         21    1    1    2  503  502  0.87694496529E+02 -0.69703046895E+02 -0.51196134041E+03  0.52407371003E+03  0.00000000000E+00 0.  1.
         21    1    1    2  504  505 -0.65239796494E+02  0.19007395726E+02  0.32021225992E+03  0.32734294485E+03  0.00000000000E+00 0.  1.
         21    1    1    2  505  503 -0.65692957305E+02  0.41495682099E+02  0.44107085501E+02  0.89347027168E+02  0.00000000000E+00 0.  1.
         21    1    1    2  506  501  0.43238257270E+02  0.91999690698E+01  0.69912741026E+01  0.44755605640E+02  0.00000000000E+00 0. -1.
<scales pt_clust_3="14000.00000" pt_clust_4="39.99365" pt_clust_5="109.13026" pt_clust_6="44.20618"></scales>
<clustering>
<clus scale="   44.206">  1  6  2 -1</clus>
<clus scale="   39.994">  1  4  2 -1</clus>
<clus scale="  109.130">  1  5  2 -1</clus>
<clus scale="   44.206">  1  3  2 -1</clus>
</clustering>
</event>
<event>
 6    0  0.1080632E+003  0.3642977E+03  0.7546771E-02  0.1056895E+00
         21   -1    0    0  503  501  0.00000000000E+00  0.00000000000E+00  0.63042759859E+03  0.63042759859E+03  0.00000000000E+00 0. -1.
         21   -1    0    0  505  502 -0.00000000000E+00 -0.00000000000E+00 -0.84428559951E+03  0.84428559951E+03  0.00000000000E+00 0. -1.
         21    1    1    2  503  504 -0.24304657981E+03  0.43705199124E+02  0.15429349269E+03  0.29118424798E+03  0.00000000000E+00 0. -1.
         21    1    1    2  504  502 -0.63795501573E+02 -0.56598138129E+02 -0.14170105442E+02  0.86452340332E+02  0.00000000000E+00 0. -1.
         21    1    1    2  505  506  0.66514555946E+01 -0.31983147566E+03 -0.52717453838E+03  0.61664366420E+03  0.00000000000E+00 0. -1.
         21    1    1    2  506  501  0.30019062579E+03  0.33272441467E+03  0.17319315021E+03  0.48043294559E+03  0.00000000000E+00 0. -1.
<scales pt_clust_3="251.56043" pt_clust_4="85.28315" pt_clust_5="364.29775" pt_clust_6="14000.00000"></scales>
<clustering>
<clus scale="   85.283">  2  4  1 -1</clus>
<clus scale="  251.560">  1  3  2 -1</clus>
<clus scale="  364.298">  2  5  1 -1</clus>
<clus scale="  251.560">  1  3  2 -1</clus>
</clustering>
</event>
<event>
 6    0  0.1080632E+003  0.8455086E+02  0.7546771E-02  0.1316611E+00
         21   -1    0    0  503  501  0.00000000000E+00  0.00000000000E+00  0.75718160300E+02  0.75718160300E+02  0.00000000000E+00 0.  1.
         21   -1    0    0  506  502 -0.00000000000E+00 -0.00000000000E+00 -0.45548332949E+03  0.45548332949E+03  0.00000000000E+00 0.  1.
         21    1    1    2  503  504 -0.35719964612E+02  0.34593005887E+02 -0.77245575292E+01  0.50321573080E+02  0.00000000000E+00 0.  1.
         21    1    1    2  504  502  0.80028287158E+01  0.90934444538E+02 -0.28703278584E+03  0.30119916769E+03  0.00000000000E+00 0.  1.
         21    1    1    2  505  501 -0.37031157916E+01 -0.10372301603E+03 -0.22187076248E+02  0.10613408253E+03  0.00000000000E+00 0.  1.
         21    1    1    2  506  505  0.31420251688E+02 -0.21804434393E+02 -0.62820749568E+02  0.73546666489E+02  0.00000000000E+00 0.  1.
<scales pt_clust_3="46.89936" pt_clust_4="14000.00000" pt_clust_5="84.55086" pt_clust_6="38.24481"></scales>
<clustering>
<clus scale="   38.245">  2  6  1 -1</clus>
<clus scale="   46.899">  1  3  2 -1</clus>
<clus scale="   84.551">  1  5  2 -1</clus>
<clus scale="   46.899">  1  3  2 -1</clus>
</clustering>
</event>
<event>
 6    0  0.1080632E+003  0.1036203E+03  0.7546771E-02  0.1272862E+00
         21   -1    0    0  502  501  0.00000000000E+00  0.00000000000E+00  0.32917388791E+03  0.32917388791E+03  0.00000000000E+00 0.  1.
         21   -1    0    0  506  502 -0.00000000000E+00 -0.00000000000E+00 -0.23044901809E+03  0.23044901809E+03  0.00000000000E+00 0.  1.
         21    1    1    2  503  501 -0.92475061277E+02 -0.27247477344E+02  0.29232002403E+03  0.30780685247E+03  0.00000000000E+00 0.  1.
         21    1    1    2  504  503  0.69759202806E+02  0.99122581906E+01 -0.68163188219E+02  0.98034787023E+02  0.00000000000E+00 0. -1.
         21    1    1    2  505  504  0.51192932797E+02  0.24575254120E+01 -0.10154286132E+03  0.11374404813E+03  0.00000000000E+00 0.  1.
         21    1    1    2  506  505 -0.28477074325E+02  0.14877693741E+02 -0.23889104661E+02  0.40037218369E+02  0.00000000000E+00 0. -1.
<scales pt_clust_3="97.31123" pt_clust_4="30.36633" pt_clust_5="30.36633" pt_clust_6="32.12926"></scales>
<clustering>
<clus scale="   30.366">  4  5 -1 -1</clus>
<clus scale="   32.129">  2  6  1 -1</clus>
<clus scale="   97.311">  1  3  2 -1</clus>
<clus scale="   97.311">  1  3  2 -1</clus>
</clustering>
</event>
<event>
 6    0  0.1080632E+003  0.1126151E+03  0.7546771E-02  0.1255802E+00
         21   -1    0    0  504  501  0.00000000000E+00  0.00000000000E+00  0.28850097910E+03  0.28850097910E+03  0.00000000000E+00 0.  1.
         21   -1    0    0  506  502 -0.00000000000E+00 -0.00000000000E+00 -0.35567380165E+03  0.35567380165E+03  0.00000000000E+00 0.  1.
         21    1    1    2  503  505  0.12214509680E+03  0.75662150473E+00 -0.45262083673E+02  0.13026378379E+03  0.00000000000E+00 0.  1.
         21    1    1    2  504  503 -0.43358948859E+02  0.10185847264E+03  0.19488675974E+03  0.22413387967E+03  0.00000000000E+00 0.  1.
         21    1    1    2  505  502 -0.32657640982E+02  0.31098718440E+02 -0.25311489436E+02  0.51713859850E+02  0.00000000000E+00 0.  1.
         21    1    1    2  506  501 -0.46128506961E+02 -0.13371381258E+03 -0.19148600918E+03  0.23806325744E+03  0.00000000000E+00 0.  1.
<scales pt_clust_3="14000.00000" pt_clust_4="112.61507" pt_clust_5="45.09603" pt_clust_6="111.59212"></scales>
<clustering>
<clus scale="   45.096">  2  5  1 -1</clus>
<clus scale="  112.615">  1  4  2 -1</clus>
<clus scale="  111.592">  2  6  1 -1</clus>
<clus scale="  112.615">  1  3  2 -1</clus>
</clustering>
</event>
<event>
 6    0  0.1080632E+003  0.1196191E+03  0.7546771E-02  0.1243727E+00
         21   -1    0    0  505  501  0.00000000000E+00  0.00000000000E+00  0.14972681617E+04  0.14972681617E+04  0.00000000000E+00 0. -1.
         21   -1    0    0  503  502 -0.00000000000E+00 -0.00000000000E+00 -0.41485174400E+02  0.41485174400E+02  0.00000000000E+00 0. -1.
         21    1    1    2  503  506  0.59448805116E+02  0.22284026154E+02  0.15928957387E+03  0.17147567348E+03  0.00000000000E+00 0. -1.
         21    1    1    2  504  502  0.70730788420E+02 -0.38792437374E+02  0.37444199500E+02  0.88936863584E+02  0.00000000000E+00 0. -1.
         21    1    1    2  505  504 -0.14593639645E+03 -0.46757705214E+02  0.78380228493E+03  0.79864243355E+03  0.00000000000E+00 0. -1.
         21    1    1    2  506  501  0.15756802913E+02  0.63266116435E+02  0.47524692898E+03  0.47969836547E+03  0.00000000000E+00 0. -1.
<scales pt_clust_3="63.48810" pt_clust_4="119.61913" pt_clust_5="14000.00000" pt_clust_6="67.54225"></scales>
<clustering>
<clus scale="   63.488">  2  3  1 -1</clus>
<clus scale="   67.542">  1  6  2 -1</clus>
<clus scale="  119.619">  2  4  1 -1</clus>
<clus scale="   67.542">  1  3  2 -1</clus>
</clustering>
</event>
<event>
 6    0  0.1080632E+003  0.8255654E+02  0.7546771E-02  0.1321949E+00
         21   -1    0    0  504  501  0.00000000000E+00  0.00000000000E+00  0.27064445984E+03  0.27064445984E+03  0.00000000000E+00 0. -1.
         21   -1    0    0  506  502 -0.00000000000E+00 -0.00000000000E+00 -0.21058750428E+03  0.21058750428E+03  0.00000000000E+00 0. -1.
         21    1    1    2  503  502  0.67508529887E+02  0.44303220204E+02 -0.10346755055E+03  0.13124675594E+03  0.00000000000E+00 0. -1.
         21    1    1    2  504  505  0.96862677490E+01 -0.37899391904E+02  0.14618651719E+03  0.15132972444E+03  0.00000000000E+00 0. -1.
         21    1    1    2  505  503  0.35672987950E+02 -0.39487783571E+02  0.53645377465E+02  0.75562382466E+02  0.00000000000E+00 0.  1.
         21    1    1    2  506  501 -0.11286778559E+03  0.33083955271E+02 -0.36307388541E+02  0.12309310128E+03  0.00000000000E+00 0. -1.
<scales pt_clust_3="82.55654" pt_clust_4="39.11761" pt_clust_5="72.21138" pt_clust_6="14000.00000"></scales>
<clustering>
<clus scale="   39.118">  1  4  2 -1</clus>
<clus scale="   72.211">  1  5  2 -1</clus>
<clus scale="   82.557">  2  3  1 -1</clus>
<clus scale="   39.118">  1  3  2 -1</clus>
</clustering>
</event>
