<event>
 5    0  0.5605075E-005  0.2191426E+03  0.7546771E-02  0.1134524E+00
         21   -1    0    0  502  501  0.00000000000E+00  0.00000000000E+00  0.50597430487E+03  0.50597430487E+03  0.00000000000E+00 0.  1.
         21   -1    0    0  501  502 -0.00000000000E+00 -0.00000000000E+00 -0.94912840283E+02  0.94912840283E+02  0.00000000000E+00 0.  1.
         25    1    1    2    0    0  0.61247166815E+01  0.62884497946E+02  0.17694425200E+03  0.22566843056E+03  0.12500000000E+03 0.  0.
         25    1    1    2    0    0 -0.61336459989E+02 -0.41299823819E+02  0.16742052772E+03  0.22163589482E+03  0.12500000000E+03 0.  0.
         25    1    1    2    0    0  0.55211743307E+02 -0.21584674127E+02  0.66696684871E+02  0.15358281977E+03  0.12500000000E+03 0.  0.
</event>
<event>
 5    0  0.5605075E-005  0.4491834E+03  0.7546771E-02  0.1027966E+00
         21   -1    0    0  502  501  0.00000000000E+00  0.00000000000E+00  0.17318361969E+03  0.17318361969E+03  0.00000000000E+00 0.  1.
         21   -1    0    0  501  502 -0.00000000000E+00 -0.00000000000E+00 -0.11650390912E+04  0.11650390912E+04  0.00000000000E+00 0.  1.
         25    1    1    2    0    0 -0.10099716627E+03 -0.33046764376E+02  0.28713356344E+02  0.16655921789E+03  0.12500000000E+03 0.  0.
         25    1    1    2    0    0  0.20984879114E+03 -0.88512564742E+02 -0.89235548886E+03  0.92940535170E+03  0.12500000000E+03 0.  0.
         25    1    1    2    0    0 -0.10885162487E+03  0.12155932912E+03 -0.12821333897E+03  0.24225814129E+03  0.12500000000E+03 0.  0.
</event>
<event>
 5    0  0.5605075E-005  0.4470197E+03  0.7546771E-02  0.1028615E+00
         21   -1    0    0  502  501  0.00000000000E+00  0.00000000000E+00  0.33208880708E+03  0.33208880708E+03  0.00000000000E+00 0. -1.
         21   -1    0    0  501  502 -0.00000000000E+00 -0.00000000000E+00 -0.60172635958E+03  0.60172635958E+03  0.00000000000E+00 0. -1.
         25    1    1    2    0    0  0.71667909625E+02 -0.87074369846E+02  0.11073475620E+03  0.20150786929E+03  0.12500000000E+03 0.  0.
         25    1    1    2    0    0  0.32770150101E+02 -0.70736017851E+02  0.11539151336E+03  0.18713008394E+03  0.12500000000E+03 0.  0.
         25    1    1    2    0    0 -0.10443805973E+03  0.15781038770E+03 -0.49576382206E+03  0.54517721344E+03  0.12500000000E+03 0.  0.
</event>
<event>
 5    0  0.5605075E-005  0.3702324E+03  0.7546771E-02  0.1054604E+00
         21   -1    0    0  502  501  0.00000000000E+00  0.00000000000E+00  0.11202668612E+04  0.11202668612E+04  0.00000000000E+00 0.  1.
         21   -1    0    0  501  502 -0.00000000000E+00 -0.00000000000E+00 -0.12235659959E+03  0.12235659959E+03  0.00000000000E+00 0.  1.
         25    1    1    2    0    0  0.10004525300E+03 -0.15180268754E+03  0.43069108925E+03  0.48391416900E+03  0.12500000000E+03 0.  0.
         25    1    1    2    0    0 -0.23063377192E+03 -0.77840180111E+01  0.28238067143E+03  0.38550793932E+03  0.12500000000E+03 0.  0.
         25    1    1    2    0    0  0.13058851892E+03  0.15958670556E+03  0.28483850091E+03  0.37320135244E+03  0.12500000000E+03 0.  0.
</event>
<event>
 5    0  0.5605075E-005  0.3767715E+03  0.7546771E-02  0.1052134E+00
         21   -1    0    0  502  501  0.00000000000E+00  0.00000000000E+00  0.32328303682E+03  0.32328303682E+03  0.00000000000E+00 0.  1.
         21   -1    0    0  501  502 -0.00000000000E+00 -0.00000000000E+00 -0.43910977950E+03  0.43910977950E+03  0.00000000000E+00 0.  1.
         25    1    1    2    0    0 -0.66178297992E+01  0.17994405048E+02 -0.81201318060E+02  0.15028721948E+03  0.12500000000E+03 0.  0.
         25    1    1    2    0    0 -0.11851955717E+03 -0.25620868032E+03 -0.59328594432E+02  0.31437979487E+03  0.12500000000E+03 0.  0.
         25    1    1    2    0    0  0.12513738697E+03  0.23821427527E+03  0.24703169819E+02  0.29772580197E+03  0.12500000000E+03 0.  0.
</event>
<event>
 5    0  0.5605075E-005  0.3964831E+03  0.7546771E-02  0.1045004E+00
         21   -1    0    0  502  501  0.00000000000E+00  0.00000000000E+00  0.46447987820E+03  0.46447987820E+03  0.00000000000E+00 0. -1.
         21   -1    0    0  501  502 -0.00000000000E+00 -0.00000000000E+00 -0.33844062178E+03  0.33844062178E+03  0.00000000000E+00 0. -1.
         25    1    1    2    0    0 -0.89986196050E+02  0.14963109435E+03  0.23402133070E+03  0.31761291393E+03  0.12500000000E+03 0.  0.
         25    1    1    2    0    0 -0.11556119607E+03 -0.12136576741E+03  0.22324893130E+02  0.21025565483E+03  0.12500000000E+03 0.  0.
         25    1    1    2    0    0  0.20554739212E+03 -0.28265326947E+02 -0.13030696741E+03  0.27505193122E+03  0.12500000000E+03 0.  0.
</event>
<event>
 5    0  0.5605075E-005  0.4029335E+03  0.7546771E-02  0.1042769E+00
         21   -1    0    0  502  501  0.00000000000E+00  0.00000000000E+00  0.47090321318E+03  0.47090321318E+03  0.00000000000E+00 0. -1.
         21   -1    0    0  501  502 -0.00000000000E+00 -0.00000000000E+00 -0.34477445215E+03  0.34477445215E+03  0.00000000000E+00 0. -1.
         25    1    1    2    0    0 -0.25313889375E+03 -0.82998452266E+02 -0.13073620380E+03  0.32200154905E+03  0.12500000000E+03 0.  0.
         25    1    1    2    0    0  0.47524787773E+02 -0.59671361068E+01  0.18294749972E+03  0.22669141982E+03  0.12500000000E+03 0.  0.
         25    1    1    2    0    0  0.20561410598E+03  0.88965588373E+02  0.73917465110E+02  0.26698469645E+03  0.12500000000E+03 0.  0.
</event>
<event>
 5    0  0.5605075E-005  0.3348602E+03  0.7546771E-02  0.1069006E+00
         21   -1    0    0  502  501  0.00000000000E+00  0.00000000000E+00  0.36231370508E+03  0.36231370508E+03  0.00000000000E+00 0.  1.
         21   -1    0    0  501  502 -0.00000000000E+00 -0.00000000000E+00 -0.30948694371E+03  0.30948694371E+03  0.00000000000E+00 0.  1.
         25    1    1    2    0    0 -0.63596095499E+02  0.29596786079E+02  0.71393062492E+02  0.16013245293E+03  0.12500000000E+03 0.  0.
         25    1    1    2    0    0  0.17954392825E+03  0.13836636102E+03 -0.67216000568E+02  0.26744020410E+03  0.12500000000E+03 0.  0.
         25    1    1    2    0    0 -0.11594783275E+03 -0.16796314710E+03  0.48649699446E+02  0.24422799176E+03  0.12500000000E+03 0.  0.
</event>
<event>
 5    0  0.5605075E-005  0.2479857E+03  0.7546771E-02  0.1114584E+00
         21   -1    0    0  502  501  0.00000000000E+00  0.00000000000E+00  0.90773764364E+03  0.90773764364E+03  0.00000000000E+00 0. -1.
         21   -1    0    0  501  502 -0.00000000000E+00 -0.00000000000E+00 -0.67747422903E+02  0.67747422903E+02  0.00000000000E+00 0. -1.
         25    1    1    2    0    0 -0.53517392567E+02  0.27147745474E+02  0.29404721675E+03  0.32509979555E+03  0.12500000000E+03 0.  0.
         25    1    1    2    0    0  0.31592776233E+02  0.10280613130E+02  0.52632157227E+02  0.13963859957E+03  0.12500000000E+03 0.  0.
         25    1    1    2    0    0  0.21924616334E+02 -0.37428358604E+02  0.49331084676E+03  0.51074667142E+03  0.12500000000E+03 0.  0.
</event>
<event>
 5    0  0.5605075E-005  0.3184526E+03  0.7546771E-02  0.1076364E+00
         21   -1    0    0  502  501  0.00000000000E+00  0.00000000000E+00  0.28809683768E+03  0.28809683768E+03  0.00000000000E+00 0.  1.
         21   -1    0    0  501  502 -0.00000000000E+00 -0.00000000000E+00 -0.35200688663E+03  0.35200688663E+03  0.00000000000E+00 0.  1.
         25    1    1    2    0    0  0.67312259182E+02  0.63869022816E+02 -0.57726563440E+01  0.15578355457E+03  0.12500000000E+03 0.  0.
         25    1    1    2    0    0  0.20201477134E+02  0.71004645928E+02  0.13892366373E+03  0.20093417769E+03  0.12500000000E+03 0.  0.
         25    1    1    2    0    0 -0.87513736316E+02 -0.13487366874E+03 -0.19706105634E+03  0.28338599205E+03  0.12500000000E+03 0.  0.
</event>
<event>
 5    0  0.5605075E-005  0.6037242E+03  0.7546771E-02  0.9897710E-01
         21   -1    0    0  502  501  0.00000000000E+00  0.00000000000E+00  0.45433446435E+03  0.45433446435E+03  0.00000000000E+00 0. -1.
         21   -1    0    0  501  502 -0.00000000000E+00 -0.00000000000E+00 -0.80223465945E+03  0.80223465945E+03  0.00000000000E+00 0.  1.
         25    1    1    2    0    0  0.14986433481E+03 -0.51664770670E+03 -0.99099256611E+02  0.56109699192E+03  0.12500000000E+03 0.  0.
         25    1    1    2    0    0  0.50614074157E+02  0.19206915970E+03 -0.16078319411E+03  0.28447949332E+03  0.12500000000E+03 0.  0.
         25    1    1    2    0    0 -0.20047840896E+03  0.32457854699E+03 -0.88017744374E+02  0.41099263856E+03  0.12500000000E+03 0.  0.
</event>
<event>
 5    0  0.5605075E-005  0.4331977E+03  0.7546771E-02  0.1032855E+00
         21   -1    0    0  502  501  0.00000000000E+00  0.00000000000E+00  0.87292414111E+03  0.87292414111E+03  0.00000000000E+00 0.  1.
         21   -1    0    0  501  502 -0.00000000000E+00 -0.00000000000E+00 -0.21497883737E+03  0.21497883737E+03  0.00000000000E+00 0.  1.
         25    1    1    2    0    0  0.86821356965E+02  0.20337757639E+03  0.32239508547E+03  0.41044363527E+03  0.12500000000E+03 0.  0.
         25    1    1    2    0    0  0.18812885903E+03 -0.31518830921E+01  0.13863016404E+03  0.26503909966E+03  0.12500000000E+03 0.  0.
         25    1    1    2    0    0 -0.27495021599E+03 -0.20022569330E+03  0.19692005423E+03  0.41242024355E+03  0.12500000000E+03 0.  0.
</event>
<event>
 5    0  0.5605075E-005  0.3688515E+03  0.7546771E-02  0.1055133E+00
         21   -1    0    0  502  501  0.00000000000E+00  0.00000000000E+00  0.11733426764E+04  0.11733426764E+04  0.00000000000E+00 0.  1.
         21   -1    0    0  501  502 -0.00000000000E+00 -0.00000000000E+00 -0.11595202696E+03  0.11595202696E+03  0.00000000000E+00 0.  1.
         25    1    1    2    0    0  0.48722532761E+02  0.24716362201E+02  0.40665090583E+01  0.13647827759E+03  0.12500000000E+03 0.  0.
         25    1    1    2    0    0 -0.19450254042E+03 -0.11133064554E+03  0.53672863421E+03  0.59491879921E+03  0.12500000000E+03 0.  0.
         25    1    1    2    0    0  0.14578000766E+03  0.86614283341E+02  0.51659550613E+03  0.55789762651E+03  0.12500000000E+03 0.  0.
</event>
<event>
 5    0  0.5605075E-005  0.3234308E+03  0.7546771E-02  0.1074081E+00
         21   -1    0    0  502  501  0.00000000000E+00  0.00000000000E+00  0.89402172605E+02  0.89402172605E+02  0.00000000000E+00 0.  1.
         21   -1    0    0  501  502 -0.00000000000E+00 -0.00000000000E+00 -0.11700773708E+04  0.11700773708E+04  0.00000000000E+00 0.  1.
         25    1    1    2    0    0 -0.89156869995E+02 -0.10383407812E+03 -0.31422164505E+03  0.36481598850E+03  0.12500000000E+03 0.  0.
         25    1    1    2    0    0 -0.28957989629E+02  0.19747046747E+03 -0.57253890717E+03  0.61907911523E+03  0.12500000000E+03 0.  0.
         25    1    1    2    0    0  0.11811485962E+03 -0.93636389355E+02 -0.19391464601E+03  0.27558443971E+03  0.12500000000E+03 0.  0.
</event>
<event>
 5    0  0.5605075E-005  0.4139960E+03  0.7546771E-02  0.1039038E+00
         21   -1    0    0  502  501  0.00000000000E+00  0.00000000000E+00  0.86241082895E+03  0.86241082895E+03  0.00000000000E+00 0. -1.
         21   -1    0    0  501  502 -0.00000000000E+00 -0.00000000000E+00 -0.19873673884E+03  0.19873673884E+03  0.00000000000E+00 0. -1.
         25    1    1    2    0    0 -0.20397044513E+03  0.24719309178E+03  0.18037203845E+03  0.38841657968E+03  0.12500000000E+03 0.  0.
         25    1    1    2    0    0  0.23376192566E+03 -0.14868576077E+03  0.28426363387E+03  0.41615250436E+03  0.12500000000E+03 0.  0.
         25    1    1    2    0    0 -0.29791480524E+02 -0.98507331010E+02  0.19903841779E+03  0.25657848376E+03  0.12500000000E+03 0.  0.
</event>
<event>
 5    0  0.5605075E-005  0.2627101E+03  0.7546771E-02  0.1105526E+00
         21   -1    0    0  502  501  0.00000000000E+00  0.00000000000E+00  0.58518773443E+03  0.58518773443E+03  0.00000000000E+00 0. -1.
         21   -1    0    0  501  502 -0.00000000000E+00 -0.00000000000E+00 -0.11793921825E+03  0.11793921825E+03  0.00000000000E+00 0. -1.
         25    1    1    2    0    0 -0.38063505850E+02  0.46534381804E+02  0.29224108616E+03  0.32348745201E+03  0.12500000000E+03 0.  0.
         25    1    1    2    0    0  0.56542385402E+01  0.29949000365E+01 -0.33374121891E+02  0.12953675869E+03  0.12500000000E+03 0.  0.
         25    1    1    2    0    0  0.32409267310E+02 -0.49529281841E+02  0.20838155191E+03  0.25010274198E+03  0.12500000000E+03 0.  0.
</event>
<event>
 5    0  0.5605075E-005  0.1958316E+03  0.7546771E-02  0.1153304E+00
         21   -1    0    0  502  501  0.00000000000E+00  0.00000000000E+00  0.88407389952E+03  0.88407389952E+03  0.00000000000E+00 0.  1.
         21   -1    0    0  501  502 -0.00000000000E+00 -0.00000000000E+00 -0.43378724127E+02  0.43378724127E+02  0.00000000000E+00 0.  1.
         25    1    1    2    0    0 -0.16481181962E+02  0.28013492874E+02  0.32871977970E+03  0.35318278371E+03  0.12500000000E+03 0.  0.
         25    1    1    2    0    0  0.28327664799E+02  0.87174057385E+01  0.23061009509E+03  0.26397815386E+03  0.12500000000E+03 0.  0.
         25    1    1    2    0    0 -0.11846482837E+02 -0.36730898612E+02  0.28136530060E+03  0.31029168608E+03  0.12500000000E+03 0.  0.
</event>
<event>
 5    0  0.5605075E-005  0.4815543E+03  0.7546771E-02  0.1018709E+00
         21   -1    0    0  502  501  0.00000000000E+00  0.00000000000E+00  0.10421971649E+04  0.10421971649E+04  0.00000000000E+00 0. -1.
         21   -1    0    0  501  502 -0.00000000000E+00 -0.00000000000E+00 -0.22250541270E+03  0.22250541270E+03  0.00000000000E+00 0. -1.
         25    1    1    2    0    0 -0.91099782385E+02  0.15231218002E+03  0.80418178042E+02  0.23149568871E+03  0.12500000000E+03 0.  0.
         25    1    1    2    0    0 -0.44533866749E+02 -0.16714758698E+03 -0.52762439542E+02  0.21984188898E+03  0.12500000000E+03 0.  0.
         25    1    1    2    0    0  0.13563364913E+03  0.14835406962E+02  0.79203601374E+03  0.81336499994E+03  0.12500000000E+03 0.  0.
</event>
<event>
 5    0  0.5605075E-005  0.3516142E+03  0.7546771E-02  0.1061954E+00
         21   -1    0    0  502  501  0.00000000000E+00  0.00000000000E+00  0.24001304558E+03  0.24001304558E+03  0.00000000000E+00 0. -1.
         21   -1    0    0  501  502 -0.00000000000E+00 -0.00000000000E+00 -0.51510750798E+03  0.51510750798E+03  0.00000000000E+00 0. -1.
         25    1    1    2    0    0  0.15330650202E+02  0.29345558738E+02 -0.19716541849E+03  0.23578675302E+03  0.12500000000E+03 0.  0.
         25    1    1    2    0    0  0.19027945922E+03 -0.11040066119E+03  0.23595098343E+01  0.25303190684E+03  0.12500000000E+03 0.  0.
         25    1    1    2    0    0 -0.20561010942E+03  0.81055102449E+02 -0.80288553746E+02  0.26630189371E+03  0.12500000000E+03 0.  0.
</event>
<event>
 5    0  0.5605075E-005  0.3085204E+03  0.7546771E-02  0.1081057E+00
         21   -1    0    0  502  501  0.00000000000E+00  0.00000000000E+00  0.17067763067E+03  0.17067763067E+03  0.00000000000E+00 0. -1.
         21   -1    0    0  501  502 -0.00000000000E+00 -0.00000000000E+00 -0.55768779048E+03  0.55768779048E+03  0.00000000000E+00 0. -1.
         25    1    1    2    0    0 -0.30895158679E+02 -0.13147197356E+03  0.18820065746E+02  0.18498266280E+03  0.12500000000E+03 0.  0.
         25    1    1    2    0    0  0.25255479313E+02 -0.11535587849E+02 -0.29929326907E+03  0.32553397661E+03  0.12500000000E+03 0.  0.
         25    1    1    2    0    0  0.56396793653E+01  0.14300756141E+03 -0.10653695649E+03  0.21784878173E+03  0.12500000000E+03 0.  0.
</event>
<event>
 5    0  0.5605075E-005  0.4010542E+03  0.7546771E-02  0.1043415E+00
         21   -1    0    0  502  501  0.00000000000E+00  0.00000000000E+00  0.99450113072E+03  0.99450113072E+03  0.00000000000E+00 0.  1.
         21   -1    0    0  501  502 -0.00000000000E+00 -0.00000000000E+00 -0.16173382333E+03  0.16173382333E+03  0.00000000000E+00 0.  1.
         25    1    1    2    0    0 -0.77261730943E+02  0.19946278428E+03  0.46907417882E+03  0.53048125566E+03  0.12500000000E+03 0.  0.
         25    1    1    2    0    0 -0.74307731394E+02 -0.14793874058E+03 -0.19884496387E+01  0.20745231703E+03  0.12500000000E+03 0.  0.
         25    1    1    2    0    0  0.15156946234E+03 -0.51524043695E+02  0.36568157822E+03  0.41830138135E+03  0.12500000000E+03 0.  0.
</event>
<event>
 5    0  0.5605075E-005  0.2924748E+03  0.7546771E-02  0.1089064E+00
         21   -1    0    0  502  501  0.00000000000E+00  0.00000000000E+00  0.33765919657E+03  0.33765919657E+03  0.00000000000E+00 0. -1.
         21   -1    0    0  501  502 -0.00000000000E+00 -0.00000000000E+00 -0.25333682838E+03  0.25333682838E+03  0.00000000000E+00 0. -1.
         25    1    1    2    0    0  0.39951518921E+01  0.35583711880E+02 -0.20896982275E+02  0.13169603509E+03  0.12500000000E+03 0.  0.
         25    1    1    2    0    0  0.15420837402E+03 -0.14648795003E+02 -0.48530209843E+02  0.20487799072E+03  0.12500000000E+03 0.  0.
         25    1    1    2    0    0 -0.15820352591E+03 -0.20934916876E+02  0.15374956030E+03  0.25442199915E+03  0.12500000000E+03 0.  0.
</event>
<event>
 5    0  0.5605075E-005  0.3124386E+03  0.7546771E-02  0.1079183E+00
         21   -1    0    0  502  501  0.00000000000E+00  0.00000000000E+00  0.85026855603E+02  0.85026855603E+02  0.00000000000E+00 0.  1.
         21   -1    0    0  501  502 -0.00000000000E+00 -0.00000000000E+00 -0.11480826719E+04  0.11480826719E+04  0.00000000000E+00 0.  1.
         25    1    1    2    0    0  0.53890282639E+02 -0.16528591504E+03 -0.21271386691E+03  0.30182078366E+03  0.12500000000E+03 0.  0.
         25    1    1    2    0    0  0.53352319370E+02  0.10529084990E+03 -0.23312050690E+03  0.28965980700E+03  0.12500000000E+03 0.  0.
         25    1    1    2    0    0 -0.10724260201E+03  0.59995065135E+02 -0.61722144249E+03  0.64162893684E+03  0.12500000000E+03 0.  0.
</event>
<event>
 5    0  0.5605075E-005  0.6816963E+03  0.7546771E-02  0.9749056E-01
         21   -1    0    0  502  501  0.00000000000E+00  0.00000000000E+00  0.52078117468E+03  0.52078117468E+03  0.00000000000E+00 0.  1.
         21   -1    0    0  501  502 -0.00000000000E+00 -0.00000000000E+00 -0.89233234964E+03  0.89233234964E+03  0.00000000000E+00 0.  1.
         25    1    1    2    0    0 -0.17861358425E+03  0.25372508528E+02  0.45012082064E+02  0.22404835237E+03  0.12500000000E+03 0.  0.
         25    1    1    2    0    0 -0.33891674224E+03  0.28115421342E+03 -0.20692554298E+02  0.45821985084E+03  0.12500000000E+03 0.  0.
         25    1    1    2    0    0  0.51753032649E+03 -0.30652672195E+03 -0.39587070272E+03  0.73084532111E+03  0.12500000000E+03 0.  0.
</event>
<event>
 5    0  0.5605075E-005  0.3082079E+03  0.7546771E-02  0.1081208E+00
         21   -1    0    0  502  501  0.00000000000E+00  0.00000000000E+00  0.15032738354E+03  0.15032738354E+03  0.00000000000E+00 0. -1.
         21   -1    0    0  501  502 -0.00000000000E+00 -0.00000000000E+00 -0.63190148930E+03  0.63190148930E+03  0.00000000000E+00 0. -1.
         25    1    1    2    0    0 -0.16189390989E+02 -0.71313565562E+02 -0.10770686793E+03  0.18048127441E+03  0.12500000000E+03 0.  0.
         25    1    1    2    0    0  0.23644203198E+02 -0.16177764155E+03 -0.18413381457E+03  0.27615451348E+03  0.12500000000E+03 0.  0.
         25    1    1    2    0    0 -0.74548122088E+01  0.23309120711E+03 -0.18973342326E+03  0.32559308494E+03  0.12500000000E+03 0.  0.
</event>
<event>
 5    0  0.5605075E-005  0.2642840E+03  0.7546771E-02  0.1104596E+00
         21   -1    0    0  502  501  0.00000000000E+00  0.00000000000E+00  0.38987611168E+03  0.38987611168E+03  0.00000000000E+00 0. -1.
         21   -1    0    0  501  502 -0.00000000000E+00 -0.00000000000E+00 -0.17914931110E+03  0.17914931110E+03  0.00000000000E+00 0. -1.
         25    1    1    2    0    0  0.29361662489E+02 -0.15169795483E+02  0.71954443379E+02  0.14796848259E+03  0.12500000000E+03 0.  0.
         25    1    1    2    0    0  0.70734045137E+02 -0.65728828621E+02 -0.44991716405E+02  0.16423409694E+03  0.12500000000E+03 0.  0.
         25    1    1    2    0    0 -0.10009570763E+03  0.80898624104E+02  0.18376407360E+03  0.25682284325E+03  0.12500000000E+03 0.  0.
</event>
<event>
 5    0  0.5605075E-005  0.2231066E+03  0.7546771E-02  0.1131588E+00
         21   -1    0    0  502  501  0.00000000000E+00  0.00000000000E+00  0.10091216836E+04  0.10091216836E+04  0.00000000000E+00 0. -1.
         21   -1    0    0  501  502 -0.00000000000E+00 -0.00000000000E+00 -0.49326596000E+02  0.49326596000E+02  0.00000000000E+00 0. -1.
         25    1    1    2    0    0  0.80810970509E+02 -0.53450812004E+02  0.34316953880E+03  0.37785941118E+03  0.12500000000E+03 0.  0.
         25    1    1    2    0    0 -0.31152717354E+02  0.33514711249E+02  0.18401331556E+03  0.22711148798E+03  0.12500000000E+03 0.  0.
         25    1    1    2    0    0 -0.49658253155E+02  0.19936100755E+02  0.43261223319E+03  0.45347738039E+03  0.12500000000E+03 0.  0.
</event>
<event>
 5    0  0.5605075E-005  0.2828654E+03  0.7546771E-02  0.1094134E+00
         21   -1    0    0  502  501  0.00000000000E+00  0.00000000000E+00  0.14660133642E+03  0.14660133642E+03  0.00000000000E+00 0. -1.
         21   -1    0    0  501  502 -0.00000000000E+00 -0.00000000000E+00 -0.54578532908E+03  0.54578532908E+03  0.00000000000E+00 0. -1.
         25    1    1    2    0    0  0.39576975372E+02  0.81299934478E+02 -0.33026034002E+03  0.36451736380E+03  0.12500000000E+03 0.  0.
         25    1    1    2    0    0 -0.34750830601E+02 -0.98120856604E+01  0.51656848247E+02  0.13999045404E+03  0.12500000000E+03 0.  0.
         25    1    1    2    0    0 -0.48261447703E+01 -0.71487848817E+02 -0.12058050089E+03  0.18787884765E+03  0.12500000000E+03 0.  0.
</event>
<event>
 5    0  0.5605075E-005  0.3003755E+03  0.7546771E-02  0.1085053E+00
         21   -1    0    0  502  501  0.00000000000E+00  0.00000000000E+00  0.19310778034E+03  0.19310778034E+03  0.00000000000E+00 0.  1.
         21   -1    0    0  501  502 -0.00000000000E+00 -0.00000000000E+00 -0.46722848381E+03  0.46722848381E+03  0.00000000000E+00 0.  1.
         25    1    1    2    0    0  0.51230261954E+01 -0.19339285218E+03 -0.54646089895E+02  0.23672396544E+03  0.12500000000E+03 0.  0.
         25    1    1    2    0    0  0.80399224077E+02  0.73817314782E+02 -0.13052978605E+03  0.21113042472E+03  0.12500000000E+03 0.  0.
         25    1    1    2    0    0 -0.85522250273E+02  0.11957553740E+03 -0.88944827522E+02  0.21248187400E+03  0.12500000000E+03 0.  0.
</event>
<event>
 5    0  0.5605075E-005  0.3070128E+03  0.7546771E-02  0.1081787E+00
         21   -1    0    0  502  501  0.00000000000E+00  0.00000000000E+00  0.11954511411E+03  0.11954511411E+03  0.00000000000E+00 0.  1.
         21   -1    0    0  501  502 -0.00000000000E+00 -0.00000000000E+00 -0.78846268606E+03  0.78846268606E+03  0.00000000000E+00 0.  1.
         25    1    1    2    0    0  0.70453933097E+02 -0.14199807806E+02 -0.14197442514E+03  0.20235396864E+03  0.12500000000E+03 0.  0.
         25    1    1    2    0    0 -0.94469429980E+02 -0.82708750572E+02 -0.51569450198E+03  0.54528068918E+03  0.12500000000E+03 0.  0.
         25    1    1    2    0    0  0.24015496883E+02  0.96908558377E+02 -0.11248644831E+02  0.16037314235E+03  0.12500000000E+03 0.  0.
</event>
<event>
 5    0  0.5605075E-005  0.3328737E+03  0.7546771E-02  0.1069872E+00
         21   -1    0    0  502  501  0.00000000000E+00  0.00000000000E+00  0.16876923439E+04  0.16876923439E+04  0.00000000000E+00 0. -1.
         21   -1    0    0  501  502 -0.00000000000E+00 -0.00000000000E+00 -0.65654695854E+02  0.65654695854E+02  0.00000000000E+00 0. -1.
         25    1    1    2    0    0  0.68588262490E+01 -0.13469275913E+03  0.17797495379E+03  0.25590870840E+03  0.12500000000E+03 0.  0.
         25    1    1    2    0    0  0.61341715992E+02  0.57709841588E+00  0.23900053318E+03  0.27660331528E+03  0.12500000000E+03 0.  0.
         25    1    1    2    0    0 -0.68200542241E+02  0.13411566072E+03  0.12050621611E+04  0.12208350161E+04  0.12500000000E+03 0.  0.
</event>
<event>
 5    0  0.5605075E-005  0.3113416E+03  0.7546771E-02  0.1079705E+00
         21   -1    0    0  502  501  0.00000000000E+00  0.00000000000E+00  0.55302266849E+03  0.55302266849E+03  0.00000000000E+00 0. -1.
         21   -1    0    0  501  502 -0.00000000000E+00 -0.00000000000E+00 -0.17527960171E+03  0.17527960171E+03  0.00000000000E+00 0. -1.
         25    1    1    2    0    0 -0.31394254514E+02 -0.15309278707E+02  0.21659600913E+02  0.13158309748E+03  0.12500000000E+03 0.  0.
         25    1    1    2    0    0  0.18348549179E+03 -0.53123703711E+02  0.30703683963E+03  0.38260380876E+03  0.12500000000E+03 0.  0.
         25    1    1    2    0    0 -0.15209123727E+03  0.68432982418E+02  0.49046626242E+02  0.21411536396E+03  0.12500000000E+03 0.  0.
</event>
<event>
 5    0  0.5605075E-005  0.2934346E+03  0.7546771E-02  0.1088569E+00
         21   -1    0    0  502  501  0.00000000000E+00  0.00000000000E+00  0.61136370679E+02  0.61136370679E+02  0.00000000000E+00 0. -1.
         21   -1    0    0  501  502 -0.00000000000E+00 -0.00000000000E+00 -0.14083906593E+04  0.14083906593E+04  0.00000000000E+00 0. -1.
         25    1    1    2    0    0 -0.10101796380E+03 -0.49483487689E+02 -0.20468447658E+03  0.26490371745E+03  0.12500000000E+03 0.  0.
         25    1    1    2    0    0  0.12983142363E+03  0.49334156320E+02 -0.30797054525E+03  0.36022342273E+03  0.12500000000E+03 0.  0.
         25    1    1    2    0    0 -0.28813459823E+02  0.14933136887E+00 -0.83459926677E+03  0.84439988978E+03  0.12500000000E+03 0.  0.
</event>
<event>
 5    0  0.5605075E-005  0.2903504E+03  0.7546771E-02  0.1090166E+00
         21   -1    0    0  502  501  0.00000000000E+00  0.00000000000E+00  0.17053491594E+03  0.17053491594E+03  0.00000000000E+00 0.  1.
         21   -1    0    0  501  502 -0.00000000000E+00 -0.00000000000E+00 -0.49434655899E+03  0.49434655899E+03  0.00000000000E+00 0.  1.
         25    1    1    2    0    0  0.55362447092E+02  0.12774808176E+03 -0.16927765334E+03  0.25231824521E+03  0.12500000000E+03 0.  0.
         25    1    1    2    0    0 -0.13370692069E+03 -0.14392536603E+03 -0.11068348894E+03  0.25781366596E+03  0.12500000000E+03 0.  0.
         25    1    1    2    0    0  0.78344473601E+02  0.16177284269E+02 -0.43850500768E+02  0.15474956377E+03  0.12500000000E+03 0.  0.
</event>
<event>
 5    0  0.5605075E-005  0.2648504E+03  0.7546771E-02  0.1104264E+00
         21   -1    0    0  502  501  0.00000000000E+00  0.00000000000E+00  0.37032859312E+03  0.37032859312E+03  0.00000000000E+00 0.  1.
         21   -1    0    0  501  502 -0.00000000000E+00 -0.00000000000E+00 -0.18941477996E+03  0.18941477996E+03  0.00000000000E+00 0.  1.
         25    1    1    2    0    0 -0.97475507784E+02  0.11370497239E+03  0.10922286998E+03  0.22357309921E+03  0.12500000000E+03 0.  0.
         25    1    1    2    0    0 -0.99061748350E+01 -0.58990848212E+02  0.84088328452E+02  0.16209225600E+03  0.12500000000E+03 0.  0.
         25    1    1    2    0    0  0.10738168262E+03 -0.54714124178E+02 -0.12397385271E+02  0.17407801788E+03  0.12500000000E+03 0.  0.
</event>
<event>
 5    0  0.5605075E-005  0.2736754E+03  0.7546771E-02  0.1099194E+00
         21   -1    0    0  502  501  0.00000000000E+00  0.00000000000E+00  0.90246564877E+03  0.90246564877E+03  0.00000000000E+00 0. -1.
         21   -1    0    0  501  502 -0.00000000000E+00 -0.00000000000E+00 -0.82992888666E+02  0.82992888666E+02  0.00000000000E+00 0. -1.
         25    1    1    2    0    0  0.11272629748E+03  0.69278312456E+02  0.10586342152E+03  0.21056772482E+03  0.12500000000E+03 0.  0.
         25    1    1    2    0    0 -0.43921621874E+02  0.18337997072E+02  0.34562346286E+03  0.37060217091E+03  0.12500000000E+03 0.  0.
         25    1    1    2    0    0 -0.68804675603E+02 -0.87616309528E+02  0.36798587572E+03  0.40428864170E+03  0.12500000000E+03 0.  0.
</event>
<event>
 5    0  0.6885700E-005  0.4785163E+03  0.7546771E-02  0.1019544E+00
         21   -1    0    0  502  501  0.00000000000E+00  0.00000000000E+00  0.48325401394E+03  0.48325401394E+03  0.00000000000E+00 0.  1.
         21   -1    0    0  501  502 -0.00000000000E+00 -0.00000000000E+00 -0.47382495841E+03  0.47382495841E+03  0.00000000000E+00 0.  1.
         25    1    1    2    0    0 -0.23197963182E+03  0.95618631446E+02  0.10863822021E+03  0.30064054143E+03  0.12500000000E+03 0.  0.
         25    1    1    2    0    0  0.28724870436E+03 -0.37062256228E+02  0.16294601422E+03  0.35505187303E+03  0.12500000000E+03 0.  0.
         25    1    1    2    0    0 -0.55269072539E+02 -0.58556375218E+02 -0.26215517889E+03  0.30138655789E+03  0.12500000000E+03 0.  0.
</event>
<event>
 5    0  0.5605075E-005  0.2663492E+03  0.7546771E-02  0.1103387E+00
         21   -1    0    0  502  501  0.00000000000E+00  0.00000000000E+00  0.23203246915E+03  0.23203246915E+03  0.00000000000E+00 0. -1.
         21   -1    0    0  501  502 -0.00000000000E+00 -0.00000000000E+00 -0.30574125785E+03  0.30574125785E+03  0.00000000000E+00 0. -1.
         25    1    1    2    0    0 -0.87346105175E+02  0.45417487909E+02 -0.96749560125E+02  0.18621913887E+03  0.12500000000E+03 0.  0.
         25    1    1    2    0    0  0.11045826604E+03 -0.56019906955E+02 -0.74387001751E+02  0.19104367182E+03  0.12500000000E+03 0.  0.
         25    1    1    2    0    0 -0.23112160864E+02  0.10602419046E+02  0.97427773180E+02  0.16051091632E+03  0.12500000000E+03 0.  0.
</event>
<event>
 5    0  0.5605075E-005  0.2725127E+03  0.7546771E-02  0.1099850E+00
         21   -1    0    0  502  501  0.00000000000E+00  0.00000000000E+00  0.13880686892E+03  0.13880686892E+03  0.00000000000E+00 0.  1.
         21   -1    0    0  501  502 -0.00000000000E+00 -0.00000000000E+00 -0.53501060728E+03  0.53501060728E+03  0.00000000000E+00 0.  1.
         25    1    1    2    0    0 -0.31534681727E+02  0.67234622856E+02  0.55297349656E+01  0.14550088876E+03  0.12500000000E+03 0.  0.
         25    1    1    2    0    0 -0.59226758368E+01 -0.31929039235E+01 -0.35374422502E+03  0.37524025565E+03  0.12500000000E+03 0.  0.
         25    1    1    2    0    0  0.37457357563E+02 -0.64041718932E+02 -0.47989248299E+02  0.15307633178E+03  0.12500000000E+03 0.  0.
</event>
<event>
 5    0  0.5605075E-005  0.3403794E+03  0.7546771E-02  0.1066634E+00
         21   -1    0    0  502  501  0.00000000000E+00  0.00000000000E+00  0.12680113747E+03  0.12680113747E+03  0.00000000000E+00 0.  1.
         21   -1    0    0  501  502 -0.00000000000E+00 -0.00000000000E+00 -0.91369925789E+03  0.91369925789E+03  0.00000000000E+00 0.  1.
         25    1    1    2    0    0 -0.20060494745E+01  0.12844714967E+03 -0.12200824647E+03  0.21682644372E+03  0.12500000000E+03 0.  0.
         25    1    1    2    0    0 -0.43106415996E+01  0.13772576503E+03 -0.19658176588E+03  0.27065911893E+03  0.12500000000E+03 0.  0.
         25    1    1    2    0    0  0.63166910741E+01 -0.26617291469E+03 -0.46830810808E+03  0.55301483271E+03  0.12500000000E+03 0.  0.
</event>
<event>
 5    0  0.5605075E-005  0.3550796E+03  0.7546771E-02  0.1060549E+00
         21   -1    0    0  502  501  0.00000000000E+00  0.00000000000E+00  0.32552613329E+03  0.32552613329E+03  0.00000000000E+00 0. -1.
         21   -1    0    0  501  502 -0.00000000000E+00 -0.00000000000E+00 -0.38731617132E+03  0.38731617132E+03  0.00000000000E+00 0. -1.
         25    1    1    2    0    0  0.97380495343E+02 -0.62569715571E+02 -0.13499035866E+03  0.21735990226E+03  0.12500000000E+03 0.  0.
         25    1    1    2    0    0 -0.69771038617E+02  0.23217643353E+03  0.75348322495E+02  0.28297749702E+03  0.12500000000E+03 0.  0.
         25    1    1    2    0    0 -0.27609456727E+02 -0.16960671796E+03 -0.21480018660E+01  0.21250490533E+03  0.12500000000E+03 0.  0.
</event>
<event>
 5    0  0.5605075E-005  0.4289125E+03  0.7546771E-02  0.1034204E+00
         21   -1    0    0  502  501  0.00000000000E+00  0.00000000000E+00  0.19032318522E+03  0.19032318522E+03  0.00000000000E+00 0. -1.
         21   -1    0    0  501  502 -0.00000000000E+00 -0.00000000000E+00 -0.96659780169E+03  0.96659780169E+03  0.00000000000E+00 0. -1.
         25    1    1    2    0    0  0.55555902834E+02  0.17490944087E+03 -0.48207192168E+02  0.22721950670E+03  0.12500000000E+03 0.  0.
         25    1    1    2    0    0  0.11445736291E+02 -0.18782664580E+03 -0.75208276448E+03  0.78527914679E+03  0.12500000000E+03 0.  0.
         25    1    1    2    0    0 -0.67001639125E+02  0.12917204926E+02  0.24015340177E+02  0.14442233343E+03  0.12500000000E+03 0.  0.
</event>
<event>
 5    0  0.5605075E-005  0.3398554E+03  0.7546771E-02  0.1066858E+00
         21   -1    0    0  502  501  0.00000000000E+00  0.00000000000E+00  0.88044277437E+03  0.88044277437E+03  0.00000000000E+00 0. -1.
         21   -1    0    0  501  502 -0.00000000000E+00 -0.00000000000E+00 -0.13118593818E+03  0.13118593818E+03  0.00000000000E+00 0. -1.
         25    1    1    2    0    0 -0.70856851255E+02  0.94495044592E+02  0.10779843357E+03  0.20296676847E+03  0.12500000000E+03 0.  0.
         25    1    1    2    0    0 -0.16434014641E+02 -0.24645699999E+03  0.37514787103E+03  0.46623176084E+03  0.12500000000E+03 0.  0.
         25    1    1    2    0    0  0.87290865896E+02  0.15196195539E+03  0.26631053159E+03  0.34243018324E+03  0.12500000000E+03 0.  0.
</event>
<event>
 5    0  0.5605075E-005  0.2871204E+03  0.7546771E-02  0.1091862E+00
         21   -1    0    0  502  501  0.00000000000E+00  0.00000000000E+00  0.55927773862E+03  0.55927773862E+03  0.00000000000E+00 0. -1.
         21   -1    0    0  501  502 -0.00000000000E+00 -0.00000000000E+00 -0.14740103372E+03  0.14740103372E+03  0.00000000000E+00 0. -1.
         25    1    1    2    0    0 -0.12913987662E+03  0.10245286424E+03  0.10323783422E+03  0.23120715287E+03  0.12500000000E+03 0.  0.
         25    1    1    2    0    0  0.97820571271E+01 -0.26103985661E+02  0.24436713143E+03  0.27589382311E+03  0.12500000000E+03 0.  0.
         25    1    1    2    0    0  0.11935781949E+03 -0.76348878576E+02  0.64271739241E+02  0.19957779636E+03  0.12500000000E+03 0.  0.
</event>
<event>
 5    0  0.5605075E-005  0.3764725E+03  0.7546771E-02  0.1052245E+00
         21   -1    0    0  502  501  0.00000000000E+00  0.00000000000E+00  0.25748261553E+03  0.25748261553E+03  0.00000000000E+00 0.  1.
         21   -1    0    0  501  502 -0.00000000000E+00 -0.00000000000E+00 -0.55045090398E+03  0.55045090398E+03  0.00000000000E+00 0.  1.
         25    1    1    2    0    0  0.28470739700E+02  0.83022625152E+02 -0.80293870279E+02  0.17255562845E+03  0.12500000000E+03 0.  0.
         25    1    1    2    0    0 -0.87968385652E+02 -0.55596574070E+02  0.16530828666E+03  0.23190783851E+03  0.12500000000E+03 0.  0.
         25    1    1    2    0    0  0.59497645952E+02 -0.27426051082E+02 -0.37798270483E+03  0.40347005255E+03  0.12500000000E+03 0.  0.
</event>
<event>
 5    0  0.5605075E-005  0.2509511E+03  0.7546771E-02  0.1112705E+00
         21   -1    0    0  502  501  0.00000000000E+00  0.00000000000E+00  0.34713406880E+02  0.34713406880E+02  0.00000000000E+00 0. -1.
         21   -1    0    0  501  502 -0.00000000000E+00 -0.00000000000E+00 -0.18141831493E+04  0.18141831493E+04  0.00000000000E+00 0. -1.
         25    1    1    2    0    0  0.31173358922E+02  0.12575097561E+03 -0.77924175064E+03  0.79976733624E+03  0.12500000000E+03 0.  0.
         25    1    1    2    0    0 -0.30604409290E+02 -0.11264958011E+03 -0.74821046813E+03  0.76750925883E+03  0.12500000000E+03 0.  0.
         25    1    1    2    0    0 -0.56894963198E+00 -0.13101395506E+02 -0.25201752360E+03  0.28161996107E+03  0.12500000000E+03 0.  0.
</event>
<event>
 5    0  0.5605075E-005  0.6562690E+03  0.7546771E-02  0.9795086E-01
         21   -1    0    0  502  501  0.00000000000E+00  0.00000000000E+00  0.22708811160E+03  0.22708811160E+03  0.00000000000E+00 0.  1.
         21   -1    0    0  501  502 -0.00000000000E+00 -0.00000000000E+00 -0.18965723076E+04  0.18965723076E+04  0.00000000000E+00 0.  1.
         25    1    1    2    0    0  0.10340623881E+03  0.55570757485E+03 -0.80573427021E+03  0.99213732576E+03  0.12500000000E+03 0.  0.
         25    1    1    2    0    0  0.35510927082E+02 -0.52449788504E+03 -0.61135969814E+03  0.81593182182E+03  0.12500000000E+03 0.  0.
         25    1    1    2    0    0 -0.13891716589E+03 -0.31209689814E+02 -0.25239022769E+03  0.31559127166E+03  0.12500000000E+03 0.  0.
</event>
<event>
 5    0  0.5605075E-005  0.2628626E+03  0.7546771E-02  0.1105435E+00
         21   -1    0    0  502  501  0.00000000000E+00  0.00000000000E+00  0.39310723264E+02  0.39310723264E+02  0.00000000000E+00 0. -1.
         21   -1    0    0  501  502 -0.00000000000E+00 -0.00000000000E+00 -0.17577070085E+04  0.17577070085E+04  0.00000000000E+00 0. -1.
         25    1    1    2    0    0  0.12695476174E+03 -0.96809895966E+02 -0.62659498794E+03  0.65858632418E+03  0.12500000000E+03 0.  0.
         25    1    1    2    0    0 -0.10239451142E+03  0.78867984730E+02 -0.46475392865E+03  0.49832319751E+03  0.12500000000E+03 0.  0.
         25    1    1    2    0    0 -0.24560250313E+02  0.17941911236E+02 -0.62704736866E+03  0.64010821009E+03  0.12500000000E+03 0.  0.
</event>
<event>
 5    0  0.5605075E-005  0.3853904E+03  0.7546771E-02  0.1048959E+00
         21   -1    0    0  502  501  0.00000000000E+00  0.00000000000E+00  0.46194219912E+03  0.46194219912E+03  0.00000000000E+00 0.  1.
         21   -1    0    0  501  502 -0.00000000000E+00 -0.00000000000E+00 -0.32152458382E+03  0.32152458382E+03  0.00000000000E+00 0.  1.
         25    1    1    2    0    0  0.20895033662E+02 -0.21402326866E+01  0.11205649143E+02  0.12724680586E+03  0.12500000000E+03 0.  0.
         25    1    1    2    0    0 -0.72126615562E+02 -0.27277848128E+03  0.16132295068E+03  0.34822470180E+03  0.12500000000E+03 0.  0.
         25    1    1    2    0    0  0.51231581899E+02  0.27491871397E+03 -0.32110984522E+02  0.30799527529E+03  0.12500000000E+03 0.  0.
</event>
<event>
 5    0  0.6231374E-005  0.3470011E+03  0.7546771E-02  0.1063853E+00
         21   -1    0    0  502  501  0.00000000000E+00  0.00000000000E+00  0.14210158805E+03  0.14210158805E+03  0.00000000000E+00 0.  1.
         21   -1    0    0  501  502 -0.00000000000E+00 -0.00000000000E+00 -0.84734964608E+03  0.84734964608E+03  0.00000000000E+00 0.  1.
         25    1    1    2    0    0 -0.80022909746E+02 -0.43317268138E+02 -0.25886027651E+02  0.15676459495E+03  0.12500000000E+03 0.  0.
         25    1    1    2    0    0 -0.83029769899E+02  0.15522763322E+03 -0.17946977666E+03  0.28075605343E+03  0.12500000000E+03 0.  0.
         25    1    1    2    0    0  0.16305267965E+03 -0.11191036509E+03 -0.49989225372E+03  0.55193058574E+03  0.12500000000E+03 0.  0.
</event>
<event>
 5    0  0.5605075E-005  0.2531709E+03  0.7546771E-02  0.1111317E+00
         21   -1    0    0  502  501  0.00000000000E+00  0.00000000000E+00  0.12792501012E+03  0.12792501012E+03  0.00000000000E+00 0. -1.
         21   -1    0    0  501  502 -0.00000000000E+00 -0.00000000000E+00 -0.50103968659E+03  0.50103968659E+03  0.00000000000E+00 0. -1.
         25    1    1    2    0    0 -0.81533936654E+02 -0.10420306582E+02 -0.50809490723E+02  0.15799674036E+03  0.12500000000E+03 0.  0.
         25    1    1    2    0    0  0.78390926162E+01  0.83607717540E+02 -0.25270916805E+03  0.29417448126E+03  0.12500000000E+03 0.  0.
         25    1    1    2    0    0  0.73694844038E+02 -0.73187410958E+02 -0.69596017690E+02  0.17679347510E+03  0.12500000000E+03 0.  0.
</event>
<event>
 5    0  0.5605075E-005  0.2954975E+03  0.7546771E-02  0.1087513E+00
         21   -1    0    0  502  501  0.00000000000E+00  0.00000000000E+00  0.28611333000E+03  0.28611333000E+03  0.00000000000E+00 0.  1.
         21   -1    0    0  501  502 -0.00000000000E+00 -0.00000000000E+00 -0.30518941304E+03  0.30518941304E+03  0.00000000000E+00 0.  1.
         25    1    1    2    0    0  0.33997600430E+02 -0.70169844127E+02 -0.75305091353E+02  0.16545543401E+03  0.12500000000E+03 0.  0.
         25    1    1    2    0    0 -0.20157713331E+02  0.28221335787E+02 -0.13882700241E+03  0.19000187841E+03  0.12500000000E+03 0.  0.
         25    1    1    2    0    0 -0.13839887099E+02  0.41948508340E+02  0.19505601072E+03  0.23584543062E+03  0.12500000000E+03 0.  0.
</event>
<event>
 5    0  0.5963665E-005  0.3118274E+03  0.7546771E-02  0.1079473E+00
         21   -1    0    0  502  501  0.00000000000E+00  0.00000000000E+00  0.24812990584E+03  0.24812990584E+03  0.00000000000E+00 0. -1.
         21   -1    0    0  501  502 -0.00000000000E+00 -0.00000000000E+00 -0.39187661655E+03  0.39187661655E+03  0.00000000000E+00 0. -1.
         25    1    1    2    0    0 -0.64552606892E+02  0.44696040437E+02 -0.14711528807E+03  0.20840509368E+03  0.12500000000E+03 0.  0.
         25    1    1    2    0    0 -0.13508135255E+03  0.22719770331E+02  0.17049608230E+02  0.18622257895E+03  0.12500000000E+03 0.  0.
         25    1    1    2    0    0  0.19963395944E+03 -0.67415810769E+02 -0.13681030860E+02  0.24537884976E+03  0.12500000000E+03 0.  0.
</event>
<event>
 5    0  0.5605075E-005  0.3910054E+03  0.7546771E-02  0.1046939E+00
         21   -1    0    0  502  501  0.00000000000E+00  0.00000000000E+00  0.19793063344E+03  0.19793063344E+03  0.00000000000E+00 0.  1.
         21   -1    0    0  501  502 -0.00000000000E+00 -0.00000000000E+00 -0.77241826516E+03  0.77241826516E+03  0.00000000000E+00 0.  1.
         25    1    1    2    0    0  0.25309473635E+03 -0.70502788744E+02 -0.60132026519E+02  0.29710006631E+03  0.12500000000E+03 0.  0.
         25    1    1    2    0    0 -0.25967967071E+03  0.95114982705E+02 -0.39862044995E+03  0.50100264913E+03  0.12500000000E+03 0.  0.
         25    1    1    2    0    0  0.65849343650E+01 -0.24612193960E+02 -0.11573515526E+03  0.17224618316E+03  0.12500000000E+03 0.  0.
</event>
<event>
 5    0  0.5605075E-005  0.2628729E+03  0.7546771E-02  0.1105429E+00
         21   -1    0    0  502  501  0.00000000000E+00  0.00000000000E+00  0.20836111929E+04  0.20836111929E+04  0.00000000000E+00 0.  1.
         21   -1    0    0  501  502 -0.00000000000E+00 -0.00000000000E+00 -0.33164618415E+02  0.33164618415E+02  0.00000000000E+00 0.  1.
         25    1    1    2    0    0 -0.23328829867E+02  0.62964818938E+02  0.24330360884E+03  0.28165661505E+03  0.12500000000E+03 0.  0.
         25    1    1    2    0    0 -0.63278649734E+02 -0.64155375867E+02  0.64946095596E+03  0.66749129814E+03  0.12500000000E+03 0.  0.
         25    1    1    2    0    0  0.86607479602E+02  0.11905569283E+01  0.11576820096E+04  0.11676278981E+04  0.12500000000E+03 0.  0.
</event>
<event>
 5    0  0.5605075E-005  0.2616725E+03  0.7546771E-02  0.1106143E+00
         21   -1    0    0  502  501  0.00000000000E+00  0.00000000000E+00  0.25601453704E+03  0.25601453704E+03  0.00000000000E+00 0.  1.
         21   -1    0    0  501  502 -0.00000000000E+00 -0.00000000000E+00 -0.26745540662E+03  0.26745540662E+03  0.00000000000E+00 0.  1.
         25    1    1    2    0    0  0.23299680839E+02  0.13725216844E+03  0.37856774866E+02  0.19089046145E+03  0.12500000000E+03 0.  0.
         25    1    1    2    0    0  0.62219298697E+02 -0.57941189662E+02 -0.56695815132E+02  0.16145537477E+03  0.12500000000E+03 0.  0.
         25    1    1    2    0    0 -0.85518979536E+02 -0.79310978774E+02  0.73981706878E+01  0.17112410743E+03  0.12500000000E+03 0.  0.
</event>
<event>
 5    0  0.5605075E-005  0.4048477E+03  0.7546771E-02  0.1042114E+00
         21   -1    0    0  502  501  0.00000000000E+00  0.00000000000E+00  0.16879474884E+03  0.16879474884E+03  0.00000000000E+00 0.  1.
         21   -1    0    0  501  502 -0.00000000000E+00 -0.00000000000E+00 -0.97101141952E+03  0.97101141952E+03  0.00000000000E+00 0.  1.
         25    1    1    2    0    0 -0.47054703812E+02  0.27833187148E+03 -0.21282706204E+03  0.37497084442E+03  0.12500000000E+03 0.  0.
         25    1    1    2    0    0  0.16039088115E+03 -0.20276979538E+03 -0.26137566003E+03  0.38830794523E+03  0.12500000000E+03 0.  0.
         25    1    1    2    0    0 -0.11333617734E+03 -0.75562076095E+02 -0.32801394861E+03  0.37652737871E+03  0.12500000000E+03 0.  0.
</event>
<event>
 5    0  0.5605075E-005  0.2403469E+03  0.7546771E-02  0.1119562E+00
         21   -1    0    0  502  501  0.00000000000E+00  0.00000000000E+00  0.26866568572E+03  0.26866568572E+03  0.00000000000E+00 0.  1.
         21   -1    0    0  501  502 -0.00000000000E+00 -0.00000000000E+00 -0.21501310108E+03  0.21501310108E+03  0.00000000000E+00 0.  1.
         25    1    1    2    0    0 -0.51240048430E+02 -0.12364399562E+03  0.58807792547E+02  0.19234535783E+03  0.12500000000E+03 0.  0.
         25    1    1    2    0    0  0.38588864295E+02  0.54743157506E+02 -0.32419520006E+02  0.14547143712E+03  0.12500000000E+03 0.  0.
         25    1    1    2    0    0  0.12651184135E+02  0.68900838112E+02  0.27264312101E+02  0.14586199185E+03  0.12500000000E+03 0.  0.
</event>
<event>
 5    0  0.5605075E-005  0.2816398E+03  0.7546771E-02  0.1094797E+00
         21   -1    0    0  502  501  0.00000000000E+00  0.00000000000E+00  0.15179278007E+04  0.15179278007E+04  0.00000000000E+00 0.  1.
         21   -1    0    0  501  502 -0.00000000000E+00 -0.00000000000E+00 -0.52256087679E+02  0.52256087679E+02  0.00000000000E+00 0.  1.
         25    1    1    2    0    0 -0.18412987327E+02  0.92713948673E+02  0.33453976751E+03  0.36942762543E+03  0.12500000000E+03 0.  0.
         25    1    1    2    0    0 -0.43657105261E+02 -0.10019703068E+03  0.20345727678E+03  0.26261235933E+03  0.12500000000E+03 0.  0.
         25    1    1    2    0    0  0.62070092588E+02  0.74830820027E+01  0.92767466873E+03  0.93814390362E+03  0.12500000000E+03 0.  0.
</event>
<event>
 5    0  0.5605075E-005  0.4171856E+03  0.7546771E-02  0.1037986E+00
         21   -1    0    0  502  501  0.00000000000E+00  0.00000000000E+00  0.61619807397E+03  0.61619807397E+03  0.00000000000E+00 0. -1.
         21   -1    0    0  501  502 -0.00000000000E+00 -0.00000000000E+00 -0.28244790270E+03  0.28244790270E+03  0.00000000000E+00 0. -1.
         25    1    1    2    0    0  0.22341487035E+02  0.63564730100E+02 -0.46334628584E+01  0.14207774609E+03  0.12500000000E+03 0.  0.
         25    1    1    2    0    0 -0.12761797596E+03 -0.32341047548E+03  0.17468451840E+03  0.40868125037E+03  0.12500000000E+03 0.  0.
         25    1    1    2    0    0  0.10527648893E+03  0.25984574538E+03  0.16369911573E+03  0.34788698021E+03  0.12500000000E+03 0.  0.
</event>
<event>
 5    0  0.5605075E-005  0.5187561E+03  0.7546771E-02  0.1008996E+00
         21   -1    0    0  502  501  0.00000000000E+00  0.00000000000E+00  0.30869231684E+04  0.30869231684E+04  0.00000000000E+00 0. -1.
         21   -1    0    0  501  502 -0.00000000000E+00 -0.00000000000E+00 -0.87176738059E+02  0.87176738059E+02  0.00000000000E+00 0. -1.
         25    1    1    2    0    0  0.29187558098E+03 -0.12569928167E+03  0.12566576099E+04  0.13022307832E+04  0.12500000000E+03 0.  0.
         25    1    1    2    0    0  0.13398140275E+03 -0.51842935029E+02  0.68181691784E+03  0.70791102241E+03  0.12500000000E+03 0.  0.
         25    1    1    2    0    0 -0.42585698373E+03  0.17754221670E+03  0.10612719026E+04  0.11639581009E+04  0.12500000000E+03 0.  0.
</event>
<event>
 5    0  0.5605075E-005  0.3296859E+03  0.7546771E-02  0.1071276E+00
         21   -1    0    0  502  501  0.00000000000E+00  0.00000000000E+00  0.83809369547E+02  0.83809369547E+02  0.00000000000E+00 0.  1.
         21   -1    0    0  501  502 -0.00000000000E+00 -0.00000000000E+00 -0.12969047526E+04  0.12969047526E+04  0.00000000000E+00 0.  1.
         25    1    1    2    0    0  0.18482921404E+01  0.11677422075E+03 -0.71372018904E+03  0.73393538071E+03  0.12500000000E+03 0.  0.
         25    1    1    2    0    0 -0.57900457505E+02 -0.11656394528E+03 -0.47435450854E+03  0.50752026175E+03  0.12500000000E+03 0.  0.
         25    1    1    2    0    0  0.56052165365E+02 -0.21027547084E+00 -0.25020685454E+02  0.13925847966E+03  0.12500000000E+03 0.  0.
</event>
<event>
 5    0  0.5605075E-005  0.2273933E+03  0.7546771E-02  0.1128488E+00
         21   -1    0    0  502  501  0.00000000000E+00  0.00000000000E+00  0.33233063973E+03  0.33233063973E+03  0.00000000000E+00 0.  1.
         21   -1    0    0  501  502 -0.00000000000E+00 -0.00000000000E+00 -0.15559116627E+03  0.15559116627E+03  0.00000000000E+00 0.  1.
         25    1    1    2    0    0 -0.23246146967E+02 -0.34255068551E+02 -0.13528996106E+02  0.13237003742E+03  0.12500000000E+03 0.  0.
         25    1    1    2    0    0  0.64499541817E+02 -0.11252612971E+01  0.27635158587E+02  0.14335326678E+03  0.12500000000E+03 0.  0.
         25    1    1    2    0    0 -0.41253394850E+02  0.35380329848E+02  0.16263331098E+03  0.21219850180E+03  0.12500000000E+03 0.  0.
</event>
<event>
 5    0  0.5605075E-005  0.4186254E+03  0.7546771E-02  0.1037515E+00
         21   -1    0    0  502  501  0.00000000000E+00  0.00000000000E+00  0.30449275578E+03  0.30449275578E+03  0.00000000000E+00 0.  1.
         21   -1    0    0  501  502 -0.00000000000E+00 -0.00000000000E+00 -0.57553814577E+03  0.57553814577E+03  0.00000000000E+00 0. -1.
         25    1    1    2    0    0 -0.34859175239E+03 -0.56344621266E+02 -0.22446512531E+02  0.37525960628E+03  0.12500000000E+03 0.  0.
         25    1    1    2    0    0  0.13274416377E+03  0.36988369025E+00 -0.84196289630E+02  0.20083616462E+03  0.12500000000E+03 0.  0.
         25    1    1    2    0    0  0.21584758862E+03  0.55974737576E+02 -0.16440258784E+03  0.30393513065E+03  0.12500000000E+03 0.  0.
</event>
<event>
 5    0  0.5605075E-005  0.2940683E+03  0.7546771E-02  0.1088244E+00
         21   -1    0    0  502  501  0.00000000000E+00  0.00000000000E+00  0.14075131859E+04  0.14075131859E+04  0.00000000000E+00 0. -1.
         21   -1    0    0  501  502 -0.00000000000E+00 -0.00000000000E+00 -0.61438956317E+02  0.61438956317E+02  0.00000000000E+00 0. -1.
         25    1    1    2    0    0  0.10137725924E+03  0.17996263401E+03  0.46689161170E+03  0.52562027682E+03  0.12500000000E+03 0.  0.
         25    1    1    2    0    0 -0.27806342342E+02 -0.14041328761E+03  0.44585201931E+03  0.48466287988E+03  0.12500000000E+03 0.  0.
         25    1    1    2    0    0 -0.73570916901E+02 -0.39549346399E+02  0.43333059859E+03  0.45866898553E+03  0.12500000000E+03 0.  0.
</event>
<event>
 5    0  0.5605075E-005  0.2893148E+03  0.7546771E-02  0.1090707E+00
         21   -1    0    0  502  501  0.00000000000E+00  0.00000000000E+00  0.53001210237E+03  0.53001210237E+03  0.00000000000E+00 0. -1.
         21   -1    0    0  501  502 -0.00000000000E+00 -0.00000000000E+00 -0.15792673433E+03  0.15792673433E+03  0.00000000000E+00 0. -1.
         25    1    1    2    0    0 -0.15692216650E+03 -0.49842857195E+02  0.41897124321E+02  0.21092473961E+03  0.12500000000E+03 0.  0.
         25    1    1    2    0    0  0.10393587213E+03 -0.36643430202E+02  0.94423189649E+02  0.19153627655E+03  0.12500000000E+03 0.  0.
         25    1    1    2    0    0  0.52986294366E+02  0.86486287398E+02  0.23576505407E+03  0.28547782054E+03  0.12500000000E+03 0.  0.
</event>
<event>
 5    0  0.5605075E-005  0.3203542E+03  0.7546771E-02  0.1075486E+00
         21   -1    0    0  502  501  0.00000000000E+00  0.00000000000E+00  0.34672057363E+03  0.34672057363E+03  0.00000000000E+00 0. -1.
         21   -1    0    0  501  502 -0.00000000000E+00 -0.00000000000E+00 -0.29599279159E+03  0.29599279159E+03  0.00000000000E+00 0. -1.
         25    1    1    2    0    0  0.11409285477E+03 -0.67681581153E+01  0.22715115752E+02  0.17089167317E+03  0.12500000000E+03 0.  0.
         25    1    1    2    0    0 -0.15440179736E+03  0.11788414678E+03  0.13661367195E+03  0.26837451901E+03  0.12500000000E+03 0.  0.
         25    1    1    2    0    0  0.40308942593E+02 -0.11111598866E+03 -0.10860100566E+03  0.20344717304E+03  0.12500000000E+03 0.  0.
</event>
<event>
 5    0  0.5605075E-005  0.3389433E+03  0.7546771E-02  0.1067247E+00
         21   -1    0    0  502  501  0.00000000000E+00  0.00000000000E+00  0.10713317359E+04  0.10713317359E+04  0.00000000000E+00 0.  1.
         21   -1    0    0  501  502 -0.00000000000E+00 -0.00000000000E+00 -0.10723339945E+03  0.10723339945E+03  0.00000000000E+00 0.  1.
         25    1    1    2    0    0  0.10482784884E+03 -0.50356867246E+02  0.23963446433E+03  0.29423522642E+03  0.12500000000E+03 0.  0.
         25    1    1    2    0    0 -0.13633035757E+03  0.10311190405E+03  0.71389904423E+03  0.74464412742E+03  0.12500000000E+03 0.  0.
         25    1    1    2    0    0  0.31502508727E+02 -0.52755036802E+02  0.10564827879E+02  0.13968578150E+03  0.12500000000E+03 0.  0.
</event>
<event>
 5    0  0.5605075E-005  0.3765932E+03  0.7546771E-02  0.1052200E+00
         21   -1    0    0  502  501  0.00000000000E+00  0.00000000000E+00  0.15744180402E+03  0.15744180402E+03  0.00000000000E+00 0. -1.
         21   -1    0    0  501  502 -0.00000000000E+00 -0.00000000000E+00 -0.90079272643E+03  0.90079272643E+03  0.00000000000E+00 0. -1.
         25    1    1    2    0    0  0.10804078542E+03 -0.10503374145E+02 -0.89596149939E+02  0.18824346540E+03  0.12500000000E+03 0.  0.
         25    1    1    2    0    0  0.11823508262E+02  0.24196972358E+03 -0.22808545259E+03  0.35543932839E+03  0.12500000000E+03 0.  0.
         25    1    1    2    0    0 -0.11986429369E+03 -0.23146634944E+03 -0.42566931988E+03  0.51455173667E+03  0.12500000000E+03 0.  0.
</event>
<event>
 5    0  0.5605075E-005  0.2317361E+03  0.7546771E-02  0.1125424E+00
         21   -1    0    0  502  501  0.00000000000E+00  0.00000000000E+00  0.11969785936E+04  0.11969785936E+04  0.00000000000E+00 0.  1.
         21   -1    0    0  501  502 -0.00000000000E+00 -0.00000000000E+00 -0.44864298435E+02  0.44864298435E+02  0.00000000000E+00 0.  1.
         25    1    1    2    0    0  0.53442939092E+02  0.30403180158E+01  0.45607252240E+03  0.47591232066E+03  0.12500000000E+03 0.  0.
         25    1    1    2    0    0 -0.10240127305E+02  0.76271358696E+02  0.21155948910E+03  0.25749679181E+03  0.12500000000E+03 0.  0.
         25    1    1    2    0    0 -0.43202811787E+02 -0.79311676712E+02  0.48448228364E+03  0.50843377953E+03  0.12500000000E+03 0.  0.
</event>
<event>
 5    0  0.5605075E-005  0.3397181E+03  0.7546771E-02  0.1066916E+00
         21   -1    0    0  502  501  0.00000000000E+00  0.00000000000E+00  0.98974539269E+02  0.98974539269E+02  0.00000000000E+00 0.  1.
         21   -1    0    0  501  502 -0.00000000000E+00 -0.00000000000E+00 -0.11660411693E+04  0.11660411693E+04  0.00000000000E+00 0.  1.
         25    1    1    2    0    0 -0.16332774302E+02 -0.54023876915E+02 -0.27179484023E+03  0.30443845678E+03  0.12500000000E+03 0.  0.
         25    1    1    2    0    0  0.83764244485E+02  0.25294995298E+03 -0.43616211459E+03  0.52617726820E+03  0.12500000000E+03 0.  0.
         25    1    1    2    0    0 -0.67431470183E+02 -0.19892607607E+03 -0.35910967523E+03  0.43439998360E+03  0.12500000000E+03 0.  0.
</event>
<event>
 5    0  0.5605075E-005  0.3872078E+03  0.7546771E-02  0.1048301E+00
         21   -1    0    0  502  501  0.00000000000E+00  0.00000000000E+00  0.74656702846E+03  0.74656702846E+03  0.00000000000E+00 0.  1.
         21   -1    0    0  501  502 -0.00000000000E+00 -0.00000000000E+00 -0.20082570280E+03  0.20082570280E+03  0.00000000000E+00 0.  1.
         25    1    1    2    0    0  0.11869933513E+03  0.19212641612E+03  0.10991748327E+03  0.28055114518E+03  0.12500000000E+03 0.  0.
         25    1    1    2    0    0  0.12731385258E+03 -0.78336712234E+02  0.24303326727E+03  0.31150541977E+03  0.12500000000E+03 0.  0.
         25    1    1    2    0    0 -0.24601318772E+03 -0.11378970389E+03  0.19279057512E+03  0.35533616632E+03  0.12500000000E+03 0.  0.
</event>
<event>
 5    0  0.5605075E-005  0.3111000E+03  0.7546771E-02  0.1079820E+00
         21   -1    0    0  502  501  0.00000000000E+00  0.00000000000E+00  0.27581688311E+03  0.27581688311E+03  0.00000000000E+00 0. -1.
         21   -1    0    0  501  502 -0.00000000000E+00 -0.00000000000E+00 -0.35089664238E+03  0.35089664238E+03  0.00000000000E+00 0. -1.
         25    1    1    2    0    0 -0.23651070378E+00 -0.62911336714E+02 -0.25506374141E+03  0.29093023976E+03  0.12500000000E+03 0.  0.
         25    1    1    2    0    0 -0.37870066471E+02  0.11274961336E+02  0.13516476469E+03  0.18829705335E+03  0.12500000000E+03 0.  0.
         25    1    1    2    0    0  0.38106577175E+02  0.51636375378E+02  0.44819217454E+02  0.14748623237E+03  0.12500000000E+03 0.  0.
</event>
<event>
 5    0  0.5724480E-005  0.4606725E+03  0.7546771E-02  0.1024586E+00
         21   -1    0    0  502  501  0.00000000000E+00  0.00000000000E+00  0.19172312349E+03  0.19172312349E+03  0.00000000000E+00 0. -1.
         21   -1    0    0  501  502 -0.00000000000E+00 -0.00000000000E+00 -0.11069043878E+04  0.11069043878E+04  0.00000000000E+00 0. -1.
         25    1    1    2    0    0  0.11544446129E+03 -0.11324073318E+03 -0.51777957057E+03  0.55666109169E+03  0.12500000000E+03 0.  0.
         25    1    1    2    0    0  0.12241799155E+03  0.19230952807E+03 -0.52329112361E+01  0.26004134787E+03  0.12500000000E+03 0.  0.
         25    1    1    2    0    0 -0.23786245285E+03 -0.79068794890E+02 -0.39216878252E+03  0.48192507175E+03  0.12500000000E+03 0.  0.
</event>
<event>
 5    0  0.5605075E-005  0.3465247E+03  0.7546771E-02  0.1064051E+00
         21   -1    0    0  502  501  0.00000000000E+00  0.00000000000E+00  0.67796754004E+02  0.67796754004E+02  0.00000000000E+00 0. -1.
         21   -1    0    0  501  502 -0.00000000000E+00 -0.00000000000E+00 -0.17711664973E+04  0.17711664973E+04  0.00000000000E+00 0. -1.
         25    1    1    2    0    0  0.14852512149E+02 -0.24544344196E+02 -0.64114036489E+03  0.65384171589E+03  0.12500000000E+03 0.  0.
         25    1    1    2    0    0 -0.55643158150E+02  0.15175938392E+03 -0.14682712574E+03  0.25161533441E+03  0.12500000000E+03 0.  0.
         25    1    1    2    0    0  0.40790646001E+02 -0.12721503972E+03 -0.91540225262E+03  0.93350620096E+03  0.12500000000E+03 0.  0.
</event>
<event>
 5    0  0.5605075E-005  0.4213370E+03  0.7546771E-02  0.1036632E+00
         21   -1    0    0  502  501  0.00000000000E+00  0.00000000000E+00  0.27969515292E+03  0.27969515292E+03  0.00000000000E+00 0.  1.
         21   -1    0    0  501  502 -0.00000000000E+00 -0.00000000000E+00 -0.63470831335E+03  0.63470831335E+03  0.00000000000E+00 0.  1.
         25    1    1    2    0    0  0.36930488701E+02 -0.18410492112E+01 -0.65393911746E+02  0.14583762941E+03  0.12500000000E+03 0.  0.
         25    1    1    2    0    0  0.30320624490E+03  0.82746898825E+02 -0.16939746142E+03  0.37828768966E+03  0.12500000000E+03 0.  0.
         25    1    1    2    0    0 -0.34013673360E+03 -0.80905849614E+02 -0.12022178726E+03  0.39027814720E+03  0.12500000000E+03 0.  0.
</event>
<event>
 5    0  0.5605075E-005  0.2375145E+03  0.7546771E-02  0.1121460E+00
         21   -1    0    0  502  501  0.00000000000E+00  0.00000000000E+00  0.15315688032E+03  0.15315688032E+03  0.00000000000E+00 0.  1.
         21   -1    0    0  501  502 -0.00000000000E+00 -0.00000000000E+00 -0.36833560714E+03  0.36833560714E+03  0.00000000000E+00 0.  1.
         25    1    1    2    0    0  0.35147942310E+00 -0.58028279152E+02 -0.71515668914E+02  0.15526395467E+03  0.12500000000E+03 0.  0.
         25    1    1    2    0    0  0.53684679906E+02  0.12511205440E+03 -0.71938418631E+02  0.19833105427E+03  0.12500000000E+03 0.  0.
         25    1    1    2    0    0 -0.54036159329E+02 -0.67083775244E+02 -0.71724639275E+02  0.16789747853E+03  0.12500000000E+03 0.  0.
</event>
<event>
 5    0  0.5605075E-005  0.2650920E+03  0.7546771E-02  0.1104122E+00
         21   -1    0    0  502  501  0.00000000000E+00  0.00000000000E+00  0.33073801365E+03  0.33073801365E+03  0.00000000000E+00 0.  1.
         21   -1    0    0  501  502 -0.00000000000E+00 -0.00000000000E+00 -0.21247560497E+03  0.21247560497E+03  0.00000000000E+00 0.  1.
         25    1    1    2    0    0  0.81419675067E+01  0.51855372449E+02  0.11417087268E+03  0.17724350328E+03  0.12500000000E+03 0.  0.
         25    1    1    2    0    0  0.89904856624E+02 -0.11453576587E+03 -0.22173809693E+02  0.19317868087E+03  0.12500000000E+03 0.  0.
         25    1    1    2    0    0 -0.98046824131E+02  0.62680393418E+02  0.26265345681E+02  0.17279143447E+03  0.12500000000E+03 0.  0.
</event>
<event>
 5    0  0.5605075E-005  0.3311991E+03  0.7546771E-02  0.1070608E+00
         21   -1    0    0  502  501  0.00000000000E+00  0.00000000000E+00  0.35856458837E+03  0.35856458837E+03  0.00000000000E+00 0. -1.
         21   -1    0    0  501  502 -0.00000000000E+00 -0.00000000000E+00 -0.30592210060E+03  0.30592210060E+03  0.00000000000E+00 0. -1.
         25    1    1    2    0    0  0.12494922004E+03  0.26490753745E+02 -0.51887813692E+02  0.18609517144E+03  0.12500000000E+03 0.  0.
         25    1    1    2    0    0  0.10767034920E+03 -0.94059590348E+02  0.11073171205E+02  0.19023071716E+03  0.12500000000E+03 0.  0.
         25    1    1    2    0    0 -0.23261956924E+03  0.67568836602E+02  0.93457130264E+02  0.28816080037E+03  0.12500000000E+03 0.  0.
</event>
<event>
 5    0  0.5605075E-005  0.4939712E+03  0.7546771E-02  0.1015365E+00
         21   -1    0    0  502  501  0.00000000000E+00  0.00000000000E+00  0.10307177628E+04  0.10307177628E+04  0.00000000000E+00 0.  1.
         21   -1    0    0  501  502 -0.00000000000E+00 -0.00000000000E+00 -0.23673556604E+03  0.23673556604E+03  0.00000000000E+00 0.  1.
         25    1    1    2    0    0  0.20329027923E+02  0.34304007797E+03  0.15584367518E+03  0.39749467363E+03  0.12500000000E+03 0.  0.
         25    1    1    2    0    0  0.10186822874E+03 -0.36266633005E+03  0.33453949226E+03  0.51908156860E+03  0.12500000000E+03 0.  0.
         25    1    1    2    0    0 -0.12219725666E+03  0.19626252079E+02  0.30359902932E+03  0.35087708661E+03  0.12500000000E+03 0.  0.
</event>
<event>
 5    0  0.5605075E-005  0.3022378E+03  0.7546771E-02  0.1084127E+00
         21   -1    0    0  502  501  0.00000000000E+00  0.00000000000E+00  0.25168688747E+03  0.25168688747E+03  0.00000000000E+00 0.  1.
         21   -1    0    0  501  502 -0.00000000000E+00 -0.00000000000E+00 -0.36294166742E+03  0.36294166742E+03  0.00000000000E+00 0.  1.
         25    1    1    2    0    0  0.15118190737E+03 -0.32549038876E+02  0.46782267414E+02  0.20427674756E+03  0.12500000000E+03 0.  0.
         25    1    1    2    0    0 -0.11665868351E+03  0.12117858694E+03 -0.14049013430E+03  0.25230135990E+03  0.12500000000E+03 0.  0.
         25    1    1    2    0    0 -0.34523223861E+02 -0.88629548068E+02 -0.17546913058E+02  0.15805044743E+03  0.12500000000E+03 0.  0.
</event>
<event>
 5    0  0.5605075E-005  0.2672156E+03  0.7546771E-02  0.1102884E+00
         21   -1    0    0  502  501  0.00000000000E+00  0.00000000000E+00  0.22141500623E+03  0.22141500623E+03  0.00000000000E+00 0. -1.
         21   -1    0    0  501  502 -0.00000000000E+00 -0.00000000000E+00 -0.32249023848E+03  0.32249023848E+03  0.00000000000E+00 0. -1.
         25    1    1    2    0    0 -0.91865068354E+02 -0.98724135644E+02 -0.80135541168E+02  0.20058003565E+03  0.12500000000E+03 0.  0.
         25    1    1    2    0    0 -0.26770868019E+02  0.75699454057E+02  0.48238035617E+02  0.15620177592E+03  0.12500000000E+03 0.  0.
         25    1    1    2    0    0  0.11863593637E+03  0.23024681587E+02 -0.69177726697E+02  0.18712343315E+03  0.12500000000E+03 0.  0.
</event>
<event>
 5    0  0.6707761E-005  0.2946864E+03  0.7546771E-02  0.1087927E+00
         21   -1    0    0  502  501  0.00000000000E+00  0.00000000000E+00  0.50215119555E+03  0.50215119555E+03  0.00000000000E+00 0.  1.
         21   -1    0    0  501  502 -0.00000000000E+00 -0.00000000000E+00 -0.17293606354E+03  0.17293606354E+03  0.00000000000E+00 0.  1.
         25    1    1    2    0    0 -0.33933160820E+02  0.19039510442E+03  0.19368266061E+03  0.30089820241E+03  0.12500000000E+03 0.  0.
         25    1    1    2    0    0  0.59208973585E+02 -0.13158922683E+03  0.13488446307E+03  0.23375253057E+03  0.12500000000E+03 0.  0.
         25    1    1    2    0    0 -0.25275812765E+02 -0.58805877589E+02  0.64800832905E+00  0.14043652611E+03  0.12500000000E+03 0.  0.
</event>
<event>
 5    0  0.5605075E-005  0.5593620E+03  0.7546771E-02  0.9993499E-01
         21   -1    0    0  502  501  0.00000000000E+00  0.00000000000E+00  0.24133979862E+03  0.24133979862E+03  0.00000000000E+00 0. -1.
         21   -1    0    0  501  502 -0.00000000000E+00 -0.00000000000E+00 -0.12964534391E+04  0.12964534391E+04  0.00000000000E+00 0. -1.
         25    1    1    2    0    0 -0.28432743128E+03  0.57652547051E+01 -0.13098145132E+03  0.33712974792E+03  0.12500000000E+03 0.  0.
         25    1    1    2    0    0 -0.94840038063E+02 -0.18736692142E+03 -0.62139666099E+03  0.66772734432E+03  0.12500000000E+03 0.  0.
         25    1    1    2    0    0  0.37916746934E+03  0.18160166672E+03 -0.30273552822E+03  0.53293614553E+03  0.12500000000E+03 0.  0.
</event>
<event>
 5    0  0.5605075E-005  0.3781606E+03  0.7546771E-02  0.1051616E+00
         21   -1    0    0  502  501  0.00000000000E+00  0.00000000000E+00  0.18158842662E+04  0.18158842662E+04  0.00000000000E+00 0.  1.
         21   -1    0    0  501  502 -0.00000000000E+00 -0.00000000000E+00 -0.78752523295E+02  0.78752523295E+02  0.00000000000E+00 0.  1.
         25    1    1    2    0    0 -0.11603947804E+03 -0.11942064864E+03  0.82986173270E+03  0.85558281142E+03  0.12500000000E+03 0.  0.
         25    1    1    2    0    0 -0.44335117625E+02  0.18382350638E+03  0.20681651595E+03  0.30684646881E+03  0.12500000000E+03 0.  0.
         25    1    1    2    0    0  0.16037459567E+03 -0.64402857744E+02  0.70045349426E+03  0.73220750928E+03  0.12500000000E+03 0.  0.
</event>
<event>
 5    0  0.5605075E-005  0.3264959E+03  0.7546771E-02  0.1072698E+00
         21   -1    0    0  502  501  0.00000000000E+00  0.00000000000E+00  0.62054838742E+03  0.62054838742E+03  0.00000000000E+00 0. -1.
         21   -1    0    0  501  502 -0.00000000000E+00 -0.00000000000E+00 -0.17178280633E+03  0.17178280633E+03  0.00000000000E+00 0. -1.
         25    1    1    2    0    0 -0.13396946611E+03 -0.16637429698E+03  0.31776753772E+03  0.40277715001E+03  0.12500000000E+03 0.  0.
         25    1    1    2    0    0  0.73506732047E+01  0.81162848752E+02  0.12084535073E+03  0.19201572646E+03  0.12500000000E+03 0.  0.
         25    1    1    2    0    0  0.12661879290E+03  0.85211448230E+02  0.10152692630E+02  0.19753831728E+03  0.12500000000E+03 0.  0.
</event>
<event>
 5    0  0.5605075E-005  0.3221590E+03  0.7546771E-02  0.1074660E+00
         21   -1    0    0  502  501  0.00000000000E+00  0.00000000000E+00  0.69139858670E+02  0.69139858670E+02  0.00000000000E+00 0.  1.
         21   -1    0    0  501  502 -0.00000000000E+00 -0.00000000000E+00 -0.15011079358E+04  0.15011079358E+04  0.00000000000E+00 0.  1.
         25    1    1    2    0    0 -0.36576437526E+02  0.23138615146E+03 -0.54081535918E+03  0.60248123588E+03  0.12500000000E+03 0.  0.
         25    1    1    2    0    0 -0.10037847302E+02 -0.85354968202E+02 -0.57637793330E+03  0.59600566354E+03  0.12500000000E+03 0.  0.
         25    1    1    2    0    0  0.46614284828E+02 -0.14603118326E+03 -0.31477478465E+03  0.37176089504E+03  0.12500000000E+03 0.  0.
</event>
<event>
 5    0  0.5605075E-005  0.2983970E+03  0.7546771E-02  0.1086045E+00
         21   -1    0    0  502  501  0.00000000000E+00  0.00000000000E+00  0.48890297626E+03  0.48890297626E+03  0.00000000000E+00 0. -1.
         21   -1    0    0  501  502 -0.00000000000E+00 -0.00000000000E+00 -0.18212359121E+03  0.18212359121E+03  0.00000000000E+00 0. -1.
         25    1    1    2    0    0  0.72826876257E+01 -0.20374338819E+03  0.12011695573E+03  0.26761444061E+03  0.12500000000E+03 0.  0.
         25    1    1    2    0    0 -0.74816476989E+02  0.84038404899E+02  0.11755409114E+03  0.20519240500E+03  0.12500000000E+03 0.  0.
         25    1    1    2    0    0  0.67533789363E+02  0.11970498329E+03  0.69108338179E+02  0.19821972186E+03  0.12500000000E+03 0.  0.
</event>
<event>
 5    0  0.5605075E-005  0.2591888E+03  0.7546771E-02  0.1107632E+00
         21   -1    0    0  502  501  0.00000000000E+00  0.00000000000E+00  0.24634056223E+03  0.24634056223E+03  0.00000000000E+00 0.  1.
         21   -1    0    0  501  502 -0.00000000000E+00 -0.00000000000E+00 -0.27270718378E+03  0.27270718378E+03  0.00000000000E+00 0.  1.
         25    1    1    2    0    0  0.13635005569E+03 -0.58887950706E-01 -0.37064949571E+02  0.18865352274E+03  0.12500000000E+03 0.  0.
         25    1    1    2    0    0 -0.11858515561E+03  0.38001182081E+01 -0.63773479515E+02  0.18376326270E+03  0.12500000000E+03 0.  0.
         25    1    1    2    0    0 -0.17764900083E+02 -0.37412302574E+01  0.74471807534E+02  0.14663096056E+03  0.12500000000E+03 0.  0.
</event>
<event>
 5    0  0.5605075E-005  0.2701944E+03  0.7546771E-02  0.1101168E+00
         21   -1    0    0  502  501  0.00000000000E+00  0.00000000000E+00  0.37322186928E+03  0.37322186928E+03  0.00000000000E+00 0.  1.
         21   -1    0    0  501  502 -0.00000000000E+00 -0.00000000000E+00 -0.19560748924E+03  0.19560748924E+03  0.00000000000E+00 0.  1.
         25    1    1    2    0    0 -0.80263567365E+00  0.43604134155E+01  0.18056994927E+03  0.21965919969E+03  0.12500000000E+03 0.  0.
         25    1    1    2    0    0 -0.39784952050E+02 -0.14148843914E+02  0.11293592867E+03  0.17367370607E+03  0.12500000000E+03 0.  0.
         25    1    1    2    0    0  0.40587587723E+02  0.97884304981E+01 -0.11589149790E+03  0.17549645277E+03  0.12500000000E+03 0.  0.
</event>
<event>
 5    0  0.5605075E-005  0.3165343E+03  0.7546771E-02  0.1077255E+00
         21   -1    0    0  502  501  0.00000000000E+00  0.00000000000E+00  0.81484683744E+02  0.81484683744E+02  0.00000000000E+00 0.  1.
         21   -1    0    0  501  502 -0.00000000000E+00 -0.00000000000E+00 -0.12296048051E+04  0.12296048051E+04  0.00000000000E+00 0.  1.
         25    1    1    2    0    0  0.73893664270E+02 -0.69902447701E+02 -0.39780879192E+03  0.42921260553E+03  0.12500000000E+03 0.  0.
         25    1    1    2    0    0 -0.13760939807E+03 -0.12172202438E+03 -0.30735340787E+03  0.37926733972E+03  0.12500000000E+03 0.  0.
         25    1    1    2    0    0  0.63715733796E+02  0.19162447208E+03 -0.44295792159E+03  0.50260954362E+03  0.12500000000E+03 0.  0.
</event>
<event>
 5    0  0.5605075E-005  0.2651410E+03  0.7546771E-02  0.1104093E+00
         21   -1    0    0  502  501  0.00000000000E+00  0.00000000000E+00  0.50236478125E+03  0.50236478125E+03  0.00000000000E+00 0. -1.
         21   -1    0    0  501  502 -0.00000000000E+00 -0.00000000000E+00 -0.13993763647E+03  0.13993763647E+03  0.00000000000E+00 0. -1.
         25    1    1    2    0    0 -0.36179259716E+01  0.72839389523E+02  0.55361380608E+02  0.15494692161E+03  0.12500000000E+03 0.  0.
         25    1    1    2    0    0 -0.34160815571E+02 -0.10589443502E+03  0.31037023767E+03  0.35261207739E+03  0.12500000000E+03 0.  0.
         25    1    1    2    0    0  0.37778741543E+02  0.33055045492E+02 -0.33044734988E+01  0.13474341873E+03  0.12500000000E+03 0.  0.
</event>
<event>
 5    0  0.5605075E-005  0.3524199E+03  0.7546771E-02  0.1061626E+00
         21   -1    0    0  502  501  0.00000000000E+00  0.00000000000E+00  0.35488358972E+03  0.35488358972E+03  0.00000000000E+00 0.  1.
         21   -1    0    0  501  502 -0.00000000000E+00 -0.00000000000E+00 -0.34997336823E+03  0.34997336823E+03  0.00000000000E+00 0.  1.
         25    1    1    2    0    0 -0.12231137109E+02  0.94809005493E+02  0.18440108332E+02  0.15844048041E+03  0.12500000000E+03 0.  0.
         25    1    1    2    0    0  0.13632488369E+03 -0.64459760062E+02  0.19183756700E+03  0.27416452486E+03  0.12500000000E+03 0.  0.
         25    1    1    2    0    0 -0.12409374658E+03 -0.30349245432E+02 -0.20536745385E+03  0.27225195268E+03  0.12500000000E+03 0.  0.
</event>
<event>
 5    0  0.5605075E-005  0.3055270E+03  0.7546771E-02  0.1082510E+00
         21   -1    0    0  502  501  0.00000000000E+00  0.00000000000E+00  0.46565552783E+02  0.46565552783E+02  0.00000000000E+00 0.  1.
         21   -1    0    0  501  502 -0.00000000000E+00 -0.00000000000E+00 -0.20046306298E+04  0.20046306298E+04  0.00000000000E+00 0.  1.
         25    1    1    2    0    0 -0.33132461422E+02 -0.20632110577E+02 -0.85933825446E+02  0.15663034937E+03  0.12500000000E+03 0.  0.
         25    1    1    2    0    0  0.76619493749E+02 -0.62175642525E+01 -0.74009114496E+03  0.75449924306E+03  0.12500000000E+03 0.  0.
         25    1    1    2    0    0 -0.43487032327E+02  0.26849674829E+02 -0.11320401066E+04  0.11400665902E+04  0.12500000000E+03 0.  0.
</event>
<event>
 5    0  0.5605075E-005  0.2923597E+03  0.7546771E-02  0.1089124E+00
         21   -1    0    0  502  501  0.00000000000E+00  0.00000000000E+00  0.28334955744E+03  0.28334955744E+03  0.00000000000E+00 0. -1.
         21   -1    0    0  501  502 -0.00000000000E+00 -0.00000000000E+00 -0.30165635617E+03  0.30165635617E+03  0.00000000000E+00 0. -1.
         25    1    1    2    0    0 -0.11443666261E+03  0.21845043394E+02  0.67421678103E+02  0.18369441567E+03  0.12500000000E+03 0.  0.
         25    1    1    2    0    0 -0.17758513518E+02  0.30742016894E+02 -0.15263548323E+03  0.20045704564E+03  0.12500000000E+03 0.  0.
         25    1    1    2    0    0  0.13219517613E+03 -0.52587060288E+02  0.66907006394E+02  0.20085445230E+03  0.12500000000E+03 0.  0.
</event>
<event>
 5    0  0.5605075E-005  0.2881111E+03  0.7546771E-02  0.1091339E+00
         21   -1    0    0  502  501  0.00000000000E+00  0.00000000000E+00  0.13638983108E+03  0.13638983108E+03  0.00000000000E+00 0. -1.
         21   -1    0    0  501  502 -0.00000000000E+00 -0.00000000000E+00 -0.60860859751E+03  0.60860859751E+03  0.00000000000E+00 0. -1.
         25    1    1    2    0    0  0.16672586349E+03  0.58142083470E+02 -0.23037876503E+03  0.31603384440E+03  0.12500000000E+03 0.  0.
         25    1    1    2    0    0  0.83927730558E+01 -0.22160348016E+02 -0.44436075113E+02  0.13476306777E+03  0.12500000000E+03 0.  0.
         25    1    1    2    0    0 -0.17511863654E+03 -0.35981735454E+02 -0.19740392628E+03  0.29420151642E+03  0.12500000000E+03 0.  0.
</event>
<event>
 5    0  0.5605075E-005  0.2748634E+03  0.7546771E-02  0.1098528E+00
         21   -1    0    0  502  501  0.00000000000E+00  0.00000000000E+00  0.51472209883E+02  0.51472209883E+02  0.00000000000E+00 0. -1.
         21   -1    0    0  501  502 -0.00000000000E+00 -0.00000000000E+00 -0.14677796390E+04  0.14677796390E+04  0.00000000000E+00 0. -1.
         25    1    1    2    0    0  0.71376101302E+00 -0.24098707520E+02 -0.16101257521E+03  0.20525912047E+03  0.12500000000E+03 0.  0.
         25    1    1    2    0    0  0.31210898695E+02  0.73884507895E+02 -0.19705739443E+03  0.24675829754E+03  0.12500000000E+03 0.  0.
         25    1    1    2    0    0 -0.31924659708E+02 -0.49785800374E+02 -0.10582374595E+04  0.10672344309E+04  0.12500000000E+03 0.  0.
</event>
<event>
 5    0  0.5605075E-005  0.4747799E+03  0.7546771E-02  0.1020580E+00
         21   -1    0    0  502  501  0.00000000000E+00  0.00000000000E+00  0.45706671362E+03  0.45706671362E+03  0.00000000000E+00 0.  1.
         21   -1    0    0  501  502 -0.00000000000E+00 -0.00000000000E+00 -0.49317949287E+03  0.49317949287E+03  0.00000000000E+00 0.  1.
         25    1    1    2    0    0 -0.21666604158E+03 -0.14160466254E+02  0.26037978254E+03  0.36134100727E+03  0.12500000000E+03 0.  0.
         25    1    1    2    0    0  0.58597887011E+01 -0.15255649119E+03 -0.19006890283E+03  0.27396899086E+03  0.12500000000E+03 0.  0.
         25    1    1    2    0    0  0.21080625288E+03  0.16671695744E+03 -0.10642365895E+03  0.31493620836E+03  0.12500000000E+03 0.  0.
</event>
<event>
 5    0  0.5605075E-005  0.3025303E+03  0.7546771E-02  0.1083983E+00
         21   -1    0    0  502  501  0.00000000000E+00  0.00000000000E+00  0.71839922748E+03  0.71839922748E+03  0.00000000000E+00 0. -1.
         21   -1    0    0  501  502 -0.00000000000E+00 -0.00000000000E+00 -0.12740073978E+03  0.12740073978E+03  0.00000000000E+00 0. -1.
         25    1    1    2    0    0 -0.14972256099E+03  0.15039582184E+02  0.18503861329E+03  0.26927183794E+03  0.12500000000E+03 0.  0.
         25    1    1    2    0    0  0.25278501478E+02 -0.14228781954E+03  0.20785833415E+03  0.28233829585E+03  0.12500000000E+03 0.  0.
         25    1    1    2    0    0  0.12444405951E+03  0.12724823736E+03  0.19810154027E+03  0.29418983347E+03  0.12500000000E+03 0.  0.
</event>
<event>
 5    0  0.5605075E-005  0.2469342E+03  0.7546771E-02  0.1115258E+00
         21   -1    0    0  502  501  0.00000000000E+00  0.00000000000E+00  0.12750604908E+03  0.12750604908E+03  0.00000000000E+00 0. -1.
         21   -1    0    0  501  502 -0.00000000000E+00 -0.00000000000E+00 -0.47822427105E+03  0.47822427105E+03  0.00000000000E+00 0. -1.
         25    1    1    2    0    0 -0.73149345688E+02 -0.75246033370E+02 -0.16453972376E+01  0.16321917671E+03  0.12500000000E+03 0.  0.
         25    1    1    2    0    0  0.27000586507E+02  0.36267450503E+02 -0.16212871294E+03  0.20965466653E+03  0.12500000000E+03 0.  0.
         25    1    1    2    0    0  0.46148759181E+02  0.38978582866E+02 -0.18694411180E+03  0.23285647690E+03  0.12500000000E+03 0.  0.
</event>
<event>
 5    0  0.5605075E-005  0.3492436E+03  0.7546771E-02  0.1062926E+00
         21   -1    0    0  502  501  0.00000000000E+00  0.00000000000E+00  0.35154361624E+03  0.35154361624E+03  0.00000000000E+00 0. -1.
         21   -1    0    0  501  502 -0.00000000000E+00 -0.00000000000E+00 -0.34695863452E+03  0.34695863452E+03  0.00000000000E+00 0. -1.
         25    1    1    2    0    0 -0.24138515224E+03 -0.78947698459E+02 -0.11205811913E+02  0.28328448781E+03  0.12500000000E+03 0.  0.
         25    1    1    2    0    0  0.17560614403E+03  0.10129184269E+03 -0.70265774710E+02  0.24831398332E+03  0.12500000000E+03 0.  0.
         25    1    1    2    0    0  0.65779008207E+02 -0.22344144231E+02  0.86056568346E+02  0.16690377964E+03  0.12500000000E+03 0.  0.
</event>
<event>
 5    0  0.5605075E-005  0.2576102E+03  0.7546771E-02  0.1108588E+00
         21   -1    0    0  502  501  0.00000000000E+00  0.00000000000E+00  0.42190163602E+03  0.42190163602E+03  0.00000000000E+00 0. -1.
         21   -1    0    0  501  502 -0.00000000000E+00 -0.00000000000E+00 -0.15729494005E+03  0.15729494005E+03  0.00000000000E+00 0. -1.
         25    1    1    2    0    0  0.10826461117E+02  0.99913842934E+00  0.23670548075E+03  0.26790426491E+03  0.12500000000E+03 0.  0.
         25    1    1    2    0    0  0.45479574947E+02 -0.62031410400E+02  0.58742042821E+02  0.15808831458E+03  0.12500000000E+03 0.  0.
         25    1    1    2    0    0 -0.56306036064E+02  0.61032271970E+02 -0.30840827598E+02  0.15320399657E+03  0.12500000000E+03 0.  0.
</event>
<event>
 5    0  0.5605075E-005  0.2719219E+03  0.7546771E-02  0.1100185E+00
         21   -1    0    0  502  501  0.00000000000E+00  0.00000000000E+00  0.58256135796E+03  0.58256135796E+03  0.00000000000E+00 0.  1.
         21   -1    0    0  501  502 -0.00000000000E+00 -0.00000000000E+00 -0.12692484988E+03  0.12692484988E+03  0.00000000000E+00 0.  1.
         25    1    1    2    0    0 -0.51573650627E+02 -0.59637627412E+02  0.15656190450E+03  0.21529774264E+03  0.12500000000E+03 0.  0.
         25    1    1    2    0    0  0.42025785215E+01 -0.25325957123E+01  0.32158068317E+03  0.34505537454E+03  0.12500000000E+03 0.  0.
         25    1    1    2    0    0  0.47371072105E+02  0.62170223124E+02 -0.22506079593E+02  0.14913309068E+03  0.12500000000E+03 0.  0.
</event>
<event>
 5    0  0.5605075E-005  0.3678527E+03  0.7546771E-02  0.1055517E+00
         21   -1    0    0  502  501  0.00000000000E+00  0.00000000000E+00  0.55028295446E+03  0.55028295446E+03  0.00000000000E+00 0.  1.
         21   -1    0    0  501  502 -0.00000000000E+00 -0.00000000000E+00 -0.24590186133E+03  0.24590186133E+03  0.00000000000E+00 0.  1.
         25    1    1    2    0    0 -0.21277045415E+03 -0.41681017396E+02  0.21112222598E+03  0.32742352951E+03  0.12500000000E+03 0.  0.
         25    1    1    2    0    0  0.25845581783E+03  0.80342786750E+02 -0.61772078315E+01  0.29819042749E+03  0.12500000000E+03 0.  0.
         25    1    1    2    0    0 -0.45685363675E+02 -0.38661769354E+02  0.99436074976E+02  0.17057085880E+03  0.12500000000E+03 0.  0.
</event>
<event>
 5    0  0.5605075E-005  0.3451907E+03  0.7546771E-02  0.1064606E+00
         21   -1    0    0  502  501  0.00000000000E+00  0.00000000000E+00  0.15805056225E+04  0.15805056225E+04  0.00000000000E+00 0.  1.
         21   -1    0    0  501  502 -0.00000000000E+00 -0.00000000000E+00 -0.75391444318E+02  0.75391444318E+02  0.00000000000E+00 0.  1.
         25    1    1    2    0    0 -0.12970335215E+03  0.36900742412E+02  0.87150133668E+03  0.89068748963E+03  0.12500000000E+03 0.  0.
         25    1    1    2    0    0  0.18803683868E+03  0.79452711236E+01  0.17969546144E+03  0.28868051354E+03  0.12500000000E+03 0.  0.
         25    1    1    2    0    0 -0.58333486531E+02 -0.44846013535E+02  0.45391738007E+03  0.47652906366E+03  0.12500000000E+03 0.  0.
</event>
<event>
 5    0  0.5605075E-005  0.2643053E+03  0.7546771E-02  0.1104584E+00
         21   -1    0    0  502  501  0.00000000000E+00  0.00000000000E+00  0.50035121658E+03  0.50035121658E+03  0.00000000000E+00 0.  1.
         21   -1    0    0  501  502 -0.00000000000E+00 -0.00000000000E+00 -0.13961656400E+03  0.13961656400E+03  0.00000000000E+00 0.  1.
         25    1    1    2    0    0 -0.45810881162E+02 -0.12724525487E+03  0.27914225246E+03  0.33441798521E+03  0.12500000000E+03 0.  0.
         25    1    1    2    0    0  0.48213508326E+02  0.34341638771E+02  0.30585495749E+02  0.14164873133E+03  0.12500000000E+03 0.  0.
         25    1    1    2    0    0 -0.24026271635E+01  0.92903616100E+02  0.51006904367E+02  0.16390106404E+03  0.12500000000E+03 0.  0.
</event>
<event>
 5    0  0.5605075E-005  0.2887674E+03  0.7546771E-02  0.1090994E+00
         21   -1    0    0  502  501  0.00000000000E+00  0.00000000000E+00  0.96419129944E+03  0.96419129944E+03  0.00000000000E+00 0. -1.
         21   -1    0    0  501  502 -0.00000000000E+00 -0.00000000000E+00 -0.86483490915E+02  0.86483490915E+02  0.00000000000E+00 0. -1.
         25    1    1    2    0    0 -0.12745966185E+03 -0.12088608304E+03  0.54318977726E+03  0.58441384702E+03  0.12500000000E+03 0.  0.
         25    1    1    2    0    0  0.94608684252E+02  0.97043686580E+02  0.24755372756E+03  0.30866831433E+03  0.12500000000E+03 0.  0.
         25    1    1    2    0    0  0.32850977599E+02  0.23842396458E+02  0.86964303705E+02  0.15759262901E+03  0.12500000000E+03 0.  0.
</event>
<event>
 5    0  0.6426504E-005  0.6267083E+03  0.7546771E-02  0.9851493E-01
         21   -1    0    0  502  501  0.00000000000E+00  0.00000000000E+00  0.71240885049E+03  0.71240885049E+03  0.00000000000E+00 0.  1.
         21   -1    0    0  501  502 -0.00000000000E+00 -0.00000000000E+00 -0.55131733815E+03  0.55131733815E+03  0.00000000000E+00 0.  1.
         25    1    1    2    0    0  0.25708680882E+03  0.14243706272E+03  0.35755150750E+03  0.47942676669E+03  0.12500000000E+03 0.  0.
         25    1    1    2    0    0  0.14787450882E+03 -0.10601170340E+03 -0.27405410127E+03  0.35190339874E+03  0.12500000000E+03 0.  0.
         25    1    1    2    0    0 -0.40496131765E+03 -0.36425359320E+02  0.77594106116E+02  0.43239602322E+03  0.12500000000E+03 0.  0.
</event>
<event>
 5    0  0.5605075E-005  0.2569966E+03  0.7546771E-02  0.1108961E+00
         21   -1    0    0  502  501  0.00000000000E+00  0.00000000000E+00  0.42094632334E+03  0.42094632334E+03  0.00000000000E+00 0. -1.
         21   -1    0    0  501  502 -0.00000000000E+00 -0.00000000000E+00 -0.15690183143E+03  0.15690183143E+03  0.00000000000E+00 0. -1.
         25    1    1    2    0    0  0.69726687349E+02  0.13055003699E+03  0.10344828138E+03  0.21961709862E+03  0.12500000000E+03 0.  0.
         25    1    1    2    0    0 -0.26877756468E+02 -0.13094435295E+03  0.61533624470E+02  0.19308087503E+03  0.12500000000E+03 0.  0.
         25    1    1    2    0    0 -0.42848930881E+02  0.39431596201E+00  0.99062586061E+02  0.16515018111E+03  0.12500000000E+03 0.  0.
</event>
<event>
 5    0  0.5605075E-005  0.2355963E+03  0.7546771E-02  0.1122762E+00
         21   -1    0    0  502  501  0.00000000000E+00  0.00000000000E+00  0.67768744598E+02  0.67768744598E+02  0.00000000000E+00 0. -1.
         21   -1    0    0  501  502 -0.00000000000E+00 -0.00000000000E+00 -0.81904453229E+03  0.81904453229E+03  0.00000000000E+00 0. -1.
         25    1    1    2    0    0  0.13147209679E+03 -0.26548186888E+02 -0.29150978867E+03  0.34437287256E+03  0.12500000000E+03 0.  0.
         25    1    1    2    0    0 -0.71228302990E+02 -0.93250344876E+01 -0.21709365740E+03  0.26060522538E+03  0.12500000000E+03 0.  0.
         25    1    1    2    0    0 -0.60243793800E+02  0.35873221376E+02 -0.24267234162E+03  0.28183517895E+03  0.12500000000E+03 0.  0.
</event>
<event>
 5    0  0.5605075E-005  0.2946535E+03  0.7546771E-02  0.1087944E+00
         21   -1    0    0  502  501  0.00000000000E+00  0.00000000000E+00  0.26118365966E+03  0.26118365966E+03  0.00000000000E+00 0.  1.
         21   -1    0    0  501  502 -0.00000000000E+00 -0.00000000000E+00 -0.33241240866E+03  0.33241240866E+03  0.00000000000E+00 0.  1.
         25    1    1    2    0    0 -0.92535212949E+02 -0.18374247010E+02  0.64188261516E+02  0.16924984935E+03  0.12500000000E+03 0.  0.
         25    1    1    2    0    0  0.10891629945E+03 -0.25976836770E+02  0.67905314759E+02  0.18103504663E+03  0.12500000000E+03 0.  0.
         25    1    1    2    0    0 -0.16381086504E+02  0.44351083780E+02 -0.20332232528E+03  0.24331117234E+03  0.12500000000E+03 0.  0.
</event>
<event>
 5    0  0.5605075E-005  0.3044582E+03  0.7546771E-02  0.1083033E+00
         21   -1    0    0  502  501  0.00000000000E+00  0.00000000000E+00  0.83659026145E+02  0.83659026145E+02  0.00000000000E+00 0.  1.
         21   -1    0    0  501  502 -0.00000000000E+00 -0.00000000000E+00 -0.11080071608E+04  0.11080071608E+04  0.00000000000E+00 0.  1.
         25    1    1    2    0    0 -0.11791376081E+03  0.31037238549E+01 -0.12259744266E+03  0.21111234222E+03  0.12500000000E+03 0.  0.
         25    1    1    2    0    0  0.83980435392E+02  0.12737289036E+03 -0.39547390845E+03  0.44192892980E+03  0.12500000000E+03 0.  0.
         25    1    1    2    0    0  0.33933325413E+02 -0.13047661421E+03 -0.50627678353E+03  0.53862491492E+03  0.12500000000E+03 0.  0.
</event>
<event>
 5    0  0.5605075E-005  0.3781409E+03  0.7546771E-02  0.1051623E+00
         21   -1    0    0  502  501  0.00000000000E+00  0.00000000000E+00  0.19013553559E+03  0.19013553559E+03  0.00000000000E+00 0. -1.
         21   -1    0    0  501  502 -0.00000000000E+00 -0.00000000000E+00 -0.75204548582E+03  0.75204548582E+03  0.00000000000E+00 0. -1.
         25    1    1    2    0    0 -0.17523811062E+03 -0.21906817773E+03 -0.98467479801E+02  0.32252148221E+03  0.12500000000E+03 0.  0.
         25    1    1    2    0    0  0.44096442893E+02  0.68092214899E+02 -0.29288683850E+03  0.32861641191E+03  0.12500000000E+03 0.  0.
         25    1    1    2    0    0  0.13114166772E+03  0.15097596283E+03 -0.17055563193E+03  0.29104312730E+03  0.12500000000E+03 0.  0.
</event>
<event>
 5    0  0.5605075E-005  0.3040044E+03  0.7546771E-02  0.1083256E+00
         21   -1    0    0  502  501  0.00000000000E+00  0.00000000000E+00  0.22762962500E+03  0.22762962500E+03  0.00000000000E+00 0. -1.
         21   -1    0    0  501  502 -0.00000000000E+00 -0.00000000000E+00 -0.40600461102E+03  0.40600461102E+03  0.00000000000E+00 0. -1.
         25    1    1    2    0    0 -0.15833000554E+03 -0.14218988973E+03 -0.10193577569E+03  0.26702482611E+03  0.12500000000E+03 0.  0.
         25    1    1    2    0    0  0.13496235602E+03  0.12086450112E+03 -0.71384543566E+01  0.22022493661E+03  0.12500000000E+03 0.  0.
         25    1    1    2    0    0  0.23367649521E+02  0.21325388615E+02 -0.69300755974E+02  0.14638447330E+03  0.12500000000E+03 0.  0.
</event>
<event>
 5    0  0.5605075E-005  0.2942209E+03  0.7546771E-02  0.1088166E+00
         21   -1    0    0  502  501  0.00000000000E+00  0.00000000000E+00  0.23830849784E+03  0.23830849784E+03  0.00000000000E+00 0.  1.
         21   -1    0    0  501  502 -0.00000000000E+00 -0.00000000000E+00 -0.36325162490E+03  0.36325162490E+03  0.00000000000E+00 0.  1.
         25    1    1    2    0    0  0.11602922654E+03  0.52433180336E+02 -0.12658143624E+03  0.21876901017E+03  0.12500000000E+03 0.  0.
         25    1    1    2    0    0 -0.82202276379E+02  0.52200845010E+02 -0.10034413843E+03  0.18755289542E+03  0.12500000000E+03 0.  0.
         25    1    1    2    0    0 -0.33826950162E+02 -0.10463402535E+03  0.10198244761E+03  0.19523821716E+03  0.12500000000E+03 0.  0.
</event>
<event>
 5    0  0.5605075E-005  0.2601169E+03  0.7546771E-02  0.1107073E+00
         21   -1    0    0  502  501  0.00000000000E+00  0.00000000000E+00  0.36023058958E+02  0.36023058958E+02  0.00000000000E+00 0.  1.
         21   -1    0    0  501  502 -0.00000000000E+00 -0.00000000000E+00 -0.18782642991E+04  0.18782642991E+04  0.00000000000E+00 0.  1.
         25    1    1    2    0    0 -0.95125534768E+02  0.83945434308E+00 -0.81005835336E+03  0.82514793092E+03  0.12500000000E+03 0.  0.
         25    1    1    2    0    0 -0.52400358072E+02 -0.12396602165E+02 -0.26536109720E+03  0.29822975234E+03  0.12500000000E+03 0.  0.
         25    1    1    2    0    0  0.14752589284E+03  0.11557147822E+02 -0.76682178961E+03  0.79090967483E+03  0.12500000000E+03 0.  0.
</event>
<event>
 5    0  0.5605075E-005  0.2273986E+03  0.7546771E-02  0.1128484E+00
         21   -1    0    0  502  501  0.00000000000E+00  0.00000000000E+00  0.13100338378E+03  0.13100338378E+03  0.00000000000E+00 0. -1.
         21   -1    0    0  501  502 -0.00000000000E+00 -0.00000000000E+00 -0.39472342006E+03  0.39472342006E+03  0.00000000000E+00 0. -1.
         25    1    1    2    0    0 -0.96767830370E+02  0.20845560436E+02 -0.15719503928E+03  0.22390585244E+03  0.12500000000E+03 0.  0.
         25    1    1    2    0    0  0.87969130424E+02 -0.19643377765E+02 -0.36906468558E+02  0.15846614029E+03  0.12500000000E+03 0.  0.
         25    1    1    2    0    0  0.87986999463E+01 -0.12021826709E+01 -0.69618528450E+02  0.14335481111E+03  0.12500000000E+03 0.  0.
</event>
<event>
 5    0  0.5605075E-005  0.2646784E+03  0.7546771E-02  0.1104365E+00
         21   -1    0    0  502  501  0.00000000000E+00  0.00000000000E+00  0.96904579463E+02  0.96904579463E+02  0.00000000000E+00 0.  1.
         21   -1    0    0  501  502 -0.00000000000E+00 -0.00000000000E+00 -0.72292386715E+03  0.72292386715E+03  0.00000000000E+00 0.  1.
         25    1    1    2    0    0  0.54604774147E+01 -0.18658105738E+02 -0.87211039671E+02  0.15365125175E+03  0.12500000000E+03 0.  0.
         25    1    1    2    0    0  0.13032365991E+03 -0.54188846786E+02 -0.31471412639E+03  0.36686600933E+03  0.12500000000E+03 0.  0.
         25    1    1    2    0    0 -0.13578413733E+03  0.72846952524E+02 -0.22409412162E+03  0.29931118553E+03  0.12500000000E+03 0.  0.
</event>
<event>
 5    0  0.5605075E-005  0.3410066E+03  0.7546771E-02  0.1066368E+00
         21   -1    0    0  502  501  0.00000000000E+00  0.00000000000E+00  0.19993027875E+03  0.19993027875E+03  0.00000000000E+00 0. -1.
         21   -1    0    0  501  502 -0.00000000000E+00 -0.00000000000E+00 -0.58163028193E+03  0.58163028193E+03  0.00000000000E+00 0. -1.
         25    1    1    2    0    0 -0.15855824353E+03 -0.13424335852E+03 -0.14535659063E+03  0.28269335743E+03  0.12500000000E+03 0.  0.
         25    1    1    2    0    0  0.11307912563E+03  0.80522405246E+02  0.36753295575E+02  0.19038527027E+03  0.12500000000E+03 0.  0.
         25    1    1    2    0    0  0.45479117898E+02  0.53720953269E+02 -0.27309670813E+03  0.30848193298E+03  0.12500000000E+03 0.  0.
</event>
<event>
 5    0  0.5605075E-005  0.2258937E+03  0.7546771E-02  0.1129564E+00
         21   -1    0    0  502  501  0.00000000000E+00  0.00000000000E+00  0.46914084062E+03  0.46914084062E+03  0.00000000000E+00 0.  1.
         21   -1    0    0  501  502 -0.00000000000E+00 -0.00000000000E+00 -0.10876900758E+03  0.10876900758E+03  0.00000000000E+00 0.  1.
         25    1    1    2    0    0 -0.45632170859E+02  0.72709753097E+02  0.22142368208E+03  0.26836998752E+03  0.12500000000E+03 0.  0.
         25    1    1    2    0    0  0.48220196808E+01 -0.66483112448E+02  0.48146858610E+02  0.14962077432E+03  0.12500000000E+03 0.  0.
         25    1    1    2    0    0  0.40810151178E+02 -0.62266406494E+01  0.90801292347E+02  0.15991908637E+03  0.12500000000E+03 0.  0.
</event>
<event>
 5    0  0.6137613E-005  0.3428921E+03  0.7546771E-02  0.1065571E+00
         21   -1    0    0  502  501  0.00000000000E+00  0.00000000000E+00  0.27273060798E+03  0.27273060798E+03  0.00000000000E+00 0.  1.
         21   -1    0    0  501  502 -0.00000000000E+00 -0.00000000000E+00 -0.43110305811E+03  0.43110305811E+03  0.00000000000E+00 0.  1.
         25    1    1    2    0    0  0.76884459776E+02  0.17762386773E+03 -0.26077674524E+03  0.34798127737E+03  0.12500000000E+03 0.  0.
         25    1    1    2    0    0 -0.25264774207E+02 -0.33105810072E+02  0.85802755877E+02  0.15723045631E+03  0.12500000000E+03 0.  0.
         25    1    1    2    0    0 -0.51619685570E+02 -0.14451805766E+03  0.16601539232E+02  0.19862193240E+03  0.12500000000E+03 0.  0.
</event>
<event>
 5    0  0.5605075E-005  0.2906627E+03  0.7546771E-02  0.1090004E+00
         21   -1    0    0  502  501  0.00000000000E+00  0.00000000000E+00  0.99681442937E+03  0.99681442937E+03  0.00000000000E+00 0.  1.
         21   -1    0    0  501  502 -0.00000000000E+00 -0.00000000000E+00 -0.84754795985E+02  0.84754795985E+02  0.00000000000E+00 0.  1.
         25    1    1    2    0    0 -0.11357300424E+03  0.23277937650E+02  0.19403802367E+03  0.25829526574E+03  0.12500000000E+03 0.  0.
         25    1    1    2    0    0  0.10688217812E+03 -0.14981615346E+03  0.44214922819E+03  0.49496426115E+03  0.12500000000E+03 0.  0.
         25    1    1    2    0    0  0.66908261216E+01  0.12653821581E+03  0.27587238153E+03  0.32830969847E+03  0.12500000000E+03 0.  0.
</event>
<event>
 5    0  0.5605075E-005  0.2335523E+03  0.7546771E-02  0.1124164E+00
         21   -1    0    0  502  501  0.00000000000E+00  0.00000000000E+00  0.88795173774E+03  0.88795173774E+03  0.00000000000E+00 0.  1.
         21   -1    0    0  501  502 -0.00000000000E+00 -0.00000000000E+00 -0.61429759144E+02  0.61429759144E+02  0.00000000000E+00 0.  1.
         25    1    1    2    0    0  0.14361183348E+02  0.38122311935E+01  0.78834276038E+02  0.14852817838E+03  0.12500000000E+03 0.  0.
         25    1    1    2    0    0 -0.63438294827E+02 -0.41700694994E+02  0.41838285788E+03  0.44320715357E+03  0.12500000000E+03 0.  0.
         25    1    1    2    0    0  0.49077111480E+02  0.37888463801E+02  0.32930484468E+03  0.35764616493E+03  0.12500000000E+03 0.  0.
</event>
<event>
 5    0  0.5605075E-005  0.5191731E+03  0.7546771E-02  0.1008892E+00
         21   -1    0    0  502  501  0.00000000000E+00  0.00000000000E+00  0.17195675161E+04  0.17195675161E+04  0.00000000000E+00 0. -1.
         21   -1    0    0  501  502 -0.00000000000E+00 -0.00000000000E+00 -0.15674912523E+03  0.15674912523E+03  0.00000000000E+00 0. -1.
         25    1    1    2    0    0  0.20494894185E+03  0.19683519241E+03  0.11604932865E+04  0.12012983933E+04  0.12500000000E+03 0.  0.
         25    1    1    2    0    0  0.95592086664E+02  0.38006892249E+01  0.90108981803E+02  0.18137508339E+03  0.12500000000E+03 0.  0.
         25    1    1    2    0    0 -0.30054102851E+03 -0.20063588164E+03  0.31221612260E+03  0.49364316467E+03  0.12500000000E+03 0.  0.
</event>
<event>
 5    0  0.5605075E-005  0.3656883E+03  0.7546771E-02  0.1056354E+00
         21   -1    0    0  502  501  0.00000000000E+00  0.00000000000E+00  0.20110728788E+03  0.20110728788E+03  0.00000000000E+00 0.  1.
         21   -1    0    0  501  502 -0.00000000000E+00 -0.00000000000E+00 -0.66495820321E+03  0.66495820321E+03  0.00000000000E+00 0.  1.
         25    1    1    2    0    0  0.24891553877E+02  0.24922224640E+03 -0.38615003477E+03  0.47693622939E+03  0.12500000000E+03 0.  0.
         25    1    1    2    0    0  0.19973086228E+02 -0.14422781406E+03  0.21188361457E+02  0.19306613681E+03  0.12500000000E+03 0.  0.
         25    1    1    2    0    0 -0.44864640105E+02 -0.10499443234E+03 -0.98889242013E+02  0.19606312489E+03  0.12500000000E+03 0.  0.
</event>
<event>
 5    0  0.5605075E-005  0.3043879E+03  0.7546771E-02  0.1083067E+00
         21   -1    0    0  502  501  0.00000000000E+00  0.00000000000E+00  0.50194878894E+03  0.50194878894E+03  0.00000000000E+00 0. -1.
         21   -1    0    0  501  502 -0.00000000000E+00 -0.00000000000E+00 -0.18458453929E+03  0.18458453929E+03  0.00000000000E+00 0. -1.
         25    1    1    2    0    0 -0.13744999452E+03 -0.13570368713E+03  0.14880404497E+03  0.27399933484E+03  0.12500000000E+03 0.  0.
         25    1    1    2    0    0  0.39075246175E+02  0.12633886013E+03  0.19338450536E+01  0.18198110396E+03  0.12500000000E+03 0.  0.
         25    1    1    2    0    0  0.98374748347E+02  0.93648269944E+01  0.16662635964E+03  0.23055288943E+03  0.12500000000E+03 0.  0.
</event>
<event>
 5    0  0.5605075E-005  0.2139090E+03  0.7546771E-02  0.1138507E+00
         21   -1    0    0  502  501  0.00000000000E+00  0.00000000000E+00  0.21563677546E+03  0.21563677546E+03  0.00000000000E+00 0. -1.
         21   -1    0    0  501  502 -0.00000000000E+00 -0.00000000000E+00 -0.21219511110E+03  0.21219511110E+03  0.00000000000E+00 0. -1.
         25    1    1    2    0    0  0.89839196438E+01 -0.53973073317E+02  0.51048701074E+02  0.14568724494E+03  0.12500000000E+03 0.  0.
         25    1    1    2    0    0 -0.42526669701E+02 -0.93021512341E+01 -0.38249254089E+02  0.13777900091E+03  0.12500000000E+03 0.  0.
         25    1    1    2    0    0  0.33542750057E+02  0.63275224551E+02 -0.93577826332E+01  0.14436564072E+03  0.12500000000E+03 0.  0.
</event>
<event>
 5    0  0.7169238E-005  0.3587352E+03  0.7546771E-02  0.1059086E+00
         21   -1    0    0  502  501  0.00000000000E+00  0.00000000000E+00  0.70175578892E+03  0.70175578892E+03  0.00000000000E+00 0. -1.
         21   -1    0    0  501  502 -0.00000000000E+00 -0.00000000000E+00 -0.18338420482E+03  0.18338420482E+03  0.00000000000E+00 0. -1.
         25    1    1    2    0    0 -0.19407611400E+03  0.10086164939E+03  0.95710242691E+02  0.26948851720E+03  0.12500000000E+03 0.  0.
         25    1    1    2    0    0  0.98861070852E+02  0.53217486178E+02  0.34239655995E+03  0.38140007398E+03  0.12500000000E+03 0.  0.
         25    1    1    2    0    0  0.95215043150E+02 -0.15407913557E+03  0.80264781468E+02  0.23425140257E+03  0.12500000000E+03 0.  0.
</event>
<event>
 5    0  0.5605075E-005  0.2859735E+03  0.7546771E-02  0.1092470E+00
         21   -1    0    0  502  501  0.00000000000E+00  0.00000000000E+00  0.31263882630E+03  0.31263882630E+03  0.00000000000E+00 0. -1.
         21   -1    0    0  501  502 -0.00000000000E+00 -0.00000000000E+00 -0.26158245533E+03  0.26158245533E+03  0.00000000000E+00 0. -1.
         25    1    1    2    0    0 -0.21616563298E+02  0.31519786586E+02  0.15210608275E+03  0.20055431475E+03  0.12500000000E+03 0.  0.
         25    1    1    2    0    0  0.12674682084E+03  0.29469662458E+02 -0.20461995146E+02  0.18159545931E+03  0.12500000000E+03 0.  0.
         25    1    1    2    0    0 -0.10513025754E+03 -0.60989449044E+02 -0.80587716630E+02  0.19207150756E+03  0.12500000000E+03 0.  0.
</event>
<event>
 5    0  0.5605075E-005  0.2880019E+03  0.7546771E-02  0.1091397E+00
         21   -1    0    0  502  501  0.00000000000E+00  0.00000000000E+00  0.53794228640E+02  0.53794228640E+02  0.00000000000E+00 0. -1.
         21   -1    0    0  501  502 -0.00000000000E+00 -0.00000000000E+00 -0.15418956902E+04  0.15418956902E+04  0.00000000000E+00 0. -1.
         25    1    1    2    0    0  0.12213641494E+03 -0.12544660579E+02 -0.52221027068E+03  0.55082051447E+03  0.12500000000E+03 0.  0.
         25    1    1    2    0    0  0.57662671603E+02 -0.67796919837E+02 -0.26544508502E+03  0.30660642394E+03  0.12500000000E+03 0.  0.
         25    1    1    2    0    0 -0.17979908654E+03  0.80341580416E+02 -0.70044610590E+03  0.73826298047E+03  0.12500000000E+03 0.  0.
</event>
<event>
 5    0  0.5605075E-005  0.3101804E+03  0.7546771E-02  0.1080259E+00
         21   -1    0    0  502  501  0.00000000000E+00  0.00000000000E+00  0.30295110984E+03  0.30295110984E+03  0.00000000000E+00 0. -1.
         21   -1    0    0  501  502 -0.00000000000E+00 -0.00000000000E+00 -0.31758227756E+03  0.31758227756E+03  0.00000000000E+00 0. -1.
         25    1    1    2    0    0  0.66981876072E+02  0.14286720125E+03  0.13600518514E+03  0.24294036162E+03  0.12500000000E+03 0.  0.
         25    1    1    2    0    0  0.19014971235E+02  0.13776714644E+02 -0.69303708598E+02  0.14484257324E+03  0.12500000000E+03 0.  0.
         25    1    1    2    0    0 -0.85996847307E+02 -0.15664391590E+03 -0.81332644263E+02  0.23275045254E+03  0.12500000000E+03 0.  0.
</event>
<event>
 5    0  0.5605075E-005  0.3013132E+03  0.7546771E-02  0.1084586E+00
         21   -1    0    0  502  501  0.00000000000E+00  0.00000000000E+00  0.34290891437E+03  0.34290891437E+03  0.00000000000E+00 0. -1.
         21   -1    0    0  501  502 -0.00000000000E+00 -0.00000000000E+00 -0.26476307483E+03  0.26476307483E+03  0.00000000000E+00 0. -1.
         25    1    1    2    0    0 -0.11163681446E+03  0.57021530342E+02  0.67847492694E+02  0.18958511421E+03  0.12500000000E+03 0.  0.
         25    1    1    2    0    0 -0.75823846293E+02 -0.96798375880E+02  0.57388404898E+02  0.18449284608E+03  0.12500000000E+03 0.  0.
         25    1    1    2    0    0  0.18746066076E+03  0.39776845538E+02 -0.47090058061E+02  0.23359402890E+03  0.12500000000E+03 0.  0.
</event>
<event>
 5    0  0.6223707E-005  0.3868509E+03  0.7546771E-02  0.1048430E+00
         21   -1    0    0  502  501  0.00000000000E+00  0.00000000000E+00  0.61270781625E+03  0.61270781625E+03  0.00000000000E+00 0.  1.
         21   -1    0    0  501  502 -0.00000000000E+00 -0.00000000000E+00 -0.24424962120E+03  0.24424962120E+03  0.00000000000E+00 0.  1.
         25    1    1    2    0    0  0.50721405138E+02  0.21468663576E+03  0.24544759570E+03  0.35289167566E+03  0.12500000000E+03 0.  0.
         25    1    1    2    0    0  0.14202670624E+02 -0.14366453979E+03  0.24070236048E+03  0.30725208247E+03  0.12500000000E+03 0.  0.
         25    1    1    2    0    0 -0.64924075761E+02 -0.71022095978E+02 -0.11769176113E+03  0.19681367932E+03  0.12500000000E+03 0.  0.
</event>
<event>
 5    0  0.5605075E-005  0.4650418E+03  0.7546771E-02  0.1023329E+00
         21   -1    0    0  502  501  0.00000000000E+00  0.00000000000E+00  0.51445278586E+03  0.51445278586E+03  0.00000000000E+00 0.  1.
         21   -1    0    0  501  502 -0.00000000000E+00 -0.00000000000E+00 -0.42037653482E+03  0.42037653482E+03  0.00000000000E+00 0.  1.
         25    1    1    2    0    0 -0.85688350011E+02 -0.12327144976E+03  0.75582057041E+02  0.20946596621E+03  0.12500000000E+03 0.  0.
         25    1    1    2    0    0 -0.77946743500E+02  0.25695466667E+03  0.25024795626E+03  0.38775048054E+03  0.12500000000E+03 0.  0.
         25    1    1    2    0    0  0.16363509351E+03 -0.13368321691E+03 -0.23175376227E+03  0.33761287392E+03  0.12500000000E+03 0.  0.
</event>
<event>
 5    0  0.5605075E-005  0.3130234E+03  0.7546771E-02  0.1078906E+00
         21   -1    0    0  502  501  0.00000000000E+00  0.00000000000E+00  0.23680365451E+03  0.23680365451E+03  0.00000000000E+00 0. -1.
         21   -1    0    0  501  502 -0.00000000000E+00 -0.00000000000E+00 -0.41377596052E+03  0.41377596052E+03  0.00000000000E+00 0. -1.
         25    1    1    2    0    0 -0.68720779378E+02 -0.92106156767E+02  0.11327291352E+03  0.20411232832E+03  0.12500000000E+03 0.  0.
         25    1    1    2    0    0 -0.92862919809E+01 -0.24621862797E+01 -0.22883900258E+03  0.26093023336E+03  0.12500000000E+03 0.  0.
         25    1    1    2    0    0  0.78007071359E+02  0.94568343047E+02 -0.61406216948E+02  0.18553705336E+03  0.12500000000E+03 0.  0.
</event>
<event>
 5    0  0.5605075E-005  0.4176680E+03  0.7546771E-02  0.1037828E+00
         21   -1    0    0  502  501  0.00000000000E+00  0.00000000000E+00  0.12080808383E+03  0.12080808383E+03  0.00000000000E+00 0. -1.
         21   -1    0    0  501  502 -0.00000000000E+00 -0.00000000000E+00 -0.14439975258E+04  0.14439975258E+04  0.00000000000E+00 0. -1.
         25    1    1    2    0    0  0.14021080061E+03 -0.21263145677E+03 -0.56923540294E+03  0.63602291545E+03  0.12500000000E+03 0.  0.
         25    1    1    2    0    0 -0.10946001882E+03  0.32611026280E+03 -0.56838964906E+03  0.67603342549E+03  0.12500000000E+03 0.  0.
         25    1    1    2    0    0 -0.30750781790E+02 -0.11347880603E+03 -0.18556438997E+03  0.25274926869E+03  0.12500000000E+03 0.  0.
</event>
<event>
 5    0  0.5605075E-005  0.3001584E+03  0.7546771E-02  0.1085161E+00
         21   -1    0    0  502  501  0.00000000000E+00  0.00000000000E+00  0.26326843452E+03  0.26326843452E+03  0.00000000000E+00 0. -1.
         21   -1    0    0  501  502 -0.00000000000E+00 -0.00000000000E+00 -0.34221751082E+03  0.34221751082E+03  0.00000000000E+00 0. -1.
         25    1    1    2    0    0 -0.14700080013E+03  0.76605838938E+02  0.10905127358E+03  0.23450985068E+03  0.12500000000E+03 0.  0.
         25    1    1    2    0    0  0.69451440068E+02  0.59738631200E+01 -0.12774804546E+03  0.19184304180E+03  0.12500000000E+03 0.  0.
         25    1    1    2    0    0  0.77549360057E+02 -0.82579702058E+02 -0.60252304415E+02  0.17913305285E+03  0.12500000000E+03 0.  0.
</event>
<event>
 5    0  0.5605075E-005  0.2208704E+03  0.7546771E-02  0.1133236E+00
         21   -1    0    0  502  501  0.00000000000E+00  0.00000000000E+00  0.60586866717E+03  0.60586866717E+03  0.00000000000E+00 0.  1.
         21   -1    0    0  501  502 -0.00000000000E+00 -0.00000000000E+00 -0.80518673016E+02  0.80518673016E+02  0.00000000000E+00 0.  1.
         25    1    1    2    0    0  0.91219453814E+02  0.35737546383E+02  0.26356729771E+03  0.30771883497E+03  0.12500000000E+03 0.  0.
         25    1    1    2    0    0 -0.49781949858E+02 -0.44207763072E+02  0.13773090018E+03  0.19755346039E+03  0.12500000000E+03 0.  0.
         25    1    1    2    0    0 -0.41437503956E+02  0.84702166891E+01  0.12405179627E+03  0.18111504482E+03  0.12500000000E+03 0.  0.
</event>
<event>
 5    0  0.5605075E-005  0.2497046E+03  0.7546771E-02  0.1113492E+00
         21   -1    0    0  502  501  0.00000000000E+00  0.00000000000E+00  0.17244451347E+04  0.17244451347E+04  0.00000000000E+00 0.  1.
         21   -1    0    0  501  502 -0.00000000000E+00 -0.00000000000E+00 -0.36157927989E+02  0.36157927989E+02  0.00000000000E+00 0.  1.
         25    1    1    2    0    0 -0.54958110121E+02 -0.33745578160E+02  0.58057286578E+03  0.59736840425E+03  0.12500000000E+03 0.  0.
         25    1    1    2    0    0  0.36341764752E+02  0.80005617004E+02  0.23567913663E+03  0.28087591221E+03  0.12500000000E+03 0.  0.
         25    1    1    2    0    0  0.18616345369E+02 -0.46260038843E+02  0.87203520430E+03  0.88235874623E+03  0.12500000000E+03 0.  0.
</event>
<event>
 5    0  0.5605075E-005  0.3754769E+03  0.7546771E-02  0.1052618E+00
         21   -1    0    0  502  501  0.00000000000E+00  0.00000000000E+00  0.10668061354E+03  0.10668061354E+03  0.00000000000E+00 0.  1.
         21   -1    0    0  501  502 -0.00000000000E+00 -0.00000000000E+00 -0.13215419994E+04  0.13215419994E+04  0.00000000000E+00 0.  1.
         25    1    1    2    0    0  0.14439859316E+03 -0.11155113346E+03 -0.12344506360E+03  0.25329487324E+03  0.12500000000E+03 0.  0.
         25    1    1    2    0    0  0.37268437170E+02  0.51392863089E+01 -0.13549596922E+03  0.18814756535E+03  0.12500000000E+03 0.  0.
         25    1    1    2    0    0 -0.18166703033E+03  0.10641184715E+03 -0.95592035306E+03  0.98678017437E+03  0.12500000000E+03 0.  0.
</event>
<event>
 5    0  0.5605075E-005  0.4811574E+03  0.7546771E-02  0.1018818E+00
         21   -1    0    0  502  501  0.00000000000E+00  0.00000000000E+00  0.13919628522E+03  0.13919628522E+03  0.00000000000E+00 0.  1.
         21   -1    0    0  501  502 -0.00000000000E+00 -0.00000000000E+00 -0.16632084678E+04  0.16632084678E+04  0.00000000000E+00 0.  1.
         25    1    1    2    0    0 -0.12980808014E+03  0.17973629725E+03 -0.41271233934E+02  0.25784411758E+03  0.12500000000E+03 0.  0.
         25    1    1    2    0    0  0.12044254080E+03 -0.22989660940E+03 -0.11486086453E+04  0.11841814374E+04  0.12500000000E+03 0.  0.
         25    1    1    2    0    0  0.93655393432E+01  0.50160312149E+02 -0.33413230331E+03  0.36037919801E+03  0.12500000000E+03 0.  0.
</event>
<event>
 5    0  0.6029810E-005  0.2912146E+03  0.7546771E-02  0.1089717E+00
         21   -1    0    0  502  501  0.00000000000E+00  0.00000000000E+00  0.98213358394E+02  0.98213358394E+02  0.00000000000E+00 0. -1.
         21   -1    0    0  501  502 -0.00000000000E+00 -0.00000000000E+00 -0.86348687502E+03  0.86348687502E+03  0.00000000000E+00 0. -1.
         25    1    1    2    0    0 -0.12318651587E+03 -0.38009977343E+02 -0.26691077272E+03  0.32169245665E+03  0.12500000000E+03 0.  0.
         25    1    1    2    0    0  0.34988943740E+02 -0.10819798070E+03 -0.12266562907E+03  0.20881304022E+03  0.12500000000E+03 0.  0.
         25    1    1    2    0    0  0.88197572134E+02  0.14620795804E+03 -0.37569711483E+03  0.43119473654E+03  0.12500000000E+03 0.  0.
</event>
<event>
 5    0  0.5605075E-005  0.2889739E+03  0.7546771E-02  0.1090886E+00
         21   -1    0    0  502  501  0.00000000000E+00  0.00000000000E+00  0.39647565932E+03  0.39647565932E+03  0.00000000000E+00 0.  1.
         21   -1    0    0  501  502 -0.00000000000E+00 -0.00000000000E+00 -0.21062060093E+03  0.21062060093E+03  0.00000000000E+00 0.  1.
         25    1    1    2    0    0  0.19338793097E+02 -0.53172274827E+02  0.23429336074E+02  0.13919487605E+03  0.12500000000E+03 0.  0.
         25    1    1    2    0    0 -0.13973015761E+03  0.38451644646E+02 -0.45446592492E+02  0.19670647852E+03  0.12500000000E+03 0.  0.
         25    1    1    2    0    0  0.12039136451E+03  0.14720630181E+02  0.20787231481E+03  0.27119490568E+03  0.12500000000E+03 0.  0.
</event>
<event>
 5    0  0.5605075E-005  0.4286807E+03  0.7546771E-02  0.1034278E+00
         21   -1    0    0  502  501  0.00000000000E+00  0.00000000000E+00  0.75658202305E+02  0.75658202305E+02  0.00000000000E+00 0. -1.
         21   -1    0    0  501  502 -0.00000000000E+00 -0.00000000000E+00 -0.24289118482E+04  0.24289118482E+04  0.00000000000E+00 0. -1.
         25    1    1    2    0    0  0.94377296775E+02 -0.12196585178E+02 -0.49262277181E+02  0.16464386654E+03  0.12500000000E+03 0.  0.
         25    1    1    2    0    0 -0.11719325449E+03 -0.11339919431E+03 -0.82586240029E+03  0.85103897701E+03  0.12500000000E+03 0.  0.
         25    1    1    2    0    0  0.22815957713E+02  0.12559577949E+03 -0.14781289684E+04  0.14888872069E+04  0.12500000000E+03 0.  0.
</event>
<event>
 5    0  0.5605075E-005  0.4477586E+03  0.7546771E-02  0.1028393E+00
         21   -1    0    0  502  501  0.00000000000E+00  0.00000000000E+00  0.39615337025E+03  0.39615337025E+03  0.00000000000E+00 0.  1.
         21   -1    0    0  501  502 -0.00000000000E+00 -0.00000000000E+00 -0.50608631433E+03  0.50608631433E+03  0.00000000000E+00 0.  1.
         25    1    1    2    0    0 -0.21451387842E+03  0.19269476509E+02  0.14890316653E+02  0.24946791034E+03  0.12500000000E+03 0.  0.
         25    1    1    2    0    0  0.19122094394E+03 -0.72747128044E+02  0.19204114905E+03  0.30718463010E+03  0.12500000000E+03 0.  0.
         25    1    1    2    0    0  0.23292934485E+02  0.53477651535E+02 -0.31686440978E+03  0.34558714414E+03  0.12500000000E+03 0.  0.
</event>
<event>
 5    0  0.5605075E-005  0.2779120E+03  0.7546771E-02  0.1096835E+00
         21   -1    0    0  502  501  0.00000000000E+00  0.00000000000E+00  0.48084612449E+03  0.48084612449E+03  0.00000000000E+00 0.  1.
         21   -1    0    0  501  502 -0.00000000000E+00 -0.00000000000E+00 -0.16062323424E+03  0.16062323424E+03  0.00000000000E+00 0.  1.
         25    1    1    2    0    0  0.42563951282E+02  0.14909990707E+03  0.15266329381E+03  0.25094531976E+03  0.12500000000E+03 0.  0.
         25    1    1    2    0    0  0.65239946864E+02 -0.19312263181E+02  0.77441879155E+02  0.16202301942E+03  0.12500000000E+03 0.  0.
         25    1    1    2    0    0 -0.10780389815E+03 -0.12978764389E+03  0.90117717294E+02  0.22850101954E+03  0.12500000000E+03 0.  0.
</event>
<event>
 5    0  0.5605075E-005  0.2223587E+03  0.7546771E-02  0.1132137E+00
         21   -1    0    0  502  501  0.00000000000E+00  0.00000000000E+00  0.55372701424E+02  0.55372701424E+02  0.00000000000E+00 0.  1.
         21   -1    0    0  501  502 -0.00000000000E+00 -0.00000000000E+00 -0.89291984650E+03  0.89291984650E+03  0.00000000000E+00 0.  1.
         25    1    1    2    0    0  0.36163139539E+02  0.24288015974E+02 -0.15465400603E+03  0.20356950155E+03  0.12500000000E+03 0.  0.
         25    1    1    2    0    0 -0.91842826749E+02 -0.27812349355E+01 -0.41676411542E+03  0.44470233640E+03  0.12500000000E+03 0.  0.
         25    1    1    2    0    0  0.55679687211E+02 -0.21506781038E+02 -0.26612902363E+03  0.30002070998E+03  0.12500000000E+03 0.  0.
</event>
<event>
 5    0  0.5605075E-005  0.4950389E+03  0.7546771E-02  0.1015082E+00
         21   -1    0    0  502  501  0.00000000000E+00  0.00000000000E+00  0.18334102396E+03  0.18334102396E+03  0.00000000000E+00 0.  1.
         21   -1    0    0  501  502 -0.00000000000E+00 -0.00000000000E+00 -0.13366540632E+04  0.13366540632E+04  0.00000000000E+00 0.  1.
         25    1    1    2    0    0 -0.36755913539E+03 -0.10531538655E+03 -0.36850986822E+03  0.54554153978E+03  0.12500000000E+03 0.  0.
         25    1    1    2    0    0  0.27199389399E+03 -0.10296750886E+03 -0.42541637059E+03  0.53027075595E+03  0.12500000000E+03 0.  0.
         25    1    1    2    0    0  0.95565241404E+02  0.20828289541E+03 -0.35938680045E+03  0.44418279146E+03  0.12500000000E+03 0.  0.
</event>
<event>
 5    0  0.5605075E-005  0.2633717E+03  0.7546771E-02  0.1105134E+00
         21   -1    0    0  502  501  0.00000000000E+00  0.00000000000E+00  0.46039260116E+02  0.46039260116E+02  0.00000000000E+00 0.  1.
         21   -1    0    0  501  502 -0.00000000000E+00 -0.00000000000E+00 -0.15066409325E+04  0.15066409325E+04  0.00000000000E+00 0.  1.
         25    1    1    2    0    0 -0.81128534025E+02 -0.61027725127E+02 -0.71055672918E+03  0.72857538227E+03  0.12500000000E+03 0.  0.
         25    1    1    2    0    0  0.13350630720E+03  0.88437835192E+02 -0.44245226857E+03  0.48686157654E+03  0.12500000000E+03 0.  0.
         25    1    1    2    0    0 -0.52377773170E+02 -0.27410110065E+02 -0.30759267465E+03  0.33724323382E+03  0.12500000000E+03 0.  0.
</event>
<event>
 5    0  0.5605075E-005  0.2904392E+03  0.7546771E-02  0.1090120E+00
         21   -1    0    0  502  501  0.00000000000E+00  0.00000000000E+00  0.46081044199E+03  0.46081044199E+03  0.00000000000E+00 0. -1.
         21   -1    0    0  501  502 -0.00000000000E+00 -0.00000000000E+00 -0.18305781225E+03  0.18305781225E+03  0.00000000000E+00 0. -1.
         25    1    1    2    0    0  0.23791016660E+02  0.85599193823E+02 -0.80350948700E+02  0.17313148014E+03  0.12500000000E+03 0.  0.
         25    1    1    2    0    0  0.61046040511E+02 -0.20381388430E+02  0.17701039319E+03  0.22605242612E+03  0.12500000000E+03 0.  0.
         25    1    1    2    0    0 -0.84837057171E+02 -0.65217805392E+02  0.18109318525E+03  0.24468434799E+03  0.12500000000E+03 0.  0.
</event>
<event>
 5    0  0.5605075E-005  0.3608762E+03  0.7546771E-02  0.1058237E+00
         21   -1    0    0  502  501  0.00000000000E+00  0.00000000000E+00  0.35597395095E+03  0.35597395095E+03  0.00000000000E+00 0. -1.
         21   -1    0    0  501  502 -0.00000000000E+00 -0.00000000000E+00 -0.36584604421E+03  0.36584604421E+03  0.00000000000E+00 0. -1.
         25    1    1    2    0    0  0.22694156715E+02 -0.71091565870E+02  0.53764518113E+02  0.15519232872E+03  0.12500000000E+03 0.  0.
         25    1    1    2    0    0 -0.15442483835E+03  0.20450359320E+03 -0.15375820394E+03  0.32393724024E+03  0.12500000000E+03 0.  0.
         25    1    1    2    0    0  0.13173068164E+03 -0.13341202733E+03  0.90121592567E+02  0.24269042620E+03  0.12500000000E+03 0.  0.
</event>
<event>
 5    0  0.5605075E-005  0.4574313E+03  0.7546771E-02  0.1025529E+00
         21   -1    0    0  502  501  0.00000000000E+00  0.00000000000E+00  0.10432717738E+04  0.10432717738E+04  0.00000000000E+00 0. -1.
         21   -1    0    0  501  502 -0.00000000000E+00 -0.00000000000E+00 -0.20056459327E+03  0.20056459327E+03  0.00000000000E+00 0. -1.
         25    1    1    2    0    0 -0.95742710705E+02  0.59551096264E+01  0.58331485746E+03  0.60422127811E+03  0.12500000000E+03 0.  0.
         25    1    1    2    0    0 -0.45952295092E+02  0.23688485272E+03  0.79277006997E+02  0.28308283366E+03  0.12500000000E+03 0.  0.
         25    1    1    2    0    0  0.14169500580E+03 -0.24283996235E+03  0.18011531606E+03  0.35653225528E+03  0.12500000000E+03 0.  0.
</event>
<event>
 5    0  0.5605075E-005  0.3089612E+03  0.7546771E-02  0.1080845E+00
         21   -1    0    0  502  501  0.00000000000E+00  0.00000000000E+00  0.12573598084E+03  0.12573598084E+03  0.00000000000E+00 0.  1.
         21   -1    0    0  501  502 -0.00000000000E+00 -0.00000000000E+00 -0.75918644568E+03  0.75918644568E+03  0.00000000000E+00 0.  1.
         25    1    1    2    0    0 -0.61429158850E+02 -0.19358102612E+03 -0.20937352554E+03  0.31734748845E+03  0.12500000000E+03 0.  0.
         25    1    1    2    0    0  0.96518227668E+02  0.21022955984E+02 -0.20894991616E+03  0.26275996730E+03  0.12500000000E+03 0.  0.
         25    1    1    2    0    0 -0.35089068819E+02  0.17255807014E+03 -0.21512702314E+03  0.30481497077E+03  0.12500000000E+03 0.  0.
</event>
<event>
 5    0  0.5735510E-005  0.2961837E+03  0.7546771E-02  0.1087164E+00
         21   -1    0    0  502  501  0.00000000000E+00  0.00000000000E+00  0.18672138896E+03  0.18672138896E+03  0.00000000000E+00 0. -1.
         21   -1    0    0  501  502 -0.00000000000E+00 -0.00000000000E+00 -0.46981646823E+03  0.46981646823E+03  0.00000000000E+00 0. -1.
         25    1    1    2    0    0 -0.42403236680E+02 -0.10879027122E+03 -0.11111345540E+03  0.20397195289E+03  0.12500000000E+03 0.  0.
         25    1    1    2    0    0 -0.13187814718E+03  0.37247838394E+02 -0.11891796154E+03  0.22033095276E+03  0.12500000000E+03 0.  0.
         25    1    1    2    0    0  0.17428138386E+03  0.71542432825E+02 -0.53063662324E+02  0.23223495153E+03  0.12500000000E+03 0.  0.
</event>
<event>
 5    0  0.5605075E-005  0.2993693E+03  0.7546771E-02  0.1085556E+00
         21   -1    0    0  502  501  0.00000000000E+00  0.00000000000E+00  0.27186642875E+03  0.27186642875E+03  0.00000000000E+00 0. -1.
         21   -1    0    0  501  502 -0.00000000000E+00 -0.00000000000E+00 -0.32965444315E+03  0.32965444315E+03  0.00000000000E+00 0. -1.
         25    1    1    2    0    0 -0.24048561473E+02  0.16442281985E+03 -0.40478019945E+02  0.21184113646E+03  0.12500000000E+03 0.  0.
         25    1    1    2    0    0  0.11412356890E+03 -0.72922159261E+02 -0.78504026703E+02  0.20032401878E+03  0.12500000000E+03 0.  0.
         25    1    1    2    0    0 -0.90075007432E+02 -0.91500660589E+02  0.61194032246E+02  0.18935571667E+03  0.12500000000E+03 0.  0.
</event>
<event>
 5    0  0.5605075E-005  0.2353389E+03  0.7546771E-02  0.1122937E+00
         21   -1    0    0  502  501  0.00000000000E+00  0.00000000000E+00  0.83899436895E+02  0.83899436895E+02  0.00000000000E+00 0.  1.
         21   -1    0    0  501  502 -0.00000000000E+00 -0.00000000000E+00 -0.66012808280E+03  0.66012808280E+03  0.00000000000E+00 0.  1.
         25    1    1    2    0    0  0.10046233819E+02 -0.17501918881E+00 -0.36914974547E+03  0.38986855737E+03  0.12500000000E+03 0.  0.
         25    1    1    2    0    0 -0.56162232249E+02  0.37899530713E+02 -0.14273443403E+03  0.20146634810E+03  0.12500000000E+03 0.  0.
         25    1    1    2    0    0  0.46115998430E+02 -0.37724511524E+02 -0.64344466401E+02  0.15269261422E+03  0.12500000000E+03 0.  0.
</event>
<event>
 5    0  0.5728033E-005  0.2939719E+03  0.7546771E-02  0.1088293E+00
         21   -1    0    0  502  501  0.00000000000E+00  0.00000000000E+00  0.40831552148E+03  0.40831552148E+03  0.00000000000E+00 0. -1.
         21   -1    0    0  501  502 -0.00000000000E+00 -0.00000000000E+00 -0.21164870990E+03  0.21164870990E+03  0.00000000000E+00 0. -1.
         25    1    1    2    0    0  0.95108425618E+02  0.14492799870E+02 -0.29003264803E+01  0.15776268813E+03  0.12500000000E+03 0.  0.
         25    1    1    2    0    0 -0.16348999748E+03  0.10117359390E+03  0.78694712828E+02  0.24245191937E+03  0.12500000000E+03 0.  0.
         25    1    1    2    0    0  0.68381571863E+02 -0.11566639377E+03  0.12087242523E+03  0.21974962389E+03  0.12500000000E+03 0.  0.
</event>
<event>
 5    0  0.5605075E-005  0.3994952E+03  0.7546771E-02  0.1043955E+00
         21   -1    0    0  502  501  0.00000000000E+00  0.00000000000E+00  0.60452424608E+03  0.60452424608E+03  0.00000000000E+00 0.  1.
         21   -1    0    0  501  502 -0.00000000000E+00 -0.00000000000E+00 -0.26400335496E+03  0.26400335496E+03  0.00000000000E+00 0.  1.
         25    1    1    2    0    0 -0.13122364791E+03  0.14947677864E+03  0.32688614976E+03  0.40254503851E+03  0.12500000000E+03 0.  0.
         25    1    1    2    0    0 -0.98946884234E+02 -0.51867861009E+02 -0.58057239642E+02  0.17741590678E+03  0.12500000000E+03 0.  0.
         25    1    1    2    0    0  0.23017053214E+03 -0.97608917635E+02  0.71691980994E+02  0.28856665574E+03  0.12500000000E+03 0.  0.
</event>
<event>
 5    0  0.5618062E-005  0.3133046E+03  0.7546771E-02  0.1078773E+00
         21   -1    0    0  502  501  0.00000000000E+00  0.00000000000E+00  0.63662349383E+03  0.63662349383E+03  0.00000000000E+00 0. -1.
         21   -1    0    0  501  502 -0.00000000000E+00 -0.00000000000E+00 -0.15418806089E+03  0.15418806089E+03  0.00000000000E+00 0. -1.
         25    1    1    2    0    0  0.90745861384E+01 -0.47796636854E+02  0.38182633392E+03  0.40470139101E+03  0.12500000000E+03 0.  0.
         25    1    1    2    0    0  0.54463237277E+02 -0.62409580710E+02 -0.44249205806E+02  0.15634638529E+03  0.12500000000E+03 0.  0.
         25    1    1    2    0    0 -0.63537823416E+02  0.11020621756E+03  0.14485830483E+03  0.22976377842E+03  0.12500000000E+03 0.  0.
</event>
<event>
 5    0  0.5605075E-005  0.2527320E+03  0.7546771E-02  0.1111590E+00
         21   -1    0    0  502  501  0.00000000000E+00  0.00000000000E+00  0.82543159928E+02  0.82543159928E+02  0.00000000000E+00 0. -1.
         21   -1    0    0  501  502 -0.00000000000E+00 -0.00000000000E+00 -0.77381901710E+03  0.77381901710E+03  0.00000000000E+00 0. -1.
         25    1    1    2    0    0 -0.92248908230E+02 -0.69029460910E+02 -0.25834764434E+03  0.30926272469E+03  0.12500000000E+03 0.  0.
         25    1    1    2    0    0  0.11827672712E+03  0.23855975000E+02 -0.13563508598E+03  0.22040954668E+03  0.12500000000E+03 0.  0.
         25    1    1    2    0    0 -0.26027818888E+02  0.45173485910E+02 -0.29729312685E+03  0.32668990566E+03  0.12500000000E+03 0.  0.
</event>
<event>
 5    0  0.5605075E-005  0.4461626E+03  0.7546771E-02  0.1028873E+00
         21   -1    0    0  502  501  0.00000000000E+00  0.00000000000E+00  0.92210864072E+02  0.92210864072E+02  0.00000000000E+00 0. -1.
         21   -1    0    0  501  502 -0.00000000000E+00 -0.00000000000E+00 -0.21587594242E+04  0.21587594242E+04  0.00000000000E+00 0. -1.
         25    1    1    2    0    0 -0.13969944835E+03  0.39526723502E+02 -0.11228945069E+04  0.11391204376E+04  0.12500000000E+03 0.  0.
         25    1    1    2    0    0  0.23387916662E+03  0.49857733666E+02 -0.88042471787E+03  0.92084631835E+03  0.12500000000E+03 0.  0.
         25    1    1    2    0    0 -0.94179718271E+02 -0.89384457168E+02 -0.63229335392E+02  0.19100353235E+03  0.12500000000E+03 0.  0.
</event>
<event>
 5    0  0.5605075E-005  0.3179457E+03  0.7546771E-02  0.1076599E+00
         21   -1    0    0  502  501  0.00000000000E+00  0.00000000000E+00  0.27627993555E+03  0.27627993555E+03  0.00000000000E+00 0. -1.
         21   -1    0    0  501  502 -0.00000000000E+00 -0.00000000000E+00 -0.36589508871E+03  0.36589508871E+03  0.00000000000E+00 0. -1.
         25    1    1    2    0    0  0.13241065478E+03 -0.83926443799E+02  0.32741618621E+02  0.20315817251E+03  0.12500000000E+03 0.  0.
         25    1    1    2    0    0 -0.21296297424E+02  0.27144148223E+02 -0.20613619631E+03  0.24353124748E+03  0.12500000000E+03 0.  0.
         25    1    1    2    0    0 -0.11111435736E+03  0.56782295576E+02  0.83779424535E+02  0.19548560427E+03  0.12500000000E+03 0.  0.
</event>
<event>
 5    0  0.5605075E-005  0.3072090E+03  0.7546771E-02  0.1081691E+00
         21   -1    0    0  502  501  0.00000000000E+00  0.00000000000E+00  0.11476744258E+03  0.11476744258E+03  0.00000000000E+00 0.  1.
         21   -1    0    0  501  502 -0.00000000000E+00 -0.00000000000E+00 -0.82233572251E+03  0.82233572251E+03  0.00000000000E+00 0.  1.
         25    1    1    2    0    0  0.34324497192E+02 -0.54529628600E+02 -0.21455460951E+03  0.25653524507E+03  0.12500000000E+03 0.  0.
         25    1    1    2    0    0  0.10160080513E+03  0.21222597986E+02 -0.46282049786E+03  0.49051089234E+03  0.12500000000E+03 0.  0.
         25    1    1    2    0    0 -0.13592530232E+03  0.33307030613E+02 -0.30193172563E+02  0.19005702768E+03  0.12500000000E+03 0.  0.
</event>
<event>
 5    0  0.6296965E-005  0.3129346E+03  0.7546771E-02  0.1078948E+00
         21   -1    0    0  502  501  0.00000000000E+00  0.00000000000E+00  0.14982429594E+03  0.14982429594E+03  0.00000000000E+00 0. -1.
         21   -1    0    0  501  502 -0.00000000000E+00 -0.00000000000E+00 -0.65361948861E+03  0.65361948861E+03  0.00000000000E+00 0. -1.
         25    1    1    2    0    0 -0.74390036914E+02 -0.14430165586E+03 -0.15606930015E+03  0.25756450052E+03  0.12500000000E+03 0.  0.
         25    1    1    2    0    0 -0.80843351723E+02  0.66688181821E+02 -0.34715383566E+02  0.16677265654E+03  0.12500000000E+03 0.  0.
         25    1    1    2    0    0  0.15523338864E+03  0.77613474041E+02 -0.31301050895E+03  0.37910662750E+03  0.12500000000E+03 0.  0.
</event>
<event>
 5    0  0.5605075E-005  0.2316750E+03  0.7546771E-02  0.1125466E+00
         21   -1    0    0  502  501  0.00000000000E+00  0.00000000000E+00  0.15975425484E+04  0.15975425484E+04  0.00000000000E+00 0.  1.
         21   -1    0    0  501  502 -0.00000000000E+00 -0.00000000000E+00 -0.33597430325E+02  0.33597430325E+02  0.00000000000E+00 0.  1.
         25    1    1    2    0    0 -0.28155666709E+02  0.99836807894E+02  0.67909017659E+03  0.69824680287E+03  0.12500000000E+03 0.  0.
         25    1    1    2    0    0  0.21664232018E+02  0.89242931927E+01  0.32497065181E+03  0.34896977877E+03  0.12500000000E+03 0.  0.
         25    1    1    2    0    0  0.64914346907E+01 -0.10876110109E+03  0.55988428963E+03  0.58392339704E+03  0.12500000000E+03 0.  0.
</event>
<event>
 5    0  0.5605075E-005  0.2802364E+03  0.7546771E-02  0.1095560E+00
         21   -1    0    0  502  501  0.00000000000E+00  0.00000000000E+00  0.91302342493E+02  0.91302342493E+02  0.00000000000E+00 0.  1.
         21   -1    0    0  501  502 -0.00000000000E+00 -0.00000000000E+00 -0.86013632276E+03  0.86013632276E+03  0.00000000000E+00 0.  1.
         25    1    1    2    0    0  0.71324677646E+02  0.39634993453E+02 -0.34235885152E+03  0.37348724953E+03  0.12500000000E+03 0.  0.
         25    1    1    2    0    0 -0.11643713171E+03 -0.14210978064E+03 -0.23909565020E+03  0.32641158886E+03  0.12500000000E+03 0.  0.
         25    1    1    2    0    0  0.45112454067E+02  0.10247478718E+03 -0.18737947855E+03  0.25153982687E+03  0.12500000000E+03 0.  0.
</event>
<event>
 5    0  0.5605075E-005  0.2961868E+03  0.7546771E-02  0.1087162E+00
         21   -1    0    0  502  501  0.00000000000E+00  0.00000000000E+00  0.69945256015E+03  0.69945256015E+03  0.00000000000E+00 0.  1.
         21   -1    0    0  501  502 -0.00000000000E+00 -0.00000000000E+00 -0.12542182554E+03  0.12542182554E+03  0.00000000000E+00 0.  1.
         25    1    1    2    0    0 -0.15367654408E+03  0.58664489059E+02  0.16285841781E+03  0.26307007950E+03  0.12500000000E+03 0.  0.
         25    1    1    2    0    0  0.10588827218E+03 -0.14619790277E+03  0.20069485072E+03  0.29747197526E+03  0.12500000000E+03 0.  0.
         25    1    1    2    0    0  0.47788271907E+02  0.87533413707E+02  0.21047746608E+03  0.26433233093E+03  0.12500000000E+03 0.  0.
</event>
<event>
 5    0  0.5605075E-005  0.2426277E+03  0.7546771E-02  0.1118055E+00
         21   -1    0    0  502  501  0.00000000000E+00  0.00000000000E+00  0.20049676781E+03  0.20049676781E+03  0.00000000000E+00 0.  1.
         21   -1    0    0  501  502 -0.00000000000E+00 -0.00000000000E+00 -0.29361180779E+03  0.29361180779E+03  0.00000000000E+00 0.  1.
         25    1    1    2    0    0  0.72625738981E+02 -0.74458761123E+02 -0.93623409995E+02  0.18764047530E+03  0.12500000000E+03 0.  0.
         25    1    1    2    0    0 -0.70303864649E+02 -0.26397347364E+02 -0.11802150653E+01  0.14582813940E+03  0.12500000000E+03 0.  0.
         25    1    1    2    0    0 -0.23218743321E+01  0.10085610849E+03  0.16885850799E+01  0.16063996090E+03  0.12500000000E+03 0.  0.
</event>
<event>
 5    0  0.5605075E-005  0.4370043E+03  0.7546771E-02  0.1031670E+00
         21   -1    0    0  502  501  0.00000000000E+00  0.00000000000E+00  0.14270144046E+04  0.14270144046E+04  0.00000000000E+00 0.  1.
         21   -1    0    0  501  502 -0.00000000000E+00 -0.00000000000E+00 -0.13382681940E+03  0.13382681940E+03  0.00000000000E+00 0.  1.
         25    1    1    2    0    0  0.30868584950E+02  0.78217785104E+02  0.11743892715E+04  0.11840126910E+04  0.12500000000E+03 0.  0.
         25    1    1    2    0    0 -0.46521536755E+02  0.58375438562E+02 -0.17138588506E+02  0.14659698641E+03  0.12500000000E+03 0.  0.
         25    1    1    2    0    0  0.15652951804E+02 -0.13659322367E+03  0.13593690217E+03  0.23023154654E+03  0.12500000000E+03 0.  0.
</event>
<event>
 5    0  0.5605075E-005  0.2741305E+03  0.7546771E-02  0.1098939E+00
         21   -1    0    0  502  501  0.00000000000E+00  0.00000000000E+00  0.35231027687E+03  0.35231027687E+03  0.00000000000E+00 0. -1.
         21   -1    0    0  501  502 -0.00000000000E+00 -0.00000000000E+00 -0.21329933345E+03  0.21329933345E+03  0.00000000000E+00 0. -1.
         25    1    1    2    0    0 -0.63679376908E+02 -0.67644406495E+02  0.19879236139E+03  0.25253560485E+03  0.12500000000E+03 0.  0.
         25    1    1    2    0    0 -0.14701618275E+02  0.39692221861E+02 -0.90207696405E+02  0.15985630593E+03  0.12500000000E+03 0.  0.
         25    1    1    2    0    0  0.78380995183E+02  0.27952184634E+02  0.30426278442E+02  0.15321769954E+03  0.12500000000E+03 0.  0.
</event>
<event>
 5    0  0.5724833E-005  0.3130668E+03  0.7546771E-02  0.1078885E+00
         21   -1    0    0  502  501  0.00000000000E+00  0.00000000000E+00  0.63272382586E+03  0.63272382586E+03  0.00000000000E+00 0.  1.
         21   -1    0    0  501  502 -0.00000000000E+00 -0.00000000000E+00 -0.15490301141E+03  0.15490301141E+03  0.00000000000E+00 0.  1.
         25    1    1    2    0    0 -0.62033489611E+02 -0.15662524332E+03  0.66220631564E+02  0.21997680042E+03  0.12500000000E+03 0.  0.
         25    1    1    2    0    0  0.30523593873E+01 -0.52711745386E+02  0.18628346000E+03  0.23046555593E+03  0.12500000000E+03 0.  0.
         25    1    1    2    0    0  0.58981130224E+02  0.20933698871E+03  0.22531672288E+03  0.33718448092E+03  0.12500000000E+03 0.  0.
</event>
<event>
 5    0  0.5605075E-005  0.2969064E+03  0.7546771E-02  0.1086797E+00
         21   -1    0    0  502  501  0.00000000000E+00  0.00000000000E+00  0.84684287171E+02  0.84684287171E+02  0.00000000000E+00 0. -1.
         21   -1    0    0  501  502 -0.00000000000E+00 -0.00000000000E+00 -0.10409654737E+04  0.10409654737E+04  0.00000000000E+00 0. -1.
         25    1    1    2    0    0  0.75492400714E+02 -0.10012959785E+03 -0.57890357140E+03  0.60537540742E+03  0.12500000000E+03 0.  0.
         25    1    1    2    0    0 -0.92207924337E+02 -0.32924769887E+02 -0.25314627986E+03  0.29882165382E+03  0.12500000000E+03 0.  0.
         25    1    1    2    0    0  0.16715523624E+02  0.13305436774E+03 -0.12423133523E+03  0.22145269959E+03  0.12500000000E+03 0.  0.
</event>
<event>
 5    0  0.5605075E-005  0.2326712E+03  0.7546771E-02  0.1124774E+00
         21   -1    0    0  502  501  0.00000000000E+00  0.00000000000E+00  0.19525068342E+04  0.19525068342E+04  0.00000000000E+00 0.  1.
         21   -1    0    0  501  502 -0.00000000000E+00 -0.00000000000E+00 -0.27726352206E+02  0.27726352206E+02  0.00000000000E+00 0.  1.
         25    1    1    2    0    0 -0.49877006733E+02  0.82676929855E+02  0.53620763694E+03  0.55898731689E+03  0.12500000000E+03 0.  0.
         25    1    1    2    0    0 -0.18388513656E+01 -0.10485787523E+03  0.84859072171E+03  0.86413527202E+03  0.12500000000E+03 0.  0.
         25    1    1    2    0    0  0.51715858098E+02  0.22180945375E+02  0.53998212338E+03  0.55711059754E+03  0.12500000000E+03 0.  0.
</event>
<event>
 5    0  0.5605075E-005  0.2619152E+03  0.7546771E-02  0.1105998E+00
         21   -1    0    0  502  501  0.00000000000E+00  0.00000000000E+00  0.16717852966E+04  0.16717852966E+04  0.00000000000E+00 0.  1.
         21   -1    0    0  501  502 -0.00000000000E+00 -0.00000000000E+00 -0.41033724267E+02  0.41033724267E+02  0.00000000000E+00 0.  1.
         25    1    1    2    0    0 -0.31074563618E+02 -0.13764314325E+03  0.39308876740E+03  0.43595302779E+03  0.12500000000E+03 0.  0.
         25    1    1    2    0    0  0.21816383257E+01  0.51819807741E+02  0.33850216138E+03  0.36455282920E+03  0.12500000000E+03 0.  0.
         25    1    1    2    0    0  0.28892925293E+02  0.85823335513E+02  0.89916064355E+03  0.91231316386E+03  0.12500000000E+03 0.  0.
</event>
<event>
 5    0  0.5605075E-005  0.4146135E+03  0.7546771E-02  0.1038834E+00
         21   -1    0    0  502  501  0.00000000000E+00  0.00000000000E+00  0.22079844778E+03  0.22079844778E+03  0.00000000000E+00 0. -1.
         21   -1    0    0  501  502 -0.00000000000E+00 -0.00000000000E+00 -0.77855772548E+03  0.77855772548E+03  0.00000000000E+00 0. -1.
         25    1    1    2    0    0  0.50489018238E+02 -0.66880860073E+02  0.38286171522E+02  0.15528368020E+03  0.12500000000E+03 0.  0.
         25    1    1    2    0    0  0.47666181992E+02  0.27345236342E+03 -0.18156816290E+03  0.35445769528E+03  0.12500000000E+03 0.  0.
         25    1    1    2    0    0 -0.98155200229E+02 -0.20657150335E+03 -0.41447728632E+03  0.48961479778E+03  0.12500000000E+03 0.  0.
</event>
<event>
 5    0  0.5605075E-005  0.4029299E+03  0.7546771E-02  0.1042770E+00
         21   -1    0    0  502  501  0.00000000000E+00  0.00000000000E+00  0.35582325408E+03  0.35582325408E+03  0.00000000000E+00 0. -1.
         21   -1    0    0  501  502 -0.00000000000E+00 -0.00000000000E+00 -0.45627284757E+03  0.45627284757E+03  0.00000000000E+00 0. -1.
         25    1    1    2    0    0  0.15117839910E+03 -0.84830893725E+02 -0.11982149535E+03  0.24501710070E+03  0.12500000000E+03 0.  0.
         25    1    1    2    0    0  0.12827523943E+03  0.10721113223E+03 -0.10766853124E+03  0.23487502324E+03  0.12500000000E+03 0.  0.
         25    1    1    2    0    0 -0.27945363853E+03 -0.22380238505E+02  0.12704043310E+03  0.33220397771E+03  0.12500000000E+03 0.  0.
</event>
<event>
 5    0  0.5605075E-005  0.3293877E+03  0.7546771E-02  0.1071408E+00
         21   -1    0    0  502  501  0.00000000000E+00  0.00000000000E+00  0.43944342735E+02  0.43944342735E+02  0.00000000000E+00 0. -1.
         21   -1    0    0  501  502 -0.00000000000E+00 -0.00000000000E+00 -0.24689471528E+04  0.24689471528E+04  0.00000000000E+00 0. -1.
         25    1    1    2    0    0 -0.13966202013E+02  0.83452549377E+02 -0.85568313600E+03  0.86889470710E+03  0.12500000000E+03 0.  0.
         25    1    1    2    0    0 -0.14099418466E+03 -0.13622737526E+03 -0.45678771369E+03  0.51255953143E+03  0.12500000000E+03 0.  0.
         25    1    1    2    0    0  0.15496038667E+03  0.52774825888E+02 -0.11125319604E+04  0.11314372570E+04  0.12500000000E+03 0.  0.
</event>
<event>
 5    0  0.5605075E-005  0.3781446E+03  0.7546771E-02  0.1051622E+00
         21   -1    0    0  502  501  0.00000000000E+00  0.00000000000E+00  0.88740725611E+02  0.88740725611E+02  0.00000000000E+00 0.  1.
         21   -1    0    0  501  502 -0.00000000000E+00 -0.00000000000E+00 -0.16113606763E+04  0.16113606763E+04  0.00000000000E+00 0.  1.
         25    1    1    2    0    0 -0.15844702407E+03  0.25671628756E+03 -0.56431222091E+03  0.65198312433E+03  0.12500000000E+03 0.  0.
         25    1    1    2    0    0  0.86500885259E+02 -0.52271164337E+02 -0.50982189214E+03  0.53456341016E+03  0.12500000000E+03 0.  0.
         25    1    1    2    0    0  0.71946138808E+02 -0.20444512322E+03 -0.44848583764E+03  0.51355486743E+03  0.12500000000E+03 0.  0.
</event>
<event>
 5    0  0.5605075E-005  0.5492903E+03  0.7546771E-02  0.1001658E+00
         21   -1    0    0  502  501  0.00000000000E+00  0.00000000000E+00  0.54643379827E+03  0.54643379827E+03  0.00000000000E+00 0.  1.
         21   -1    0    0  501  502 -0.00000000000E+00 -0.00000000000E+00 -0.55216170699E+03  0.55216170699E+03  0.00000000000E+00 0.  1.
         25    1    1    2    0    0 -0.11899110208E+03  0.36089875577E+02 -0.41028267964E+03  0.44656269292E+03  0.12500000000E+03 0.  0.
         25    1    1    2    0    0  0.19886464792E+03 -0.75555713941E+02  0.43065335947E+03  0.49632965872E+03  0.12500000000E+03 0.  0.
         25    1    1    2    0    0 -0.79873545846E+02  0.39465838364E+02 -0.26098588547E+02  0.15570315362E+03  0.12500000000E+03 0.  0.
</event>
<event>
 5    0  0.5605075E-005  0.2855020E+03  0.7546771E-02  0.1092721E+00
         21   -1    0    0  502  501  0.00000000000E+00  0.00000000000E+00  0.86544743494E+02  0.86544743494E+02  0.00000000000E+00 0. -1.
         21   -1    0    0  501  502 -0.00000000000E+00 -0.00000000000E+00 -0.94184135002E+03  0.94184135002E+03  0.00000000000E+00 0. -1.
         25    1    1    2    0    0  0.13575929923E+03 -0.62269611262E+01 -0.49025614513E+03  0.52387541478E+03  0.12500000000E+03 0.  0.
         25    1    1    2    0    0 -0.80502463790E+02 -0.55435164101E+02 -0.69741553797E+02  0.17332797934E+03  0.12500000000E+03 0.  0.
         25    1    1    2    0    0 -0.55256835441E+02  0.61662125228E+02 -0.29529890760E+03  0.33118269940E+03  0.12500000000E+03 0.  0.
</event>
<event>
 5    0  0.5605075E-005  0.2795714E+03  0.7546771E-02  0.1095923E+00
         21   -1    0    0  502  501  0.00000000000E+00  0.00000000000E+00  0.10431896128E+03  0.10431896128E+03  0.00000000000E+00 0. -1.
         21   -1    0    0  501  502 -0.00000000000E+00 -0.00000000000E+00 -0.74924208392E+03  0.74924208392E+03  0.00000000000E+00 0. -1.
         25    1    1    2    0    0 -0.73624478971E+02  0.67919670185E+02 -0.18628595810E+03  0.24568496838E+03  0.12500000000E+03 0.  0.
         25    1    1    2    0    0  0.67001225931E+02  0.93141770472E+02 -0.31695778844E+03  0.35951605435E+03  0.12500000000E+03 0.  0.
         25    1    1    2    0    0  0.66232530398E+01 -0.16106144066E+03 -0.14167937610E+03  0.24836002247E+03  0.12500000000E+03 0.  0.
</event>
<event>
 5    0  0.5605075E-005  0.2807545E+03  0.7546771E-02  0.1095278E+00
         21   -1    0    0  502  501  0.00000000000E+00  0.00000000000E+00  0.25457507576E+04  0.25457507576E+04  0.00000000000E+00 0. -1.
         21   -1    0    0  501  502 -0.00000000000E+00 -0.00000000000E+00 -0.30962602537E+02  0.30962602537E+02  0.00000000000E+00 0. -1.
         25    1    1    2    0    0 -0.12119882906E+03 -0.71110061373E+02  0.12637597790E+04  0.12776774147E+04  0.12500000000E+03 0.  0.
         25    1    1    2    0    0 -0.27259671843E+02  0.22423525891E+02  0.29555577676E+03  0.32283760840E+03  0.12500000000E+03 0.  0.
         25    1    1    2    0    0  0.14845850091E+03  0.48686535482E+02  0.95547259930E+03  0.97619833704E+03  0.12500000000E+03 0.  0.
</event>
<event>
 5    0  0.5605075E-005  0.4145785E+03  0.7546771E-02  0.1038845E+00
         21   -1    0    0  502  501  0.00000000000E+00  0.00000000000E+00  0.41289440662E+03  0.41289440662E+03  0.00000000000E+00 0.  1.
         21   -1    0    0  501  502 -0.00000000000E+00 -0.00000000000E+00 -0.41626941245E+03  0.41626941245E+03  0.00000000000E+00 0.  1.
         25    1    1    2    0    0 -0.24111571035E+03 -0.31054405586E+02  0.92985216955E+02  0.28874281369E+03  0.12500000000E+03 0.  0.
         25    1    1    2    0    0  0.26141878887E+03  0.27146921707E+02  0.99137965079E+02  0.30745743552E+03  0.12500000000E+03 0.  0.
         25    1    1    2    0    0 -0.20303078524E+02  0.39074838796E+01 -0.19549818787E+03  0.23296356987E+03  0.12500000000E+03 0.  0.
</event>
<event>
 5    0  0.5605075E-005  0.3197914E+03  0.7546771E-02  0.1075745E+00
         21   -1    0    0  502  501  0.00000000000E+00  0.00000000000E+00  0.22301117320E+03  0.22301117320E+03  0.00000000000E+00 0.  1.
         21   -1    0    0  501  502 -0.00000000000E+00 -0.00000000000E+00 -0.45857131874E+03  0.45857131874E+03  0.00000000000E+00 0.  1.
         25    1    1    2    0    0  0.99193169317E+02 -0.70271429198E+02  0.69357276781E+02  0.18765071394E+03  0.12500000000E+03 0.  0.
         25    1    1    2    0    0  0.85374797008E+02  0.36427501792E+02 -0.17284753696E+03  0.23263080167E+03  0.12500000000E+03 0.  0.
         25    1    1    2    0    0 -0.18456796632E+03  0.33843927407E+02 -0.13206988536E+03  0.26130097634E+03  0.12500000000E+03 0.  0.
</event>
<event>
 5    0  0.5605075E-005  0.5590447E+03  0.7546771E-02  0.9994219E-01
         21   -1    0    0  502  501  0.00000000000E+00  0.00000000000E+00  0.11142262964E+04  0.11142262964E+04  0.00000000000E+00 0. -1.
         21   -1    0    0  501  502 -0.00000000000E+00 -0.00000000000E+00 -0.28049147915E+03  0.28049147915E+03  0.00000000000E+00 0. -1.
         25    1    1    2    0    0  0.10984760181E+02 -0.16823106404E+03  0.65014222175E+03  0.68317806198E+03  0.12500000000E+03 0.  0.
         25    1    1    2    0    0  0.34868499046E+02  0.39979711260E+03  0.11214491882E+03  0.43503451161E+03  0.12500000000E+03 0.  0.
         25    1    1    2    0    0 -0.45853259227E+02 -0.23156604857E+03  0.71447676722E+02  0.27650520201E+03  0.12500000000E+03 0.  0.
</event>
<event>
 5    0  0.5605075E-005  0.3740519E+03  0.7546771E-02  0.1053154E+00
         21   -1    0    0  502  501  0.00000000000E+00  0.00000000000E+00  0.12202257805E+03  0.12202257805E+03  0.00000000000E+00 0. -1.
         21   -1    0    0  501  502 -0.00000000000E+00 -0.00000000000E+00 -0.11466306440E+04  0.11466306440E+04  0.00000000000E+00 0. -1.
         25    1    1    2    0    0 -0.18526913862E+02  0.67603286922E+02 -0.40653124516E+03  0.43105232192E+03  0.12500000000E+03 0.  0.
         25    1    1    2    0    0  0.25649344129E+03 -0.28944259211E+02 -0.25189857696E+03  0.38171265192E+03  0.12500000000E+03 0.  0.
         25    1    1    2    0    0 -0.23796652742E+03 -0.38659027711E+02 -0.36617824380E+03  0.45588824818E+03  0.12500000000E+03 0.  0.
</event>
<event>
 5    0  0.5605075E-005  0.4120553E+03  0.7546771E-02  0.1039683E+00
         21   -1    0    0  502  501  0.00000000000E+00  0.00000000000E+00  0.38554995190E+03  0.38554995190E+03  0.00000000000E+00 0.  1.
         21   -1    0    0  501  502 -0.00000000000E+00 -0.00000000000E+00 -0.44038277511E+03  0.44038277511E+03  0.00000000000E+00 0. -1.
         25    1    1    2    0    0 -0.26465147766E+03  0.14687320295E+03  0.13112824568E+03  0.35274886135E+03  0.12500000000E+03 0.  0.
         25    1    1    2    0    0  0.43218419566E+02 -0.10885160053E+03 -0.34343656089E+02  0.17470257422E+03  0.12500000000E+03 0.  0.
         25    1    1    2    0    0  0.22143305809E+03 -0.38021602422E+02 -0.15161741280E+03  0.29848129143E+03  0.12500000000E+03 0.  0.
</event>
<event>
 5    0  0.5605075E-005  0.2643040E+03  0.7546771E-02  0.1104585E+00
         21   -1    0    0  502  501  0.00000000000E+00  0.00000000000E+00  0.25280727544E+03  0.25280727544E+03  0.00000000000E+00 0.  1.
         21   -1    0    0  501  502 -0.00000000000E+00 -0.00000000000E+00 -0.27632356152E+03  0.27632356152E+03  0.00000000000E+00 0.  1.
         25    1    1    2    0    0 -0.88378900290E+02 -0.10850533128E+03 -0.79918708643E+01  0.18781135997E+03  0.12500000000E+03 0.  0.
         25    1    1    2    0    0  0.60173344193E+02 -0.30902176118E+02  0.32865909828E+02  0.14587989536E+03  0.12500000000E+03 0.  0.
         25    1    1    2    0    0  0.28205556097E+02  0.13940750740E+03 -0.48390325041E+02  0.19543958164E+03  0.12500000000E+03 0.  0.
</event>
<event>
 5    0  0.5605075E-005  0.2398030E+03  0.7546771E-02  0.1119924E+00
         21   -1    0    0  502  501  0.00000000000E+00  0.00000000000E+00  0.31594718425E+03  0.31594718425E+03  0.00000000000E+00 0. -1.
         21   -1    0    0  501  502 -0.00000000000E+00 -0.00000000000E+00 -0.18200971746E+03  0.18200971746E+03  0.00000000000E+00 0. -1.
         25    1    1    2    0    0  0.12737737090E+02 -0.80738828708E+02 -0.17839697442E+02  0.15041364038E+03  0.12500000000E+03 0.  0.
         25    1    1    2    0    0 -0.94596171908E+01  0.95849551420E+02  0.10321745343E+02  0.15813968285E+03  0.12500000000E+03 0.  0.
         25    1    1    2    0    0 -0.32781198992E+01 -0.15110722712E+02  0.14145541889E+03  0.18940357849E+03  0.12500000000E+03 0.  0.
</event>
<event>
 5    0  0.5605075E-005  0.2721717E+03  0.7546771E-02  0.1100043E+00
         21   -1    0    0  502  501  0.00000000000E+00  0.00000000000E+00  0.33696493110E+03  0.33696493110E+03  0.00000000000E+00 0. -1.
         21   -1    0    0  501  502 -0.00000000000E+00 -0.00000000000E+00 -0.21983728254E+03  0.21983728254E+03  0.00000000000E+00 0. -1.
         25    1    1    2    0    0 -0.10363570105E+03 -0.19321578286E+01  0.13155121603E+03  0.20898520092E+03  0.12500000000E+03 0.  0.
         25    1    1    2    0    0  0.14406746916E+03 -0.62021959061E+02  0.35592763987E+01  0.20059867279E+03  0.12500000000E+03 0.  0.
         25    1    1    2    0    0 -0.40431768119E+02  0.63954116889E+02 -0.17982843862E+02  0.14721833994E+03  0.12500000000E+03 0.  0.
</event>
<event>
 5    0  0.5605075E-005  0.2704313E+03  0.7546771E-02  0.1101033E+00
         21   -1    0    0  502  501  0.00000000000E+00  0.00000000000E+00  0.51281069396E+02  0.51281069396E+02  0.00000000000E+00 0.  1.
         21   -1    0    0  501  502 -0.00000000000E+00 -0.00000000000E+00 -0.14261225814E+04  0.14261225814E+04  0.00000000000E+00 0.  1.
         25    1    1    2    0    0  0.57609508625E+02  0.12697734230E+03 -0.65267567213E+03  0.67900856691E+03  0.12500000000E+03 0.  0.
         25    1    1    2    0    0  0.47924687921E+02 -0.34190674147E+02 -0.19745486959E+03  0.24099627266E+03  0.12500000000E+03 0.  0.
         25    1    1    2    0    0 -0.10553419655E+03 -0.92786668152E+02 -0.52471097033E+03  0.55739881127E+03  0.12500000000E+03 0.  0.
</event>
<event>
 5    0  0.5605075E-005  0.2709476E+03  0.7546771E-02  0.1100739E+00
         21   -1    0    0  502  501  0.00000000000E+00  0.00000000000E+00  0.64197120855E+03  0.64197120855E+03  0.00000000000E+00 0.  1.
         21   -1    0    0  501  502 -0.00000000000E+00 -0.00000000000E+00 -0.11435494732E+03  0.11435494732E+03  0.00000000000E+00 0.  1.
         25    1    1    2    0    0  0.62453157050E+02  0.44361758405E+02  0.15401295980E+03  0.21263432042E+03  0.12500000000E+03 0.  0.
         25    1    1    2    0    0 -0.46586562110E+02  0.11437768778E+03  0.25240406750E+03  0.30754735655E+03  0.12500000000E+03 0.  0.
         25    1    1    2    0    0 -0.15866594939E+02 -0.15873944618E+03  0.12119923393E+03  0.23614447890E+03  0.12500000000E+03 0.  0.
</event>
<event>
 5    0  0.5605075E-005  0.3318673E+03  0.7546771E-02  0.1070314E+00
         21   -1    0    0  502  501  0.00000000000E+00  0.00000000000E+00  0.16170307089E+03  0.16170307089E+03  0.00000000000E+00 0.  1.
         21   -1    0    0  501  502 -0.00000000000E+00 -0.00000000000E+00 -0.68109974880E+03  0.68109974880E+03  0.00000000000E+00 0.  1.
         25    1    1    2    0    0 -0.13804388218E+03 -0.13844470086E+03 -0.17212156762E+03  0.28891847058E+03  0.12500000000E+03 0.  0.
         25    1    1    2    0    0  0.12424223056E+03  0.20208299720E+03 -0.13798591645E+03  0.30156057891E+03  0.12500000000E+03 0.  0.
         25    1    1    2    0    0  0.13801651621E+02 -0.63638296347E+02 -0.20928919384E+03  0.25232377020E+03  0.12500000000E+03 0.  0.
</event>
<event>
 5    0  0.5605075E-005  0.2729750E+03  0.7546771E-02  0.1099589E+00
         21   -1    0    0  502  501  0.00000000000E+00  0.00000000000E+00  0.81643789692E+03  0.81643789692E+03  0.00000000000E+00 0.  1.
         21   -1    0    0  501  502 -0.00000000000E+00 -0.00000000000E+00 -0.91268853212E+02  0.91268853212E+02  0.00000000000E+00 0.  1.
         25    1    1    2    0    0 -0.45031384454E+02 -0.42977483581E+02  0.47682272711E+03  0.49684987951E+03  0.12500000000E+03 0.  0.
         25    1    1    2    0    0  0.76424585515E+02  0.70711150254E+02  0.45484856300E+02  0.16892204176E+03  0.12500000000E+03 0.  0.
         25    1    1    2    0    0 -0.31393201061E+02 -0.27733666673E+02  0.20286146030E+03  0.24193482886E+03  0.12500000000E+03 0.  0.
</event>
<event>
 5    0  0.5605075E-005  0.2738992E+03  0.7546771E-02  0.1099068E+00
         21   -1    0    0  502  501  0.00000000000E+00  0.00000000000E+00  0.90656863198E+03  0.90656863198E+03  0.00000000000E+00 0. -1.
         21   -1    0    0  501  502 -0.00000000000E+00 -0.00000000000E+00 -0.82752466153E+02  0.82752466153E+02  0.00000000000E+00 0. -1.
         25    1    1    2    0    0 -0.10425303795E+03  0.13502938361E+03  0.46190302819E+03  0.50801676922E+03  0.12500000000E+03 0.  0.
         25    1    1    2    0    0  0.88070387921E+02 -0.88656574168E+02  0.15764651540E+03  0.23684130803E+03  0.12500000000E+03 0.  0.
         25    1    1    2    0    0  0.16182650034E+02 -0.46372809443E+02  0.20426662224E+03  0.24446302089E+03  0.12500000000E+03 0.  0.
</event>
<event>
 5    0  0.5605075E-005  0.2185240E+03  0.7546771E-02  0.1134988E+00
         21   -1    0    0  502  501  0.00000000000E+00  0.00000000000E+00  0.32033335776E+02  0.32033335776E+02  0.00000000000E+00 0. -1.
         21   -1    0    0  501  502 -0.00000000000E+00 -0.00000000000E+00 -0.14907201028E+04  0.14907201028E+04  0.00000000000E+00 0. -1.
         25    1    1    2    0    0  0.14013531007E+02 -0.16174243942E+02 -0.63978185765E+03  0.65222987558E+03  0.12500000000E+03 0.  0.
         25    1    1    2    0    0  0.14308038987E+02  0.71129686262E+02 -0.29686940011E+03  0.33018266607E+03  0.12500000000E+03 0.  0.
         25    1    1    2    0    0 -0.28321569994E+02 -0.54955442320E+02 -0.52203550929E+03  0.54034089696E+03  0.12500000000E+03 0.  0.
</event>
<event>
 5    0  0.5605075E-005  0.2868436E+03  0.7546771E-02  0.1092009E+00
         21   -1    0    0  502  501  0.00000000000E+00  0.00000000000E+00  0.11530540138E+03  0.11530540138E+03  0.00000000000E+00 0. -1.
         21   -1    0    0  501  502 -0.00000000000E+00 -0.00000000000E+00 -0.71357653883E+03  0.71357653883E+03  0.00000000000E+00 0. -1.
         25    1    1    2    0    0 -0.13873925616E+03  0.83432411271E+02 -0.43066482195E+03  0.47676696333E+03  0.12500000000E+03 0.  0.
         25    1    1    2    0    0  0.89345228099E+02 -0.36525316610E+02 -0.44937269472E+02  0.16419813253E+03  0.12500000000E+03 0.  0.
         25    1    1    2    0    0  0.49394028064E+02 -0.46907094661E+02 -0.12266904602E+03  0.18791684435E+03  0.12500000000E+03 0.  0.
</event>
<event>
 5    0  0.5605075E-005  0.3128447E+03  0.7546771E-02  0.1078990E+00
         21   -1    0    0  502  501  0.00000000000E+00  0.00000000000E+00  0.40638664238E+03  0.40638664238E+03  0.00000000000E+00 0. -1.
         21   -1    0    0  501  502 -0.00000000000E+00 -0.00000000000E+00 -0.24083416667E+03  0.24083416667E+03  0.00000000000E+00 0. -1.
         25    1    1    2    0    0 -0.17756669227E+03  0.11215778121E+02  0.76852440938E+02  0.23062311585E+03  0.12500000000E+03 0.  0.
         25    1    1    2    0    0  0.24667721351E+02  0.71789892182E+02 -0.57603397362E+02  0.15717963126E+03  0.12500000000E+03 0.  0.
         25    1    1    2    0    0  0.15289897092E+03 -0.83005670303E+02  0.14630343214E+03  0.25941806195E+03  0.12500000000E+03 0.  0.
</event>
<event>
 5    0  0.6428830E-005  0.2862817E+03  0.7546771E-02  0.1092307E+00
         21   -1    0    0  502  501  0.00000000000E+00  0.00000000000E+00  0.32317782717E+03  0.32317782717E+03  0.00000000000E+00 0. -1.
         21   -1    0    0  501  502 -0.00000000000E+00 -0.00000000000E+00 -0.25359790876E+03  0.25359790876E+03  0.00000000000E+00 0. -1.
         25    1    1    2    0    0 -0.11081894060E+03 -0.62591323157E+02 -0.18326942896E+02  0.17933038830E+03  0.12500000000E+03 0.  0.
         25    1    1    2    0    0  0.97788759369E+02  0.21465678934E+02  0.17645929064E+03  0.23829875804E+03  0.12500000000E+03 0.  0.
         25    1    1    2    0    0  0.13030181235E+02  0.41125644223E+02 -0.88552429333E+02  0.15914658959E+03  0.12500000000E+03 0.  0.
</event>
<event>
 5    0  0.5605075E-005  0.3595715E+03  0.7546771E-02  0.1058754E+00
         21   -1    0    0  502  501  0.00000000000E+00  0.00000000000E+00  0.14790121257E+04  0.14790121257E+04  0.00000000000E+00 0.  1.
         21   -1    0    0  501  502 -0.00000000000E+00 -0.00000000000E+00 -0.87417587712E+02  0.87417587712E+02  0.00000000000E+00 0.  1.
         25    1    1    2    0    0  0.56752131437E+02 -0.19318029739E+02  0.33284181081E+03  0.36055881867E+03  0.12500000000E+03 0.  0.
         25    1    1    2    0    0 -0.65676483612E+02 -0.51571820031E+02  0.10509858911E+04  0.10616823425E+04  0.12500000000E+03 0.  0.
         25    1    1    2    0    0  0.89243521750E+01  0.70889849770E+02  0.77668361190E+01  0.14418855227E+03  0.12500000000E+03 0.  0.
</event>
<event>
 5    0  0.5605075E-005  0.2967828E+03  0.7546771E-02  0.1086860E+00
         21   -1    0    0  502  501  0.00000000000E+00  0.00000000000E+00  0.30467120544E+03  0.30467120544E+03  0.00000000000E+00 0.  1.
         21   -1    0    0  501  502 -0.00000000000E+00 -0.00000000000E+00 -0.28909861803E+03  0.28909861803E+03  0.00000000000E+00 0.  1.
         25    1    1    2    0    0 -0.33026647380E+02  0.81546530292E+02  0.68934682583E+02  0.16768299408E+03  0.12500000000E+03 0.  0.
         25    1    1    2    0    0  0.31782883446E+02  0.47265956270E+02  0.11563162997E+03  0.17955471632E+03  0.12500000000E+03 0.  0.
         25    1    1    2    0    0  0.12437639341E+01 -0.12881248656E+03 -0.16899372514E+03  0.24653211308E+03  0.12500000000E+03 0.  0.
</event>
<event>
 5    0  0.5605075E-005  0.2702638E+03  0.7546771E-02  0.1101129E+00
         21   -1    0    0  502  501  0.00000000000E+00  0.00000000000E+00  0.84732058358E+03  0.84732058358E+03  0.00000000000E+00 0.  1.
         21   -1    0    0  501  502 -0.00000000000E+00 -0.00000000000E+00 -0.86204118384E+02  0.86204118384E+02  0.00000000000E+00 0.  1.
         25    1    1    2    0    0  0.11460713856E+03  0.73034746101E+00  0.40553200143E+03  0.43956402697E+03  0.12500000000E+03 0.  0.
         25    1    1    2    0    0 -0.12361952530E+03  0.58470503646E+02  0.12035016136E+03  0.22092928319E+03  0.12500000000E+03 0.  0.
         25    1    1    2    0    0  0.90123867381E+01 -0.59200851107E+02  0.23523430240E+03  0.27303139181E+03  0.12500000000E+03 0.  0.
</event>
<event>
 5    0  0.5605075E-005  0.2857271E+03  0.7546771E-02  0.1092601E+00
         21   -1    0    0  502  501  0.00000000000E+00  0.00000000000E+00  0.29226662537E+03  0.29226662537E+03  0.00000000000E+00 0. -1.
         21   -1    0    0  501  502 -0.00000000000E+00 -0.00000000000E+00 -0.27933380931E+03  0.27933380931E+03  0.00000000000E+00 0. -1.
         25    1    1    2    0    0 -0.10880694767E+03 -0.98139191879E+02 -0.28338748829E+02  0.19467495352E+03  0.12500000000E+03 0.  0.
         25    1    1    2    0    0  0.85146178935E+02  0.85466621957E+02  0.13365820150E+03  0.21918925631E+03  0.12500000000E+03 0.  0.
         25    1    1    2    0    0  0.23660768731E+02  0.12672569923E+02 -0.92386636601E+02  0.15773622484E+03  0.12500000000E+03 0.  0.
</event>
<event>
 5    0  0.5605075E-005  0.5492226E+03  0.7546771E-02  0.1001674E+00
         21   -1    0    0  502  501  0.00000000000E+00  0.00000000000E+00  0.12630026248E+03  0.12630026248E+03  0.00000000000E+00 0. -1.
         21   -1    0    0  501  502 -0.00000000000E+00 -0.00000000000E+00 -0.23883203243E+04  0.23883203243E+04  0.00000000000E+00 0. -1.
         25    1    1    2    0    0  0.33711899105E+03 -0.10282795964E+03 -0.40737752412E+03  0.55299570574E+03  0.12500000000E+03 0.  0.
         25    1    1    2    0    0 -0.17159583868E+03  0.20182301733E+03 -0.15634754262E+04  0.15906784938E+04  0.12500000000E+03 0.  0.
         25    1    1    2    0    0 -0.16552315236E+03 -0.98995057689E+02 -0.29116711148E+03  0.37094638726E+03  0.12500000000E+03 0.  0.
</event>
<event>
 5    0  0.5605075E-005  0.3371902E+03  0.7546771E-02  0.1067999E+00
         21   -1    0    0  502  501  0.00000000000E+00  0.00000000000E+00  0.13638606822E+04  0.13638606822E+04  0.00000000000E+00 0. -1.
         21   -1    0    0  501  502 -0.00000000000E+00 -0.00000000000E+00 -0.83364254833E+02  0.83364254833E+02  0.00000000000E+00 0. -1.
         25    1    1    2    0    0 -0.75033969903E+01 -0.42619703121E+02  0.64467335785E+02  0.14715222541E+03  0.12500000000E+03 0.  0.
         25    1    1    2    0    0  0.95847925862E+02 -0.59128372523E+02  0.17431417805E+03  0.24226725325E+03  0.12500000000E+03 0.  0.
         25    1    1    2    0    0 -0.88344528872E+02  0.10174807564E+03  0.10417149135E+04  0.10578054583E+04  0.12500000000E+03 0.  0.
</event>
<event>
 5    0  0.5605075E-005  0.4237588E+03  0.7546771E-02  0.1035850E+00
         21   -1    0    0  502  501  0.00000000000E+00  0.00000000000E+00  0.18629131528E+04  0.18629131528E+04  0.00000000000E+00 0. -1.
         21   -1    0    0  501  502 -0.00000000000E+00 -0.00000000000E+00 -0.96392860172E+02  0.96392860172E+02  0.00000000000E+00 0. -1.
         25    1    1    2    0    0 -0.87459142533E+02  0.56503918986E+02  0.35713493870E+03  0.39244382899E+03  0.12500000000E+03 0.  0.
         25    1    1    2    0    0 -0.14978333140E+03 -0.24351996883E+03  0.97159568867E+03  0.10204705796E+04  0.12500000000E+03 0.  0.
         25    1    1    2    0    0  0.23724247393E+03  0.18701604984E+03  0.43778966527E+03  0.54639160440E+03  0.12500000000E+03 0.  0.
</event>
<event>
 5    0  0.6723337E-005  0.3531916E+03  0.7546771E-02  0.1061313E+00
         21   -1    0    0  502  501  0.00000000000E+00  0.00000000000E+00  0.39757238072E+03  0.39757238072E+03  0.00000000000E+00 0.  1.
         21   -1    0    0  501  502 -0.00000000000E+00 -0.00000000000E+00 -0.31376509589E+03  0.31376509589E+03  0.00000000000E+00 0.  1.
         25    1    1    2    0    0 -0.18946137054E+03 -0.90633604433E+02  0.86343898414E+02  0.25921097579E+03  0.12500000000E+03 0.  0.
         25    1    1    2    0    0  0.10636524363E+03  0.16306243105E+03 -0.10755298768E+03  0.25513832843E+03  0.12500000000E+03 0.  0.
         25    1    1    2    0    0  0.83096126907E+02 -0.72428826621E+02  0.10501637409E+03  0.19698817239E+03  0.12500000000E+03 0.  0.
</event>
<event>
 5    0  0.5605075E-005  0.3248050E+03  0.7546771E-02  0.1073459E+00
         21   -1    0    0  502  501  0.00000000000E+00  0.00000000000E+00  0.85273721261E+02  0.85273721261E+02  0.00000000000E+00 0.  1.
         21   -1    0    0  501  502 -0.00000000000E+00 -0.00000000000E+00 -0.12371724960E+04  0.12371724960E+04  0.00000000000E+00 0.  1.
         25    1    1    2    0    0  0.16082130275E+01  0.10202085209E+03 -0.29127662538E+03  0.33298335259E+03  0.12500000000E+03 0.  0.
         25    1    1    2    0    0 -0.18541313468E+03 -0.13238212844E+03 -0.39816560762E+03  0.47546178556E+03  0.12500000000E+03 0.  0.
         25    1    1    2    0    0  0.18380492165E+03  0.30361276346E+02 -0.46245654177E+03  0.51400107914E+03  0.12500000000E+03 0.  0.
</event>
<event>
 5    0  0.5605075E-005  0.2745520E+03  0.7546771E-02  0.1098702E+00
         21   -1    0    0  502  501  0.00000000000E+00  0.00000000000E+00  0.15824694885E+03  0.15824694885E+03  0.00000000000E+00 0. -1.
         21   -1    0    0  501  502 -0.00000000000E+00 -0.00000000000E+00 -0.47633649874E+03  0.47633649874E+03  0.00000000000E+00 0. -1.
         25    1    1    2    0    0  0.62645071738E+02  0.12610148280E+03 -0.21975521239E+03  0.28938441968E+03  0.12500000000E+03 0.  0.
         25    1    1    2    0    0 -0.72422875731E+02 -0.31044705640E+02 -0.11463378060E+03  0.18701537459E+03  0.12500000000E+03 0.  0.
         25    1    1    2    0    0  0.97778039930E+01 -0.95056777164E+02  0.16299443099E+02  0.15818365333E+03  0.12500000000E+03 0.  0.
</event>
<event>
 5    0  0.5605075E-005  0.2061337E+03  0.7546771E-02  0.1144665E+00
         21   -1    0    0  502  501  0.00000000000E+00  0.00000000000E+00  0.10854276394E+04  0.10854276394E+04  0.00000000000E+00 0. -1.
         21   -1    0    0  501  502 -0.00000000000E+00 -0.00000000000E+00 -0.39146885571E+02  0.39146885571E+02  0.00000000000E+00 0. -1.
         25    1    1    2    0    0  0.21025122525E+02 -0.73054444163E+01  0.39310780569E+03  0.41310310116E+03  0.12500000000E+03 0.  0.
         25    1    1    2    0    0 -0.49242786158E+02  0.12482558667E+02  0.46172709390E+03  0.48103801877E+03  0.12500000000E+03 0.  0.
         25    1    1    2    0    0  0.28217663632E+02 -0.51771142510E+01  0.19144585424E+03  0.23043340504E+03  0.12500000000E+03 0.  0.
</event>
<event>
 5    0  0.5605075E-005  0.2423247E+03  0.7546771E-02  0.1118254E+00
         21   -1    0    0  502  501  0.00000000000E+00  0.00000000000E+00  0.79616379394E+03  0.79616379394E+03  0.00000000000E+00 0. -1.
         21   -1    0    0  501  502 -0.00000000000E+00 -0.00000000000E+00 -0.73755242457E+02  0.73755242457E+02  0.00000000000E+00 0. -1.
         25    1    1    2    0    0 -0.55885181034E+01 -0.76166805660E+02  0.12491485453E+03  0.19251320656E+03  0.12500000000E+03 0.  0.
         25    1    1    2    0    0  0.34708834703E+01  0.41701797183E+02  0.49459565498E+03  0.51186028254E+03  0.12500000000E+03 0.  0.
         25    1    1    2    0    0  0.21176346331E+01  0.34465008477E+02  0.10289804197E+03  0.16554554729E+03  0.12500000000E+03 0.  0.
</event>
<event>
 5    0  0.5605075E-005  0.2651949E+03  0.7546771E-02  0.1104062E+00
         21   -1    0    0  502  501  0.00000000000E+00  0.00000000000E+00  0.25293458748E+03  0.25293458748E+03  0.00000000000E+00 0. -1.
         21   -1    0    0  501  502 -0.00000000000E+00 -0.00000000000E+00 -0.27804950182E+03  0.27804950182E+03  0.00000000000E+00 0. -1.
         25    1    1    2    0    0  0.13257344293E+03  0.39930629221E+02  0.44144552487E+02  0.19168702208E+03  0.12500000000E+03 0.  0.
         25    1    1    2    0    0 -0.11033906123E+03  0.47269071634E+01  0.33294810725E+02  0.17008996592E+03  0.12500000000E+03 0.  0.
         25    1    1    2    0    0 -0.22234381701E+02 -0.44657536384E+02 -0.10255427756E+03  0.16920710130E+03  0.12500000000E+03 0.  0.
</event>
<event>
 5    0  0.5605075E-005  0.3506799E+03  0.7546771E-02  0.1062336E+00
         21   -1    0    0  502  501  0.00000000000E+00  0.00000000000E+00  0.16121495156E+03  0.16121495156E+03  0.00000000000E+00 0.  1.
         21   -1    0    0  501  502 -0.00000000000E+00 -0.00000000000E+00 -0.76280990158E+03  0.76280990158E+03  0.00000000000E+00 0.  1.
         25    1    1    2    0    0  0.18595784104E+02 -0.22220704621E+02 -0.13116924105E+03  0.18349368571E+03  0.12500000000E+03 0.  0.
         25    1    1    2    0    0 -0.16775161201E+03 -0.13036575586E+03 -0.48125117355E+02  0.25115107117E+03  0.12500000000E+03 0.  0.
         25    1    1    2    0    0  0.14915582790E+03  0.15258646048E+03 -0.42230059162E+03  0.48938009625E+03  0.12500000000E+03 0.  0.
</event>
<event>
 5    0  0.5605075E-005  0.2054518E+03  0.7546771E-02  0.1145219E+00
         21   -1    0    0  502  501  0.00000000000E+00  0.00000000000E+00  0.46327666341E+03  0.46327666341E+03  0.00000000000E+00 0. -1.
         21   -1    0    0  501  502 -0.00000000000E+00 -0.00000000000E+00 -0.91112831227E+02  0.91112831227E+02  0.00000000000E+00 0. -1.
         25    1    1    2    0    0 -0.31097573181E+02 -0.61211846860E+01  0.81035054482E+02  0.15230301381E+03  0.12500000000E+03 0.  0.
         25    1    1    2    0    0 -0.37009925209E+02 -0.70513408307E+01  0.10589310949E+03  0.16810058480E+03  0.12500000000E+03 0.  0.
         25    1    1    2    0    0  0.68107498390E+02  0.13172525517E+02  0.18523566821E+03  0.23398589603E+03  0.12500000000E+03 0.  0.
</event>
<event>
 5    0  0.5605075E-005  0.3643566E+03  0.7546771E-02  0.1056872E+00
         21   -1    0    0  502  501  0.00000000000E+00  0.00000000000E+00  0.14111101615E+03  0.14111101615E+03  0.00000000000E+00 0.  1.
         21   -1    0    0  501  502 -0.00000000000E+00 -0.00000000000E+00 -0.94078928893E+03  0.94078928893E+03  0.00000000000E+00 0.  1.
         25    1    1    2    0    0 -0.13795883311E+03  0.10696924749E+03 -0.49450044079E+03  0.53910179510E+03  0.12500000000E+03 0.  0.
         25    1    1    2    0    0  0.20196214452E+03  0.22413335329E+02 -0.24648825415E+03  0.34303429107E+03  0.12500000000E+03 0.  0.
         25    1    1    2    0    0 -0.64003311412E+02 -0.12938258282E+03 -0.58689577840E+02  0.19976421891E+03  0.12500000000E+03 0.  0.
</event>
<event>
 5    0  0.5605075E-005  0.3493256E+03  0.7546771E-02  0.1062892E+00
         21   -1    0    0  502  501  0.00000000000E+00  0.00000000000E+00  0.25964393146E+04  0.25964393146E+04  0.00000000000E+00 0.  1.
         21   -1    0    0  501  502 -0.00000000000E+00 -0.00000000000E+00 -0.46998358614E+02  0.46998358614E+02  0.00000000000E+00 0.  1.
         25    1    1    2    0    0 -0.11164193343E+03  0.12504078539E+03  0.12123408778E+04  0.12302416524E+04  0.12500000000E+03 0.  0.
         25    1    1    2    0    0 -0.17084778528E+02  0.67040996748E+02  0.19800228379E+03  0.24416447180E+03  0.12500000000E+03 0.  0.
         25    1    1    2    0    0  0.12872671196E+03 -0.19208178214E+03  0.11390977944E+04  0.11690315490E+04  0.12500000000E+03 0.  0.
</event>
<event>
 5    0  0.5605075E-005  0.3164656E+03  0.7546771E-02  0.1077288E+00
         21   -1    0    0  502  501  0.00000000000E+00  0.00000000000E+00  0.13146599832E+03  0.13146599832E+03  0.00000000000E+00 0. -1.
         21   -1    0    0  501  502 -0.00000000000E+00 -0.00000000000E+00 -0.76179742950E+03  0.76179742950E+03  0.00000000000E+00 0. -1.
         25    1    1    2    0    0 -0.62311010765E+02 -0.67259917406E+02 -0.55560872001E+03  0.57682979145E+03  0.12500000000E+03 0.  0.
         25    1    1    2    0    0  0.95522683104E+02  0.60443255868E+02 -0.33751545432E+01  0.16856560099E+03  0.12500000000E+03 0.  0.
         25    1    1    2    0    0 -0.33211672339E+02  0.68166615387E+01 -0.71347556624E+02  0.14786803539E+03  0.12500000000E+03 0.  0.
</event>
<event>
 5    0  0.5772319E-005  0.3030362E+03  0.7546771E-02  0.1083733E+00
         21   -1    0    0  502  501  0.00000000000E+00  0.00000000000E+00  0.37461538995E+03  0.37461538995E+03  0.00000000000E+00 0. -1.
         21   -1    0    0  501  502 -0.00000000000E+00 -0.00000000000E+00 -0.24513390635E+03  0.24513390635E+03  0.00000000000E+00 0. -1.
         25    1    1    2    0    0  0.10532338868E+03 -0.13647140240E+03 -0.91099076339E+01  0.21313247123E+03  0.12500000000E+03 0.  0.
         25    1    1    2    0    0 -0.12866418727E+03  0.17298918722E+03  0.10265141452E+03  0.26952188201E+03  0.12500000000E+03 0.  0.
         25    1    1    2    0    0  0.23340798590E+02 -0.36517784825E+02  0.35939976701E+02  0.13709494306E+03  0.12500000000E+03 0.  0.
</event>
<event>
 5    0  0.5915439E-005  0.2781914E+03  0.7546771E-02  0.1096681E+00
         21   -1    0    0  502  501  0.00000000000E+00  0.00000000000E+00  0.60475632737E+03  0.60475632737E+03  0.00000000000E+00 0.  1.
         21   -1    0    0  501  502 -0.00000000000E+00 -0.00000000000E+00 -0.12796963068E+03  0.12796963068E+03  0.00000000000E+00 0.  1.
         25    1    1    2    0    0  0.10465380093E+03  0.32029486796E+02  0.14821481108E+03  0.22264531501E+03  0.12500000000E+03 0.  0.
         25    1    1    2    0    0 -0.19008739298E+03  0.64402548822E+01  0.23888723752E+03  0.32994970239E+03  0.12500000000E+03 0.  0.
         25    1    1    2    0    0  0.85433592048E+02 -0.38469741678E+02  0.89684648088E+02  0.18013094064E+03  0.12500000000E+03 0.  0.
</event>
<event>
 5    0  0.5605075E-005  0.5592800E+03  0.7546771E-02  0.9993685E-01
         21   -1    0    0  502  501  0.00000000000E+00  0.00000000000E+00  0.34246928598E+03  0.34246928598E+03  0.00000000000E+00 0. -1.
         21   -1    0    0  501  502 -0.00000000000E+00 -0.00000000000E+00 -0.91334929442E+03  0.91334929442E+03  0.00000000000E+00 0. -1.
         25    1    1    2    0    0 -0.33313273777E+03 -0.27345058645E+03 -0.90648444002E+02  0.45781522977E+03  0.12500000000E+03 0.  0.
         25    1    1    2    0    0  0.48868370675E+02  0.29437078653E+03 -0.28049524813E+03  0.42818788147E+03  0.12500000000E+03 0.  0.
         25    1    1    2    0    0  0.28426436710E+03 -0.20920200081E+02 -0.19973631632E+03  0.36981546916E+03  0.12500000000E+03 0.  0.
</event>
<event>
 5    0  0.5605075E-005  0.3088192E+03  0.7546771E-02  0.1080913E+00
         21   -1    0    0  502  501  0.00000000000E+00  0.00000000000E+00  0.13111232294E+04  0.13111232294E+04  0.00000000000E+00 0.  1.
         21   -1    0    0  501  502 -0.00000000000E+00 -0.00000000000E+00 -0.72738614718E+02  0.72738614718E+02  0.00000000000E+00 0.  1.
         25    1    1    2    0    0 -0.51760428381E+02  0.66654853258E+02  0.82432609230E+03  0.83800985546E+03  0.12500000000E+03 0.  0.
         25    1    1    2    0    0 -0.72746447249E+02  0.37967651863E+02  0.15418939999E+03  0.21478584508E+03  0.12500000000E+03 0.  0.
         25    1    1    2    0    0  0.12450687563E+03 -0.10462250512E+03  0.25986912244E+03  0.33106614362E+03  0.12500000000E+03 0.  0.
</event>
<event>
 5    0  0.5605075E-005  0.2279597E+03  0.7546771E-02  0.1128084E+00
         21   -1    0    0  502  501  0.00000000000E+00  0.00000000000E+00  0.72919951976E+02  0.72919951976E+02  0.00000000000E+00 0. -1.
         21   -1    0    0  501  502 -0.00000000000E+00 -0.00000000000E+00 -0.71263938666E+03  0.71263938666E+03  0.00000000000E+00 0. -1.
         25    1    1    2    0    0 -0.48784319422E+02 -0.38985228563E+02 -0.11213846895E+03  0.17916415402E+03  0.12500000000E+03 0.  0.
         25    1    1    2    0    0 -0.28265553607E+02  0.73966085681E+02 -0.25642894873E+03  0.29605865821E+03  0.12500000000E+03 0.  0.
         25    1    1    2    0    0  0.77049873028E+02 -0.34980857118E+02 -0.27115201700E+03  0.31033652641E+03  0.12500000000E+03 0.  0.
</event>
<event>
 5    0  0.5605075E-005  0.3795567E+03  0.7546771E-02  0.1051098E+00
         21   -1    0    0  502  501  0.00000000000E+00  0.00000000000E+00  0.92759333667E+03  0.92759333667E+03  0.00000000000E+00 0. -1.
         21   -1    0    0  501  502 -0.00000000000E+00 -0.00000000000E+00 -0.15530863294E+03  0.15530863294E+03  0.00000000000E+00 0. -1.
         25    1    1    2    0    0 -0.20290350264E+03 -0.88339370203E+02  0.83545275258E+02  0.26754156449E+03  0.12500000000E+03 0.  0.
         25    1    1    2    0    0  0.25119020083E+03  0.61636703392E+02  0.55076566244E+03  0.62117905238E+03  0.12500000000E+03 0.  0.
         25    1    1    2    0    0 -0.48286698195E+02  0.26702666811E+02  0.13797376603E+03  0.19418135273E+03  0.12500000000E+03 0.  0.
</event>
<event>
 5    0  0.5605075E-005  0.3323207E+03  0.7546771E-02  0.1070115E+00
         21   -1    0    0  502  501  0.00000000000E+00  0.00000000000E+00  0.12104876318E+03  0.12104876318E+03  0.00000000000E+00 0.  1.
         21   -1    0    0  501  502 -0.00000000000E+00 -0.00000000000E+00 -0.91233516842E+03  0.91233516842E+03  0.00000000000E+00 0.  1.
         25    1    1    2    0    0  0.21368669049E+03 -0.39098918159E+01 -0.16819128480E+03  0.29931688430E+03  0.12500000000E+03 0.  0.
         25    1    1    2    0    0 -0.58203606900E+02  0.94326233246E+02 -0.23329311052E+03  0.28694210836E+03  0.12500000000E+03 0.  0.
         25    1    1    2    0    0 -0.15548308359E+03 -0.90416341430E+02 -0.38980200992E+03  0.44712493894E+03  0.12500000000E+03 0.  0.
</event>
<event>
 5    0  0.5605075E-005  0.3491178E+03  0.7546771E-02  0.1062978E+00
         21   -1    0    0  502  501  0.00000000000E+00  0.00000000000E+00  0.15686988025E+03  0.15686988025E+03  0.00000000000E+00 0.  1.
         21   -1    0    0  501  502 -0.00000000000E+00 -0.00000000000E+00 -0.77697040045E+03  0.77697040045E+03  0.00000000000E+00 0.  1.
         25    1    1    2    0    0  0.57412836208E+02 -0.15203566569E+02 -0.34049241700E+03  0.36754247133E+03  0.12500000000E+03 0.  0.
         25    1    1    2    0    0 -0.22493400723E+03 -0.10913663359E+02 -0.23982486145E+03  0.35193093048E+03  0.12500000000E+03 0.  0.
         25    1    1    2    0    0  0.16752117102E+03  0.26117229928E+02 -0.39783241740E+02  0.21436687889E+03  0.12500000000E+03 0.  0.
</event>
<event>
 5    0  0.5605075E-005  0.2869111E+03  0.7546771E-02  0.1091973E+00
         21   -1    0    0  502  501  0.00000000000E+00  0.00000000000E+00  0.38002949498E+03  0.38002949498E+03  0.00000000000E+00 0.  1.
         21   -1    0    0  501  502 -0.00000000000E+00 -0.00000000000E+00 -0.21660945730E+03  0.21660945730E+03  0.00000000000E+00 0.  1.
         25    1    1    2    0    0  0.23448048762E+02  0.16978075797E+03  0.62366826555E+02  0.22111069134E+03  0.12500000000E+03 0.  0.
         25    1    1    2    0    0  0.93579431443E+01  0.21066725512E+02  0.63204546305E+02  0.14195489670E+03  0.12500000000E+03 0.  0.
         25    1    1    2    0    0 -0.32805991906E+02 -0.19084748348E+03  0.37848664816E+02  0.23357336425E+03  0.12500000000E+03 0.  0.
</event>
<event>
 5    0  0.5605075E-005  0.4237281E+03  0.7546771E-02  0.1035860E+00
         21   -1    0    0  502  501  0.00000000000E+00  0.00000000000E+00  0.95994316528E+03  0.95994316528E+03  0.00000000000E+00 0.  1.
         21   -1    0    0  501  502 -0.00000000000E+00 -0.00000000000E+00 -0.18703763716E+03  0.18703763716E+03  0.00000000000E+00 0.  1.
         25    1    1    2    0    0 -0.11346619114E+02 -0.35079799552E+02 -0.54703326327E+02  0.14133927980E+03  0.12500000000E+03 0.  0.
         25    1    1    2    0    0 -0.15497023579E+03 -0.15872030323E+03  0.56005412152E+03  0.61521827644E+03  0.12500000000E+03 0.  0.
         25    1    1    2    0    0  0.16631685490E+03  0.19380010279E+03  0.26755473292E+03  0.39042324620E+03  0.12500000000E+03 0.  0.
</event>
<event>
 5    0  0.5605075E-005  0.2781960E+03  0.7546771E-02  0.1096678E+00
         21   -1    0    0  502  501  0.00000000000E+00  0.00000000000E+00  0.65850493451E+03  0.65850493451E+03  0.00000000000E+00 0. -1.
         21   -1    0    0  501  502 -0.00000000000E+00 -0.00000000000E+00 -0.11752835420E+03  0.11752835420E+03  0.00000000000E+00 0. -1.
         25    1    1    2    0    0  0.45689871515E+02 -0.15292260850E+02  0.22896902243E+03  0.26527953338E+03  0.12500000000E+03 0.  0.
         25    1    1    2    0    0 -0.92756697796E+02  0.84254772915E+02  0.31396748537E+03  0.36042093948E+03  0.12500000000E+03 0.  0.
         25    1    1    2    0    0  0.47066826281E+02 -0.68962512065E+02 -0.19599274867E+01  0.15033281585E+03  0.12500000000E+03 0.  0.
</event>
<event>
 5    0  0.5605075E-005  0.2531408E+03  0.7546771E-02  0.1111336E+00
         21   -1    0    0  502  501  0.00000000000E+00  0.00000000000E+00  0.22718250446E+02  0.22718250446E+02  0.00000000000E+00 0.  1.
         21   -1    0    0  501  502 -0.00000000000E+00 -0.00000000000E+00 -0.28206519093E+04  0.28206519093E+04  0.00000000000E+00 0.  1.
         25    1    1    2    0    0  0.91804823567E+01 -0.23309907188E+02 -0.23754098071E+03  0.26958922557E+03  0.12500000000E+03 0.  0.
         25    1    1    2    0    0 -0.98329765003E+01  0.48395196793E+02 -0.13736604822E+04  0.13802198749E+04  0.12500000000E+03 0.  0.
         25    1    1    2    0    0  0.65249414363E+00 -0.25085289605E+02 -0.11867321960E+04  0.11935610594E+04  0.12500000000E+03 0.  0.
</event>
<event>
 5    0  0.5605075E-005  0.2645878E+03  0.7546771E-02  0.1104418E+00
         21   -1    0    0  502  501  0.00000000000E+00  0.00000000000E+00  0.27186878432E+03  0.27186878432E+03  0.00000000000E+00 0. -1.
         21   -1    0    0  501  502 -0.00000000000E+00 -0.00000000000E+00 -0.25750189078E+03  0.25750189078E+03  0.00000000000E+00 0. -1.
         25    1    1    2    0    0 -0.41107727855E+01  0.77686145783E+02  0.14798377232E+03  0.20874920974E+03  0.12500000000E+03 0.  0.
         25    1    1    2    0    0 -0.49792130146E+02 -0.15736440863E+02 -0.97080974380E+02  0.16666315544E+03  0.12500000000E+03 0.  0.
         25    1    1    2    0    0  0.53902902931E+02 -0.61949704920E+02 -0.36535904395E+02  0.15395830992E+03  0.12500000000E+03 0.  0.
</event>
<event>
 5    0  0.5605075E-005  0.5076178E+03  0.7546771E-02  0.1011809E+00
         21   -1    0    0  502  501  0.00000000000E+00  0.00000000000E+00  0.39764193423E+03  0.39764193423E+03  0.00000000000E+00 0.  1.
         21   -1    0    0  501  502 -0.00000000000E+00 -0.00000000000E+00 -0.64800973950E+03  0.64800973950E+03  0.00000000000E+00 0.  1.
         25    1    1    2    0    0  0.77299848250E+02  0.68401440958E+02 -0.28197954076E+01  0.16213258436E+03  0.12500000000E+03 0.  0.
         25    1    1    2    0    0  0.34870252716E+03 -0.10668130803E+03 -0.20304844025E+03  0.43569257857E+03  0.12500000000E+03 0.  0.
         25    1    1    2    0    0 -0.42600237541E+03  0.38279867067E+02 -0.44499569618E+02  0.44782651080E+03  0.12500000000E+03 0.  0.
</event>
<event>
 5    0  0.5605075E-005  0.3728449E+03  0.7546771E-02  0.1053610E+00
         21   -1    0    0  502  501  0.00000000000E+00  0.00000000000E+00  0.76172093727E+03  0.76172093727E+03  0.00000000000E+00 0. -1.
         21   -1    0    0  501  502 -0.00000000000E+00 -0.00000000000E+00 -0.18249898726E+03  0.18249898726E+03  0.00000000000E+00 0. -1.
         25    1    1    2    0    0  0.46854430376E+02 -0.96161562165E+02  0.21832042912E+03  0.27337006686E+03  0.12500000000E+03 0.  0.
         25    1    1    2    0    0  0.57108120293E+02  0.22699773031E+03  0.37757590355E+03  0.46149525449E+03  0.12500000000E+03 0.  0.
         25    1    1    2    0    0 -0.10396255067E+03 -0.13083616814E+03 -0.16674382664E+02  0.20935460318E+03  0.12500000000E+03 0.  0.
</event>
<event>
 5    0  0.5605075E-005  0.5466219E+03  0.7546771E-02  0.1002279E+00
         21   -1    0    0  502  501  0.00000000000E+00  0.00000000000E+00  0.18888488044E+04  0.18888488044E+04  0.00000000000E+00 0. -1.
         21   -1    0    0  501  502 -0.00000000000E+00 -0.00000000000E+00 -0.15818922594E+03  0.15818922594E+03  0.00000000000E+00 0. -1.
         25    1    1    2    0    0  0.34845104915E+03  0.81866620585E+02  0.17438124350E+03  0.41731773903E+03  0.12500000000E+03 0.  0.
         25    1    1    2    0    0 -0.11766436169E+03  0.53153759439E+02  0.74653592981E+03  0.76786139286E+03  0.12500000000E+03 0.  0.
         25    1    1    2    0    0 -0.23078668746E+03 -0.13502038002E+03  0.80974240513E+03  0.86185889843E+03  0.12500000000E+03 0.  0.
</event>
<event>
 5    0  0.5605075E-005  0.3085295E+03  0.7546771E-02  0.1081053E+00
         21   -1    0    0  502  501  0.00000000000E+00  0.00000000000E+00  0.67526760758E+03  0.67526760758E+03  0.00000000000E+00 0. -1.
         21   -1    0    0  501  502 -0.00000000000E+00 -0.00000000000E+00 -0.14096696412E+03  0.14096696412E+03  0.00000000000E+00 0. -1.
         25    1    1    2    0    0  0.86106870317E+02 -0.76506887814E+02  0.23224758431E+03  0.28780485996E+03  0.12500000000E+03 0.  0.
         25    1    1    2    0    0 -0.19016938166E+03  0.89618379439E+02  0.26593378842E+03  0.36130544900E+03  0.12500000000E+03 0.  0.
         25    1    1    2    0    0  0.10406251135E+03 -0.13111491625E+02  0.36119270737E+02  0.16712426275E+03  0.12500000000E+03 0.  0.
</event>
<event>
 5    0  0.5605075E-005  0.3397870E+03  0.7546771E-02  0.1066887E+00
         21   -1    0    0  502  501  0.00000000000E+00  0.00000000000E+00  0.11714861358E+04  0.11714861358E+04  0.00000000000E+00 0.  1.
         21   -1    0    0  501  502 -0.00000000000E+00 -0.00000000000E+00 -0.98554467569E+02  0.98554467569E+02  0.00000000000E+00 0.  1.
         25    1    1    2    0    0  0.13306926706E+01 -0.58338453362E+02  0.46084589578E+03  0.48104998237E+03  0.12500000000E+03 0.  0.
         25    1    1    2    0    0 -0.16403738919E+03  0.98477437833E+02  0.50452893836E+03  0.55387771255E+03  0.12500000000E+03 0.  0.
         25    1    1    2    0    0  0.16270669652E+03 -0.40138984471E+02  0.10755683411E+03  0.23511290847E+03  0.12500000000E+03 0.  0.
</event>
<event>
 5    0  0.6144675E-005  0.3324552E+03  0.7546771E-02  0.1070056E+00
         21   -1    0    0  502  501  0.00000000000E+00  0.00000000000E+00  0.71838576317E+03  0.71838576317E+03  0.00000000000E+00 0.  1.
         21   -1    0    0  501  502 -0.00000000000E+00 -0.00000000000E+00 -0.15385388475E+03  0.15385388475E+03  0.00000000000E+00 0.  1.
         25    1    1    2    0    0 -0.47726887742E+02 -0.59119243499E+02  0.52310570931E+03  0.54317356699E+03  0.12500000000E+03 0.  0.
         25    1    1    2    0    0 -0.38003587735E+02  0.93062264165E+02  0.62827304849E+02  0.17227050800E+03  0.12500000000E+03 0.  0.
         25    1    1    2    0    0  0.85730475477E+02 -0.33943020666E+02 -0.21401135744E+02  0.15679557292E+03  0.12500000000E+03 0.  0.
</event>
<event>
 5    0  0.5791881E-005  0.2976839E+03  0.7546771E-02  0.1086404E+00
         21   -1    0    0  502  501  0.00000000000E+00  0.00000000000E+00  0.70000131055E+03  0.70000131055E+03  0.00000000000E+00 0.  1.
         21   -1    0    0  501  502 -0.00000000000E+00 -0.00000000000E+00 -0.12659361171E+03  0.12659361171E+03  0.00000000000E+00 0.  1.
         25    1    1    2    0    0 -0.23732928066E+02 -0.18163124180E+02  0.40293443445E+03  0.42293534899E+03  0.12500000000E+03 0.  0.
         25    1    1    2    0    0  0.64642766160E+02 -0.97421526623E+02  0.14960630819E+03  0.22732507234E+03  0.12500000000E+03 0.  0.
         25    1    1    2    0    0 -0.40909838094E+02  0.11558465080E+03  0.20866956198E+02  0.17633450092E+03  0.12500000000E+03 0.  0.
</event>
<event>
 5    0  0.5605075E-005  0.3617250E+03  0.7546771E-02  0.1057903E+00
         21   -1    0    0  502  501  0.00000000000E+00  0.00000000000E+00  0.14835481654E+04  0.14835481654E+04  0.00000000000E+00 0. -1.
         21   -1    0    0  501  502 -0.00000000000E+00 -0.00000000000E+00 -0.88197346385E+02  0.88197346385E+02  0.00000000000E+00 0. -1.
         25    1    1    2    0    0  0.11036830936E+03 -0.13941017154E+03  0.74600652879E+03  0.77702451740E+03  0.12500000000E+03 0.  0.
         25    1    1    2    0    0  0.15237747111E+02  0.11336761541E+03  0.61595012701E+02  0.18028685684E+03  0.12500000000E+03 0.  0.
         25    1    1    2    0    0 -0.12560605647E+03  0.26042556138E+02  0.58774927753E+03  0.61443413756E+03  0.12500000000E+03 0.  0.
</event>
<event>
 5    0  0.5605075E-005  0.4396318E+03  0.7546771E-02  0.1030860E+00
         21   -1    0    0  502  501  0.00000000000E+00  0.00000000000E+00  0.20208477600E+04  0.20208477600E+04  0.00000000000E+00 0. -1.
         21   -1    0    0  501  502 -0.00000000000E+00 -0.00000000000E+00 -0.95641103713E+02  0.95641103713E+02  0.00000000000E+00 0. -1.
         25    1    1    2    0    0 -0.69859103213E+02 -0.18606126581E+03  0.14926423647E+03  0.27821556611E+03  0.12500000000E+03 0.  0.
         25    1    1    2    0    0  0.40303442083E+02 -0.38794858904E+02  0.20763427463E+03  0.24872957308E+03  0.12500000000E+03 0.  0.
         25    1    1    2    0    0  0.29555661130E+02  0.22485612472E+03  0.15683081452E+04  0.15895437246E+04  0.12500000000E+03 0.  0.
</event>
<event>
 5    0  0.5605075E-005  0.4347318E+03  0.7546771E-02  0.1032376E+00
         21   -1    0    0  502  501  0.00000000000E+00  0.00000000000E+00  0.16540055952E+04  0.16540055952E+04  0.00000000000E+00 0. -1.
         21   -1    0    0  501  502 -0.00000000000E+00 -0.00000000000E+00 -0.11426303943E+03  0.11426303943E+03  0.00000000000E+00 0. -1.
         25    1    1    2    0    0  0.90962345234E+02 -0.12934341401E+03  0.16010574911E+02  0.20220090382E+03  0.12500000000E+03 0.  0.
         25    1    1    2    0    0 -0.56522365440E+02  0.13707790399E+03  0.53941412541E+03  0.57321699927E+03  0.12500000000E+03 0.  0.
         25    1    1    2    0    0 -0.34439979794E+02 -0.77344899830E+01  0.98431785542E+03  0.99285073150E+03  0.12500000000E+03 0.  0.
</event>
<event>
 5    0  0.5605075E-005  0.2996484E+03  0.7546771E-02  0.1085416E+00
         21   -1    0    0  502  501  0.00000000000E+00  0.00000000000E+00  0.15062529896E+03  0.15062529896E+03  0.00000000000E+00 0. -1.
         21   -1    0    0  501  502 -0.00000000000E+00 -0.00000000000E+00 -0.59610958781E+03  0.59610958781E+03  0.00000000000E+00 0. -1.
         25    1    1    2    0    0 -0.33773974566E+02 -0.15777719725E+03 -0.42679742265E+02  0.20852070815E+03  0.12500000000E+03 0.  0.
         25    1    1    2    0    0 -0.53308024163E+02  0.14315299509E+03 -0.17508489144E+03  0.26384511489E+03  0.12500000000E+03 0.  0.
         25    1    1    2    0    0  0.87081998729E+02  0.14624202158E+02 -0.22771965514E+03  0.27436906372E+03  0.12500000000E+03 0.  0.
</event>
<event>
 5    0  0.5605075E-005  0.5155939E+03  0.7546771E-02  0.1009787E+00
         21   -1    0    0  502  501  0.00000000000E+00  0.00000000000E+00  0.20194141424E+03  0.20194141424E+03  0.00000000000E+00 0.  1.
         21   -1    0    0  501  502 -0.00000000000E+00 -0.00000000000E+00 -0.13164067013E+04  0.13164067013E+04  0.00000000000E+00 0.  1.
         25    1    1    2    0    0 -0.10311745095E+03  0.34182980442E+03 -0.61036261160E+03  0.71808658358E+03  0.12500000000E+03 0.  0.
         25    1    1    2    0    0 -0.89760747038E+02 -0.35859279559E+03 -0.33707530880E+03  0.51564575880E+03  0.12500000000E+03 0.  0.
         25    1    1    2    0    0  0.19287819799E+03  0.16762991178E+02 -0.16702736670E+03  0.28461577321E+03  0.12500000000E+03 0.  0.
</event>
<event>
 5    0  0.5605075E-005  0.2504898E+03  0.7546771E-02  0.1112996E+00
         21   -1    0    0  502  501  0.00000000000E+00  0.00000000000E+00  0.96304589889E+02  0.96304589889E+02  0.00000000000E+00 0. -1.
         21   -1    0    0  501  502 -0.00000000000E+00 -0.00000000000E+00 -0.65152778377E+03  0.65152778377E+03  0.00000000000E+00 0. -1.
         25    1    1    2    0    0 -0.69468514372E+02 -0.51243481289E+02 -0.30474889171E+03  0.34051234318E+03  0.12500000000E+03 0.  0.
         25    1    1    2    0    0  0.58037199186E+02  0.10453169663E+03 -0.84498676573E+02  0.19251030734E+03  0.12500000000E+03 0.  0.
         25    1    1    2    0    0  0.11431315186E+02 -0.53288215337E+02 -0.16597562560E+03  0.21480972314E+03  0.12500000000E+03 0.  0.
</event>
<event>
 5    0  0.5605075E-005  0.2428460E+03  0.7546771E-02  0.1117911E+00
         21   -1    0    0  502  501  0.00000000000E+00  0.00000000000E+00  0.87673047025E+03  0.87673047025E+03  0.00000000000E+00 0. -1.
         21   -1    0    0  501  502 -0.00000000000E+00 -0.00000000000E+00 -0.67266041946E+02  0.67266041946E+02  0.00000000000E+00 0. -1.
         25    1    1    2    0    0  0.52131393433E+02  0.27275213200E+02  0.43252595176E+03  0.45405431215E+03  0.12500000000E+03 0.  0.
         25    1    1    2    0    0 -0.93697141511E+01 -0.42397794797E+02  0.31811147804E+03  0.34453632175E+03  0.12500000000E+03 0.  0.
         25    1    1    2    0    0 -0.42761679282E+02  0.15122581597E+02  0.58826998507E+02  0.14540587829E+03  0.12500000000E+03 0.  0.
</event>
<event>
 5    0  0.5605075E-005  0.3152332E+03  0.7546771E-02  0.1077864E+00
         21   -1    0    0  502  501  0.00000000000E+00  0.00000000000E+00  0.36296760985E+03  0.36296760985E+03  0.00000000000E+00 0.  1.
         21   -1    0    0  501  502 -0.00000000000E+00 -0.00000000000E+00 -0.27377646921E+03  0.27377646921E+03  0.00000000000E+00 0. -1.
         25    1    1    2    0    0  0.12951269654E+03 -0.26637877892E+02 -0.10750456967E+03  0.21134177912E+03  0.12500000000E+03 0.  0.
         25    1    1    2    0    0 -0.12729565828E+03  0.79530896809E+01 -0.14600728372E+02  0.17918040496E+03  0.12500000000E+03 0.  0.
         25    1    1    2    0    0 -0.22170382621E+01  0.18684788211E+02  0.21129643867E+03  0.24622189498E+03  0.12500000000E+03 0.  0.
</event>
<event>
 5    0  0.5605075E-005  0.2654508E+03  0.7546771E-02  0.1103912E+00
         21   -1    0    0  502  501  0.00000000000E+00  0.00000000000E+00  0.51116724961E+02  0.51116724961E+02  0.00000000000E+00 0.  1.
         21   -1    0    0  501  502 -0.00000000000E+00 -0.00000000000E+00 -0.13784947778E+04  0.13784947778E+04  0.00000000000E+00 0.  1.
         25    1    1    2    0    0 -0.66248130333E+02  0.48828875527E+02 -0.51929067303E+03  0.54042656943E+03  0.12500000000E+03 0.  0.
         25    1    1    2    0    0 -0.20079919038E+02 -0.13825148266E+03 -0.32846694114E+03  0.37819599023E+03  0.12500000000E+03 0.  0.
         25    1    1    2    0    0  0.86328049371E+02  0.89422607131E+02 -0.47962043869E+03  0.51098894311E+03  0.12500000000E+03 0.  0.
</event>
<event>
 5    0  0.5605075E-005  0.2392635E+03  0.7546771E-02  0.1120284E+00
         21   -1    0    0  502  501  0.00000000000E+00  0.00000000000E+00  0.24144578816E+04  0.24144578816E+04  0.00000000000E+00 0.  1.
         21   -1    0    0  501  502 -0.00000000000E+00 -0.00000000000E+00 -0.23710087428E+02  0.23710087428E+02  0.00000000000E+00 0.  1.
         25    1    1    2    0    0  0.37907235627E+01  0.50241000847E+02  0.40624084282E+03  0.42801302565E+03  0.12500000000E+03 0.  0.
         25    1    1    2    0    0 -0.74691827469E+02 -0.60175632828E+02  0.69548335807E+03  0.71310733920E+03  0.12500000000E+03 0.  0.
         25    1    1    2    0    0  0.70901103906E+02  0.99346319812E+01  0.12890235933E+04  0.12970476041E+04  0.12500000000E+03 0.  0.
</event>
<event>
 5    0  0.5605075E-005  0.2024914E+03  0.7546771E-02  0.1147654E+00
         21   -1    0    0  502  501  0.00000000000E+00  0.00000000000E+00  0.70037754389E+03  0.70037754389E+03  0.00000000000E+00 0. -1.
         21   -1    0    0  501  502 -0.00000000000E+00 -0.00000000000E+00 -0.58543808335E+02  0.58543808335E+02  0.00000000000E+00 0. -1.
         25    1    1    2    0    0 -0.45742860415E+01  0.42978223171E+02  0.24270552769E+03  0.27640373538E+03  0.12500000000E+03 0.  0.
         25    1    1    2    0    0  0.24967851534E+02  0.21092531476E+02  0.18850981832E+03  0.22853717443E+03  0.12500000000E+03 0.  0.
         25    1    1    2    0    0 -0.20393565493E+02 -0.64070754646E+02  0.21061838954E+03  0.25398044241E+03  0.12500000000E+03 0.  0.
</event>
<event>
 5    0  0.5605075E-005  0.2467891E+03  0.7546771E-02  0.1115351E+00
         21   -1    0    0  502  501  0.00000000000E+00  0.00000000000E+00  0.11396501690E+04  0.11396501690E+04  0.00000000000E+00 0. -1.
         21   -1    0    0  501  502 -0.00000000000E+00 -0.00000000000E+00 -0.53441716090E+02  0.53441716090E+02  0.00000000000E+00 0. -1.
         25    1    1    2    0    0 -0.70287055763E+02 -0.84799397285E+02  0.42792987862E+03  0.45921693022E+03  0.12500000000E+03 0.  0.
         25    1    1    2    0    0  0.48011189878E+02 -0.30918416103E+02  0.40626242549E+03  0.42887665030E+03  0.12500000000E+03 0.  0.
         25    1    1    2    0    0  0.22275865884E+02  0.11571781339E+03  0.25201614883E+03  0.30499830460E+03  0.12500000000E+03 0.  0.
</event>
<event>
 5    0  0.5605075E-005  0.2864982E+03  0.7546771E-02  0.1092192E+00
         21   -1    0    0  502  501  0.00000000000E+00  0.00000000000E+00  0.23318551044E+03  0.23318551044E+03  0.00000000000E+00 0. -1.
         21   -1    0    0  501  502 -0.00000000000E+00 -0.00000000000E+00 -0.35199963682E+03  0.35199963682E+03  0.00000000000E+00 0. -1.
         25    1    1    2    0    0  0.98816148334E+02  0.28400245918E+02 -0.71790347633E+02  0.17705947914E+03  0.12500000000E+03 0.  0.
         25    1    1    2    0    0 -0.93115021005E+02  0.60547942804E+02  0.10059694952E+03  0.19514406670E+03  0.12500000000E+03 0.  0.
         25    1    1    2    0    0 -0.57011273285E+01 -0.88948188722E+02 -0.14762072826E+03  0.21298160142E+03  0.12500000000E+03 0.  0.
</event>
<event>
 5    0  0.5605075E-005  0.3658005E+03  0.7546771E-02  0.1056310E+00
         21   -1    0    0  502  501  0.00000000000E+00  0.00000000000E+00  0.10410184766E+04  0.10410184766E+04  0.00000000000E+00 0.  1.
         21   -1    0    0  501  502 -0.00000000000E+00 -0.00000000000E+00 -0.12853761274E+03  0.12853761274E+03  0.00000000000E+00 0.  1.
         25    1    1    2    0    0  0.92344064743E+02 -0.74870687496E+01 -0.14294223625E+02  0.15624598337E+03  0.12500000000E+03 0.  0.
         25    1    1    2    0    0 -0.14026676045E+03  0.71650753050E+02  0.25197877407E+03  0.32237694874E+03  0.12500000000E+03 0.  0.
         25    1    1    2    0    0  0.47922695707E+02 -0.64163684300E+02  0.67479631341E+03  0.69093315721E+03  0.12500000000E+03 0.  0.
</event>
<event>
 5    0  0.5605075E-005  0.4020338E+03  0.7546771E-02  0.1043078E+00
         21   -1    0    0  502  501  0.00000000000E+00  0.00000000000E+00  0.56671223591E+03  0.56671223591E+03  0.00000000000E+00 0. -1.
         21   -1    0    0  501  502 -0.00000000000E+00 -0.00000000000E+00 -0.28520853211E+03  0.28520853211E+03  0.00000000000E+00 0. -1.
         25    1    1    2    0    0  0.86845859561E+01 -0.25147760500E+02  0.50641362037E+02  0.13746773963E+03  0.12500000000E+03 0.  0.
         25    1    1    2    0    0 -0.16167489724E+03  0.17298310041E+03 -0.11350346830E+03  0.29080915175E+03  0.12500000000E+03 0.  0.
         25    1    1    2    0    0  0.15299031128E+03 -0.14783533991E+03  0.34436581006E+03  0.42364387664E+03  0.12500000000E+03 0.  0.
</event>
<event>
 5    0  0.5605075E-005  0.2993220E+03  0.7546771E-02  0.1085580E+00
         21   -1    0    0  502  501  0.00000000000E+00  0.00000000000E+00  0.10785633766E+03  0.10785633766E+03  0.00000000000E+00 0. -1.
         21   -1    0    0  501  502 -0.00000000000E+00 -0.00000000000E+00 -0.83067577475E+03  0.83067577475E+03  0.00000000000E+00 0. -1.
         25    1    1    2    0    0 -0.11092219092E+03  0.26295687447E+02 -0.37875985066E+03  0.41482432437E+03  0.12500000000E+03 0.  0.
         25    1    1    2    0    0  0.52476976163E+02 -0.12693967030E+03 -0.29035348396E+03  0.34467036219E+03  0.12500000000E+03 0.  0.
         25    1    1    2    0    0  0.58445214753E+02  0.10064398286E+03 -0.53706102472E+02  0.17903742585E+03  0.12500000000E+03 0.  0.
</event>
<event>
 5    0  0.5605075E-005  0.2863088E+03  0.7546771E-02  0.1092292E+00
         21   -1    0    0  502  501  0.00000000000E+00  0.00000000000E+00  0.17294317520E+03  0.17294317520E+03  0.00000000000E+00 0.  1.
         21   -1    0    0  501  502 -0.00000000000E+00 -0.00000000000E+00 -0.47398650203E+03  0.47398650203E+03  0.00000000000E+00 0.  1.
         25    1    1    2    0    0 -0.84344777814E+02 -0.44414844388E+02  0.54266609234E+02  0.16630269037E+03  0.12500000000E+03 0.  0.
         25    1    1    2    0    0  0.13605970893E+03  0.33614094613E+02 -0.21370516691E+03  0.28449437625E+03  0.12500000000E+03 0.  0.
         25    1    1    2    0    0 -0.51714931118E+02  0.10800749775E+02 -0.14160476915E+03  0.19613261061E+03  0.12500000000E+03 0.  0.
</event>
<event>
 5    0  0.5605075E-005  0.3975502E+03  0.7546771E-02  0.1044631E+00
         21   -1    0    0  502  501  0.00000000000E+00  0.00000000000E+00  0.11819391042E+03  0.11819391042E+03  0.00000000000E+00 0. -1.
         21   -1    0    0  501  502 -0.00000000000E+00 -0.00000000000E+00 -0.13371766328E+04  0.13371766328E+04  0.00000000000E+00 0. -1.
         25    1    1    2    0    0 -0.19494674231E+02 -0.88642650927E+02 -0.43849563040E+03  0.46490964689E+03  0.12500000000E+03 0.  0.
         25    1    1    2    0    0 -0.16041659340E+03  0.36362883091E+02 -0.32291937619E+02  0.20910167847E+03  0.12500000000E+03 0.  0.
         25    1    1    2    0    0  0.17991126763E+03  0.52279767836E+02 -0.74819515440E+03  0.78135921791E+03  0.12500000000E+03 0.  0.
</event>
<event>
 5    0  0.5605075E-005  0.2932514E+03  0.7546771E-02  0.1088664E+00
         21   -1    0    0  502  501  0.00000000000E+00  0.00000000000E+00  0.11707527398E+03  0.11707527398E+03  0.00000000000E+00 0. -1.
         21   -1    0    0  501  502 -0.00000000000E+00 -0.00000000000E+00 -0.73453909910E+03  0.73453909910E+03  0.00000000000E+00 0. -1.
         25    1    1    2    0    0 -0.15064868750E+02  0.88312641833E+02 -0.12673491012E+03  0.19928073269E+03  0.12500000000E+03 0.  0.
         25    1    1    2    0    0  0.13004757878E+03 -0.74047427767E+02 -0.85865332807E+02  0.21305691653E+03  0.12500000000E+03 0.  0.
         25    1    1    2    0    0 -0.11498271003E+03 -0.14265214067E+02 -0.40486358219E+03  0.43927672386E+03  0.12500000000E+03 0.  0.
</event>
<event>
 5    0  0.5605075E-005  0.3787070E+03  0.7546771E-02  0.1051413E+00
         21   -1    0    0  502  501  0.00000000000E+00  0.00000000000E+00  0.69526092392E+02  0.69526092392E+02  0.00000000000E+00 0. -1.
         21   -1    0    0  501  502 -0.00000000000E+00 -0.00000000000E+00 -0.20628079298E+04  0.20628079298E+04  0.00000000000E+00 0. -1.
         25    1    1    2    0    0  0.10746035833E+03 -0.27812789733E+03 -0.75048334870E+03  0.81716161961E+03  0.12500000000E+03 0.  0.
         25    1    1    2    0    0 -0.58724154510E+01  0.19352621870E+03 -0.87489200839E+03  0.90473637537E+03  0.12500000000E+03 0.  0.
         25    1    1    2    0    0 -0.10158794288E+03  0.84601678628E+02 -0.36790648028E+03  0.41043602717E+03  0.12500000000E+03 0.  0.
</event>
<event>
 5    0  0.5605075E-005  0.3521605E+03  0.7546771E-02  0.1061732E+00
         21   -1    0    0  502  501  0.00000000000E+00  0.00000000000E+00  0.16297399369E+03  0.16297399369E+03  0.00000000000E+00 0. -1.
         21   -1    0    0  501  502 -0.00000000000E+00 -0.00000000000E+00 -0.76096205711E+03  0.76096205711E+03  0.00000000000E+00 0. -1.
         25    1    1    2    0    0  0.10120950256E+03 -0.57811986373E+02  0.25479797123E+02  0.17279991099E+03  0.12500000000E+03 0.  0.
         25    1    1    2    0    0 -0.96789120561E+02  0.18273281628E+03 -0.37831878030E+03  0.44889811264E+03  0.12500000000E+03 0.  0.
         25    1    1    2    0    0 -0.44203819963E+01 -0.12492082991E+03 -0.24514908025E+03  0.30223802717E+03  0.12500000000E+03 0.  0.
</event>
<event>
 5    0  0.5605075E-005  0.3407619E+03  0.7546771E-02  0.1066472E+00
         21   -1    0    0  502  501  0.00000000000E+00  0.00000000000E+00  0.12206060280E+04  0.12206060280E+04  0.00000000000E+00 0. -1.
         21   -1    0    0  501  502 -0.00000000000E+00 -0.00000000000E+00 -0.95131990358E+02  0.95131990358E+02  0.00000000000E+00 0. -1.
         25    1    1    2    0    0 -0.78470619120E+02 -0.54717411621E+02  0.50682018285E+03  0.53070079229E+03  0.12500000000E+03 0.  0.
         25    1    1    2    0    0 -0.57210123724E+02  0.40188422544E+02  0.41611209955E+01  0.14328441119E+03  0.12500000000E+03 0.  0.
         25    1    1    2    0    0  0.13568074284E+03  0.14528989077E+02  0.61449273378E+03  0.64175281485E+03  0.12500000000E+03 0.  0.
</event>
<event>
 5    0  0.5605075E-005  0.2829690E+03  0.7546771E-02  0.1094078E+00
         21   -1    0    0  502  501  0.00000000000E+00  0.00000000000E+00  0.16684159115E+03  0.16684159115E+03  0.00000000000E+00 0.  1.
         21   -1    0    0  501  502 -0.00000000000E+00 -0.00000000000E+00 -0.47992497726E+03  0.47992497726E+03  0.00000000000E+00 0.  1.
         25    1    1    2    0    0 -0.36564308453E+02  0.16235367630E+03 -0.21919759294E+03  0.30227181412E+03  0.12500000000E+03 0.  0.
         25    1    1    2    0    0  0.84102336107E+02 -0.68953878611E+02 -0.69019087443E+02  0.17948948366E+03  0.12500000000E+03 0.  0.
         25    1    1    2    0    0 -0.47538027654E+02 -0.93399797689E+02 -0.24866705721E+02  0.16500527063E+03  0.12500000000E+03 0.  0.
</event>
<event>
 5    0  0.5605075E-005  0.2606140E+03  0.7546771E-02  0.1106775E+00
         21   -1    0    0  502  501  0.00000000000E+00  0.00000000000E+00  0.30404824490E+03  0.30404824490E+03  0.00000000000E+00 0. -1.
         21   -1    0    0  501  502 -0.00000000000E+00 -0.00000000000E+00 -0.22338444385E+03  0.22338444385E+03  0.00000000000E+00 0. -1.
         25    1    1    2    0    0 -0.20670275823E+01 -0.10996591191E+02  0.49183230989E+02  0.13479312976E+03  0.12500000000E+03 0.  0.
         25    1    1    2    0    0 -0.10720074320E+03  0.10244646032E+03  0.55134836136E+02  0.20162372561E+03  0.12500000000E+03 0.  0.
         25    1    1    2    0    0  0.10926777078E+03 -0.91449869131E+02 -0.23654266080E+02  0.19101583337E+03  0.12500000000E+03 0.  0.
</event>
<event>
 5    0  0.5605075E-005  0.3257125E+03  0.7546771E-02  0.1073050E+00
         21   -1    0    0  502  501  0.00000000000E+00  0.00000000000E+00  0.73656744512E+02  0.73656744512E+02  0.00000000000E+00 0. -1.
         21   -1    0    0  501  502 -0.00000000000E+00 -0.00000000000E+00 -0.14403115769E+04  0.14403115769E+04  0.00000000000E+00 0. -1.
         25    1    1    2    0    0  0.63216174791E+02  0.59689942165E+02 -0.28078907864E+03  0.31941615587E+03  0.12500000000E+03 0.  0.
         25    1    1    2    0    0  0.91154167222E+02 -0.12427588197E+03 -0.19026188654E+03  0.27491482774E+03  0.12500000000E+03 0.  0.
         25    1    1    2    0    0 -0.15437034201E+03  0.64585939803E+02 -0.89560386721E+03  0.91963733780E+03  0.12500000000E+03 0.  0.
</event>
<event>
 5    0  0.5605075E-005  0.2494411E+03  0.7546771E-02  0.1113659E+00
         21   -1    0    0  502  501  0.00000000000E+00  0.00000000000E+00  0.16560717703E+03  0.16560717703E+03  0.00000000000E+00 0.  1.
         21   -1    0    0  501  502 -0.00000000000E+00 -0.00000000000E+00 -0.37571353276E+03  0.37571353276E+03  0.00000000000E+00 0.  1.
         25    1    1    2    0    0 -0.88116344346E+02  0.73600288964E+02 -0.71547387316E+02  0.18418881972E+03  0.12500000000E+03 0.  0.
         25    1    1    2    0    0  0.26448902060E+01 -0.11736814380E+03 -0.69220532690E+02  0.18492906415E+03  0.12500000000E+03 0.  0.
         25    1    1    2    0    0  0.85471454140E+02  0.43767854831E+02 -0.69338435723E+02  0.17220282593E+03  0.12500000000E+03 0.  0.
</event>
<event>
 5    0  0.5605075E-005  0.4694946E+03  0.7546771E-02  0.1022063E+00
         21   -1    0    0  502  501  0.00000000000E+00  0.00000000000E+00  0.22117922969E+03  0.22117922969E+03  0.00000000000E+00 0.  1.
         21   -1    0    0  501  502 -0.00000000000E+00 -0.00000000000E+00 -0.99659064913E+03  0.99659064913E+03  0.00000000000E+00 0.  1.
         25    1    1    2    0    0 -0.16364336624E+03 -0.24539358865E+03 -0.62625206906E+02  0.32641090853E+03  0.12500000000E+03 0.  0.
         25    1    1    2    0    0  0.55890480597E+02  0.35335513020E+02 -0.12631782536E+02  0.14197501975E+03  0.12500000000E+03 0.  0.
         25    1    1    2    0    0  0.10775288564E+03  0.21005807563E+03 -0.70015442999E+03  0.74938395055E+03  0.12500000000E+03 0.  0.
</event>
<event>
 5    0  0.5605075E-005  0.4141131E+03  0.7546771E-02  0.1038999E+00
         21   -1    0    0  502  501  0.00000000000E+00  0.00000000000E+00  0.27558279480E+03  0.27558279480E+03  0.00000000000E+00 0. -1.
         21   -1    0    0  501  502 -0.00000000000E+00 -0.00000000000E+00 -0.62227992640E+03  0.62227992640E+03  0.00000000000E+00 0. -1.
         25    1    1    2    0    0  0.32756188495E+02 -0.12872399567E+03 -0.50963006826E+03  0.54128609941E+03  0.12500000000E+03 0.  0.
         25    1    1    2    0    0 -0.57295207235E+02  0.86129419264E+02  0.25210981427E+02  0.16419991236E+03  0.12500000000E+03 0.  0.
         25    1    1    2    0    0  0.24539018740E+02  0.42594576410E+02  0.13772195523E+03  0.19237670943E+03  0.12500000000E+03 0.  0.
</event>
<event>
 5    0  0.5605075E-005  0.2509331E+03  0.7546771E-02  0.1112717E+00
         21   -1    0    0  502  501  0.00000000000E+00  0.00000000000E+00  0.39820836983E+03  0.39820836983E+03  0.00000000000E+00 0. -1.
         21   -1    0    0  501  502 -0.00000000000E+00 -0.00000000000E+00 -0.15812685760E+03  0.15812685760E+03  0.00000000000E+00 0. -1.
         25    1    1    2    0    0 -0.47235408788E+02  0.69456275203E+02  0.15474154968E+03  0.21592893554E+03  0.12500000000E+03 0.  0.
         25    1    1    2    0    0  0.40295402334E+02 -0.11553238087E+03  0.10730295526E+03  0.20520812529E+03  0.12500000000E+03 0.  0.
         25    1    1    2    0    0  0.69400064540E+01  0.46076105669E+02 -0.21962992700E+02  0.13519816660E+03  0.12500000000E+03 0.  0.
</event>
<event>
 5    0  0.5605075E-005  0.3751028E+03  0.7546771E-02  0.1052759E+00
         21   -1    0    0  502  501  0.00000000000E+00  0.00000000000E+00  0.66060933286E+03  0.66060933286E+03  0.00000000000E+00 0.  1.
         21   -1    0    0  501  502 -0.00000000000E+00 -0.00000000000E+00 -0.21298841632E+03  0.21298841632E+03  0.00000000000E+00 0.  1.
         25    1    1    2    0    0 -0.21235778290E+03 -0.15458975375E+02  0.23644147984E+02  0.24802994499E+03  0.12500000000E+03 0.  0.
         25    1    1    2    0    0 -0.61950697993E+02 -0.49123131038E+02  0.10115408449E+03  0.17918738737E+03  0.12500000000E+03 0.  0.
         25    1    1    2    0    0  0.27430848090E+03  0.64582106412E+02  0.32282268407E+03  0.44638041681E+03  0.12500000000E+03 0.  0.
</event>
<event>
 5    0  0.5605075E-005  0.2421911E+03  0.7546771E-02  0.1118342E+00
         21   -1    0    0  502  501  0.00000000000E+00  0.00000000000E+00  0.11229900099E+04  0.11229900099E+04  0.00000000000E+00 0. -1.
         21   -1    0    0  501  502 -0.00000000000E+00 -0.00000000000E+00 -0.52232442351E+02  0.52232442351E+02  0.00000000000E+00 0. -1.
         25    1    1    2    0    0  0.83889388098E+02  0.10755184651E+02  0.31055585790E+03  0.34528690144E+03  0.12500000000E+03 0.  0.
         25    1    1    2    0    0  0.49117031154E+02  0.19887099560E+02  0.21603016235E+03  0.25515095635E+03  0.12500000000E+03 0.  0.
         25    1    1    2    0    0 -0.13300641925E+03 -0.30642284210E+02  0.54417154732E+03  0.57478459449E+03  0.12500000000E+03 0.  0.
</event>
<event>
 5    0  0.5605075E-005  0.3141168E+03  0.7546771E-02  0.1078389E+00
         21   -1    0    0  502  501  0.00000000000E+00  0.00000000000E+00  0.36032752622E+03  0.36032752622E+03  0.00000000000E+00 0.  1.
         21   -1    0    0  501  502 -0.00000000000E+00 -0.00000000000E+00 -0.27383247476E+03  0.27383247476E+03  0.00000000000E+00 0.  1.
         25    1    1    2    0    0  0.10634824907E+02  0.10511893245E+03 -0.11392911394E+03  0.19941898722E+03  0.12500000000E+03 0.  0.
         25    1    1    2    0    0  0.11414156952E+03  0.16486205616E+02  0.10628136316E+03  0.20055129275E+03  0.12500000000E+03 0.  0.
         25    1    1    2    0    0 -0.12477639443E+03 -0.12160513806E+03  0.94142802242E+02  0.23418972100E+03  0.12500000000E+03 0.  0.
</event>
<event>
 5    0  0.5605075E-005  0.3642309E+03  0.7546771E-02  0.1056921E+00
         21   -1    0    0  502  501  0.00000000000E+00  0.00000000000E+00  0.70122335780E+03  0.70122335780E+03  0.00000000000E+00 0.  1.
         21   -1    0    0  501  502 -0.00000000000E+00 -0.00000000000E+00 -0.18918961398E+03  0.18918961398E+03  0.00000000000E+00 0.  1.
         25    1    1    2    0    0 -0.11545478975E+03  0.10692260280E+03  0.42145351178E+03  0.46691574621E+03  0.12500000000E+03 0.  0.
         25    1    1    2    0    0  0.17950872228E+03 -0.12857161213E+03 -0.22680197954E+01  0.25374038846E+03  0.12500000000E+03 0.  0.
         25    1    1    2    0    0 -0.64053932532E+02  0.21649009331E+02  0.92848251828E+02  0.16975683711E+03  0.12500000000E+03 0.  0.
</event>
<event>
 5    0  0.6093450E-005  0.3945527E+03  0.7546771E-02  0.1045682E+00
         21   -1    0    0  502  501  0.00000000000E+00  0.00000000000E+00  0.35685111410E+03  0.35685111410E+03  0.00000000000E+00 0. -1.
         21   -1    0    0  501  502 -0.00000000000E+00 -0.00000000000E+00 -0.43623758063E+03  0.43623758063E+03  0.00000000000E+00 0. -1.
         25    1    1    2    0    0  0.78973904989E+02 -0.18364739347E+03  0.17939304089E+02  0.23645308505E+03  0.12500000000E+03 0.  0.
         25    1    1    2    0    0  0.29401696449E+02  0.18600091190E+03 -0.24608998295E+03  0.33413482113E+03  0.12500000000E+03 0.  0.
         25    1    1    2    0    0 -0.10837560144E+03 -0.23535184287E+01  0.14876421234E+03  0.22250078856E+03  0.12500000000E+03 0.  0.
</event>
<event>
 5    0  0.5605075E-005  0.3094139E+03  0.7546771E-02  0.1080627E+00
         21   -1    0    0  502  501  0.00000000000E+00  0.00000000000E+00  0.36494100220E+03  0.36494100220E+03  0.00000000000E+00 0. -1.
         21   -1    0    0  501  502 -0.00000000000E+00 -0.00000000000E+00 -0.26233536996E+03  0.26233536996E+03  0.00000000000E+00 0. -1.
         25    1    1    2    0    0  0.90692868682E+02 -0.49679361734E+02  0.10383547153E+03  0.19261370813E+03  0.12500000000E+03 0.  0.
         25    1    1    2    0    0 -0.71609589291E+02  0.11975278637E+03  0.13899104502E+03  0.23326417152E+03  0.12500000000E+03 0.  0.
         25    1    1    2    0    0 -0.19083279391E+02 -0.70073424631E+02 -0.14022088430E+03  0.20139849251E+03  0.12500000000E+03 0.  0.
</event>
<event>
 5    0  0.5605075E-005  0.3013220E+03  0.7546771E-02  0.1084582E+00
         21   -1    0    0  502  501  0.00000000000E+00  0.00000000000E+00  0.41039010547E+03  0.41039010547E+03  0.00000000000E+00 0. -1.
         21   -1    0    0  501  502 -0.00000000000E+00 -0.00000000000E+00 -0.22124061268E+03  0.22124061268E+03  0.00000000000E+00 0. -1.
         25    1    1    2    0    0 -0.93400344636E+02  0.15673620423E+03 -0.36728289623E+02  0.22419596194E+03  0.12500000000E+03 0.  0.
         25    1    1    2    0    0  0.80150265182E+02 -0.14676032976E+03  0.17120071060E+03  0.26999507905E+03  0.12500000000E+03 0.  0.
         25    1    1    2    0    0  0.13250079454E+02 -0.99758744650E+01  0.54677071814E+02  0.13743967716E+03  0.12500000000E+03 0.  0.
</event>
<event>
 5    0  0.5605075E-005  0.4369958E+03  0.7546771E-02  0.1031673E+00
         21   -1    0    0  502  501  0.00000000000E+00  0.00000000000E+00  0.49951171385E+03  0.49951171385E+03  0.00000000000E+00 0.  1.
         21   -1    0    0  501  502 -0.00000000000E+00 -0.00000000000E+00 -0.38230393657E+03  0.38230393657E+03  0.00000000000E+00 0.  1.
         25    1    1    2    0    0 -0.28009711485E+02 -0.19366869094E+03  0.63691860142E+02  0.24077740517E+03  0.12500000000E+03 0.  0.
         25    1    1    2    0    0 -0.11916477914E+02  0.22949763508E+02  0.29263242083E+03  0.31926075207E+03  0.12500000000E+03 0.  0.
         25    1    1    2    0    0  0.39926189399E+02  0.17071892744E+03 -0.23911650369E+03  0.32177749319E+03  0.12500000000E+03 0.  0.
</event>
<event>
 5    0  0.5605075E-005  0.3541580E+03  0.7546771E-02  0.1060921E+00
         21   -1    0    0  502  501  0.00000000000E+00  0.00000000000E+00  0.25232550388E+03  0.25232550388E+03  0.00000000000E+00 0.  1.
         21   -1    0    0  501  502 -0.00000000000E+00 -0.00000000000E+00 -0.49708750901E+03  0.49708750901E+03  0.00000000000E+00 0.  1.
         25    1    1    2    0    0  0.12075650237E+02 -0.24707332825E+03  0.15539309287E+02  0.27759236479E+03  0.12500000000E+03 0.  0.
         25    1    1    2    0    0  0.21189721974E+02  0.21563442024E+03 -0.21894166137E+03  0.33242692219E+03  0.12500000000E+03 0.  0.
         25    1    1    2    0    0 -0.33265372211E+02  0.31438908005E+02 -0.41359653043E+02  0.13939372592E+03  0.12500000000E+03 0.  0.
</event>
<event>
 5    0  0.5605075E-005  0.2424031E+03  0.7546771E-02  0.1118202E+00
         21   -1    0    0  502  501  0.00000000000E+00  0.00000000000E+00  0.21242555624E+02  0.21242555624E+02  0.00000000000E+00 0.  1.
         21   -1    0    0  501  502 -0.00000000000E+00 -0.00000000000E+00 -0.27661105122E+04  0.27661105122E+04  0.00000000000E+00 0. -1.
         25    1    1    2    0    0 -0.13729368083E+03  0.31535707640E+02 -0.89028768122E+03  0.90998967631E+03  0.12500000000E+03 0.  0.
         25    1    1    2    0    0  0.51821132591E+02 -0.14870007785E+01 -0.76072310793E+03  0.77266570255E+03  0.12500000000E+03 0.  0.
         25    1    1    2    0    0  0.85472548239E+02 -0.30048706862E+02 -0.10938571674E+04  0.11046976890E+04  0.12500000000E+03 0.  0.
</event>
<event>
 5    0  0.5605075E-005  0.2665635E+03  0.7546771E-02  0.1103263E+00
         21   -1    0    0  502  501  0.00000000000E+00  0.00000000000E+00  0.79830329457E+03  0.79830329457E+03  0.00000000000E+00 0.  1.
         21   -1    0    0  501  502 -0.00000000000E+00 -0.00000000000E+00 -0.89008875403E+02  0.89008875403E+02  0.00000000000E+00 0.  1.
         25    1    1    2    0    0 -0.59300716946E+02 -0.49845091650E+02  0.30744041615E+03  0.34080158110E+03  0.12500000000E+03 0.  0.
         25    1    1    2    0    0  0.97716476823E+02  0.57502282327E+02  0.37718054077E+03  0.41321324114E+03  0.12500000000E+03 0.  0.
         25    1    1    2    0    0 -0.38415759877E+02 -0.76571906770E+01  0.24673462244E+02  0.13329734774E+03  0.12500000000E+03 0.  0.
</event>
<event>
 5    0  0.5605075E-005  0.2606497E+03  0.7546771E-02  0.1106753E+00
         21   -1    0    0  502  501  0.00000000000E+00  0.00000000000E+00  0.93227606567E+02  0.93227606567E+02  0.00000000000E+00 0.  1.
         21   -1    0    0  501  502 -0.00000000000E+00 -0.00000000000E+00 -0.72873576187E+03  0.72873576187E+03  0.00000000000E+00 0.  1.
         25    1    1    2    0    0  0.11601321001E+03 -0.12628416872E+03 -0.31371285641E+03  0.37874465335E+03  0.12500000000E+03 0.  0.
         25    1    1    2    0    0 -0.69873018926E+02  0.75263525099E+02 -0.18117235533E+03  0.24288939730E+03  0.12500000000E+03 0.  0.
         25    1    1    2    0    0 -0.46140191086E+02  0.51020643618E+02 -0.14062294356E+03  0.20032931779E+03  0.12500000000E+03 0.  0.
</event>
<event>
 5    0  0.5605075E-005  0.2673169E+03  0.7546771E-02  0.1102825E+00
         21   -1    0    0  502  501  0.00000000000E+00  0.00000000000E+00  0.15230804498E+03  0.15230804498E+03  0.00000000000E+00 0. -1.
         21   -1    0    0  501  502 -0.00000000000E+00 -0.00000000000E+00 -0.46916960972E+03  0.46916960972E+03  0.00000000000E+00 0. -1.
         25    1    1    2    0    0  0.26123366178E+02 -0.13600246593E+03 -0.78993652865E+02  0.20259343077E+03  0.12500000000E+03 0.  0.
         25    1    1    2    0    0  0.66750338181E+02  0.50669566035E+02 -0.45799715525E+02  0.15730742675E+03  0.12500000000E+03 0.  0.
         25    1    1    2    0    0 -0.92873704359E+02  0.85332899898E+02 -0.19206819635E+03  0.26157679717E+03  0.12500000000E+03 0.  0.
</event>
<event>
 5    0  0.5605075E-005  0.2348815E+03  0.7546771E-02  0.1123250E+00
         21   -1    0    0  502  501  0.00000000000E+00  0.00000000000E+00  0.37233011201E+03  0.37233011201E+03  0.00000000000E+00 0.  1.
         21   -1    0    0  501  502 -0.00000000000E+00 -0.00000000000E+00 -0.14817319231E+03  0.14817319231E+03  0.00000000000E+00 0.  1.
         25    1    1    2    0    0  0.96572126354E+01 -0.84608079486E+02  0.40775412104E+02  0.15665064029E+03  0.12500000000E+03 0.  0.
         25    1    1    2    0    0 -0.74679641483E+02  0.92182744821E+02  0.11385731003E+03  0.20655070647E+03  0.12500000000E+03 0.  0.
         25    1    1    2    0    0  0.65022428848E+02 -0.75746653349E+01  0.69524197570E+02  0.15730195757E+03  0.12500000000E+03 0.  0.
</event>
<event>
 5    0  0.5605075E-005  0.2754804E+03  0.7546771E-02  0.1098183E+00
         21   -1    0    0  502  501  0.00000000000E+00  0.00000000000E+00  0.23834021023E+03  0.23834021023E+03  0.00000000000E+00 0.  1.
         21   -1    0    0  501  502 -0.00000000000E+00 -0.00000000000E+00 -0.31840799552E+03  0.31840799552E+03  0.00000000000E+00 0.  1.
         25    1    1    2    0    0 -0.34058913758E+02 -0.15452915975E+03 -0.88657781276E+02  0.22028271153E+03  0.12500000000E+03 0.  0.
         25    1    1    2    0    0  0.80496309121E+02  0.94249248188E+02  0.52475203195E+02  0.18368784259E+03  0.12500000000E+03 0.  0.
         25    1    1    2    0    0 -0.46437395363E+02  0.60279911563E+02 -0.43885207207E+02  0.15277765163E+03  0.12500000000E+03 0.  0.
</event>
<event>
 5    0  0.5997340E-005  0.3000792E+03  0.7546771E-02  0.1085201E+00
         21   -1    0    0  502  501  0.00000000000E+00  0.00000000000E+00  0.39438665341E+03  0.39438665341E+03  0.00000000000E+00 0.  1.
         21   -1    0    0  501  502 -0.00000000000E+00 -0.00000000000E+00 -0.22832301945E+03  0.22832301945E+03  0.00000000000E+00 0.  1.
         25    1    1    2    0    0 -0.32289263503E+02  0.98322804983E+02 -0.42782976076E+02  0.16782536626E+03  0.12500000000E+03 0.  0.
         25    1    1    2    0    0  0.94548718444E+02  0.68720870987E+02  0.31365523918E+02  0.17398509810E+03  0.12500000000E+03 0.  0.
         25    1    1    2    0    0 -0.62259454940E+02 -0.16704367597E+03  0.17748108611E+03  0.28089920851E+03  0.12500000000E+03 0.  0.
</event>
<event>
 5    0  0.5605075E-005  0.3592578E+03  0.7546771E-02  0.1058878E+00
         21   -1    0    0  502  501  0.00000000000E+00  0.00000000000E+00  0.74167146182E+03  0.74167146182E+03  0.00000000000E+00 0. -1.
         21   -1    0    0  501  502 -0.00000000000E+00 -0.00000000000E+00 -0.17402068966E+03  0.17402068966E+03  0.00000000000E+00 0. -1.
         25    1    1    2    0    0 -0.91144624182E+02  0.90321354085E+02  0.17664387801E+03  0.25158169480E+03  0.12500000000E+03 0.  0.
         25    1    1    2    0    0  0.29353972698E+02 -0.15540354179E+03  0.45484514339E+03  0.49751484499E+03  0.12500000000E+03 0.  0.
         25    1    1    2    0    0  0.61790651484E+02  0.65082187707E+02 -0.63838249244E+02  0.16659561169E+03  0.12500000000E+03 0.  0.
</event>
<event>
 5    0  0.5605075E-005  0.5780284E+03  0.7546771E-02  0.9952069E-01
         21   -1    0    0  502  501  0.00000000000E+00  0.00000000000E+00  0.57805070687E+03  0.57805070687E+03  0.00000000000E+00 0.  1.
         21   -1    0    0  501  502 -0.00000000000E+00 -0.00000000000E+00 -0.57800604685E+03  0.57800604685E+03  0.00000000000E+00 0.  1.
         25    1    1    2    0    0  0.41791292898E+03  0.28881821350E+03  0.18807211531E+03  0.55593461595E+03  0.12500000000E+03 0.  0.
         25    1    1    2    0    0 -0.18444321974E+03 -0.13978356143E+03 -0.56665739232E+02  0.26906272755E+03  0.12500000000E+03 0.  0.
         25    1    1    2    0    0 -0.23346970924E+03 -0.14903465207E+03 -0.13136171607E+03  0.33105941022E+03  0.12500000000E+03 0.  0.
</event>
<event>
 5    0  0.5605075E-005  0.3826058E+03  0.7546771E-02  0.1049975E+00
         21   -1    0    0  502  501  0.00000000000E+00  0.00000000000E+00  0.10694796075E+04  0.10694796075E+04  0.00000000000E+00 0.  1.
         21   -1    0    0  501  502 -0.00000000000E+00 -0.00000000000E+00 -0.13687702074E+03  0.13687702074E+03  0.00000000000E+00 0.  1.
         25    1    1    2    0    0 -0.15254805270E+03 -0.76639552056E+02  0.86470216656E+03  0.89021310156E+03  0.12500000000E+03 0.  0.
         25    1    1    2    0    0  0.56999304172E+02  0.21350634774E+02  0.91588423537E+01  0.13933289157E+03  0.12500000000E+03 0.  0.
         25    1    1    2    0    0  0.95548748525E+02  0.55288917282E+02  0.58741577839E+02  0.17681063510E+03  0.12500000000E+03 0.  0.
</event>
<event>
 5    0  0.5605075E-005  0.2083651E+03  0.7546771E-02  0.1142867E+00
         21   -1    0    0  502  501  0.00000000000E+00  0.00000000000E+00  0.27442677012E+03  0.27442677012E+03  0.00000000000E+00 0. -1.
         21   -1    0    0  501  502 -0.00000000000E+00 -0.00000000000E+00 -0.15820620357E+03  0.15820620357E+03  0.00000000000E+00 0. -1.
         25    1    1    2    0    0 -0.43850114007E+01  0.31457105038E+02  0.11163118062E+03  0.17057343952E+03  0.12500000000E+03 0.  0.
         25    1    1    2    0    0 -0.27061409542E+02 -0.14130653162E+02 -0.18419675441E+02  0.12998569032E+03  0.12500000000E+03 0.  0.
         25    1    1    2    0    0  0.31446420942E+02 -0.17326451877E+02  0.23009061377E+02  0.13207384385E+03  0.12500000000E+03 0.  0.
</event>
<event>
 5    0  0.5605075E-005  0.4809095E+03  0.7546771E-02  0.1018886E+00
         21   -1    0    0  502  501  0.00000000000E+00  0.00000000000E+00  0.85981747988E+03  0.85981747988E+03  0.00000000000E+00 0.  1.
         21   -1    0    0  501  502 -0.00000000000E+00 -0.00000000000E+00 -0.26898027694E+03  0.26898027694E+03  0.00000000000E+00 0.  1.
         25    1    1    2    0    0 -0.10590143826E+03  0.13702772829E+03  0.19241971567E+03  0.28747532055E+03  0.12500000000E+03 0.  0.
         25    1    1    2    0    0 -0.85049990313E+02 -0.42385936955E+02  0.53600057867E+03  0.55852635465E+03  0.12500000000E+03 0.  0.
         25    1    1    2    0    0  0.19095142858E+03 -0.94641791332E+02 -0.13758309139E+03  0.28279608162E+03  0.12500000000E+03 0.  0.
</event>
<event>
 5    0  0.5605075E-005  0.4446599E+03  0.7546771E-02  0.1029327E+00
         21   -1    0    0  502  501  0.00000000000E+00  0.00000000000E+00  0.88398728925E+02  0.88398728925E+02  0.00000000000E+00 0. -1.
         21   -1    0    0  501  502 -0.00000000000E+00 -0.00000000000E+00 -0.22367115961E+04  0.22367115961E+04  0.00000000000E+00 0. -1.
         25    1    1    2    0    0  0.39570295878E+01 -0.20844195726E+03 -0.52984566487E+03  0.58294522574E+03  0.12500000000E+03 0.  0.
         25    1    1    2    0    0  0.80115845978E+02 -0.17293216397E+03 -0.46219725411E+03  0.51534006619E+03  0.12500000000E+03 0.  0.
         25    1    1    2    0    0 -0.84072875566E+02  0.38137412123E+03 -0.11562699482E+04  0.12268250331E+04  0.12500000000E+03 0.  0.
</event>
<event>
 5    0  0.5605075E-005  0.2588462E+03  0.7546771E-02  0.1107838E+00
         21   -1    0    0  502  501  0.00000000000E+00  0.00000000000E+00  0.28997556794E+03  0.28997556794E+03  0.00000000000E+00 0. -1.
         21   -1    0    0  501  502 -0.00000000000E+00 -0.00000000000E+00 -0.23105867017E+03  0.23105867017E+03  0.00000000000E+00 0. -1.
         25    1    1    2    0    0 -0.83379449795E+02 -0.88240058504E+02  0.99479092569E+02  0.20064777704E+03  0.12500000000E+03 0.  0.
         25    1    1    2    0    0  0.86496222517E+02 -0.34876042814E+01 -0.61278790746E+02  0.16393245587E+03  0.12500000000E+03 0.  0.
         25    1    1    2    0    0 -0.31167727220E+01  0.91727662785E+02  0.20716595949E+02  0.15645400519E+03  0.12500000000E+03 0.  0.
</event>
<event>
 5    0  0.5605075E-005  0.2802338E+03  0.7546771E-02  0.1095561E+00
         21   -1    0    0  502  501  0.00000000000E+00  0.00000000000E+00  0.20765542581E+04  0.20765542581E+04  0.00000000000E+00 0. -1.
         21   -1    0    0  501  502 -0.00000000000E+00 -0.00000000000E+00 -0.37817920534E+02  0.37817920534E+02  0.00000000000E+00 0. -1.
         25    1    1    2    0    0  0.11126015310E+03  0.66035664566E+02  0.35146103114E+03  0.39482830075E+03  0.12500000000E+03 0.  0.
         25    1    1    2    0    0 -0.60569324099E+02  0.29094089687E+02  0.11132425596E+04  0.11222518013E+04  0.12500000000E+03 0.  0.
         25    1    1    2    0    0 -0.50690829000E+02 -0.95129754253E+02  0.57403274679E+03  0.59729207653E+03  0.12500000000E+03 0.  0.
</event>
<event>
 5    0  0.6142837E-005  0.4444578E+03  0.7546771E-02  0.1029388E+00
         21   -1    0    0  502  501  0.00000000000E+00  0.00000000000E+00  0.24529791439E+03  0.24529791439E+03  0.00000000000E+00 0. -1.
         21   -1    0    0  501  502 -0.00000000000E+00 -0.00000000000E+00 -0.80531768491E+03  0.80531768491E+03  0.00000000000E+00 0. -1.
         25    1    1    2    0    0 -0.15715788679E+03  0.19683953375E+03  0.32991187430E+02  0.28312156731E+03  0.12500000000E+03 0.  0.
         25    1    1    2    0    0  0.76652668623E+02 -0.20244669963E+03 -0.13120635922E+03  0.28231260421E+03  0.12500000000E+03 0.  0.
         25    1    1    2    0    0  0.80505218166E+02  0.56071658769E+01 -0.46180459873E+03  0.48518142779E+03  0.12500000000E+03 0.  0.
</event>
<event>
 5    0  0.5605075E-005  0.3927855E+03  0.7546771E-02  0.1046307E+00
         21   -1    0    0  502  501  0.00000000000E+00  0.00000000000E+00  0.49700765483E+03  0.49700765483E+03  0.00000000000E+00 0.  1.
         21   -1    0    0  501  502 -0.00000000000E+00 -0.00000000000E+00 -0.31041862335E+03  0.31041862335E+03  0.00000000000E+00 0.  1.
         25    1    1    2    0    0  0.22379797672E+03  0.13434090289E+03  0.19449876841E+03  0.34869439842E+03  0.12500000000E+03 0.  0.
         25    1    1    2    0    0 -0.66138482643E+02 -0.16886415741E+03  0.82847926327E+02  0.23532569227E+03  0.12500000000E+03 0.  0.
         25    1    1    2    0    0 -0.15765949408E+03  0.34523254514E+02 -0.90757663250E+02  0.22340618750E+03  0.12500000000E+03 0.  0.
</event>
<event>
 5    0  0.5605075E-005  0.3945860E+03  0.7546771E-02  0.1045671E+00
         21   -1    0    0  502  501  0.00000000000E+00  0.00000000000E+00  0.40178134320E+03  0.40178134320E+03  0.00000000000E+00 0.  1.
         21   -1    0    0  501  502 -0.00000000000E+00 -0.00000000000E+00 -0.38751947735E+03  0.38751947735E+03  0.00000000000E+00 0. -1.
         25    1    1    2    0    0  0.21821079306E+03  0.69213540993E+02 -0.60104704358E+02  0.26766404306E+03  0.12500000000E+03 0.  0.
         25    1    1    2    0    0 -0.21025353143E+03 -0.20201245563E+03  0.10975794958E+03  0.33568942076E+03  0.12500000000E+03 0.  0.
         25    1    1    2    0    0 -0.79572616224E+01  0.13279891464E+03 -0.35391379364E+02  0.18594735673E+03  0.12500000000E+03 0.  0.
</event>
<event>
 5    0  0.5605075E-005  0.3155118E+03  0.7546771E-02  0.1077734E+00
         21   -1    0    0  502  501  0.00000000000E+00  0.00000000000E+00  0.15966402320E+03  0.15966402320E+03  0.00000000000E+00 0. -1.
         21   -1    0    0  501  502 -0.00000000000E+00 -0.00000000000E+00 -0.62348218084E+03  0.62348218084E+03  0.00000000000E+00 0. -1.
         25    1    1    2    0    0 -0.43584974191E+01 -0.32782913205E+02  0.73000091916E+02  0.14848477807E+03  0.12500000000E+03 0.  0.
         25    1    1    2    0    0 -0.57268785823E+02 -0.18115413670E+02 -0.93715603021E+02  0.16737830293E+03  0.12500000000E+03 0.  0.
         25    1    1    2    0    0  0.61627283242E+02  0.50898326875E+02 -0.44310264653E+03  0.46728312305E+03  0.12500000000E+03 0.  0.
</event>
<event>
 5    0  0.5605075E-005  0.6488158E+03  0.7546771E-02  0.9809004E-01
         21   -1    0    0  502  501  0.00000000000E+00  0.00000000000E+00  0.24112261224E+03  0.24112261224E+03  0.00000000000E+00 0. -1.
         21   -1    0    0  501  502 -0.00000000000E+00 -0.00000000000E+00 -0.17458416856E+04  0.17458416856E+04  0.00000000000E+00 0. -1.
         25    1    1    2    0    0  0.16658301400E+03 -0.44346520182E+03 -0.10050647982E+04  0.11181196423E+04  0.12500000000E+03 0.  0.
         25    1    1    2    0    0  0.40453478669E+02  0.42508512195E+03 -0.21280279202E+03  0.49319760049E+03  0.12500000000E+03 0.  0.
         25    1    1    2    0    0 -0.20703649267E+03  0.18380079879E+02 -0.28685148309E+03  0.37564705507E+03  0.12500000000E+03 0.  0.
</event>
<event>
 5    0  0.5605075E-005  0.3287044E+03  0.7546771E-02  0.1071712E+00
         21   -1    0    0  502  501  0.00000000000E+00  0.00000000000E+00  0.32742694481E+03  0.32742694481E+03  0.00000000000E+00 0.  1.
         21   -1    0    0  501  502 -0.00000000000E+00 -0.00000000000E+00 -0.32998686113E+03  0.32998686113E+03  0.00000000000E+00 0.  1.
         25    1    1    2    0    0  0.38827803693E+02 -0.15379030388E+03  0.14838285758E+03  0.25060233105E+03  0.12500000000E+03 0.  0.
         25    1    1    2    0    0  0.75525294797E+02  0.14989416944E+02 -0.11131444693E+03  0.18424076332E+03  0.12500000000E+03 0.  0.
         25    1    1    2    0    0 -0.11435309849E+03  0.13880088694E+03 -0.39628326974E+02  0.22257071157E+03  0.12500000000E+03 0.  0.
</event>
<event>
 5    0  0.5605075E-005  0.2973877E+03  0.7546771E-02  0.1086554E+00
         21   -1    0    0  502  501  0.00000000000E+00  0.00000000000E+00  0.18319806432E+03  0.18319806432E+03  0.00000000000E+00 0.  1.
         21   -1    0    0  501  502 -0.00000000000E+00 -0.00000000000E+00 -0.48275327769E+03  0.48275327769E+03  0.00000000000E+00 0.  1.
         25    1    1    2    0    0  0.16425760446E+03  0.12053408274E+03 -0.17339255164E+03  0.29529477254E+03  0.12500000000E+03 0.  0.
         25    1    1    2    0    0 -0.14205743407E+03 -0.96155423353E+02 -0.41913478731E+02  0.21635138020E+03  0.12500000000E+03 0.  0.
         25    1    1    2    0    0 -0.22200170392E+02 -0.24378659391E+02 -0.84249183005E+02  0.15430518927E+03  0.12500000000E+03 0.  0.
</event>
<event>
 5    0  0.5605075E-005  0.2455692E+03  0.7546771E-02  0.1116137E+00
         21   -1    0    0  502  501  0.00000000000E+00  0.00000000000E+00  0.55665478526E+03  0.55665478526E+03  0.00000000000E+00 0.  1.
         21   -1    0    0  501  502 -0.00000000000E+00 -0.00000000000E+00 -0.10833328920E+03  0.10833328920E+03  0.00000000000E+00 0.  1.
         25    1    1    2    0    0 -0.43940023271E+02 -0.56157711255E+02  0.83558708789E+02  0.16640754788E+03  0.12500000000E+03 0.  0.
         25    1    1    2    0    0 -0.26191291534E+01  0.64742016351E+02  0.33249327144E+03  0.36107501169E+03  0.12500000000E+03 0.  0.
         25    1    1    2    0    0  0.46559152425E+02 -0.85843050965E+01  0.32269515836E+02  0.13750551487E+03  0.12500000000E+03 0.  0.
</event>
<event>
 5    0  0.5605075E-005  0.2925766E+03  0.7546771E-02  0.1089011E+00
         21   -1    0    0  502  501  0.00000000000E+00  0.00000000000E+00  0.74968159199E+03  0.74968159199E+03  0.00000000000E+00 0.  1.
         21   -1    0    0  501  502 -0.00000000000E+00 -0.00000000000E+00 -0.11418325672E+03  0.11418325672E+03  0.00000000000E+00 0.  1.
         25    1    1    2    0    0 -0.77482293058E+02  0.71413083420E+01  0.21427924429E+03  0.25999057397E+03  0.12500000000E+03 0.  0.
         25    1    1    2    0    0  0.10445726399E+03  0.77904746306E+02  0.41222113244E+03  0.45003525587E+03  0.12500000000E+03 0.  0.
         25    1    1    2    0    0 -0.26974970935E+02 -0.85046054649E+02  0.89979585448E+01  0.15383901887E+03  0.12500000000E+03 0.  0.
</event>
<event>
 5    0  0.5605075E-005  0.2487302E+03  0.7546771E-02  0.1114110E+00
         21   -1    0    0  502  501  0.00000000000E+00  0.00000000000E+00  0.34828451278E+03  0.34828451278E+03  0.00000000000E+00 0. -1.
         21   -1    0    0  501  502 -0.00000000000E+00 -0.00000000000E+00 -0.17763274952E+03  0.17763274952E+03  0.00000000000E+00 0. -1.
         25    1    1    2    0    0 -0.25488556199E+01  0.59069841837E+02 -0.78583726027E+02  0.15904761827E+03  0.12500000000E+03 0.  0.
         25    1    1    2    0    0 -0.13986322579E+02 -0.14841018574E+02  0.16835810148E+03  0.21067824611E+03  0.12500000000E+03 0.  0.
         25    1    1    2    0    0  0.16535178199E+02 -0.44228823263E+02  0.80877387819E+02  0.15619139793E+03  0.12500000000E+03 0.  0.
</event>
<event>
 5    0  0.5605075E-005  0.2610640E+03  0.7546771E-02  0.1106506E+00
         21   -1    0    0  502  501  0.00000000000E+00  0.00000000000E+00  0.38075786434E+03  0.38075786434E+03  0.00000000000E+00 0. -1.
         21   -1    0    0  501  502 -0.00000000000E+00 -0.00000000000E+00 -0.17899679694E+03  0.17899679694E+03  0.00000000000E+00 0. -1.
         25    1    1    2    0    0 -0.92593563208E+02  0.83203863446E+02  0.76172962355E+02  0.19215559069E+03  0.12500000000E+03 0.  0.
         25    1    1    2    0    0 -0.54195102498E+02 -0.62320905963E+02  0.73051523557E+02  0.16668092137E+03  0.12500000000E+03 0.  0.
         25    1    1    2    0    0  0.14678866571E+03 -0.20882957483E+02  0.52536581485E+02  0.20091814922E+03  0.12500000000E+03 0.  0.
</event>
<event>
 5    0  0.6006006E-005  0.3365776E+03  0.7546771E-02  0.1068263E+00
         21   -1    0    0  502  501  0.00000000000E+00  0.00000000000E+00  0.15230653297E+03  0.15230653297E+03  0.00000000000E+00 0. -1.
         21   -1    0    0  501  502 -0.00000000000E+00 -0.00000000000E+00 -0.74379264857E+03  0.74379264857E+03  0.00000000000E+00 0. -1.
         25    1    1    2    0    0 -0.61445682733E+01  0.10457986525E+03 -0.61595390696E+01  0.16321042815E+03  0.12500000000E+03 0.  0.
         25    1    1    2    0    0 -0.16952179739E+03 -0.73357618529E+02 -0.30595434301E+03  0.37861859436E+03  0.12500000000E+03 0.  0.
         25    1    1    2    0    0  0.17566636566E+03 -0.31222246720E+02 -0.27937223352E+03  0.35427015903E+03  0.12500000000E+03 0.  0.
</event>
<event>
 5    0  0.5605075E-005  0.2344559E+03  0.7546771E-02  0.1123542E+00
         21   -1    0    0  502  501  0.00000000000E+00  0.00000000000E+00  0.91644534943E+02  0.91644534943E+02  0.00000000000E+00 0.  1.
         21   -1    0    0  501  502 -0.00000000000E+00 -0.00000000000E+00 -0.59981262090E+03  0.59981262090E+03  0.00000000000E+00 0.  1.
         25    1    1    2    0    0  0.27281118016E+02 -0.15128248400E+01 -0.26277855697E+03  0.29227404613E+03  0.12500000000E+03 0.  0.
         25    1    1    2    0    0  0.31820987957E+02  0.12336830283E+02 -0.15231155344E+02  0.13046747008E+03  0.12500000000E+03 0.  0.
         25    1    1    2    0    0 -0.59102105972E+02 -0.10824005444E+02 -0.23015837364E+03  0.26871563962E+03  0.12500000000E+03 0.  0.
</event>
<event>
 5    0  0.5605075E-005  0.4153210E+03  0.7546771E-02  0.1038600E+00
         21   -1    0    0  502  501  0.00000000000E+00  0.00000000000E+00  0.45013830804E+03  0.45013830804E+03  0.00000000000E+00 0.  1.
         21   -1    0    0  501  502 -0.00000000000E+00 -0.00000000000E+00 -0.38319678440E+03  0.38319678440E+03  0.00000000000E+00 0.  1.
         25    1    1    2    0    0  0.12995572673E+03 -0.30323809904E+02 -0.19872281250E+03  0.27004403449E+03  0.12500000000E+03 0.  0.
         25    1    1    2    0    0 -0.16628406417E+03  0.18910792335E+03  0.96431238699E+02  0.29721403141E+03  0.12500000000E+03 0.  0.
         25    1    1    2    0    0  0.36328337447E+02 -0.15878411344E+03  0.16923309744E+03  0.26607702654E+03  0.12500000000E+03 0.  0.
</event>
<event>
 5    0  0.5605075E-005  0.4114531E+03  0.7546771E-02  0.1039884E+00
         21   -1    0    0  502  501  0.00000000000E+00  0.00000000000E+00  0.64209707835E+03  0.64209707835E+03  0.00000000000E+00 0.  1.
         21   -1    0    0  501  502 -0.00000000000E+00 -0.00000000000E+00 -0.26365738342E+03  0.26365738342E+03  0.00000000000E+00 0.  1.
         25    1    1    2    0    0  0.13518879918E+03 -0.38663527857E+02 -0.24216582110E+02  0.18969007000E+03  0.12500000000E+03 0.  0.
         25    1    1    2    0    0  0.17539296703E+03 -0.25239411341E+02  0.43967621126E+02  0.22126425938E+03  0.12500000000E+03 0.  0.
         25    1    1    2    0    0 -0.31058176621E+03  0.63902939198E+02  0.35868865592E+03  0.49480013240E+03  0.12500000000E+03 0.  0.
</event>
<event>
 5    0  0.5605075E-005  0.3196819E+03  0.7546771E-02  0.1075796E+00
         21   -1    0    0  502  501  0.00000000000E+00  0.00000000000E+00  0.10165709717E+03  0.10165709717E+03  0.00000000000E+00 0. -1.
         21   -1    0    0  501  502 -0.00000000000E+00 -0.00000000000E+00 -0.10053063854E+04  0.10053063854E+04  0.00000000000E+00 0. -1.
         25    1    1    2    0    0  0.14588820267E+03 -0.30657221375E+02 -0.15255799678E+03  0.24722899361E+03  0.12500000000E+03 0.  0.
         25    1    1    2    0    0 -0.50358656537E+02  0.34804756391E+02 -0.66686422128E+03  0.68123436127E+03  0.12500000000E+03 0.  0.
         25    1    1    2    0    0 -0.95529546137E+02 -0.41475350165E+01 -0.84227070149E+02  0.17850012767E+03  0.12500000000E+03 0.  0.
</event>
<event>
 5    0  0.5605075E-005  0.4552438E+03  0.7546771E-02  0.1026170E+00
         21   -1    0    0  502  501  0.00000000000E+00  0.00000000000E+00  0.10252971532E+04  0.10252971532E+04  0.00000000000E+00 0. -1.
         21   -1    0    0  501  502 -0.00000000000E+00 -0.00000000000E+00 -0.20213350283E+03  0.20213350283E+03  0.00000000000E+00 0. -1.
         25    1    1    2    0    0 -0.25934097999E+02 -0.24238445194E+03 -0.18528006990E+02  0.27457437431E+03  0.12500000000E+03 0.  0.
         25    1    1    2    0    0  0.11298726874E+03  0.17101026572E+03  0.29210641713E+03  0.37810288654E+03  0.12500000000E+03 0.  0.
         25    1    1    2    0    0 -0.87053170742E+02  0.71374186221E+02  0.54958524022E+03  0.57475339517E+03  0.12500000000E+03 0.  0.
</event>
<event>
 5    0  0.5605075E-005  0.4129344E+03  0.7546771E-02  0.1039391E+00
         21   -1    0    0  502  501  0.00000000000E+00  0.00000000000E+00  0.57332200177E+03  0.57332200177E+03  0.00000000000E+00 0. -1.
         21   -1    0    0  501  502 -0.00000000000E+00 -0.00000000000E+00 -0.29741548009E+03  0.29741548009E+03  0.00000000000E+00 0. -1.
         25    1    1    2    0    0  0.78087498790E+02  0.18421181702E+03  0.16140441202E+03  0.28584617405E+03  0.12500000000E+03 0.  0.
         25    1    1    2    0    0  0.88691980176E+02 -0.28730318670E+03 -0.16516437011E+00  0.32562926115E+03  0.12500000000E+03 0.  0.
         25    1    1    2    0    0 -0.16677947897E+03  0.10309136969E+03  0.11466727403E+03  0.25926204667E+03  0.12500000000E+03 0.  0.
</event>
<event>
 5    0  0.5605075E-005  0.2697735E+03  0.7546771E-02  0.1101409E+00
         21   -1    0    0  502  501  0.00000000000E+00  0.00000000000E+00  0.90731602652E+03  0.90731602652E+03  0.00000000000E+00 0. -1.
         21   -1    0    0  501  502 -0.00000000000E+00 -0.00000000000E+00 -0.80212092846E+02  0.80212092846E+02  0.00000000000E+00 0. -1.
         25    1    1    2    0    0 -0.29119249242E+02 -0.10141262314E+03  0.56200038599E+03  0.58532203500E+03  0.12500000000E+03 0.  0.
         25    1    1    2    0    0 -0.24611895734E+02  0.65064970205E+02  0.64054067187E+02  0.15673901647E+03  0.12500000000E+03 0.  0.
         25    1    1    2    0    0  0.53731144976E+02  0.36347652930E+02  0.20104948050E+03  0.24546706790E+03  0.12500000000E+03 0.  0.
</event>
<event>
 5    0  0.5605075E-005  0.3716967E+03  0.7546771E-02  0.1054046E+00
         21   -1    0    0  502  501  0.00000000000E+00  0.00000000000E+00  0.58492342239E+03  0.58492342239E+03  0.00000000000E+00 0.  1.
         21   -1    0    0  501  502 -0.00000000000E+00 -0.00000000000E+00 -0.23619919076E+03  0.23619919076E+03  0.00000000000E+00 0.  1.
         25    1    1    2    0    0  0.19961907576E+03 -0.13186909654E+02  0.22989294711E+03  0.32938949152E+03  0.12500000000E+03 0.  0.
         25    1    1    2    0    0  0.82862852796E+02  0.46978488039E+01  0.10360532910E+03  0.18233865847E+03  0.12500000000E+03 0.  0.
         25    1    1    2    0    0 -0.28248192855E+03  0.84890608503E+01  0.15225955431E+02  0.30939446316E+03  0.12500000000E+03 0.  0.
</event>
<event>
 5    0  0.5605075E-005  0.5191286E+03  0.7546771E-02  0.1008903E+00
         21   -1    0    0  502  501  0.00000000000E+00  0.00000000000E+00  0.55415978988E+03  0.55415978988E+03  0.00000000000E+00 0.  1.
         21   -1    0    0  501  502 -0.00000000000E+00 -0.00000000000E+00 -0.48631190467E+03  0.48631190467E+03  0.00000000000E+00 0.  1.
         25    1    1    2    0    0  0.23764818606E+02 -0.11756760407E+02 -0.42409799643E+03  0.44293012834E+03  0.12500000000E+03 0.  0.
         25    1    1    2    0    0 -0.14175364135E+02  0.91472493673E+02  0.11821993339E+03  0.19536916516E+03  0.12500000000E+03 0.  0.
         25    1    1    2    0    0 -0.95894544713E+01 -0.79715733266E+02  0.37372594825E+03  0.40217240105E+03  0.12500000000E+03 0.  0.
</event>
<event>
 5    0  0.5605075E-005  0.4357746E+03  0.7546771E-02  0.1032051E+00
         21   -1    0    0  502  501  0.00000000000E+00  0.00000000000E+00  0.18695899192E+03  0.18695899192E+03  0.00000000000E+00 0.  1.
         21   -1    0    0  501  502 -0.00000000000E+00 -0.00000000000E+00 -0.10157281033E+04  0.10157281033E+04  0.00000000000E+00 0.  1.
         25    1    1    2    0    0 -0.80067974272E+01  0.10053132276E+03 -0.44205592935E+03  0.47032871520E+03  0.12500000000E+03 0.  0.
         25    1    1    2    0    0 -0.53236563918E+02  0.19057853474E+03 -0.33025192046E+03  0.40477850809E+03  0.12500000000E+03 0.  0.
         25    1    1    2    0    0  0.61243361345E+02 -0.29110985750E+03 -0.56461261575E+02  0.32757987194E+03  0.12500000000E+03 0.  0.
</event>
<event>
 5    0  0.5707586E-005  0.2712077E+03  0.7546771E-02  0.1100590E+00
         21   -1    0    0  502  501  0.00000000000E+00  0.00000000000E+00  0.27212301859E+03  0.27212301859E+03  0.00000000000E+00 0.  1.
         21   -1    0    0  501  502 -0.00000000000E+00 -0.00000000000E+00 -0.27029539369E+03  0.27029539369E+03  0.00000000000E+00 0.  1.
         25    1    1    2    0    0  0.10351680638E+03  0.58749410839E+02  0.13958914983E+02  0.17316776197E+03  0.12500000000E+03 0.  0.
         25    1    1    2    0    0 -0.71986814160E+02  0.76864629927E+02  0.51895511674E+02  0.17148882435E+03  0.12500000000E+03 0.  0.
         25    1    1    2    0    0 -0.31529992223E+02 -0.13561404077E+03 -0.64026801756E+02  0.19776182596E+03  0.12500000000E+03 0.  0.
</event>
<event>
 5    0  0.5605075E-005  0.3683187E+03  0.7546771E-02  0.1055338E+00
         21   -1    0    0  502  501  0.00000000000E+00  0.00000000000E+00  0.51125212355E+03  0.51125212355E+03  0.00000000000E+00 0. -1.
         21   -1    0    0  501  502 -0.00000000000E+00 -0.00000000000E+00 -0.26534585037E+03  0.26534585037E+03  0.00000000000E+00 0. -1.
         25    1    1    2    0    0  0.79079349286E+02  0.19220852677E+00  0.12850130791E+03  0.19593663915E+03  0.12500000000E+03 0.  0.
         25    1    1    2    0    0  0.15615899357E+03  0.90264966625E+02 -0.83674736019E+02  0.23486135680E+03  0.12500000000E+03 0.  0.
         25    1    1    2    0    0 -0.23523834285E+03 -0.90457175152E+02  0.20107970129E+03  0.34579997796E+03  0.12500000000E+03 0.  0.
</event>
<event>
 5    0  0.5605075E-005  0.3465048E+03  0.7546771E-02  0.1064059E+00
         21   -1    0    0  502  501  0.00000000000E+00  0.00000000000E+00  0.26425981764E+04  0.26425981764E+04  0.00000000000E+00 0.  1.
         21   -1    0    0  501  502 -0.00000000000E+00 -0.00000000000E+00 -0.45434674187E+02  0.45434674187E+02  0.00000000000E+00 0.  1.
         25    1    1    2    0    0  0.39046203620E+02 -0.12596390351E+03  0.36140476457E+03  0.40451194650E+03  0.12500000000E+03 0.  0.
         25    1    1    2    0    0 -0.16646263778E+03  0.10922279188E+03  0.17503061867E+04  0.17660226995E+04  0.12500000000E+03 0.  0.
         25    1    1    2    0    0  0.12741643416E+03  0.16741111630E+02  0.48545255101E+03  0.51749820463E+03  0.12500000000E+03 0.  0.
</event>
<event>
 5    0  0.5605075E-005  0.2810417E+03  0.7546771E-02  0.1095121E+00
         21   -1    0    0  502  501  0.00000000000E+00  0.00000000000E+00  0.33101109256E+03  0.33101109256E+03  0.00000000000E+00 0. -1.
         21   -1    0    0  501  502 -0.00000000000E+00 -0.00000000000E+00 -0.23861567330E+03  0.23861567330E+03  0.00000000000E+00 0. -1.
         25    1    1    2    0    0  0.14970572648E+03  0.88448075422E+02  0.64171920482E+02  0.22355737958E+03  0.12500000000E+03 0.  0.
         25    1    1    2    0    0 -0.12898950210E+03  0.14894707454E+02  0.53895423977E+00  0.18023716163E+03  0.12500000000E+03 0.  0.
         25    1    1    2    0    0 -0.20716224381E+02 -0.10334278288E+03  0.27684544548E+02  0.16583222465E+03  0.12500000000E+03 0.  0.
</event>
<event>
 5    0  0.5605075E-005  0.3918062E+03  0.7546771E-02  0.1046654E+00
         21   -1    0    0  502  501  0.00000000000E+00  0.00000000000E+00  0.29734330824E+03  0.29734330824E+03  0.00000000000E+00 0.  1.
         21   -1    0    0  501  502 -0.00000000000E+00 -0.00000000000E+00 -0.51627888566E+03  0.51627888566E+03  0.00000000000E+00 0.  1.
         25    1    1    2    0    0 -0.68768227138E+02  0.11704086927E+03 -0.93289764190E+02  0.20677430751E+03  0.12500000000E+03 0.  0.
         25    1    1    2    0    0 -0.21584419918E+03 -0.60741280126E+02 -0.13650402639E+03  0.29075173370E+03  0.12500000000E+03 0.  0.
         25    1    1    2    0    0  0.28461242631E+03 -0.56299589148E+02  0.10858213161E+02  0.31609615269E+03  0.12500000000E+03 0.  0.
</event>
<event>
 5    0  0.6095171E-005  0.3297249E+03  0.7546771E-02  0.1071259E+00
         21   -1    0    0  502  501  0.00000000000E+00  0.00000000000E+00  0.15868625148E+03  0.15868625148E+03  0.00000000000E+00 0.  1.
         21   -1    0    0  501  502 -0.00000000000E+00 -0.00000000000E+00 -0.68511603663E+03  0.68511603663E+03  0.00000000000E+00 0.  1.
         25    1    1    2    0    0 -0.57491679674E+01 -0.38790273752E+02  0.45288819842E+02  0.13861390793E+03  0.12500000000E+03 0.  0.
         25    1    1    2    0    0 -0.51187488511E+02  0.16794493098E+03 -0.37626189066E+03  0.43361696136E+03  0.12500000000E+03 0.  0.
         25    1    1    2    0    0  0.56936656478E+02 -0.12915465723E+03 -0.19545671433E+03  0.27157141880E+03  0.12500000000E+03 0.  0.
</event>
<event>
 5    0  0.6685677E-005  0.2818509E+03  0.7546771E-02  0.1094682E+00
         21   -1    0    0  502  501  0.00000000000E+00  0.00000000000E+00  0.51130247211E+03  0.51130247211E+03  0.00000000000E+00 0.  1.
         21   -1    0    0  501  502 -0.00000000000E+00 -0.00000000000E+00 -0.15536782263E+03  0.15536782263E+03  0.00000000000E+00 0.  1.
         25    1    1    2    0    0 -0.20459056446E+02 -0.95704863617E+01  0.22359850144E+03  0.25716037223E+03  0.12500000000E+03 0.  0.
         25    1    1    2    0    0 -0.18337653093E+02 -0.18335452278E+02 -0.85644040518E+02  0.15372820173E+03  0.12500000000E+03 0.  0.
         25    1    1    2    0    0  0.38796709539E+02  0.27905938639E+02  0.21798018856E+03  0.25578172078E+03  0.12500000000E+03 0.  0.
</event>
<event>
 5    0  0.5972605E-005  0.2837418E+03  0.7546771E-02  0.1093663E+00
         21   -1    0    0  502  501  0.00000000000E+00  0.00000000000E+00  0.15774224266E+03  0.15774224266E+03  0.00000000000E+00 0.  1.
         21   -1    0    0  501  502 -0.00000000000E+00 -0.00000000000E+00 -0.51038599821E+03  0.51038599821E+03  0.00000000000E+00 0.  1.
         25    1    1    2    0    0  0.22590302032E+01  0.10596571285E+03 -0.15217315977E+03  0.22364146769E+03  0.12500000000E+03 0.  0.
         25    1    1    2    0    0 -0.10750777541E+03 -0.77786714226E+02  0.25941475616E+01  0.18231956638E+03  0.12500000000E+03 0.  0.
         25    1    1    2    0    0  0.10524874521E+03 -0.28178998619E+02 -0.20306474334E+03  0.26216720680E+03  0.12500000000E+03 0.  0.
</event>
<event>
 5    0  0.5605075E-005  0.2348043E+03  0.7546771E-02  0.1123303E+00
         21   -1    0    0  502  501  0.00000000000E+00  0.00000000000E+00  0.84929195102E+02  0.84929195102E+02  0.00000000000E+00 0.  1.
         21   -1    0    0  501  502 -0.00000000000E+00 -0.00000000000E+00 -0.64916525617E+03  0.64916525617E+03  0.00000000000E+00 0.  1.
         25    1    1    2    0    0  0.38345335358E+02  0.75287306207E+02 -0.10032934709E+03  0.18118918595E+03  0.12500000000E+03 0.  0.
         25    1    1    2    0    0  0.31737299162E+02 -0.70964964489E+02 -0.30635388761E+03  0.33988378425E+03  0.12500000000E+03 0.  0.
         25    1    1    2    0    0 -0.70082634520E+02 -0.43223417173E+01 -0.15755282637E+03  0.21302148107E+03  0.12500000000E+03 0.  0.
</event>
<event>
 5    0  0.5605075E-005  0.4559539E+03  0.7546771E-02  0.1025961E+00
         21   -1    0    0  502  501  0.00000000000E+00  0.00000000000E+00  0.11657856022E+03  0.11657856022E+03  0.00000000000E+00 0. -1.
         21   -1    0    0  501  502 -0.00000000000E+00 -0.00000000000E+00 -0.17832948767E+04  0.17832948767E+04  0.00000000000E+00 0. -1.
         25    1    1    2    0    0  0.81723737688E+00  0.48925382670E+02 -0.10198344814E+03  0.16858227855E+03  0.12500000000E+03 0.  0.
         25    1    1    2    0    0 -0.34389792258E+03  0.16516620532E+02 -0.69119702172E+03  0.78225117625E+03  0.12500000000E+03 0.  0.
         25    1    1    2    0    0  0.34308068520E+03 -0.65442003202E+02 -0.87353584666E+03  0.94903998216E+03  0.12500000000E+03 0.  0.
</event>
<event>
 5    0  0.5605075E-005  0.2292116E+03  0.7546771E-02  0.1127196E+00
         21   -1    0    0  502  501  0.00000000000E+00  0.00000000000E+00  0.36443046447E+03  0.36443046447E+03  0.00000000000E+00 0. -1.
         21   -1    0    0  501  502 -0.00000000000E+00 -0.00000000000E+00 -0.14416460081E+03  0.14416460081E+03  0.00000000000E+00 0. -1.
         25    1    1    2    0    0  0.53904147736E+02 -0.87415828640E+02  0.16192059584E+03  0.22888963191E+03  0.12500000000E+03 0.  0.
         25    1    1    2    0    0 -0.31127838250E+02  0.38357033405E+02  0.49450195696E+02  0.14321496493E+03  0.12500000000E+03 0.  0.
         25    1    1    2    0    0 -0.22776309486E+02  0.49058795236E+02  0.88950721256E+01  0.13649046843E+03  0.12500000000E+03 0.  0.
</event>
<event>
 5    0  0.5605075E-005  0.3423996E+03  0.7546771E-02  0.1065778E+00
         21   -1    0    0  502  501  0.00000000000E+00  0.00000000000E+00  0.13587883526E+03  0.13587883526E+03  0.00000000000E+00 0. -1.
         21   -1    0    0  501  502 -0.00000000000E+00 -0.00000000000E+00 -0.86280912495E+03  0.86280912495E+03  0.00000000000E+00 0. -1.
         25    1    1    2    0    0 -0.95427252803E+01 -0.47701389206E+02 -0.29393286492E+03  0.32309134191E+03  0.12500000000E+03 0.  0.
         25    1    1    2    0    0 -0.16102824378E+03  0.18809667598E+02 -0.13787143868E+02  0.20518036998E+03  0.12500000000E+03 0.  0.
         25    1    1    2    0    0  0.17057096906E+03  0.28891721608E+02 -0.41921028090E+03  0.47041624832E+03  0.12500000000E+03 0.  0.
</event>
<event>
 5    0  0.5605075E-005  0.4290609E+03  0.7546771E-02  0.1034157E+00
         21   -1    0    0  502  501  0.00000000000E+00  0.00000000000E+00  0.26834898390E+03  0.26834898390E+03  0.00000000000E+00 0.  1.
         21   -1    0    0  501  502 -0.00000000000E+00 -0.00000000000E+00 -0.68602172247E+03  0.68602172247E+03  0.00000000000E+00 0.  1.
         25    1    1    2    0    0  0.14799445752E+03 -0.21563899096E+02 -0.46467585715E+03  0.50390079720E+03  0.12500000000E+03 0.  0.
         25    1    1    2    0    0 -0.29144914757E+02  0.16692886049E+03 -0.28744341482E+02  0.21252272275E+03  0.12500000000E+03 0.  0.
         25    1    1    2    0    0 -0.11884954276E+03 -0.14536496139E+03  0.75747460062E+02  0.23794718641E+03  0.12500000000E+03 0.  0.
</event>
<event>
 5    0  0.5605075E-005  0.2474909E+03  0.7546771E-02  0.1114901E+00
         21   -1    0    0  502  501  0.00000000000E+00  0.00000000000E+00  0.86226096440E+03  0.86226096440E+03  0.00000000000E+00 0. -1.
         21   -1    0    0  501  502 -0.00000000000E+00 -0.00000000000E+00 -0.71036226550E+02  0.71036226550E+02  0.00000000000E+00 0. -1.
         25    1    1    2    0    0  0.73856175860E+01 -0.59593741959E+02  0.52558818551E+03  0.54357511181E+03  0.12500000000E+03 0.  0.
         25    1    1    2    0    0 -0.56481708990E+02  0.49462903970E+00  0.11000276701E+03  0.17582956764E+03  0.12500000000E+03 0.  0.
         25    1    1    2    0    0  0.49096091404E+02  0.59099112919E+02  0.15563378533E+03  0.21389251150E+03  0.12500000000E+03 0.  0.
</event>
<event>
 5    0  0.5605075E-005  0.2211564E+03  0.7546771E-02  0.1133024E+00
         21   -1    0    0  502  501  0.00000000000E+00  0.00000000000E+00  0.52862167691E+03  0.52862167691E+03  0.00000000000E+00 0.  1.
         21   -1    0    0  501  502 -0.00000000000E+00 -0.00000000000E+00 -0.92523958317E+02  0.92523958317E+02  0.00000000000E+00 0.  1.
         25    1    1    2    0    0  0.48180477909E+01  0.51152788059E+02  0.18938863472E+03  0.23266472933E+03  0.12500000000E+03 0.  0.
         25    1    1    2    0    0  0.48858217329E+02  0.26714458218E+02  0.75235224571E+02  0.15616057984E+03  0.12500000000E+03 0.  0.
         25    1    1    2    0    0 -0.53676265120E+02 -0.77867246277E+02  0.17147385930E+03  0.23232032607E+03  0.12500000000E+03 0.  0.
</event>
<event>
 5    0  0.5605075E-005  0.2463882E+03  0.7546771E-02  0.1115609E+00
         21   -1    0    0  502  501  0.00000000000E+00  0.00000000000E+00  0.50993949862E+02  0.50993949862E+02  0.00000000000E+00 0. -1.
         21   -1    0    0  501  502 -0.00000000000E+00 -0.00000000000E+00 -0.11904776021E+04  0.11904776021E+04  0.00000000000E+00 0. -1.
         25    1    1    2    0    0 -0.56351048409E+02 -0.87729502297E+02 -0.51048510816E+03  0.53580962280E+03  0.12500000000E+03 0.  0.
         25    1    1    2    0    0  0.85671312084E+02 -0.53183215592E+01 -0.39399791533E+03  0.42216965256E+03  0.12500000000E+03 0.  0.
         25    1    1    2    0    0 -0.29320263675E+02  0.93047823856E+02 -0.23500062880E+03  0.28349227665E+03  0.12500000000E+03 0.  0.
</event>
<event>
 5    0  0.5605075E-005  0.3271676E+03  0.7546771E-02  0.1072397E+00
         21   -1    0    0  502  501  0.00000000000E+00  0.00000000000E+00  0.16217228472E+04  0.16217228472E+04  0.00000000000E+00 0.  1.
         21   -1    0    0  501  502 -0.00000000000E+00 -0.00000000000E+00 -0.66003053895E+02  0.66003053895E+02  0.00000000000E+00 0.  1.
         25    1    1    2    0    0 -0.57240245557E+02  0.16861965618E+03  0.66919581949E+03  0.70367398629E+03  0.12500000000E+03 0.  0.
         25    1    1    2    0    0  0.83675107877E+02  0.26622267049E+02  0.16102872250E+03  0.22195837053E+03  0.12500000000E+03 0.  0.
         25    1    1    2    0    0 -0.26434862320E+02 -0.19524192323E+03  0.72549525136E+03  0.76209354431E+03  0.12500000000E+03 0.  0.
</event>
<event>
 5    0  0.5605075E-005  0.3728169E+03  0.7546771E-02  0.1053621E+00
         21   -1    0    0  502  501  0.00000000000E+00  0.00000000000E+00  0.15797189109E+03  0.15797189109E+03  0.00000000000E+00 0. -1.
         21   -1    0    0  501  502 -0.00000000000E+00 -0.00000000000E+00 -0.87985552022E+03  0.87985552022E+03  0.00000000000E+00 0. -1.
         25    1    1    2    0    0  0.11533267111E+02 -0.18180928477E+03 -0.36262753087E+02  0.22389198186E+03  0.12500000000E+03 0.  0.
         25    1    1    2    0    0 -0.48019497659E+02  0.21209803258E+02 -0.48310540810E+02  0.14392580124E+03  0.12500000000E+03 0.  0.
         25    1    1    2    0    0  0.36486230548E+02  0.16059948152E+03 -0.63731033523E+03  0.67000962820E+03  0.12500000000E+03 0.  0.
</event>
<event>
 5    0  0.5605075E-005  0.4012989E+03  0.7546771E-02  0.1043331E+00
         21   -1    0    0  502  501  0.00000000000E+00  0.00000000000E+00  0.23839459013E+03  0.23839459013E+03  0.00000000000E+00 0. -1.
         21   -1    0    0  501  502 -0.00000000000E+00 -0.00000000000E+00 -0.67552210905E+03  0.67552210905E+03  0.00000000000E+00 0. -1.
         25    1    1    2    0    0 -0.48981248284E+02  0.78340212288E+02  0.57726780982E+02  0.16581234208E+03  0.12500000000E+03 0.  0.
         25    1    1    2    0    0 -0.12379111016E+03 -0.19632111470E+03 -0.41499697846E+03  0.49164388653E+03  0.12500000000E+03 0.  0.
         25    1    1    2    0    0  0.17277235845E+03  0.11798090241E+03 -0.79857321442E+02  0.25646047057E+03  0.12500000000E+03 0.  0.
</event>
<event>
 5    0  0.5605075E-005  0.3019172E+03  0.7546771E-02  0.1084286E+00
         21   -1    0    0  502  501  0.00000000000E+00  0.00000000000E+00  0.88234192153E+02  0.88234192153E+02  0.00000000000E+00 0.  1.
         21   -1    0    0  501  502 -0.00000000000E+00 -0.00000000000E+00 -0.10330915517E+04  0.10330915517E+04  0.00000000000E+00 0. -1.
         25    1    1    2    0    0 -0.10375876936E+03 -0.18103848222E+03 -0.49918205008E+03  0.55529139502E+03  0.12500000000E+03 0.  0.
         25    1    1    2    0    0  0.99015557365E+02  0.13178836111E+03 -0.21046002478E+03  0.29511129215E+03  0.12500000000E+03 0.  0.
         25    1    1    2    0    0  0.47432119960E+01  0.49250121106E+02 -0.23521528469E+03  0.27092305668E+03  0.12500000000E+03 0.  0.
</event>
<event>
 5    0  0.5605075E-005  0.2651670E+03  0.7546771E-02  0.1104078E+00
         21   -1    0    0  502  501  0.00000000000E+00  0.00000000000E+00  0.23615800631E+03  0.23615800631E+03  0.00000000000E+00 0. -1.
         21   -1    0    0  501  502 -0.00000000000E+00 -0.00000000000E+00 -0.29773944655E+03  0.29773944655E+03  0.00000000000E+00 0. -1.
         25    1    1    2    0    0  0.91024231842E+02  0.49070176332E+02 -0.56626092667E+02  0.17182784221E+03  0.12500000000E+03 0.  0.
         25    1    1    2    0    0 -0.47262541464E+02  0.93154941713E+02  0.26990415415E+02  0.16512139024E+03  0.12500000000E+03 0.  0.
         25    1    1    2    0    0 -0.43761690378E+02 -0.14222511804E+03 -0.31945762989E+02  0.19694822040E+03  0.12500000000E+03 0.  0.
</event>
<event>
 5    0  0.5605075E-005  0.2634192E+03  0.7546771E-02  0.1105106E+00
         21   -1    0    0  502  501  0.00000000000E+00  0.00000000000E+00  0.14141402534E+03  0.14141402534E+03  0.00000000000E+00 0.  1.
         21   -1    0    0  501  502 -0.00000000000E+00 -0.00000000000E+00 -0.49068450549E+03  0.49068450549E+03  0.00000000000E+00 0.  1.
         25    1    1    2    0    0  0.72339916415E+02  0.65448075009E+02 -0.20832476704E+03  0.26180283152E+03  0.12500000000E+03 0.  0.
         25    1    1    2    0    0  0.37833268275E+02  0.39038358362E+02 -0.10088809099E+03  0.16958406917E+03  0.12500000000E+03 0.  0.
         25    1    1    2    0    0 -0.11017318469E+03 -0.10448643337E+03 -0.40057622128E+02  0.20071163014E+03  0.12500000000E+03 0.  0.
</event>
<event>
 5    0  0.5605075E-005  0.3157081E+03  0.7546771E-02  0.1077642E+00
         21   -1    0    0  502  501  0.00000000000E+00  0.00000000000E+00  0.75368160751E+02  0.75368160751E+02  0.00000000000E+00 0. -1.
         21   -1    0    0  501  502 -0.00000000000E+00 -0.00000000000E+00 -0.13224633795E+04  0.13224633795E+04  0.00000000000E+00 0. -1.
         25    1    1    2    0    0  0.17830984355E+03 -0.82890090507E+02 -0.32536716213E+03  0.40019240073E+03  0.12500000000E+03 0.  0.
         25    1    1    2    0    0 -0.85684060508E+02  0.14489253724E+03 -0.43477046539E+03  0.48268619532E+03  0.12500000000E+03 0.  0.
         25    1    1    2    0    0 -0.92625783047E+02 -0.62002446729E+02 -0.48695759120E+03  0.51495294417E+03  0.12500000000E+03 0.  0.
</event>
<event>
 5    0  0.5605075E-005  0.2698269E+03  0.7546771E-02  0.1101379E+00
         21   -1    0    0  502  501  0.00000000000E+00  0.00000000000E+00  0.69448923997E+02  0.69448923997E+02  0.00000000000E+00 0. -1.
         21   -1    0    0  501  502 -0.00000000000E+00 -0.00000000000E+00 -0.10483468742E+04  0.10483468742E+04  0.00000000000E+00 0. -1.
         25    1    1    2    0    0 -0.12452680438E+03  0.62940179685E+02 -0.35780284945E+03  0.40387655330E+03  0.12500000000E+03 0.  0.
         25    1    1    2    0    0  0.44176680908E+02  0.57809764806E+02 -0.37628516753E+03  0.40312414384E+03  0.12500000000E+03 0.  0.
         25    1    1    2    0    0  0.80350123476E+02 -0.12074994449E+03 -0.24480993321E+03  0.31079510105E+03  0.12500000000E+03 0.  0.
</event>
<event>
 5    0  0.5605075E-005  0.2714471E+03  0.7546771E-02  0.1100454E+00
         21   -1    0    0  502  501  0.00000000000E+00  0.00000000000E+00  0.86631007311E+03  0.86631007311E+03  0.00000000000E+00 0. -1.
         21   -1    0    0  501  502 -0.00000000000E+00 -0.00000000000E+00 -0.85054432834E+02  0.85054432834E+02  0.00000000000E+00 0. -1.
         25    1    1    2    0    0  0.40278621363E+02  0.70472688329E+02  0.43606053850E+03  0.46082812455E+03  0.12500000000E+03 0.  0.
         25    1    1    2    0    0  0.76560744547E+02  0.59316340475E+01  0.22265017608E+03  0.26663614308E+03  0.12500000000E+03 0.  0.
         25    1    1    2    0    0 -0.11683936591E+03 -0.76404322377E+02  0.12254492570E+03  0.22390023832E+03  0.12500000000E+03 0.  0.
</event>
<event>
 5    0  0.5605075E-005  0.3001139E+03  0.7546771E-02  0.1085184E+00
         21   -1    0    0  502  501  0.00000000000E+00  0.00000000000E+00  0.99138612012E+02  0.99138612012E+02  0.00000000000E+00 0. -1.
         21   -1    0    0  501  502 -0.00000000000E+00 -0.00000000000E+00 -0.90850949118E+03  0.90850949118E+03  0.00000000000E+00 0. -1.
         25    1    1    2    0    0 -0.29549344519E+02 -0.56966869444E+02 -0.14538509346E+03  0.20218855896E+03  0.12500000000E+03 0.  0.
         25    1    1    2    0    0  0.43006847123E+01 -0.14699032938E+03 -0.42308324621E+03  0.46502589825E+03  0.12500000000E+03 0.  0.
         25    1    1    2    0    0  0.25248659807E+02  0.20395719883E+03 -0.24090253949E+03  0.34043364597E+03  0.12500000000E+03 0.  0.
</event>
<event>
 5    0  0.5605075E-005  0.2846847E+03  0.7546771E-02  0.1093157E+00
         21   -1    0    0  502  501  0.00000000000E+00  0.00000000000E+00  0.87460870274E+02  0.87460870274E+02  0.00000000000E+00 0.  1.
         21   -1    0    0  501  502 -0.00000000000E+00 -0.00000000000E+00 -0.92664717795E+03  0.92664717795E+03  0.00000000000E+00 0.  1.
         25    1    1    2    0    0  0.59866267059E+02  0.31333018944E+02 -0.37985612724E+03  0.40556307205E+03  0.12500000000E+03 0.  0.
         25    1    1    2    0    0  0.63197776323E+02 -0.66491843965E+02 -0.38457223064E+03  0.41465157039E+03  0.12500000000E+03 0.  0.
         25    1    1    2    0    0 -0.12306404338E+03  0.35158825022E+02 -0.74757949797E+02  0.19389340579E+03  0.12500000000E+03 0.  0.
</event>
<event>
 5    0  0.5605075E-005  0.2421037E+03  0.7546771E-02  0.1118399E+00
         21   -1    0    0  502  501  0.00000000000E+00  0.00000000000E+00  0.21675383314E+03  0.21675383314E+03  0.00000000000E+00 0. -1.
         21   -1    0    0  501  502 -0.00000000000E+00 -0.00000000000E+00 -0.27041831122E+03  0.27041831122E+03  0.00000000000E+00 0. -1.
         25    1    1    2    0    0  0.96270868860E+02  0.29695948191E+02 -0.36978722039E+02  0.16474937151E+03  0.12500000000E+03 0.  0.
         25    1    1    2    0    0 -0.74105836481E+02 -0.56789545300E+02 -0.82928479694E+02  0.17668859669E+03  0.12500000000E+03 0.  0.
         25    1    1    2    0    0 -0.22165032379E+02  0.27093597109E+02  0.66242723646E+02  0.14573417616E+03  0.12500000000E+03 0.  0.
</event>
<event>
 5    0  0.5605075E-005  0.3727163E+03  0.7546771E-02  0.1053659E+00
         21   -1    0    0  502  501  0.00000000000E+00  0.00000000000E+00  0.53075890913E+03  0.53075890913E+03  0.00000000000E+00 0.  1.
         21   -1    0    0  501  502 -0.00000000000E+00 -0.00000000000E+00 -0.26173355620E+03  0.26173355620E+03  0.00000000000E+00 0.  1.
         25    1    1    2    0    0  0.38178720942E+02 -0.98980376926E+02 -0.18350866510E+03  0.24607958045E+03  0.12500000000E+03 0.  0.
         25    1    1    2    0    0 -0.29449810755E+02  0.10267499869E+03  0.16594914111E+03  0.23360985456E+03  0.12500000000E+03 0.  0.
         25    1    1    2    0    0 -0.87289101870E+01 -0.36946217639E+01  0.28658487691E+03  0.31280303032E+03  0.12500000000E+03 0.  0.
</event>
<event>
 5    0  0.5605075E-005  0.2824656E+03  0.7546771E-02  0.1094350E+00
         21   -1    0    0  502  501  0.00000000000E+00  0.00000000000E+00  0.38786048991E+02  0.38786048991E+02  0.00000000000E+00 0.  1.
         21   -1    0    0  501  502 -0.00000000000E+00 -0.00000000000E+00 -0.20571014238E+04  0.20571014238E+04  0.00000000000E+00 0.  1.
         25    1    1    2    0    0  0.27416898531E+01  0.71146450001E+00 -0.18451405564E+03  0.22288665230E+03  0.12500000000E+03 0.  0.
         25    1    1    2    0    0  0.12591776351E+03 -0.33731269505E+02 -0.11986128393E+04  0.12121430692E+04  0.12500000000E+03 0.  0.
         25    1    1    2    0    0 -0.12865945336E+03  0.33019805005E+02 -0.63518847982E+03  0.66085775123E+03  0.12500000000E+03 0.  0.
</event>
<event>
 5    0  0.5605075E-005  0.2995705E+03  0.7546771E-02  0.1085456E+00
         21   -1    0    0  502  501  0.00000000000E+00  0.00000000000E+00  0.10117260171E+04  0.10117260171E+04  0.00000000000E+00 0. -1.
         21   -1    0    0  501  502 -0.00000000000E+00 -0.00000000000E+00 -0.88702355250E+02  0.88702355250E+02  0.00000000000E+00 0. -1.
         25    1    1    2    0    0 -0.13900495923E+03  0.63398901093E+02  0.32912537807E+03  0.38378420218E+03  0.12500000000E+03 0.  0.
         25    1    1    2    0    0  0.61515306098E+02 -0.16826285483E+03  0.28924665809E+03  0.36247089596E+03  0.12500000000E+03 0.  0.
         25    1    1    2    0    0  0.77489653130E+02  0.10486395374E+03  0.30465162573E+03  0.35417327425E+03  0.12500000000E+03 0.  0.
</event>
<event>
 5    0  0.5605075E-005  0.3362935E+03  0.7546771E-02  0.1068386E+00
         21   -1    0    0  502  501  0.00000000000E+00  0.00000000000E+00  0.14027270137E+03  0.14027270137E+03  0.00000000000E+00 0.  1.
         21   -1    0    0  501  502 -0.00000000000E+00 -0.00000000000E+00 -0.80623915682E+03  0.80623915682E+03  0.00000000000E+00 0.  1.
         25    1    1    2    0    0 -0.81050313379E+02 -0.96321451306E+02 -0.61632481968E+03  0.64134878081E+03  0.12500000000E+03 0.  0.
         25    1    1    2    0    0  0.89512402610E+02  0.32407159790E+02 -0.48752903344E+02  0.16451303842E+03  0.12500000000E+03 0.  0.
         25    1    1    2    0    0 -0.84620892316E+01  0.63914291516E+02 -0.88873241354E+00  0.14065003896E+03  0.12500000000E+03 0.  0.
</event>
<event>
 5    0  0.5605075E-005  0.4008264E+03  0.7546771E-02  0.1043494E+00
         21   -1    0    0  502  501  0.00000000000E+00  0.00000000000E+00  0.18653128345E+03  0.18653128345E+03  0.00000000000E+00 0. -1.
         21   -1    0    0  501  502 -0.00000000000E+00 -0.00000000000E+00 -0.86131285833E+03  0.86131285833E+03  0.00000000000E+00 0. -1.
         25    1    1    2    0    0 -0.13580281281E+03  0.65128356891E+02 -0.21371184887E+03  0.28979624080E+03  0.12500000000E+03 0.  0.
         25    1    1    2    0    0  0.19589388405E+03  0.15034980141E+03 -0.61755234403E+02  0.28358100354E+03  0.12500000000E+03 0.  0.
         25    1    1    2    0    0 -0.60091071237E+02 -0.21547815830E+03 -0.39931449161E+03  0.47446689743E+03  0.12500000000E+03 0.  0.
</event>
<event>
 5    0  0.5605075E-005  0.3668663E+03  0.7546771E-02  0.1055898E+00
         21   -1    0    0  502  501  0.00000000000E+00  0.00000000000E+00  0.79054139937E+02  0.79054139937E+02  0.00000000000E+00 0. -1.
         21   -1    0    0  501  502 -0.00000000000E+00 -0.00000000000E+00 -0.17025155219E+04  0.17025155219E+04  0.00000000000E+00 0. -1.
         25    1    1    2    0    0 -0.69715381592E+02  0.18303843517E+02 -0.31684891806E+03  0.34815729490E+03  0.12500000000E+03 0.  0.
         25    1    1    2    0    0  0.26338741226E+02  0.53520068961E+02 -0.12712403131E+04  0.12787630980E+04  0.12500000000E+03 0.  0.
         25    1    1    2    0    0  0.43376640366E+02 -0.71823912478E+02 -0.35372150774E+02  0.15464926894E+03  0.12500000000E+03 0.  0.
</event>
<event>
 5    0  0.5605075E-005  0.2712049E+03  0.7546771E-02  0.1100592E+00
         21   -1    0    0  502  501  0.00000000000E+00  0.00000000000E+00  0.60771702242E+03  0.60771702242E+03  0.00000000000E+00 0.  1.
         21   -1    0    0  501  502 -0.00000000000E+00 -0.00000000000E+00 -0.12103015518E+03  0.12103015518E+03  0.00000000000E+00 0.  1.
         25    1    1    2    0    0  0.37587994857E+02  0.37794628300E+02  0.26222741676E+00  0.13589098590E+03  0.12500000000E+03 0.  0.
         25    1    1    2    0    0 -0.27730194036E+02  0.75875600872E+02  0.33164379746E+03  0.36350884290E+03  0.12500000000E+03 0.  0.
         25    1    1    2    0    0 -0.98578008212E+01 -0.11367022917E+03  0.15478084236E+03  0.22934734880E+03  0.12500000000E+03 0.  0.
</event>
<event>
 5    0  0.5605075E-005  0.2544107E+03  0.7546771E-02  0.1110549E+00
         21   -1    0    0  502  501  0.00000000000E+00  0.00000000000E+00  0.80405239633E+03  0.80405239633E+03  0.00000000000E+00 0.  1.
         21   -1    0    0  501  502 -0.00000000000E+00 -0.00000000000E+00 -0.80498225253E+02  0.80498225253E+02  0.00000000000E+00 0.  1.
         25    1    1    2    0    0  0.25770868044E+02 -0.60511035563E+02  0.16615654433E+03  0.21807961915E+03  0.12500000000E+03 0.  0.
         25    1    1    2    0    0  0.93147964823E+02  0.66913960856E+02  0.16001407825E+03  0.23320275887E+03  0.12500000000E+03 0.  0.
         25    1    1    2    0    0 -0.11891883287E+03 -0.64029252929E+01  0.39738354849E+03  0.43326824356E+03  0.12500000000E+03 0.  0.
</event>
<event>
 5    0  0.5605075E-005  0.3558534E+03  0.7546771E-02  0.1060238E+00
         21   -1    0    0  502  501  0.00000000000E+00  0.00000000000E+00  0.11962816152E+04  0.11962816152E+04  0.00000000000E+00 0. -1.
         21   -1    0    0  501  502 -0.00000000000E+00 -0.00000000000E+00 -0.10585435944E+03  0.10585435944E+03  0.00000000000E+00 0. -1.
         25    1    1    2    0    0 -0.42640075832E+02  0.24176871591E+03  0.35553092211E+03  0.44977497111E+03  0.12500000000E+03 0.  0.
         25    1    1    2    0    0 -0.34730510105E+02 -0.13245430367E+03  0.14708234180E+03  0.23666128995E+03  0.12500000000E+03 0.  0.
         25    1    1    2    0    0  0.77370585937E+02 -0.10931441224E+03  0.58781399187E+03  0.61569971360E+03  0.12500000000E+03 0.  0.
</event>
<event>
 5    0  0.5605075E-005  0.2418064E+03  0.7546771E-02  0.1118595E+00
         21   -1    0    0  502  501  0.00000000000E+00  0.00000000000E+00  0.11330208577E+04  0.11330208577E+04  0.00000000000E+00 0. -1.
         21   -1    0    0  501  502 -0.00000000000E+00 -0.00000000000E+00 -0.51605684026E+02  0.51605684026E+02  0.00000000000E+00 0. -1.
         25    1    1    2    0    0  0.52694764957E+01 -0.43286257371E+02  0.12741781551E+03  0.18374375410E+03  0.12500000000E+03 0.  0.
         25    1    1    2    0    0 -0.21779247638E+01  0.37472758884E+02  0.75203081727E+03  0.76327210164E+03  0.12500000000E+03 0.  0.
         25    1    1    2    0    0 -0.30915517319E+01  0.58134984870E+01  0.20196654088E+03  0.23761068598E+03  0.12500000000E+03 0.  0.
</event>
<event>
 5    0  0.5605075E-005  0.2733646E+03  0.7546771E-02  0.1099369E+00
         21   -1    0    0  502  501  0.00000000000E+00  0.00000000000E+00  0.37822086270E+02  0.37822086270E+02  0.00000000000E+00 0. -1.
         21   -1    0    0  501  502 -0.00000000000E+00 -0.00000000000E+00 -0.19757815531E+04  0.19757815531E+04  0.00000000000E+00 0. -1.
         25    1    1    2    0    0 -0.90091370126E+02 -0.14595495887E+02 -0.27605865658E+03  0.31648517397E+03  0.12500000000E+03 0.  0.
         25    1    1    2    0    0  0.18219810866E+02  0.10708386880E+03 -0.64669181515E+03  0.66755840212E+03  0.12500000000E+03 0.  0.
         25    1    1    2    0    0  0.71871559260E+02 -0.92488372914E+02 -0.10152089951E+04  0.10295600633E+04  0.12500000000E+03 0.  0.
</event>
<event>
 5    0  0.5605075E-005  0.3241863E+03  0.7546771E-02  0.1073739E+00
         21   -1    0    0  502  501  0.00000000000E+00  0.00000000000E+00  0.90585555055E+02  0.90585555055E+02  0.00000000000E+00 0. -1.
         21   -1    0    0  501  502 -0.00000000000E+00 -0.00000000000E+00 -0.11601936897E+04  0.11601936897E+04  0.00000000000E+00 0. -1.
         25    1    1    2    0    0  0.98012236149E+02 -0.86305454443E+02 -0.71721007683E+03  0.73964202437E+03  0.12500000000E+03 0.  0.
         25    1    1    2    0    0 -0.16265034543E+03  0.48943833374E+02 -0.13820363936E+03  0.25214257797E+03  0.12500000000E+03 0.  0.
         25    1    1    2    0    0  0.64638109282E+02  0.37361621069E+02 -0.21419441842E+03  0.25899464238E+03  0.12500000000E+03 0.  0.
</event>
<event>
 5    0  0.5605075E-005  0.3652618E+03  0.7546771E-02  0.1056520E+00
         21   -1    0    0  502  501  0.00000000000E+00  0.00000000000E+00  0.26114295136E+03  0.26114295136E+03  0.00000000000E+00 0. -1.
         21   -1    0    0  501  502 -0.00000000000E+00 -0.00000000000E+00 -0.51089329975E+03  0.51089329975E+03  0.00000000000E+00 0. -1.
         25    1    1    2    0    0 -0.41246963242E+02 -0.33163376476E+02 -0.32660617088E+03  0.35369154976E+03  0.12500000000E+03 0.  0.
         25    1    1    2    0    0  0.10233905604E+03 -0.97026580187E+02 -0.42932435279E+02  0.19327605556E+03  0.12500000000E+03 0.  0.
         25    1    1    2    0    0 -0.61092092801E+02  0.13018995666E+03  0.11978825777E+03  0.22506864579E+03  0.12500000000E+03 0.  0.
</event>
<event>
 5    0  0.5605075E-005  0.4057070E+03  0.7546771E-02  0.1041821E+00
         21   -1    0    0  502  501  0.00000000000E+00  0.00000000000E+00  0.17022125053E+04  0.17022125053E+04  0.00000000000E+00 0. -1.
         21   -1    0    0  501  502 -0.00000000000E+00 -0.00000000000E+00 -0.96696593194E+02  0.96696593194E+02  0.00000000000E+00 0. -1.
         25    1    1    2    0    0 -0.62946727938E+02  0.95690878226E+02  0.21403428253E+03  0.27304708171E+03  0.12500000000E+03 0.  0.
         25    1    1    2    0    0 -0.10896693632E+03  0.65430394362E+02  0.11572242598E+04  0.11708748512E+04  0.12500000000E+03 0.  0.
         25    1    1    2    0    0  0.17191366426E+03 -0.16112127259E+03  0.23425736982E+03  0.35498716562E+03  0.12500000000E+03 0.  0.
</event>
<event>
 5    0  0.5605075E-005  0.3917009E+03  0.7546771E-02  0.1046692E+00
         21   -1    0    0  502  501  0.00000000000E+00  0.00000000000E+00  0.55451938307E+03  0.55451938307E+03  0.00000000000E+00 0.  1.
         21   -1    0    0  501  502 -0.00000000000E+00 -0.00000000000E+00 -0.27668928884E+03  0.27668928884E+03  0.00000000000E+00 0. -1.
         25    1    1    2    0    0  0.32151240099E+02  0.16626800661E+03  0.21216561358E+03  0.29886117153E+03  0.12500000000E+03 0.  0.
         25    1    1    2    0    0 -0.23325434261E+02  0.13364503840E+03  0.92193047664E+02  0.20622713258E+03  0.12500000000E+03 0.  0.
         25    1    1    2    0    0 -0.88258058380E+01 -0.29991304502E+03 -0.26528567023E+02  0.32612036779E+03  0.12500000000E+03 0.  0.
</event>
<event>
 5    0  0.5605075E-005  0.3876578E+03  0.7546771E-02  0.1048139E+00
         21   -1    0    0  502  501  0.00000000000E+00  0.00000000000E+00  0.16201530453E+03  0.16201530453E+03  0.00000000000E+00 0. -1.
         21   -1    0    0  501  502 -0.00000000000E+00 -0.00000000000E+00 -0.92755809061E+03  0.92755809061E+03  0.00000000000E+00 0. -1.
         25    1    1    2    0    0  0.16502646933E+03  0.26755465191E+03 -0.23071994378E+03  0.40948250243E+03  0.12500000000E+03 0.  0.
         25    1    1    2    0    0 -0.11064611157E+03 -0.72327891863E+02 -0.23760048108E+03  0.29925386306E+03  0.12500000000E+03 0.  0.
         25    1    1    2    0    0 -0.54380357755E+02 -0.19522676005E+03 -0.29722236122E+03  0.38083702965E+03  0.12500000000E+03 0.  0.
</event>
<event>
 5    0  0.5605075E-005  0.2318009E+03  0.7546771E-02  0.1125379E+00
         21   -1    0    0  502  501  0.00000000000E+00  0.00000000000E+00  0.10423186129E+04  0.10423186129E+04  0.00000000000E+00 0.  1.
         21   -1    0    0  501  502 -0.00000000000E+00 -0.00000000000E+00 -0.51550120596E+02  0.51550120596E+02  0.00000000000E+00 0.  1.
         25    1    1    2    0    0 -0.45738179575E+01  0.16610609242E+02  0.83964871614E+02  0.15156494257E+03  0.12500000000E+03 0.  0.
         25    1    1    2    0    0 -0.12960836452E+02  0.74271182381E+01  0.50501253053E+03  0.52046690708E+03  0.12500000000E+03 0.  0.
         25    1    1    2    0    0  0.17534654409E+02 -0.24037727480E+02  0.40179109014E+03  0.42183688383E+03  0.12500000000E+03 0.  0.
</event>
<event>
 5    0  0.5605075E-005  0.2561728E+03  0.7546771E-02  0.1109465E+00
         21   -1    0    0  502  501  0.00000000000E+00  0.00000000000E+00  0.73601218819E+03  0.73601218819E+03  0.00000000000E+00 0.  1.
         21   -1    0    0  501  502 -0.00000000000E+00 -0.00000000000E+00 -0.89162251132E+02  0.89162251132E+02  0.00000000000E+00 0.  1.
         25    1    1    2    0    0  0.25936649696E+02  0.11162772174E+03  0.14785663353E+03  0.22498898226E+03  0.12500000000E+03 0.  0.
         25    1    1    2    0    0 -0.35358209839E+02 -0.14275792405E+03  0.37176696563E+03  0.41888626692E+03  0.12500000000E+03 0.  0.
         25    1    1    2    0    0  0.94215601435E+01  0.31130202306E+02  0.12722633790E+03  0.18129919014E+03  0.12500000000E+03 0.  0.
</event>
<event>
 5    0  0.5605075E-005  0.2662171E+03  0.7546771E-02  0.1103464E+00
         21   -1    0    0  502  501  0.00000000000E+00  0.00000000000E+00  0.10939592652E+03  0.10939592652E+03  0.00000000000E+00 0. -1.
         21   -1    0    0  501  502 -0.00000000000E+00 -0.00000000000E+00 -0.64784424412E+03  0.64784424412E+03  0.00000000000E+00 0. -1.
         25    1    1    2    0    0  0.69713515908E+01  0.74496606546E+01  0.75243745373E+01  0.12564120900E+03  0.12500000000E+03 0.  0.
         25    1    1    2    0    0  0.25183111313E+02  0.37612019725E+02 -0.10348102643E+03  0.16847010404E+03  0.12500000000E+03 0.  0.
         25    1    1    2    0    0 -0.32154462904E+02 -0.45061680380E+02 -0.44249166571E+03  0.46312885761E+03  0.12500000000E+03 0.  0.
</event>
<event>
 5    0  0.5605075E-005  0.3241853E+03  0.7546771E-02  0.1073739E+00
         21   -1    0    0  502  501  0.00000000000E+00  0.00000000000E+00  0.47437402156E+02  0.47437402156E+02  0.00000000000E+00 0. -1.
         21   -1    0    0  501  502 -0.00000000000E+00 -0.00000000000E+00 -0.22154689294E+04  0.22154689294E+04  0.00000000000E+00 0. -1.
         25    1    1    2    0    0  0.23412000581E+02  0.12298268854E+03 -0.12515800018E+04  0.12640215047E+04  0.12500000000E+03 0.  0.
         25    1    1    2    0    0  0.64041441227E+02 -0.18497252980E+02 -0.13440882797E+03  0.19527976751E+03  0.12500000000E+03 0.  0.
         25    1    1    2    0    0 -0.87453441808E+02 -0.10448543556E+03 -0.78204269751E+03  0.80360505938E+03  0.12500000000E+03 0.  0.
</event>
<event>
 5    0  0.5605075E-005  0.2809994E+03  0.7546771E-02  0.1095144E+00
         21   -1    0    0  502  501  0.00000000000E+00  0.00000000000E+00  0.45706518969E+03  0.45706518969E+03  0.00000000000E+00 0. -1.
         21   -1    0    0  501  502 -0.00000000000E+00 -0.00000000000E+00 -0.17275582557E+03  0.17275582557E+03  0.00000000000E+00 0. -1.
         25    1    1    2    0    0  0.27578657706E+02  0.14104110617E+02  0.27285362940E+03  0.30171776774E+03  0.12500000000E+03 0.  0.
         25    1    1    2    0    0 -0.15537359497E+02 -0.92101740260E+02 -0.55765930362E+02  0.16570751066E+03  0.12500000000E+03 0.  0.
         25    1    1    2    0    0 -0.12041298209E+02  0.77997629643E+02  0.67221665083E+02  0.16239573686E+03  0.12500000000E+03 0.  0.
</event>
<event>
 5    0  0.5605075E-005  0.2968826E+03  0.7546771E-02  0.1086809E+00
         21   -1    0    0  502  501  0.00000000000E+00  0.00000000000E+00  0.15648348866E+04  0.15648348866E+04  0.00000000000E+00 0.  1.
         21   -1    0    0  501  502 -0.00000000000E+00 -0.00000000000E+00 -0.56324964440E+02  0.56324964440E+02  0.00000000000E+00 0.  1.
         25    1    1    2    0    0  0.11081906691E+03 -0.17298286486E+02  0.10342751416E+04  0.10478216284E+04  0.12500000000E+03 0.  0.
         25    1    1    2    0    0 -0.13181895877E+03 -0.27820844672E+02  0.31677664314E+03  0.36622763267E+03  0.12500000000E+03 0.  0.
         25    1    1    2    0    0  0.20999891859E+02  0.45119131158E+02  0.15745813736E+03  0.20711058997E+03  0.12500000000E+03 0.  0.
</event>
<event>
 5    0  0.5605075E-005  0.3125257E+03  0.7546771E-02  0.1079142E+00
         21   -1    0    0  502  501  0.00000000000E+00  0.00000000000E+00  0.45269030474E+03  0.45269030474E+03  0.00000000000E+00 0. -1.
         21   -1    0    0  501  502 -0.00000000000E+00 -0.00000000000E+00 -0.21575966436E+03  0.21575966436E+03  0.00000000000E+00 0. -1.
         25    1    1    2    0    0  0.12344671090E+03 -0.77171163130E+02  0.18507640760E+03  0.26659474020E+03  0.12500000000E+03 0.  0.
         25    1    1    2    0    0  0.32671620309E+02  0.13127573454E+03 -0.13297163444E+02  0.18466880572E+03  0.12500000000E+03 0.  0.
         25    1    1    2    0    0 -0.15611833121E+03 -0.54104571407E+02  0.65151396219E+02  0.21718642318E+03  0.12500000000E+03 0.  0.
</event>
<event>
 5    0  0.5605075E-005  0.4899558E+03  0.7546771E-02  0.1016434E+00
         21   -1    0    0  502  501  0.00000000000E+00  0.00000000000E+00  0.47210323308E+03  0.47210323308E+03  0.00000000000E+00 0. -1.
         21   -1    0    0  501  502 -0.00000000000E+00 -0.00000000000E+00 -0.50848343889E+03  0.50848343889E+03  0.00000000000E+00 0. -1.
         25    1    1    2    0    0 -0.11638706266E+03 -0.23615716295E+03  0.40054256225E+02  0.29418616114E+03  0.12500000000E+03 0.  0.
         25    1    1    2    0    0 -0.12191441559E+03  0.16317262577E+02 -0.24411590483E+03  0.30057769840E+03  0.12500000000E+03 0.  0.
         25    1    1    2    0    0  0.23830147824E+03  0.21983990038E+03  0.16768144280E+03  0.38582281243E+03  0.12500000000E+03 0.  0.
</event>
<event>
 5    0  0.5605075E-005  0.3025167E+03  0.7546771E-02  0.1083989E+00
         21   -1    0    0  502  501  0.00000000000E+00  0.00000000000E+00  0.52477022231E+03  0.52477022231E+03  0.00000000000E+00 0. -1.
         21   -1    0    0  501  502 -0.00000000000E+00 -0.00000000000E+00 -0.17439318260E+03  0.17439318260E+03  0.00000000000E+00 0. -1.
         25    1    1    2    0    0 -0.39370510550E+02 -0.51872098483E+02  0.24926108863E+03  0.28635090712E+03  0.12500000000E+03 0.  0.
         25    1    1    2    0    0  0.16198887289E+03  0.13821688936E+02  0.11130629246E+03  0.23333564829E+03  0.12500000000E+03 0.  0.
         25    1    1    2    0    0 -0.12261836234E+03  0.38050409547E+02 -0.10190341377E+02  0.17947684950E+03  0.12500000000E+03 0.  0.
</event>
<event>
 5    0  0.5605075E-005  0.2611171E+03  0.7546771E-02  0.1106474E+00
         21   -1    0    0  502  501  0.00000000000E+00  0.00000000000E+00  0.48582959033E+03  0.48582959033E+03  0.00000000000E+00 0. -1.
         21   -1    0    0  501  502 -0.00000000000E+00 -0.00000000000E+00 -0.14034172061E+03  0.14034172061E+03  0.00000000000E+00 0. -1.
         25    1    1    2    0    0  0.65693025133E+02 -0.51388222236E+02  0.10861340473E+03  0.18541357723E+03  0.12500000000E+03 0.  0.
         25    1    1    2    0    0  0.55878738679E+02  0.70585588205E+02  0.21425215663E+03  0.26388206706E+03  0.12500000000E+03 0.  0.
         25    1    1    2    0    0 -0.12157176381E+03 -0.19197365969E+02  0.22622308361E+02  0.17687566665E+03  0.12500000000E+03 0.  0.
</event>
<event>
 5    0  0.5605075E-005  0.2755302E+03  0.7546771E-02  0.1098156E+00
         21   -1    0    0  502  501  0.00000000000E+00  0.00000000000E+00  0.10152912277E+03  0.10152912277E+03  0.00000000000E+00 0. -1.
         21   -1    0    0  501  502 -0.00000000000E+00 -0.00000000000E+00 -0.74773523067E+03  0.74773523067E+03  0.00000000000E+00 0. -1.
         25    1    1    2    0    0  0.62238446803E+02  0.69993479867E+02 -0.35738142747E+03  0.39002460972E+03  0.12500000000E+03 0.  0.
         25    1    1    2    0    0  0.33335727154E+02 -0.13381074942E+03 -0.13281615972E+03  0.22865196183E+03  0.12500000000E+03 0.  0.
         25    1    1    2    0    0 -0.95574173957E+02  0.63817269555E+02 -0.15600852071E+03  0.23058778189E+03  0.12500000000E+03 0.  0.
</event>
<event>
 5    0  0.5605075E-005  0.2727675E+03  0.7546771E-02  0.1099706E+00
         21   -1    0    0  502  501  0.00000000000E+00  0.00000000000E+00  0.27394005115E+03  0.27394005115E+03  0.00000000000E+00 0. -1.
         21   -1    0    0  501  502 -0.00000000000E+00 -0.00000000000E+00 -0.27159995067E+03  0.27159995067E+03  0.00000000000E+00 0. -1.
         25    1    1    2    0    0 -0.11667731093E+03 -0.12374879359E+03 -0.56004321790E+02  0.21837775267E+03  0.12500000000E+03 0.  0.
         25    1    1    2    0    0  0.60461245506E+02  0.11890580918E+03  0.51144166164E+02  0.18982855264E+03  0.12500000000E+03 0.  0.
         25    1    1    2    0    0  0.56216065423E+02  0.48429844120E+01  0.72002561084E+01  0.13733369651E+03  0.12500000000E+03 0.  0.
</event>
<event>
 5    0  0.5605075E-005  0.2848838E+03  0.7546771E-02  0.1093051E+00
         21   -1    0    0  502  501  0.00000000000E+00  0.00000000000E+00  0.25185459086E+03  0.25185459086E+03  0.00000000000E+00 0.  1.
         21   -1    0    0  501  502 -0.00000000000E+00 -0.00000000000E+00 -0.32224462271E+03  0.32224462271E+03  0.00000000000E+00 0.  1.
         25    1    1    2    0    0  0.13888285387E+03 -0.10177260772E+03 -0.46989930707E+02  0.21789714172E+03  0.12500000000E+03 0.  0.
         25    1    1    2    0    0 -0.14279303585E+03  0.34022952211E+02 -0.72130789984E+02  0.20585252786E+03  0.12500000000E+03 0.  0.
         25    1    1    2    0    0  0.39101819840E+01  0.67749655509E+02  0.48730688838E+02  0.15034954399E+03  0.12500000000E+03 0.  0.
</event>
<event>
 5    0  0.5605075E-005  0.3170066E+03  0.7546771E-02  0.1077035E+00
         21   -1    0    0  502  501  0.00000000000E+00  0.00000000000E+00  0.22319870293E+03  0.22319870293E+03  0.00000000000E+00 0. -1.
         21   -1    0    0  501  502 -0.00000000000E+00 -0.00000000000E+00 -0.45024090347E+03  0.45024090347E+03  0.00000000000E+00 0. -1.
         25    1    1    2    0    0 -0.17283959466E+03 -0.71627888799E+01  0.28161975070E+02  0.21527407616E+03  0.12500000000E+03 0.  0.
         25    1    1    2    0    0  0.91609512625E+02  0.60809238897E+02 -0.10705461093E+02  0.16682228039E+03  0.12500000000E+03 0.  0.
         25    1    1    2    0    0  0.81230082038E+02 -0.53646450017E+02 -0.24449871451E+03  0.29134324984E+03  0.12500000000E+03 0.  0.
</event>
<event>
 5    0  0.5605075E-005  0.3852462E+03  0.7546771E-02  0.1049012E+00
         21   -1    0    0  502  501  0.00000000000E+00  0.00000000000E+00  0.15919484619E+03  0.15919484619E+03  0.00000000000E+00 0. -1.
         21   -1    0    0  501  502 -0.00000000000E+00 -0.00000000000E+00 -0.93228292702E+03  0.93228292702E+03  0.00000000000E+00 0. -1.
         25    1    1    2    0    0  0.36810988366E+02  0.25608465551E+03 -0.52950756583E+03  0.60244307774E+03  0.12500000000E+03 0.  0.
         25    1    1    2    0    0  0.87717670500E+02 -0.16397567935E+03 -0.11265911892E+03  0.25079770775E+03  0.12500000000E+03 0.  0.
         25    1    1    2    0    0 -0.12452865887E+03 -0.92108976160E+02 -0.13092139609E+03  0.23823698773E+03  0.12500000000E+03 0.  0.
</event>
<event>
 5    0  0.5605075E-005  0.2752009E+03  0.7546771E-02  0.1098339E+00
         21   -1    0    0  502  501  0.00000000000E+00  0.00000000000E+00  0.36588186074E+03  0.36588186074E+03  0.00000000000E+00 0.  1.
         21   -1    0    0  501  502 -0.00000000000E+00 -0.00000000000E+00 -0.20699445819E+03  0.20699445819E+03  0.00000000000E+00 0.  1.
         25    1    1    2    0    0  0.79892207778E+02  0.16813217042E+02  0.12544826278E+03  0.19500696337E+03  0.12500000000E+03 0.  0.
         25    1    1    2    0    0  0.27855933824E+02 -0.31043736602E+02 -0.99790633229E+02  0.16529621022E+03  0.12500000000E+03 0.  0.
         25    1    1    2    0    0 -0.10774814160E+03  0.14230519561E+02  0.13322977301E+03  0.21257314534E+03  0.12500000000E+03 0.  0.
</event>
<event>
 5    0  0.5605075E-005  0.2705861E+03  0.7546771E-02  0.1100945E+00
         21   -1    0    0  502  501  0.00000000000E+00  0.00000000000E+00  0.31926997037E+04  0.31926997037E+04  0.00000000000E+00 0. -1.
         21   -1    0    0  501  502 -0.00000000000E+00 -0.00000000000E+00 -0.22932576034E+02  0.22932576034E+02  0.00000000000E+00 0. -1.
         25    1    1    2    0    0  0.79705271266E+02 -0.12203922866E+03  0.12085110775E+04  0.12236709231E+04  0.12500000000E+03 0.  0.
         25    1    1    2    0    0 -0.34182260237E+02  0.10523587095E+03  0.56130385764E+03  0.58560228487E+03  0.12500000000E+03 0.  0.
         25    1    1    2    0    0 -0.45523011029E+02  0.16803357707E+02  0.13999521925E+04  0.14063590717E+04  0.12500000000E+03 0.  0.
</event>
<event>
 5    0  0.5605075E-005  0.2232115E+03  0.7546771E-02  0.1131511E+00
         21   -1    0    0  502  501  0.00000000000E+00  0.00000000000E+00  0.20923470062E+04  0.20923470062E+04  0.00000000000E+00 0.  1.
         21   -1    0    0  501  502 -0.00000000000E+00 -0.00000000000E+00 -0.23812199475E+02  0.23812199475E+02  0.00000000000E+00 0.  1.
         25    1    1    2    0    0  0.33132446685E+02  0.23367450564E+02  0.55563874163E+03  0.57096690619E+03  0.12500000000E+03 0.  0.
         25    1    1    2    0    0 -0.24348805392E+02 -0.92269960017E+02  0.10170631049E+04  0.10291496341E+04  0.12500000000E+03 0.  0.
         25    1    1    2    0    0 -0.87836412933E+01  0.68902509452E+02  0.49583296015E+03  0.51604266542E+03  0.12500000000E+03 0.  0.
</event>
<event>
 5    0  0.5605075E-005  0.5133165E+03  0.7546771E-02  0.1010360E+00
         21   -1    0    0  502  501  0.00000000000E+00  0.00000000000E+00  0.74568056031E+03  0.74568056031E+03  0.00000000000E+00 0. -1.
         21   -1    0    0  501  502 -0.00000000000E+00 -0.00000000000E+00 -0.35336022111E+03  0.35336022111E+03  0.00000000000E+00 0. -1.
         25    1    1    2    0    0 -0.22892637959E+03  0.16090455915E+03  0.33530030332E+02  0.30829665480E+03  0.12500000000E+03 0.  0.
         25    1    1    2    0    0  0.20877064468E+03 -0.37324687315E+03  0.29839294296E+03  0.53624785203E+03  0.12500000000E+03 0.  0.
         25    1    1    2    0    0  0.20155734912E+02  0.21234231401E+03  0.60397365906E+02  0.25449627458E+03  0.12500000000E+03 0.  0.
</event>
<event>
 5    0  0.5605075E-005  0.2698742E+03  0.7546771E-02  0.1101352E+00
         21   -1    0    0  502  501  0.00000000000E+00  0.00000000000E+00  0.17129665300E+03  0.17129665300E+03  0.00000000000E+00 0.  1.
         21   -1    0    0  501  502 -0.00000000000E+00 -0.00000000000E+00 -0.42518093055E+03  0.42518093055E+03  0.00000000000E+00 0.  1.
         25    1    1    2    0    0 -0.88027948734E+02 -0.81669970513E+01 -0.62925815079E+02  0.16553029270E+03  0.12500000000E+03 0.  0.
         25    1    1    2    0    0  0.12474453174E+03  0.22576935498E+01  0.25295147469E+02  0.17841283548E+03  0.12500000000E+03 0.  0.
         25    1    1    2    0    0 -0.36716583004E+02  0.59093035015E+01 -0.21625360994E+03  0.25253445537E+03  0.12500000000E+03 0.  0.
</event>
<event>
 5    0  0.5605075E-005  0.2480539E+03  0.7546771E-02  0.1114541E+00
         21   -1    0    0  502  501  0.00000000000E+00  0.00000000000E+00  0.18129009657E+04  0.18129009657E+04  0.00000000000E+00 0. -1.
         21   -1    0    0  501  502 -0.00000000000E+00 -0.00000000000E+00 -0.33940471120E+02  0.33940471120E+02  0.00000000000E+00 0. -1.
         25    1    1    2    0    0  0.58069722508E+02  0.26584545485E+02  0.21128558918E+03  0.25366401189E+03  0.12500000000E+03 0.  0.
         25    1    1    2    0    0  0.14161868114E+02 -0.42826243040E+02  0.90966585918E+03  0.91932128277E+03  0.12500000000E+03 0.  0.
         25    1    1    2    0    0 -0.72231590622E+02  0.16241697555E+02  0.65800904624E+03  0.67385614218E+03  0.12500000000E+03 0.  0.
</event>
<event>
 5    0  0.5605075E-005  0.4154229E+03  0.7546771E-02  0.1038566E+00
         21   -1    0    0  502  501  0.00000000000E+00  0.00000000000E+00  0.19269807118E+03  0.19269807118E+03  0.00000000000E+00 0. -1.
         21   -1    0    0  501  502 -0.00000000000E+00 -0.00000000000E+00 -0.89557834319E+03  0.89557834319E+03  0.00000000000E+00 0. -1.
         25    1    1    2    0    0 -0.14073675311E+03  0.22674585295E+03 -0.15141885462E+03  0.33132036617E+03  0.12500000000E+03 0.  0.
         25    1    1    2    0    0  0.12668954531E+03 -0.55022174996E+02 -0.50612205056E+03  0.53931642910E+03  0.12500000000E+03 0.  0.
         25    1    1    2    0    0  0.14047207808E+02 -0.17172367796E+03 -0.45339366823E+02  0.21763961910E+03  0.12500000000E+03 0.  0.
</event>
<event>
 5    0  0.5605075E-005  0.5058282E+03  0.7546771E-02  0.1012269E+00
         21   -1    0    0  502  501  0.00000000000E+00  0.00000000000E+00  0.15862695971E+03  0.15862695971E+03  0.00000000000E+00 0. -1.
         21   -1    0    0  501  502 -0.00000000000E+00 -0.00000000000E+00 -0.16129802241E+04  0.16129802241E+04  0.00000000000E+00 0. -1.
         25    1    1    2    0    0 -0.22686752005E+03 -0.30513852518E+03 -0.51485038687E+03  0.65213059433E+03  0.12500000000E+03 0.  0.
         25    1    1    2    0    0  0.56790986715E+02  0.23674747803E+03 -0.82619610259E+03  0.87034452056E+03  0.12500000000E+03 0.  0.
         25    1    1    2    0    0  0.17007653334E+03  0.68391047147E+02 -0.11330677495E+03  0.24913206893E+03  0.12500000000E+03 0.  0.
</event>
<event>
 5    0  0.5605075E-005  0.4171425E+03  0.7546771E-02  0.1038000E+00
         21   -1    0    0  502  501  0.00000000000E+00  0.00000000000E+00  0.46174412763E+03  0.46174412763E+03  0.00000000000E+00 0. -1.
         21   -1    0    0  501  502 -0.00000000000E+00 -0.00000000000E+00 -0.37684905107E+03  0.37684905107E+03  0.00000000000E+00 0. -1.
         25    1    1    2    0    0 -0.82962023224E+02  0.12647375905E+02 -0.30049352624E+03  0.33610119417E+03  0.12500000000E+03 0.  0.
         25    1    1    2    0    0 -0.13193750304E+02  0.33163024712E+01  0.57423734279E+02  0.13823009140E+03  0.12500000000E+03 0.  0.
         25    1    1    2    0    0  0.96155773528E+02 -0.15963678376E+02  0.32796486851E+03  0.36426189313E+03  0.12500000000E+03 0.  0.
</event>
<event>
 5    0  0.5605075E-005  0.2761780E+03  0.7546771E-02  0.1097795E+00
         21   -1    0    0  502  501  0.00000000000E+00  0.00000000000E+00  0.50651924592E+03  0.50651924592E+03  0.00000000000E+00 0.  1.
         21   -1    0    0  501  502 -0.00000000000E+00 -0.00000000000E+00 -0.15058521828E+03  0.15058521828E+03  0.00000000000E+00 0.  1.
         25    1    1    2    0    0 -0.48032573011E+02  0.40571176427E+02 -0.41530196294E+02  0.14595514938E+03  0.12500000000E+03 0.  0.
         25    1    1    2    0    0  0.10446783324E+03  0.30972499318E+02  0.22452828661E+03  0.27912501748E+03  0.12500000000E+03 0.  0.
         25    1    1    2    0    0 -0.56435260230E+02 -0.71543675745E+02  0.17293593732E+03  0.23202429734E+03  0.12500000000E+03 0.  0.
</event>
<event>
 5    0  0.5605075E-005  0.4827190E+03  0.7546771E-02  0.1018391E+00
         21   -1    0    0  502  501  0.00000000000E+00  0.00000000000E+00  0.45798311794E+03  0.45798311794E+03  0.00000000000E+00 0. -1.
         21   -1    0    0  501  502 -0.00000000000E+00 -0.00000000000E+00 -0.50879085150E+03  0.50879085150E+03  0.00000000000E+00 0. -1.
         25    1    1    2    0    0  0.15122816138E+03 -0.20651228733E+02  0.11426897349E+03  0.22798865836E+03  0.12500000000E+03 0.  0.
         25    1    1    2    0    0 -0.15967346064E+03 -0.11052354917E+03  0.21633053761E+03  0.31644110109E+03  0.12500000000E+03 0.  0.
         25    1    1    2    0    0  0.84452992633E+01  0.13117477790E+03 -0.38140724466E+03  0.42234420999E+03  0.12500000000E+03 0.  0.
</event>
<event>
 5    0  0.6352310E-005  0.2737217E+03  0.7546771E-02  0.1099168E+00
         21   -1    0    0  502  501  0.00000000000E+00  0.00000000000E+00  0.53742687188E+03  0.53742687188E+03  0.00000000000E+00 0. -1.
         21   -1    0    0  501  502 -0.00000000000E+00 -0.00000000000E+00 -0.13941167074E+03  0.13941167074E+03  0.00000000000E+00 0. -1.
         25    1    1    2    0    0  0.26956783980E+02 -0.16918757419E+01  0.22048429617E+03  0.25488792734E+03  0.12500000000E+03 0.  0.
         25    1    1    2    0    0  0.90375250398E+02 -0.64445575064E+02  0.16942882158E+03  0.23801689774E+03  0.12500000000E+03 0.  0.
         25    1    1    2    0    0 -0.11733203438E+03  0.66137450806E+02  0.81020833942E+01  0.18393371753E+03  0.12500000000E+03 0.  0.
</event>
<event>
 5    0  0.5605075E-005  0.3165641E+03  0.7546771E-02  0.1077242E+00
         21   -1    0    0  502  501  0.00000000000E+00  0.00000000000E+00  0.31103928849E+03  0.31103928849E+03  0.00000000000E+00 0. -1.
         21   -1    0    0  501  502 -0.00000000000E+00 -0.00000000000E+00 -0.32218697225E+03  0.32218697225E+03  0.00000000000E+00 0. -1.
         25    1    1    2    0    0 -0.60958812494E+02 -0.26144810033E+02 -0.17363285534E+03  0.22399307214E+03  0.12500000000E+03 0.  0.
         25    1    1    2    0    0  0.85079856481E+02  0.13681939504E+03  0.11443829388E+03  0.23383595092E+03  0.12500000000E+03 0.  0.
         25    1    1    2    0    0 -0.24121043987E+02 -0.11067458501E+03  0.48046877706E+02  0.17539723768E+03  0.12500000000E+03 0.  0.
</event>
<event>
 5    0  0.5605075E-005  0.3615551E+03  0.7546771E-02  0.1057970E+00
         21   -1    0    0  502  501  0.00000000000E+00  0.00000000000E+00  0.73967058596E+03  0.73967058596E+03  0.00000000000E+00 0. -1.
         21   -1    0    0  501  502 -0.00000000000E+00 -0.00000000000E+00 -0.17673011950E+03  0.17673011950E+03  0.00000000000E+00 0. -1.
         25    1    1    2    0    0 -0.25290510046E+03  0.90867147712E+02  0.11044129342E+03  0.31629117545E+03  0.12500000000E+03 0.  0.
         25    1    1    2    0    0  0.10535962569E+03 -0.87744269723E+02  0.30451184331E+03  0.35658402981E+03  0.12500000000E+03 0.  0.
         25    1    1    2    0    0  0.14754547477E+03 -0.31228779890E+01  0.14798732972E+03  0.24352550021E+03  0.12500000000E+03 0.  0.
</event>
<event>
 5    0  0.5605075E-005  0.4455371E+03  0.7546771E-02  0.1029061E+00
         21   -1    0    0  502  501  0.00000000000E+00  0.00000000000E+00  0.79481138359E+03  0.79481138359E+03  0.00000000000E+00 0. -1.
         21   -1    0    0  501  502 -0.00000000000E+00 -0.00000000000E+00 -0.24974895179E+03  0.24974895179E+03  0.00000000000E+00 0. -1.
         25    1    1    2    0    0  0.26964751284E+03 -0.10055221378E+03  0.32374347123E+03  0.45083851216E+03  0.12500000000E+03 0.  0.
         25    1    1    2    0    0 -0.64712214211E+02  0.18868781387E+03  0.24144803951E+03  0.33721345992E+03  0.12500000000E+03 0.  0.
         25    1    1    2    0    0 -0.20493529863E+03 -0.88135600083E+02 -0.20129078935E+02  0.25650836330E+03  0.12500000000E+03 0.  0.
</event>
<event>
 5    0  0.5605075E-005  0.4258551E+03  0.7546771E-02  0.1035177E+00
         21   -1    0    0  502  501  0.00000000000E+00  0.00000000000E+00  0.29310763753E+03  0.29310763753E+03  0.00000000000E+00 0.  1.
         21   -1    0    0  501  502 -0.00000000000E+00 -0.00000000000E+00 -0.61872347763E+03  0.61872347763E+03  0.00000000000E+00 0.  1.
         25    1    1    2    0    0  0.23397320220E+03 -0.18402522413E+03 -0.10745002381E+03  0.34026350096E+03  0.12500000000E+03 0.  0.
         25    1    1    2    0    0  0.31412128756E+02 -0.60284735753E+02 -0.27812606204E+02  0.14498107553E+03  0.12500000000E+03 0.  0.
         25    1    1    2    0    0 -0.26538533096E+03  0.24430995989E+03 -0.19035321009E+03  0.42658653867E+03  0.12500000000E+03 0.  0.
</event>
<event>
 5    0  0.5605075E-005  0.3012426E+03  0.7546771E-02  0.1084621E+00
         21   -1    0    0  502  501  0.00000000000E+00  0.00000000000E+00  0.17804971660E+04  0.17804971660E+04  0.00000000000E+00 0. -1.
         21   -1    0    0  501  502 -0.00000000000E+00 -0.00000000000E+00 -0.50967277296E+02  0.50967277296E+02  0.00000000000E+00 0. -1.
         25    1    1    2    0    0  0.20165259146E+03  0.10595809784E+02  0.50278508052E+03  0.55605204435E+03  0.12500000000E+03 0.  0.
         25    1    1    2    0    0 -0.36015907516E+02  0.93477449905E+01  0.62842081273E+03  0.64181168874E+03  0.12500000000E+03 0.  0.
         25    1    1    2    0    0 -0.16563668394E+03 -0.19943554775E+02  0.59832399541E+03  0.63360071017E+03  0.12500000000E+03 0.  0.
</event>
<event>
 5    0  0.5605075E-005  0.2203179E+03  0.7546771E-02  0.1133646E+00
         21   -1    0    0  502  501  0.00000000000E+00  0.00000000000E+00  0.68887288267E+03  0.68887288267E+03  0.00000000000E+00 0.  1.
         21   -1    0    0  501  502 -0.00000000000E+00 -0.00000000000E+00 -0.70462909111E+02  0.70462909111E+02  0.00000000000E+00 0.  1.
         25    1    1    2    0    0  0.50259642563E+02  0.83353666930E+02  0.25436719242E+03  0.29966904085E+03  0.12500000000E+03 0.  0.
         25    1    1    2    0    0 -0.30543827487E+02 -0.58136343457E+02  0.25160357650E+03  0.28851710440E+03  0.12500000000E+03 0.  0.
         25    1    1    2    0    0 -0.19715815076E+02 -0.25217323472E+02  0.11243920464E+03  0.17114964653E+03  0.12500000000E+03 0.  0.
</event>
<event>
 5    0  0.5605075E-005  0.2322532E+03  0.7546771E-02  0.1125064E+00
         21   -1    0    0  502  501  0.00000000000E+00  0.00000000000E+00  0.23821491716E+03  0.23821491716E+03  0.00000000000E+00 0. -1.
         21   -1    0    0  501  502 -0.00000000000E+00 -0.00000000000E+00 -0.22644059601E+03  0.22644059601E+03  0.00000000000E+00 0. -1.
         25    1    1    2    0    0  0.25914958199E+02 -0.97372628322E+02 -0.18270294616E+02  0.16159151423E+03  0.12500000000E+03 0.  0.
         25    1    1    2    0    0  0.66399027701E+01  0.66891385828E+02  0.77998880144E+02  0.16194866813E+03  0.12500000000E+03 0.  0.
         25    1    1    2    0    0 -0.32554860969E+02  0.30481242494E+02 -0.47954264376E+02  0.14111533081E+03  0.12500000000E+03 0.  0.
</event>
<event>
 5    0  0.5605075E-005  0.2377536E+03  0.7546771E-02  0.1121298E+00
         21   -1    0    0  502  501  0.00000000000E+00  0.00000000000E+00  0.84114064590E+02  0.84114064590E+02  0.00000000000E+00 0.  1.
         21   -1    0    0  501  502 -0.00000000000E+00 -0.00000000000E+00 -0.67202520088E+03  0.67202520088E+03  0.00000000000E+00 0.  1.
         25    1    1    2    0    0  0.10795426449E+03 -0.15171640290E+02 -0.25967937444E+03  0.30812769983E+03  0.12500000000E+03 0.  0.
         25    1    1    2    0    0 -0.81169958708E+02  0.99810446221E+01 -0.81702983323E+02  0.17026027409E+03  0.12500000000E+03 0.  0.
         25    1    1    2    0    0 -0.26784305782E+02  0.51905956680E+01 -0.24652877853E+03  0.27775129156E+03  0.12500000000E+03 0.  0.
</event>
<event>
 5    0  0.5605075E-005  0.2230718E+03  0.7546771E-02  0.1131613E+00
         21   -1    0    0  502  501  0.00000000000E+00  0.00000000000E+00  0.29026597525E+02  0.29026597525E+02  0.00000000000E+00 0. -1.
         21   -1    0    0  501  502 -0.00000000000E+00 -0.00000000000E+00 -0.17143257710E+04  0.17143257710E+04  0.00000000000E+00 0. -1.
         25    1    1    2    0    0  0.10433919700E+03 -0.37504008005E+02 -0.57584430079E+03  0.59959559488E+03  0.12500000000E+03 0.  0.
         25    1    1    2    0    0 -0.73620190416E+02  0.34091932287E+02 -0.57219649133E+03  0.59128336437E+03  0.12500000000E+03 0.  0.
         25    1    1    2    0    0 -0.30719006587E+02  0.34120757176E+01 -0.53725838137E+03  0.55247340930E+03  0.12500000000E+03 0.  0.
</event>
<event>
 5    0  0.5605075E-005  0.6790170E+03  0.7546771E-02  0.9753804E-01
         21   -1    0    0  502  501  0.00000000000E+00  0.00000000000E+00  0.17750044264E+04  0.17750044264E+04  0.00000000000E+00 0. -1.
         21   -1    0    0  501  502 -0.00000000000E+00 -0.00000000000E+00 -0.25975374700E+03  0.25975374700E+03  0.00000000000E+00 0. -1.
         25    1    1    2    0    0 -0.15663703269E+03 -0.55571246953E+02 -0.19025265170E+03  0.28185882101E+03  0.12500000000E+03 0.  0.
         25    1    1    2    0    0  0.21083815341E+03  0.95234030670E+02  0.11114161700E+04  0.11421003242E+04  0.12500000000E+03 0.  0.
         25    1    1    2    0    0 -0.54201120712E+02 -0.39662783717E+02  0.59408716111E+03  0.61079902824E+03  0.12500000000E+03 0.  0.
</event>
<event>
 5    0  0.5605075E-005  0.2617821E+03  0.7546771E-02  0.1106077E+00
         21   -1    0    0  502  501  0.00000000000E+00  0.00000000000E+00  0.38019621888E+02  0.38019621888E+02  0.00000000000E+00 0.  1.
         21   -1    0    0  501  502 -0.00000000000E+00 -0.00000000000E+00 -0.18024863526E+04  0.18024863526E+04  0.00000000000E+00 0.  1.
         25    1    1    2    0    0 -0.35896935423E+02  0.84416797243E+02 -0.50854935119E+03  0.53165988021E+03  0.12500000000E+03 0.  0.
         25    1    1    2    0    0  0.12990477728E+03 -0.26155331907E+02 -0.86183359116E+03  0.88087541197E+03  0.12500000000E+03 0.  0.
         25    1    1    2    0    0 -0.94007841858E+02 -0.58261465336E+02 -0.39408378838E+03  0.42797068234E+03  0.12500000000E+03 0.  0.
</event>
<event>
 5    0  0.5605075E-005  0.2872791E+03  0.7546771E-02  0.1091778E+00
         21   -1    0    0  502  501  0.00000000000E+00  0.00000000000E+00  0.21605974372E+04  0.21605974372E+04  0.00000000000E+00 0. -1.
         21   -1    0    0  501  502 -0.00000000000E+00 -0.00000000000E+00 -0.38197445272E+02  0.38197445272E+02  0.00000000000E+00 0. -1.
         25    1    1    2    0    0 -0.14766381705E+02  0.38454568130E+02  0.38873693902E+03  0.41041224104E+03  0.12500000000E+03 0.  0.
         25    1    1    2    0    0  0.15022451114E+01 -0.14543149621E+02  0.15940231501E+04  0.15989836031E+04  0.12500000000E+03 0.  0.
         25    1    1    2    0    0  0.13264136593E+02 -0.23911418509E+02  0.13963990273E+03  0.18939903825E+03  0.12500000000E+03 0.  0.
</event>
<event>
 5    0  0.5605075E-005  0.2543609E+03  0.7546771E-02  0.1110579E+00
         21   -1    0    0  502  501  0.00000000000E+00  0.00000000000E+00  0.29344820229E+02  0.29344820229E+02  0.00000000000E+00 0.  1.
         21   -1    0    0  501  502 -0.00000000000E+00 -0.00000000000E+00 -0.22047994121E+04  0.22047994121E+04  0.00000000000E+00 0.  1.
         25    1    1    2    0    0  0.88860913642E+02 -0.10888454096E+03 -0.51788894786E+03  0.55098644951E+03  0.12500000000E+03 0.  0.
         25    1    1    2    0    0 -0.47130468374E+02  0.81728804903E+02 -0.96822164368E+03  0.98080529662E+03  0.12500000000E+03 0.  0.
         25    1    1    2    0    0 -0.41730445268E+02  0.27155736054E+02 -0.68934400038E+03  0.70235248623E+03  0.12500000000E+03 0.  0.
</event>
<event>
 5    0  0.5605075E-005  0.3667741E+03  0.7546771E-02  0.1055933E+00
         21   -1    0    0  502  501  0.00000000000E+00  0.00000000000E+00  0.95767789650E+03  0.95767789650E+03  0.00000000000E+00 0. -1.
         21   -1    0    0  501  502 -0.00000000000E+00 -0.00000000000E+00 -0.14046813036E+03  0.14046813036E+03  0.00000000000E+00 0. -1.
         25    1    1    2    0    0  0.15712011483E+03  0.13502612821E+03  0.55624234140E+02  0.24826969450E+03  0.12500000000E+03 0.  0.
         25    1    1    2    0    0 -0.20198146911E+02  0.15193699859E+02  0.17436203423E+03  0.21602299099E+03  0.12500000000E+03 0.  0.
         25    1    1    2    0    0 -0.13692196792E+03 -0.15021982807E+03  0.58722349776E+03  0.63385334137E+03  0.12500000000E+03 0.  0.
</event>
<event>
 5    0  0.5605075E-005  0.2546978E+03  0.7546771E-02  0.1110371E+00
         21   -1    0    0  502  501  0.00000000000E+00  0.00000000000E+00  0.34014665220E+03  0.34014665220E+03  0.00000000000E+00 0.  1.
         21   -1    0    0  501  502 -0.00000000000E+00 -0.00000000000E+00 -0.19071467609E+03  0.19071467609E+03  0.00000000000E+00 0.  1.
         25    1    1    2    0    0 -0.54618348734E+02  0.86388034295E+02  0.67033378350E+02  0.17482714406E+03  0.12500000000E+03 0.  0.
         25    1    1    2    0    0 -0.30015604292E+02 -0.84894407884E+02 -0.42821619466E+02  0.15989586638E+03  0.12500000000E+03 0.  0.
         25    1    1    2    0    0  0.84633953026E+02 -0.14936264108E+01  0.12522021722E+03  0.19613831784E+03  0.12500000000E+03 0.  0.
</event>
<event>
 5    0  0.5605075E-005  0.4350378E+03  0.7546771E-02  0.1032280E+00
         21   -1    0    0  502  501  0.00000000000E+00  0.00000000000E+00  0.15940310852E+03  0.15940310852E+03  0.00000000000E+00 0.  1.
         21   -1    0    0  501  502 -0.00000000000E+00 -0.00000000000E+00 -0.11872908313E+04  0.11872908313E+04  0.00000000000E+00 0. -1.
         25    1    1    2    0    0 -0.22930807790E+03  0.20500794977E+03 -0.38663317579E+03  0.50962796889E+03  0.12500000000E+03 0.  0.
         25    1    1    2    0    0  0.10182664936E+03 -0.91616417290E+02 -0.59136403629E+03  0.61975693449E+03  0.12500000000E+03 0.  0.
         25    1    1    2    0    0  0.12748142853E+03 -0.11339153248E+03 -0.49890510714E+02  0.21730903644E+03  0.12500000000E+03 0.  0.
</event>
<event>
 5    0  0.5605075E-005  0.1277655E+04  0.7546771E-02  0.9047475E-01
         21   -1    0    0  502  501  0.00000000000E+00  0.00000000000E+00  0.13818273580E+04  0.13818273580E+04  0.00000000000E+00 0.  1.
         21   -1    0    0  501  502 -0.00000000000E+00 -0.00000000000E+00 -0.11813351498E+04  0.11813351498E+04  0.00000000000E+00 0.  1.
         25    1    1    2    0    0 -0.92983759587E+02  0.23432452691E+03  0.74579463315E+03  0.79711266348E+03  0.12500000000E+03 0.  0.
         25    1    1    2    0    0 -0.16977049407E+03  0.28890619351E+03  0.46805023144E+03  0.58905418126E+03  0.12500000000E+03 0.  0.
         25    1    1    2    0    0  0.26275425365E+03 -0.52323072042E+03 -0.10133526564E+04  0.11769956631E+04  0.12500000000E+03 0.  0.
</event>
<event>
 5    0  0.5605075E-005  0.2382127E+03  0.7546771E-02  0.1120989E+00
         21   -1    0    0  502  501  0.00000000000E+00  0.00000000000E+00  0.27552780553E+03  0.27552780553E+03  0.00000000000E+00 0. -1.
         21   -1    0    0  501  502 -0.00000000000E+00 -0.00000000000E+00 -0.20595129967E+03  0.20595129967E+03  0.00000000000E+00 0. -1.
         25    1    1    2    0    0  0.66121391259E+02 -0.97619049013E+02  0.40641491245E+02  0.17657363315E+03  0.12500000000E+03 0.  0.
         25    1    1    2    0    0  0.10555251795E+02  0.94064459459E+02  0.17667697576E+02  0.15778682902E+03  0.12500000000E+03 0.  0.
         25    1    1    2    0    0 -0.76676643055E+02  0.35545895532E+01  0.11267317037E+02  0.14711864304E+03  0.12500000000E+03 0.  0.
</event>
<event>
 5    0  0.5605075E-005  0.4829739E+03  0.7546771E-02  0.1018321E+00
         21   -1    0    0  502  501  0.00000000000E+00  0.00000000000E+00  0.10170843098E+04  0.10170843098E+04  0.00000000000E+00 0. -1.
         21   -1    0    0  501  502 -0.00000000000E+00 -0.00000000000E+00 -0.22934554613E+03  0.22934554613E+03  0.00000000000E+00 0. -1.
         25    1    1    2    0    0 -0.57059769656E+02  0.31218747625E+03  0.54992374200E+03  0.64711510542E+03  0.12500000000E+03 0.  0.
         25    1    1    2    0    0 -0.51252524448E+02 -0.28337282657E+03  0.71391514238E+01  0.31401106284E+03  0.12500000000E+03 0.  0.
         25    1    1    2    0    0  0.10831229410E+03 -0.28814649686E+02  0.23067587025E+03  0.28530368769E+03  0.12500000000E+03 0.  0.
</event>
<event>
 5    0  0.5605075E-005  0.2089860E+03  0.7546771E-02  0.1142371E+00
         21   -1    0    0  502  501  0.00000000000E+00  0.00000000000E+00  0.10732139645E+03  0.10732139645E+03  0.00000000000E+00 0.  1.
         21   -1    0    0  501  502 -0.00000000000E+00 -0.00000000000E+00 -0.40695670770E+03  0.40695670770E+03  0.00000000000E+00 0.  1.
         25    1    1    2    0    0 -0.73225772098E+01 -0.30455440122E+00 -0.15989495772E+03  0.20308892238E+03  0.12500000000E+03 0.  0.
         25    1    1    2    0    0  0.57199813907E+01 -0.39272099651E+02 -0.18212304921E+02  0.13240734137E+03  0.12500000000E+03 0.  0.
         25    1    1    2    0    0  0.16025958191E+01  0.39576654052E+02 -0.12152804861E+03  0.17878184040E+03  0.12500000000E+03 0.  0.
</event>
<event>
 5    0  0.5605075E-005  0.3957542E+03  0.7546771E-02  0.1045260E+00
         21   -1    0    0  502  501  0.00000000000E+00  0.00000000000E+00  0.80121314198E+03  0.80121314198E+03  0.00000000000E+00 0. -1.
         21   -1    0    0  501  502 -0.00000000000E+00 -0.00000000000E+00 -0.19548032647E+03  0.19548032647E+03  0.00000000000E+00 0. -1.
         25    1    1    2    0    0 -0.19663638313E+03  0.68932526156E+02  0.12560727975E+02  0.24331118392E+03  0.12500000000E+03 0.  0.
         25    1    1    2    0    0  0.60001354363E+01  0.11454977898E+03  0.18324608747E+03  0.24972341113E+03  0.12500000000E+03 0.  0.
         25    1    1    2    0    0  0.19063624770E+03 -0.18348230514E+03  0.40992600006E+03  0.50365887341E+03  0.12500000000E+03 0.  0.
</event>
<event>
 5    0  0.5605075E-005  0.2422906E+03  0.7546771E-02  0.1118276E+00
         21   -1    0    0  502  501  0.00000000000E+00  0.00000000000E+00  0.63647327811E+02  0.63647327811E+02  0.00000000000E+00 0.  1.
         21   -1    0    0  501  502 -0.00000000000E+00 -0.00000000000E+00 -0.92234370514E+03  0.92234370514E+03  0.00000000000E+00 0.  1.
         25    1    1    2    0    0  0.64329275247E+02  0.11208523605E+02 -0.20185982225E+03  0.24624433901E+03  0.12500000000E+03 0.  0.
         25    1    1    2    0    0 -0.12631018412E+03  0.54660365941E+02 -0.35153882803E+03  0.39767645873E+03  0.12500000000E+03 0.  0.
         25    1    1    2    0    0  0.61980908872E+02 -0.65868889545E+02 -0.30529772705E+03  0.34207023521E+03  0.12500000000E+03 0.  0.
</event>
<event>
 5    0  0.5605075E-005  0.2333505E+03  0.7546771E-02  0.1124304E+00
         21   -1    0    0  502  501  0.00000000000E+00  0.00000000000E+00  0.85328291068E+02  0.85328291068E+02  0.00000000000E+00 0.  1.
         21   -1    0    0  501  502 -0.00000000000E+00 -0.00000000000E+00 -0.63815242361E+03  0.63815242361E+03  0.00000000000E+00 0.  1.
         25    1    1    2    0    0 -0.31050616764E+02  0.54885442737E+02 -0.14051264555E+03  0.19835663887E+03  0.12500000000E+03 0.  0.
         25    1    1    2    0    0 -0.57479109865E+02 -0.76018055467E+02 -0.28226873231E+03  0.32308393657E+03  0.12500000000E+03 0.  0.
         25    1    1    2    0    0  0.88529726629E+02  0.21132612730E+02 -0.13004275469E+03  0.20204013924E+03  0.12500000000E+03 0.  0.
</event>
<event>
 5    0  0.5605075E-005  0.3003166E+03  0.7546771E-02  0.1085082E+00
         21   -1    0    0  502  501  0.00000000000E+00  0.00000000000E+00  0.55617753926E+03  0.55617753926E+03  0.00000000000E+00 0. -1.
         21   -1    0    0  501  502 -0.00000000000E+00 -0.00000000000E+00 -0.16216056233E+03  0.16216056233E+03  0.00000000000E+00 0. -1.
         25    1    1    2    0    0 -0.98883975976E+02  0.44599564235E+02  0.69271366901E+02  0.17941762485E+03  0.12500000000E+03 0.  0.
         25    1    1    2    0    0  0.18049708262E+03 -0.71616335000E+02  0.30990185995E+03  0.38648707491E+03  0.12500000000E+03 0.  0.
         25    1    1    2    0    0 -0.81613106648E+02  0.27016770765E+02  0.14843750083E+02  0.15243340184E+03  0.12500000000E+03 0.  0.
</event>
<event>
 5    0  0.5605075E-005  0.4858321E+03  0.7546771E-02  0.1017545E+00
         21   -1    0    0  502  501  0.00000000000E+00  0.00000000000E+00  0.84695288438E+03  0.84695288438E+03  0.00000000000E+00 0. -1.
         21   -1    0    0  501  502 -0.00000000000E+00 -0.00000000000E+00 -0.27868474547E+03  0.27868474547E+03  0.00000000000E+00 0.  1.
         25    1    1    2    0    0 -0.86336420385E+02  0.92557952645E+02  0.20264904179E+03  0.26965271410E+03  0.12500000000E+03 0.  0.
         25    1    1    2    0    0  0.29316565028E+03 -0.27335513186E+03  0.36164010824E+03  0.55414591446E+03  0.12500000000E+03 0.  0.
         25    1    1    2    0    0 -0.20682922989E+03  0.18079717922E+03  0.39789888764E+01  0.30183900130E+03  0.12500000000E+03 0.  0.
</event>
<event>
 5    0  0.6069298E-005  0.3290302E+03  0.7546771E-02  0.1071567E+00
         21   -1    0    0  502  501  0.00000000000E+00  0.00000000000E+00  0.33860855324E+03  0.33860855324E+03  0.00000000000E+00 0. -1.
         21   -1    0    0  501  502 -0.00000000000E+00 -0.00000000000E+00 -0.31972285886E+03  0.31972285886E+03  0.00000000000E+00 0. -1.
         25    1    1    2    0    0 -0.12118883291E+03  0.26126849383E+01  0.92778169520E+02  0.19729761297E+03  0.12500000000E+03 0.  0.
         25    1    1    2    0    0 -0.40074426596E+02  0.14913058024E+03 -0.10375207382E+02  0.19894354616E+03  0.12500000000E+03 0.  0.
         25    1    1    2    0    0  0.16126325951E+03 -0.15174326518E+03 -0.63517267762E+02  0.26209025297E+03  0.12500000000E+03 0.  0.
</event>
<event>
 5    0  0.5605075E-005  0.4318766E+03  0.7546771E-02  0.1033269E+00
         21   -1    0    0  502  501  0.00000000000E+00  0.00000000000E+00  0.12748492707E+03  0.12748492707E+03  0.00000000000E+00 0. -1.
         21   -1    0    0  501  502 -0.00000000000E+00 -0.00000000000E+00 -0.14630546973E+04  0.14630546973E+04  0.00000000000E+00 0. -1.
         25    1    1    2    0    0  0.62049138166E+02  0.41160957747E+02 -0.13320563352E+03  0.19726393687E+03  0.12500000000E+03 0.  0.
         25    1    1    2    0    0 -0.15708966823E+03  0.27426310796E+03 -0.71722763136E+03  0.79368626764E+03  0.12500000000E+03 0.  0.
         25    1    1    2    0    0  0.95040530060E+02 -0.31542406571E+03 -0.48513650539E+03  0.59958941989E+03  0.12500000000E+03 0.  0.
</event>
<event>
 5    0  0.5605075E-005  0.4096258E+03  0.7546771E-02  0.1040497E+00
         21   -1    0    0  502  501  0.00000000000E+00  0.00000000000E+00  0.94642927811E+03  0.94642927811E+03  0.00000000000E+00 0.  1.
         21   -1    0    0  501  502 -0.00000000000E+00 -0.00000000000E+00 -0.17729086110E+03  0.17729086110E+03  0.00000000000E+00 0.  1.
         25    1    1    2    0    0  0.73900826139E+02 -0.19039519371E+03  0.34179621849E+03  0.41732639129E+03  0.12500000000E+03 0.  0.
         25    1    1    2    0    0 -0.21266068283E+03  0.21600395953E+03  0.12663997749E+03  0.35148963065E+03  0.12500000000E+03 0.  0.
         25    1    1    2    0    0  0.13875985669E+03 -0.25608765822E+02  0.30070222103E+03  0.35490411726E+03  0.12500000000E+03 0.  0.
</event>
<event>
 5    0  0.5605075E-005  0.3093751E+03  0.7546771E-02  0.1080646E+00
         21   -1    0    0  502  501  0.00000000000E+00  0.00000000000E+00  0.60322323632E+02  0.60322323632E+02  0.00000000000E+00 0.  1.
         21   -1    0    0  501  502 -0.00000000000E+00 -0.00000000000E+00 -0.15866916582E+04  0.15866916582E+04  0.00000000000E+00 0.  1.
         25    1    1    2    0    0  0.88500546242E+02 -0.15215452504E+03 -0.62406486155E+03  0.66035240410E+03  0.12500000000E+03 0.  0.
         25    1    1    2    0    0 -0.96089990083E+02 -0.30646936366E+02 -0.52588298935E+03  0.54986401900E+03  0.12500000000E+03 0.  0.
         25    1    1    2    0    0  0.75894438411E+01  0.18280146141E+03 -0.37642148368E+03  0.43679755875E+03  0.12500000000E+03 0.  0.
</event>
<event>
 5    0  0.5605075E-005  0.3560971E+03  0.7546771E-02  0.1060140E+00
         21   -1    0    0  502  501  0.00000000000E+00  0.00000000000E+00  0.13801240278E+04  0.13801240278E+04  0.00000000000E+00 0. -1.
         21   -1    0    0  501  502 -0.00000000000E+00 -0.00000000000E+00 -0.91879508696E+02  0.91879508696E+02  0.00000000000E+00 0. -1.
         25    1    1    2    0    0  0.17454467201E+03 -0.11451686053E+03  0.63781211029E+03  0.68264869582E+03  0.12500000000E+03 0.  0.
         25    1    1    2    0    0 -0.10121468883E+03  0.19312384116E+03  0.52546628053E+03  0.58247836288E+03  0.12500000000E+03 0.  0.
         25    1    1    2    0    0 -0.73329983187E+02 -0.78606980632E+02  0.12496612825E+03  0.20687647776E+03  0.12500000000E+03 0.  0.
</event>
<event>
 5    0  0.5605075E-005  0.3575221E+03  0.7546771E-02  0.1059569E+00
         21   -1    0    0  502  501  0.00000000000E+00  0.00000000000E+00  0.51767024431E+02  0.51767024431E+02  0.00000000000E+00 0.  1.
         21   -1    0    0  501  502 -0.00000000000E+00 -0.00000000000E+00 -0.24691786146E+04  0.24691786146E+04  0.00000000000E+00 0.  1.
         25    1    1    2    0    0 -0.10626654395E+03 -0.41575938604E+02 -0.58682235660E+03  0.61074267514E+03  0.12500000000E+03 0.  0.
         25    1    1    2    0    0  0.10871442300E+03 -0.13589474815E+03 -0.32650958199E+03  0.39053772606E+03  0.12500000000E+03 0.  0.
         25    1    1    2    0    0 -0.24478790518E+01  0.17747068676E+03 -0.15040796516E+04  0.15196652379E+04  0.12500000000E+03 0.  0.
</event>
<event>
 5    0  0.5605075E-005  0.3116274E+03  0.7546771E-02  0.1079568E+00
         21   -1    0    0  502  501  0.00000000000E+00  0.00000000000E+00  0.17955841686E+03  0.17955841686E+03  0.00000000000E+00 0.  1.
         21   -1    0    0  501  502 -0.00000000000E+00 -0.00000000000E+00 -0.54083604185E+03  0.54083604185E+03  0.00000000000E+00 0.  1.
         25    1    1    2    0    0  0.20562714367E+03  0.27296064477E+02 -0.16047658416E+03  0.29052595652E+03  0.12500000000E+03 0.  0.
         25    1    1    2    0    0 -0.20113185475E+03  0.33878470630E+02 -0.10753542662E+03  0.26227970136E+03  0.12500000000E+03 0.  0.
         25    1    1    2    0    0 -0.44952889244E+01 -0.61174535106E+02 -0.93265614217E+02  0.16758880083E+03  0.12500000000E+03 0.  0.
</event>
<event>
 5    0  0.5605075E-005  0.3080980E+03  0.7546771E-02  0.1081261E+00
         21   -1    0    0  502  501  0.00000000000E+00  0.00000000000E+00  0.20815876873E+03  0.20815876873E+03  0.00000000000E+00 0. -1.
         21   -1    0    0  501  502 -0.00000000000E+00 -0.00000000000E+00 -0.45601912293E+03  0.45601912293E+03  0.00000000000E+00 0. -1.
         25    1    1    2    0    0  0.34560728460E+02 -0.14369912040E+03 -0.23428266442E+03  0.30390335306E+03  0.12500000000E+03 0.  0.
         25    1    1    2    0    0  0.65178210373E+02  0.69178289577E+02  0.61358690149E+02  0.16859336794E+03  0.12500000000E+03 0.  0.
         25    1    1    2    0    0 -0.99738938832E+02  0.74520830822E+02 -0.74936379936E+02  0.19168117066E+03  0.12500000000E+03 0.  0.
</event>
<event>
 5    0  0.5605075E-005  0.2566890E+03  0.7546771E-02  0.1109149E+00
         21   -1    0    0  502  501  0.00000000000E+00  0.00000000000E+00  0.25203839249E+03  0.25203839249E+03  0.00000000000E+00 0.  1.
         21   -1    0    0  501  502 -0.00000000000E+00 -0.00000000000E+00 -0.26142545426E+03  0.26142545426E+03  0.00000000000E+00 0.  1.
         25    1    1    2    0    0 -0.71065715924E+02  0.87235378578E+01  0.56460569287E+02  0.15472308159E+03  0.12500000000E+03 0.  0.
         25    1    1    2    0    0 -0.45417089422E+02 -0.92706005972E+02 -0.25184905893E+02  0.16406216822E+03  0.12500000000E+03 0.  0.
         25    1    1    2    0    0  0.11648280535E+03  0.83982468114E+02 -0.40662725156E+02  0.19467859695E+03  0.12500000000E+03 0.  0.
</event>
<event>
 5    0  0.5605075E-005  0.2583753E+03  0.7546771E-02  0.1108123E+00
         21   -1    0    0  502  501  0.00000000000E+00  0.00000000000E+00  0.62559296248E+03  0.62559296248E+03  0.00000000000E+00 0.  1.
         21   -1    0    0  501  502 -0.00000000000E+00 -0.00000000000E+00 -0.10671122640E+03  0.10671122640E+03  0.00000000000E+00 0.  1.
         25    1    1    2    0    0 -0.22736300150E+02  0.51300994185E+02  0.23931735761E+03  0.27576535135E+03  0.12500000000E+03 0.  0.
         25    1    1    2    0    0 -0.48750068371E+02 -0.78271217275E+02  0.17512564751E+02  0.15631584227E+03  0.12500000000E+03 0.  0.
         25    1    1    2    0    0  0.71486368520E+02  0.26970223090E+02  0.26205181371E+03  0.30022299527E+03  0.12500000000E+03 0.  0.
</event>
<event>
 5    0  0.5605075E-005  0.2989808E+03  0.7546771E-02  0.1085751E+00
         21   -1    0    0  502  501  0.00000000000E+00  0.00000000000E+00  0.31189903324E+03  0.31189903324E+03  0.00000000000E+00 0. -1.
         21   -1    0    0  501  502 -0.00000000000E+00 -0.00000000000E+00 -0.28659767001E+03  0.28659767001E+03  0.00000000000E+00 0. -1.
         25    1    1    2    0    0 -0.58082833023E+02 -0.74124455471E+02  0.16155569256E+02  0.15733420737E+03  0.12500000000E+03 0.  0.
         25    1    1    2    0    0  0.10349582001E+03 -0.12233601794E+03  0.15639696377E+02  0.20383102352E+03  0.12500000000E+03 0.  0.
         25    1    1    2    0    0 -0.45412986989E+02  0.19646047342E+03 -0.64939024007E+01  0.23733147235E+03  0.12500000000E+03 0.  0.
</event>
<event>
 5    0  0.5605075E-005  0.3784343E+03  0.7546771E-02  0.1051514E+00
         21   -1    0    0  502  501  0.00000000000E+00  0.00000000000E+00  0.15012742612E+03  0.15012742612E+03  0.00000000000E+00 0.  1.
         21   -1    0    0  501  502 -0.00000000000E+00 -0.00000000000E+00 -0.95393982724E+03  0.95393982724E+03  0.00000000000E+00 0.  1.
         25    1    1    2    0    0 -0.10138305164E+02 -0.83626077527E+02 -0.70672549601E+03  0.72262163874E+03  0.12500000000E+03 0.  0.
         25    1    1    2    0    0 -0.12086833786E+03  0.12675949459E+02 -0.49447838045E+02  0.18121788951E+03  0.12500000000E+03 0.  0.
         25    1    1    2    0    0  0.13100664302E+03  0.70950128068E+02 -0.47639067073E+02  0.20022772510E+03  0.12500000000E+03 0.  0.
</event>
<event>
 5    0  0.5605075E-005  0.2836461E+03  0.7546771E-02  0.1093714E+00
         21   -1    0    0  502  501  0.00000000000E+00  0.00000000000E+00  0.14003428728E+04  0.14003428728E+04  0.00000000000E+00 0. -1.
         21   -1    0    0  501  502 -0.00000000000E+00 -0.00000000000E+00 -0.57453879076E+02  0.57453879076E+02  0.00000000000E+00 0. -1.
         25    1    1    2    0    0  0.74637709602E+02  0.76952674880E+02  0.42411896808E+03  0.45496637343E+03  0.12500000000E+03 0.  0.
         25    1    1    2    0    0 -0.11090452398E+03 -0.17255024844E+03  0.56531678565E+03  0.61423242329E+03  0.12500000000E+03 0.  0.
         25    1    1    2    0    0  0.36266814380E+02  0.95597573562E+02  0.35345324003E+03  0.38859795519E+03  0.12500000000E+03 0.  0.
</event>
<event>
 5    0  0.5605075E-005  0.3499390E+03  0.7546771E-02  0.1062640E+00
         21   -1    0    0  502  501  0.00000000000E+00  0.00000000000E+00  0.11638515936E+04  0.11638515936E+04  0.00000000000E+00 0. -1.
         21   -1    0    0  501  502 -0.00000000000E+00 -0.00000000000E+00 -0.10521729169E+03  0.10521729169E+03  0.00000000000E+00 0. -1.
         25    1    1    2    0    0 -0.52605941512E+01 -0.62656058679E+02  0.66421562432E+03  0.67879367346E+03  0.12500000000E+03 0.  0.
         25    1    1    2    0    0  0.22699683144E+02  0.27166578299E+02  0.43423823312E+03  0.45325615461E+03  0.12500000000E+03 0.  0.
         25    1    1    2    0    0 -0.17439088993E+02  0.35489480380E+02 -0.39819555511E+02  0.13701905723E+03  0.12500000000E+03 0.  0.
</event>
<event>
 5    0  0.5605075E-005  0.6541282E+03  0.7546771E-02  0.9799064E-01
         21   -1    0    0  502  501  0.00000000000E+00  0.00000000000E+00  0.18874791803E+03  0.18874791803E+03  0.00000000000E+00 0.  1.
         21   -1    0    0  501  502 -0.00000000000E+00 -0.00000000000E+00 -0.22669585829E+04  0.22669585829E+04  0.00000000000E+00 0.  1.
         25    1    1    2    0    0 -0.35089507197E+03  0.25020268703E+03 -0.12485078945E+04  0.13266972898E+04  0.12500000000E+03 0.  0.
         25    1    1    2    0    0  0.47105852916E+03 -0.10940833444E+03 -0.38247504399E+03  0.62910927573E+03  0.12500000000E+03 0.  0.
         25    1    1    2    0    0 -0.12016345719E+03 -0.14079435258E+03 -0.44722772639E+03  0.49989993540E+03  0.12500000000E+03 0.  0.
</event>
<event>
 5    0  0.5605075E-005  0.3898262E+03  0.7546771E-02  0.1047361E+00
         21   -1    0    0  502  501  0.00000000000E+00  0.00000000000E+00  0.12117153187E+04  0.12117153187E+04  0.00000000000E+00 0.  1.
         21   -1    0    0  501  502 -0.00000000000E+00 -0.00000000000E+00 -0.12541266545E+03  0.12541266545E+03  0.00000000000E+00 0.  1.
         25    1    1    2    0    0 -0.31396051661E+03 -0.73753587264E+01  0.57692712040E+03  0.66865200527E+03  0.12500000000E+03 0.  0.
         25    1    1    2    0    0  0.96054439823E+02 -0.64315545788E+02  0.17514218393E+03  0.24425955341E+03  0.12500000000E+03 0.  0.
         25    1    1    2    0    0  0.21790607679E+03  0.71690904514E+02  0.33423334889E+03  0.42421642543E+03  0.12500000000E+03 0.  0.
</event>
<event>
 5    0  0.9704240E-005  0.6131650E+03  0.7546771E-02  0.9878463E-01
         21   -1    0    0  502  501  0.00000000000E+00  0.00000000000E+00  0.91597076447E+03  0.91597076447E+03  0.00000000000E+00 0. -1.
         21   -1    0    0  501  502 -0.00000000000E+00 -0.00000000000E+00 -0.41046218126E+03  0.41046218126E+03  0.00000000000E+00 0. -1.
         25    1    1    2    0    0 -0.32375203852E+03 -0.20568148709E+03  0.18469353677E+03  0.44368565348E+03  0.12500000000E+03 0.  0.
         25    1    1    2    0    0 -0.28537132269E+02  0.37297994823E+03  0.25046447383E+03  0.46721072585E+03  0.12500000000E+03 0.  0.
         25    1    1    2    0    0  0.35228917079E+03 -0.16729846113E+03  0.70350572604E+02  0.41553656640E+03  0.12500000000E+03 0.  0.
</event>
<event>
 5    0  0.5605075E-005  0.3893847E+03  0.7546771E-02  0.1047519E+00
         21   -1    0    0  502  501  0.00000000000E+00  0.00000000000E+00  0.69811093987E+03  0.69811093987E+03  0.00000000000E+00 0.  1.
         21   -1    0    0  501  502 -0.00000000000E+00 -0.00000000000E+00 -0.21718679193E+03  0.21718679193E+03  0.00000000000E+00 0.  1.
         25    1    1    2    0    0  0.18798710487E+03  0.70202326650E+02  0.97892725744E+02  0.25588181650E+03  0.12500000000E+03 0.  0.
         25    1    1    2    0    0 -0.20537064679E+03 -0.42907220418E+02  0.45146050255E+03  0.51328327216E+03  0.12500000000E+03 0.  0.
         25    1    1    2    0    0  0.17383541919E+02 -0.27295106232E+02 -0.68429080349E+02  0.14613264314E+03  0.12500000000E+03 0.  0.
</event>
<event>
 5    0  0.5605075E-005  0.3203259E+03  0.7546771E-02  0.1075499E+00
         21   -1    0    0  502  501  0.00000000000E+00  0.00000000000E+00  0.21197934999E+03  0.21197934999E+03  0.00000000000E+00 0. -1.
         21   -1    0    0  501  502 -0.00000000000E+00 -0.00000000000E+00 -0.48405032187E+03  0.48405032187E+03  0.00000000000E+00 0. -1.
         25    1    1    2    0    0  0.10433492283E+03  0.14185485196E+03 -0.10606980382E+02  0.21620842532E+03  0.12500000000E+03 0.  0.
         25    1    1    2    0    0  0.26590038480E+02  0.35342616989E+02 -0.28389706122E+02  0.13559906392E+03  0.12500000000E+03 0.  0.
         25    1    1    2    0    0 -0.13092496131E+03 -0.17719746895E+03 -0.23307428538E+03  0.34422218261E+03  0.12500000000E+03 0.  0.
</event>
<event>
 5    0  0.5605075E-005  0.2542474E+03  0.7546771E-02  0.1110650E+00
         21   -1    0    0  502  501  0.00000000000E+00  0.00000000000E+00  0.17247392740E+03  0.17247392740E+03  0.00000000000E+00 0. -1.
         21   -1    0    0  501  502 -0.00000000000E+00 -0.00000000000E+00 -0.37479145206E+03  0.37479145206E+03  0.00000000000E+00 0. -1.
         25    1    1    2    0    0  0.83690385763E+02 -0.84692901534E+02 -0.77246853110E+01  0.17280520537E+03  0.12500000000E+03 0.  0.
         25    1    1    2    0    0  0.34745525682E+02  0.64308791090E+02 -0.10798672753E+03  0.18063500627E+03  0.12500000000E+03 0.  0.
         25    1    1    2    0    0 -0.11843591144E+03  0.20384110444E+02 -0.86606111812E+02  0.19382516782E+03  0.12500000000E+03 0.  0.
</event>
<event>
 5    0  0.5605075E-005  0.3596040E+03  0.7546771E-02  0.1058741E+00
         21   -1    0    0  502  501  0.00000000000E+00  0.00000000000E+00  0.80163078503E+03  0.80163078503E+03  0.00000000000E+00 0. -1.
         21   -1    0    0  501  502 -0.00000000000E+00 -0.00000000000E+00 -0.16131499893E+03  0.16131499893E+03  0.00000000000E+00 0. -1.
         25    1    1    2    0    0 -0.72983450888E+02  0.20267403466E+02 -0.76870124386E+02  0.16514044862E+03  0.12500000000E+03 0.  0.
         25    1    1    2    0    0 -0.71282254185E+02 -0.27143377637E+02  0.21148384349E+03  0.25723207181E+03  0.12500000000E+03 0.  0.
         25    1    1    2    0    0  0.14426570507E+03  0.68759741708E+01  0.50570206699E+03  0.54057326353E+03  0.12500000000E+03 0.  0.
</event>
<event>
 5    0  0.5605075E-005  0.2411833E+03  0.7546771E-02  0.1119007E+00
         21   -1    0    0  502  501  0.00000000000E+00  0.00000000000E+00  0.10892366839E+04  0.10892366839E+04  0.00000000000E+00 0.  1.
         21   -1    0    0  501  502 -0.00000000000E+00 -0.00000000000E+00 -0.53403791413E+02  0.53403791413E+02  0.00000000000E+00 0.  1.
         25    1    1    2    0    0  0.61263316838E+02  0.86799508903E+02  0.52423789981E+03  0.54930658501E+03  0.12500000000E+03 0.  0.
         25    1    1    2    0    0 -0.32991598647E+02 -0.10991931810E+03  0.27064493421E+03  0.31944386438E+03  0.12500000000E+03 0.  0.
         25    1    1    2    0    0 -0.28271718191E+02  0.23119809201E+02  0.24095005845E+03  0.27389002591E+03  0.12500000000E+03 0.  0.
</event>
<event>
 5    0  0.5605075E-005  0.2795100E+03  0.7546771E-02  0.1095957E+00
         21   -1    0    0  502  501  0.00000000000E+00  0.00000000000E+00  0.88356778466E+02  0.88356778466E+02  0.00000000000E+00 0. -1.
         21   -1    0    0  501  502 -0.00000000000E+00 -0.00000000000E+00 -0.88420901859E+03  0.88420901859E+03  0.00000000000E+00 0. -1.
         25    1    1    2    0    0  0.78927815776E+02  0.83512971593E+02 -0.11488538532E+03  0.20500650792E+03  0.12500000000E+03 0.  0.
         25    1    1    2    0    0  0.13175828760E+02 -0.10720456323E+03 -0.50673014271E+03  0.53297922883E+03  0.12500000000E+03 0.  0.
         25    1    1    2    0    0 -0.92103644536E+02  0.23691591640E+02 -0.17423671210E+03  0.23458006031E+03  0.12500000000E+03 0.  0.
</event>
<event>
 5    0  0.5605075E-005  0.3151654E+03  0.7546771E-02  0.1077896E+00
         21   -1    0    0  502  501  0.00000000000E+00  0.00000000000E+00  0.67281369082E+03  0.67281369082E+03  0.00000000000E+00 0. -1.
         21   -1    0    0  501  502 -0.00000000000E+00 -0.00000000000E+00 -0.14763255209E+03  0.14763255209E+03  0.00000000000E+00 0. -1.
         25    1    1    2    0    0 -0.24844484339E+02 -0.19291604366E+03  0.25133658011E+03  0.34150977264E+03  0.12500000000E+03 0.  0.
         25    1    1    2    0    0 -0.84738915449E+02  0.12685169813E+03  0.21228123371E+03  0.28975914014E+03  0.12500000000E+03 0.  0.
         25    1    1    2    0    0  0.10958339979E+03  0.66064345532E+02  0.61563324909E+02  0.18917733013E+03  0.12500000000E+03 0.  0.
</event>
<event>
 5    0  0.5605075E-005  0.2976973E+03  0.7546771E-02  0.1086397E+00
         21   -1    0    0  502  501  0.00000000000E+00  0.00000000000E+00  0.36090605053E+02  0.36090605053E+02  0.00000000000E+00 0. -1.
         21   -1    0    0  501  502 -0.00000000000E+00 -0.00000000000E+00 -0.24555884290E+04  0.24555884290E+04  0.00000000000E+00 0. -1.
         25    1    1    2    0    0  0.74083812832E+02  0.12376554943E+03 -0.15028849199E+04  0.15149568987E+04  0.12500000000E+03 0.  0.
         25    1    1    2    0    0 -0.47701874689E+02 -0.61732016467E+00 -0.59041321699E+03  0.60538303307E+03  0.12500000000E+03 0.  0.
         25    1    1    2    0    0 -0.26381938143E+02 -0.12314822927E+03 -0.32619968713E+03  0.37133910233E+03  0.12500000000E+03 0.  0.
</event>
<event>
 5    0  0.5605075E-005  0.3443817E+03  0.7546771E-02  0.1064945E+00
         21   -1    0    0  502  501  0.00000000000E+00  0.00000000000E+00  0.18662460807E+04  0.18662460807E+04  0.00000000000E+00 0.  1.
         21   -1    0    0  501  502 -0.00000000000E+00 -0.00000000000E+00 -0.63549367853E+02  0.63549367853E+02  0.00000000000E+00 0.  1.
         25    1    1    2    0    0  0.19196883965E+02 -0.37674447687E+01  0.17331926928E+03  0.21458630687E+03  0.12500000000E+03 0.  0.
         25    1    1    2    0    0 -0.26184673029E+02  0.19301493627E+03  0.12646799639E+04  0.12856830145E+04  0.12500000000E+03 0.  0.
         25    1    1    2    0    0  0.69877890639E+01 -0.18924749151E+03  0.36469747965E+03  0.42952612714E+03  0.12500000000E+03 0.  0.
</event>
<event>
 5    0  0.7249643E-005  0.2966483E+03  0.7546771E-02  0.1086928E+00
         21   -1    0    0  502  501  0.00000000000E+00  0.00000000000E+00  0.38335503206E+03  0.38335503206E+03  0.00000000000E+00 0. -1.
         21   -1    0    0  501  502 -0.00000000000E+00 -0.00000000000E+00 -0.22955275953E+03  0.22955275953E+03  0.00000000000E+00 0. -1.
         25    1    1    2    0    0 -0.40767965587E+02 -0.13432957851E+03  0.68792185671E+02  0.20015950512E+03  0.12500000000E+03 0.  0.
         25    1    1    2    0    0 -0.67319379716E+02 -0.78998158844E+01  0.12706946090E+03  0.19069859431E+03  0.12500000000E+03 0.  0.
         25    1    1    2    0    0  0.10808734530E+03  0.14222939440E+03 -0.42059374042E+02  0.22204969217E+03  0.12500000000E+03 0.  0.
</event>
<event>
 5    0  0.5605075E-005  0.4524727E+03  0.7546771E-02  0.1026987E+00
         21   -1    0    0  502  501  0.00000000000E+00  0.00000000000E+00  0.46565621376E+03  0.46565621376E+03  0.00000000000E+00 0. -1.
         21   -1    0    0  501  502 -0.00000000000E+00 -0.00000000000E+00 -0.43966247045E+03  0.43966247045E+03  0.00000000000E+00 0. -1.
         25    1    1    2    0    0  0.31222340385E+03 -0.78262382362E+01  0.90219341649E+02  0.34829475093E+03  0.12500000000E+03 0.  0.
         25    1    1    2    0    0 -0.21885462635E+03  0.12583945925E+03  0.10271677838E+03  0.29984771725E+03  0.12500000000E+03 0.  0.
         25    1    1    2    0    0 -0.93368777507E+02 -0.11801322101E+03 -0.16694237672E+03  0.25717621603E+03  0.12500000000E+03 0.  0.
</event>
<event>
 5    0  0.5605075E-005  0.2569088E+03  0.7546771E-02  0.1109015E+00
         21   -1    0    0  502  501  0.00000000000E+00  0.00000000000E+00  0.33953018065E+03  0.33953018065E+03  0.00000000000E+00 0. -1.
         21   -1    0    0  501  502 -0.00000000000E+00 -0.00000000000E+00 -0.19439251144E+03  0.19439251144E+03  0.00000000000E+00 0. -1.
         25    1    1    2    0    0  0.20399721663E+02 -0.54348771279E+02  0.56367998673E+02  0.14890362272E+03  0.12500000000E+03 0.  0.
         25    1    1    2    0    0 -0.10639234561E+02 -0.81775646578E+02  0.12663527838E+03  0.19611716757E+03  0.12500000000E+03 0.  0.
         25    1    1    2    0    0 -0.97604871019E+01  0.13612441786E+03 -0.37865607844E+02  0.18890190180E+03  0.12500000000E+03 0.  0.
</event>
<event>
 5    0  0.5605075E-005  0.2740336E+03  0.7546771E-02  0.1098993E+00
         21   -1    0    0  502  501  0.00000000000E+00  0.00000000000E+00  0.51093548794E+02  0.51093548794E+02  0.00000000000E+00 0.  1.
         21   -1    0    0  501  502 -0.00000000000E+00 -0.00000000000E+00 -0.14697436654E+04  0.14697436654E+04  0.00000000000E+00 0.  1.
         25    1    1    2    0    0 -0.16161588117E+03  0.50493125869E+02 -0.70281249659E+03  0.73364818146E+03  0.12500000000E+03 0.  0.
         25    1    1    2    0    0  0.15326301486E+03 -0.39825531131E+02 -0.44283897191E+03  0.48662817397E+03  0.12500000000E+03 0.  0.
         25    1    1    2    0    0  0.83528663024E+01 -0.10667594738E+02 -0.27299864812E+03  0.30056085878E+03  0.12500000000E+03 0.  0.
</event>
<event>
 5    0  0.5605075E-005  0.3163030E+03  0.7546771E-02  0.1077363E+00
         21   -1    0    0  502  501  0.00000000000E+00  0.00000000000E+00  0.84712088329E+03  0.84712088329E+03  0.00000000000E+00 0.  1.
         21   -1    0    0  501  502 -0.00000000000E+00 -0.00000000000E+00 -0.11810309356E+03  0.11810309356E+03  0.00000000000E+00 0.  1.
         25    1    1    2    0    0 -0.23478678924E+03  0.25527280128E+02  0.36249134257E+03  0.45033482196E+03  0.12500000000E+03 0.  0.
         25    1    1    2    0    0  0.10053718383E+03  0.38121916432E+02  0.19910130443E+03  0.25850983593E+03  0.12500000000E+03 0.  0.
         25    1    1    2    0    0  0.13424960540E+03 -0.63649196559E+02  0.16742514273E+03  0.25637931896E+03  0.12500000000E+03 0.  0.
</event>
<event>
 5    0  0.5605075E-005  0.3152287E+03  0.7546771E-02  0.1077866E+00
         21   -1    0    0  502  501  0.00000000000E+00  0.00000000000E+00  0.89435047042E+03  0.89435047042E+03  0.00000000000E+00 0.  1.
         21   -1    0    0  501  502 -0.00000000000E+00 -0.00000000000E+00 -0.11110759663E+03  0.11110759663E+03  0.00000000000E+00 0.  1.
         25    1    1    2    0    0  0.44810786652E+01 -0.11516902825E+03  0.26501028681E+03  0.31486415682E+03  0.12500000000E+03 0.  0.
         25    1    1    2    0    0  0.11426369616E+03  0.92373651079E+02  0.47310560395E+03  0.51092366961E+03  0.12500000000E+03 0.  0.
         25    1    1    2    0    0 -0.11874477482E+03  0.22795377175E+02  0.45126983021E+02  0.17967024062E+03  0.12500000000E+03 0.  0.
</event>
<event>
 5    0  0.5605075E-005  0.2785481E+03  0.7546771E-02  0.1096485E+00
         21   -1    0    0  502  501  0.00000000000E+00  0.00000000000E+00  0.21400953336E+03  0.21400953336E+03  0.00000000000E+00 0. -1.
         21   -1    0    0  501  502 -0.00000000000E+00 -0.00000000000E+00 -0.36254947994E+03  0.36254947994E+03  0.00000000000E+00 0. -1.
         25    1    1    2    0    0  0.12193236488E+03  0.30266008301E+02 -0.10898054748E+03  0.20805117782E+03  0.12500000000E+03 0.  0.
         25    1    1    2    0    0  0.34729381551E+02  0.62196910426E+02 -0.33412374916E+02  0.14770231009E+03  0.12500000000E+03 0.  0.
         25    1    1    2    0    0 -0.15666174643E+03 -0.92462918727E+02 -0.61470241799E+01  0.22080552539E+03  0.12500000000E+03 0.  0.
</event>
<event>
 5    0  0.5605075E-005  0.2690468E+03  0.7546771E-02  0.1101826E+00
         21   -1    0    0  502  501  0.00000000000E+00  0.00000000000E+00  0.39332457665E+03  0.39332457665E+03  0.00000000000E+00 0. -1.
         21   -1    0    0  501  502 -0.00000000000E+00 -0.00000000000E+00 -0.18403679900E+03  0.18403679900E+03  0.00000000000E+00 0. -1.
         25    1    1    2    0    0  0.47892423928E+02  0.25682705019E+02 -0.60432091331E+01  0.13643608754E+03  0.12500000000E+03 0.  0.
         25    1    1    2    0    0 -0.75744179756E+02  0.10905485802E+03  0.42816558356E+02  0.18731898060E+03  0.12500000000E+03 0.  0.
         25    1    1    2    0    0  0.27851755828E+02 -0.13473756304E+03  0.17251442842E+03  0.25360630751E+03  0.12500000000E+03 0.  0.
</event>
<event>
 5    0  0.5605075E-005  0.3124960E+03  0.7546771E-02  0.1079156E+00
         21   -1    0    0  502  501  0.00000000000E+00  0.00000000000E+00  0.22841519948E+03  0.22841519948E+03  0.00000000000E+00 0. -1.
         21   -1    0    0  501  502 -0.00000000000E+00 -0.00000000000E+00 -0.42752734123E+03  0.42752734123E+03  0.00000000000E+00 0. -1.
         25    1    1    2    0    0 -0.63535183451E+02 -0.11126424554E+03 -0.16630598799E+03  0.24433406130E+03  0.12500000000E+03 0.  0.
         25    1    1    2    0    0  0.33417236242E+02  0.14295507457E+03  0.10577956987E+03  0.21992540195E+03  0.12500000000E+03 0.  0.
         25    1    1    2    0    0  0.30117947209E+02 -0.31690829026E+02 -0.13858572363E+03  0.19168307745E+03  0.12500000000E+03 0.  0.
</event>
<event>
 5    0  0.5605075E-005  0.2433458E+03  0.7546771E-02  0.1117584E+00
         21   -1    0    0  502  501  0.00000000000E+00  0.00000000000E+00  0.15389288899E+03  0.15389288899E+03  0.00000000000E+00 0. -1.
         21   -1    0    0  501  502 -0.00000000000E+00 -0.00000000000E+00 -0.38479492453E+03  0.38479492453E+03  0.00000000000E+00 0. -1.
         25    1    1    2    0    0 -0.64015390037E+01  0.42460024375E+02 -0.44303739053E+02  0.13939747008E+03  0.12500000000E+03 0.  0.
         25    1    1    2    0    0 -0.11095355469E+03  0.15838039544E+02 -0.11987862362E+03  0.20629449628E+03  0.12500000000E+03 0.  0.
         25    1    1    2    0    0  0.11735509369E+03 -0.58298063919E+02 -0.66719672871E+02  0.19299584716E+03  0.12500000000E+03 0.  0.
</event>
<event>
 5    0  0.5605075E-005  0.2162798E+03  0.7546771E-02  0.1136687E+00
         21   -1    0    0  502  501  0.00000000000E+00  0.00000000000E+00  0.36587629295E+02  0.36587629295E+02  0.00000000000E+00 0. -1.
         21   -1    0    0  501  502 -0.00000000000E+00 -0.00000000000E+00 -0.12784908977E+04  0.12784908977E+04  0.00000000000E+00 0. -1.
         25    1    1    2    0    0  0.22220417397E+02  0.32372971848E+02 -0.66837649458E+03  0.68109756626E+03  0.12500000000E+03 0.  0.
         25    1    1    2    0    0  0.87925865723E+01 -0.30633391142E+02 -0.38182809315E+03  0.40303028044E+03  0.12500000000E+03 0.  0.
         25    1    1    2    0    0 -0.31013003969E+02 -0.17395807068E+01 -0.19169868065E+03  0.23095068027E+03  0.12500000000E+03 0.  0.
</event>
<event>
 5    0  0.5605075E-005  0.2825383E+03  0.7546771E-02  0.1094311E+00
         21   -1    0    0  502  501  0.00000000000E+00  0.00000000000E+00  0.86960158268E+02  0.86960158268E+02  0.00000000000E+00 0.  1.
         21   -1    0    0  501  502 -0.00000000000E+00 -0.00000000000E+00 -0.91798213813E+03  0.91798213813E+03  0.00000000000E+00 0.  1.
         25    1    1    2    0    0  0.54020303977E+02  0.51809472213E+02 -0.53498047214E+03  0.55446507575E+03  0.12500000000E+03 0.  0.
         25    1    1    2    0    0 -0.60537186692E+01  0.55151017954E+02 -0.22846221818E+03  0.26626728569E+03  0.12500000000E+03 0.  0.
         25    1    1    2    0    0 -0.47966585307E+02 -0.10696049017E+03 -0.67579289534E+02  0.18420993496E+03  0.12500000000E+03 0.  0.
</event>
<event>
 5    0  0.5605075E-005  0.4233224E+03  0.7546771E-02  0.1035990E+00
         21   -1    0    0  502  501  0.00000000000E+00  0.00000000000E+00  0.13161168138E+03  0.13161168138E+03  0.00000000000E+00 0.  1.
         21   -1    0    0  501  502 -0.00000000000E+00 -0.00000000000E+00 -0.13615952903E+04  0.13615952903E+04  0.00000000000E+00 0.  1.
         25    1    1    2    0    0  0.11836030528E+02 -0.13777926745E+03 -0.19062720378E+02  0.18738091009E+03  0.12500000000E+03 0.  0.
         25    1    1    2    0    0 -0.17348051877E+03 -0.34942926109E+01 -0.77632054717E+03  0.80523679277E+03  0.12500000000E+03 0.  0.
         25    1    1    2    0    0  0.16164448824E+03  0.14127356006E+03 -0.43460034139E+03  0.50058926885E+03  0.12500000000E+03 0.  0.
</event>
<event>
 5    0  0.5605075E-005  0.2833490E+03  0.7546771E-02  0.1093874E+00
         21   -1    0    0  502  501  0.00000000000E+00  0.00000000000E+00  0.17134021175E+04  0.17134021175E+04  0.00000000000E+00 0.  1.
         21   -1    0    0  501  502 -0.00000000000E+00 -0.00000000000E+00 -0.46858047469E+02  0.46858047469E+02  0.00000000000E+00 0.  1.
         25    1    1    2    0    0  0.87197442869E+02 -0.56864997634E+02  0.11988143971E+04  0.12098008020E+04  0.12500000000E+03 0.  0.
         25    1    1    2    0    0 -0.31513861777E+02 -0.24218402970E+02  0.21298491702E+03  0.25013442267E+03  0.12500000000E+03 0.  0.
         25    1    1    2    0    0 -0.55683581093E+02  0.81083400604E+02  0.25474475589E+03  0.30032494021E+03  0.12500000000E+03 0.  0.
</event>
<event>
 5    0  0.5605075E-005  0.3282389E+03  0.7546771E-02  0.1071919E+00
         21   -1    0    0  502  501  0.00000000000E+00  0.00000000000E+00  0.12581761834E+03  0.12581761834E+03  0.00000000000E+00 0. -1.
         21   -1    0    0  501  502 -0.00000000000E+00 -0.00000000000E+00 -0.85632497255E+03  0.85632497255E+03  0.00000000000E+00 0. -1.
         25    1    1    2    0    0 -0.76525301665E+02  0.12409967920E+03 -0.32713913976E+03  0.37934399815E+03  0.12500000000E+03 0.  0.
         25    1    1    2    0    0  0.50953464170E+02 -0.61248237144E+02 -0.43286555620E+03  0.45754255737E+03  0.12500000000E+03 0.  0.
         25    1    1    2    0    0  0.25571837495E+02 -0.62851442052E+02  0.29497341741E+02  0.14525603537E+03  0.12500000000E+03 0.  0.
</event>
<event>
 5    0  0.5605075E-005  0.2991455E+03  0.7546771E-02  0.1085669E+00
         21   -1    0    0  502  501  0.00000000000E+00  0.00000000000E+00  0.13702803256E+04  0.13702803256E+04  0.00000000000E+00 0. -1.
         21   -1    0    0  501  502 -0.00000000000E+00 -0.00000000000E+00 -0.65306389051E+02  0.65306389051E+02  0.00000000000E+00 0. -1.
         25    1    1    2    0    0 -0.41705928040E+02  0.51153045613E+01  0.44183424274E+03  0.46109440338E+03  0.12500000000E+03 0.  0.
         25    1    1    2    0    0 -0.11708082502E+03 -0.12536289177E+03  0.33813682891E+03  0.39923087216E+03  0.12500000000E+03 0.  0.
         25    1    1    2    0    0  0.15878675306E+03  0.12024758721E+03  0.52500286492E+03  0.57526143913E+03  0.12500000000E+03 0.  0.
</event>
<event>
 5    0  0.6182431E-005  0.2848539E+03  0.7546771E-02  0.1093067E+00
         21   -1    0    0  502  501  0.00000000000E+00  0.00000000000E+00  0.32817329958E+03  0.32817329958E+03  0.00000000000E+00 0.  1.
         21   -1    0    0  501  502 -0.00000000000E+00 -0.00000000000E+00 -0.24725278048E+03  0.24725278048E+03  0.00000000000E+00 0.  1.
         25    1    1    2    0    0  0.94540770202E+02 -0.19810901528E+02  0.68838303305E+01  0.15812278827E+03  0.12500000000E+03 0.  0.
         25    1    1    2    0    0 -0.14686896341E+03 -0.27319466056E+02  0.15822634749E+03  0.25095302883E+03  0.12500000000E+03 0.  0.
         25    1    1    2    0    0  0.52328193206E+02  0.47130367584E+02 -0.84189658725E+02  0.16635026297E+03  0.12500000000E+03 0.  0.
</event>
<event>
 5    0  0.5605075E-005  0.4504130E+03  0.7546771E-02  0.1027599E+00
         21   -1    0    0  502  501  0.00000000000E+00  0.00000000000E+00  0.34739991558E+03  0.34739991558E+03  0.00000000000E+00 0. -1.
         21   -1    0    0  501  502 -0.00000000000E+00 -0.00000000000E+00 -0.58397204624E+03  0.58397204624E+03  0.00000000000E+00 0. -1.
         25    1    1    2    0    0 -0.15142402140E+03 -0.23576627490E+02 -0.12311760790E+03  0.23295501067E+03  0.12500000000E+03 0.  0.
         25    1    1    2    0    0  0.36521261841E+03  0.74070953973E+02 -0.18688382546E+03  0.43522100948E+03  0.12500000000E+03 0.  0.
         25    1    1    2    0    0 -0.21378859701E+03 -0.50494326483E+02  0.73429302687E+02  0.26319594167E+03  0.12500000000E+03 0.  0.
</event>
<event>
 5    0  0.5605075E-005  0.2742040E+03  0.7546771E-02  0.1098897E+00
         21   -1    0    0  502  501  0.00000000000E+00  0.00000000000E+00  0.13840425584E+04  0.13840425584E+04  0.00000000000E+00 0.  1.
         21   -1    0    0  501  502 -0.00000000000E+00 -0.00000000000E+00 -0.54324813795E+02  0.54324813795E+02  0.00000000000E+00 0.  1.
         25    1    1    2    0    0 -0.50370289061E+02  0.45436152709E+02  0.16948193545E+03  0.22124813319E+03  0.12500000000E+03 0.  0.
         25    1    1    2    0    0 -0.52333342665E+02  0.17810220031E+02  0.85552938470E+03  0.86637838776E+03  0.12500000000E+03 0.  0.
         25    1    1    2    0    0  0.10270363173E+03 -0.63246372740E+02  0.30470642446E+03  0.35074085126E+03  0.12500000000E+03 0.  0.
</event>
<event>
 5    0  0.5605075E-005  0.5015734E+03  0.7546771E-02  0.1013369E+00
         21   -1    0    0  502  501  0.00000000000E+00  0.00000000000E+00  0.10255228817E+04  0.10255228817E+04  0.00000000000E+00 0. -1.
         21   -1    0    0  501  502 -0.00000000000E+00 -0.00000000000E+00 -0.24531475574E+03  0.24531475574E+03  0.00000000000E+00 0. -1.
         25    1    1    2    0    0  0.88647640135E+02  0.23392444586E+02  0.51794430950E+03  0.54064490963E+03  0.12500000000E+03 0.  0.
         25    1    1    2    0    0 -0.80768827662E+02  0.20832086572E+03  0.36637683413E+03  0.44696551456E+03  0.12500000000E+03 0.  0.
         25    1    1    2    0    0 -0.78788124733E+01 -0.23171331030E+03 -0.10411301770E+03  0.28322721323E+03  0.12500000000E+03 0.  0.
</event>
<event>
 5    0  0.5605075E-005  0.3168858E+03  0.7546771E-02  0.1077092E+00
         21   -1    0    0  502  501  0.00000000000E+00  0.00000000000E+00  0.24947165769E+03  0.24947165769E+03  0.00000000000E+00 0. -1.
         21   -1    0    0  501  502 -0.00000000000E+00 -0.00000000000E+00 -0.40251719546E+03  0.40251719546E+03  0.00000000000E+00 0. -1.
         25    1    1    2    0    0  0.12565184274E+02  0.24334373917E+02 -0.16030464232E+03  0.20511612311E+03  0.12500000000E+03 0.  0.
         25    1    1    2    0    0  0.17412286412E+03 -0.23833400476E+02  0.41451637292E+02  0.21961338990E+03  0.12500000000E+03 0.  0.
         25    1    1    2    0    0 -0.18668804840E+03 -0.50097344020E+00 -0.34192532749E+02  0.22725934015E+03  0.12500000000E+03 0.  0.
</event>
<event>
 5    0  0.5605075E-005  0.2523035E+03  0.7546771E-02  0.1111858E+00
         21   -1    0    0  502  501  0.00000000000E+00  0.00000000000E+00  0.32756969498E+03  0.32756969498E+03  0.00000000000E+00 0.  1.
         21   -1    0    0  501  502 -0.00000000000E+00 -0.00000000000E+00 -0.19433129883E+03  0.19433129883E+03  0.00000000000E+00 0.  1.
         25    1    1    2    0    0  0.20482084516E+02 -0.38695380444E+02 -0.22063644670E+02  0.13427081839E+03  0.12500000000E+03 0.  0.
         25    1    1    2    0    0 -0.12515297716E+03 -0.20223807430E+02  0.50516206007E+02  0.18506527807E+03  0.12500000000E+03 0.  0.
         25    1    1    2    0    0  0.10467089264E+03  0.58919187874E+02  0.10478583481E+03  0.20256489736E+03  0.12500000000E+03 0.  0.
</event>
<event>
 5    0  0.5605075E-005  0.3657784E+03  0.7546771E-02  0.1056319E+00
         21   -1    0    0  502  501  0.00000000000E+00  0.00000000000E+00  0.33771909729E+03  0.33771909729E+03  0.00000000000E+00 0. -1.
         21   -1    0    0  501  502 -0.00000000000E+00 -0.00000000000E+00 -0.39616903921E+03  0.39616903921E+03  0.00000000000E+00 0.  1.
         25    1    1    2    0    0  0.16532364486E+03 -0.19201201009E+03 -0.17253946449E+03  0.33105193909E+03  0.12500000000E+03 0.  0.
         25    1    1    2    0    0 -0.35242103539E+02  0.28888896541E+02 -0.26023002967E+01  0.13307271010E+03  0.12500000000E+03 0.  0.
         25    1    1    2    0    0 -0.13008154132E+03  0.16312311355E+03  0.11669182287E+03  0.26976348732E+03  0.12500000000E+03 0.  0.
</event>
<event>
 5    0  0.5749461E-005  0.3408232E+03  0.7546771E-02  0.1066446E+00
         21   -1    0    0  502  501  0.00000000000E+00  0.00000000000E+00  0.30572668319E+03  0.30572668319E+03  0.00000000000E+00 0.  1.
         21   -1    0    0  501  502 -0.00000000000E+00 -0.00000000000E+00 -0.37994870628E+03  0.37994870628E+03  0.00000000000E+00 0.  1.
         25    1    1    2    0    0  0.44710874968E+02  0.14415233542E+03 -0.11250916559E+02  0.19629197964E+03  0.12500000000E+03 0.  0.
         25    1    1    2    0    0 -0.11176760809E+03 -0.38389944129E+02  0.13878960023E+03  0.22102791489E+03  0.12500000000E+03 0.  0.
         25    1    1    2    0    0  0.67056733121E+02 -0.10576239130E+03 -0.20176070676E+03  0.26835549493E+03  0.12500000000E+03 0.  0.
</event>
<event>
 5    0  0.5605075E-005  0.3167257E+03  0.7546771E-02  0.1077166E+00
         21   -1    0    0  502  501  0.00000000000E+00  0.00000000000E+00  0.65213210040E+02  0.65213210040E+02  0.00000000000E+00 0. -1.
         21   -1    0    0  501  502 -0.00000000000E+00 -0.00000000000E+00 -0.15382648179E+04  0.15382648179E+04  0.00000000000E+00 0. -1.
         25    1    1    2    0    0 -0.92460114771E+02 -0.30292676283E+02 -0.99626847858E+02  0.18712837271E+03  0.12500000000E+03 0.  0.
         25    1    1    2    0    0 -0.53994493626E+02  0.73899256960E+01 -0.78622840102E+03  0.79796623670E+03  0.12500000000E+03 0.  0.
         25    1    1    2    0    0  0.14645460840E+03  0.22902750587E+02 -0.58719635894E+03  0.61838341849E+03  0.12500000000E+03 0.  0.
</event>
<event>
 5    0  0.5605075E-005  0.4140977E+03  0.7546771E-02  0.1039005E+00
         21   -1    0    0  502  501  0.00000000000E+00  0.00000000000E+00  0.10864280759E+04  0.10864280759E+04  0.00000000000E+00 0. -1.
         21   -1    0    0  501  502 -0.00000000000E+00 -0.00000000000E+00 -0.15783549704E+03  0.15783549704E+03  0.00000000000E+00 0. -1.
         25    1    1    2    0    0 -0.80494049374E+01  0.26612782731E+02  0.19741836242E+03  0.23531264935E+03  0.12500000000E+03 0.  0.
         25    1    1    2    0    0 -0.64594817674E+02 -0.25347955470E+03  0.67430615356E+03  0.73398784994E+03  0.12500000000E+03 0.  0.
         25    1    1    2    0    0  0.72644222611E+02  0.22686677197E+03  0.56868062899E+02  0.27496307367E+03  0.12500000000E+03 0.  0.
</event>
<event>
 5    0  0.5605075E-005  0.2801601E+03  0.7546771E-02  0.1095602E+00
         21   -1    0    0  502  501  0.00000000000E+00  0.00000000000E+00  0.14030393980E+03  0.14030393980E+03  0.00000000000E+00 0. -1.
         21   -1    0    0  501  502 -0.00000000000E+00 -0.00000000000E+00 -0.55942611333E+03  0.55942611333E+03  0.00000000000E+00 0. -1.
         25    1    1    2    0    0 -0.66621838504E+02  0.12523229856E+03 -0.20884038302E+03  0.28171067347E+03  0.12500000000E+03 0.  0.
         25    1    1    2    0    0 -0.10192588708E+02 -0.14602615158E+03 -0.18635328631E+03  0.26791803434E+03  0.12500000000E+03 0.  0.
         25    1    1    2    0    0  0.76814427211E+02  0.20793853021E+02 -0.23928504207E+02  0.15010134531E+03  0.12500000000E+03 0.  0.
</event>
<event>
 5    0  0.5605075E-005  0.3725209E+03  0.7546771E-02  0.1053733E+00
         21   -1    0    0  502  501  0.00000000000E+00  0.00000000000E+00  0.30545660225E+03  0.30545660225E+03  0.00000000000E+00 0.  1.
         21   -1    0    0  501  502 -0.00000000000E+00 -0.00000000000E+00 -0.45430951503E+03  0.45430951503E+03  0.00000000000E+00 0.  1.
         25    1    1    2    0    0  0.14389602638E+03 -0.13571843377E+03 -0.44226742305E+02  0.23813140156E+03  0.12500000000E+03 0.  0.
         25    1    1    2    0    0 -0.19544857917E+03  0.21772905194E+03 -0.15733143796E+03  0.35494262709E+03  0.12500000000E+03 0.  0.
         25    1    1    2    0    0  0.51552552784E+02 -0.82010618168E+02  0.52705267480E+02  0.16669208863E+03  0.12500000000E+03 0.  0.
</event>
<event>
 5    0  0.5912894E-005  0.2942745E+03  0.7546771E-02  0.1088138E+00
         21   -1    0    0  502  501  0.00000000000E+00  0.00000000000E+00  0.35876610923E+03  0.35876610923E+03  0.00000000000E+00 0. -1.
         21   -1    0    0  501  502 -0.00000000000E+00 -0.00000000000E+00 -0.24137583943E+03  0.24137583943E+03  0.00000000000E+00 0. -1.
         25    1    1    2    0    0  0.49331018692E+02 -0.49339447346E+02  0.69074581733E+02  0.15894725009E+03  0.12500000000E+03 0.  0.
         25    1    1    2    0    0  0.28356980939E+02 -0.43633088518E+02 -0.13303125380E+03  0.18981643572E+03  0.12500000000E+03 0.  0.
         25    1    1    2    0    0 -0.77687999631E+02  0.92972535865E+02  0.18134694186E+03  0.25137826285E+03  0.12500000000E+03 0.  0.
</event>
<event>
 5    0  0.5605075E-005  0.2260641E+03  0.7546771E-02  0.1129441E+00
         21   -1    0    0  502  501  0.00000000000E+00  0.00000000000E+00  0.11910167485E+03  0.11910167485E+03  0.00000000000E+00 0. -1.
         21   -1    0    0  501  502 -0.00000000000E+00 -0.00000000000E+00 -0.42908705135E+03  0.42908705135E+03  0.00000000000E+00 0. -1.
         25    1    1    2    0    0 -0.26719780613E+01  0.30436044039E+02 -0.89881259884E+02  0.15696220284E+03  0.12500000000E+03 0.  0.
         25    1    1    2    0    0 -0.49834072465E+02 -0.45292051371E+02 -0.12108973478E+02  0.14250063837E+03  0.12500000000E+03 0.  0.
         25    1    1    2    0    0  0.52506050526E+02  0.14856007333E+02 -0.20799514314E+03  0.24872588499E+03  0.12500000000E+03 0.  0.
</event>
<event>
 5    0  0.5605075E-005  0.3352551E+03  0.7546771E-02  0.1068835E+00
         21   -1    0    0  502  501  0.00000000000E+00  0.00000000000E+00  0.13495114925E+04  0.13495114925E+04  0.00000000000E+00 0.  1.
         21   -1    0    0  501  502 -0.00000000000E+00 -0.00000000000E+00 -0.83286420199E+02  0.83286420199E+02  0.00000000000E+00 0.  1.
         25    1    1    2    0    0 -0.20883232073E+03 -0.16459009242E+02  0.78938095864E+03  0.82621373448E+03  0.12500000000E+03 0.  0.
         25    1    1    2    0    0  0.19851669096E+03  0.29237621432E+02  0.23222095487E+03  0.33138389668E+03  0.12500000000E+03 0.  0.
         25    1    1    2    0    0  0.10315629774E+02 -0.12778612190E+02  0.24462315877E+03  0.27520028153E+03  0.12500000000E+03 0.  0.
</event>
<event>
 5    0  0.5605075E-005  0.2766330E+03  0.7546771E-02  0.1097542E+00
         21   -1    0    0  502  501  0.00000000000E+00  0.00000000000E+00  0.33374582045E+03  0.33374582045E+03  0.00000000000E+00 0. -1.
         21   -1    0    0  501  502 -0.00000000000E+00 -0.00000000000E+00 -0.22929376175E+03  0.22929376175E+03  0.00000000000E+00 0. -1.
         25    1    1    2    0    0  0.60899934840E+02  0.78283046300E+02  0.13802551592E+03  0.21098123245E+03  0.12500000000E+03 0.  0.
         25    1    1    2    0    0  0.42628074125E+02  0.44885617012E+02  0.21165634813E+02  0.14108456831E+03  0.12500000000E+03 0.  0.
         25    1    1    2    0    0 -0.10352800896E+03 -0.12316866331E+03 -0.54739092027E+02  0.21097378145E+03  0.12500000000E+03 0.  0.
</event>
<event>
 5    0  0.5605075E-005  0.2613310E+03  0.7546771E-02  0.1106346E+00
         21   -1    0    0  502  501  0.00000000000E+00  0.00000000000E+00  0.93023807600E+03  0.93023807600E+03  0.00000000000E+00 0.  1.
         21   -1    0    0  501  502 -0.00000000000E+00 -0.00000000000E+00 -0.73415478135E+02  0.73415478135E+02  0.00000000000E+00 0.  1.
         25    1    1    2    0    0 -0.13670486346E+02  0.69402532696E+02  0.14589658947E+03  0.20473008709E+03  0.12500000000E+03 0.  0.
         25    1    1    2    0    0 -0.38022121134E+02  0.18769849607E+02  0.96165446221E+02  0.16331191627E+03  0.12500000000E+03 0.  0.
         25    1    1    2    0    0  0.51692607479E+02 -0.88172382303E+02  0.61476056218E+03  0.63561155077E+03  0.12500000000E+03 0.  0.
</event>
<event>
 5    0  0.5605075E-005  0.4233089E+03  0.7546771E-02  0.1035995E+00
         21   -1    0    0  502  501  0.00000000000E+00  0.00000000000E+00  0.80316634879E+03  0.80316634879E+03  0.00000000000E+00 0.  1.
         21   -1    0    0  501  502 -0.00000000000E+00 -0.00000000000E+00 -0.22310501181E+03  0.22310501181E+03  0.00000000000E+00 0.  1.
         25    1    1    2    0    0  0.14225498082E+03  0.65079512094E+02  0.73832641758E+02  0.21341996498E+03  0.12500000000E+03 0.  0.
         25    1    1    2    0    0 -0.32452351659E+03 -0.66231218790E+02  0.13120749900E+03  0.37754800351E+03  0.12500000000E+03 0.  0.
         25    1    1    2    0    0  0.18226853577E+03  0.11517066956E+01  0.37502119623E+03  0.43530339211E+03  0.12500000000E+03 0.  0.
</event>
<event>
 5    0  0.5605075E-005  0.7321239E+03  0.7546771E-02  0.9663820E-01
         21   -1    0    0  502  501  0.00000000000E+00  0.00000000000E+00  0.29903039859E+03  0.29903039859E+03  0.00000000000E+00 0.  1.
         21   -1    0    0  501  502 -0.00000000000E+00 -0.00000000000E+00 -0.17924779393E+04  0.17924779393E+04  0.00000000000E+00 0.  1.
         25    1    1    2    0    0  0.20942405818E+03 -0.31448722529E+02 -0.44213662891E+03  0.50592218465E+03  0.12500000000E+03 0.  0.
         25    1    1    2    0    0 -0.65659633810E+03  0.18967368207E+03 -0.65686154951E+03  0.95613124209E+03  0.12500000000E+03 0.  0.
         25    1    1    2    0    0  0.44717227993E+03 -0.15822495954E+03 -0.39444936226E+03  0.62945491113E+03  0.12500000000E+03 0.  0.
</event>
<event>
 5    0  0.5605075E-005  0.3121244E+03  0.7546771E-02  0.1079332E+00
         21   -1    0    0  502  501  0.00000000000E+00  0.00000000000E+00  0.10600477470E+03  0.10600477470E+03  0.00000000000E+00 0. -1.
         21   -1    0    0  501  502 -0.00000000000E+00 -0.00000000000E+00 -0.91903090989E+03  0.91903090989E+03  0.00000000000E+00 0. -1.
         25    1    1    2    0    0  0.46589924984E+02 -0.24213676708E+02  0.20464219422E+02  0.13711567207E+03  0.12500000000E+03 0.  0.
         25    1    1    2    0    0 -0.74227710583E+02  0.19970817714E+02 -0.24444323364E+03  0.28510713960E+03  0.12500000000E+03 0.  0.
         25    1    1    2    0    0  0.27637785599E+02  0.42428589942E+01 -0.58904712097E+03  0.60281287293E+03  0.12500000000E+03 0.  0.
</event>
<event>
 5    0  0.5605075E-005  0.2763724E+03  0.7546771E-02  0.1097687E+00
         21   -1    0    0  502  501  0.00000000000E+00  0.00000000000E+00  0.16193492148E+03  0.16193492148E+03  0.00000000000E+00 0.  1.
         21   -1    0    0  501  502 -0.00000000000E+00 -0.00000000000E+00 -0.47168131557E+03  0.47168131557E+03  0.00000000000E+00 0.  1.
         25    1    1    2    0    0 -0.27776283448E+02 -0.40069485716E+02 -0.32065683434E+03  0.34759587313E+03  0.12500000000E+03 0.  0.
         25    1    1    2    0    0  0.38419945507E+02 -0.40262655397E+02  0.37622532839E+01  0.13688070785E+03  0.12500000000E+03 0.  0.
         25    1    1    2    0    0 -0.10643662059E+02  0.80332141113E+02  0.71481869668E+01  0.14913965608E+03  0.12500000000E+03 0.  0.
</event>
<event>
 5    0  0.5605075E-005  0.4380223E+03  0.7546771E-02  0.1031355E+00
         21   -1    0    0  502  501  0.00000000000E+00  0.00000000000E+00  0.16734316978E+03  0.16734316978E+03  0.00000000000E+00 0. -1.
         21   -1    0    0  501  502 -0.00000000000E+00 -0.00000000000E+00 -0.11465273513E+04  0.11465273513E+04  0.00000000000E+00 0. -1.
         25    1    1    2    0    0  0.24078436113E+03  0.22324129129E+03 -0.31776456206E+03  0.47372259773E+03  0.12500000000E+03 0.  0.
         25    1    1    2    0    0 -0.19403798686E+03 -0.28468407374E+03 -0.52038056333E+03  0.63648777905E+03  0.12500000000E+03 0.  0.
         25    1    1    2    0    0 -0.46746374264E+02  0.61442782444E+02 -0.14103905609E+03  0.20366014427E+03  0.12500000000E+03 0.  0.
</event>
<event>
 5    0  0.5605075E-005  0.4037900E+03  0.7546771E-02  0.1042475E+00
         21   -1    0    0  502  501  0.00000000000E+00  0.00000000000E+00  0.79282634213E+03  0.79282634213E+03  0.00000000000E+00 0. -1.
         21   -1    0    0  501  502 -0.00000000000E+00 -0.00000000000E+00 -0.20565207974E+03  0.20565207974E+03  0.00000000000E+00 0. -1.
         25    1    1    2    0    0  0.76400261217E+02  0.34035269657E+02 -0.12653469781E+03  0.19654879609E+03  0.12500000000E+03 0.  0.
         25    1    1    2    0    0 -0.92072309822E+02 -0.91385801107E+02  0.58789207154E+03  0.61487459100E+03  0.12500000000E+03 0.  0.
         25    1    1    2    0    0  0.15672048605E+02  0.57350531450E+02  0.12581688866E+03  0.18705503478E+03  0.12500000000E+03 0.  0.
</event>
<event>
 5    0  0.5605075E-005  0.3053103E+03  0.7546771E-02  0.1082616E+00
         21   -1    0    0  502  501  0.00000000000E+00  0.00000000000E+00  0.68340366426E+02  0.68340366426E+02  0.00000000000E+00 0.  1.
         21   -1    0    0  501  502 -0.00000000000E+00 -0.00000000000E+00 -0.13639726562E+04  0.13639726562E+04  0.00000000000E+00 0.  1.
         25    1    1    2    0    0 -0.16111479953E+03  0.11315912268E+03 -0.68324508435E+03  0.72195000586E+03  0.12500000000E+03 0.  0.
         25    1    1    2    0    0  0.11899368859E+03 -0.33304736008E+02 -0.46478682308E+03  0.49691095206E+03  0.12500000000E+03 0.  0.
         25    1    1    2    0    0  0.42121110946E+02 -0.79854386667E+02 -0.14760038232E+03  0.21345206468E+03  0.12500000000E+03 0.  0.
</event>
<event>
 5    0  0.5605075E-005  0.2150064E+03  0.7546771E-02  0.1137662E+00
         21   -1    0    0  502  501  0.00000000000E+00  0.00000000000E+00  0.15114268158E+04  0.15114268158E+04  0.00000000000E+00 0.  1.
         21   -1    0    0  501  502 -0.00000000000E+00 -0.00000000000E+00 -0.30585506913E+02  0.30585506913E+02  0.00000000000E+00 0.  1.
         25    1    1    2    0    0  0.92477277028E+01 -0.21844597314E+02  0.22009491807E+03  0.25422328741E+03  0.12500000000E+03 0.  0.
         25    1    1    2    0    0 -0.28035426321E+01  0.46481913261E+02  0.71445626067E+03  0.72680202017E+03  0.12500000000E+03 0.  0.
         25    1    1    2    0    0 -0.64441850707E+01 -0.24637315947E+02  0.54629013020E+03  0.56098701519E+03  0.12500000000E+03 0.  0.
</event>
<event>
 5    0  0.5605075E-005  0.3907171E+03  0.7546771E-02  0.1047042E+00
         21   -1    0    0  502  501  0.00000000000E+00  0.00000000000E+00  0.11050855796E+04  0.11050855796E+04  0.00000000000E+00 0. -1.
         21   -1    0    0  501  502 -0.00000000000E+00 -0.00000000000E+00 -0.13814303617E+03  0.13814303617E+03  0.00000000000E+00 0. -1.
         25    1    1    2    0    0  0.10403064194E+03  0.30176722549E+03  0.35625482234E+03  0.49439693697E+03  0.12500000000E+03 0.  0.
         25    1    1    2    0    0 -0.86148127510E+02 -0.24734068632E+03  0.46795071950E+03  0.55063762209E+03  0.12500000000E+03 0.  0.
         25    1    1    2    0    0 -0.17882514430E+02 -0.54426539167E+02  0.14273700154E+03  0.19819405666E+03  0.12500000000E+03 0.  0.
</event>
<event>
 5    0  0.5605075E-005  0.2269011E+03  0.7546771E-02  0.1128840E+00
         21   -1    0    0  502  501  0.00000000000E+00  0.00000000000E+00  0.22293079931E+03  0.22293079931E+03  0.00000000000E+00 0.  1.
         21   -1    0    0  501  502 -0.00000000000E+00 -0.00000000000E+00 -0.23094211367E+03  0.23094211367E+03  0.00000000000E+00 0.  1.
         25    1    1    2    0    0  0.21206604512E+02  0.52996486391E+02  0.85309029624E+02  0.16174355684E+03  0.12500000000E+03 0.  0.
         25    1    1    2    0    0 -0.28763143136E+02  0.14159006738E+02 -0.73906124871E+02  0.14871083070E+03  0.12500000000E+03 0.  0.
         25    1    1    2    0    0  0.75565386243E+01 -0.67155493129E+02 -0.19414219110E+02  0.14341852543E+03  0.12500000000E+03 0.  0.
</event>
<event>
 5    0  0.5605075E-005  0.3940879E+03  0.7546771E-02  0.1045846E+00
         21   -1    0    0  502  501  0.00000000000E+00  0.00000000000E+00  0.54136022181E+03  0.54136022181E+03  0.00000000000E+00 0.  1.
         21   -1    0    0  501  502 -0.00000000000E+00 -0.00000000000E+00 -0.28687966735E+03  0.28687966735E+03  0.00000000000E+00 0.  1.
         25    1    1    2    0    0 -0.23763451661E+03  0.13670425361E+03  0.14825053388E+03  0.33579969809E+03  0.12500000000E+03 0.  0.
         25    1    1    2    0    0 -0.43445512707E+00 -0.16877340208E+03  0.43811932848E+02  0.21454401754E+03  0.12500000000E+03 0.  0.
         25    1    1    2    0    0  0.23806897174E+03  0.32069148469E+02  0.62418087734E+02  0.27789617353E+03  0.12500000000E+03 0.  0.
</event>
<event>
 5    0  0.5605075E-005  0.2490589E+03  0.7546771E-02  0.1113901E+00
         21   -1    0    0  502  501  0.00000000000E+00  0.00000000000E+00  0.53225086904E+03  0.53225086904E+03  0.00000000000E+00 0. -1.
         21   -1    0    0  501  502 -0.00000000000E+00 -0.00000000000E+00 -0.11654342237E+03  0.11654342237E+03  0.00000000000E+00 0. -1.
         25    1    1    2    0    0  0.46681109469E+02  0.45210284896E+02  0.16157093559E+03  0.21436712217E+03  0.12500000000E+03 0.  0.
         25    1    1    2    0    0 -0.49882029627E+02 -0.54959683782E+02 -0.61442227984E+01  0.14550441641E+03  0.12500000000E+03 0.  0.
         25    1    1    2    0    0  0.32009201577E+01  0.97493988859E+01  0.26028073389E+03  0.28892275283E+03  0.12500000000E+03 0.  0.
</event>
<event>
 5    0  0.5605075E-005  0.3331642E+03  0.7546771E-02  0.1069745E+00
         21   -1    0    0  502  501  0.00000000000E+00  0.00000000000E+00  0.11664714389E+04  0.11664714389E+04  0.00000000000E+00 0.  1.
         21   -1    0    0  501  502 -0.00000000000E+00 -0.00000000000E+00 -0.95157411817E+02  0.95157411817E+02  0.00000000000E+00 0.  1.
         25    1    1    2    0    0 -0.25869373596E+02  0.71769367611E+02  0.27049347428E+03  0.30759028958E+03  0.12500000000E+03 0.  0.
         25    1    1    2    0    0 -0.13758564406E+03 -0.20235755577E+03  0.41839612248E+03  0.50055839333E+03  0.12500000000E+03 0.  0.
         25    1    1    2    0    0  0.16345501765E+03  0.13058818816E+03  0.38242443032E+03  0.45348016780E+03  0.12500000000E+03 0.  0.
</event>
<event>
 5    0  0.5605075E-005  0.4244957E+03  0.7546771E-02  0.1035613E+00
         21   -1    0    0  502  501  0.00000000000E+00  0.00000000000E+00  0.65587145890E+03  0.65587145890E+03  0.00000000000E+00 0.  1.
         21   -1    0    0  501  502 -0.00000000000E+00 -0.00000000000E+00 -0.27474372848E+03  0.27474372848E+03  0.00000000000E+00 0.  1.
         25    1    1    2    0    0  0.20764507290E+03 -0.18265796444E+03  0.12221302937E+03  0.32717187046E+03  0.12500000000E+03 0.  0.
         25    1    1    2    0    0  0.36338198371E+02  0.13952650844E+03  0.26416925902E+03  0.32588112653E+03  0.12500000000E+03 0.  0.
         25    1    1    2    0    0 -0.24398327127E+03  0.43131456006E+02 -0.52545579701E+01  0.27756219039E+03  0.12500000000E+03 0.  0.
</event>
<event>
 5    0  0.5605075E-005  0.2374080E+03  0.7546771E-02  0.1121532E+00
         21   -1    0    0  502  501  0.00000000000E+00  0.00000000000E+00  0.89487590782E+02  0.89487590782E+02  0.00000000000E+00 0.  1.
         21   -1    0    0  501  502 -0.00000000000E+00 -0.00000000000E+00 -0.62983665682E+03  0.62983665682E+03  0.00000000000E+00 0.  1.
         25    1    1    2    0    0  0.40574227802E+02 -0.59465526021E+02 -0.42848300178E+02  0.15047721945E+03  0.12500000000E+03 0.  0.
         25    1    1    2    0    0 -0.38517554915E+02 -0.12292827323E+02 -0.25054163306E+03  0.28289719959E+03  0.12500000000E+03 0.  0.
         25    1    1    2    0    0 -0.20566728865E+01  0.71758353344E+02 -0.24695913280E+03  0.28594982856E+03  0.12500000000E+03 0.  0.
</event>
<event>
 5    0  0.5605075E-005  0.2859290E+03  0.7546771E-02  0.1092494E+00
         21   -1    0    0  502  501  0.00000000000E+00  0.00000000000E+00  0.10235663238E+03  0.10235663238E+03  0.00000000000E+00 0. -1.
         21   -1    0    0  501  502 -0.00000000000E+00 -0.00000000000E+00 -0.79873060027E+03  0.79873060027E+03  0.00000000000E+00 0. -1.
         25    1    1    2    0    0  0.20484349164E+02  0.14461314552E+03 -0.35241458553E+03  0.40143942322E+03  0.12500000000E+03 0.  0.
         25    1    1    2    0    0  0.96677502828E+02 -0.90637461475E+02 -0.18768563298E+03  0.26155799702E+03  0.12500000000E+03 0.  0.
         25    1    1    2    0    0 -0.11716185199E+03 -0.53975684050E+02 -0.15627374938E+03  0.23808981241E+03  0.12500000000E+03 0.  0.
</event>
<event>
 5    0  0.5605075E-005  0.3041771E+03  0.7546771E-02  0.1083171E+00
         21   -1    0    0  502  501  0.00000000000E+00  0.00000000000E+00  0.19714570569E+03  0.19714570569E+03  0.00000000000E+00 0.  1.
         21   -1    0    0  501  502 -0.00000000000E+00 -0.00000000000E+00 -0.46931640055E+03  0.46931640055E+03  0.00000000000E+00 0.  1.
         25    1    1    2    0    0  0.15601590648E+03 -0.28331682468E+02 -0.84493739935E+02  0.21887859510E+03  0.12500000000E+03 0.  0.
         25    1    1    2    0    0 -0.21147043796E+03 -0.45860469091E+02 -0.12973629955E+03  0.28156604230E+03  0.12500000000E+03 0.  0.
         25    1    1    2    0    0  0.55454531476E+02  0.74192151559E+02 -0.57940655374E+02  0.16601746884E+03  0.12500000000E+03 0.  0.
</event>
<event>
 5    0  0.5605075E-005  0.2523624E+03  0.7546771E-02  0.1111821E+00
         21   -1    0    0  502  501  0.00000000000E+00  0.00000000000E+00  0.12572164080E+04  0.12572164080E+04  0.00000000000E+00 0. -1.
         21   -1    0    0  501  502 -0.00000000000E+00 -0.00000000000E+00 -0.50656967799E+02  0.50656967799E+02  0.00000000000E+00 0. -1.
         25    1    1    2    0    0 -0.10996457670E+03 -0.76938104026E+02  0.40694955169E+03  0.44636825336E+03  0.12500000000E+03 0.  0.
         25    1    1    2    0    0 -0.91288813076E+01  0.32667281546E+02  0.22199608215E+03  0.25701701938E+03  0.12500000000E+03 0.  0.
         25    1    1    2    0    0  0.11909345801E+03  0.44270822480E+02  0.57761380639E+03  0.60448810311E+03  0.12500000000E+03 0.  0.
</event>
<event>
 5    0  0.5605075E-005  0.2885709E+03  0.7546771E-02  0.1091098E+00
         21   -1    0    0  502  501  0.00000000000E+00  0.00000000000E+00  0.77545620545E+03  0.77545620545E+03  0.00000000000E+00 0.  1.
         21   -1    0    0  501  502 -0.00000000000E+00 -0.00000000000E+00 -0.10738601327E+03  0.10738601327E+03  0.00000000000E+00 0.  1.
         25    1    1    2    0    0  0.51992265315E+02  0.38312042349E+02  0.14238146795E+03  0.20017115341E+03  0.12500000000E+03 0.  0.
         25    1    1    2    0    0  0.10654898870E+03  0.36256380503E+02  0.39881809395E+03  0.43283724906E+03  0.12500000000E+03 0.  0.
         25    1    1    2    0    0 -0.15854125401E+03 -0.74568422852E+02  0.12687063028E+03  0.24983381625E+03  0.12500000000E+03 0.  0.
</event>
<event>
 5    0  0.5605075E-005  0.2337177E+03  0.7546771E-02  0.1124050E+00
         21   -1    0    0  502  501  0.00000000000E+00  0.00000000000E+00  0.13016765888E+04  0.13016765888E+04  0.00000000000E+00 0. -1.
         21   -1    0    0  501  502 -0.00000000000E+00 -0.00000000000E+00 -0.41964303624E+02  0.41964303624E+02  0.00000000000E+00 0. -1.
         25    1    1    2    0    0 -0.16059146269E+02  0.89446682071E+02  0.31807305672E+03  0.35362985525E+03  0.12500000000E+03 0.  0.
         25    1    1    2    0    0  0.30302416040E+02 -0.39903699254E+02  0.23764430667E+03  0.27314896691E+03  0.12500000000E+03 0.  0.
         25    1    1    2    0    0 -0.14243269770E+02 -0.49542982817E+02  0.70399492175E+03  0.71686207023E+03  0.12500000000E+03 0.  0.
</event>
<event>
 5    0  0.5605075E-005  0.3328328E+03  0.7546771E-02  0.1069890E+00
         21   -1    0    0  502  501  0.00000000000E+00  0.00000000000E+00  0.94137494053E+03  0.94137494053E+03  0.00000000000E+00 0. -1.
         21   -1    0    0  501  502 -0.00000000000E+00 -0.00000000000E+00 -0.11767646552E+03  0.11767646552E+03  0.00000000000E+00 0. -1.
         25    1    1    2    0    0  0.10070277387E+03 -0.54943590080E+02 -0.10840914848E+02  0.17000697689E+03  0.12500000000E+03 0.  0.
         25    1    1    2    0    0 -0.53863559014E+02  0.83692519859E+02  0.56109070499E+03  0.58339823457E+03  0.12500000000E+03 0.  0.
         25    1    1    2    0    0 -0.46839214854E+02 -0.28748929779E+02  0.27344868487E+03  0.30564619459E+03  0.12500000000E+03 0.  0.
</event>
<event>
 5    0  0.6797778E-005  0.3308789E+03  0.7546771E-02  0.1070749E+00
         21   -1    0    0  502  501  0.00000000000E+00  0.00000000000E+00  0.13207618344E+04  0.13207618344E+04  0.00000000000E+00 0.  1.
         21   -1    0    0  501  502 -0.00000000000E+00 -0.00000000000E+00 -0.82892215601E+02  0.82892215601E+02  0.00000000000E+00 0.  1.
         25    1    1    2    0    0  0.59477661208E+02  0.39626071747E+02  0.43282897486E+02  0.15035367292E+03  0.12500000000E+03 0.  0.
         25    1    1    2    0    0 -0.15538853165E+03 -0.25825623319E+02  0.46251495253E+03  0.50433881459E+03  0.12500000000E+03 0.  0.
         25    1    1    2    0    0  0.95910870438E+02 -0.13800448428E+02  0.73207176875E+03  0.74896156246E+03  0.12500000000E+03 0.  0.
</event>
<event>
 5    0  0.5605075E-005  0.2568225E+03  0.7546771E-02  0.1109067E+00
         21   -1    0    0  502  501  0.00000000000E+00  0.00000000000E+00  0.13338030066E+04  0.13338030066E+04  0.00000000000E+00 0.  1.
         21   -1    0    0  501  502 -0.00000000000E+00 -0.00000000000E+00 -0.49450941865E+02  0.49450941865E+02  0.00000000000E+00 0.  1.
         25    1    1    2    0    0  0.17372960595E+02 -0.59650180789E+02  0.10347895883E+03  0.17376092411E+03  0.12500000000E+03 0.  0.
         25    1    1    2    0    0 -0.25610051056E+02  0.45064098477E+02  0.62943722641E+03  0.64381897275E+03  0.12500000000E+03 0.  0.
         25    1    1    2    0    0  0.82370904607E+01  0.14586082312E+02  0.55143587949E+03  0.56567405159E+03  0.12500000000E+03 0.  0.
</event>
<event>
 5    0  0.5605075E-005  0.2987481E+03  0.7546771E-02  0.1085868E+00
         21   -1    0    0  502  501  0.00000000000E+00  0.00000000000E+00  0.11714359988E+03  0.11714359988E+03  0.00000000000E+00 0.  1.
         21   -1    0    0  501  502 -0.00000000000E+00 -0.00000000000E+00 -0.76188923991E+03  0.76188923991E+03  0.00000000000E+00 0.  1.
         25    1    1    2    0    0 -0.10949985775E+02  0.35135378225E+02 -0.16628049403E+03  0.21125482169E+03  0.12500000000E+03 0.  0.
         25    1    1    2    0    0 -0.22359127537E+02  0.10462852589E+03 -0.44496517515E+03  0.47441128371E+03  0.12500000000E+03 0.  0.
         25    1    1    2    0    0  0.33309113313E+02 -0.13976390411E+03 -0.33499970852E+02  0.19336673439E+03  0.12500000000E+03 0.  0.
</event>
<event>
 5    0  0.5605075E-005  0.5601504E+03  0.7546771E-02  0.9991714E-01
         21   -1    0    0  502  501  0.00000000000E+00  0.00000000000E+00  0.30951131526E+03  0.30951131526E+03  0.00000000000E+00 0. -1.
         21   -1    0    0  501  502 -0.00000000000E+00 -0.00000000000E+00 -0.10137544028E+04  0.10137544028E+04  0.00000000000E+00 0. -1.
         25    1    1    2    0    0  0.10176036601E+03  0.54577068040E+02 -0.34476547428E+03  0.38447634609E+03  0.12500000000E+03 0.  0.
         25    1    1    2    0    0 -0.59260148566E+02  0.36056427824E+03 -0.20362695842E+02  0.38672729841E+03  0.12500000000E+03 0.  0.
         25    1    1    2    0    0 -0.42500217446E+02 -0.41514134628E+03 -0.33911491745E+03  0.55206207360E+03  0.12500000000E+03 0.  0.
</event>
<event>
 5    0  0.5605075E-005  0.2432181E+03  0.7546771E-02  0.1117667E+00
         21   -1    0    0  502  501  0.00000000000E+00  0.00000000000E+00  0.12206080232E+03  0.12206080232E+03  0.00000000000E+00 0.  1.
         21   -1    0    0  501  502 -0.00000000000E+00 -0.00000000000E+00 -0.48463578386E+03  0.48463578386E+03  0.00000000000E+00 0.  1.
         25    1    1    2    0    0 -0.68256152972E+01  0.73166080457E+02 -0.85808074676E+02  0.16848706192E+03  0.12500000000E+03 0.  0.
         25    1    1    2    0    0  0.74203276812E+02 -0.11966006220E+03 -0.17796486005E+03  0.25907749456E+03  0.12500000000E+03 0.  0.
         25    1    1    2    0    0 -0.67377661515E+02  0.46493981746E+02 -0.98802046814E+02  0.17913202970E+03  0.12500000000E+03 0.  0.
</event>
<event>
 5    0  0.5605075E-005  0.2956991E+03  0.7546771E-02  0.1087411E+00
         21   -1    0    0  502  501  0.00000000000E+00  0.00000000000E+00  0.15479276071E+03  0.15479276071E+03  0.00000000000E+00 0.  1.
         21   -1    0    0  501  502 -0.00000000000E+00 -0.00000000000E+00 -0.56487100177E+03  0.56487100177E+03  0.00000000000E+00 0.  1.
         25    1    1    2    0    0 -0.43512346798E+02 -0.36155759260E+01 -0.20513415435E+03  0.24415449616E+03  0.12500000000E+03 0.  0.
         25    1    1    2    0    0  0.13997045251E+03 -0.75075689979E+02  0.38602608727E+01  0.20215832512E+03  0.12500000000E+03 0.  0.
         25    1    1    2    0    0 -0.96458105716E+02  0.78691265905E+02 -0.20880434758E+03  0.27335094121E+03  0.12500000000E+03 0.  0.
</event>
<event>
 5    0  0.6109397E-005  0.6249422E+03  0.7546771E-02  0.9854969E-01
         21   -1    0    0  502  501  0.00000000000E+00  0.00000000000E+00  0.13442231923E+04  0.13442231923E+04  0.00000000000E+00 0. -1.
         21   -1    0    0  501  502 -0.00000000000E+00 -0.00000000000E+00 -0.29054160646E+03  0.29054160646E+03  0.00000000000E+00 0. -1.
         25    1    1    2    0    0  0.36043952840E+03  0.24602210819E+03  0.22811931713E+03  0.50804227599E+03  0.12500000000E+03 0.  0.
         25    1    1    2    0    0 -0.16559174094E+03 -0.33851783963E+03  0.18239025930E+03  0.43692809374E+03  0.12500000000E+03 0.  0.
         25    1    1    2    0    0 -0.19484778745E+03  0.92495731435E+02  0.64317200944E+03  0.68979442905E+03  0.12500000000E+03 0.  0.
</event>
<event>
 5    0  0.5605075E-005  0.3631776E+03  0.7546771E-02  0.1057333E+00
         21   -1    0    0  502  501  0.00000000000E+00  0.00000000000E+00  0.62331696970E+03  0.62331696970E+03  0.00000000000E+00 0. -1.
         21   -1    0    0  501  502 -0.00000000000E+00 -0.00000000000E+00 -0.21160656191E+03  0.21160656191E+03  0.00000000000E+00 0. -1.
         25    1    1    2    0    0 -0.10816672468E+03 -0.44957480769E+02  0.11859249417E+03  0.20835161406E+03  0.12500000000E+03 0.  0.
         25    1    1    2    0    0  0.26507918302E+03 -0.94147251893E+02  0.18866407740E+03  0.36103990418E+03  0.12500000000E+03 0.  0.
         25    1    1    2    0    0 -0.15691245834E+03  0.13910473266E+03  0.10445383621E+03  0.26553201338E+03  0.12500000000E+03 0.  0.
</event>
<event>
 5    0  0.5605075E-005  0.2892333E+03  0.7546771E-02  0.1090750E+00
         21   -1    0    0  502  501  0.00000000000E+00  0.00000000000E+00  0.88247133628E+03  0.88247133628E+03  0.00000000000E+00 0. -1.
         21   -1    0    0  501  502 -0.00000000000E+00 -0.00000000000E+00 -0.94797297543E+02  0.94797297543E+02  0.00000000000E+00 0. -1.
         25    1    1    2    0    0  0.60085501140E+01  0.29919159449E+02  0.61087982353E+03  0.62428392385E+03  0.12500000000E+03 0.  0.
         25    1    1    2    0    0 -0.86915676760E+02 -0.12471727589E+02  0.11323461739E+03  0.19014982890E+03  0.12500000000E+03 0.  0.
         25    1    1    2    0    0  0.80907126646E+02 -0.17447431860E+02  0.63559597818E+02  0.16283488108E+03  0.12500000000E+03 0.  0.
</event>
<event>
 5    0  0.5605075E-005  0.4504063E+03  0.7546771E-02  0.1027601E+00
         21   -1    0    0  502  501  0.00000000000E+00  0.00000000000E+00  0.11826521200E+04  0.11826521200E+04  0.00000000000E+00 0.  1.
         21   -1    0    0  501  502 -0.00000000000E+00 -0.00000000000E+00 -0.17153468667E+03  0.17153468667E+03  0.00000000000E+00 0.  1.
         25    1    1    2    0    0 -0.13049967244E+03  0.49459846533E+01 -0.22191377671E+02  0.18213205241E+03  0.12500000000E+03 0.  0.
         25    1    1    2    0    0  0.23755508088E+03 -0.15195328401E+03  0.42641403955E+03  0.52628523645E+03  0.12500000000E+03 0.  0.
         25    1    1    2    0    0 -0.10705540844E+03  0.14700729935E+03  0.60689477141E+03  0.64576951779E+03  0.12500000000E+03 0.  0.
</event>
<event>
 5    0  0.5605075E-005  0.2513633E+03  0.7546771E-02  0.1112446E+00
         21   -1    0    0  502  501  0.00000000000E+00  0.00000000000E+00  0.31652182469E+03  0.31652182469E+03  0.00000000000E+00 0. -1.
         21   -1    0    0  501  502 -0.00000000000E+00 -0.00000000000E+00 -0.19961823402E+03  0.19961823402E+03  0.00000000000E+00 0. -1.
         25    1    1    2    0    0 -0.12686246116E+02  0.92797539554E+02 -0.55260611081E+02  0.16568361212E+03  0.12500000000E+03 0.  0.
         25    1    1    2    0    0 -0.58990323628E+02 -0.14344513660E+02  0.58008876836E+02  0.15058437218E+03  0.12500000000E+03 0.  0.
         25    1    1    2    0    0  0.71676569744E+02 -0.78453025894E+02  0.11415532491E+03  0.19987207441E+03  0.12500000000E+03 0.  0.
</event>
<event>
 5    0  0.5605075E-005  0.3180342E+03  0.7546771E-02  0.1076558E+00
         21   -1    0    0  502  501  0.00000000000E+00  0.00000000000E+00  0.91168199976E+02  0.91168199976E+02  0.00000000000E+00 0.  1.
         21   -1    0    0  501  502 -0.00000000000E+00 -0.00000000000E+00 -0.11094410090E+04  0.11094410090E+04  0.00000000000E+00 0. -1.
         25    1    1    2    0    0 -0.15615972102E+03 -0.73752200471E+02 -0.50369848750E+03  0.54695741320E+03  0.12500000000E+03 0.  0.
         25    1    1    2    0    0  0.39133360102E+02  0.66839172368E+01 -0.43308452582E+03  0.45250779123E+03  0.12500000000E+03 0.  0.
         25    1    1    2    0    0  0.11702636092E+03  0.67068283235E+02 -0.81489795736E+02  0.20114400457E+03  0.12500000000E+03 0.  0.
</event>
<event>
 5    0  0.5605075E-005  0.2713775E+03  0.7546771E-02  0.1100494E+00
         21   -1    0    0  502  501  0.00000000000E+00  0.00000000000E+00  0.13825453584E+04  0.13825453584E+04  0.00000000000E+00 0.  1.
         21   -1    0    0  501  502 -0.00000000000E+00 -0.00000000000E+00 -0.53268237973E+02  0.53268237973E+02  0.00000000000E+00 0.  1.
         25    1    1    2    0    0  0.23985289872E+02  0.96504774443E+02  0.23998176904E+03  0.28827888423E+03  0.12500000000E+03 0.  0.
         25    1    1    2    0    0 -0.74601622741E+01 -0.10680407742E+03  0.25364859122E+03  0.30236628913E+03  0.12500000000E+03 0.  0.
         25    1    1    2    0    0 -0.16525127598E+02  0.10299302973E+02  0.83564676015E+03  0.84516842300E+03  0.12500000000E+03 0.  0.
</event>
<event>
 5    0  0.5605075E-005  0.2722343E+03  0.7546771E-02  0.1100008E+00
         21   -1    0    0  502  501  0.00000000000E+00  0.00000000000E+00  0.13708983867E+03  0.13708983867E+03  0.00000000000E+00 0. -1.
         21   -1    0    0  501  502 -0.00000000000E+00 -0.00000000000E+00 -0.54060537108E+03  0.54060537108E+03  0.00000000000E+00 0. -1.
         25    1    1    2    0    0 -0.13105068206E+02  0.10750573526E+03 -0.12019257854E+03  0.20445166143E+03  0.12500000000E+03 0.  0.
         25    1    1    2    0    0 -0.49663827577E+02  0.59423781528E+02 -0.53121793289E+02  0.15634771026E+03  0.12500000000E+03 0.  0.
         25    1    1    2    0    0  0.62768895783E+02 -0.16692951679E+03 -0.23020116058E+03  0.31689583807E+03  0.12500000000E+03 0.  0.
</event>
<event>
 5    0  0.5605075E-005  0.3688268E+03  0.7546771E-02  0.1055142E+00
         21   -1    0    0  502  501  0.00000000000E+00  0.00000000000E+00  0.34826485668E+03  0.34826485668E+03  0.00000000000E+00 0. -1.
         21   -1    0    0  501  502 -0.00000000000E+00 -0.00000000000E+00 -0.39060274395E+03  0.39060274395E+03  0.00000000000E+00 0. -1.
         25    1    1    2    0    0  0.82662643932E+02  0.21325379473E+03  0.13989429593E+03  0.29581363678E+03  0.12500000000E+03 0.  0.
         25    1    1    2    0    0 -0.62558562867E+02  0.67063387984E+01 -0.18820017731E+02  0.14120106882E+03  0.12500000000E+03 0.  0.
         25    1    1    2    0    0 -0.20104081065E+02 -0.21996013353E+03 -0.16341216547E+03  0.30185289504E+03  0.12500000000E+03 0.  0.
</event>
<event>
 5    0  0.5605075E-005  0.3611754E+03  0.7546771E-02  0.1058119E+00
         21   -1    0    0  502  501  0.00000000000E+00  0.00000000000E+00  0.22407387404E+03  0.22407387404E+03  0.00000000000E+00 0. -1.
         21   -1    0    0  501  502 -0.00000000000E+00 -0.00000000000E+00 -0.58216374880E+03  0.58216374880E+03  0.00000000000E+00 0. -1.
         25    1    1    2    0    0  0.40409692093E+02  0.13429897638E+03 -0.87679920988E+02  0.20732083064E+03  0.12500000000E+03 0.  0.
         25    1    1    2    0    0  0.70265767014E+02 -0.42320757284E+02 -0.35887539087E+03  0.38877354678E+03  0.12500000000E+03 0.  0.
         25    1    1    2    0    0 -0.11067545911E+03 -0.91978219095E+02  0.88465437089E+02  0.21014324542E+03  0.12500000000E+03 0.  0.
</event>
<event>
 5    0  0.5605075E-005  0.2303870E+03  0.7546771E-02  0.1126368E+00
         21   -1    0    0  502  501  0.00000000000E+00  0.00000000000E+00  0.55645681805E+03  0.55645681805E+03  0.00000000000E+00 0.  1.
         21   -1    0    0  501  502 -0.00000000000E+00 -0.00000000000E+00 -0.95385952418E+02  0.95385952418E+02  0.00000000000E+00 0.  1.
         25    1    1    2    0    0 -0.20329911422E+02  0.24206170669E+02  0.12261959021E+03  0.17793203169E+03  0.12500000000E+03 0.  0.
         25    1    1    2    0    0 -0.13427112162E+02  0.36746973724E+02  0.30723605074E+02  0.13453463245E+03  0.12500000000E+03 0.  0.
         25    1    1    2    0    0  0.33757023584E+02 -0.60953144393E+02  0.30772767035E+03  0.33937610633E+03  0.12500000000E+03 0.  0.
</event>
<event>
 5    0  0.5709284E-005  0.2720315E+03  0.7546771E-02  0.1100123E+00
         21   -1    0    0  502  501  0.00000000000E+00  0.00000000000E+00  0.42496591759E+02  0.42496591759E+02  0.00000000000E+00 0.  1.
         21   -1    0    0  501  502 -0.00000000000E+00 -0.00000000000E+00 -0.17413433320E+04  0.17413433320E+04  0.00000000000E+00 0.  1.
         25    1    1    2    0    0 -0.13909752571E+03 -0.95524174268E+02 -0.73214820889E+03  0.76166855608E+03  0.12500000000E+03 0.  0.
         25    1    1    2    0    0  0.73176344381E+02  0.55784854155E+02 -0.28181382663E+03  0.32173088165E+03  0.12500000000E+03 0.  0.
         25    1    1    2    0    0  0.65921181330E+02  0.39739320113E+02 -0.68488470471E+03  0.70044048602E+03  0.12500000000E+03 0.  0.
</event>
<event>
 5    0  0.5605075E-005  0.9712012E+03  0.7546771E-02  0.9340707E-01
         21   -1    0    0  502  501  0.00000000000E+00  0.00000000000E+00  0.76630969965E+03  0.76630969965E+03  0.00000000000E+00 0.  1.
         21   -1    0    0  501  502 -0.00000000000E+00 -0.00000000000E+00 -0.12308754557E+04  0.12308754557E+04  0.00000000000E+00 0.  1.
         25    1    1    2    0    0  0.66667612626E+03  0.16984269000E+03 -0.79819233755E+02  0.70377532406E+03  0.12500000000E+03 0.  0.
         25    1    1    2    0    0 -0.71886424857E+03 -0.34526101542E+02 -0.64215739338E+03  0.97259908361E+03  0.12500000000E+03 0.  0.
         25    1    1    2    0    0  0.52188122313E+02 -0.13531658846E+03  0.25741087113E+03  0.32081074764E+03  0.12500000000E+03 0.  0.
</event>
<event>
 5    0  0.5605075E-005  0.2473079E+03  0.7546771E-02  0.1115018E+00
         21   -1    0    0  502  501  0.00000000000E+00  0.00000000000E+00  0.20946193075E+03  0.20946193075E+03  0.00000000000E+00 0. -1.
         21   -1    0    0  501  502 -0.00000000000E+00 -0.00000000000E+00 -0.29199186550E+03  0.29199186550E+03  0.00000000000E+00 0. -1.
         25    1    1    2    0    0  0.32230647246E+02  0.44923140992E+02 -0.24879708345E+02  0.13892769021E+03  0.12500000000E+03 0.  0.
         25    1    1    2    0    0 -0.23380059848E+02 -0.14582207927E+03 -0.56767252186E+02  0.20163885271E+03  0.12500000000E+03 0.  0.
         25    1    1    2    0    0 -0.88505873977E+01  0.10089893828E+03 -0.88297422194E+00  0.16088725334E+03  0.12500000000E+03 0.  0.
</event>
<event>
 5    0  0.5605075E-005  0.2385831E+03  0.7546771E-02  0.1120740E+00
         21   -1    0    0  502  501  0.00000000000E+00  0.00000000000E+00  0.27211464790E+03  0.27211464790E+03  0.00000000000E+00 0. -1.
         21   -1    0    0  501  502 -0.00000000000E+00 -0.00000000000E+00 -0.20918353492E+03  0.20918353492E+03  0.00000000000E+00 0. -1.
         25    1    1    2    0    0  0.61298571079E+02 -0.54312895104E+02  0.35836763867E+02  0.15367719101E+03  0.12500000000E+03 0.  0.
         25    1    1    2    0    0 -0.58025437154E+01  0.11629534805E+03 -0.15522812353E+02  0.17153493870E+03  0.12500000000E+03 0.  0.
         25    1    1    2    0    0 -0.55496027364E+02 -0.61982452943E+02  0.42617161464E+02  0.15608605312E+03  0.12500000000E+03 0.  0.
</event>
<event>
 5    0  0.5605075E-005  0.3388297E+03  0.7546771E-02  0.1067295E+00
         21   -1    0    0  502  501  0.00000000000E+00  0.00000000000E+00  0.26783989144E+03  0.26783989144E+03  0.00000000000E+00 0. -1.
         21   -1    0    0  501  502 -0.00000000000E+00 -0.00000000000E+00 -0.42863517640E+03  0.42863517640E+03  0.00000000000E+00 0. -1.
         25    1    1    2    0    0 -0.34724838203E+02 -0.25321915822E+02 -0.22921819949E+03  0.26459969158E+03  0.12500000000E+03 0.  0.
         25    1    1    2    0    0  0.16096372800E+03  0.10628951953E+03  0.19973562480E+02  0.23071785127E+03  0.12500000000E+03 0.  0.
         25    1    1    2    0    0 -0.12623888980E+03 -0.80967603710E+02  0.48449352043E+02  0.20115752499E+03  0.12500000000E+03 0.  0.
</event>
<event>
 5    0  0.5605075E-005  0.3797282E+03  0.7546771E-02  0.1051034E+00
         21   -1    0    0  502  501  0.00000000000E+00  0.00000000000E+00  0.10411496560E+03  0.10411496560E+03  0.00000000000E+00 0. -1.
         21   -1    0    0  501  502 -0.00000000000E+00 -0.00000000000E+00 -0.13849453548E+04  0.13849453548E+04  0.00000000000E+00 0. -1.
         25    1    1    2    0    0 -0.18958426233E+03 -0.99914279923E+02 -0.18153134694E+03  0.30741451784E+03  0.12500000000E+03 0.  0.
         25    1    1    2    0    0  0.91272021453E+02  0.15358301202E+03 -0.33920331542E+03  0.40323964670E+03  0.12500000000E+03 0.  0.
         25    1    1    2    0    0  0.98312240876E+02 -0.53668732096E+02 -0.76009572684E+03  0.77840615585E+03  0.12500000000E+03 0.  0.
</event>
<event>
 5    0  0.6644771E-005  0.2967684E+03  0.7546771E-02  0.1086867E+00
         21   -1    0    0  502  501  0.00000000000E+00  0.00000000000E+00  0.58463578038E+03  0.58463578038E+03  0.00000000000E+00 0. -1.
         21   -1    0    0  501  502 -0.00000000000E+00 -0.00000000000E+00 -0.15064335169E+03  0.15064335169E+03  0.00000000000E+00 0. -1.
         25    1    1    2    0    0 -0.12184631353E+03 -0.41496794356E+02  0.24193876387E+03  0.30121067963E+03  0.12500000000E+03 0.  0.
         25    1    1    2    0    0  0.46117932344E+02  0.83269521180E+02  0.22892773009E+03  0.27765731117E+03  0.12500000000E+03 0.  0.
         25    1    1    2    0    0  0.75728381182E+02 -0.41772726824E+02 -0.36874065275E+02  0.15641114127E+03  0.12500000000E+03 0.  0.
</event>
<event>
 5    0  0.5605075E-005  0.3152246E+03  0.7546771E-02  0.1077868E+00
         21   -1    0    0  502  501  0.00000000000E+00  0.00000000000E+00  0.97993907481E+02  0.97993907481E+02  0.00000000000E+00 0. -1.
         21   -1    0    0  501  502 -0.00000000000E+00 -0.00000000000E+00 -0.10140070949E+04  0.10140070949E+04  0.00000000000E+00 0. -1.
         25    1    1    2    0    0  0.14514076411E+03  0.10651916448E+03 -0.19360284903E+03  0.29243672300E+03  0.12500000000E+03 0.  0.
         25    1    1    2    0    0 -0.17978942320E+03 -0.56421093482E+02 -0.30554305160E+03  0.38011726199E+03  0.12500000000E+03 0.  0.
         25    1    1    2    0    0  0.34648659085E+02 -0.50098070995E+02 -0.41686728676E+03  0.43944701736E+03  0.12500000000E+03 0.  0.
</event>
<event>
 5    0  0.5605075E-005  0.3128475E+03  0.7546771E-02  0.1078989E+00
         21   -1    0    0  502  501  0.00000000000E+00  0.00000000000E+00  0.16584173854E+03  0.16584173854E+03  0.00000000000E+00 0.  1.
         21   -1    0    0  501  502 -0.00000000000E+00 -0.00000000000E+00 -0.59016227149E+03  0.59016227149E+03  0.00000000000E+00 0.  1.
         25    1    1    2    0    0 -0.89742097979E+02 -0.89010458956E+02 -0.27698566030E+03  0.32912393102E+03  0.12500000000E+03 0.  0.
         25    1    1    2    0    0  0.72428746293E+02 -0.88608558650E+02 -0.10947785161E+02  0.16983007377E+03  0.12500000000E+03 0.  0.
         25    1    1    2    0    0  0.17313351686E+02  0.17761901761E+03 -0.13638708749E+03  0.25705000524E+03  0.12500000000E+03 0.  0.
</event>
<event>
 5    0  0.5605075E-005  0.3022238E+03  0.7546771E-02  0.1084134E+00
         21   -1    0    0  502  501  0.00000000000E+00  0.00000000000E+00  0.15205577124E+04  0.15205577124E+04  0.00000000000E+00 0.  1.
         21   -1    0    0  501  502 -0.00000000000E+00 -0.00000000000E+00 -0.60069568226E+02  0.60069568226E+02  0.00000000000E+00 0.  1.
         25    1    1    2    0    0 -0.79741199106E+02 -0.38415666396E+02  0.12923058838E+03  0.20039951904E+03  0.12500000000E+03 0.  0.
         25    1    1    2    0    0  0.68896691583E+02 -0.98781301805E+02  0.75607198818E+03  0.77574116237E+03  0.12500000000E+03 0.  0.
         25    1    1    2    0    0  0.10844507523E+02  0.13719696820E+03  0.57518556765E+03  0.60448659924E+03  0.12500000000E+03 0.  0.
</event>
<event>
 5    0  0.5605075E-005  0.7367257E+03  0.7546771E-02  0.9656409E-01
         21   -1    0    0  502  501  0.00000000000E+00  0.00000000000E+00  0.14353807992E+04  0.14353807992E+04  0.00000000000E+00 0.  1.
         21   -1    0    0  501  502 -0.00000000000E+00 -0.00000000000E+00 -0.37813294366E+03  0.37813294366E+03  0.00000000000E+00 0.  1.
         25    1    1    2    0    0 -0.15947203656E+03  0.83260049366E+02  0.39250148420E+03  0.44949525177E+03  0.12500000000E+03 0.  0.
         25    1    1    2    0    0 -0.49382666139E+03  0.47714058160E+02  0.32015071887E+03  0.60354195019E+03  0.12500000000E+03 0.  0.
         25    1    1    2    0    0  0.65329869794E+03 -0.13097410753E+03  0.34459565250E+03  0.76047654093E+03  0.12500000000E+03 0.  0.
</event>
<event>
 5    0  0.5605075E-005  0.3656422E+03  0.7546771E-02  0.1056372E+00
         21   -1    0    0  502  501  0.00000000000E+00  0.00000000000E+00  0.10371788985E+03  0.10371788985E+03  0.00000000000E+00 0.  1.
         21   -1    0    0  501  502 -0.00000000000E+00 -0.00000000000E+00 -0.12890180433E+04  0.12890180433E+04  0.00000000000E+00 0.  1.
         25    1    1    2    0    0  0.26600852008E+03 -0.56235628885E+02 -0.47685378918E+03  0.56297203747E+03  0.12500000000E+03 0.  0.
         25    1    1    2    0    0 -0.25344145222E+03  0.69159664928E+02 -0.58402669100E+03  0.65247820252E+03  0.12500000000E+03 0.  0.
         25    1    1    2    0    0 -0.12567067864E+02 -0.12924036044E+02 -0.12441967327E+03  0.17728569316E+03  0.12500000000E+03 0.  0.
</event>
<event>
 5    0  0.6011633E-005  0.3037282E+03  0.7546771E-02  0.1083392E+00
         21   -1    0    0  502  501  0.00000000000E+00  0.00000000000E+00  0.52703439235E+03  0.52703439235E+03  0.00000000000E+00 0. -1.
         21   -1    0    0  501  502 -0.00000000000E+00 -0.00000000000E+00 -0.17503753432E+03  0.17503753432E+03  0.00000000000E+00 0. -1.
         25    1    1    2    0    0 -0.15368965593E+02  0.36788148934E+02  0.24034063331E+03  0.27382146195E+03  0.12500000000E+03 0.  0.
         25    1    1    2    0    0  0.84194466012E+02 -0.15529588993E+03  0.10999626205E+03  0.24275440099E+03  0.12500000000E+03 0.  0.
         25    1    1    2    0    0 -0.68825500419E+02  0.11850774099E+03  0.16599626790E+01  0.18549606373E+03  0.12500000000E+03 0.  0.
</event>
<event>
 5    0  0.5605075E-005  0.6605234E+03  0.7546771E-02  0.9787231E-01
         21   -1    0    0  502  501  0.00000000000E+00  0.00000000000E+00  0.25578724375E+03  0.25578724375E+03  0.00000000000E+00 0.  1.
         21   -1    0    0  501  502 -0.00000000000E+00 -0.00000000000E+00 -0.17056796925E+04  0.17056796925E+04  0.00000000000E+00 0.  1.
         25    1    1    2    0    0 -0.21219487494E+03  0.71166434294E+02 -0.21692687619E+03  0.33581780169E+03  0.12500000000E+03 0.  0.
         25    1    1    2    0    0 -0.19637299123E+03 -0.34086468178E+03 -0.16562235606E+03  0.44475481762E+03  0.12500000000E+03 0.  0.
         25    1    1    2    0    0  0.40856786617E+03  0.26969824748E+03 -0.10673432165E+04  0.11808943169E+04  0.12500000000E+03 0.  0.
</event>
<event>
 5    0  0.5605075E-005  0.4952073E+03  0.7546771E-02  0.1015037E+00
         21   -1    0    0  502  501  0.00000000000E+00  0.00000000000E+00  0.63381892332E+03  0.63381892332E+03  0.00000000000E+00 0.  1.
         21   -1    0    0  501  502 -0.00000000000E+00 -0.00000000000E+00 -0.38690910014E+03  0.38690910014E+03  0.00000000000E+00 0. -1.
         25    1    1    2    0    0  0.11540640101E+02  0.24842533640E+02  0.20992795993E+02  0.12967665686E+03  0.12500000000E+03 0.  0.
         25    1    1    2    0    0  0.38483870864E+03  0.22506641933E+02  0.24275796531E+03  0.47240217010E+03  0.12500000000E+03 0.  0.
         25    1    1    2    0    0 -0.39637934874E+03 -0.47349175573E+02 -0.16840938121E+02  0.41864919650E+03  0.12500000000E+03 0.  0.
</event>
<event>
 5    0  0.5605075E-005  0.4956675E+03  0.7546771E-02  0.1014916E+00
         21   -1    0    0  502  501  0.00000000000E+00  0.00000000000E+00  0.49318743640E+03  0.49318743640E+03  0.00000000000E+00 0. -1.
         21   -1    0    0  501  502 -0.00000000000E+00 -0.00000000000E+00 -0.49815994070E+03  0.49815994070E+03  0.00000000000E+00 0. -1.
         25    1    1    2    0    0 -0.13210952357E+03  0.83804172259E+02 -0.12746243418E+02  0.20065774898E+03  0.12500000000E+03 0.  0.
         25    1    1    2    0    0  0.14713715611E+03  0.27310783243E+03  0.17436480853E+03  0.37718074884E+03  0.12500000000E+03 0.  0.
         25    1    1    2    0    0 -0.15027632536E+02 -0.35691200469E+03 -0.16659106941E+03  0.41350887927E+03  0.12500000000E+03 0.  0.
</event>
<event>
 5    0  0.5605075E-005  0.4441638E+03  0.7546771E-02  0.1029477E+00
         21   -1    0    0  502  501  0.00000000000E+00  0.00000000000E+00  0.39154671741E+03  0.39154671741E+03  0.00000000000E+00 0.  1.
         21   -1    0    0  501  502 -0.00000000000E+00 -0.00000000000E+00 -0.50385163859E+03  0.50385163859E+03  0.00000000000E+00 0.  1.
         25    1    1    2    0    0 -0.24572918433E+03 -0.80300211220E+02 -0.11920676207E+03  0.31091189761E+03  0.12500000000E+03 0.  0.
         25    1    1    2    0    0 -0.88446643940E+02 -0.96209907629E+02  0.39446616506E+02  0.18509508557E+03  0.12500000000E+03 0.  0.
         25    1    1    2    0    0  0.33417582827E+03  0.17651011885E+03 -0.32544775620E+02  0.39939137281E+03  0.12500000000E+03 0.  0.
</event>
<event>
 5    0  0.5605075E-005  0.2558941E+03  0.7546771E-02  0.1109636E+00
         21   -1    0    0  502  501  0.00000000000E+00  0.00000000000E+00  0.21859494398E+03  0.21859494398E+03  0.00000000000E+00 0. -1.
         21   -1    0    0  501  502 -0.00000000000E+00 -0.00000000000E+00 -0.29955763146E+03  0.29955763146E+03  0.00000000000E+00 0. -1.
         25    1    1    2    0    0  0.77010193097E+02  0.78351611646E+02 -0.10853287854E+03  0.19868047366E+03  0.12500000000E+03 0.  0.
         25    1    1    2    0    0 -0.88822371286E+02 -0.10866098220E+03  0.29806225808E+02  0.19028934230E+03  0.12500000000E+03 0.  0.
         25    1    1    2    0    0  0.11812178188E+02  0.30309370557E+02 -0.22360347376E+01  0.12918275949E+03  0.12500000000E+03 0.  0.
</event>
<event>
 5    0  0.5605075E-005  0.2673071E+03  0.7546771E-02  0.1102831E+00
         21   -1    0    0  502  501  0.00000000000E+00  0.00000000000E+00  0.80641810338E+02  0.80641810338E+02  0.00000000000E+00 0. -1.
         21   -1    0    0  501  502 -0.00000000000E+00 -0.00000000000E+00 -0.88605537507E+03  0.88605537507E+03  0.00000000000E+00 0. -1.
         25    1    1    2    0    0  0.93443195524E+02  0.85615320572E+02 -0.47790808152E+03  0.50998308628E+03  0.12500000000E+03 0.  0.
         25    1    1    2    0    0  0.10378450740E+02 -0.73101926885E+02 -0.97722383577E+02  0.17500362341E+03  0.12500000000E+03 0.  0.
         25    1    1    2    0    0 -0.10382164626E+03 -0.12513393687E+02 -0.22978309964E+03  0.28171047573E+03  0.12500000000E+03 0.  0.
</event>
<event>
 5    0  0.5605075E-005  0.2461638E+03  0.7546771E-02  0.1115753E+00
         21   -1    0    0  502  501  0.00000000000E+00  0.00000000000E+00  0.47046234463E+03  0.47046234463E+03  0.00000000000E+00 0.  1.
         21   -1    0    0  501  502 -0.00000000000E+00 -0.00000000000E+00 -0.12880229127E+03  0.12880229127E+03  0.00000000000E+00 0.  1.
         25    1    1    2    0    0 -0.11853541411E+03 -0.39648579006E+02  0.17026502494E+03  0.24543396858E+03  0.12500000000E+03 0.  0.
         25    1    1    2    0    0  0.35097718734E+02 -0.85885412389E+01  0.14320976323E+03  0.19349327943E+03  0.12500000000E+03 0.  0.
         25    1    1    2    0    0  0.83437695380E+02  0.48237120245E+02  0.28185265193E+02  0.16033738789E+03  0.12500000000E+03 0.  0.
</event>
<event>
 5    0  0.5605075E-005  0.3636342E+03  0.7546771E-02  0.1057154E+00
         21   -1    0    0  502  501  0.00000000000E+00  0.00000000000E+00  0.11553262693E+03  0.11553262693E+03  0.00000000000E+00 0.  1.
         21   -1    0    0  501  502 -0.00000000000E+00 -0.00000000000E+00 -0.11445239322E+04  0.11445239322E+04  0.00000000000E+00 0.  1.
         25    1    1    2    0    0 -0.85897182321E+01  0.39696949763E+02 -0.14041505750E+03  0.19233049538E+03  0.12500000000E+03 0.  0.
         25    1    1    2    0    0  0.54836004709E+02  0.10060951018E+03 -0.85458293938E+03  0.87124408820E+03  0.12500000000E+03 0.  0.
         25    1    1    2    0    0 -0.46246286477E+02 -0.14030645995E+03 -0.33993308437E+02  0.19648197560E+03  0.12500000000E+03 0.  0.
</event>
<event>
 5    0  0.5605075E-005  0.2596430E+03  0.7546771E-02  0.1107358E+00
         21   -1    0    0  502  501  0.00000000000E+00  0.00000000000E+00  0.16581955986E+03  0.16581955986E+03  0.00000000000E+00 0.  1.
         21   -1    0    0  501  502 -0.00000000000E+00 -0.00000000000E+00 -0.40655341177E+03  0.40655341177E+03  0.00000000000E+00 0.  1.
         25    1    1    2    0    0  0.41692412588E+02 -0.26043033817E+00 -0.16096130413E+01  0.13177980098E+03  0.12500000000E+03 0.  0.
         25    1    1    2    0    0 -0.15382811575E+03 -0.18784746556E+02 -0.10670706611E+03  0.22589235015E+03  0.12500000000E+03 0.  0.
         25    1    1    2    0    0  0.11213570316E+03  0.19045176895E+02 -0.13241717276E+03  0.21470082051E+03  0.12500000000E+03 0.  0.
</event>
<event>
 5    0  0.5605075E-005  0.2226053E+03  0.7546771E-02  0.1131956E+00
         21   -1    0    0  502  501  0.00000000000E+00  0.00000000000E+00  0.30309335465E+03  0.30309335465E+03  0.00000000000E+00 0. -1.
         21   -1    0    0  501  502 -0.00000000000E+00 -0.00000000000E+00 -0.16349120486E+03  0.16349120486E+03  0.00000000000E+00 0. -1.
         25    1    1    2    0    0  0.50946047574E+02 -0.12684783991E+02  0.45879002402E+02  0.14313031255E+03  0.12500000000E+03 0.  0.
         25    1    1    2    0    0 -0.19243222562E+02  0.92515181583E+02  0.33321999064E+02  0.16020211003E+03  0.12500000000E+03 0.  0.
         25    1    1    2    0    0 -0.31702825012E+02 -0.79830397592E+02  0.60401148317E+02  0.16325213693E+03  0.12500000000E+03 0.  0.
</event>
<event>
 5    0  0.5605075E-005  0.2878871E+03  0.7546771E-02  0.1091457E+00
         21   -1    0    0  502  501  0.00000000000E+00  0.00000000000E+00  0.81412144380E+03  0.81412144380E+03  0.00000000000E+00 0. -1.
         21   -1    0    0  501  502 -0.00000000000E+00 -0.00000000000E+00 -0.10180174378E+03  0.10180174378E+03  0.00000000000E+00 0. -1.
         25    1    1    2    0    0  0.63753423815E+01  0.40784606137E+02  0.11205157124E+03  0.17287158155E+03  0.12500000000E+03 0.  0.
         25    1    1    2    0    0 -0.19207586235E+02  0.10586444873E+03  0.70835189285E+02  0.17949606379E+03  0.12500000000E+03 0.  0.
         25    1    1    2    0    0  0.12832243854E+02 -0.14664905487E+03  0.52943293949E+03  0.56355554224E+03  0.12500000000E+03 0.  0.
</event>
<event>
 5    0  0.5605075E-005  0.4844258E+03  0.7546771E-02  0.1017926E+00
         21   -1    0    0  502  501  0.00000000000E+00  0.00000000000E+00  0.28208913705E+03  0.28208913705E+03  0.00000000000E+00 0.  1.
         21   -1    0    0  501  502 -0.00000000000E+00 -0.00000000000E+00 -0.83189443933E+03  0.83189443933E+03  0.00000000000E+00 0.  1.
         25    1    1    2    0    0 -0.17922022328E+03  0.36304201131E+03 -0.17474287291E+03  0.45834426149E+03  0.12500000000E+03 0.  0.
         25    1    1    2    0    0  0.79589561787E+00 -0.35277742610E+02 -0.32536654401E+02  0.13389841841E+03  0.12500000000E+03 0.  0.
         25    1    1    2    0    0  0.17842432766E+03 -0.32776426870E+03 -0.34252577497E+03  0.52174089648E+03  0.12500000000E+03 0.  0.
</event>
<event>
 5    0  0.5605075E-005  0.4202674E+03  0.7546771E-02  0.1036979E+00
         21   -1    0    0  502  501  0.00000000000E+00  0.00000000000E+00  0.27806487410E+03  0.27806487410E+03  0.00000000000E+00 0.  1.
         21   -1    0    0  501  502 -0.00000000000E+00 -0.00000000000E+00 -0.63519249681E+03  0.63519249681E+03  0.00000000000E+00 0.  1.
         25    1    1    2    0    0 -0.11613521470E+03  0.10055599784E+03  0.15942704441E+02  0.19869088207E+03  0.12500000000E+03 0.  0.
         25    1    1    2    0    0 -0.66684214172E+02 -0.26886567632E+03 -0.88284618382E+02  0.31647228973E+03  0.12500000000E+03 0.  0.
         25    1    1    2    0    0  0.18281942887E+03  0.16830967848E+03 -0.28478570877E+03  0.39809419910E+03  0.12500000000E+03 0.  0.
</event>
<event>
 5    0  0.5605075E-005  0.3083500E+03  0.7546771E-02  0.1081139E+00
         21   -1    0    0  502  501  0.00000000000E+00  0.00000000000E+00  0.11411974268E+04  0.11411974268E+04  0.00000000000E+00 0. -1.
         21   -1    0    0  501  502 -0.00000000000E+00 -0.00000000000E+00 -0.83315777640E+02  0.83315777640E+02  0.00000000000E+00 0. -1.
         25    1    1    2    0    0  0.81520610051E+02 -0.12733591019E+03  0.14042401406E+03  0.24125494319E+03  0.12500000000E+03 0.  0.
         25    1    1    2    0    0  0.32335442526E+02  0.55173052542E+02  0.60186776407E+03  0.61802868218E+03  0.12500000000E+03 0.  0.
         25    1    1    2    0    0 -0.11385605258E+03  0.72162857652E+02  0.31558987103E+03  0.36522957907E+03  0.12500000000E+03 0.  0.
</event>
<event>
 5    0  0.5605075E-005  0.2111575E+03  0.7546771E-02  0.1140653E+00
         21   -1    0    0  502  501  0.00000000000E+00  0.00000000000E+00  0.18577365449E+04  0.18577365449E+04  0.00000000000E+00 0. -1.
         21   -1    0    0  501  502 -0.00000000000E+00 -0.00000000000E+00 -0.24000968795E+02  0.24000968795E+02  0.00000000000E+00 0. -1.
         25    1    1    2    0    0  0.88940467258E+01 -0.53431775231E+02  0.76550271448E+03  0.77753036246E+03  0.12500000000E+03 0.  0.
         25    1    1    2    0    0  0.18459906837E+02 -0.21434232407E+02  0.41378883362E+03  0.43318170934E+03  0.12500000000E+03 0.  0.
         25    1    1    2    0    0 -0.27353953563E+02  0.74866007638E+02  0.65444402797E+03  0.67102544185E+03  0.12500000000E+03 0.  0.
</event>
<event>
 5    0  0.5605075E-005  0.3226652E+03  0.7546771E-02  0.1074429E+00
         21   -1    0    0  502  501  0.00000000000E+00  0.00000000000E+00  0.57275017221E+03  0.57275017221E+03  0.00000000000E+00 0. -1.
         21   -1    0    0  501  502 -0.00000000000E+00 -0.00000000000E+00 -0.18177703752E+03  0.18177703752E+03  0.00000000000E+00 0. -1.
         25    1    1    2    0    0 -0.14066960541E+03 -0.12511573604E+02  0.79758337767E+02  0.20477028545E+03  0.12500000000E+03 0.  0.
         25    1    1    2    0    0  0.15550267663E+03  0.15655269801E+03  0.22845077779E+03  0.34132768356E+03  0.12500000000E+03 0.  0.
         25    1    1    2    0    0 -0.14833071211E+02 -0.14404112441E+03  0.82764019132E+02  0.20842924072E+03  0.12500000000E+03 0.  0.
</event>
<event>
 5    0  0.5605075E-005  0.3218307E+03  0.7546771E-02  0.1074810E+00
         21   -1    0    0  502  501  0.00000000000E+00  0.00000000000E+00  0.86134163735E+03  0.86134163735E+03  0.00000000000E+00 0.  1.
         21   -1    0    0  501  502 -0.00000000000E+00 -0.00000000000E+00 -0.12024845133E+03  0.12024845133E+03  0.00000000000E+00 0.  1.
         25    1    1    2    0    0  0.13974037974E+02  0.76745517263E+02  0.45828370600E+03  0.48138768507E+03  0.12500000000E+03 0.  0.
         25    1    1    2    0    0 -0.11488920575E+03  0.18837523109E+02  0.12135258826E+02  0.17125024491E+03  0.12500000000E+03 0.  0.
         25    1    1    2    0    0  0.10091516777E+03 -0.95583040372E+02  0.27067422119E+03  0.32895215870E+03  0.12500000000E+03 0.  0.
</event>
<event>
 5    0  0.5605075E-005  0.2452873E+03  0.7546771E-02  0.1116320E+00
         21   -1    0    0  502  501  0.00000000000E+00  0.00000000000E+00  0.82157647852E+03  0.82157647852E+03  0.00000000000E+00 0. -1.
         21   -1    0    0  501  502 -0.00000000000E+00 -0.00000000000E+00 -0.73232221028E+02  0.73232221028E+02  0.00000000000E+00 0. -1.
         25    1    1    2    0    0  0.18451275257E+02  0.48041875225E+01  0.36598744104E+03  0.38721484575E+03  0.12500000000E+03 0.  0.
         25    1    1    2    0    0 -0.10427081331E+03  0.53531848151E+02  0.19273699240E+03  0.25789650931E+03  0.12500000000E+03 0.  0.
         25    1    1    2    0    0  0.85819538049E+02 -0.58336035673E+02  0.18961982405E+03  0.24969734449E+03  0.12500000000E+03 0.  0.
</event>
<event>
 5    0  0.5605075E-005  0.3230895E+03  0.7546771E-02  0.1074236E+00
         21   -1    0    0  502  501  0.00000000000E+00  0.00000000000E+00  0.11771242229E+03  0.11771242229E+03  0.00000000000E+00 0.  1.
         21   -1    0    0  501  502 -0.00000000000E+00 -0.00000000000E+00 -0.88679508529E+03  0.88679508529E+03  0.00000000000E+00 0.  1.
         25    1    1    2    0    0 -0.75146150305E+02 -0.71184144797E+02 -0.67203374937E+03  0.69135265001E+03  0.12500000000E+03 0.  0.
         25    1    1    2    0    0  0.73568891042E+02  0.37922713755E+02  0.24782579481E+01  0.14993883990E+03  0.12500000000E+03 0.  0.
         25    1    1    2    0    0  0.15772592636E+01  0.33261431043E+02 -0.99527171582E+02  0.16321601767E+03  0.12500000000E+03 0.  0.
</event>
<event>
 5    0  0.5605075E-005  0.2954444E+03  0.7546771E-02  0.1087540E+00
         21   -1    0    0  502  501  0.00000000000E+00  0.00000000000E+00  0.22586216674E+04  0.22586216674E+04  0.00000000000E+00 0.  1.
         21   -1    0    0  501  502 -0.00000000000E+00 -0.00000000000E+00 -0.38646321133E+02  0.38646321133E+02  0.00000000000E+00 0.  1.
         25    1    1    2    0    0 -0.11018965392E+02  0.84011233535E+02  0.94973224090E+03  0.96166295258E+03  0.12500000000E+03 0.  0.
         25    1    1    2    0    0  0.57040604488E+02  0.10795239341E+03  0.64073923578E+03  0.66413787580E+03  0.12500000000E+03 0.  0.
         25    1    1    2    0    0 -0.46021639095E+02 -0.19196362695E+03  0.62950386955E+03  0.67146716012E+03  0.12500000000E+03 0.  0.
</event>
<event>
 5    0  0.5605075E-005  0.3156440E+03  0.7546771E-02  0.1077672E+00
         21   -1    0    0  502  501  0.00000000000E+00  0.00000000000E+00  0.35208883945E+03  0.35208883945E+03  0.00000000000E+00 0.  1.
         21   -1    0    0  501  502 -0.00000000000E+00 -0.00000000000E+00 -0.28297158331E+03  0.28297158331E+03  0.00000000000E+00 0.  1.
         25    1    1    2    0    0  0.14157194276E+03 -0.60373952099E+02  0.12292956514E+03  0.23329017779E+03  0.12500000000E+03 0.  0.
         25    1    1    2    0    0 -0.84114202754E+02  0.68847536012E+02 -0.15805386182E+03  0.22895677661E+03  0.12500000000E+03 0.  0.
         25    1    1    2    0    0 -0.57457740007E+02 -0.84735839131E+01  0.10424155282E+03  0.17281346836E+03  0.12500000000E+03 0.  0.
</event>
<event>
 5    0  0.5605075E-005  0.6151408E+03  0.7546771E-02  0.9874482E-01
         21   -1    0    0  502  501  0.00000000000E+00  0.00000000000E+00  0.27867073642E+03  0.27867073642E+03  0.00000000000E+00 0.  1.
         21   -1    0    0  501  502 -0.00000000000E+00 -0.00000000000E+00 -0.13578683279E+04  0.13578683279E+04  0.00000000000E+00 0.  1.
         25    1    1    2    0    0 -0.71739776809E+02  0.16528775629E+03 -0.43130143617E+02  0.22349909898E+03  0.12500000000E+03 0.  0.
         25    1    1    2    0    0  0.18131325318E+03 -0.10028267187E+01  0.10804267624E+03  0.24530332515E+03  0.12500000000E+03 0.  0.
         25    1    1    2    0    0 -0.10957347637E+03 -0.16428492957E+03 -0.11441101241E+04  0.11677366402E+04  0.12500000000E+03 0.  0.
</event>
<event>
 5    0  0.5605075E-005  0.3098890E+03  0.7546771E-02  0.1080399E+00
         21   -1    0    0  502  501  0.00000000000E+00  0.00000000000E+00  0.16884825980E+04  0.16884825980E+04  0.00000000000E+00 0. -1.
         21   -1    0    0  501  502 -0.00000000000E+00 -0.00000000000E+00 -0.56874243719E+02  0.56874243719E+02  0.00000000000E+00 0. -1.
         25    1    1    2    0    0 -0.16065100250E+03 -0.12034712418E+03  0.35219912141E+03  0.42421857105E+03  0.12500000000E+03 0.  0.
         25    1    1    2    0    0  0.91339689997E+02  0.95253412805E+02  0.62909365141E+03  0.65482820179E+03  0.12500000000E+03 0.  0.
         25    1    1    2    0    0  0.69311312504E+02  0.25093711379E+02  0.65031558145E+03  0.66631006887E+03  0.12500000000E+03 0.  0.
</event>
<event>
 5    0  0.5605075E-005  0.3829320E+03  0.7546771E-02  0.1049855E+00
         21   -1    0    0  502  501  0.00000000000E+00  0.00000000000E+00  0.15601976664E+03  0.15601976664E+03  0.00000000000E+00 0.  1.
         21   -1    0    0  501  502 -0.00000000000E+00 -0.00000000000E+00 -0.93986092866E+03  0.93986092866E+03  0.00000000000E+00 0.  1.
         25    1    1    2    0    0 -0.20908616918E+02 -0.28933736698E+02 -0.73198921402E+03  0.74344303132E+03  0.12500000000E+03 0.  0.
         25    1    1    2    0    0  0.50761918196E+02 -0.33024466452E+02  0.78190831593E+02  0.15939320521E+03  0.12500000000E+03 0.  0.
         25    1    1    2    0    0 -0.29853301278E+02  0.61958203150E+02 -0.13004277960E+03  0.19304445876E+03  0.12500000000E+03 0.  0.
</event>
<event>
 5    0  0.6716920E-005  0.2458278E+03  0.7546771E-02  0.1115970E+00
         21   -1    0    0  502  501  0.00000000000E+00  0.00000000000E+00  0.47664111081E+03  0.47664111081E+03  0.00000000000E+00 0.  1.
         21   -1    0    0  501  502 -0.00000000000E+00 -0.00000000000E+00 -0.12678571975E+03  0.12678571975E+03  0.00000000000E+00 0.  1.
         25    1    1    2    0    0  0.35706179889E+02 -0.69792266874E+02  0.10686946461E+03  0.18218664677E+03  0.12500000000E+03 0.  0.
         25    1    1    2    0    0 -0.74291640211E+02  0.92325576656E+02  0.36981654092E+02  0.17617009579E+03  0.12500000000E+03 0.  0.
         25    1    1    2    0    0  0.38585460322E+02 -0.22533309781E+02  0.20600427237E+03  0.24507008800E+03  0.12500000000E+03 0.  0.
</event>
<event>
 5    0  0.5605075E-005  0.4290562E+03  0.7546771E-02  0.1034159E+00
         21   -1    0    0  502  501  0.00000000000E+00  0.00000000000E+00  0.69400862335E+03  0.69400862335E+03  0.00000000000E+00 0. -1.
         21   -1    0    0  501  502 -0.00000000000E+00 -0.00000000000E+00 -0.26525489448E+03  0.26525489448E+03  0.00000000000E+00 0. -1.
         25    1    1    2    0    0 -0.88984033986E+02  0.80314936294E+02  0.23362105033E+03  0.29081341519E+03  0.12500000000E+03 0.  0.
         25    1    1    2    0    0 -0.36499490432E+02  0.23923727611E+03  0.60052034727E+02  0.27892281003E+03  0.12500000000E+03 0.  0.
         25    1    1    2    0    0  0.12548352442E+03 -0.31955221240E+03  0.13508064382E+03  0.38952729261E+03  0.12500000000E+03 0.  0.
</event>
<event>
 5    0  0.5605075E-005  0.3530839E+03  0.7546771E-02  0.1061356E+00
         21   -1    0    0  502  501  0.00000000000E+00  0.00000000000E+00  0.21898826033E+03  0.21898826033E+03  0.00000000000E+00 0.  1.
         21   -1    0    0  501  502 -0.00000000000E+00 -0.00000000000E+00 -0.56929188197E+03  0.56929188197E+03  0.00000000000E+00 0. -1.
         25    1    1    2    0    0  0.91080407248E+00  0.21801795716E+03 -0.28462651827E+03  0.37969713471E+03  0.12500000000E+03 0.  0.
         25    1    1    2    0    0  0.95619470051E+02 -0.18062922655E+03 -0.22427019478E+02  0.24061997369E+03  0.12500000000E+03 0.  0.
         25    1    1    2    0    0 -0.96530274123E+02 -0.37388730608E+02 -0.43250083883E+02  0.16796303389E+03  0.12500000000E+03 0.  0.
</event>
<event>
 5    0  0.5605075E-005  0.4650341E+03  0.7546771E-02  0.1023331E+00
         21   -1    0    0  502  501  0.00000000000E+00  0.00000000000E+00  0.14792210864E+04  0.14792210864E+04  0.00000000000E+00 0.  1.
         21   -1    0    0  501  502 -0.00000000000E+00 -0.00000000000E+00 -0.14619635521E+03  0.14619635521E+03  0.00000000000E+00 0.  1.
         25    1    1    2    0    0  0.34037800906E+03 -0.41558826634E+01  0.95223646471E+03  0.10189473711E+04  0.12500000000E+03 0.  0.
         25    1    1    2    0    0 -0.80412658992E+02 -0.79501537626E+02  0.10414761452E+03  0.19813736604E+03  0.12500000000E+03 0.  0.
         25    1    1    2    0    0 -0.25996535007E+03  0.83657420289E+02  0.27664065200E+03  0.40833270448E+03  0.12500000000E+03 0.  0.
</event>
<event>
 5    0  0.5605075E-005  0.3217872E+03  0.7546771E-02  0.1074830E+00
         21   -1    0    0  502  501  0.00000000000E+00  0.00000000000E+00  0.27528667106E+03  0.27528667106E+03  0.00000000000E+00 0.  1.
         21   -1    0    0  501  502 -0.00000000000E+00 -0.00000000000E+00 -0.37614251254E+03  0.37614251254E+03  0.00000000000E+00 0.  1.
         25    1    1    2    0    0  0.64614781832E+02  0.12190251914E+02 -0.11499126540E+03  0.18213089631E+03  0.12500000000E+03 0.  0.
         25    1    1    2    0    0 -0.13602519764E+03 -0.12407165969E+03  0.12566799329E+03  0.25556618647E+03  0.12500000000E+03 0.  0.
         25    1    1    2    0    0  0.71410415804E+02  0.11188140778E+03 -0.11153256936E+03  0.21373210082E+03  0.12500000000E+03 0.  0.
</event>
<event>
 5    0  0.5605075E-005  0.2903520E+03  0.7546771E-02  0.1090166E+00
         21   -1    0    0  502  501  0.00000000000E+00  0.00000000000E+00  0.39372269170E+03  0.39372269170E+03  0.00000000000E+00 0.  1.
         21   -1    0    0  501  502 -0.00000000000E+00 -0.00000000000E+00 -0.21412090002E+03  0.21412090002E+03  0.00000000000E+00 0.  1.
         25    1    1    2    0    0  0.68275856100E+02  0.11325660115E+03 -0.47149645932E+02  0.18798068875E+03  0.12500000000E+03 0.  0.
         25    1    1    2    0    0  0.69815291951E+02 -0.28684188085E+02  0.12067029123E+03  0.18942881729E+03  0.12500000000E+03 0.  0.
         25    1    1    2    0    0 -0.13809114805E+03 -0.84572413069E+02  0.10608114639E+03  0.23043408568E+03  0.12500000000E+03 0.  0.
</event>
<event>
 5    0  0.5605075E-005  0.4244596E+03  0.7546771E-02  0.1035625E+00
         21   -1    0    0  502  501  0.00000000000E+00  0.00000000000E+00  0.42469865647E+03  0.42469865647E+03  0.00000000000E+00 0.  1.
         21   -1    0    0  501  502 -0.00000000000E+00 -0.00000000000E+00 -0.42422070089E+03  0.42422070089E+03  0.00000000000E+00 0.  1.
         25    1    1    2    0    0 -0.55073124645E+02 -0.52304237781E+02 -0.32178939876E+03  0.35347163889E+03  0.12500000000E+03 0.  0.
         25    1    1    2    0    0  0.14077944919E+03  0.10535072906E+03  0.18532037383E+03  0.28440511667E+03  0.12500000000E+03 0.  0.
         25    1    1    2    0    0 -0.85706324549E+02 -0.53046491281E+02  0.13694698051E+03  0.21104260180E+03  0.12500000000E+03 0.  0.
</event>
<event>
 5    0  0.5605075E-005  0.3426679E+03  0.7546771E-02  0.1065665E+00
         21   -1    0    0  502  501  0.00000000000E+00  0.00000000000E+00  0.93666937663E+03  0.93666937663E+03  0.00000000000E+00 0. -1.
         21   -1    0    0  501  502 -0.00000000000E+00 -0.00000000000E+00 -0.12536045760E+03  0.12536045760E+03  0.00000000000E+00 0. -1.
         25    1    1    2    0    0 -0.36485879305E+02 -0.92405334207E+02  0.23459019050E+03  0.28377371735E+03  0.12500000000E+03 0.  0.
         25    1    1    2    0    0  0.15595563870E+03 -0.72532875865E+02  0.80233214723E+02  0.22725656881E+03  0.12500000000E+03 0.  0.
         25    1    1    2    0    0 -0.11946975940E+03  0.16493821007E+03  0.49648551380E+03  0.55099954806E+03  0.12500000000E+03 0.  0.
</event>
<event>
 5    0  0.5605075E-005  0.2287375E+03  0.7546771E-02  0.1127532E+00
         21   -1    0    0  502  501  0.00000000000E+00  0.00000000000E+00  0.51346244968E+02  0.51346244968E+02  0.00000000000E+00 0.  1.
         21   -1    0    0  501  502 -0.00000000000E+00 -0.00000000000E+00 -0.10189810097E+04  0.10189810097E+04  0.00000000000E+00 0.  1.
         25    1    1    2    0    0  0.11820885523E+03  0.20375886521E+02 -0.33315331371E+03  0.37550584635E+03  0.12500000000E+03 0.  0.
         25    1    1    2    0    0 -0.52724823977E+02  0.17886211262E+02 -0.29486739733E+03  0.32507169306E+03  0.12500000000E+03 0.  0.
         25    1    1    2    0    0 -0.65484031250E+02 -0.38262097783E+02 -0.33961405370E+03  0.36974971527E+03  0.12500000000E+03 0.  0.
</event>
<event>
 5    0  0.5605075E-005  0.3213239E+03  0.7546771E-02  0.1075042E+00
         21   -1    0    0  502  501  0.00000000000E+00  0.00000000000E+00  0.21374294916E+04  0.21374294916E+04  0.00000000000E+00 0.  1.
         21   -1    0    0  501  502 -0.00000000000E+00 -0.00000000000E+00 -0.48305243217E+02  0.48305243217E+02  0.00000000000E+00 0. -1.
         25    1    1    2    0    0 -0.59966453159E+01  0.23593265827E+03  0.94588045292E+03  0.98286062603E+03  0.12500000000E+03 0.  0.
         25    1    1    2    0    0 -0.51010969811E+02 -0.91740824653E+02  0.37022729144E+03  0.40461308095E+03  0.12500000000E+03 0.  0.
         25    1    1    2    0    0  0.57007615127E+02 -0.14419183362E+03  0.77301650404E+03  0.79826102785E+03  0.12500000000E+03 0.  0.
</event>
<event>
 5    0  0.5605075E-005  0.3052597E+03  0.7546771E-02  0.1082640E+00
         21   -1    0    0  502  501  0.00000000000E+00  0.00000000000E+00  0.67877213071E+03  0.67877213071E+03  0.00000000000E+00 0.  1.
         21   -1    0    0  501  502 -0.00000000000E+00 -0.00000000000E+00 -0.13728244657E+03  0.13728244657E+03  0.00000000000E+00 0.  1.
         25    1    1    2    0    0  0.84474436416E+01  0.70358987367E+02  0.15598950965E+03  0.21208364748E+03  0.12500000000E+03 0.  0.
         25    1    1    2    0    0  0.13729637253E+02  0.15902400594E+03  0.17174808448E+03  0.26570574312E+03  0.12500000000E+03 0.  0.
         25    1    1    2    0    0 -0.22177080895E+02 -0.22938299331E+03  0.21375209001E+03  0.33826518668E+03  0.12500000000E+03 0.  0.
</event>
<event>
 5    0  0.5605075E-005  0.2908629E+03  0.7546771E-02  0.1089899E+00
         21   -1    0    0  502  501  0.00000000000E+00  0.00000000000E+00  0.85485810945E+03  0.85485810945E+03  0.00000000000E+00 0.  1.
         21   -1    0    0  501  502 -0.00000000000E+00 -0.00000000000E+00 -0.98965236614E+02  0.98965236614E+02  0.00000000000E+00 0.  1.
         25    1    1    2    0    0  0.44714175214E+02  0.18622759249E+03  0.32351572907E+03  0.39619124249E+03  0.12500000000E+03 0.  0.
         25    1    1    2    0    0 -0.30690864843E+02 -0.27582715705E+02  0.88623362288E+02  0.15868785629E+03  0.12500000000E+03 0.  0.
         25    1    1    2    0    0 -0.14023310372E+02 -0.15864487678E+03  0.34375378147E+03  0.39894424728E+03  0.12500000000E+03 0.  0.
</event>
<event>
 5    0  0.5605075E-005  0.2758659E+03  0.7546771E-02  0.1097969E+00
         21   -1    0    0  502  501  0.00000000000E+00  0.00000000000E+00  0.13626466779E+04  0.13626466779E+04  0.00000000000E+00 0. -1.
         21   -1    0    0  501  502 -0.00000000000E+00 -0.00000000000E+00 -0.55848657775E+02  0.55848657775E+02  0.00000000000E+00 0. -1.
         25    1    1    2    0    0 -0.11047384767E+03 -0.95472012736E+02  0.76692395628E+03  0.79064323873E+03  0.12500000000E+03 0.  0.
         25    1    1    2    0    0  0.73430258637E+02  0.11106260375E+03  0.37480513731E+03  0.41693020494E+03  0.12500000000E+03 0.  0.
         25    1    1    2    0    0  0.37043589031E+02 -0.15590591018E+02  0.16506892650E+03  0.21092189197E+03  0.12500000000E+03 0.  0.
</event>
<event>
 5    0  0.5605075E-005  0.4061624E+03  0.7546771E-02  0.1041666E+00
         21   -1    0    0  502  501  0.00000000000E+00  0.00000000000E+00  0.61910008794E+02  0.61910008794E+02  0.00000000000E+00 0. -1.
         21   -1    0    0  501  502 -0.00000000000E+00 -0.00000000000E+00 -0.26646407643E+04  0.26646407643E+04  0.00000000000E+00 0. -1.
         25    1    1    2    0    0  0.13924541311E+03  0.21421529186E+03 -0.94564382289E+03  0.98749416004E+03  0.12500000000E+03 0.  0.
         25    1    1    2    0    0 -0.29091565410E+02  0.29044413508E+02 -0.11082531913E+04  0.11160376487E+04  0.12500000000E+03 0.  0.
         25    1    1    2    0    0 -0.11015384770E+03 -0.24325970537E+03 -0.54883374127E+03  0.62301896438E+03  0.12500000000E+03 0.  0.
</event>
<event>
 5    0  0.5605075E-005  0.3872515E+03  0.7546771E-02  0.1048286E+00
         21   -1    0    0  502  501  0.00000000000E+00  0.00000000000E+00  0.48475133422E+03  0.48475133422E+03  0.00000000000E+00 0.  1.
         21   -1    0    0  501  502 -0.00000000000E+00 -0.00000000000E+00 -0.30936219528E+03  0.30936219528E+03  0.00000000000E+00 0.  1.
         25    1    1    2    0    0  0.14309567129E+02  0.20685946661E+03  0.87436259982E+02  0.25742125437E+03  0.12500000000E+03 0.  0.
         25    1    1    2    0    0 -0.20443159282E+03 -0.34478358390E+02  0.62970176755E+02  0.25014251238E+03  0.12500000000E+03 0.  0.
         25    1    1    2    0    0  0.19012202569E+03 -0.17238110822E+03  0.24982702205E+02  0.28654976275E+03  0.12500000000E+03 0.  0.
</event>
<event>
 5    0  0.5605075E-005  0.3017700E+03  0.7546771E-02  0.1084359E+00
         21   -1    0    0  502  501  0.00000000000E+00  0.00000000000E+00  0.82047778841E+02  0.82047778841E+02  0.00000000000E+00 0.  1.
         21   -1    0    0  501  502 -0.00000000000E+00 -0.00000000000E+00 -0.11099033776E+04  0.11099033776E+04  0.00000000000E+00 0.  1.
         25    1    1    2    0    0  0.26292837352E+02 -0.10614802252E+03 -0.13965888031E+03  0.21699843048E+03  0.12500000000E+03 0.  0.
         25    1    1    2    0    0 -0.12949250778E+03  0.13661158580E+03 -0.62234207435E+03  0.66209190635E+03  0.12500000000E+03 0.  0.
         25    1    1    2    0    0  0.10319967043E+03 -0.30463563283E+02 -0.26585464414E+03  0.31286081965E+03  0.12500000000E+03 0.  0.
</event>
<event>
 5    0  0.6730181E-005  0.3124528E+03  0.7546771E-02  0.1079176E+00
         21   -1    0    0  502  501  0.00000000000E+00  0.00000000000E+00  0.50098035920E+03  0.50098035920E+03  0.00000000000E+00 0. -1.
         21   -1    0    0  501  502 -0.00000000000E+00 -0.00000000000E+00 -0.19487137740E+03  0.19487137740E+03  0.00000000000E+00 0. -1.
         25    1    1    2    0    0 -0.14399802728E+02 -0.13697926144E+03 -0.53201884658E+02  0.19345829761E+03  0.12500000000E+03 0.  0.
         25    1    1    2    0    0  0.98143087013E+02  0.78162509261E+02  0.12101988422E+03  0.21450467538E+03  0.12500000000E+03 0.  0.
         25    1    1    2    0    0 -0.83743284285E+02  0.58816752175E+02  0.23829098224E+03  0.28788876362E+03  0.12500000000E+03 0.  0.
</event>
<event>
 5    0  0.5605075E-005  0.3027045E+03  0.7546771E-02  0.1083896E+00
         21   -1    0    0  502  501  0.00000000000E+00  0.00000000000E+00  0.13825261851E+04  0.13825261851E+04  0.00000000000E+00 0.  1.
         21   -1    0    0  501  502 -0.00000000000E+00 -0.00000000000E+00 -0.66277252310E+02  0.66277252310E+02  0.00000000000E+00 0.  1.
         25    1    1    2    0    0  0.97012793191E+02  0.16070421926E+03  0.83852869512E+03  0.86832753076E+03  0.12500000000E+03 0.  0.
         25    1    1    2    0    0 -0.53995336731E+02 -0.77472310764E+02  0.14750645809E+03  0.21517576653E+03  0.12500000000E+03 0.  0.
         25    1    1    2    0    0 -0.43017456460E+02 -0.83231908495E+02  0.33021377962E+03  0.36530014016E+03  0.12500000000E+03 0.  0.
</event>
<event>
 5    0  0.5605075E-005  0.7877941E+03  0.7546771E-02  0.9577855E-01
         21   -1    0    0  502  501  0.00000000000E+00  0.00000000000E+00  0.60738764648E+03  0.60738764648E+03  0.00000000000E+00 0. -1.
         21   -1    0    0  501  502 -0.00000000000E+00 -0.00000000000E+00 -0.10217848678E+04  0.10217848678E+04  0.00000000000E+00 0. -1.
         25    1    1    2    0    0 -0.41898077566E+03  0.62507192582E+03 -0.27494958087E+03  0.81085268381E+03  0.12500000000E+03 0.  0.
         25    1    1    2    0    0  0.15470898289E+03 -0.21397962345E+03  0.96605975599E+01  0.29230202836E+03  0.12500000000E+03 0.  0.
         25    1    1    2    0    0  0.26427179277E+03 -0.41109230238E+03 -0.14910823806E+03  0.52601780215E+03  0.12500000000E+03 0.  0.
</event>
<event>
 5    0  0.5605075E-005  0.3122769E+03  0.7546771E-02  0.1079260E+00
         21   -1    0    0  502  501  0.00000000000E+00  0.00000000000E+00  0.94513403050E+03  0.94513403050E+03  0.00000000000E+00 0.  1.
         21   -1    0    0  501  502 -0.00000000000E+00 -0.00000000000E+00 -0.10317781582E+03  0.10317781582E+03  0.00000000000E+00 0.  1.
         25    1    1    2    0    0  0.10325906853E+03 -0.11151426962E+03  0.22540516309E+03  0.29921623470E+03  0.12500000000E+03 0.  0.
         25    1    1    2    0    0 -0.16993426322E+03  0.14817789237E+03  0.49797190624E+03  0.56074536200E+03  0.12500000000E+03 0.  0.
         25    1    1    2    0    0  0.66675194685E+02 -0.36663622744E+02  0.11857914535E+03  0.18835024962E+03  0.12500000000E+03 0.  0.
</event>
<event>
 5    0  0.5605075E-005  0.1945267E+03  0.7546771E-02  0.1154441E+00
         21   -1    0    0  502  501  0.00000000000E+00  0.00000000000E+00  0.10721682219E+04  0.10721682219E+04  0.00000000000E+00 0.  1.
         21   -1    0    0  501  502 -0.00000000000E+00 -0.00000000000E+00 -0.35293573894E+02  0.35293573894E+02  0.00000000000E+00 0.  1.
         25    1    1    2    0    0 -0.76878504758E+01 -0.15039680618E+02  0.38373890820E+03  0.40393792184E+03  0.12500000000E+03 0.  0.
         25    1    1    2    0    0  0.14073229651E+02 -0.65746892891E+01  0.23643567053E+03  0.26789570476E+03  0.12500000000E+03 0.  0.
         25    1    1    2    0    0 -0.63853791748E+01  0.21614369907E+02  0.41670006931E+03  0.43562816922E+03  0.12500000000E+03 0.  0.
</event>
<event>
 5    0  0.5605075E-005  0.2724099E+03  0.7546771E-02  0.1099908E+00
         21   -1    0    0  502  501  0.00000000000E+00  0.00000000000E+00  0.11315552849E+03  0.11315552849E+03  0.00000000000E+00 0.  1.
         21   -1    0    0  501  502 -0.00000000000E+00 -0.00000000000E+00 -0.65579805458E+03  0.65579805458E+03  0.00000000000E+00 0.  1.
         25    1    1    2    0    0 -0.79984647875E+02 -0.81613324694E+01 -0.14887837495E+03  0.21036616118E+03  0.12500000000E+03 0.  0.
         25    1    1    2    0    0  0.99049046569E+02  0.13991859942E+03 -0.18798619381E+03  0.28346381983E+03  0.12500000000E+03 0.  0.
         25    1    1    2    0    0 -0.19064398693E+02 -0.13175726695E+03 -0.20577795733E+03  0.27512360207E+03  0.12500000000E+03 0.  0.
</event>
<event>
 5    0  0.5605075E-005  0.2141874E+03  0.7546771E-02  0.1138292E+00
         21   -1    0    0  502  501  0.00000000000E+00  0.00000000000E+00  0.56766366540E+03  0.56766366540E+03  0.00000000000E+00 0. -1.
         21   -1    0    0  501  502 -0.00000000000E+00 -0.00000000000E+00 -0.80815862584E+02  0.80815862584E+02  0.00000000000E+00 0. -1.
         25    1    1    2    0    0 -0.30637621621E+02 -0.58928135234E+02  0.12436156185E+03  0.18841970981E+03  0.12500000000E+03 0.  0.
         25    1    1    2    0    0  0.56764169218E+01  0.85511353676E+02  0.17099722454E+03  0.22849390389E+03  0.12500000000E+03 0.  0.
         25    1    1    2    0    0  0.24961204699E+02 -0.26583218441E+02  0.19148901643E+03  0.23156591428E+03  0.12500000000E+03 0.  0.
</event>
<event>
 5    0  0.5605075E-005  0.2806703E+03  0.7546771E-02  0.1095323E+00
         21   -1    0    0  502  501  0.00000000000E+00  0.00000000000E+00  0.79469326375E+02  0.79469326375E+02  0.00000000000E+00 0. -1.
         21   -1    0    0  501  502 -0.00000000000E+00 -0.00000000000E+00 -0.99127322212E+03  0.99127322212E+03  0.00000000000E+00 0. -1.
         25    1    1    2    0    0 -0.15200268686E+03  0.84802372106E+02 -0.25127496175E+03  0.33024288869E+03  0.12500000000E+03 0.  0.
         25    1    1    2    0    0  0.70605656156E+02 -0.43225859944E+02 -0.47889539197E+03  0.50181613177E+03  0.12500000000E+03 0.  0.
         25    1    1    2    0    0  0.81397030699E+02 -0.41576512163E+02 -0.18163354202E+03  0.23868352804E+03  0.12500000000E+03 0.  0.
</event>
<event>
 5    0  0.5605075E-005  0.3098722E+03  0.7546771E-02  0.1080407E+00
         21   -1    0    0  502  501  0.00000000000E+00  0.00000000000E+00  0.11115090405E+04  0.11115090405E+04  0.00000000000E+00 0. -1.
         21   -1    0    0  501  502 -0.00000000000E+00 -0.00000000000E+00 -0.86387757187E+02  0.86387757187E+02  0.00000000000E+00 0.  1.
         25    1    1    2    0    0  0.22971091560E+02 -0.95839833639E+02  0.35130755664E+03  0.38568762504E+03  0.12500000000E+03 0.  0.
         25    1    1    2    0    0 -0.15382841718E+03  0.51238312802E+02  0.55405344870E+03  0.59066807146E+03  0.12500000000E+03 0.  0.
         25    1    1    2    0    0  0.13085732562E+03  0.44601520837E+02  0.11976027796E+03  0.22154110116E+03  0.12500000000E+03 0.  0.
</event>
<event>
 5    0  0.5605075E-005  0.3067600E+03  0.7546771E-02  0.1081909E+00
         21   -1    0    0  502  501  0.00000000000E+00  0.00000000000E+00  0.52310822838E+03  0.52310822838E+03  0.00000000000E+00 0. -1.
         21   -1    0    0  501  502 -0.00000000000E+00 -0.00000000000E+00 -0.17988956435E+03  0.17988956435E+03  0.00000000000E+00 0. -1.
         25    1    1    2    0    0 -0.12638529920E+03 -0.15969929538E+03  0.10330351581E+03  0.26033387252E+03  0.12500000000E+03 0.  0.
         25    1    1    2    0    0  0.14724392078E+03  0.80799602918E+02  0.80621254303E+02  0.22435270153E+03  0.12500000000E+03 0.  0.
         25    1    1    2    0    0 -0.20858621581E+02  0.78899692463E+02  0.15929389391E+03  0.21831121868E+03  0.12500000000E+03 0.  0.
</event>
<event>
 5    0  0.5605075E-005  0.4031054E+03  0.7546771E-02  0.1042710E+00
         21   -1    0    0  502  501  0.00000000000E+00  0.00000000000E+00  0.26817628516E+03  0.26817628516E+03  0.00000000000E+00 0. -1.
         21   -1    0    0  501  502 -0.00000000000E+00 -0.00000000000E+00 -0.60592230710E+03  0.60592230710E+03  0.00000000000E+00 0. -1.
         25    1    1    2    0    0  0.32217143945E+03 -0.41417331026E+02 -0.13007969401E+03  0.37155828412E+03  0.12500000000E+03 0.  0.
         25    1    1    2    0    0 -0.84840142279E+02 -0.42046336004E+02 -0.14742366972E+03  0.21523123032E+03  0.12500000000E+03 0.  0.
         25    1    1    2    0    0 -0.23733129717E+03  0.83463667030E+02 -0.60242658214E+02  0.28730907782E+03  0.12500000000E+03 0.  0.
</event>
<event>
 5    0  0.5605075E-005  0.3847095E+03  0.7546771E-02  0.1049207E+00
         21   -1    0    0  502  501  0.00000000000E+00  0.00000000000E+00  0.15415290965E+03  0.15415290965E+03  0.00000000000E+00 0. -1.
         21   -1    0    0  501  502 -0.00000000000E+00 -0.00000000000E+00 -0.96009472648E+03  0.96009472648E+03  0.00000000000E+00 0. -1.
         25    1    1    2    0    0  0.22266366418E+03 -0.11352491473E+03 -0.65373294884E+03  0.71095624480E+03  0.12500000000E+03 0.  0.
         25    1    1    2    0    0 -0.46405458337E+02  0.77793841741E+02 -0.66968548505E+02  0.16827101612E+03  0.12500000000E+03 0.  0.
         25    1    1    2    0    0 -0.17625820584E+03  0.35731072987E+02 -0.85240319475E+02  0.23502037522E+03  0.12500000000E+03 0.  0.
</event>
<event>
 5    0  0.5605075E-005  0.2621597E+03  0.7546771E-02  0.1105853E+00
         21   -1    0    0  502  501  0.00000000000E+00  0.00000000000E+00  0.20452773825E+03  0.20452773825E+03  0.00000000000E+00 0.  1.
         21   -1    0    0  501  502 -0.00000000000E+00 -0.00000000000E+00 -0.33603113427E+03  0.33603113427E+03  0.00000000000E+00 0.  1.
         25    1    1    2    0    0 -0.69914316554E+02 -0.44749957674E+02 -0.17307703792E+02  0.15104677084E+03  0.12500000000E+03 0.  0.
         25    1    1    2    0    0 -0.70064617358E+02 -0.46814052389E+02  0.15640925861E+01  0.15075825845E+03  0.12500000000E+03 0.  0.
         25    1    1    2    0    0  0.13997893391E+03  0.91564010063E+02 -0.11575978481E+03  0.23875384323E+03  0.12500000000E+03 0.  0.
</event>
<event>
 5    0  0.5605075E-005  0.4828643E+03  0.7546771E-02  0.1018351E+00
         21   -1    0    0  502  501  0.00000000000E+00  0.00000000000E+00  0.41423141643E+03  0.41423141643E+03  0.00000000000E+00 0.  1.
         21   -1    0    0  501  502 -0.00000000000E+00 -0.00000000000E+00 -0.56286886721E+03  0.56286886721E+03  0.00000000000E+00 0.  1.
         25    1    1    2    0    0 -0.23683368669E+02  0.22213837061E+03 -0.40229584853E+03  0.47683677228E+03  0.12500000000E+03 0.  0.
         25    1    1    2    0    0 -0.34565440325E+02 -0.20535505907E+03  0.41099106800E+02  0.24633230914E+03  0.12500000000E+03 0.  0.
         25    1    1    2    0    0  0.58248808994E+02 -0.16783311546E+02  0.21255929095E+03  0.25393120223E+03  0.12500000000E+03 0.  0.
</event>
<event>
 5    0  0.5912345E-005  0.2864159E+03  0.7546771E-02  0.1092235E+00
         21   -1    0    0  502  501  0.00000000000E+00  0.00000000000E+00  0.18883606460E+03  0.18883606460E+03  0.00000000000E+00 0.  1.
         21   -1    0    0  501  502 -0.00000000000E+00 -0.00000000000E+00 -0.43441952616E+03  0.43441952616E+03  0.00000000000E+00 0.  1.
         25    1    1    2    0    0 -0.31843558210E+02  0.11743018154E+03 -0.21599699157E+02  0.17577089276E+03  0.12500000000E+03 0.  0.
         25    1    1    2    0    0  0.78770468513E+02 -0.48374985306E+02 -0.25052223742E+03  0.29484117310E+03  0.12500000000E+03 0.  0.
         25    1    1    2    0    0 -0.46926910304E+02 -0.69055196237E+02  0.26538475024E+02  0.15264352490E+03  0.12500000000E+03 0.  0.
</event>
<event>
 5    0  0.5605075E-005  0.3876206E+03  0.7546771E-02  0.1048153E+00
         21   -1    0    0  502  501  0.00000000000E+00  0.00000000000E+00  0.11235163296E+04  0.11235163296E+04  0.00000000000E+00 0.  1.
         21   -1    0    0  501  502 -0.00000000000E+00 -0.00000000000E+00 -0.13373171657E+03  0.13373171657E+03  0.00000000000E+00 0.  1.
         25    1    1    2    0    0  0.35391789041E+02 -0.97076787042E+02  0.24469219795E+03  0.29355706950E+03  0.12500000000E+03 0.  0.
         25    1    1    2    0    0 -0.29022740635E+03  0.80779968238E+02  0.37494875987E+03  0.49695967964E+03  0.12500000000E+03 0.  0.
         25    1    1    2    0    0  0.25483561730E+03  0.16296818804E+02  0.37014365524E+03  0.46673129707E+03  0.12500000000E+03 0.  0.
</event>
<event>
 5    0  0.5605075E-005  0.2913156E+03  0.7546771E-02  0.1089664E+00
         21   -1    0    0  502  501  0.00000000000E+00  0.00000000000E+00  0.51618763589E+03  0.51618763589E+03  0.00000000000E+00 0. -1.
         21   -1    0    0  501  502 -0.00000000000E+00 -0.00000000000E+00 -0.16440689171E+03  0.16440689171E+03  0.00000000000E+00 0. -1.
         25    1    1    2    0    0 -0.97141012655E+02 -0.11297828967E+03  0.61749791950E+02  0.20405515696E+03  0.12500000000E+03 0.  0.
         25    1    1    2    0    0  0.48909748754E+02  0.97412028856E+02  0.29840425782E+03  0.34139620381E+03  0.12500000000E+03 0.  0.
         25    1    1    2    0    0  0.48231263901E+02  0.15566260816E+02 -0.83733055933E+01  0.13514316683E+03  0.12500000000E+03 0.  0.
</event>
<event>
 5    0  0.5605075E-005  0.4871992E+03  0.7546771E-02  0.1017175E+00
         21   -1    0    0  502  501  0.00000000000E+00  0.00000000000E+00  0.34355914295E+03  0.34355914295E+03  0.00000000000E+00 0. -1.
         21   -1    0    0  501  502 -0.00000000000E+00 -0.00000000000E+00 -0.69089434949E+03  0.69089434949E+03  0.00000000000E+00 0. -1.
         25    1    1    2    0    0 -0.44645005342E+02  0.30779002569E+03 -0.20734649935E+03  0.39413886792E+03  0.12500000000E+03 0.  0.
         25    1    1    2    0    0  0.59336973816E+02 -0.24746361656E+03  0.14833888249E+03  0.31998209644E+03  0.12500000000E+03 0.  0.
         25    1    1    2    0    0 -0.14691968474E+02 -0.60326409124E+02 -0.28832758968E+03  0.32033252808E+03  0.12500000000E+03 0.  0.
</event>
<event>
 5    0  0.5605075E-005  0.3216867E+03  0.7546771E-02  0.1074876E+00
         21   -1    0    0  502  501  0.00000000000E+00  0.00000000000E+00  0.19756203902E+04  0.19756203902E+04  0.00000000000E+00 0. -1.
         21   -1    0    0  501  502 -0.00000000000E+00 -0.00000000000E+00 -0.52379680461E+02  0.52379680461E+02  0.00000000000E+00 0. -1.
         25    1    1    2    0    0 -0.78769188805E+02 -0.18275089594E+02  0.14238449019E+03  0.20600220157E+03  0.12500000000E+03 0.  0.
         25    1    1    2    0    0 -0.30167686288E+01 -0.93127504824E+02  0.41192616677E+03  0.44044295876E+03  0.12500000000E+03 0.  0.
         25    1    1    2    0    0  0.81785957434E+02  0.11140259442E+03  0.13689300528E+04  0.13815549103E+04  0.12500000000E+03 0.  0.
</event>
<event>
 5    0  0.5605075E-005  0.3400990E+03  0.7546771E-02  0.1066754E+00
         21   -1    0    0  502  501  0.00000000000E+00  0.00000000000E+00  0.19408442565E+04  0.19408442565E+04  0.00000000000E+00 0. -1.
         21   -1    0    0  501  502 -0.00000000000E+00 -0.00000000000E+00 -0.59596382599E+02  0.59596382599E+02  0.00000000000E+00 0. -1.
         25    1    1    2    0    0  0.12626174651E+03  0.95573389385E+02  0.26996180803E+03  0.33701732772E+03  0.12500000000E+03 0.  0.
         25    1    1    2    0    0  0.25909494533E+02  0.66635418581E+02  0.38911156712E+03  0.41490287127E+03  0.12500000000E+03 0.  0.
         25    1    1    2    0    0 -0.15217124104E+03 -0.16220880797E+03  0.12221744987E+04  0.12485204401E+04  0.12500000000E+03 0.  0.
</event>
<event>
 5    0  0.5605075E-005  0.2954315E+03  0.7546771E-02  0.1087547E+00
         21   -1    0    0  502  501  0.00000000000E+00  0.00000000000E+00  0.21542739176E+03  0.21542739176E+03  0.00000000000E+00 0.  1.
         21   -1    0    0  501  502 -0.00000000000E+00 -0.00000000000E+00 -0.40514692194E+03  0.40514692194E+03  0.00000000000E+00 0.  1.
         25    1    1    2    0    0  0.63247195687E+02 -0.95425156425E+02  0.69079205048E+02  0.18303853368E+03  0.12500000000E+03 0.  0.
         25    1    1    2    0    0  0.67403045667E+02  0.33881486993E+02 -0.49450174105E+02  0.15414747953E+03  0.12500000000E+03 0.  0.
         25    1    1    2    0    0 -0.13065024135E+03  0.61543669433E+02 -0.20934856112E+03  0.28338830049E+03  0.12500000000E+03 0.  0.
</event>
<event>
 5    0  0.5605075E-005  0.6825603E+03  0.7546771E-02  0.9747530E-01
         21   -1    0    0  502  501  0.00000000000E+00  0.00000000000E+00  0.65320437219E+03  0.65320437219E+03  0.00000000000E+00 0.  1.
         21   -1    0    0  501  502 -0.00000000000E+00 -0.00000000000E+00 -0.71323549226E+03  0.71323549226E+03  0.00000000000E+00 0.  1.
         25    1    1    2    0    0  0.37365619074E+02  0.52792365591E+02 -0.19912052571E+02  0.14214328402E+03  0.12500000000E+03 0.  0.
         25    1    1    2    0    0 -0.42592916008E+03  0.18579394736E+03  0.36316910545E+03  0.60286967035E+03  0.12500000000E+03 0.  0.
         25    1    1    2    0    0  0.38856354100E+03 -0.23858631295E+03 -0.40328817296E+03  0.62142691008E+03  0.12500000000E+03 0.  0.
</event>
<event>
 5    0  0.5605075E-005  0.2982117E+03  0.7546771E-02  0.1086138E+00
         21   -1    0    0  502  501  0.00000000000E+00  0.00000000000E+00  0.61921911745E+03  0.61921911745E+03  0.00000000000E+00 0.  1.
         21   -1    0    0  501  502 -0.00000000000E+00 -0.00000000000E+00 -0.14361676026E+03  0.14361676026E+03  0.00000000000E+00 0.  1.
         25    1    1    2    0    0  0.54781465529E+02  0.90051197778E+01  0.21592579810E+03  0.25559939638E+03  0.12500000000E+03 0.  0.
         25    1    1    2    0    0  0.73836776993E+02 -0.97162998091E+02 -0.59881098431E+01  0.17479523819E+03  0.12500000000E+03 0.  0.
         25    1    1    2    0    0 -0.12861824252E+03  0.88157878313E+02  0.26566466894E+03  0.33244124314E+03  0.12500000000E+03 0.  0.
</event>
<event>
 5    0  0.6477959E-005  0.5341007E+03  0.7546771E-02  0.1005242E+00
         21   -1    0    0  502  501  0.00000000000E+00  0.00000000000E+00  0.43173068988E+03  0.43173068988E+03  0.00000000000E+00 0. -1.
         21   -1    0    0  501  502 -0.00000000000E+00 -0.00000000000E+00 -0.66074427133E+03  0.66074427133E+03  0.00000000000E+00 0. -1.
         25    1    1    2    0    0  0.69375499436E+02  0.27093029217E+03 -0.32930095191E+03  0.44975582271E+03  0.12500000000E+03 0.  0.
         25    1    1    2    0    0 -0.10975848231E+03 -0.32359737560E+03 -0.11805301228E+03  0.38252280931E+03  0.12500000000E+03 0.  0.
         25    1    1    2    0    0  0.40382982869E+02  0.52667083436E+02  0.21834038274E+03  0.26019632918E+03  0.12500000000E+03 0.  0.
</event>
<event>
 5    0  0.5605075E-005  0.2997632E+03  0.7546771E-02  0.1085359E+00
         21   -1    0    0  502  501  0.00000000000E+00  0.00000000000E+00  0.32208380501E+03  0.32208380501E+03  0.00000000000E+00 0. -1.
         21   -1    0    0  501  502 -0.00000000000E+00 -0.00000000000E+00 -0.27898951487E+03  0.27898951487E+03  0.00000000000E+00 0. -1.
         25    1    1    2    0    0  0.19790030491E+03 -0.54631211635E+02  0.38579133623E+01  0.24039339314E+03  0.12500000000E+03 0.  0.
         25    1    1    2    0    0 -0.55576345572E+02 -0.92599867951E+01 -0.44198728309E+02  0.14405903348E+03  0.12500000000E+03 0.  0.
         25    1    1    2    0    0 -0.14232395934E+03  0.63891198430E+02  0.83435105081E+02  0.21662089327E+03  0.12500000000E+03 0.  0.
</event>
<event>
 5    0  0.5605075E-005  0.2594468E+03  0.7546771E-02  0.1107476E+00
         21   -1    0    0  502  501  0.00000000000E+00  0.00000000000E+00  0.71451438833E+03  0.71451438833E+03  0.00000000000E+00 0. -1.
         21   -1    0    0  501  502 -0.00000000000E+00 -0.00000000000E+00 -0.94207510564E+02  0.94207510564E+02  0.00000000000E+00 0. -1.
         25    1    1    2    0    0  0.11926996561E+03  0.44736087474E+02  0.17702060548E+03  0.25137210860E+03  0.12500000000E+03 0.  0.
         25    1    1    2    0    0 -0.26792439097E+02  0.40081233921E+01  0.60838176301E+02  0.14163397736E+03  0.12500000000E+03 0.  0.
         25    1    1    2    0    0 -0.92477526508E+02 -0.48744210866E+02  0.38244809599E+03  0.41571581294E+03  0.12500000000E+03 0.  0.
</event>
<event>
 5    0  0.5605075E-005  0.5652874E+03  0.7546771E-02  0.9980161E-01
         21   -1    0    0  502  501  0.00000000000E+00  0.00000000000E+00  0.20514951648E+03  0.20514951648E+03  0.00000000000E+00 0.  1.
         21   -1    0    0  501  502 -0.00000000000E+00 -0.00000000000E+00 -0.15576438945E+04  0.15576438945E+04  0.00000000000E+00 0.  1.
         25    1    1    2    0    0 -0.77528623406E+02 -0.10162956922E+03 -0.26633476655E+03  0.32077790551E+03  0.12500000000E+03 0.  0.
         25    1    1    2    0    0  0.35814039731E+03 -0.80749687543E+02 -0.11088613292E+03  0.40336805860E+03  0.12500000000E+03 0.  0.
         25    1    1    2    0    0 -0.28061177390E+03  0.18237925677E+03 -0.97527347850E+03  0.10386474468E+04  0.12500000000E+03 0.  0.
</event>
<event>
 5    0  0.5605075E-005  0.4350563E+03  0.7546771E-02  0.1032275E+00
         21   -1    0    0  502  501  0.00000000000E+00  0.00000000000E+00  0.24179089053E+03  0.24179089053E+03  0.00000000000E+00 0. -1.
         21   -1    0    0  501  502 -0.00000000000E+00 -0.00000000000E+00 -0.78280014303E+03  0.78280014303E+03  0.00000000000E+00 0. -1.
         25    1    1    2    0    0  0.19888866743E+03 -0.60599056419E+02 -0.17256606247E+03  0.29771293823E+03  0.12500000000E+03 0.  0.
         25    1    1    2    0    0  0.18103390780E+03  0.44317353297E+01 -0.98441814921E+02  0.24105747650E+03  0.12500000000E+03 0.  0.
         25    1    1    2    0    0 -0.37992257523E+03  0.56167321089E+02 -0.27000137511E+03  0.48582061884E+03  0.12500000000E+03 0.  0.
</event>
<event>
 5    0  0.5605075E-005  0.2982865E+03  0.7546771E-02  0.1086100E+00
         21   -1    0    0  502  501  0.00000000000E+00  0.00000000000E+00  0.72805818687E+02  0.72805818687E+02  0.00000000000E+00 0. -1.
         21   -1    0    0  501  502 -0.00000000000E+00 -0.00000000000E+00 -0.12220843398E+04  0.12220843398E+04  0.00000000000E+00 0. -1.
         25    1    1    2    0    0  0.54037327183E+02  0.35481888338E+02 -0.69033049658E+03  0.70452834693E+03  0.12500000000E+03 0.  0.
         25    1    1    2    0    0 -0.93822657602E+01  0.70411916130E+02 -0.58167546130E+02  0.15509457846E+03  0.12500000000E+03 0.  0.
         25    1    1    2    0    0 -0.44655061423E+02 -0.10589380447E+03 -0.40078047839E+03  0.43526723308E+03  0.12500000000E+03 0.  0.
</event>
<event>
 5    0  0.5605075E-005  0.4357714E+03  0.7546771E-02  0.1032052E+00
         21   -1    0    0  502  501  0.00000000000E+00  0.00000000000E+00  0.41591824277E+03  0.41591824277E+03  0.00000000000E+00 0.  1.
         21   -1    0    0  501  502 -0.00000000000E+00 -0.00000000000E+00 -0.45657217450E+03  0.45657217450E+03  0.00000000000E+00 0.  1.
         25    1    1    2    0    0 -0.51718293972E+02 -0.86921674601E+02 -0.75775732488E+02  0.17775579057E+03  0.12500000000E+03 0.  0.
         25    1    1    2    0    0 -0.24129242914E+03 -0.11020250491E+03 -0.77946130052E+02  0.30342581900E+03  0.12500000000E+03 0.  0.
         25    1    1    2    0    0  0.29301072311E+03  0.19712417951E+03  0.11306793081E+03  0.39130880770E+03  0.12500000000E+03 0.  0.
</event>
<event>
 5    0  0.5605075E-005  0.2766049E+03  0.7546771E-02  0.1097558E+00
         21   -1    0    0  502  501  0.00000000000E+00  0.00000000000E+00  0.10511198418E+03  0.10511198418E+03  0.00000000000E+00 0. -1.
         21   -1    0    0  501  502 -0.00000000000E+00 -0.00000000000E+00 -0.72789285451E+03  0.72789285451E+03  0.00000000000E+00 0. -1.
         25    1    1    2    0    0  0.19160817730E+02  0.18066797766E+01 -0.55812813343E+02  0.13824062775E+03  0.12500000000E+03 0.  0.
         25    1    1    2    0    0 -0.10219701403E+02  0.13186695340E+03 -0.42708489432E+03  0.46424114709E+03  0.12500000000E+03 0.  0.
         25    1    1    2    0    0 -0.89411163271E+01 -0.13367363318E+03 -0.13988316267E+03  0.23052306385E+03  0.12500000000E+03 0.  0.
</event>
<event>
 5    0  0.5605075E-005  0.2995140E+03  0.7546771E-02  0.1085484E+00
         21   -1    0    0  502  501  0.00000000000E+00  0.00000000000E+00  0.57538358952E+03  0.57538358952E+03  0.00000000000E+00 0. -1.
         21   -1    0    0  501  502 -0.00000000000E+00 -0.00000000000E+00 -0.15591100493E+03  0.15591100493E+03  0.00000000000E+00 0. -1.
         25    1    1    2    0    0  0.50840927507E+02 -0.72556243930E+02 -0.11376942001E+02  0.15363477228E+03  0.12500000000E+03 0.  0.
         25    1    1    2    0    0  0.16122114487E+02  0.16893046845E+03  0.20417859375E+03  0.29344731025E+03  0.12500000000E+03 0.  0.
         25    1    1    2    0    0 -0.66963041993E+02 -0.96374224519E+02  0.22667093284E+03  0.28421251193E+03  0.12500000000E+03 0.  0.
</event>
<event>
 5    0  0.5605075E-005  0.3492058E+03  0.7546771E-02  0.1062941E+00
         21   -1    0    0  502  501  0.00000000000E+00  0.00000000000E+00  0.15261092034E+03  0.15261092034E+03  0.00000000000E+00 0. -1.
         21   -1    0    0  501  502 -0.00000000000E+00 -0.00000000000E+00 -0.79905625784E+03  0.79905625784E+03  0.00000000000E+00 0. -1.
         25    1    1    2    0    0 -0.34747689266E+02  0.26173797073E+03 -0.14275260437E+03  0.32514223546E+03  0.12500000000E+03 0.  0.
         25    1    1    2    0    0  0.41627198317E+02 -0.13969416403E+03 -0.31799806206E+03  0.37147685067E+03  0.12500000000E+03 0.  0.
         25    1    1    2    0    0 -0.68795090515E+01 -0.12204380669E+03 -0.18569467107E+03  0.25504809206E+03  0.12500000000E+03 0.  0.
</event>
<event>
 5    0  0.5605075E-005  0.2773265E+03  0.7546771E-02  0.1097158E+00
         21   -1    0    0  502  501  0.00000000000E+00  0.00000000000E+00  0.11341140819E+03  0.11341140819E+03  0.00000000000E+00 0. -1.
         21   -1    0    0  501  502 -0.00000000000E+00 -0.00000000000E+00 -0.67815031886E+03  0.67815031886E+03  0.00000000000E+00 0. -1.
         25    1    1    2    0    0 -0.65406349350E+02  0.11494962458E+03 -0.88568624223E+02  0.20238776624E+03  0.12500000000E+03 0.  0.
         25    1    1    2    0    0 -0.40952699471E+02 -0.73976314970E+02 -0.11297259912E+03  0.18851373139E+03  0.12500000000E+03 0.  0.
         25    1    1    2    0    0  0.10635904882E+03 -0.40973309610E+02 -0.36319768733E+03  0.40066022943E+03  0.12500000000E+03 0.  0.
</event>
<event>
 5    0  0.5605075E-005  0.3121194E+03  0.7546771E-02  0.1079334E+00
         21   -1    0    0  502  501  0.00000000000E+00  0.00000000000E+00  0.31072667353E+03  0.31072667353E+03  0.00000000000E+00 0. -1.
         21   -1    0    0  501  502 -0.00000000000E+00 -0.00000000000E+00 -0.31351842593E+03  0.31351842593E+03  0.00000000000E+00 0. -1.
         25    1    1    2    0    0 -0.12262724419E+03  0.36965412054E+02 -0.17875964555E+03  0.25295037771E+03  0.12500000000E+03 0.  0.
         25    1    1    2    0    0  0.30475480090E+02 -0.80042159573E+02  0.31297133783E+02  0.15472560479E+03  0.12500000000E+03 0.  0.
         25    1    1    2    0    0  0.92151764102E+02  0.43076747519E+02  0.14467075937E+03  0.21656911696E+03  0.12500000000E+03 0.  0.
</event>
<event>
 5    0  0.5605075E-005  0.4053661E+03  0.7546771E-02  0.1041937E+00
         21   -1    0    0  502  501  0.00000000000E+00  0.00000000000E+00  0.19206566335E+03  0.19206566335E+03  0.00000000000E+00 0.  1.
         21   -1    0    0  501  502 -0.00000000000E+00 -0.00000000000E+00 -0.85554931756E+03  0.85554931756E+03  0.00000000000E+00 0.  1.
         25    1    1    2    0    0  0.75681658132E+02  0.10390638961E+02  0.75977823509E+02  0.16502517511E+03  0.12500000000E+03 0.  0.
         25    1    1    2    0    0  0.38378641167E+02 -0.14809011848E+03 -0.57898149543E+03  0.61175826544E+03  0.12500000000E+03 0.  0.
         25    1    1    2    0    0 -0.11406029930E+03  0.13769947952E+03 -0.16047998229E+03  0.27083154036E+03  0.12500000000E+03 0.  0.
</event>
<event>
 5    0  0.5642853E-005  0.2454782E+03  0.7546771E-02  0.1116196E+00
         21   -1    0    0  502  501  0.00000000000E+00  0.00000000000E+00  0.31910211111E+03  0.31910211111E+03  0.00000000000E+00 0.  1.
         21   -1    0    0  501  502 -0.00000000000E+00 -0.00000000000E+00 -0.18884098502E+03  0.18884098502E+03  0.00000000000E+00 0.  1.
         25    1    1    2    0    0 -0.15802454644E+02 -0.81099874409E+02  0.21597039563E+02  0.15138804220E+03  0.12500000000E+03 0.  0.
         25    1    1    2    0    0 -0.17750905720E+02 -0.33712646238E+02 -0.30886308650E+02  0.13427807428E+03  0.12500000000E+03 0.  0.
         25    1    1    2    0    0  0.33553360364E+02  0.11481252065E+03  0.13955039518E+03  0.22227697965E+03  0.12500000000E+03 0.  0.
</event>
<event>
 5    0  0.5605075E-005  0.2767771E+03  0.7546771E-02  0.1097462E+00
         21   -1    0    0  502  501  0.00000000000E+00  0.00000000000E+00  0.11672129356E+04  0.11672129356E+04  0.00000000000E+00 0.  1.
         21   -1    0    0  501  502 -0.00000000000E+00 -0.00000000000E+00 -0.65631180899E+02  0.65631180899E+02  0.00000000000E+00 0.  1.
         25    1    1    2    0    0 -0.84467209236E+01  0.54168918767E+02  0.27714357280E+03  0.30893232074E+03  0.12500000000E+03 0.  0.
         25    1    1    2    0    0 -0.83408333922E+02  0.10479418939E+03  0.26657426320E+03  0.32345882288E+03  0.12500000000E+03 0.  0.
         25    1    1    2    0    0  0.91855054845E+02 -0.15896310815E+03  0.55786391875E+03  0.60045297293E+03  0.12500000000E+03 0.  0.
</event>
<event>
 5    0  0.5605075E-005  0.3028182E+03  0.7546771E-02  0.1083840E+00
         21   -1    0    0  502  501  0.00000000000E+00  0.00000000000E+00  0.19064330250E+03  0.19064330250E+03  0.00000000000E+00 0. -1.
         21   -1    0    0  501  502 -0.00000000000E+00 -0.00000000000E+00 -0.48099714465E+03  0.48099714465E+03  0.00000000000E+00 0. -1.
         25    1    1    2    0    0  0.12259910542E+03  0.63297765560E+01 -0.96350600985E+02  0.19994760571E+03  0.12500000000E+03 0.  0.
         25    1    1    2    0    0  0.75182332911E+02 -0.13874589786E+02 -0.18690309233E+03  0.23749242798E+03  0.12500000000E+03 0.  0.
         25    1    1    2    0    0 -0.19778143833E+03  0.75448132305E+01 -0.71001488339E+01  0.23420041346E+03  0.12500000000E+03 0.  0.
</event>
<event>
 5    0  0.5605075E-005  0.2725147E+03  0.7546771E-02  0.1099849E+00
         21   -1    0    0  502  501  0.00000000000E+00  0.00000000000E+00  0.35374545050E+03  0.35374545050E+03  0.00000000000E+00 0.  1.
         21   -1    0    0  501  502 -0.00000000000E+00 -0.00000000000E+00 -0.20993697724E+03  0.20993697724E+03  0.00000000000E+00 0.  1.
         25    1    1    2    0    0 -0.17542668121E+02 -0.66586950068E+02  0.15678292098E+03  0.21200814002E+03  0.12500000000E+03 0.  0.
         25    1    1    2    0    0  0.39941643059E+01  0.14384599465E+02 -0.12347485524E+03  0.17633465322E+03  0.12500000000E+03 0.  0.
         25    1    1    2    0    0  0.13548503816E+02  0.52202350603E+02  0.11050040753E+03  0.17533963450E+03  0.12500000000E+03 0.  0.
</event>
<event>
 5    0  0.5605075E-005  0.2619317E+03  0.7546771E-02  0.1105988E+00
         21   -1    0    0  502  501  0.00000000000E+00  0.00000000000E+00  0.29016392637E+02  0.29016392637E+02  0.00000000000E+00 0.  1.
         21   -1    0    0  501  502 -0.00000000000E+00 -0.00000000000E+00 -0.23644645909E+04  0.23644645909E+04  0.00000000000E+00 0.  1.
         25    1    1    2    0    0  0.31254966659E+02 -0.65544577489E+02 -0.27611864277E+03  0.31167205435E+03  0.12500000000E+03 0.  0.
         25    1    1    2    0    0 -0.78860651161E+02  0.57042350551E+01 -0.76132548735E+03  0.77555982251E+03  0.12500000000E+03 0.  0.
         25    1    1    2    0    0  0.47605684503E+02  0.59840342434E+02 -0.12980040682E+04  0.13062491067E+04  0.12500000000E+03 0.  0.
</event>
<event>
 5    0  0.5605075E-005  0.2902272E+03  0.7546771E-02  0.1090231E+00
         21   -1    0    0  502  501  0.00000000000E+00  0.00000000000E+00  0.31005863732E+03  0.31005863732E+03  0.00000000000E+00 0. -1.
         21   -1    0    0  501  502 -0.00000000000E+00 -0.00000000000E+00 -0.27166414888E+03  0.27166414888E+03  0.00000000000E+00 0. -1.
         25    1    1    2    0    0 -0.42887964567E+02 -0.52947957359E+02 -0.89820426741E+02  0.16833173424E+03  0.12500000000E+03 0.  0.
         25    1    1    2    0    0  0.86064822030E+02 -0.34690040231E+02  0.18778746682E+03  0.24392557303E+03  0.12500000000E+03 0.  0.
         25    1    1    2    0    0 -0.43176857463E+02  0.87637997590E+02 -0.59572551641E+02  0.16946547894E+03  0.12500000000E+03 0.  0.
</event>
<event>
 5    0  0.5970481E-005  0.2857624E+03  0.7546771E-02  0.1092583E+00
         21   -1    0    0  502  501  0.00000000000E+00  0.00000000000E+00  0.40791612650E+03  0.40791612650E+03  0.00000000000E+00 0. -1.
         21   -1    0    0  501  502 -0.00000000000E+00 -0.00000000000E+00 -0.20018853896E+03  0.20018853896E+03  0.00000000000E+00 0. -1.
         25    1    1    2    0    0 -0.95140676193E+02 -0.43183892175E+02  0.18570210919E+03  0.24703617178E+03  0.12500000000E+03 0.  0.
         25    1    1    2    0    0  0.87670909148E+02 -0.75927095851E+02 -0.43932281481E+02  0.17608565402E+03  0.12500000000E+03 0.  0.
         25    1    1    2    0    0  0.74697670449E+01  0.11911098803E+03  0.65957759825E+02  0.18498283966E+03  0.12500000000E+03 0.  0.
</event>
<event>
 5    0  0.5605075E-005  0.2425185E+03  0.7546771E-02  0.1118126E+00
         21   -1    0    0  502  501  0.00000000000E+00  0.00000000000E+00  0.26659674689E+03  0.26659674689E+03  0.00000000000E+00 0.  1.
         21   -1    0    0  501  502 -0.00000000000E+00 -0.00000000000E+00 -0.22061488222E+03  0.22061488222E+03  0.00000000000E+00 0.  1.
         25    1    1    2    0    0  0.40444418978E+02 -0.81723565122E+02  0.39073423886E+02  0.15958140423E+03  0.12500000000E+03 0.  0.
         25    1    1    2    0    0  0.35205808479E+01  0.13558643205E+03  0.43830004042E+00  0.18444854879E+03  0.12500000000E+03 0.  0.
         25    1    1    2    0    0 -0.43964999826E+02 -0.53862866927E+02  0.64701407398E+01  0.14318167608E+03  0.12500000000E+03 0.  0.
</event>
<event>
 5    0  0.5605075E-005  0.2370698E+03  0.7546771E-02  0.1121760E+00
         21   -1    0    0  502  501  0.00000000000E+00  0.00000000000E+00  0.12362171627E+02  0.12362171627E+02  0.00000000000E+00 0.  1.
         21   -1    0    0  501  502 -0.00000000000E+00 -0.00000000000E+00 -0.45462947256E+04  0.45462947256E+04  0.00000000000E+00 0.  1.
         25    1    1    2    0    0 -0.17906515959E+02  0.57500197173E+02 -0.66586923663E+03  0.68017185790E+03  0.12500000000E+03 0.  0.
         25    1    1    2    0    0 -0.12214653625E+02 -0.41576027330E+02 -0.11985410763E+04  0.12058206647E+04  0.12500000000E+03 0.  0.
         25    1    1    2    0    0  0.30121169583E+02 -0.15924169843E+02 -0.26695222410E+04  0.26726643746E+04  0.12500000000E+03 0.  0.
</event>
<event>
 5    0  0.5605075E-005  0.2996942E+03  0.7546771E-02  0.1085394E+00
         21   -1    0    0  502  501  0.00000000000E+00  0.00000000000E+00  0.32860346509E+03  0.32860346509E+03  0.00000000000E+00 0.  1.
         21   -1    0    0  501  502 -0.00000000000E+00 -0.00000000000E+00 -0.27332833605E+03  0.27332833605E+03  0.00000000000E+00 0.  1.
         25    1    1    2    0    0  0.13357891742E+03  0.34739695056E+02 -0.27685734226E+02  0.18825959065E+03  0.12500000000E+03 0.  0.
         25    1    1    2    0    0 -0.18182704299E+03 -0.71440015001E+02  0.13137950690E+03  0.26655266673E+03  0.12500000000E+03 0.  0.
         25    1    1    2    0    0  0.48248125574E+02  0.36700319945E+02 -0.48418643630E+02  0.14711954376E+03  0.12500000000E+03 0.  0.
</event>
<event>
 5    0  0.5605075E-005  0.3974825E+03  0.7546771E-02  0.1044655E+00
         21   -1    0    0  502  501  0.00000000000E+00  0.00000000000E+00  0.24446678462E+03  0.24446678462E+03  0.00000000000E+00 0. -1.
         21   -1    0    0  501  502 -0.00000000000E+00 -0.00000000000E+00 -0.64627336932E+03  0.64627336932E+03  0.00000000000E+00 0. -1.
         25    1    1    2    0    0  0.94269384318E+00  0.91078906333E+02 -0.35315047794E+01  0.15470529201E+03  0.12500000000E+03 0.  0.
         25    1    1    2    0    0  0.25424772666E+03  0.61165461061E+02 -0.24292784271E+03  0.37818257086E+03  0.12500000000E+03 0.  0.
         25    1    1    2    0    0 -0.25519042050E+03 -0.15224436739E+03 -0.15534723721E+03  0.35785229108E+03  0.12500000000E+03 0.  0.
</event>
<event>
 5    0  0.5605075E-005  0.4306018E+03  0.7546771E-02  0.1033670E+00
         21   -1    0    0  502  501  0.00000000000E+00  0.00000000000E+00  0.23351595629E+03  0.23351595629E+03  0.00000000000E+00 0. -1.
         21   -1    0    0  501  502 -0.00000000000E+00 -0.00000000000E+00 -0.79402675573E+03  0.79402675573E+03  0.00000000000E+00 0. -1.
         25    1    1    2    0    0 -0.33968015792E+01  0.67773704238E+02 -0.46240850138E+02  0.14955945128E+03  0.12500000000E+03 0.  0.
         25    1    1    2    0    0  0.28984045324E+02  0.28654452775E+03 -0.12960080655E+03  0.33966043385E+03  0.12500000000E+03 0.  0.
         25    1    1    2    0    0 -0.25587243745E+02 -0.35431823198E+03 -0.38466914275E+03  0.53832282688E+03  0.12500000000E+03 0.  0.
</event>
<event>
 5    0  0.5605075E-005  0.2306386E+03  0.7546771E-02  0.1126191E+00
         21   -1    0    0  502  501  0.00000000000E+00  0.00000000000E+00  0.39574614709E+03  0.39574614709E+03  0.00000000000E+00 0. -1.
         21   -1    0    0  501  502 -0.00000000000E+00 -0.00000000000E+00 -0.13441481468E+03  0.13441481468E+03  0.00000000000E+00 0. -1.
         25    1    1    2    0    0  0.18229096401E+02 -0.51751168180E+02  0.18531404312E+03  0.23016684805E+03  0.12500000000E+03 0.  0.
         25    1    1    2    0    0 -0.22250940309E+02 -0.18708555847E+02  0.88520190962E+02  0.15590361963E+03  0.12500000000E+03 0.  0.
         25    1    1    2    0    0  0.40218439084E+01  0.70459724027E+02 -0.12502901667E+02  0.14409049409E+03  0.12500000000E+03 0.  0.
</event>
<event>
 5    0  0.5605075E-005  0.2893918E+03  0.7546771E-02  0.1090667E+00
         21   -1    0    0  502  501  0.00000000000E+00  0.00000000000E+00  0.98104921431E+03  0.98104921431E+03  0.00000000000E+00 0. -1.
         21   -1    0    0  501  502 -0.00000000000E+00 -0.00000000000E+00 -0.85365354095E+02  0.85365354095E+02  0.00000000000E+00 0.  1.
         25    1    1    2    0    0  0.10821194561E+03 -0.67484223897E+02  0.47728339767E+03  0.50959629839E+03  0.12500000000E+03 0.  0.
         25    1    1    2    0    0 -0.14966085706E+03 -0.25587891054E+02  0.29137435446E+03  0.35153538476E+03  0.12500000000E+03 0.  0.
         25    1    1    2    0    0  0.41448911446E+02  0.93072114950E+02  0.12702610810E+03  0.20528288526E+03  0.12500000000E+03 0.  0.
</event>
<event>
 5    0  0.5605075E-005  0.5316173E+03  0.7546771E-02  0.1005841E+00
         21   -1    0    0  502  501  0.00000000000E+00  0.00000000000E+00  0.15562651744E+03  0.15562651744E+03  0.00000000000E+00 0.  1.
         21   -1    0    0  501  502 -0.00000000000E+00 -0.00000000000E+00 -0.18159945260E+04  0.18159945260E+04  0.00000000000E+00 0.  1.
         25    1    1    2    0    0  0.64331599142E+02  0.43096074528E+03 -0.52120016406E+03  0.69075345068E+03  0.12500000000E+03 0.  0.
         25    1    1    2    0    0  0.29297902716E+02 -0.95933931806E+02 -0.63984721596E+03  0.65961439201E+03  0.12500000000E+03 0.  0.
         25    1    1    2    0    0 -0.93629501858E+02 -0.33502681347E+03 -0.49932062855E+03  0.62125320076E+03  0.12500000000E+03 0.  0.
</event>
<event>
 5    0  0.5605075E-005  0.2809325E+03  0.7546771E-02  0.1095181E+00
         21   -1    0    0  502  501  0.00000000000E+00  0.00000000000E+00  0.69396563820E+03  0.69396563820E+03  0.00000000000E+00 0.  1.
         21   -1    0    0  501  502 -0.00000000000E+00 -0.00000000000E+00 -0.11372761911E+03  0.11372761911E+03  0.00000000000E+00 0.  1.
         25    1    1    2    0    0  0.66945834771E+02 -0.43823821054E+02  0.18048617960E+03  0.23367184920E+03  0.12500000000E+03 0.  0.
         25    1    1    2    0    0  0.49411213898E+02  0.13752082611E+03  0.10055049383E+03  0.21699964858E+03  0.12500000000E+03 0.  0.
         25    1    1    2    0    0 -0.11635704867E+03 -0.93697005058E+02  0.29920134567E+03  0.35702175953E+03  0.12500000000E+03 0.  0.
</event>
<event>
 5    0  0.5605075E-005  0.3274400E+03  0.7546771E-02  0.1072275E+00
         21   -1    0    0  502  501  0.00000000000E+00  0.00000000000E+00  0.18833658156E+04  0.18833658156E+04  0.00000000000E+00 0. -1.
         21   -1    0    0  501  502 -0.00000000000E+00 -0.00000000000E+00 -0.56928377597E+02  0.56928377597E+02  0.00000000000E+00 0. -1.
         25    1    1    2    0    0 -0.71477715713E+01 -0.12957020435E+03  0.20876210917E+03  0.27576465821E+03  0.12500000000E+03 0.  0.
         25    1    1    2    0    0  0.29349327202E+02  0.20644685286E+02  0.12908249043E+04  0.12973594412E+04  0.12500000000E+03 0.  0.
         25    1    1    2    0    0 -0.22201555631E+02  0.10892551906E+03  0.32685042454E+03  0.36717009382E+03  0.12500000000E+03 0.  0.
</event>
<event>
 5    0  0.5605075E-005  0.2755746E+03  0.7546771E-02  0.1098131E+00
         21   -1    0    0  502  501  0.00000000000E+00  0.00000000000E+00  0.33799382811E+02  0.33799382811E+02  0.00000000000E+00 0. -1.
         21   -1    0    0  501  502 -0.00000000000E+00 -0.00000000000E+00 -0.22468262405E+04  0.22468262405E+04  0.00000000000E+00 0. -1.
         25    1    1    2    0    0  0.15309480757E+03  0.63251168586E+02 -0.69919450122E+03  0.72933989400E+03  0.12500000000E+03 0.  0.
         25    1    1    2    0    0 -0.48186417504E+02 -0.60245658510E+02 -0.41140558770E+03  0.43684210854E+03  0.12500000000E+03 0.  0.
         25    1    1    2    0    0 -0.10490839007E+03 -0.30055100762E+01 -0.11024267687E+04  0.11144436207E+04  0.12500000000E+03 0.  0.
</event>
<event>
 5    0  0.5605075E-005  0.3114651E+03  0.7546771E-02  0.1079646E+00
         21   -1    0    0  502  501  0.00000000000E+00  0.00000000000E+00  0.20266818444E+03  0.20266818444E+03  0.00000000000E+00 0. -1.
         21   -1    0    0  501  502 -0.00000000000E+00 -0.00000000000E+00 -0.47866677711E+03  0.47866677711E+03  0.00000000000E+00 0. -1.
         25    1    1    2    0    0  0.62258084774E+02  0.47030325088E+02  0.11854075926E+02  0.14782908954E+03  0.12500000000E+03 0.  0.
         25    1    1    2    0    0  0.51201185586E+02 -0.13450264104E+03 -0.28558748237E+03  0.34336239157E+03  0.12500000000E+03 0.  0.
         25    1    1    2    0    0 -0.11345927036E+03  0.87472315956E+02 -0.22651862280E+01  0.19014348045E+03  0.12500000000E+03 0.  0.
</event>
<event>
 5    0  0.5605075E-005  0.3229231E+03  0.7546771E-02  0.1074312E+00
         21   -1    0    0  502  501  0.00000000000E+00  0.00000000000E+00  0.36540927087E+03  0.36540927087E+03  0.00000000000E+00 0. -1.
         21   -1    0    0  501  502 -0.00000000000E+00 -0.00000000000E+00 -0.28537682622E+03  0.28537682622E+03  0.00000000000E+00 0. -1.
         25    1    1    2    0    0  0.95528677924E+02 -0.22351357962E+03  0.10957427222E+03  0.29447507486E+03  0.12500000000E+03 0.  0.
         25    1    1    2    0    0 -0.48560789792E+02  0.92726673163E+02  0.16325197894E+02  0.16385328287E+03  0.12500000000E+03 0.  0.
         25    1    1    2    0    0 -0.46967888132E+02  0.13078690646E+03 -0.45867025460E+02  0.19245773936E+03  0.12500000000E+03 0.  0.
</event>
<event>
 5    0  0.5605075E-005  0.2290898E+03  0.7546771E-02  0.1127282E+00
         21   -1    0    0  502  501  0.00000000000E+00  0.00000000000E+00  0.49976925506E+03  0.49976925506E+03  0.00000000000E+00 0.  1.
         21   -1    0    0  501  502 -0.00000000000E+00 -0.00000000000E+00 -0.10501273970E+03  0.10501273970E+03  0.00000000000E+00 0.  1.
         25    1    1    2    0    0 -0.54751886487E+02 -0.10071537009E+03  0.83128063366E+02  0.18888258195E+03  0.12500000000E+03 0.  0.
         25    1    1    2    0    0  0.22488655851E+02  0.49562799243E+02  0.14587835662E+03  0.19966899019E+03  0.12500000000E+03 0.  0.
         25    1    1    2    0    0  0.32263230637E+02  0.51152570845E+02  0.16575009537E+03  0.21623042263E+03  0.12500000000E+03 0.  0.
</event>
<event>
 5    0  0.5605075E-005  0.2771770E+03  0.7546771E-02  0.1097241E+00
         21   -1    0    0  502  501  0.00000000000E+00  0.00000000000E+00  0.29648840333E+03  0.29648840333E+03  0.00000000000E+00 0.  1.
         21   -1    0    0  501  502 -0.00000000000E+00 -0.00000000000E+00 -0.25912336391E+03  0.25912336391E+03  0.00000000000E+00 0.  1.
         25    1    1    2    0    0 -0.13597470340E+03 -0.28539533473E+02  0.10239987355E+03  0.21310645002E+03  0.12500000000E+03 0.  0.
         25    1    1    2    0    0  0.10605355060E+03 -0.51858743013E+02  0.12186158045E+02  0.17236643313E+03  0.12500000000E+03 0.  0.
         25    1    1    2    0    0  0.29921152799E+02  0.80398276486E+02 -0.77220992171E+02  0.17013888409E+03  0.12500000000E+03 0.  0.
</event>
<event>
 5    0  0.5605075E-005  0.3760572E+03  0.7546771E-02  0.1052401E+00
         21   -1    0    0  502  501  0.00000000000E+00  0.00000000000E+00  0.16058256529E+04  0.16058256529E+04  0.00000000000E+00 0. -1.
         21   -1    0    0  501  502 -0.00000000000E+00 -0.00000000000E+00 -0.88066223746E+02  0.88066223746E+02  0.00000000000E+00 0. -1.
         25    1    1    2    0    0  0.19033027743E+03 -0.91540119699E+02  0.46137513760E+03  0.52258705075E+03  0.12500000000E+03 0.  0.
         25    1    1    2    0    0  0.94018557164E+02 -0.50439037596E+02  0.33201180396E+03  0.37045974622E+03  0.12500000000E+03 0.  0.
         25    1    1    2    0    0 -0.28434883459E+03  0.14197915730E+03  0.72437248761E+03  0.80084507968E+03  0.12500000000E+03 0.  0.
</event>
<event>
 5    0  0.6813574E-005  0.3162807E+03  0.7546771E-02  0.1077374E+00
         21   -1    0    0  502  501  0.00000000000E+00  0.00000000000E+00  0.64078740923E+03  0.64078740923E+03  0.00000000000E+00 0. -1.
         21   -1    0    0  501  502 -0.00000000000E+00 -0.00000000000E+00 -0.15611024222E+03  0.15611024222E+03  0.00000000000E+00 0. -1.
         25    1    1    2    0    0  0.13941805996E+03 -0.72693496616E+02  0.71559804266E+01  0.20099240769E+03  0.12500000000E+03 0.  0.
         25    1    1    2    0    0 -0.10676756537E+03  0.24624890234E+01  0.10415313884E+03  0.19462336241E+03  0.12500000000E+03 0.  0.
         25    1    1    2    0    0 -0.32650494594E+02  0.70231007592E+02  0.37336804775E+03  0.40128188136E+03  0.12500000000E+03 0.  0.
</event>
<event>
 5    0  0.5605075E-005  0.3169576E+03  0.7546771E-02  0.1077058E+00
         21   -1    0    0  502  501  0.00000000000E+00  0.00000000000E+00  0.36553543467E+03  0.36553543467E+03  0.00000000000E+00 0.  1.
         21   -1    0    0  501  502 -0.00000000000E+00 -0.00000000000E+00 -0.27483559234E+03  0.27483559234E+03  0.00000000000E+00 0.  1.
         25    1    1    2    0    0  0.11600308026E+03 -0.20718930151E+03  0.53576766870E+02  0.27364135513E+03  0.12500000000E+03 0.  0.
         25    1    1    2    0    0 -0.15236479816E+01  0.82876061294E+02  0.44347755569E+02  0.15640487992E+03  0.12500000000E+03 0.  0.
         25    1    1    2    0    0 -0.11447943228E+03  0.12431324021E+03 -0.72246801070E+01  0.21032479195E+03  0.12500000000E+03 0.  0.
</event>
<event>
 5    0  0.5605075E-005  0.2961321E+03  0.7546771E-02  0.1087190E+00
         21   -1    0    0  502  501  0.00000000000E+00  0.00000000000E+00  0.40061008753E+03  0.40061008753E+03  0.00000000000E+00 0.  1.
         21   -1    0    0  501  502 -0.00000000000E+00 -0.00000000000E+00 -0.21890169498E+03  0.21890169498E+03  0.00000000000E+00 0.  1.
         25    1    1    2    0    0 -0.47205796291E+02  0.18253666721E+03  0.33277599786E+02  0.22864912143E+03  0.12500000000E+03 0.  0.
         25    1    1    2    0    0  0.75359505632E+02 -0.10725444169E+03  0.43378958701E+00  0.18112912114E+03  0.12500000000E+03 0.  0.
         25    1    1    2    0    0 -0.28153709340E+02 -0.75282225526E+02  0.14799700317E+03  0.20973353994E+03  0.12500000000E+03 0.  0.
</event>
<event>
 5    0  0.5981226E-005  0.3006150E+03  0.7546771E-02  0.1084934E+00
         21   -1    0    0  502  501  0.00000000000E+00  0.00000000000E+00  0.99622273758E+02  0.99622273758E+02  0.00000000000E+00 0.  1.
         21   -1    0    0  501  502 -0.00000000000E+00 -0.00000000000E+00 -0.90712010033E+03  0.90712010033E+03  0.00000000000E+00 0.  1.
         25    1    1    2    0    0  0.28103648993E+02 -0.13047275123E+03 -0.22538197254E+03  0.29023264366E+03  0.12500000000E+03 0.  0.
         25    1    1    2    0    0  0.98484015071E+02  0.19014708653E+02 -0.42523293902E+03  0.45443229727E+03  0.12500000000E+03 0.  0.
         25    1    1    2    0    0 -0.12658766406E+03  0.11145804258E+03 -0.15688291501E+03  0.26207743316E+03  0.12500000000E+03 0.  0.
</event>
<event>
 5    0  0.5605075E-005  0.4466456E+03  0.7546771E-02  0.1028727E+00
         21   -1    0    0  502  501  0.00000000000E+00  0.00000000000E+00  0.94407014276E+03  0.94407014276E+03  0.00000000000E+00 0. -1.
         21   -1    0    0  501  502 -0.00000000000E+00 -0.00000000000E+00 -0.21131085717E+03  0.21131085717E+03  0.00000000000E+00 0. -1.
         25    1    1    2    0    0 -0.17589602751E+03 -0.19477608047E+03  0.51604083656E+03  0.59228395134E+03  0.12500000000E+03 0.  0.
         25    1    1    2    0    0  0.12112110716E+03 -0.93951236691E+02  0.55937511408E+02  0.20555087608E+03  0.12500000000E+03 0.  0.
         25    1    1    2    0    0  0.54774920351E+02  0.28872731716E+03  0.16078093761E+03  0.35754617250E+03  0.12500000000E+03 0.  0.
</event>
<event>
 5    0  0.6889321E-005  0.6398615E+03  0.7546771E-02  0.9825992E-01
         21   -1    0    0  502  501  0.00000000000E+00  0.00000000000E+00  0.64924006704E+03  0.64924006704E+03  0.00000000000E+00 0. -1.
         21   -1    0    0  501  502 -0.00000000000E+00 -0.00000000000E+00 -0.63061839784E+03  0.63061839784E+03  0.00000000000E+00 0. -1.
         25    1    1    2    0    0  0.13261688111E+03  0.79759694846E+02 -0.21421083096E+03  0.29233563960E+03  0.12500000000E+03 0.  0.
         25    1    1    2    0    0 -0.23703408852E+02 -0.49420759392E+03  0.85341288102E+02  0.51740809129E+03  0.12500000000E+03 0.  0.
         25    1    1    2    0    0 -0.10891347226E+03  0.41444789907E+03  0.14749121206E+03  0.47011473399E+03  0.12500000000E+03 0.  0.
</event>
<event>
 5    0  0.5605075E-005  0.3977036E+03  0.7546771E-02  0.1044578E+00
         21   -1    0    0  502  501  0.00000000000E+00  0.00000000000E+00  0.42137581829E+03  0.42137581829E+03  0.00000000000E+00 0. -1.
         21   -1    0    0  501  502 -0.00000000000E+00 -0.00000000000E+00 -0.37536133707E+03  0.37536133707E+03  0.00000000000E+00 0. -1.
         25    1    1    2    0    0  0.18574302463E+03  0.17397814752E+03 -0.18930202668E+03  0.34092392746E+03  0.12500000000E+03 0.  0.
         25    1    1    2    0    0 -0.88401465891E+02  0.19253553220E+01  0.10406804706E+03  0.18513153320E+03  0.12500000000E+03 0.  0.
         25    1    1    2    0    0 -0.97341558734E+02 -0.17590350284E+03  0.13124846084E+03  0.27068169469E+03  0.12500000000E+03 0.  0.
</event>
<event>
 5    0  0.5605075E-005  0.4319158E+03  0.7546771E-02  0.1033256E+00
         21   -1    0    0  502  501  0.00000000000E+00  0.00000000000E+00  0.88893410658E+02  0.88893410658E+02  0.00000000000E+00 0.  1.
         21   -1    0    0  501  502 -0.00000000000E+00 -0.00000000000E+00 -0.20985947240E+04  0.20985947240E+04  0.00000000000E+00 0.  1.
         25    1    1    2    0    0 -0.83575666604E+02  0.23001718416E+03 -0.44545385269E+03  0.52339940002E+03  0.12500000000E+03 0.  0.
         25    1    1    2    0    0  0.86867246712E+02 -0.10206643405E+03 -0.14266906740E+04  0.14384139720E+04  0.12500000000E+03 0.  0.
         25    1    1    2    0    0 -0.32915801084E+01 -0.12795075011E+03 -0.13755678668E+03  0.22567476269E+03  0.12500000000E+03 0.  0.
</event>
<event>
 5    0  0.5605075E-005  0.2464671E+03  0.7546771E-02  0.1115558E+00
         21   -1    0    0  502  501  0.00000000000E+00  0.00000000000E+00  0.17818069478E+03  0.17818069478E+03  0.00000000000E+00 0.  1.
         21   -1    0    0  501  502 -0.00000000000E+00 -0.00000000000E+00 -0.34092387164E+03  0.34092387164E+03  0.00000000000E+00 0.  1.
         25    1    1    2    0    0 -0.59805780958E+02 -0.35756346358E+02  0.91905630031E+01  0.14340402431E+03  0.12500000000E+03 0.  0.
         25    1    1    2    0    0  0.41270090407E+02  0.71945993768E+02  0.11023567274E+02  0.15041929869E+03  0.12500000000E+03 0.  0.
         25    1    1    2    0    0  0.18535690551E+02 -0.36189647410E+02 -0.18295730714E+03  0.22528124342E+03  0.12500000000E+03 0.  0.
</event>
<event>
 5    0  0.5605075E-005  0.2701810E+03  0.7546771E-02  0.1101176E+00
         21   -1    0    0  502  501  0.00000000000E+00  0.00000000000E+00  0.43570070045E+03  0.43570070045E+03  0.00000000000E+00 0. -1.
         21   -1    0    0  501  502 -0.00000000000E+00 -0.00000000000E+00 -0.16754112584E+03  0.16754112584E+03  0.00000000000E+00 0. -1.
         25    1    1    2    0    0  0.40381950986E+02  0.37037546855E+02  0.12555845920E+03  0.18545190352E+03  0.12500000000E+03 0.  0.
         25    1    1    2    0    0 -0.50942889123E+02 -0.15351755899E+03  0.13781676547E+03  0.24653859681E+03  0.12500000000E+03 0.  0.
         25    1    1    2    0    0  0.10560938137E+02  0.11648001213E+03  0.47843499398E+01  0.17125132597E+03  0.12500000000E+03 0.  0.
</event>
<event>
 5    0  0.5605075E-005  0.2668375E+03  0.7546771E-02  0.1103103E+00
         21   -1    0    0  502  501  0.00000000000E+00  0.00000000000E+00  0.16823593105E+04  0.16823593105E+04  0.00000000000E+00 0.  1.
         21   -1    0    0  501  502 -0.00000000000E+00 -0.00000000000E+00 -0.42322868828E+02  0.42322868828E+02  0.00000000000E+00 0.  1.
         25    1    1    2    0    0  0.90489638991E+02 -0.71077273639E+02  0.51475135963E+03  0.54206486313E+03  0.12500000000E+03 0.  0.
         25    1    1    2    0    0  0.12398430599E+02 -0.57493302416E+02  0.27744770327E+03  0.30993778239E+03  0.12500000000E+03 0.  0.
         25    1    1    2    0    0 -0.10288806959E+03  0.12857057605E+03  0.84783737877E+03  0.87267953381E+03  0.12500000000E+03 0.  0.
</event>
<event>
 5    0  0.5605075E-005  0.2811245E+03  0.7546771E-02  0.1095076E+00
         21   -1    0    0  502  501  0.00000000000E+00  0.00000000000E+00  0.25210332079E+03  0.25210332079E+03  0.00000000000E+00 0.  1.
         21   -1    0    0  501  502 -0.00000000000E+00 -0.00000000000E+00 -0.31348648281E+03  0.31348648281E+03  0.00000000000E+00 0.  1.
         25    1    1    2    0    0  0.11029135284E+03 -0.51692453939E+02  0.35943015404E+02  0.17819425541E+03  0.12500000000E+03 0.  0.
         25    1    1    2    0    0 -0.40053222174E+02 -0.67383676414E+02 -0.13181543671E+03  0.19785128205E+03  0.12500000000E+03 0.  0.
         25    1    1    2    0    0 -0.70238130668E+02  0.11907613035E+03  0.34489259291E+02  0.18954426614E+03  0.12500000000E+03 0.  0.
</event>
<event>
 5    0  0.5605075E-005  0.4305707E+03  0.7546771E-02  0.1033680E+00
         21   -1    0    0  502  501  0.00000000000E+00  0.00000000000E+00  0.25151657356E+03  0.25151657356E+03  0.00000000000E+00 0. -1.
         21   -1    0    0  501  502 -0.00000000000E+00 -0.00000000000E+00 -0.73709311324E+03  0.73709311324E+03  0.00000000000E+00 0. -1.
         25    1    1    2    0    0 -0.12093559465E+03 -0.17594794086E+03 -0.15295470318E+03  0.29086635621E+03  0.12500000000E+03 0.  0.
         25    1    1    2    0    0  0.21494896711E+03  0.30303883217E+03 -0.13264306381E+03  0.41382940282E+03  0.12500000000E+03 0.  0.
         25    1    1    2    0    0 -0.94013372457E+02 -0.12709089131E+03 -0.19997877269E+03  0.28391392776E+03  0.12500000000E+03 0.  0.
</event>
<event>
 5    0  0.5605075E-005  0.2663073E+03  0.7546771E-02  0.1103412E+00
         21   -1    0    0  502  501  0.00000000000E+00  0.00000000000E+00  0.23885562470E+03  0.23885562470E+03  0.00000000000E+00 0.  1.
         21   -1    0    0  501  502 -0.00000000000E+00 -0.00000000000E+00 -0.29691403335E+03  0.29691403335E+03  0.00000000000E+00 0.  1.
         25    1    1    2    0    0 -0.12127916581E+02  0.98188611672E+02 -0.40140826110E+02  0.16439092354E+03  0.12500000000E+03 0.  0.
         25    1    1    2    0    0  0.10305645899E+03  0.30614156754E+02  0.21752482543E+02  0.16630102474E+03  0.12500000000E+03 0.  0.
         25    1    1    2    0    0 -0.90928542408E+02 -0.12880276843E+03 -0.39670065089E+02  0.20507770977E+03  0.12500000000E+03 0.  0.
</event>
<event>
 5    0  0.5605075E-005  0.4681129E+03  0.7546771E-02  0.1022454E+00
         21   -1    0    0  502  501  0.00000000000E+00  0.00000000000E+00  0.72629455974E+03  0.72629455974E+03  0.00000000000E+00 0.  1.
         21   -1    0    0  501  502 -0.00000000000E+00 -0.00000000000E+00 -0.30170907820E+03  0.30170907820E+03  0.00000000000E+00 0.  1.
         25    1    1    2    0    0 -0.14022966607E+02  0.18837891198E+03  0.42470866814E+02  0.23046047948E+03  0.12500000000E+03 0.  0.
         25    1    1    2    0    0  0.76731523309E+02 -0.64443802358E+02  0.53351227251E+03  0.55704674422E+03  0.12500000000E+03 0.  0.
         25    1    1    2    0    0 -0.62708556702E+02 -0.12393510963E+03 -0.15139765778E+03  0.24049641424E+03  0.12500000000E+03 0.  0.
</event>
<event>
 5    0  0.5605075E-005  0.3396378E+03  0.7546771E-02  0.1066950E+00
         21   -1    0    0  502  501  0.00000000000E+00  0.00000000000E+00  0.45075305475E+03  0.45075305475E+03  0.00000000000E+00 0.  1.
         21   -1    0    0  501  502 -0.00000000000E+00 -0.00000000000E+00 -0.25591363915E+03  0.25591363915E+03  0.00000000000E+00 0.  1.
         25    1    1    2    0    0  0.20899666388E+02  0.79656499337E+02  0.34155364456E+03  0.37291533363E+03  0.12500000000E+03 0.  0.
         25    1    1    2    0    0 -0.77751399042E+02 -0.20753661763E+02 -0.90865518547E+02  0.17423414416E+03  0.12500000000E+03 0.  0.
         25    1    1    2    0    0  0.56851732654E+02 -0.58902837574E+02 -0.55848710415E+02  0.15951721611E+03  0.12500000000E+03 0.  0.
</event>
<event>
 5    0  0.5605075E-005  0.2810545E+03  0.7546771E-02  0.1095114E+00
         21   -1    0    0  502  501  0.00000000000E+00  0.00000000000E+00  0.68162581738E+02  0.68162581738E+02  0.00000000000E+00 0. -1.
         21   -1    0    0  501  502 -0.00000000000E+00 -0.00000000000E+00 -0.11588711985E+04  0.11588711985E+04  0.00000000000E+00 0. -1.
         25    1    1    2    0    0 -0.16079145130E+03  0.55077088909E+02 -0.49735304480E+03  0.54025218899E+03  0.12500000000E+03 0.  0.
         25    1    1    2    0    0  0.22255465537E+01 -0.37896042983E+02 -0.32681428758E+03  0.35195687477E+03  0.12500000000E+03 0.  0.
         25    1    1    2    0    0  0.15856590475E+03 -0.17181045926E+02 -0.26654128440E+03  0.33482471650E+03  0.12500000000E+03 0.  0.
</event>
<event>
 5    0  0.5605075E-005  0.2708193E+03  0.7546771E-02  0.1100812E+00
         21   -1    0    0  502  501  0.00000000000E+00  0.00000000000E+00  0.22546024872E+03  0.22546024872E+03  0.00000000000E+00 0.  1.
         21   -1    0    0  501  502 -0.00000000000E+00 -0.00000000000E+00 -0.32530388863E+03  0.32530388863E+03  0.00000000000E+00 0.  1.
         25    1    1    2    0    0  0.11222352783E+02  0.14583373591E+03  0.40112454649E+02  0.19653861898E+03  0.12500000000E+03 0.  0.
         25    1    1    2    0    0 -0.22693574131E+02 -0.15300960818E+03 -0.97744712466E+02  0.22159866272E+03  0.12500000000E+03 0.  0.
         25    1    1    2    0    0  0.11471221348E+02  0.71758722716E+01 -0.42211382099E+02  0.13262685565E+03  0.12500000000E+03 0.  0.
</event>
<event>
 5    0  0.5605075E-005  0.4663967E+03  0.7546771E-02  0.1022942E+00
         21   -1    0    0  502  501  0.00000000000E+00  0.00000000000E+00  0.14742634430E+03  0.14742634430E+03  0.00000000000E+00 0.  1.
         21   -1    0    0  501  502 -0.00000000000E+00 -0.00000000000E+00 -0.14754886665E+04  0.14754886665E+04  0.00000000000E+00 0.  1.
         25    1    1    2    0    0 -0.16005261333E+03 -0.71124637023E+02 -0.12382931549E+04  0.12568494304E+04  0.12500000000E+03 0.  0.
         25    1    1    2    0    0  0.45875340720E+02  0.11893945637E+03 -0.54217509382E+02  0.18658960177E+03  0.12500000000E+03 0.  0.
         25    1    1    2    0    0  0.11417727261E+03 -0.47814819343E+02 -0.35551657841E+02  0.17947597863E+03  0.12500000000E+03 0.  0.
</event>
<event>
 5    0  0.5605075E-005  0.2907438E+03  0.7546771E-02  0.1089961E+00
         21   -1    0    0  502  501  0.00000000000E+00  0.00000000000E+00  0.23536003954E+03  0.23536003954E+03  0.00000000000E+00 0. -1.
         21   -1    0    0  501  502 -0.00000000000E+00 -0.00000000000E+00 -0.35916030970E+03  0.35916030970E+03  0.00000000000E+00 0. -1.
         25    1    1    2    0    0  0.21407793929E+02  0.10195127272E+03  0.81032898408E+02  0.18177922399E+03  0.12500000000E+03 0.  0.
         25    1    1    2    0    0 -0.60495096483E+02  0.55925267901E+02 -0.58338024516E+02  0.16067239151E+03  0.12500000000E+03 0.  0.
         25    1    1    2    0    0  0.39087302554E+02 -0.15787654062E+03 -0.14649514406E+03  0.25206873374E+03  0.12500000000E+03 0.  0.
</event>
<event>
 5    0  0.5605075E-005  0.2500075E+03  0.7546771E-02  0.1113300E+00
         21   -1    0    0  502  501  0.00000000000E+00  0.00000000000E+00  0.22832673562E+04  0.22832673562E+04  0.00000000000E+00 0.  1.
         21   -1    0    0  501  502 -0.00000000000E+00 -0.00000000000E+00 -0.27374704488E+02  0.27374704488E+02  0.00000000000E+00 0.  1.
         25    1    1    2    0    0  0.68908671988E+02  0.21013605146E+02  0.31705912851E+03  0.34834102206E+03  0.12500000000E+03 0.  0.
         25    1    1    2    0    0 -0.57621171499E+02 -0.54430982093E+02  0.63536623119E+03  0.65237886152E+03  0.12500000000E+03 0.  0.
         25    1    1    2    0    0 -0.11287500490E+02  0.33417376948E+02  0.13034672920E+04  0.13099221771E+04  0.12500000000E+03 0.  0.
</event>
<event>
 5    0  0.5605075E-005  0.3303865E+03  0.7546771E-02  0.1070966E+00
         21   -1    0    0  502  501  0.00000000000E+00  0.00000000000E+00  0.33010950258E+03  0.33010950258E+03  0.00000000000E+00 0. -1.
         21   -1    0    0  501  502 -0.00000000000E+00 -0.00000000000E+00 -0.33066373969E+03  0.33066373969E+03  0.00000000000E+00 0. -1.
         25    1    1    2    0    0 -0.12771943524E+03  0.15674583001E+03  0.16726787263E+03  0.29066312215E+03  0.12500000000E+03 0.  0.
         25    1    1    2    0    0  0.53892221925E+02 -0.11532523284E+03 -0.10102687541E+03  0.20502612143E+03  0.12500000000E+03 0.  0.
         25    1    1    2    0    0  0.73827213319E+02 -0.41420597172E+02 -0.66795234330E+02  0.16508399870E+03  0.12500000000E+03 0.  0.
</event>
<event>
 5    0  0.5605075E-005  0.2588393E+03  0.7546771E-02  0.1107843E+00
         21   -1    0    0  502  501  0.00000000000E+00  0.00000000000E+00  0.14680415801E+03  0.14680415801E+03  0.00000000000E+00 0. -1.
         21   -1    0    0  501  502 -0.00000000000E+00 -0.00000000000E+00 -0.45637525352E+03  0.45637525352E+03  0.00000000000E+00 0. -1.
         25    1    1    2    0    0  0.43752250212E+02  0.12308176774E+03 -0.41190499352E+02  0.18543203117E+03  0.12500000000E+03 0.  0.
         25    1    1    2    0    0 -0.87135205253E+02 -0.10764729724E+03 -0.16627355430E+03  0.24990474077E+03  0.12500000000E+03 0.  0.
         25    1    1    2    0    0  0.43382955041E+02 -0.15434470496E+02 -0.10210704185E+03  0.16784263959E+03  0.12500000000E+03 0.  0.
</event>
<event>
 5    0  0.5605075E-005  0.5185828E+03  0.7546771E-02  0.1009039E+00
         21   -1    0    0  502  501  0.00000000000E+00  0.00000000000E+00  0.22216296243E+03  0.22216296243E+03  0.00000000000E+00 0.  1.
         21   -1    0    0  501  502 -0.00000000000E+00 -0.00000000000E+00 -0.12104994228E+04  0.12104994228E+04  0.00000000000E+00 0.  1.
         25    1    1    2    0    0  0.38989752576E+03  0.10170085267E+00 -0.12985355526E+03  0.42954282296E+03  0.12500000000E+03 0.  0.
         25    1    1    2    0    0 -0.53161950377E+02  0.65052575238E+02 -0.20199586434E+03  0.25196301261E+03  0.12500000000E+03 0.  0.
         25    1    1    2    0    0 -0.33673557538E+03 -0.65154276091E+02 -0.65648704081E+03  0.75115654971E+03  0.12500000000E+03 0.  0.
</event>
<event>
 5    0  0.5605075E-005  0.3375455E+03  0.7546771E-02  0.1067846E+00
         21   -1    0    0  502  501  0.00000000000E+00  0.00000000000E+00  0.52948917648E+03  0.52948917648E+03  0.00000000000E+00 0.  1.
         21   -1    0    0  501  502 -0.00000000000E+00 -0.00000000000E+00 -0.21518285609E+03  0.21518285609E+03  0.00000000000E+00 0.  1.
         25    1    1    2    0    0  0.11933731219E+03 -0.22030001417E+01 -0.26719074277E+02  0.17488612358E+03  0.12500000000E+03 0.  0.
         25    1    1    2    0    0  0.52670794488E+02  0.53812621367E+02 -0.20341497513E+02  0.14733902175E+03  0.12500000000E+03 0.  0.
         25    1    1    2    0    0 -0.17200810668E+03 -0.51609621225E+02  0.36136689218E+03  0.42244688723E+03  0.12500000000E+03 0.  0.
</event>
<event>
 5    0  0.5605075E-005  0.2774207E+03  0.7546771E-02  0.1097106E+00
         21   -1    0    0  502  501  0.00000000000E+00  0.00000000000E+00  0.33563234216E+02  0.33563234216E+02  0.00000000000E+00 0.  1.
         21   -1    0    0  501  502 -0.00000000000E+00 -0.00000000000E+00 -0.22930516438E+04  0.22930516438E+04  0.00000000000E+00 0.  1.
         25    1    1    2    0    0 -0.86635551389E+02 -0.62677091449E+02 -0.29902279164E+03  0.34128253175E+03  0.12500000000E+03 0.  0.
         25    1    1    2    0    0  0.29079814546E+02 -0.42949997723E+02 -0.10276193142E+04  0.10364925436E+04  0.12500000000E+03 0.  0.
         25    1    1    2    0    0  0.57555736843E+02  0.10562708917E+03 -0.93284630379E+03  0.94883980277E+03  0.12500000000E+03 0.  0.
</event>
<event>
 5    0  0.5605075E-005  0.3753078E+03  0.7546771E-02  0.1052682E+00
         21   -1    0    0  502  501  0.00000000000E+00  0.00000000000E+00  0.95735736491E+02  0.95735736491E+02  0.00000000000E+00 0.  1.
         21   -1    0    0  501  502 -0.00000000000E+00 -0.00000000000E+00 -0.14712995422E+04  0.14712995422E+04  0.00000000000E+00 0.  1.
         25    1    1    2    0    0 -0.81317050383E+02  0.12360160355E+03 -0.17233732874E+03  0.25925850798E+03  0.12500000000E+03 0.  0.
         25    1    1    2    0    0  0.25874597710E+02  0.87359183395E+02 -0.90317739168E+03  0.91632719188E+03  0.12500000000E+03 0.  0.
         25    1    1    2    0    0  0.55442452673E+02 -0.21096078694E+03 -0.30004908530E+03  0.39144957884E+03  0.12500000000E+03 0.  0.
</event>
<event>
 5    0  0.5605075E-005  0.3722425E+03  0.7546771E-02  0.1053839E+00
         21   -1    0    0  502  501  0.00000000000E+00  0.00000000000E+00  0.38079488241E+03  0.38079488241E+03  0.00000000000E+00 0. -1.
         21   -1    0    0  501  502 -0.00000000000E+00 -0.00000000000E+00 -0.36388220588E+03  0.36388220588E+03  0.00000000000E+00 0.  1.
         25    1    1    2    0    0  0.60591468579E+02  0.53677345741E+02  0.49607638876E+02  0.15696656123E+03  0.12500000000E+03 0.  0.
         25    1    1    2    0    0 -0.64149599287E+02 -0.27814690670E+03 -0.90184857057E+02  0.32440588965E+03  0.12500000000E+03 0.  0.
         25    1    1    2    0    0  0.35581307079E+01  0.22446956096E+03  0.57489894712E+02  0.26330463742E+03  0.12500000000E+03 0.  0.
</event>
<event>
 5    0  0.5605075E-005  0.3219730E+03  0.7546771E-02  0.1074745E+00
         21   -1    0    0  502  501  0.00000000000E+00  0.00000000000E+00  0.23416619626E+04  0.23416619626E+04  0.00000000000E+00 0. -1.
         21   -1    0    0  501  502 -0.00000000000E+00 -0.00000000000E+00 -0.44270518617E+02  0.44270518617E+02  0.00000000000E+00 0. -1.
         25    1    1    2    0    0  0.78468661731E+02 -0.33211441012E+02  0.18624363440E+03  0.23994170551E+03  0.12500000000E+03 0.  0.
         25    1    1    2    0    0 -0.11320396325E+03  0.12747246704E+03  0.14684364213E+04  0.14835750370E+04  0.12500000000E+03 0.  0.
         25    1    1    2    0    0  0.34735301520E+02 -0.94261026027E+02  0.64271138829E+03  0.66241573867E+03  0.12500000000E+03 0.  0.
</event>
<event>
 5    0  0.5605075E-005  0.3921358E+03  0.7546771E-02  0.1046537E+00
         21   -1    0    0  502  501  0.00000000000E+00  0.00000000000E+00  0.40621410284E+03  0.40621410284E+03  0.00000000000E+00 0.  1.
         21   -1    0    0  501  502 -0.00000000000E+00 -0.00000000000E+00 -0.37854540346E+03  0.37854540346E+03  0.00000000000E+00 0.  1.
         25    1    1    2    0    0 -0.11917773931E+03 -0.12070171235E+02 -0.11548352341E+03  0.20811166896E+03  0.12500000000E+03 0.  0.
         25    1    1    2    0    0  0.19170630192E+03 -0.18706595639E+03  0.14796568282E+03  0.33055078510E+03  0.12500000000E+03 0.  0.
         25    1    1    2    0    0 -0.72528562613E+02  0.19913612763E+03 -0.48134600259E+01  0.24609705223E+03  0.12500000000E+03 0.  0.
</event>
<event>
 5    0  0.5605075E-005  0.2444829E+03  0.7546771E-02  0.1116842E+00
         21   -1    0    0  502  501  0.00000000000E+00  0.00000000000E+00  0.61546147893E+02  0.61546147893E+02  0.00000000000E+00 0. -1.
         21   -1    0    0  501  502 -0.00000000000E+00 -0.00000000000E+00 -0.97117150525E+03  0.97117150525E+03  0.00000000000E+00 0. -1.
         25    1    1    2    0    0 -0.11422129463E+02 -0.44507680779E+02 -0.23542672821E+03  0.27048501446E+03  0.12500000000E+03 0.  0.
         25    1    1    2    0    0 -0.42282265699E+01  0.16705725140E+02 -0.69763615025E+02  0.14418363684E+03  0.12500000000E+03 0.  0.
         25    1    1    2    0    0  0.15650356033E+02  0.27801955639E+02 -0.60443501412E+03  0.61804900184E+03  0.12500000000E+03 0.  0.
</event>
<event>
 5    0  0.5605075E-005  0.3352149E+03  0.7546771E-02  0.1068852E+00
         21   -1    0    0  502  501  0.00000000000E+00  0.00000000000E+00  0.85710708469E+03  0.85710708469E+03  0.00000000000E+00 0.  1.
         21   -1    0    0  501  502 -0.00000000000E+00 -0.00000000000E+00 -0.13110268472E+03  0.13110268472E+03  0.00000000000E+00 0.  1.
         25    1    1    2    0    0  0.82966988766E+01 -0.84215862468E+02  0.33307442397E+03  0.36568390531E+03  0.12500000000E+03 0.  0.
         25    1    1    2    0    0  0.78462483015E+02  0.16295787584E+03  0.30917336756E+02  0.22201917091E+03  0.12500000000E+03 0.  0.
         25    1    1    2    0    0 -0.86759181892E+02 -0.78742013373E+02  0.36201263924E+03  0.40050669318E+03  0.12500000000E+03 0.  0.
</event>
<event>
 5    0  0.5605075E-005  0.4303826E+03  0.7546771E-02  0.1033739E+00
         21   -1    0    0  502  501  0.00000000000E+00  0.00000000000E+00  0.54438250850E+03  0.54438250850E+03  0.00000000000E+00 0.  1.
         21   -1    0    0  501  502 -0.00000000000E+00 -0.00000000000E+00 -0.34025555056E+03  0.34025555056E+03  0.00000000000E+00 0.  1.
         25    1    1    2    0    0  0.80021627908E+01 -0.24448574089E+02  0.24255115631E+03  0.27407632297E+03  0.12500000000E+03 0.  0.
         25    1    1    2    0    0 -0.20466657562E+03  0.83426798672E+02 -0.19804301665E+03  0.32201626412E+03  0.12500000000E+03 0.  0.
         25    1    1    2    0    0  0.19666441283E+03 -0.58978224583E+02  0.15961881828E+03  0.28854547198E+03  0.12500000000E+03 0.  0.
</event>
<event>
 5    0  0.5605075E-005  0.2399655E+03  0.7546771E-02  0.1119816E+00
         21   -1    0    0  502  501  0.00000000000E+00  0.00000000000E+00  0.51702100843E+02  0.51702100843E+02  0.00000000000E+00 0. -1.
         21   -1    0    0  501  502 -0.00000000000E+00 -0.00000000000E+00 -0.11137539633E+04  0.11137539633E+04  0.00000000000E+00 0. -1.
         25    1    1    2    0    0  0.88736920212E+02 -0.69195230156E+02 -0.28650757810E+03  0.33222554566E+03  0.12500000000E+03 0.  0.
         25    1    1    2    0    0 -0.55362908465E+02  0.25599405331E+02 -0.21325331217E+03  0.25460234943E+03  0.12500000000E+03 0.  0.
         25    1    1    2    0    0 -0.33374011747E+02  0.43595824826E+02 -0.56229097217E+03  0.57862816902E+03  0.12500000000E+03 0.  0.
</event>
<event>
 5    0  0.5605075E-005  0.3462735E+03  0.7546771E-02  0.1064155E+00
         21   -1    0    0  502  501  0.00000000000E+00  0.00000000000E+00  0.44857135205E+02  0.44857135205E+02  0.00000000000E+00 0. -1.
         21   -1    0    0  501  502 -0.00000000000E+00 -0.00000000000E+00 -0.26730487959E+04  0.26730487959E+04  0.00000000000E+00 0. -1.
         25    1    1    2    0    0 -0.95725265874E+02 -0.24667712230E+03 -0.13614659700E+04  0.13925614948E+04  0.12500000000E+03 0.  0.
         25    1    1    2    0    0 -0.75099493205E+01  0.14560164633E+03 -0.51254467613E+03  0.54734201719E+03  0.12500000000E+03 0.  0.
         25    1    1    2    0    0  0.10323521519E+03  0.10107547597E+03 -0.75418101459E+03  0.77800241919E+03  0.12500000000E+03 0.  0.
</event>
<event>
 5    0  0.5605075E-005  0.2646343E+03  0.7546771E-02  0.1104390E+00
         21   -1    0    0  502  501  0.00000000000E+00  0.00000000000E+00  0.52493368264E+03  0.52493368264E+03  0.00000000000E+00 0. -1.
         21   -1    0    0  501  502 -0.00000000000E+00 -0.00000000000E+00 -0.13340979165E+03  0.13340979165E+03  0.00000000000E+00 0. -1.
         25    1    1    2    0    0  0.13637753633E+03  0.20364566876E+02  0.24439822958E+03  0.30719544694E+03  0.12500000000E+03 0.  0.
         25    1    1    2    0    0 -0.12220166797E+03  0.31182551655E+02  0.11466760768E+03  0.21137468967E+03  0.12500000000E+03 0.  0.
         25    1    1    2    0    0 -0.14175868360E+02 -0.51547118531E+02  0.32458053734E+02  0.13977333768E+03  0.12500000000E+03 0.  0.
</event>
<event>
 5    0  0.5605075E-005  0.2422059E+03  0.7546771E-02  0.1118332E+00
         21   -1    0    0  502  501  0.00000000000E+00  0.00000000000E+00  0.90703529695E+03  0.90703529695E+03  0.00000000000E+00 0. -1.
         21   -1    0    0  501  502 -0.00000000000E+00 -0.00000000000E+00 -0.64676301426E+02  0.64676301426E+02  0.00000000000E+00 0. -1.
         25    1    1    2    0    0 -0.34433835886E+02 -0.12067088584E+02  0.20640054301E+03  0.24404402848E+03  0.12500000000E+03 0.  0.
         25    1    1    2    0    0 -0.85150075986E+02 -0.57143253882E+02  0.36069386002E+03  0.39527325683E+03  0.12500000000E+03 0.  0.
         25    1    1    2    0    0  0.11958391187E+03  0.69210342466E+02  0.27526459249E+03  0.33239431307E+03  0.12500000000E+03 0.  0.
</event>
<event>
 5    0  0.5605075E-005  0.3778082E+03  0.7546771E-02  0.1051747E+00
         21   -1    0    0  502  501  0.00000000000E+00  0.00000000000E+00  0.12268480581E+03  0.12268480581E+03  0.00000000000E+00 0. -1.
         21   -1    0    0  501  502 -0.00000000000E+00 -0.00000000000E+00 -0.11634616310E+04  0.11634616310E+04  0.00000000000E+00 0.  1.
         25    1    1    2    0    0 -0.11827107489E+03 -0.24215098525E+03 -0.40413586597E+03  0.50157346917E+03  0.12500000000E+03 0.  0.
         25    1    1    2    0    0  0.18346095287E+03  0.20905167350E+03 -0.35578081607E+03  0.46857818185E+03  0.12500000000E+03 0.  0.
         25    1    1    2    0    0 -0.65189877982E+02  0.33099311748E+02 -0.28086014316E+03  0.31599478579E+03  0.12500000000E+03 0.  0.
</event>
<event>
 5    0  0.5605075E-005  0.3755221E+03  0.7546771E-02  0.1052601E+00
         21   -1    0    0  502  501  0.00000000000E+00  0.00000000000E+00  0.18700111561E+04  0.18700111561E+04  0.00000000000E+00 0. -1.
         21   -1    0    0  501  502 -0.00000000000E+00 -0.00000000000E+00 -0.75409618811E+02  0.75409618811E+02  0.00000000000E+00 0. -1.
         25    1    1    2    0    0 -0.10466596838E+03  0.36923183620E+02  0.34643769468E+03  0.38465876139E+03  0.12500000000E+03 0.  0.
         25    1    1    2    0    0  0.92520107773E+02 -0.25353442907E+03  0.51628370634E+03  0.59583012889E+03  0.12500000000E+03 0.  0.
         25    1    1    2    0    0  0.12145860603E+02  0.21661124545E+03  0.93188013630E+03  0.96493188465E+03  0.12500000000E+03 0.  0.
</event>
<event>
 5    0  0.5605075E-005  0.3157537E+03  0.7546771E-02  0.1077620E+00
         21   -1    0    0  502  501  0.00000000000E+00  0.00000000000E+00  0.29612803393E+03  0.29612803393E+03  0.00000000000E+00 0.  1.
         21   -1    0    0  501  502 -0.00000000000E+00 -0.00000000000E+00 -0.33668013272E+03  0.33668013272E+03  0.00000000000E+00 0.  1.
         25    1    1    2    0    0 -0.32791521207E+02 -0.15027647987E+03  0.80758594600E+02  0.21402162243E+03  0.12500000000E+03 0.  0.
         25    1    1    2    0    0  0.13585270230E+03  0.31468739948E+02 -0.11082938643E+03  0.21761064132E+03  0.12500000000E+03 0.  0.
         25    1    1    2    0    0 -0.10306118110E+03  0.11880773992E+03 -0.10481306954E+02  0.20117590291E+03  0.12500000000E+03 0.  0.
</event>
<event>
 5    0  0.5605075E-005  0.2792173E+03  0.7546771E-02  0.1096117E+00
         21   -1    0    0  502  501  0.00000000000E+00  0.00000000000E+00  0.43408539724E+03  0.43408539724E+03  0.00000000000E+00 0.  1.
         21   -1    0    0  501  502 -0.00000000000E+00 -0.00000000000E+00 -0.17960128357E+03  0.17960128357E+03  0.00000000000E+00 0.  1.
         25    1    1    2    0    0 -0.41240852877E+02 -0.56838574194E+02  0.14800447368E+03  0.20606250433E+03  0.12500000000E+03 0.  0.
         25    1    1    2    0    0 -0.70841267532E+02 -0.16323624922E+02  0.16113298185E+03  0.21650354213E+03  0.12500000000E+03 0.  0.
         25    1    1    2    0    0  0.11208212041E+03  0.73162199116E+02 -0.54653341855E+02  0.19112063434E+03  0.12500000000E+03 0.  0.
</event>
<event>
 5    0  0.5605075E-005  0.3040291E+03  0.7546771E-02  0.1083244E+00
         21   -1    0    0  502  501  0.00000000000E+00  0.00000000000E+00  0.58017067208E+03  0.58017067208E+03  0.00000000000E+00 0.  1.
         21   -1    0    0  501  502 -0.00000000000E+00 -0.00000000000E+00 -0.15932152369E+03  0.15932152369E+03  0.00000000000E+00 0.  1.
         25    1    1    2    0    0 -0.93213258943E+02 -0.90943363797E+02 -0.21164250132E+02  0.18174799186E+03  0.12500000000E+03 0.  0.
         25    1    1    2    0    0 -0.41558111746E+02  0.75976001858E+02  0.15959769731E+03  0.22044467446E+03  0.12500000000E+03 0.  0.
         25    1    1    2    0    0  0.13477137069E+03  0.14967361939E+02  0.28241570122E+03  0.33729952946E+03  0.12500000000E+03 0.  0.
</event>
<event>
 5    0  0.5605075E-005  0.2657580E+03  0.7546771E-02  0.1103732E+00
         21   -1    0    0  502  501  0.00000000000E+00  0.00000000000E+00  0.17472292450E+03  0.17472292450E+03  0.00000000000E+00 0. -1.
         21   -1    0    0  501  502 -0.00000000000E+00 -0.00000000000E+00 -0.40422476173E+03  0.40422476173E+03  0.00000000000E+00 0. -1.
         25    1    1    2    0    0 -0.92473350682E+02 -0.15067607729E+02 -0.92132361898E+02  0.18136076063E+03  0.12500000000E+03 0.  0.
         25    1    1    2    0    0 -0.51996524254E+02  0.50495998078E+02  0.22166137957E+02  0.14618420581E+03  0.12500000000E+03 0.  0.
         25    1    1    2    0    0  0.14446987494E+03 -0.35428390349E+02 -0.15953561329E+03  0.25140271978E+03  0.12500000000E+03 0.  0.
</event>
<event>
 5    0  0.5605075E-005  0.5903175E+03  0.7546771E-02  0.9925700E-01
         21   -1    0    0  502  501  0.00000000000E+00  0.00000000000E+00  0.12741289091E+04  0.12741289091E+04  0.00000000000E+00 0.  1.
         21   -1    0    0  501  502 -0.00000000000E+00 -0.00000000000E+00 -0.27350039461E+03  0.27350039461E+03  0.00000000000E+00 0.  1.
         25    1    1    2    0    0  0.20981484377E+03 -0.62879503492E+02  0.13233948715E+03  0.28480667212E+03  0.12500000000E+03 0.  0.
         25    1    1    2    0    0  0.31547896131E+02 -0.37615817624E+03  0.42824594700E+03  0.58438842770E+03  0.12500000000E+03 0.  0.
         25    1    1    2    0    0 -0.24136273990E+03  0.43903767973E+03  0.44004308031E+03  0.67843420386E+03  0.12500000000E+03 0.  0.
</event>
<event>
 5    0  0.5605075E-005  0.3487765E+03  0.7546771E-02  0.1063118E+00
         21   -1    0    0  502  501  0.00000000000E+00  0.00000000000E+00  0.17840981096E+04  0.17840981096E+04  0.00000000000E+00 0. -1.
         21   -1    0    0  501  502 -0.00000000000E+00 -0.00000000000E+00 -0.68182947181E+02  0.68182947181E+02  0.00000000000E+00 0. -1.
         25    1    1    2    0    0  0.11498822008E+03 -0.25661639528E+02  0.76542072287E+03  0.78445821654E+03  0.12500000000E+03 0.  0.
         25    1    1    2    0    0 -0.26004603656E+03  0.18845719444E+02  0.48830837345E+03  0.56749376195E+03  0.12500000000E+03 0.  0.
         25    1    1    2    0    0  0.14505781648E+03  0.68159200849E+01  0.46218606613E+03  0.50032907832E+03  0.12500000000E+03 0.  0.
</event>
<event>
 5    0  0.5605075E-005  0.2969584E+03  0.7546771E-02  0.1086771E+00
         21   -1    0    0  502  501  0.00000000000E+00  0.00000000000E+00  0.42700435154E+03  0.42700435154E+03  0.00000000000E+00 0.  1.
         21   -1    0    0  501  502 -0.00000000000E+00 -0.00000000000E+00 -0.20651854773E+03  0.20651854773E+03  0.00000000000E+00 0.  1.
         25    1    1    2    0    0  0.99265393027E+02  0.14429478595E+03  0.18856042356E+03  0.28610249359E+03  0.12500000000E+03 0.  0.
         25    1    1    2    0    0 -0.49250828720E+02 -0.80217955968E+02 -0.65149744733E+02  0.16949942132E+03  0.12500000000E+03 0.  0.
         25    1    1    2    0    0 -0.50014564308E+02 -0.64076829981E+02  0.97075124994E+02  0.17792098436E+03  0.12500000000E+03 0.  0.
</event>
<event>
 5    0  0.5605075E-005  0.3294926E+03  0.7546771E-02  0.1071362E+00
         21   -1    0    0  502  501  0.00000000000E+00  0.00000000000E+00  0.25038240704E+03  0.25038240704E+03  0.00000000000E+00 0.  1.
         21   -1    0    0  501  502 -0.00000000000E+00 -0.00000000000E+00 -0.43359834725E+03  0.43359834725E+03  0.00000000000E+00 0.  1.
         25    1    1    2    0    0 -0.19176315844E+03  0.11088413359E+03  0.58186822551E+02  0.26091973159E+03  0.12500000000E+03 0.  0.
         25    1    1    2    0    0  0.38847948970E+02 -0.32584148108E+02 -0.98051985610E+02  0.16676355036E+03  0.12500000000E+03 0.  0.
         25    1    1    2    0    0  0.15291520947E+03 -0.78299985483E+02 -0.14335077716E+03  0.25629747233E+03  0.12500000000E+03 0.  0.
</event>
<event>
 5    0  0.5757157E-005  0.2850970E+03  0.7546771E-02  0.1092937E+00
         21   -1    0    0  502  501  0.00000000000E+00  0.00000000000E+00  0.27447262099E+03  0.27447262099E+03  0.00000000000E+00 0. -1.
         21   -1    0    0  501  502 -0.00000000000E+00 -0.00000000000E+00 -0.29613263877E+03  0.29613263877E+03  0.00000000000E+00 0. -1.
         25    1    1    2    0    0 -0.15288187443E+02 -0.48544234448E+02 -0.10663301485E+03  0.17200543954E+03  0.12500000000E+03 0.  0.
         25    1    1    2    0    0 -0.22164561428E+02  0.13101114323E+03 -0.54670232848E+02  0.19044427477E+03  0.12500000000E+03 0.  0.
         25    1    1    2    0    0  0.37452748871E+02 -0.82466908784E+02  0.13964322991E+03  0.20815554545E+03  0.12500000000E+03 0.  0.
</event>
<event>
 5    0  0.5605075E-005  0.2735031E+03  0.7546771E-02  0.1099291E+00
         21   -1    0    0  502  501  0.00000000000E+00  0.00000000000E+00  0.27878668097E+03  0.27878668097E+03  0.00000000000E+00 0.  1.
         21   -1    0    0  501  502 -0.00000000000E+00 -0.00000000000E+00 -0.26831968807E+03  0.26831968807E+03  0.00000000000E+00 0.  1.
         25    1    1    2    0    0 -0.22380671816E+02  0.97870988348E+02 -0.11518283776E+03  0.19741253999E+03  0.12500000000E+03 0.  0.
         25    1    1    2    0    0 -0.35074819350E+01  0.32815017699E+02  0.10362121331E+03  0.16568489268E+03  0.12500000000E+03 0.  0.
         25    1    1    2    0    0  0.25888153751E+02 -0.13068600605E+03  0.22028617347E+02  0.18400893637E+03  0.12500000000E+03 0.  0.
</event>
<event>
 5    0  0.6843970E-005  0.3940747E+03  0.7546771E-02  0.1045851E+00
         21   -1    0    0  502  501  0.00000000000E+00  0.00000000000E+00  0.31340985322E+03  0.31340985322E+03  0.00000000000E+00 0. -1.
         21   -1    0    0  501  502 -0.00000000000E+00 -0.00000000000E+00 -0.49550099927E+03  0.49550099927E+03  0.00000000000E+00 0. -1.
         25    1    1    2    0    0  0.53114936802E+02 -0.60031739726E+02 -0.24231241205E+03  0.28419238434E+03  0.12500000000E+03 0.  0.
         25    1    1    2    0    0  0.10894448758E+03 -0.97069661207E+02  0.15804490790E+03  0.24878628060E+03  0.12500000000E+03 0.  0.
         25    1    1    2    0    0 -0.16205942438E+03  0.15710140093E+03 -0.97823641900E+02  0.27593218754E+03  0.12500000000E+03 0.  0.
</event>
<event>
 5    0  0.5605075E-005  0.8961169E+03  0.7546771E-02  0.9430449E-01
         21   -1    0    0  502  501  0.00000000000E+00  0.00000000000E+00  0.11523534513E+04  0.11523534513E+04  0.00000000000E+00 0. -1.
         21   -1    0    0  501  502 -0.00000000000E+00 -0.00000000000E+00 -0.69685691595E+03  0.69685691595E+03  0.00000000000E+00 0. -1.
         25    1    1    2    0    0  0.15183421311E+03 -0.65853161692E+03 -0.30303027549E+03  0.75111241943E+03  0.12500000000E+03 0.  0.
         25    1    1    2    0    0 -0.14996217332E+03  0.26251094208E+03  0.53336090949E+03  0.62569921521E+03  0.12500000000E+03 0.  0.
         25    1    1    2    0    0 -0.18720397896E+01  0.39602067484E+03  0.22516590133E+03  0.47239873260E+03  0.12500000000E+03 0.  0.
</event>
<event>
 5    0  0.5605075E-005  0.3853397E+03  0.7546771E-02  0.1048978E+00
         21   -1    0    0  502  501  0.00000000000E+00  0.00000000000E+00  0.10113121255E+04  0.10113121255E+04  0.00000000000E+00 0.  1.
         21   -1    0    0  501  502 -0.00000000000E+00 -0.00000000000E+00 -0.14682576473E+03  0.14682576473E+03  0.00000000000E+00 0.  1.
         25    1    1    2    0    0 -0.22178258777E+03 -0.13226093959E+03  0.35207295353E+03  0.45415948409E+03  0.12500000000E+03 0.  0.
         25    1    1    2    0    0  0.75692374297E+02 -0.45349148376E+02  0.31157416854E+02  0.15614629490E+03  0.12500000000E+03 0.  0.
         25    1    1    2    0    0  0.14609021348E+03  0.17761008796E+03  0.48125599037E+03  0.54783211122E+03  0.12500000000E+03 0.  0.
</event>
<event>
 5    0  0.5605075E-005  0.2858018E+03  0.7546771E-02  0.1092562E+00
         21   -1    0    0  502  501  0.00000000000E+00  0.00000000000E+00  0.13929699789E+03  0.13929699789E+03  0.00000000000E+00 0. -1.
         21   -1    0    0  501  502 -0.00000000000E+00 -0.00000000000E+00 -0.58639203863E+03  0.58639203863E+03  0.00000000000E+00 0. -1.
         25    1    1    2    0    0  0.42093121261E+02 -0.59975735819E+02  0.31016126551E+02  0.14817530108E+03  0.12500000000E+03 0.  0.
         25    1    1    2    0    0  0.42833421353E+02  0.27008561733E+02 -0.96755603212E+02  0.16598437018E+03  0.12500000000E+03 0.  0.
         25    1    1    2    0    0 -0.84926542614E+02  0.32967174086E+02 -0.38135556408E+03  0.41152936525E+03  0.12500000000E+03 0.  0.
</event>
<event>
 5    0  0.5605075E-005  0.2532438E+03  0.7546771E-02  0.1111272E+00
         21   -1    0    0  502  501  0.00000000000E+00  0.00000000000E+00  0.39376109331E+03  0.39376109331E+03  0.00000000000E+00 0.  1.
         21   -1    0    0  501  502 -0.00000000000E+00 -0.00000000000E+00 -0.16287140529E+03  0.16287140529E+03  0.00000000000E+00 0.  1.
         25    1    1    2    0    0  0.29453418514E+02 -0.17262780482E+02  0.22161944675E+03  0.25672102880E+03  0.12500000000E+03 0.  0.
         25    1    1    2    0    0 -0.36847117862E+02 -0.44015873996E+02 -0.52764729465E+02  0.14732353489E+03  0.12500000000E+03 0.  0.
         25    1    1    2    0    0  0.73936993482E+01  0.61278654477E+02  0.62034970733E+02  0.15258793490E+03  0.12500000000E+03 0.  0.
</event>
<event>
 5    0  0.5605075E-005  0.2506536E+03  0.7546771E-02  0.1112892E+00
         21   -1    0    0  502  501  0.00000000000E+00  0.00000000000E+00  0.31012079352E+02  0.31012079352E+02  0.00000000000E+00 0. -1.
         21   -1    0    0  501  502 -0.00000000000E+00 -0.00000000000E+00 -0.20258950593E+04  0.20258950593E+04  0.00000000000E+00 0. -1.
         25    1    1    2    0    0  0.18111479509E+02  0.16895157839E+02 -0.34422168480E+03  0.36705182241E+03  0.12500000000E+03 0.  0.
         25    1    1    2    0    0 -0.11176883257E+03 -0.53067082771E+02 -0.54622360283E+03  0.57384110300E+03  0.12500000000E+03 0.  0.
         25    1    1    2    0    0  0.93657353064E+02  0.36171924931E+02 -0.11044376924E+04  0.11160142133E+04  0.12500000000E+03 0.  0.
</event>
<event>
 5    0  0.5605075E-005  0.3209494E+03  0.7546771E-02  0.1075213E+00
         21   -1    0    0  502  501  0.00000000000E+00  0.00000000000E+00  0.14978021949E+04  0.14978021949E+04  0.00000000000E+00 0. -1.
         21   -1    0    0  501  502 -0.00000000000E+00 -0.00000000000E+00 -0.68773113432E+02  0.68773113432E+02  0.00000000000E+00 0. -1.
         25    1    1    2    0    0  0.19549024650E+03  0.72933726772E+02  0.40418887010E+03  0.47173022766E+03  0.12500000000E+03 0.  0.
         25    1    1    2    0    0 -0.11828191898E+03 -0.61798744144E+02  0.27217410969E+03  0.32789242614E+03  0.12500000000E+03 0.  0.
         25    1    1    2    0    0 -0.77208327516E+02 -0.11134982628E+02  0.75266610170E+03  0.76695265456E+03  0.12500000000E+03 0.  0.
</event>
<event>
 5    0  0.5605075E-005  0.2595021E+03  0.7546771E-02  0.1107443E+00
         21   -1    0    0  502  501  0.00000000000E+00  0.00000000000E+00  0.11884664198E+04  0.11884664198E+04  0.00000000000E+00 0. -1.
         21   -1    0    0  501  502 -0.00000000000E+00 -0.00000000000E+00 -0.56662389672E+02  0.56662389672E+02  0.00000000000E+00 0. -1.
         25    1    1    2    0    0  0.85452117781E+02 -0.22808908721E+02  0.48006848511E+03  0.50389786777E+03  0.12500000000E+03 0.  0.
         25    1    1    2    0    0  0.58052053910E+02 -0.47015377987E+02  0.33361249807E+03  0.36400932076E+03  0.12500000000E+03 0.  0.
         25    1    1    2    0    0 -0.14350417169E+03  0.69824286708E+02  0.31812304696E+03  0.37722162095E+03  0.12500000000E+03 0.  0.
</event>
<event>
 5    0  0.5605075E-005  0.4092208E+03  0.7546771E-02  0.1040633E+00
         21   -1    0    0  502  501  0.00000000000E+00  0.00000000000E+00  0.14936464371E+04  0.14936464371E+04  0.00000000000E+00 0. -1.
         21   -1    0    0  501  502 -0.00000000000E+00 -0.00000000000E+00 -0.11211599530E+03  0.11211599530E+03  0.00000000000E+00 0. -1.
         25    1    1    2    0    0 -0.23693865354E+03 -0.60725532509E+02  0.18227361452E+03  0.32966071405E+03  0.12500000000E+03 0.  0.
         25    1    1    2    0    0  0.22614122902E+03 -0.54113562020E+02  0.78860151740E+03  0.83161618930E+03  0.12500000000E+03 0.  0.
         25    1    1    2    0    0  0.10797424519E+02  0.11483909453E+03  0.41065530985E+03  0.44448552903E+03  0.12500000000E+03 0.  0.
</event>
<event>
 5    0  0.5605075E-005  0.4209377E+03  0.7546771E-02  0.1036762E+00
         21   -1    0    0  502  501  0.00000000000E+00  0.00000000000E+00  0.26591996518E+03  0.26591996518E+03  0.00000000000E+00 0. -1.
         21   -1    0    0  501  502 -0.00000000000E+00 -0.00000000000E+00 -0.66632275487E+03  0.66632275487E+03  0.00000000000E+00 0. -1.
         25    1    1    2    0    0  0.11541333446E+03  0.80090273725E+02 -0.33171750548E+03  0.38130852752E+03  0.12500000000E+03 0.  0.
         25    1    1    2    0    0 -0.50939828387E+02 -0.26773938732E+03  0.19306971545E+02  0.30046131996E+03  0.12500000000E+03 0.  0.
         25    1    1    2    0    0 -0.64473506074E+02  0.18764911360E+03 -0.87992255754E+02  0.25047287257E+03  0.12500000000E+03 0.  0.
</event>
<event>
 5    0  0.5605075E-005  0.2925566E+03  0.7546771E-02  0.1089022E+00
         21   -1    0    0  502  501  0.00000000000E+00  0.00000000000E+00  0.67986280472E+03  0.67986280472E+03  0.00000000000E+00 0. -1.
         21   -1    0    0  501  502 -0.00000000000E+00 -0.00000000000E+00 -0.12589207911E+03  0.12589207911E+03  0.00000000000E+00 0. -1.
         25    1    1    2    0    0  0.39510166756E+02 -0.20811975329E+02  0.29282220078E+03  0.32150277272E+03  0.12500000000E+03 0.  0.
         25    1    1    2    0    0 -0.11892667583E+03  0.72616012563E+01 -0.12147350571E+02  0.17311511546E+03  0.12500000000E+03 0.  0.
         25    1    1    2    0    0  0.79416509073E+02  0.13550374073E+02  0.27329587540E+03  0.31113699565E+03  0.12500000000E+03 0.  0.
</event>
<event>
 5    0  0.5605075E-005  0.3009748E+03  0.7546771E-02  0.1084754E+00
         21   -1    0    0  502  501  0.00000000000E+00  0.00000000000E+00  0.18708381238E+04  0.18708381238E+04  0.00000000000E+00 0.  1.
         21   -1    0    0  501  502 -0.00000000000E+00 -0.00000000000E+00 -0.48419921666E+02  0.48419921666E+02  0.00000000000E+00 0.  1.
         25    1    1    2    0    0 -0.85254248889E+02  0.38800869280E+02  0.93986407732E+03  0.95275562357E+03  0.12500000000E+03 0.  0.
         25    1    1    2    0    0  0.57625291532E+02  0.11427317018E+03  0.28485844211E+03  0.33637533157E+03  0.12500000000E+03 0.  0.
         25    1    1    2    0    0  0.27628957357E+02 -0.15307403946E+03  0.59769568271E+03  0.63012709033E+03  0.12500000000E+03 0.  0.
</event>
<event>
 5    0  0.6790133E-005  0.4828921E+03  0.7546771E-02  0.1018343E+00
         21   -1    0    0  502  501  0.00000000000E+00  0.00000000000E+00  0.78279776158E+03  0.78279776158E+03  0.00000000000E+00 0. -1.
         21   -1    0    0  501  502 -0.00000000000E+00 -0.00000000000E+00 -0.29788641980E+03  0.29788641980E+03  0.00000000000E+00 0. -1.
         25    1    1    2    0    0 -0.16440970870E+03  0.20196506858E+03 -0.25083170286E+02  0.28995621509E+03  0.12500000000E+03 0.  0.
         25    1    1    2    0    0 -0.37874907042E+02  0.67742103699E+02  0.38150797007E+03  0.40889709271E+03  0.12500000000E+03 0.  0.
         25    1    1    2    0    0  0.20228461574E+03 -0.26970717227E+03  0.12848654199E+03  0.38183087357E+03  0.12500000000E+03 0.  0.
</event>
<event>
 5    0  0.5605075E-005  0.4921352E+03  0.7546771E-02  0.1015852E+00
         21   -1    0    0  502  501  0.00000000000E+00  0.00000000000E+00  0.21146218237E+03  0.21146218237E+03  0.00000000000E+00 0.  1.
         21   -1    0    0  501  502 -0.00000000000E+00 -0.00000000000E+00 -0.11453444607E+04  0.11453444607E+04  0.00000000000E+00 0.  1.
         25    1    1    2    0    0  0.29833073552E+03 -0.37622516552E+02 -0.45716320563E+03  0.56128413312E+03  0.12500000000E+03 0.  0.
         25    1    1    2    0    0 -0.18583904006E+03  0.15649070408E+03  0.32477971634E+01  0.27324171984E+03  0.12500000000E+03 0.  0.
         25    1    1    2    0    0 -0.11249169546E+03 -0.11886818752E+03 -0.47996686985E+03  0.52228079010E+03  0.12500000000E+03 0.  0.
</event>
<event>
 5    0  0.5605075E-005  0.2816215E+03  0.7546771E-02  0.1094807E+00
         21   -1    0    0  502  501  0.00000000000E+00  0.00000000000E+00  0.45040515317E+03  0.45040515317E+03  0.00000000000E+00 0.  1.
         21   -1    0    0  501  502 -0.00000000000E+00 -0.00000000000E+00 -0.17608735792E+03  0.17608735792E+03  0.00000000000E+00 0.  1.
         25    1    1    2    0    0  0.13330232908E+03 -0.30621313406E+02  0.59716762645E+02  0.19467477369E+03  0.12500000000E+03 0.  0.
         25    1    1    2    0    0 -0.75386037930E+02 -0.43193357677E+02  0.22887043692E+03  0.27487342134E+03  0.12500000000E+03 0.  0.
         25    1    1    2    0    0 -0.57916291146E+02  0.73814671083E+02 -0.14269404312E+02  0.15694431607E+03  0.12500000000E+03 0.  0.
</event>
<event>
 5    0  0.5605075E-005  0.3099720E+03  0.7546771E-02  0.1080359E+00
         21   -1    0    0  502  501  0.00000000000E+00  0.00000000000E+00  0.13320670506E+04  0.13320670506E+04  0.00000000000E+00 0.  1.
         21   -1    0    0  501  502 -0.00000000000E+00 -0.00000000000E+00 -0.72130472434E+02  0.72130472434E+02  0.00000000000E+00 0.  1.
         25    1    1    2    0    0 -0.16397416881E+03  0.47334662407E+02  0.64577174158E+03  0.67953972697E+03  0.12500000000E+03 0.  0.
         25    1    1    2    0    0  0.26871212298E+02 -0.92861826726E+02  0.13155729190E+03  0.20561542249E+03  0.12500000000E+03 0.  0.
         25    1    1    2    0    0  0.13710295652E+03  0.45527164319E+02  0.48260754464E+03  0.51904237353E+03  0.12500000000E+03 0.  0.
</event>
<event>
 5    0  0.5605075E-005  0.5845310E+03  0.7546771E-02  0.9938029E-01
         21   -1    0    0  502  501  0.00000000000E+00  0.00000000000E+00  0.50355708216E+03  0.50355708216E+03  0.00000000000E+00 0. -1.
         21   -1    0    0  501  502 -0.00000000000E+00 -0.00000000000E+00 -0.67852581329E+03  0.67852581329E+03  0.00000000000E+00 0. -1.
         25    1    1    2    0    0  0.20965971971E+02  0.78201894108E+02 -0.24035630643E+02  0.15085695133E+03  0.12500000000E+03 0.  0.
         25    1    1    2    0    0 -0.81126228962E+02  0.29141830797E+03  0.29147345224E+03  0.43827830040E+03  0.12500000000E+03 0.  0.
         25    1    1    2    0    0  0.60160256991E+02 -0.36962020207E+03 -0.44240655272E+03  0.59294764372E+03  0.12500000000E+03 0.  0.
</event>
<event>
 5    0  0.5605075E-005  0.2502260E+03  0.7546771E-02  0.1113162E+00
         21   -1    0    0  502  501  0.00000000000E+00  0.00000000000E+00  0.19520752818E+03  0.19520752818E+03  0.00000000000E+00 0.  1.
         21   -1    0    0  501  502 -0.00000000000E+00 -0.00000000000E+00 -0.32075129504E+03  0.32075129504E+03  0.00000000000E+00 0.  1.
         25    1    1    2    0    0  0.11236117630E+03  0.38467543327E+02 -0.55492155790E+02  0.18113300412E+03  0.12500000000E+03 0.  0.
         25    1    1    2    0    0 -0.10307782712E+03  0.33902689786E+02  0.16232703987E+02  0.16632177097E+03  0.12500000000E+03 0.  0.
         25    1    1    2    0    0 -0.92833491769E+01 -0.72370233113E+02 -0.86284315058E+02  0.16850404813E+03  0.12500000000E+03 0.  0.
</event>
<event>
 5    0  0.5605075E-005  0.3236257E+03  0.7546771E-02  0.1073993E+00
         21   -1    0    0  502  501  0.00000000000E+00  0.00000000000E+00  0.36505369713E+03  0.36505369713E+03  0.00000000000E+00 0.  1.
         21   -1    0    0  501  502 -0.00000000000E+00 -0.00000000000E+00 -0.28689905922E+03  0.28689905922E+03  0.00000000000E+00 0.  1.
         25    1    1    2    0    0 -0.24197978136E+02 -0.11160891166E+03 -0.17241217530E+03  0.24164653836E+03  0.12500000000E+03 0.  0.
         25    1    1    2    0    0  0.90823579433E+01  0.28649932677E+02  0.22244265091E+03  0.25692224662E+03  0.12500000000E+03 0.  0.
         25    1    1    2    0    0  0.15115620193E+02  0.82958978979E+02  0.28124162304E+02  0.15338397137E+03  0.12500000000E+03 0.  0.
</event>
<event>
 5    0  0.5605075E-005  0.2450174E+03  0.7546771E-02  0.1116495E+00
         21   -1    0    0  502  501  0.00000000000E+00  0.00000000000E+00  0.38146876902E+03  0.38146876902E+03  0.00000000000E+00 0.  1.
         21   -1    0    0  501  502 -0.00000000000E+00 -0.00000000000E+00 -0.15737470909E+03  0.15737470909E+03  0.00000000000E+00 0.  1.
         25    1    1    2    0    0 -0.16355318053E+02  0.51001745067E+02  0.38190777434E+02  0.14125229170E+03  0.12500000000E+03 0.  0.
         25    1    1    2    0    0  0.69660909537E+02  0.43236941278E+02  0.17742166642E+03  0.23200328257E+03  0.12500000000E+03 0.  0.
         25    1    1    2    0    0 -0.53305591484E+02 -0.94238686346E+02  0.84816160738E+01  0.16558790384E+03  0.12500000000E+03 0.  0.
</event>
<event>
 5    0  0.5605075E-005  0.4086538E+03  0.7546771E-02  0.1040824E+00
         21   -1    0    0  502  501  0.00000000000E+00  0.00000000000E+00  0.42972519098E+03  0.42972519098E+03  0.00000000000E+00 0.  1.
         21   -1    0    0  501  502 -0.00000000000E+00 -0.00000000000E+00 -0.38861567124E+03  0.38861567124E+03  0.00000000000E+00 0.  1.
         25    1    1    2    0    0  0.20139086622E+03 -0.60452474209E+02  0.18310552725E+03  0.30555755063E+03  0.12500000000E+03 0.  0.
         25    1    1    2    0    0  0.99012653520E+02  0.56948542428E+01 -0.74058628551E+02  0.17591366458E+03  0.12500000000E+03 0.  0.
         25    1    1    2    0    0 -0.30040351974E+03  0.54757619966E+02 -0.67937378957E+02  0.33686964701E+03  0.12500000000E+03 0.  0.
</event>
<event>
 5    0  0.5605075E-005  0.3058770E+03  0.7546771E-02  0.1082339E+00
         21   -1    0    0  502  501  0.00000000000E+00  0.00000000000E+00  0.12723532207E+03  0.12723532207E+03  0.00000000000E+00 0. -1.
         21   -1    0    0  501  502 -0.00000000000E+00 -0.00000000000E+00 -0.73533604924E+03  0.73533604924E+03  0.00000000000E+00 0. -1.
         25    1    1    2    0    0 -0.70019061164E+02 -0.97827379953E+01 -0.96996009850E+02  0.17329626890E+03  0.12500000000E+03 0.  0.
         25    1    1    2    0    0  0.10319161525E+03 -0.15368780124E+03 -0.38657266672E+03  0.44646598567E+03  0.12500000000E+03 0.  0.
         25    1    1    2    0    0 -0.33172554083E+02  0.16347053923E+03 -0.12453205061E+03  0.24280911673E+03  0.12500000000E+03 0.  0.
</event>
<event>
 5    0  0.6991411E-005  0.3391720E+03  0.7546771E-02  0.1067149E+00
         21   -1    0    0  502  501  0.00000000000E+00  0.00000000000E+00  0.64191255978E+03  0.64191255978E+03  0.00000000000E+00 0. -1.
         21   -1    0    0  501  502 -0.00000000000E+00 -0.00000000000E+00 -0.17921073377E+03  0.17921073377E+03  0.00000000000E+00 0. -1.
         25    1    1    2    0    0  0.61155246066E+02 -0.46962911588E+02  0.40322785900E+03  0.42914238367E+03  0.12500000000E+03 0.  0.
         25    1    1    2    0    0 -0.14762049280E+03 -0.21488785064E+02  0.10230162701E+03  0.21987314676E+03  0.12500000000E+03 0.  0.
         25    1    1    2    0    0  0.86465246734E+02  0.68451696652E+02 -0.42827659997E+02  0.17210776313E+03  0.12500000000E+03 0.  0.
</event>
<event>
 5    0  0.5605075E-005  0.2911559E+03  0.7546771E-02  0.1089747E+00
         21   -1    0    0  502  501  0.00000000000E+00  0.00000000000E+00  0.87069042698E+02  0.87069042698E+02  0.00000000000E+00 0.  1.
         21   -1    0    0  501  502 -0.00000000000E+00 -0.00000000000E+00 -0.97361526525E+03  0.97361526525E+03  0.00000000000E+00 0.  1.
         25    1    1    2    0    0 -0.35850084164E+02 -0.38266367729E+02 -0.44716717419E+03  0.46726119581E+03  0.12500000000E+03 0.  0.
         25    1    1    2    0    0  0.93716832160E+02 -0.11368736132E+03 -0.22885620466E+03  0.29951264275E+03  0.12500000000E+03 0.  0.
         25    1    1    2    0    0 -0.57866747996E+02  0.15195372905E+03 -0.21052284369E+03  0.29391046938E+03  0.12500000000E+03 0.  0.
</event>
<event>
 5    0  0.5605075E-005  0.2988354E+03  0.7546771E-02  0.1085824E+00
         21   -1    0    0  502  501  0.00000000000E+00  0.00000000000E+00  0.40272559980E+03  0.40272559980E+03  0.00000000000E+00 0.  1.
         21   -1    0    0  501  502 -0.00000000000E+00 -0.00000000000E+00 -0.22174556219E+03  0.22174556219E+03  0.00000000000E+00 0.  1.
         25    1    1    2    0    0  0.13342164770E+03  0.74983491359E+02  0.24345920726E+03  0.31356218785E+03  0.12500000000E+03 0.  0.
         25    1    1    2    0    0 -0.41442177802E+02 -0.56330835648E+02 -0.18305646569E+01  0.14324443484E+03  0.12500000000E+03 0.  0.
         25    1    1    2    0    0 -0.91979469900E+02 -0.18652655711E+02 -0.60648604997E+02  0.16766453929E+03  0.12500000000E+03 0.  0.
</event>
<event>
 5    0  0.5605075E-005  0.2905620E+03  0.7546771E-02  0.1090056E+00
         21   -1    0    0  502  501  0.00000000000E+00  0.00000000000E+00  0.25186568103E+03  0.25186568103E+03  0.00000000000E+00 0. -1.
         21   -1    0    0  501  502 -0.00000000000E+00 -0.00000000000E+00 -0.33520354908E+03  0.33520354908E+03  0.00000000000E+00 0. -1.
         25    1    1    2    0    0 -0.41760135771E+02 -0.65706695522E+02  0.86651991573E+01  0.14751733611E+03  0.12500000000E+03 0.  0.
         25    1    1    2    0    0 -0.13558100760E+03  0.10046182129E+03 -0.49263690248E+02  0.21570048292E+03  0.12500000000E+03 0.  0.
         25    1    1    2    0    0  0.17734114337E+03 -0.34755125765E+02 -0.42739376968E+02  0.22385141108E+03  0.12500000000E+03 0.  0.
</event>
<event>
 5    0  0.5605075E-005  0.4773945E+03  0.7546771E-02  0.1019854E+00
         21   -1    0    0  502  501  0.00000000000E+00  0.00000000000E+00  0.85388036640E+03  0.85388036640E+03  0.00000000000E+00 0. -1.
         21   -1    0    0  501  502 -0.00000000000E+00 -0.00000000000E+00 -0.26690563406E+03  0.26690563406E+03  0.00000000000E+00 0. -1.
         25    1    1    2    0    0  0.23137647154E+03  0.31889823003E+03  0.44269316998E+03  0.60566772693E+03  0.12500000000E+03 0.  0.
         25    1    1    2    0    0 -0.18626698665E+03 -0.20327218122E+03  0.15212019070E+03  0.33879274253E+03  0.12500000000E+03 0.  0.
         25    1    1    2    0    0 -0.45109484893E+02 -0.11562604881E+03 -0.78386283384E+01  0.17632553101E+03  0.12500000000E+03 0.  0.
</event>
<event>
 5    0  0.5605075E-005  0.3151392E+03  0.7546771E-02  0.1077908E+00
         21   -1    0    0  502  501  0.00000000000E+00  0.00000000000E+00  0.10835149412E+04  0.10835149412E+04  0.00000000000E+00 0.  1.
         21   -1    0    0  501  502 -0.00000000000E+00 -0.00000000000E+00 -0.91657901345E+02  0.91657901345E+02  0.00000000000E+00 0.  1.
         25    1    1    2    0    0 -0.26943810995E+02  0.14167003449E+03  0.17353597947E+03  0.25794593192E+03  0.12500000000E+03 0.  0.
         25    1    1    2    0    0 -0.10395852131E+02 -0.87594929330E+02  0.94641786559E+02  0.17989722941E+03  0.12500000000E+03 0.  0.
         25    1    1    2    0    0  0.37339663126E+02 -0.54075105156E+02  0.72367927384E+03  0.73732968123E+03  0.12500000000E+03 0.  0.
</event>
<event>
 5    0  0.5605075E-005  0.3381989E+03  0.7546771E-02  0.1067566E+00
         21   -1    0    0  502  501  0.00000000000E+00  0.00000000000E+00  0.46538668491E+02  0.46538668491E+02  0.00000000000E+00 0.  1.
         21   -1    0    0  501  502 -0.00000000000E+00 -0.00000000000E+00 -0.24577093537E+04  0.24577093537E+04  0.00000000000E+00 0.  1.
         25    1    1    2    0    0 -0.12719831978E+03  0.90474545344E+02 -0.92976664298E+03  0.95102895135E+03  0.12500000000E+03 0.  0.
         25    1    1    2    0    0  0.18299166305E+03  0.88979750147E+02 -0.83872954272E+03  0.87206398304E+03  0.12500000000E+03 0.  0.
         25    1    1    2    0    0 -0.55793343263E+02 -0.17945429549E+03 -0.64267449955E+03  0.68115508785E+03  0.12500000000E+03 0.  0.
</event>
<event>
 5    0  0.5605075E-005  0.2567345E+03  0.7546771E-02  0.1109121E+00
         21   -1    0    0  502  501  0.00000000000E+00  0.00000000000E+00  0.79758343477E+03  0.79758343477E+03  0.00000000000E+00 0. -1.
         21   -1    0    0  501  502 -0.00000000000E+00 -0.00000000000E+00 -0.82640397217E+02  0.82640397217E+02  0.00000000000E+00 0. -1.
         25    1    1    2    0    0 -0.50615349609E+02 -0.12290693836E+03  0.14604888201E+03  0.23371629180E+03  0.12500000000E+03 0.  0.
         25    1    1    2    0    0 -0.26693738725E+02  0.39517280296E+02  0.19838135558E+03  0.23927877752E+03  0.12500000000E+03 0.  0.
         25    1    1    2    0    0  0.77309088334E+02  0.83389658068E+02  0.37051279996E+03  0.40722876267E+03  0.12500000000E+03 0.  0.
</event>
<event>
 5    0  0.5605075E-005  0.3091549E+03  0.7546771E-02  0.1080752E+00
         21   -1    0    0  502  501  0.00000000000E+00  0.00000000000E+00  0.41456800098E+03  0.41456800098E+03  0.00000000000E+00 0. -1.
         21   -1    0    0  501  502 -0.00000000000E+00 -0.00000000000E+00 -0.23054539540E+03  0.23054539540E+03  0.00000000000E+00 0. -1.
         25    1    1    2    0    0 -0.40503288318E+02  0.91092585944E+01 -0.60123659118E+02  0.14478725546E+03  0.12500000000E+03 0.  0.
         25    1    1    2    0    0  0.79213256495E+02 -0.62763513477E+02  0.30624167714E+03  0.34586552798E+03  0.12500000000E+03 0.  0.
         25    1    1    2    0    0 -0.38709968176E+02  0.53654254883E+02 -0.62095412444E+02  0.15446061294E+03  0.12500000000E+03 0.  0.
</event>
<event>
 5    0  0.5605075E-005  0.2487453E+03  0.7546771E-02  0.1114100E+00
         21   -1    0    0  502  501  0.00000000000E+00  0.00000000000E+00  0.35592536508E+03  0.35592536508E+03  0.00000000000E+00 0.  1.
         21   -1    0    0  501  502 -0.00000000000E+00 -0.00000000000E+00 -0.17384047290E+03  0.17384047290E+03  0.00000000000E+00 0.  1.
         25    1    1    2    0    0  0.79108443023E+02 -0.14457510012E+02 -0.79333798904E+01  0.14884590646E+03  0.12500000000E+03 0.  0.
         25    1    1    2    0    0 -0.53265186449E+02  0.10231046495E+03  0.65986908627E+02  0.18243871145E+03  0.12500000000E+03 0.  0.
         25    1    1    2    0    0 -0.25843256574E+02 -0.87852954935E+02  0.12403136344E+03  0.19848122007E+03  0.12500000000E+03 0.  0.
</event>
<event>
 5    0  0.5605075E-005  0.3491102E+03  0.7546771E-02  0.1062981E+00
         21   -1    0    0  502  501  0.00000000000E+00  0.00000000000E+00  0.38508625002E+03  0.38508625002E+03  0.00000000000E+00 0. -1.
         21   -1    0    0  501  502 -0.00000000000E+00 -0.00000000000E+00 -0.31649508252E+03  0.31649508252E+03  0.00000000000E+00 0. -1.
         25    1    1    2    0    0 -0.11547013883E+02  0.14520159381E+03  0.14395790020E+03  0.23992855896E+03  0.12500000000E+03 0.  0.
         25    1    1    2    0    0 -0.12220620073E+03 -0.17811834430E+03 -0.10950782469E+03  0.27253892151E+03  0.12500000000E+03 0.  0.
         25    1    1    2    0    0  0.13375321461E+03  0.32916750483E+02  0.34141091978E+02  0.18911385206E+03  0.12500000000E+03 0.  0.
</event>
<event>
 5    0  0.5605075E-005  0.2855746E+03  0.7546771E-02  0.1092683E+00
         21   -1    0    0  502  501  0.00000000000E+00  0.00000000000E+00  0.20420010718E+03  0.20420010718E+03  0.00000000000E+00 0.  1.
         21   -1    0    0  501  502 -0.00000000000E+00 -0.00000000000E+00 -0.39937713298E+03  0.39937713298E+03  0.00000000000E+00 0.  1.
         25    1    1    2    0    0  0.16999208599E+03 -0.63477150554E+02 -0.15922299718E+03  0.27185220391E+03  0.12500000000E+03 0.  0.
         25    1    1    2    0    0 -0.32940949894E+02 -0.94570776184E+01 -0.25753381575E+02  0.13214680912E+03  0.12500000000E+03 0.  0.
         25    1    1    2    0    0 -0.13705113610E+03  0.72934228172E+02 -0.10200647053E+02  0.19957822713E+03  0.12500000000E+03 0.  0.
</event>
<event>
 5    0  0.5605075E-005  0.4679528E+03  0.7546771E-02  0.1022500E+00
         21   -1    0    0  502  501  0.00000000000E+00  0.00000000000E+00  0.26898850535E+03  0.26898850535E+03  0.00000000000E+00 0.  1.
         21   -1    0    0  501  502 -0.00000000000E+00 -0.00000000000E+00 -0.81408604580E+03  0.81408604580E+03  0.00000000000E+00 0.  1.
         25    1    1    2    0    0  0.84162434977E+02  0.85034914927E+02 -0.15055277661E+03  0.22935865094E+03  0.12500000000E+03 0.  0.
         25    1    1    2    0    0 -0.15001004226E+03  0.44512542988E+02  0.16674220446E+03  0.26059996548E+03  0.12500000000E+03 0.  0.
         25    1    1    2    0    0  0.65847607281E+02 -0.12954745792E+03 -0.56128696831E+03  0.59311593473E+03  0.12500000000E+03 0.  0.
</event>
<event>
 5    0  0.5605075E-005  0.2107176E+03  0.7546771E-02  0.1140999E+00
         21   -1    0    0  502  501  0.00000000000E+00  0.00000000000E+00  0.84591188985E+02  0.84591188985E+02  0.00000000000E+00 0.  1.
         21   -1    0    0  501  502 -0.00000000000E+00 -0.00000000000E+00 -0.52490010604E+03  0.52490010604E+03  0.00000000000E+00 0.  1.
         25    1    1    2    0    0 -0.61891859523E+02  0.12974091279E+02 -0.14650424643E+03  0.20270032941E+03  0.12500000000E+03 0.  0.
         25    1    1    2    0    0  0.45543026740E+02  0.93303498623E+01 -0.74259581163E+02  0.15264569469E+03  0.12500000000E+03 0.  0.
         25    1    1    2    0    0  0.16348832783E+02 -0.22304441141E+02 -0.21954508946E+03  0.25414527093E+03  0.12500000000E+03 0.  0.
</event>
<event>
 5    0  0.5605075E-005  0.3769506E+03  0.7546771E-02  0.1052067E+00
         21   -1    0    0  502  501  0.00000000000E+00  0.00000000000E+00  0.38014521520E+03  0.38014521520E+03  0.00000000000E+00 0.  1.
         21   -1    0    0  501  502 -0.00000000000E+00 -0.00000000000E+00 -0.37378278863E+03  0.37378278863E+03  0.00000000000E+00 0.  1.
         25    1    1    2    0    0 -0.97457158416E+02  0.75360915487E+02 -0.24558543723E+03  0.30185157328E+03  0.12500000000E+03 0.  0.
         25    1    1    2    0    0  0.11402854243E+03  0.14645787837E+02  0.24356547559E+03  0.29692785065E+03  0.12500000000E+03 0.  0.
         25    1    1    2    0    0 -0.16571384019E+02 -0.90006703324E+02  0.83823882117E+01  0.15514857990E+03  0.12500000000E+03 0.  0.
</event>
<event>
 5    0  0.5605075E-005  0.2380993E+03  0.7546771E-02  0.1121066E+00
         21   -1    0    0  502  501  0.00000000000E+00  0.00000000000E+00  0.24080477142E+03  0.24080477142E+03  0.00000000000E+00 0. -1.
         21   -1    0    0  501  502 -0.00000000000E+00 -0.00000000000E+00 -0.23542428100E+03  0.23542428100E+03  0.00000000000E+00 0. -1.
         25    1    1    2    0    0  0.54390850046E+02 -0.26263318357E+02  0.76410205506E+02  0.15846654526E+03  0.12500000000E+03 0.  0.
         25    1    1    2    0    0  0.52484359662E+02  0.22917564882E+02  0.26502079771E+01  0.13752034901E+03  0.12500000000E+03 0.  0.
         25    1    1    2    0    0 -0.10687520971E+03  0.33457534755E+01 -0.73679923064E+02  0.18024215816E+03  0.12500000000E+03 0.  0.
</event>
<event>
 5    0  0.5605075E-005  0.3243919E+03  0.7546771E-02  0.1073646E+00
         21   -1    0    0  502  501  0.00000000000E+00  0.00000000000E+00  0.23636448906E+03  0.23636448906E+03  0.00000000000E+00 0. -1.
         21   -1    0    0  501  502 -0.00000000000E+00 -0.00000000000E+00 -0.44520274330E+03  0.44520274330E+03  0.00000000000E+00 0.  1.
         25    1    1    2    0    0  0.11050913625E+03  0.46578824946E+02 -0.45729980785E+01  0.17328522280E+03  0.12500000000E+03 0.  0.
         25    1    1    2    0    0 -0.28746239377E+02 -0.19906722945E+03 -0.42823636050E+02  0.24065114154E+03  0.12500000000E+03 0.  0.
         25    1    1    2    0    0 -0.81762896875E+02  0.15248840450E+03 -0.16144162012E+03  0.26763086802E+03  0.12500000000E+03 0.  0.
</event>
<event>
 5    0  0.5605075E-005  0.3665096E+03  0.7546771E-02  0.1056036E+00
         21   -1    0    0  502  501  0.00000000000E+00  0.00000000000E+00  0.15374685284E+03  0.15374685284E+03  0.00000000000E+00 0. -1.
         21   -1    0    0  501  502 -0.00000000000E+00 -0.00000000000E+00 -0.87370423557E+03  0.87370423557E+03  0.00000000000E+00 0. -1.
         25    1    1    2    0    0 -0.17592645029E+03  0.58325352422E+02 -0.37832450435E+03  0.43943872524E+03  0.12500000000E+03 0.  0.
         25    1    1    2    0    0  0.25361963675E+03 -0.47736135374E+02 -0.33407006858E+03  0.44026068355E+03  0.12500000000E+03 0.  0.
         25    1    1    2    0    0 -0.77693186457E+02 -0.10589217047E+02 -0.75628097997E+01  0.14775167962E+03  0.12500000000E+03 0.  0.
</event>
<event>
 5    0  0.5605075E-005  0.4245479E+03  0.7546771E-02  0.1035596E+00
         21   -1    0    0  502  501  0.00000000000E+00  0.00000000000E+00  0.71190452041E+03  0.71190452041E+03  0.00000000000E+00 0. -1.
         21   -1    0    0  501  502 -0.00000000000E+00 -0.00000000000E+00 -0.25318135113E+03  0.25318135113E+03  0.00000000000E+00 0. -1.
         25    1    1    2    0    0 -0.77778132126E+02 -0.35850750693E+02 -0.12427523668E+03  0.19596950940E+03  0.12500000000E+03 0.  0.
         25    1    1    2    0    0  0.39266614999E+02 -0.12510970070E+03  0.52258126049E+03  0.55309174472E+03  0.12500000000E+03 0.  0.
         25    1    1    2    0    0  0.38511517127E+02  0.16096045140E+03  0.60417145461E+02  0.21602461742E+03  0.12500000000E+03 0.  0.
</event>
<event>
 5    0  0.5605075E-005  0.3078044E+03  0.7546771E-02  0.1081403E+00
         21   -1    0    0  502  501  0.00000000000E+00  0.00000000000E+00  0.32437563364E+03  0.32437563364E+03  0.00000000000E+00 0.  1.
         21   -1    0    0  501  502 -0.00000000000E+00 -0.00000000000E+00 -0.29207978776E+03  0.29207978776E+03  0.00000000000E+00 0.  1.
         25    1    1    2    0    0  0.10151525220E+03  0.16751614957E+03 -0.95406990310E+01  0.23255758799E+03  0.12500000000E+03 0.  0.
         25    1    1    2    0    0 -0.15945162299E+03 -0.11335518382E+03  0.94210205322E+01  0.23235312221E+03  0.12500000000E+03 0.  0.
         25    1    1    2    0    0  0.57936370797E+02 -0.54160965753E+02  0.32415524380E+02  0.15154471120E+03  0.12500000000E+03 0.  0.
</event>
<event>
 5    0  0.5605075E-005  0.2718223E+03  0.7546771E-02  0.1100241E+00
         21   -1    0    0  502  501  0.00000000000E+00  0.00000000000E+00  0.92555183521E+02  0.92555183521E+02  0.00000000000E+00 0.  1.
         21   -1    0    0  501  502 -0.00000000000E+00 -0.00000000000E+00 -0.79830601377E+03  0.79830601377E+03  0.00000000000E+00 0.  1.
         25    1    1    2    0    0 -0.15265084421E+03  0.11657391334E+02 -0.26316370072E+03  0.32911746898E+03  0.12500000000E+03 0.  0.
         25    1    1    2    0    0  0.69245727677E+02  0.85218502382E+02 -0.23204525664E+03  0.28552962207E+03  0.12500000000E+03 0.  0.
         25    1    1    2    0    0  0.83405116536E+02 -0.96875893715E+02 -0.21054187289E+03  0.27621410624E+03  0.12500000000E+03 0.  0.
</event>
<event>
 5    0  0.5605075E-005  0.5109867E+03  0.7546771E-02  0.1010950E+00
         21   -1    0    0  502  501  0.00000000000E+00  0.00000000000E+00  0.31994647216E+03  0.31994647216E+03  0.00000000000E+00 0. -1.
         21   -1    0    0  501  502 -0.00000000000E+00 -0.00000000000E+00 -0.81609707972E+03  0.81609707972E+03  0.00000000000E+00 0. -1.
         25    1    1    2    0    0 -0.37138736935E+02  0.91357451656E+02  0.85293573072E+02  0.18062520135E+03  0.12500000000E+03 0.  0.
         25    1    1    2    0    0 -0.19413169035E+03  0.16070718299E+03 -0.14653362245E+02  0.28169776870E+03  0.12500000000E+03 0.  0.
         25    1    1    2    0    0  0.23127042729E+03 -0.25206463465E+03 -0.56679081839E+03  0.67372058184E+03  0.12500000000E+03 0.  0.
</event>
<event>
 5    0  0.5605075E-005  0.2633675E+03  0.7546771E-02  0.1105137E+00
         21   -1    0    0  502  501  0.00000000000E+00  0.00000000000E+00  0.46183949334E+02  0.46183949334E+02  0.00000000000E+00 0. -1.
         21   -1    0    0  501  502 -0.00000000000E+00 -0.00000000000E+00 -0.15018731601E+04  0.15018731601E+04  0.00000000000E+00 0. -1.
         25    1    1    2    0    0  0.13973970380E+03  0.31840914556E+00 -0.41443583032E+03  0.45487288736E+03  0.12500000000E+03 0.  0.
         25    1    1    2    0    0 -0.16173926622E+03  0.14617193693E+02 -0.62277713443E+03  0.65562917244E+03  0.12500000000E+03 0.  0.
         25    1    1    2    0    0  0.21999562421E+02 -0.14935602838E+02 -0.41847624606E+03  0.43755504967E+03  0.12500000000E+03 0.  0.
</event>
<event>
 5    0  0.5605075E-005  0.5416529E+03  0.7546771E-02  0.1003445E+00
         21   -1    0    0  502  501  0.00000000000E+00  0.00000000000E+00  0.27246997776E+03  0.27246997776E+03  0.00000000000E+00 0.  1.
         21   -1    0    0  501  502 -0.00000000000E+00 -0.00000000000E+00 -0.10767714974E+04  0.10767714974E+04  0.00000000000E+00 0.  1.
         25    1    1    2    0    0 -0.14151438531E+03 -0.32648909805E+02 -0.75479618792E+03  0.77873908202E+03  0.12500000000E+03 0.  0.
         25    1    1    2    0    0  0.24340432652E+03 -0.77037003776E+02  0.12337120842E+03  0.30988033366E+03  0.12500000000E+03 0.  0.
         25    1    1    2    0    0 -0.10188994121E+03  0.10968591358E+03 -0.17287654013E+03  0.26062205948E+03  0.12500000000E+03 0.  0.
</event>
<event>
 5    0  0.5605075E-005  0.2522669E+03  0.7546771E-02  0.1111881E+00
         21   -1    0    0  502  501  0.00000000000E+00  0.00000000000E+00  0.29087068737E+03  0.29087068737E+03  0.00000000000E+00 0.  1.
         21   -1    0    0  501  502 -0.00000000000E+00 -0.00000000000E+00 -0.21878655837E+03  0.21878655837E+03  0.00000000000E+00 0.  1.
         25    1    1    2    0    0  0.43938466583E+02 -0.19629884630E+02  0.57187937525E+02  0.14564127648E+03  0.12500000000E+03 0.  0.
         25    1    1    2    0    0 -0.48516151639E+02  0.60024339981E+02 -0.10935520580E+03  0.18314010865E+03  0.12500000000E+03 0.  0.
         25    1    1    2    0    0  0.45776850557E+01 -0.40394455352E+02  0.12425139729E+03  0.18087586061E+03  0.12500000000E+03 0.  0.
</event>
<event>
 5    0  0.5605075E-005  0.3261125E+03  0.7546771E-02  0.1072870E+00
         21   -1    0    0  502  501  0.00000000000E+00  0.00000000000E+00  0.64850959557E+03  0.64850959557E+03  0.00000000000E+00 0. -1.
         21   -1    0    0  501  502 -0.00000000000E+00 -0.00000000000E+00 -0.16399044499E+03  0.16399044499E+03  0.00000000000E+00 0. -1.
         25    1    1    2    0    0  0.72542352353E+02 -0.21448976503E+03  0.12072001523E+03  0.28542349985E+03  0.12500000000E+03 0.  0.
         25    1    1    2    0    0 -0.11886263109E+03  0.83298434417E+02  0.21594823036E+03  0.28866172667E+03  0.12500000000E+03 0.  0.
         25    1    1    2    0    0  0.46320278732E+02  0.13119133062E+03  0.14785090499E+03  0.23841481405E+03  0.12500000000E+03 0.  0.
</event>
<event>
 5    0  0.5605075E-005  0.2336892E+03  0.7546771E-02  0.1124070E+00
         21   -1    0    0  502  501  0.00000000000E+00  0.00000000000E+00  0.37658724679E+03  0.37658724679E+03  0.00000000000E+00 0. -1.
         21   -1    0    0  501  502 -0.00000000000E+00 -0.00000000000E+00 -0.14501461778E+03  0.14501461778E+03  0.00000000000E+00 0. -1.
         25    1    1    2    0    0 -0.63421759950E+02  0.15353781175E+02  0.42682031945E+02  0.14732553778E+03  0.12500000000E+03 0.  0.
         25    1    1    2    0    0  0.11274891564E+03 -0.33159902921E+02  0.46677440539E+02  0.17780798799E+03  0.12500000000E+03 0.  0.
         25    1    1    2    0    0 -0.49327155688E+02  0.17806121745E+02  0.14221315653E+03  0.19646833880E+03  0.12500000000E+03 0.  0.
</event>
<event>
 5    0  0.5605075E-005  0.6188127E+03  0.7546771E-02  0.9867126E-01
         21   -1    0    0  502  501  0.00000000000E+00  0.00000000000E+00  0.10552999567E+04  0.10552999567E+04  0.00000000000E+00 0.  1.
         21   -1    0    0  501  502 -0.00000000000E+00 -0.00000000000E+00 -0.36286289598E+03  0.36286289598E+03  0.00000000000E+00 0.  1.
         25    1    1    2    0    0  0.10414405106E+03  0.25885242973E+03  0.12831418373E+03  0.33157215428E+03  0.12500000000E+03 0.  0.
         25    1    1    2    0    0 -0.13228060474E+03  0.10090923939E+03 -0.16362589922E+03  0.26472489093E+03  0.12500000000E+03 0.  0.
         25    1    1    2    0    0  0.28136553675E+02 -0.35976166912E+03  0.72774877623E+03  0.82186580750E+03  0.12500000000E+03 0.  0.
</event>
<event>
 5    0  0.5605075E-005  0.3927379E+03  0.7546771E-02  0.1046324E+00
         21   -1    0    0  502  501  0.00000000000E+00  0.00000000000E+00  0.34458274158E+03  0.34458274158E+03  0.00000000000E+00 0. -1.
         21   -1    0    0  501  502 -0.00000000000E+00 -0.00000000000E+00 -0.44762278985E+03  0.44762278985E+03  0.00000000000E+00 0. -1.
         25    1    1    2    0    0 -0.53330075111E+02 -0.94188010835E+02 -0.28017832515E+03  0.32533117308E+03  0.12500000000E+03 0.  0.
         25    1    1    2    0    0  0.64976119462E+02 -0.58725901792E+02 -0.54660955045E+02  0.16212170628E+03  0.12500000000E+03 0.  0.
         25    1    1    2    0    0 -0.11646044351E+02  0.15291391263E+03  0.23179923192E+03  0.30475265207E+03  0.12500000000E+03 0.  0.
</event>
<event>
 5    0  0.5605075E-005  0.3900640E+03  0.7546771E-02  0.1047275E+00
         21   -1    0    0  502  501  0.00000000000E+00  0.00000000000E+00  0.44378826099E+03  0.44378826099E+03  0.00000000000E+00 0.  1.
         21   -1    0    0  501  502 -0.00000000000E+00 -0.00000000000E+00 -0.34284358283E+03  0.34284358283E+03  0.00000000000E+00 0.  1.
         25    1    1    2    0    0 -0.13841594176E+03  0.11234151124E+03  0.39510310751E+01  0.21776179355E+03  0.12500000000E+03 0.  0.
         25    1    1    2    0    0 -0.96460671942E+02 -0.17504039948E+03 -0.73234134070E+02  0.24684416354E+03  0.12500000000E+03 0.  0.
         25    1    1    2    0    0  0.23487661370E+03  0.62698888238E+02  0.17022778115E+03  0.32202588673E+03  0.12500000000E+03 0.  0.
</event>
<event>
 5    0  0.5605075E-005  0.2789212E+03  0.7546771E-02  0.1096280E+00
         21   -1    0    0  502  501  0.00000000000E+00  0.00000000000E+00  0.25022021328E+03  0.25022021328E+03  0.00000000000E+00 0. -1.
         21   -1    0    0  501  502 -0.00000000000E+00 -0.00000000000E+00 -0.31091427872E+03  0.31091427872E+03  0.00000000000E+00 0. -1.
         25    1    1    2    0    0  0.49434070513E+02  0.20146150351E+02  0.99384075552E+02  0.16837989540E+03  0.12500000000E+03 0.  0.
         25    1    1    2    0    0 -0.65265632439E+01 -0.12856998196E+03 -0.39973326307E+02  0.18383607672E+03  0.12500000000E+03 0.  0.
         25    1    1    2    0    0 -0.42907507269E+02  0.10842383161E+03 -0.12010481469E+03  0.20891851989E+03  0.12500000000E+03 0.  0.
</event>
<event>
 5    0  0.5605075E-005  0.5780204E+03  0.7546771E-02  0.9952086E-01
         21   -1    0    0  502  501  0.00000000000E+00  0.00000000000E+00  0.30337957297E+03  0.30337957297E+03  0.00000000000E+00 0. -1.
         21   -1    0    0  501  502 -0.00000000000E+00 -0.00000000000E+00 -0.11012857127E+04  0.11012857127E+04  0.00000000000E+00 0. -1.
         25    1    1    2    0    0  0.32519902276E+03 -0.43136459970E+02 -0.23005930615E+03  0.41972305504E+03  0.12500000000E+03 0.  0.
         25    1    1    2    0    0  0.20205837721E+01 -0.28366425266E+03 -0.32015801076E+03  0.44564071049E+03  0.12500000000E+03 0.  0.
         25    1    1    2    0    0 -0.32721960653E+03  0.32680071263E+03 -0.24768882280E+03  0.53930152013E+03  0.12500000000E+03 0.  0.
</event>
<event>
 5    0  0.5605075E-005  0.2621723E+03  0.7546771E-02  0.1105845E+00
         21   -1    0    0  502  501  0.00000000000E+00  0.00000000000E+00  0.81275613632E+02  0.81275613632E+02  0.00000000000E+00 0. -1.
         21   -1    0    0  501  502 -0.00000000000E+00 -0.00000000000E+00 -0.84569403917E+03  0.84569403917E+03  0.00000000000E+00 0. -1.
         25    1    1    2    0    0  0.72442989754E+02  0.10086061226E+03 -0.16487450805E+03  0.24130779779E+03  0.12500000000E+03 0.  0.
         25    1    1    2    0    0 -0.50386135358E+01  0.34395286458E+02 -0.17350449976E+03  0.21665002837E+03  0.12500000000E+03 0.  0.
         25    1    1    2    0    0 -0.67404376218E+02 -0.13525589871E+03 -0.42603941773E+03  0.46901182664E+03  0.12500000000E+03 0.  0.
</event>
<event>
 5    0  0.5605075E-005  0.2899882E+03  0.7546771E-02  0.1090355E+00
         21   -1    0    0  502  501  0.00000000000E+00  0.00000000000E+00  0.63359955565E+03  0.63359955565E+03  0.00000000000E+00 0.  1.
         21   -1    0    0  501  502 -0.00000000000E+00 -0.00000000000E+00 -0.13272289789E+03  0.13272289789E+03  0.00000000000E+00 0.  1.
         25    1    1    2    0    0  0.82384381843E+01 -0.23635451523E+02  0.46892589777E+01  0.12756761181E+03  0.12500000000E+03 0.  0.
         25    1    1    2    0    0 -0.10648010933E+03 -0.80404845703E+02  0.36386327073E+03  0.40721546223E+03  0.12500000000E+03 0.  0.
         25    1    1    2    0    0  0.98241671148E+02  0.10404029723E+03  0.13232412805E+03  0.23153937950E+03  0.12500000000E+03 0.  0.
</event>
<event>
 5    0  0.5605075E-005  0.4449401E+03  0.7546771E-02  0.1029242E+00
         21   -1    0    0  502  501  0.00000000000E+00  0.00000000000E+00  0.67281470059E+02  0.67281470059E+02  0.00000000000E+00 0. -1.
         21   -1    0    0  501  502 -0.00000000000E+00 -0.00000000000E+00 -0.29424401439E+04  0.29424401439E+04  0.00000000000E+00 0. -1.
         25    1    1    2    0    0 -0.27498449164E+03  0.24120092031E+03 -0.15381173319E+04  0.15859458633E+04  0.12500000000E+03 0.  0.
         25    1    1    2    0    0  0.10960019492E+03 -0.10757572982E+03 -0.31241600069E+03  0.36988308675E+03  0.12500000000E+03 0.  0.
         25    1    1    2    0    0  0.16538429672E+03 -0.13362519049E+03 -0.10246253413E+04  0.10538926639E+04  0.12500000000E+03 0.  0.
</event>
<event>
 5    0  0.5605075E-005  0.3522106E+03  0.7546771E-02  0.1061711E+00
         21   -1    0    0  502  501  0.00000000000E+00  0.00000000000E+00  0.12918589646E+03  0.12918589646E+03  0.00000000000E+00 0.  1.
         21   -1    0    0  501  502 -0.00000000000E+00 -0.00000000000E+00 -0.96026221811E+03  0.96026221811E+03  0.00000000000E+00 0.  1.
         25    1    1    2    0    0 -0.30706074935E+02 -0.23254769246E+03 -0.12198817889E+03  0.29245069344E+03  0.12500000000E+03 0.  0.
         25    1    1    2    0    0  0.43098131243E+02  0.80054053213E+02 -0.21432567411E+03  0.26424722313E+03  0.12500000000E+03 0.  0.
         25    1    1    2    0    0 -0.12392056308E+02  0.15249363924E+03 -0.49476246866E+03  0.53275019799E+03  0.12500000000E+03 0.  0.
</event>
<event>
 5    0  0.5605075E-005  0.3694223E+03  0.7546771E-02  0.1054914E+00
         21   -1    0    0  502  501  0.00000000000E+00  0.00000000000E+00  0.27263450159E+03  0.27263450159E+03  0.00000000000E+00 0. -1.
         21   -1    0    0  501  502 -0.00000000000E+00 -0.00000000000E+00 -0.50057062760E+03  0.50057062760E+03  0.00000000000E+00 0. -1.
         25    1    1    2    0    0 -0.10966241010E+03 -0.20341803261E+02  0.11273360867E+03  0.20192449002E+03  0.12500000000E+03 0.  0.
         25    1    1    2    0    0 -0.69946152899E+02  0.14324618169E+03 -0.19454097672E+03  0.28086139731E+03  0.12500000000E+03 0.  0.
         25    1    1    2    0    0  0.17960856300E+03 -0.12290437843E+03 -0.14612875797E+03  0.29041924186E+03  0.12500000000E+03 0.  0.
</event>
<event>
 5    0  0.5605075E-005  0.3203519E+03  0.7546771E-02  0.1075487E+00
         21   -1    0    0  502  501  0.00000000000E+00  0.00000000000E+00  0.58233482367E+02  0.58233482367E+02  0.00000000000E+00 0. -1.
         21   -1    0    0  501  502 -0.00000000000E+00 -0.00000000000E+00 -0.17623085095E+04  0.17623085095E+04  0.00000000000E+00 0. -1.
         25    1    1    2    0    0  0.19310289510E+03 -0.29701899082E+02 -0.59352761086E+03  0.63723696986E+03  0.12500000000E+03 0.  0.
         25    1    1    2    0    0 -0.44606585987E+02  0.23330051112E+02 -0.14311929556E+03  0.19657612154E+03  0.12500000000E+03 0.  0.
         25    1    1    2    0    0 -0.14849630911E+03  0.63718479697E+01 -0.96742812069E+03  0.98672890044E+03  0.12500000000E+03 0.  0.
</event>
<event>
 5    0  0.5605075E-005  0.3145383E+03  0.7546771E-02  0.1078191E+00
         21   -1    0    0  502  501  0.00000000000E+00  0.00000000000E+00  0.49940069248E+02  0.49940069248E+02  0.00000000000E+00 0. -1.
         21   -1    0    0  501  502 -0.00000000000E+00 -0.00000000000E+00 -0.19810607463E+04  0.19810607463E+04  0.00000000000E+00 0. -1.
         25    1    1    2    0    0 -0.14684555767E+03  0.65902526560E+02 -0.25567949822E+03  0.32696141458E+03  0.12500000000E+03 0.  0.
         25    1    1    2    0    0  0.10857025346E+03 -0.23300317967E+02 -0.10845340780E+04  0.10973466048E+04  0.12500000000E+03 0.  0.
         25    1    1    2    0    0  0.38275304209E+02 -0.42602208593E+02 -0.59090710086E+03  0.60669279618E+03  0.12500000000E+03 0.  0.
</event>
<event>
 5    0  0.5605075E-005  0.3172620E+03  0.7546771E-02  0.1076916E+00
         21   -1    0    0  502  501  0.00000000000E+00  0.00000000000E+00  0.18039055323E+04  0.18039055323E+04  0.00000000000E+00 0.  1.
         21   -1    0    0  501  502 -0.00000000000E+00 -0.00000000000E+00 -0.55798480963E+02  0.55798480963E+02  0.00000000000E+00 0.  1.
         25    1    1    2    0    0  0.36997927765E+02 -0.13051010701E+03  0.46604871062E+03  0.50122663074E+03  0.12500000000E+03 0.  0.
         25    1    1    2    0    0 -0.89608315174E+02  0.23186260010E+03  0.73922834399E+03  0.78985660725E+03  0.12500000000E+03 0.  0.
         25    1    1    2    0    0  0.52610387409E+02 -0.10135249308E+03  0.54282999677E+03  0.56862077531E+03  0.12500000000E+03 0.  0.
</event>
<event>
 5    0  0.5605075E-005  0.3114347E+03  0.7546771E-02  0.1079660E+00
         21   -1    0    0  502  501  0.00000000000E+00  0.00000000000E+00  0.47123381824E+03  0.47123381824E+03  0.00000000000E+00 0.  1.
         21   -1    0    0  501  502 -0.00000000000E+00 -0.00000000000E+00 -0.20582476637E+03  0.20582476637E+03  0.00000000000E+00 0.  1.
         25    1    1    2    0    0  0.18504938768E+03 -0.42849081819E+02  0.20367220580E+03  0.30526494576E+03  0.12500000000E+03 0.  0.
         25    1    1    2    0    0  0.61281681433E+01 -0.25996712036E+02  0.15077562188E+02  0.12870787219E+03  0.12500000000E+03 0.  0.
         25    1    1    2    0    0 -0.19117755583E+03  0.68845793855E+02  0.46659283876E+02  0.24308576667E+03  0.12500000000E+03 0.  0.
</event>
<event>
 5    0  0.5605075E-005  0.3623133E+03  0.7546771E-02  0.1057672E+00
         21   -1    0    0  502  501  0.00000000000E+00  0.00000000000E+00  0.14377241955E+03  0.14377241955E+03  0.00000000000E+00 0.  1.
         21   -1    0    0  501  502 -0.00000000000E+00 -0.00000000000E+00 -0.91304689840E+03  0.91304689840E+03  0.00000000000E+00 0.  1.
         25    1    1    2    0    0  0.97416552975E+02 -0.19489420470E+03 -0.20582971412E+03  0.32475314784E+03  0.12500000000E+03 0.  0.
         25    1    1    2    0    0 -0.80340888239E+02  0.25859814531E+03 -0.25352978276E+03  0.39144604970E+03  0.12500000000E+03 0.  0.
         25    1    1    2    0    0 -0.17075664736E+02 -0.63703940610E+02 -0.30991498197E+03  0.34062012040E+03  0.12500000000E+03 0.  0.
</event>
<event>
 5    0  0.5605075E-005  0.4325271E+03  0.7546771E-02  0.1033065E+00
         21   -1    0    0  502  501  0.00000000000E+00  0.00000000000E+00  0.14078486537E+03  0.14078486537E+03  0.00000000000E+00 0. -1.
         21   -1    0    0  501  502 -0.00000000000E+00 -0.00000000000E+00 -0.13288339585E+04  0.13288339585E+04  0.00000000000E+00 0. -1.
         25    1    1    2    0    0  0.50767814088E+02  0.11949766845E+03 -0.49509067390E+03  0.52687459523E+03  0.12500000000E+03 0.  0.
         25    1    1    2    0    0  0.26475938816E+02  0.83422878703E+02  0.48487593410E+02  0.16011370567E+03  0.12500000000E+03 0.  0.
         25    1    1    2    0    0 -0.77243752904E+02 -0.20292054716E+03 -0.74144601263E+03  0.78263052296E+03  0.12500000000E+03 0.  0.
</event>
<event>
 5    0  0.5605075E-005  0.3427707E+03  0.7546771E-02  0.1065622E+00
         21   -1    0    0  502  501  0.00000000000E+00  0.00000000000E+00  0.75881455192E+02  0.75881455192E+02  0.00000000000E+00 0. -1.
         21   -1    0    0  501  502 -0.00000000000E+00 -0.00000000000E+00 -0.15483590317E+04  0.15483590317E+04  0.00000000000E+00 0. -1.
         25    1    1    2    0    0  0.96266523448E+02 -0.62267243059E+02 -0.10563297443E+03  0.19981936438E+03  0.12500000000E+03 0.  0.
         25    1    1    2    0    0  0.25684595965E+02  0.15602704461E+03 -0.63617467231E+03  0.66734350286E+03  0.12500000000E+03 0.  0.
         25    1    1    2    0    0 -0.12195111941E+03 -0.93759801552E+02 -0.73066992978E+03  0.75707761966E+03  0.12500000000E+03 0.  0.
</event>
<event>
 5    0  0.5605075E-005  0.3885984E+03  0.7546771E-02  0.1047801E+00
         21   -1    0    0  502  501  0.00000000000E+00  0.00000000000E+00  0.17603502346E+03  0.17603502346E+03  0.00000000000E+00 0.  1.
         21   -1    0    0  501  502 -0.00000000000E+00 -0.00000000000E+00 -0.85783318981E+03  0.85783318981E+03  0.00000000000E+00 0.  1.
         25    1    1    2    0    0 -0.13882172851E+03  0.22673673619E+03 -0.41381128134E+03  0.50748970079E+03  0.12500000000E+03 0.  0.
         25    1    1    2    0    0  0.17675941039E+03 -0.19389329852E+03 -0.92160937397E+02  0.30488873176E+03  0.12500000000E+03 0.  0.
         25    1    1    2    0    0 -0.37937681878E+02 -0.32843437673E+02 -0.17582594762E+03  0.22148978072E+03  0.12500000000E+03 0.  0.
</event>
<event>
 5    0  0.5605075E-005  0.3430644E+03  0.7546771E-02  0.1065498E+00
         21   -1    0    0  502  501  0.00000000000E+00  0.00000000000E+00  0.11266378569E+04  0.11266378569E+04  0.00000000000E+00 0. -1.
         21   -1    0    0  501  502 -0.00000000000E+00 -0.00000000000E+00 -0.10446405299E+03  0.10446405299E+03  0.00000000000E+00 0. -1.
         25    1    1    2    0    0  0.76395419324E+02  0.20596234711E+03  0.38401341790E+03  0.45972606370E+03  0.12500000000E+03 0.  0.
         25    1    1    2    0    0  0.48133236995E+02 -0.19292056015E+03  0.47863065508E+03  0.53314862376E+03  0.12500000000E+03 0.  0.
         25    1    1    2    0    0 -0.12452865632E+03 -0.13041786966E+02  0.15952973093E+03  0.23822722242E+03  0.12500000000E+03 0.  0.
</event>
<event>
 5    0  0.5605075E-005  0.2906425E+03  0.7546771E-02  0.1090014E+00
         21   -1    0    0  502  501  0.00000000000E+00  0.00000000000E+00  0.29663021913E+03  0.29663021913E+03  0.00000000000E+00 0.  1.
         21   -1    0    0  501  502 -0.00000000000E+00 -0.00000000000E+00 -0.28477566462E+03  0.28477566462E+03  0.00000000000E+00 0.  1.
         25    1    1    2    0    0  0.62073647537E+02  0.81880413657E+02 -0.86889981408E+02  0.18366384709E+03  0.12500000000E+03 0.  0.
         25    1    1    2    0    0  0.33803544015E+02  0.79749054014E+02  0.78475345730E+02  0.17113144390E+03  0.12500000000E+03 0.  0.
         25    1    1    2    0    0 -0.95877191553E+02 -0.16162946767E+03  0.20269190187E+02  0.22661059276E+03  0.12500000000E+03 0.  0.
</event>
<event>
 5    0  0.5605075E-005  0.2673607E+03  0.7546771E-02  0.1102800E+00
         21   -1    0    0  502  501  0.00000000000E+00  0.00000000000E+00  0.40808998693E+03  0.40808998693E+03  0.00000000000E+00 0. -1.
         21   -1    0    0  501  502 -0.00000000000E+00 -0.00000000000E+00 -0.17516172143E+03  0.17516172143E+03  0.00000000000E+00 0. -1.
         25    1    1    2    0    0 -0.47688663613E+02 -0.50065065046E+02  0.37937375147E+02  0.14780041884E+03  0.12500000000E+03 0.  0.
         25    1    1    2    0    0  0.84325154430E+02  0.77305149487E+02 -0.31891928155E+02  0.17242074379E+03  0.12500000000E+03 0.  0.
         25    1    1    2    0    0 -0.36636490817E+02 -0.27240084441E+02  0.22688281850E+03  0.26303054574E+03  0.12500000000E+03 0.  0.
</event>
<event>
 5    0  0.5605075E-005  0.2415314E+03  0.7546771E-02  0.1118777E+00
         21   -1    0    0  502  501  0.00000000000E+00  0.00000000000E+00  0.95252199438E+03  0.95252199438E+03  0.00000000000E+00 0. -1.
         21   -1    0    0  501  502 -0.00000000000E+00 -0.00000000000E+00 -0.61245241786E+02  0.61245241786E+02  0.00000000000E+00 0. -1.
         25    1    1    2    0    0 -0.89504600195E-01 -0.45221132478E+02  0.32670182159E+03  0.35270956758E+03  0.12500000000E+03 0.  0.
         25    1    1    2    0    0 -0.89827184062E+02 -0.51061384681E+02  0.25849938771E+03  0.30516081244E+03  0.12500000000E+03 0.  0.
         25    1    1    2    0    0  0.89916688662E+02  0.96282517159E+02  0.30607554330E+03  0.35589685615E+03  0.12500000000E+03 0.  0.
</event>
<event>
 5    0  0.5605075E-005  0.3727495E+03  0.7546771E-02  0.1053647E+00
         21   -1    0    0  502  501  0.00000000000E+00  0.00000000000E+00  0.20239301285E+03  0.20239301285E+03  0.00000000000E+00 0.  1.
         21   -1    0    0  501  502 -0.00000000000E+00 -0.00000000000E+00 -0.68649679921E+03  0.68649679921E+03  0.00000000000E+00 0.  1.
         25    1    1    2    0    0  0.49629370063E+00  0.40894888833E+02 -0.14403050802E+03  0.19504467560E+03  0.12500000000E+03 0.  0.
         25    1    1    2    0    0  0.20845511924E+02 -0.28769324327E+03 -0.25146830250E+03  0.40257079471E+03  0.12500000000E+03 0.  0.
         25    1    1    2    0    0 -0.21341805625E+02  0.24679835444E+03 -0.88604975834E+02  0.29127434175E+03  0.12500000000E+03 0.  0.
</event>
<event>
 5    0  0.5605075E-005  0.4486492E+03  0.7546771E-02  0.1028126E+00
         21   -1    0    0  502  501  0.00000000000E+00  0.00000000000E+00  0.45946539703E+03  0.45946539703E+03  0.00000000000E+00 0. -1.
         21   -1    0    0  501  502 -0.00000000000E+00 -0.00000000000E+00 -0.43808764992E+03  0.43808764992E+03  0.00000000000E+00 0. -1.
         25    1    1    2    0    0  0.37978719739E+02  0.28767421315E+03  0.18284028998E+03  0.36504028231E+03  0.12500000000E+03 0.  0.
         25    1    1    2    0    0 -0.10221247004E+03 -0.18940414897E+03 -0.23831917208E+03  0.34459011660E+03  0.12500000000E+03 0.  0.
         25    1    1    2    0    0  0.64233750297E+02 -0.98270064184E+02  0.76856629208E+02  0.18792264804E+03  0.12500000000E+03 0.  0.
</event>
<event>
 5    0  0.5605075E-005  0.2576594E+03  0.7546771E-02  0.1108558E+00
         21   -1    0    0  502  501  0.00000000000E+00  0.00000000000E+00  0.52132718009E+02  0.52132718009E+02  0.00000000000E+00 0.  1.
         21   -1    0    0  501  502 -0.00000000000E+00 -0.00000000000E+00 -0.12734496072E+04  0.12734496072E+04  0.00000000000E+00 0.  1.
         25    1    1    2    0    0  0.20587809213E+02 -0.82755884077E+02 -0.17110363906E+03  0.22841595728E+03  0.12500000000E+03 0.  0.
         25    1    1    2    0    0 -0.56840683571E+01  0.57745087703E+01 -0.21343527841E+03  0.24747782053E+03  0.12500000000E+03 0.  0.
         25    1    1    2    0    0 -0.14903740856E+02  0.76981375307E+02 -0.83677797170E+03  0.84968854739E+03  0.12500000000E+03 0.  0.
</event>
<event>
 5    0  0.5605075E-005  0.4294948E+03  0.7546771E-02  0.1034020E+00
         21   -1    0    0  502  501  0.00000000000E+00  0.00000000000E+00  0.37343311672E+03  0.37343311672E+03  0.00000000000E+00 0. -1.
         21   -1    0    0  501  502 -0.00000000000E+00 -0.00000000000E+00 -0.49397283367E+03  0.49397283367E+03  0.00000000000E+00 0. -1.
         25    1    1    2    0    0 -0.21673026003E+03  0.15592912165E+02  0.17848890064E+03  0.30773110369E+03  0.12500000000E+03 0.  0.
         25    1    1    2    0    0  0.21304254921E+03  0.10379414031E+03 -0.27701501406E+03  0.38538638968E+03  0.12500000000E+03 0.  0.
         25    1    1    2    0    0  0.36877108252E+01 -0.11938705248E+03 -0.22013603538E+02  0.17428845702E+03  0.12500000000E+03 0.  0.
</event>
<event>
 5    0  0.5605075E-005  0.2266873E+03  0.7546771E-02  0.1128993E+00
         21   -1    0    0  502  501  0.00000000000E+00  0.00000000000E+00  0.36132074226E+02  0.36132074226E+02  0.00000000000E+00 0. -1.
         21   -1    0    0  501  502 -0.00000000000E+00 -0.00000000000E+00 -0.14222029726E+04  0.14222029726E+04  0.00000000000E+00 0. -1.
         25    1    1    2    0    0  0.11087394871E+02  0.10222219041E+03 -0.61853933607E+03  0.63936547983E+03  0.12500000000E+03 0.  0.
         25    1    1    2    0    0  0.13641869347E+02 -0.88901053889E+01 -0.29730423577E+03  0.32292405172E+03  0.12500000000E+03 0.  0.
         25    1    1    2    0    0 -0.24729264219E+02 -0.93332085021E+02 -0.47022732658E+03  0.49604551532E+03  0.12500000000E+03 0.  0.
</event>
<event>
 5    0  0.5605075E-005  0.4260163E+03  0.7546771E-02  0.1035126E+00
         21   -1    0    0  502  501  0.00000000000E+00  0.00000000000E+00  0.43991286904E+03  0.43991286904E+03  0.00000000000E+00 0.  1.
         21   -1    0    0  501  502 -0.00000000000E+00 -0.00000000000E+00 -0.41255869995E+03  0.41255869995E+03  0.00000000000E+00 0.  1.
         25    1    1    2    0    0  0.95672672395E+02  0.42293036580E+02  0.40999146825E+02  0.16807108980E+03  0.12500000000E+03 0.  0.
         25    1    1    2    0    0  0.15866971466E+03 -0.72154981617E+02  0.22634985785E+03  0.31183597912E+03  0.12500000000E+03 0.  0.
         25    1    1    2    0    0 -0.25434238705E+03  0.29861945038E+02 -0.23999483559E+03  0.37256450008E+03  0.12500000000E+03 0.  0.
</event>
<event>
 5    0  0.5605075E-005  0.2745597E+03  0.7546771E-02  0.1098698E+00
         21   -1    0    0  502  501  0.00000000000E+00  0.00000000000E+00  0.16026367555E+03  0.16026367555E+03  0.00000000000E+00 0. -1.
         21   -1    0    0  501  502 -0.00000000000E+00 -0.00000000000E+00 -0.47036870760E+03  0.47036870760E+03  0.00000000000E+00 0. -1.
         25    1    1    2    0    0  0.17385756576E+03 -0.19592401671E+02 -0.16197098322E+03  0.26920236771E+03  0.12500000000E+03 0.  0.
         25    1    1    2    0    0 -0.40810245326E+02  0.47524355335E+02 -0.95760239932E+02  0.16946699981E+03  0.12500000000E+03 0.  0.
         25    1    1    2    0    0 -0.13304732043E+03 -0.27931953665E+02 -0.52373808905E+02  0.19196301563E+03  0.12500000000E+03 0.  0.
</event>
<event>
 5    0  0.5773070E-005  0.2886008E+03  0.7546771E-02  0.1091082E+00
         21   -1    0    0  502  501  0.00000000000E+00  0.00000000000E+00  0.19246405838E+03  0.19246405838E+03  0.00000000000E+00 0.  1.
         21   -1    0    0  501  502 -0.00000000000E+00 -0.00000000000E+00 -0.43275842815E+03  0.43275842815E+03  0.00000000000E+00 0.  1.
         25    1    1    2    0    0 -0.98189097608E+01 -0.27408690394E+02  0.72685321180E+02  0.14749848546E+03  0.12500000000E+03 0.  0.
         25    1    1    2    0    0 -0.23953307893E+00  0.13039836435E+03 -0.89633652219E+02  0.20165064446E+03  0.12500000000E+03 0.  0.
         25    1    1    2    0    0  0.10058442840E+02 -0.10298967396E+03 -0.22334603873E+03  0.27607335661E+03  0.12500000000E+03 0.  0.
</event>
<event>
 5    0  0.5605075E-005  0.3841561E+03  0.7546771E-02  0.1049408E+00
         21   -1    0    0  502  501  0.00000000000E+00  0.00000000000E+00  0.12005307863E+04  0.12005307863E+04  0.00000000000E+00 0. -1.
         21   -1    0    0  501  502 -0.00000000000E+00 -0.00000000000E+00 -0.12292554289E+03  0.12292554289E+03  0.00000000000E+00 0. -1.
         25    1    1    2    0    0  0.39799938362E+02  0.31696390563E+03  0.49376429748E+03  0.60123068288E+03  0.12500000000E+03 0.  0.
         25    1    1    2    0    0 -0.35624996549E+02 -0.76438108548E+02  0.16721161988E+03  0.22515916735E+03  0.12500000000E+03 0.  0.
         25    1    1    2    0    0 -0.41749418134E+01 -0.24052579708E+03  0.41662932609E+03  0.49706647901E+03  0.12500000000E+03 0.  0.
</event>
<event>
 5    0  0.5605075E-005  0.3585204E+03  0.7546771E-02  0.1059171E+00
         21   -1    0    0  502  501  0.00000000000E+00  0.00000000000E+00  0.19891938424E+03  0.19891938424E+03  0.00000000000E+00 0. -1.
         21   -1    0    0  501  502 -0.00000000000E+00 -0.00000000000E+00 -0.64617565154E+03  0.64617565154E+03  0.00000000000E+00 0. -1.
         25    1    1    2    0    0 -0.69670472135E+02  0.16348794086E+03 -0.40973931386E+03  0.46378183105E+03  0.12500000000E+03 0.  0.
         25    1    1    2    0    0 -0.64736248662E+02 -0.11846536814E+02 -0.95303299530E+01  0.14158725054E+03  0.12500000000E+03 0.  0.
         25    1    1    2    0    0  0.13440672080E+03 -0.15164140405E+03 -0.27986623486E+02  0.23972595419E+03  0.12500000000E+03 0.  0.
</event>
<event>
 5    0  0.5605075E-005  0.3688413E+03  0.7546771E-02  0.1055137E+00
         21   -1    0    0  502  501  0.00000000000E+00  0.00000000000E+00  0.49640513601E+03  0.49640513601E+03  0.00000000000E+00 0.  1.
         21   -1    0    0  501  502 -0.00000000000E+00 -0.00000000000E+00 -0.27405816274E+03  0.27405816274E+03  0.00000000000E+00 0.  1.
         25    1    1    2    0    0 -0.35885040731E+02  0.17757474967E+03  0.11037839302E+02  0.22038003939E+03  0.12500000000E+03 0.  0.
         25    1    1    2    0    0  0.51857822348E+02 -0.25454438425E+02 -0.10773290708E+03  0.17483861542E+03  0.12500000000E+03 0.  0.
         25    1    1    2    0    0 -0.15972781617E+02 -0.15212031124E+03  0.31904204105E+03  0.37524464394E+03  0.12500000000E+03 0.  0.
</event>
<event>
 5    0  0.5605075E-005  0.2641831E+03  0.7546771E-02  0.1104656E+00
         21   -1    0    0  502  501  0.00000000000E+00  0.00000000000E+00  0.82798900928E+02  0.82798900928E+02  0.00000000000E+00 0.  1.
         21   -1    0    0  501  502 -0.00000000000E+00 -0.00000000000E+00 -0.84291805011E+03  0.84291805011E+03  0.00000000000E+00 0.  1.
         25    1    1    2    0    0 -0.71775546275E+02 -0.13014647893E+03 -0.37661552595E+03  0.42373823217E+03  0.12500000000E+03 0.  0.
         25    1    1    2    0    0  0.42107341653E+02  0.15119952642E+02 -0.25300445564E+03  0.28572346030E+03  0.12500000000E+03 0.  0.
         25    1    1    2    0    0  0.29668204622E+02  0.11502652629E+03 -0.13049916759E+03  0.21625525857E+03  0.12500000000E+03 0.  0.
</event>
<event>
 5    0  0.5605075E-005  0.3138922E+03  0.7546771E-02  0.1078495E+00
         21   -1    0    0  502  501  0.00000000000E+00  0.00000000000E+00  0.42837056986E+02  0.42837056986E+02  0.00000000000E+00 0. -1.
         21   -1    0    0  501  502 -0.00000000000E+00 -0.00000000000E+00 -0.23000714038E+04  0.23000714038E+04  0.00000000000E+00 0. -1.
         25    1    1    2    0    0 -0.16303289159E+03  0.11162357598E+02 -0.10415964627E+04  0.10617214857E+04  0.12500000000E+03 0.  0.
         25    1    1    2    0    0 -0.18767496213E+02  0.95492264787E+02 -0.43223688690E+03  0.46035281898E+03  0.12500000000E+03 0.  0.
         25    1    1    2    0    0  0.18180038781E+03 -0.10665462239E+03 -0.78340099722E+03  0.82083415616E+03  0.12500000000E+03 0.  0.
</event>
<event>
 5    0  0.5605075E-005  0.5148946E+03  0.7546771E-02  0.1009963E+00
         21   -1    0    0  502  501  0.00000000000E+00  0.00000000000E+00  0.21613010810E+03  0.21613010810E+03  0.00000000000E+00 0. -1.
         21   -1    0    0  501  502 -0.00000000000E+00 -0.00000000000E+00 -0.12266520246E+04  0.12266520246E+04  0.00000000000E+00 0. -1.
         25    1    1    2    0    0  0.81319071382E+02  0.14022556799E+02 -0.41174829879E+03  0.43814505022E+03  0.12500000000E+03 0.  0.
         25    1    1    2    0    0 -0.61116766200E+02  0.28677466145E+03  0.44590444729E+01  0.31877868285E+03  0.12500000000E+03 0.  0.
         25    1    1    2    0    0 -0.20202305182E+02 -0.30079721825E+03 -0.60323266222E+03  0.68585839968E+03  0.12500000000E+03 0.  0.
</event>
<event>
 5    0  0.5605075E-005  0.2652329E+03  0.7546771E-02  0.1104039E+00
         21   -1    0    0  502  501  0.00000000000E+00  0.00000000000E+00  0.44206691537E+02  0.44206691537E+02  0.00000000000E+00 0.  1.
         21   -1    0    0  501  502 -0.00000000000E+00 -0.00000000000E+00 -0.15913534986E+04  0.15913534986E+04  0.00000000000E+00 0.  1.
         25    1    1    2    0    0 -0.72939922730E+02 -0.30524519267E+02 -0.66146814994E+03  0.67780313661E+03  0.12500000000E+03 0.  0.
         25    1    1    2    0    0  0.62123123386E+02  0.10677850331E+03 -0.69626738364E+03  0.71810458901E+03  0.12500000000E+03 0.  0.
         25    1    1    2    0    0  0.10816799344E+02 -0.76253984047E+02 -0.18941127347E+03  0.23965246452E+03  0.12500000000E+03 0.  0.
</event>
<event>
 5    0  0.5605075E-005  0.2659428E+03  0.7546771E-02  0.1103624E+00
         21   -1    0    0  502  501  0.00000000000E+00  0.00000000000E+00  0.20111768124E+03  0.20111768124E+03  0.00000000000E+00 0.  1.
         21   -1    0    0  501  502 -0.00000000000E+00 -0.00000000000E+00 -0.35166254481E+03  0.35166254481E+03  0.00000000000E+00 0.  1.
         25    1    1    2    0    0  0.66318260737E+01  0.12050359144E+03  0.56341196995E+02  0.18265931990E+03  0.12500000000E+03 0.  0.
         25    1    1    2    0    0 -0.17142211813E+02 -0.94919098077E+02 -0.45877748752E+02  0.16441793830E+03  0.12500000000E+03 0.  0.
         25    1    1    2    0    0  0.10510385740E+02 -0.25584493361E+02 -0.16100831181E+03  0.20570296785E+03  0.12500000000E+03 0.  0.
</event>
<event>
 5    0  0.5605075E-005  0.2497340E+03  0.7546771E-02  0.1113473E+00
         21   -1    0    0  502  501  0.00000000000E+00  0.00000000000E+00  0.52527214504E+02  0.52527214504E+02  0.00000000000E+00 0. -1.
         21   -1    0    0  501  502 -0.00000000000E+00 -0.00000000000E+00 -0.11873285409E+04  0.11873285409E+04  0.00000000000E+00 0. -1.
         25    1    1    2    0    0  0.50200191243E+02 -0.71192294033E+02 -0.15269050060E+03  0.21570301552E+03  0.12500000000E+03 0.  0.
         25    1    1    2    0    0  0.35608176516E+00  0.60848161560E+02 -0.66557246468E+03  0.67993700539E+03  0.12500000000E+03 0.  0.
         25    1    1    2    0    0 -0.50556273008E+02  0.10344132473E+02 -0.31653836113E+03  0.34421573451E+03  0.12500000000E+03 0.  0.
</event>
<event>
 5    0  0.5605075E-005  0.2408026E+03  0.7546771E-02  0.1119259E+00
         21   -1    0    0  502  501  0.00000000000E+00  0.00000000000E+00  0.17759261698E+03  0.17759261698E+03  0.00000000000E+00 0. -1.
         21   -1    0    0  501  502 -0.00000000000E+00 -0.00000000000E+00 -0.32651067438E+03  0.32651067438E+03  0.00000000000E+00 0. -1.
         25    1    1    2    0    0 -0.29344822930E+02 -0.66290080974E+02 -0.22238610383E+02  0.14620208364E+03  0.12500000000E+03 0.  0.
         25    1    1    2    0    0  0.83571216452E+02  0.11059106502E+03 -0.10137934569E+03  0.21240834168E+03  0.12500000000E+03 0.  0.
         25    1    1    2    0    0 -0.54226393522E+02 -0.44300984046E+02 -0.25300101321E+02  0.14549286604E+03  0.12500000000E+03 0.  0.
</event>
<event>
 5    0  0.5605075E-005  0.2774396E+03  0.7546771E-02  0.1097096E+00
         21   -1    0    0  502  501  0.00000000000E+00  0.00000000000E+00  0.71461271084E+03  0.71461271084E+03  0.00000000000E+00 0. -1.
         21   -1    0    0  501  502 -0.00000000000E+00 -0.00000000000E+00 -0.10771252523E+03  0.10771252523E+03  0.00000000000E+00 0. -1.
         25    1    1    2    0    0  0.38425036095E+02  0.29919250981E+01  0.17028557922E+03  0.21472683462E+03  0.12500000000E+03 0.  0.
         25    1    1    2    0    0  0.13919159756E+02 -0.14749276370E+03  0.10275813850E+03  0.21939027640E+03  0.12500000000E+03 0.  0.
         25    1    1    2    0    0 -0.52344195851E+02  0.14450083860E+03  0.33385646790E+03  0.38820812505E+03  0.12500000000E+03 0.  0.
</event>
<event>
 5    0  0.5605075E-005  0.2898887E+03  0.7546771E-02  0.1090407E+00
         21   -1    0    0  502  501  0.00000000000E+00  0.00000000000E+00  0.20457340954E+03  0.20457340954E+03  0.00000000000E+00 0. -1.
         21   -1    0    0  501  502 -0.00000000000E+00 -0.00000000000E+00 -0.41078383526E+03  0.41078383526E+03  0.00000000000E+00 0. -1.
         25    1    1    2    0    0  0.11113653129E+03  0.14070752026E+03 -0.11914115682E+03  0.24893683957E+03  0.12500000000E+03 0.  0.
         25    1    1    2    0    0 -0.77503454966E+02 -0.14792045394E+03  0.28974773425E+01  0.20861601473E+03  0.12500000000E+03 0.  0.
         25    1    1    2    0    0 -0.33633076323E+02  0.72129336802E+01 -0.89966746240E+02  0.15780439051E+03  0.12500000000E+03 0.  0.
</event>
<event>
 5    0  0.5605075E-005  0.7488170E+03  0.7546771E-02  0.9637208E-01
         21   -1    0    0  502  501  0.00000000000E+00  0.00000000000E+00  0.15418667179E+04  0.15418667179E+04  0.00000000000E+00 0.  1.
         21   -1    0    0  501  502 -0.00000000000E+00 -0.00000000000E+00 -0.36366752095E+03  0.36366752095E+03  0.00000000000E+00 0.  1.
         25    1    1    2    0    0 -0.15340095461E+03  0.12889181892E+03 -0.24715524532E+03  0.34184158488E+03  0.12500000000E+03 0.  0.
         25    1    1    2    0    0  0.74968303796E+02 -0.33039131370E+03  0.10704191936E+04  0.11296906288E+04  0.12500000000E+03 0.  0.
         25    1    1    2    0    0  0.78432650810E+02  0.20149949477E+03  0.35493524864E+03  0.43400202515E+03  0.12500000000E+03 0.  0.
</event>
<event>
 5    0  0.5605075E-005  0.2247700E+03  0.7546771E-02  0.1130376E+00
         21   -1    0    0  502  501  0.00000000000E+00  0.00000000000E+00  0.42272781098E+02  0.42272781098E+02  0.00000000000E+00 0.  1.
         21   -1    0    0  501  502 -0.00000000000E+00 -0.00000000000E+00 -0.11951315081E+04  0.11951315081E+04  0.00000000000E+00 0.  1.
         25    1    1    2    0    0  0.78666907154E+02 -0.25438445380E+02 -0.47360144532E+03  0.49674835258E+03  0.12500000000E+03 0.  0.
         25    1    1    2    0    0 -0.36119399697E+01 -0.14721503881E+02 -0.43954691683E+03  0.45722670622E+03  0.12500000000E+03 0.  0.
         25    1    1    2    0    0 -0.75054967184E+02  0.40159949262E+02 -0.23971036484E+03  0.28342923038E+03  0.12500000000E+03 0.  0.
</event>
<event>
 5    0  0.5605075E-005  0.3435179E+03  0.7546771E-02  0.1065307E+00
         21   -1    0    0  502  501  0.00000000000E+00  0.00000000000E+00  0.27391194033E+03  0.27391194033E+03  0.00000000000E+00 0.  1.
         21   -1    0    0  501  502 -0.00000000000E+00 -0.00000000000E+00 -0.43081200918E+03  0.43081200918E+03  0.00000000000E+00 0.  1.
         25    1    1    2    0    0  0.17147736697E+03 -0.14674967756E+03 -0.22456294710E+03  0.34204308568E+03  0.12500000000E+03 0.  0.
         25    1    1    2    0    0 -0.12451896694E+03  0.79292692284E+02 -0.10829236763E+02  0.19373842300E+03  0.12500000000E+03 0.  0.
         25    1    1    2    0    0 -0.46958400032E+02  0.67456985279E+02  0.78492115015E+02  0.16894244084E+03  0.12500000000E+03 0.  0.
</event>
<event>
 5    0  0.5605075E-005  0.4988535E+03  0.7546771E-02  0.1014079E+00
         21   -1    0    0  502  501  0.00000000000E+00  0.00000000000E+00  0.90586064694E+03  0.90586064694E+03  0.00000000000E+00 0.  1.
         21   -1    0    0  501  502 -0.00000000000E+00 -0.00000000000E+00 -0.27471644295E+03  0.27471644295E+03  0.00000000000E+00 0.  1.
         25    1    1    2    0    0  0.30610680107E+03 -0.21257635439E+03  0.48846500168E+03  0.62698735073E+03  0.12500000000E+03 0.  0.
         25    1    1    2    0    0 -0.12521615771E+03  0.82447901081E+02  0.21267755497E+03  0.28867539717E+03  0.12500000000E+03 0.  0.
         25    1    1    2    0    0 -0.18089064335E+03  0.13012845331E+03 -0.69998352654E+02  0.26491434198E+03  0.12500000000E+03 0.  0.
</event>
<event>
 5    0  0.5605075E-005  0.3750436E+03  0.7546771E-02  0.1052781E+00
         21   -1    0    0  502  501  0.00000000000E+00  0.00000000000E+00  0.69445437079E+03  0.69445437079E+03  0.00000000000E+00 0.  1.
         21   -1    0    0  501  502 -0.00000000000E+00 -0.00000000000E+00 -0.20254415464E+03  0.20254415464E+03  0.00000000000E+00 0.  1.
         25    1    1    2    0    0  0.15872408753E+03  0.40378117626E+02 -0.52297317778E+02  0.21256466731E+03  0.12500000000E+03 0.  0.
         25    1    1    2    0    0  0.56665926488E+02 -0.58662585148E+01  0.31732544264E+03  0.34578299085E+03  0.12500000000E+03 0.  0.
         25    1    1    2    0    0 -0.21539001401E+03 -0.34511859111E+02  0.22688209128E+03  0.33865086727E+03  0.12500000000E+03 0.  0.
</event>
<event>
 5    0  0.5605075E-005  0.4337287E+03  0.7546771E-02  0.1032689E+00
         21   -1    0    0  502  501  0.00000000000E+00  0.00000000000E+00  0.32725016992E+03  0.32725016992E+03  0.00000000000E+00 0.  1.
         21   -1    0    0  501  502 -0.00000000000E+00 -0.00000000000E+00 -0.57485263397E+03  0.57485263397E+03  0.00000000000E+00 0.  1.
         25    1    1    2    0    0  0.24994635263E+03  0.94572785158E+02  0.77656682194E+02  0.30507827057E+03  0.12500000000E+03 0.  0.
         25    1    1    2    0    0 -0.23177196460E+03 -0.12632122710E+03 -0.35869243961E+03  0.46255871219E+03  0.12500000000E+03 0.  0.
         25    1    1    2    0    0 -0.18174388035E+02  0.31748441947E+02  0.33433293369E+02  0.13446582113E+03  0.12500000000E+03 0.  0.
</event>
<event>
 5    0  0.5605075E-005  0.3710318E+03  0.7546771E-02  0.1054299E+00
         21   -1    0    0  502  501  0.00000000000E+00  0.00000000000E+00  0.64429264929E+03  0.64429264929E+03  0.00000000000E+00 0. -1.
         21   -1    0    0  501  502 -0.00000000000E+00 -0.00000000000E+00 -0.21366775865E+03  0.21366775865E+03  0.00000000000E+00 0. -1.
         25    1    1    2    0    0 -0.20260522964E+03 -0.43671800394E+01  0.38209016227E+03  0.45020644535E+03  0.12500000000E+03 0.  0.
         25    1    1    2    0    0  0.86779936092E+02 -0.10217845069E+03  0.87380451513E+02  0.20305550079E+03  0.12500000000E+03 0.  0.
         25    1    1    2    0    0  0.11582529355E+03  0.10654563073E+03 -0.38845723138E+02  0.20469846179E+03  0.12500000000E+03 0.  0.
</event>
<event>
 5    0  0.5605075E-005  0.2836026E+03  0.7546771E-02  0.1093737E+00
         21   -1    0    0  502  501  0.00000000000E+00  0.00000000000E+00  0.16616654128E+03  0.16616654128E+03  0.00000000000E+00 0. -1.
         21   -1    0    0  501  502 -0.00000000000E+00 -0.00000000000E+00 -0.48403515016E+03  0.48403515016E+03  0.00000000000E+00 0. -1.
         25    1    1    2    0    0  0.77192578099E+02  0.22710238146E+01 -0.55406063530E+02  0.15703083627E+03  0.12500000000E+03 0.  0.
         25    1    1    2    0    0 -0.19126412003E+03 -0.64186315261E+02 -0.14938543873E+03  0.28043333607E+03  0.12500000000E+03 0.  0.
         25    1    1    2    0    0  0.11407154193E+03  0.61915291447E+02 -0.11307710662E+03  0.21273751910E+03  0.12500000000E+03 0.  0.
</event>
<event>
 5    0  0.5605075E-005  0.3193798E+03  0.7546771E-02  0.1075935E+00
         21   -1    0    0  502  501  0.00000000000E+00  0.00000000000E+00  0.11343105429E+03  0.11343105429E+03  0.00000000000E+00 0.  1.
         21   -1    0    0  501  502 -0.00000000000E+00 -0.00000000000E+00 -0.89925502712E+03  0.89925502712E+03  0.00000000000E+00 0.  1.
         25    1    1    2    0    0 -0.38106245572E+02  0.18839676666E+03 -0.25772114230E+03  0.34495016281E+03  0.12500000000E+03 0.  0.
         25    1    1    2    0    0 -0.67965970549E+02 -0.26936266505E+02 -0.34336894591E+03  0.37265556298E+03  0.12500000000E+03 0.  0.
         25    1    1    2    0    0  0.10607221612E+03 -0.16146050015E+03 -0.18473388463E+03  0.29508035562E+03  0.12500000000E+03 0.  0.
</event>
<event>
 5    0  0.5605075E-005  0.3070697E+03  0.7546771E-02  0.1081759E+00
         21   -1    0    0  502  501  0.00000000000E+00  0.00000000000E+00  0.10532140882E+03  0.10532140882E+03  0.00000000000E+00 0.  1.
         21   -1    0    0  501  502 -0.00000000000E+00 -0.00000000000E+00 -0.89527666873E+03  0.89527666873E+03  0.00000000000E+00 0.  1.
         25    1    1    2    0    0  0.18925762183E+02  0.20219694184E+03 -0.42631082744E+03  0.48847488098E+03  0.12500000000E+03 0.  0.
         25    1    1    2    0    0 -0.18333474441E+01 -0.18340148082E+03 -0.16714145880E+03  0.27785019629E+03  0.12500000000E+03 0.  0.
         25    1    1    2    0    0 -0.17092414739E+02 -0.18795461020E+02 -0.19650297367E+03  0.23427300027E+03  0.12500000000E+03 0.  0.
</event>
<event>
 5    0  0.5605075E-005  0.3344419E+03  0.7546771E-02  0.1069188E+00
         21   -1    0    0  502  501  0.00000000000E+00  0.00000000000E+00  0.42901945212E+03  0.42901945212E+03  0.00000000000E+00 0.  1.
         21   -1    0    0  501  502 -0.00000000000E+00 -0.00000000000E+00 -0.26071400145E+03  0.26071400145E+03  0.00000000000E+00 0.  1.
         25    1    1    2    0    0  0.17752600447E+03 -0.14859848092E+03  0.14344833782E+03  0.29966550755E+03  0.12500000000E+03 0.  0.
         25    1    1    2    0    0 -0.67614239224E+02 -0.25348717746E+02 -0.18172489904E+02  0.14549736158E+03  0.12500000000E+03 0.  0.
         25    1    1    2    0    0 -0.10991176524E+03  0.17394719866E+03  0.43029602756E+02  0.24457058444E+03  0.12500000000E+03 0.  0.
</event>
<event>
 5    0  0.5605075E-005  0.3216847E+03  0.7546771E-02  0.1074877E+00
         21   -1    0    0  502  501  0.00000000000E+00  0.00000000000E+00  0.42596908779E+03  0.42596908779E+03  0.00000000000E+00 0. -1.
         21   -1    0    0  501  502 -0.00000000000E+00 -0.00000000000E+00 -0.24293085954E+03  0.24293085954E+03  0.00000000000E+00 0. -1.
         25    1    1    2    0    0 -0.49035635313E+02  0.20415555155E+03  0.22236557949E+03  0.33038679408E+03  0.12500000000E+03 0.  0.
         25    1    1    2    0    0  0.38085200921E+02 -0.57130034760E+02 -0.94739284440E+01  0.14293032821E+03  0.12500000000E+03 0.  0.
         25    1    1    2    0    0  0.10950434392E+02 -0.14702551679E+03 -0.29853422794E+02  0.19558282505E+03  0.12500000000E+03 0.  0.
</event>
<event>
 5    0  0.5605075E-005  0.3935163E+03  0.7546771E-02  0.1046048E+00
         21   -1    0    0  502  501  0.00000000000E+00  0.00000000000E+00  0.33161673387E+03  0.33161673387E+03  0.00000000000E+00 0. -1.
         21   -1    0    0  501  502 -0.00000000000E+00 -0.00000000000E+00 -0.46697010482E+03  0.46697010482E+03  0.00000000000E+00 0. -1.
         25    1    1    2    0    0  0.53266940420E+02 -0.43243537275E+02 -0.30963092640E+03  0.34088661024E+03  0.12500000000E+03 0.  0.
         25    1    1    2    0    0 -0.18107006803E+03 -0.32836457666E+02  0.13263814343E+03  0.25900285632E+03  0.12500000000E+03 0.  0.
         25    1    1    2    0    0  0.12780312761E+03  0.76079994941E+02  0.41639412016E+02  0.19869737213E+03  0.12500000000E+03 0.  0.
</event>
<event>
 5    0  0.5605075E-005  0.3038041E+03  0.7546771E-02  0.1083354E+00
         21   -1    0    0  502  501  0.00000000000E+00  0.00000000000E+00  0.10353086857E+03  0.10353086857E+03  0.00000000000E+00 0.  1.
         21   -1    0    0  501  502 -0.00000000000E+00 -0.00000000000E+00 -0.89149206957E+03  0.89149206957E+03  0.00000000000E+00 0.  1.
         25    1    1    2    0    0  0.13174066670E+03 -0.10205452611E+03 -0.19731579387E+03  0.28693074438E+03  0.12500000000E+03 0.  0.
         25    1    1    2    0    0 -0.57638675035E+02  0.17705823092E+03 -0.38240259579E+03  0.44331543991E+03  0.12500000000E+03 0.  0.
         25    1    1    2    0    0 -0.74101991669E+02 -0.75003704809E+02 -0.20824281134E+03  0.26477675385E+03  0.12500000000E+03 0.  0.
</event>
