<event>
 6    0  0.3522959E+002  0.2928861E+03  0.7546771E-02  0.1088852E+00
         21   -1    0    0  501  502  0.00000000000E+00  0.00000000000E+00  0.23631772603E+03  0.23631772603E+03  0.00000000000E+00 0.  1.
          1   -1    0    0  503    0 -0.00000000000E+00 -0.00000000000E+00 -0.12952793134E+04  0.12952793134E+04  0.00000000000E+00 0.  1.
         21    1    1    2  503  505 -0.23645974307E+02  0.86867728988E+02 -0.25505925508E+03  0.27048171480E+03  0.00000000000E+00 0.  1.
         21    1    1    2  504  502 -0.39192872767E+02 -0.10240601754E+03  0.32200105172E+02  0.11428000909E+03  0.00000000000E+00 0.  1.
         21    1    1    2  505  504 -0.11142333172E+03 -0.15285434191E+03  0.75430963601E+02  0.20364046494E+03  0.00000000000E+00 0.  1.
          1    1    1    2  501    0  0.17426217879E+03  0.16839263046E+03 -0.91153340109E+03  0.94319485063E+03  0.00000000000E+00 0.  1.
<scales pt_clust_3="90.02852" pt_clust_4="30.88839" pt_clust_5="30.88839" pt_clust_6="290.06272"></scales>
<clustering>
<clus scale="   30.888">  4  5 -1 -1</clus>
<clus scale="   90.029">  2  3  1 -1</clus>
<clus scale="  290.063">  2  6  1 -1</clus>
<clus scale="  292.886">  1  3  2 -1</clus>
</clustering>
</event>
<event>
 6    0  0.3522959E+002  0.7874390E+02  0.7546771E-02  0.1332654E+00
         21   -1    0    0  503  502  0.00000000000E+00  0.00000000000E+00  0.45266789462E+03  0.45266789462E+03  0.00000000000E+00 0. -1.
          2   -1    0    0  504    0 -0.00000000000E+00 -0.00000000000E+00 -0.67047156488E+02  0.67047156488E+02  0.00000000000E+00 0. -1.
         21    1    1    2  503  505 -0.14005996522E+02  0.30136471337E+02  0.11239581557E+03  0.11720577716E+03  0.00000000000E+00 0. -1.
         21    1    1    2  504  502  0.20329319778E+02 -0.70599803306E+02  0.15474355433E+03  0.17129851452E+03  0.00000000000E+00 0. -1.
         21    1    1    2  505  501 -0.71211718368E+02  0.74720115093E+02  0.11939771537E+03  0.15782908119E+03  0.00000000000E+00 0. -1.
          2    1    1    2  501    0  0.64888395111E+02 -0.34256783124E+02 -0.91634713005E+00  0.73381678246E+02  0.00000000000E+00 0. -1.
<scales pt_clust_3="33.23214" pt_clust_4="57.67832" pt_clust_5="78.74390" pt_clust_6="14000.00000"></scales>
<clustering>
<clus scale="   33.232">  1  3  2 -1</clus>
<clus scale="   57.678">  1  4  2 -1</clus>
<clus scale="   78.744">  1  5  2 -1</clus>
<clus scale="   33.232">  1  3  2 -1</clus>
</clustering>
</event>
<event>
 6    0  0.3522959E+002  0.1031071E+03  0.7546771E-02  0.1273895E+00
         21   -1    0    0  504  502  0.00000000000E+00  0.00000000000E+00  0.54310366004E+03  0.54310366004E+03  0.00000000000E+00 0.  1.
          2   -1    0    0  503    0 -0.00000000000E+00 -0.00000000000E+00 -0.19902612137E+04  0.19902612137E+04  0.00000000000E+00 0.  1.
         21    1    1    2  503  505 -0.12799449057E+03  0.14497080553E+03 -0.18149474802E+03  0.26521588872E+03  0.00000000000E+00 0.  1.
         21    1    1    2  504  501  0.46316673772E+02 -0.24418105771E+02  0.12360474481E+02  0.53798322354E+02  0.00000000000E+00 0.  1.
         21    1    1    2  505  502  0.35200707839E+02 -0.31799833953E+02  0.46552030711E+03  0.46793105860E+03  0.00000000000E+00 0.  1.
          2    1    1    2  501    0  0.46477108964E+02 -0.88752865801E+02 -0.17435435872E+04  0.17464196041E+04  0.00000000000E+00 0.  1.
<scales pt_clust_3="14000.00000" pt_clust_4="72.44601" pt_clust_5="47.43753" pt_clust_6="103.10714"></scales>
<clustering>
<clus scale="   47.438">  1  5  2 -1</clus>
<clus scale="   72.446">  1  4  2 -1</clus>
<clus scale="  103.107">  2  6  1 -1</clus>
<clus scale="   47.438">  1  3  2 -1</clus>
</clustering>
</event>
<event>
 6    0  0.3522959E+002  0.1869292E+03  0.7546771E-02  0.1161260E+00
          2   -1    0    0  504    0 -0.00000000000E+00  0.00000000000E+00  0.39499005686E+03  0.39499005686E+03  0.00000000000E+00 0.  1.
         21   -1    0    0  503  502  0.00000000000E+00 -0.00000000000E+00 -0.12306560009E+03  0.12306560009E+03  0.00000000000E+00 0. -1.
         21    1    1    2  503  501 -0.21708801199E+02 -0.11579759806E+03  0.95527342371E+02  0.15167672500E+03  0.00000000000E+00 0.  1.
         21    1    1    2  504  505 -0.52558226012E+02  0.16237418314E+03  0.98850585798E+02  0.19722875243E+03  0.00000000000E+00 0. -1.
         21    1    1    2  505  502  0.49204393125E+02  0.30792172038E+02  0.18931917166E+01  0.58075935950E+02  0.00000000000E+00 0.  1.
          2    1    1    2  501    0  0.25062634086E+02 -0.77368757114E+02  0.75653336884E+02  0.11107424358E+03  0.00000000000E+00 0.  1.
<scales pt_clust_3="40.79375" pt_clust_4="180.36568" pt_clust_5="58.04507" pt_clust_6="40.79375"></scales>
<clustering>
<clus scale="   40.794">  3  6 -1 -1</clus>
<clus scale="   58.045">  2  5  1 -1</clus>
<clus scale="  180.366">  2  4  1 -1</clus>
<clus scale="   58.045">  2  3  1 -1</clus>
</clustering>
</event>
<event>
 6    0  0.3522959E+002  0.1455508E+03  0.7546771E-02  0.1206049E+00
          2   -1    0    0  503    0 -0.00000000000E+00  0.00000000000E+00  0.23688873320E+04  0.23688873320E+04  0.00000000000E+00 0. -1.
         21   -1    0    0  504  502  0.00000000000E+00 -0.00000000000E+00 -0.25709085476E+03  0.25709085476E+03  0.00000000000E+00 0.  1.
         21    1    1    2  503  502  0.48623080055E+02 -0.10297542547E+03  0.38631636296E+03  0.40275113216E+03  0.00000000000E+00 0. -1.
         21    1    1    2  504  505 -0.32202031067E+02 -0.12739529544E+02 -0.12978655008E+02  0.36982589196E+02  0.00000000000E+00 0. -1.
         21    1    1    2  505  501 -0.93487532742E+02  0.96086377241E+02 -0.20293731857E+03  0.24322020051E+03  0.00000000000E+00 0.  1.
          2    1    1    2  501    0  0.77066483753E+02  0.19628577775E+02  0.19413960879E+04  0.19430242649E+04  0.00000000000E+00 0. -1.
<scales pt_clust_3="14000.00000" pt_clust_4="34.63043" pt_clust_5="145.55079" pt_clust_6="79.40640"></scales>
<clustering>
<clus scale="   34.630">  2  4  1 -1</clus>
<clus scale="   79.406">  1  6  2 -1</clus>
<clus scale="  145.551">  2  5  1 -1</clus>
<clus scale="   34.630">  2  3  1 -1</clus>
</clustering>
</event>
<event>
 6    0  0.3522959E+002  0.1604138E+03  0.7546771E-02  0.1188230E+00
         21   -1    0    0  503  502  0.00000000000E+00  0.00000000000E+00  0.18790183767E+03  0.18790183767E+03  0.00000000000E+00 0.  1.
         -3   -1    0    0    0  501 -0.00000000000E+00 -0.00000000000E+00 -0.20027235786E+03  0.20027235786E+03  0.00000000000E+00 0.  1.
         21    1    1    2  503  501  0.10161377799E+03 -0.13503311270E+03 -0.11212769243E+02  0.16936654805E+03  0.00000000000E+00 0.  1.
         21    1    1    2  504  502 -0.67410287931E+02  0.62131283402E+02  0.57271677760E+02  0.10809481195E+03  0.00000000000E+00 0.  1.
         21    1    1    2  505  504 -0.11960515620E+02  0.47004337710E+02 -0.70296308355E+01  0.49008952316E+02  0.00000000000E+00 0.  1.
         -3    1    1    2    0  505 -0.22242974442E+02  0.25897491585E+02 -0.51399797877E+02  0.61703883219E+02  0.00000000000E+00 0.  1.
<scales pt_clust_3="147.59929" pt_clust_4="46.94863" pt_clust_5="46.94863" pt_clust_6="34.13839"></scales>
<clustering>
<clus scale="   34.138">  2  6  1 -1</clus>
<clus scale="   46.949">  4  5 -1 -1</clus>
<clus scale="  147.599">  2  3  1 -1</clus>
<clus scale="  160.414">  1  3  2 -1</clus>
</clustering>
</event>
<event>
 6    0  0.3522959E+002  0.1389285E+03  0.7546771E-02  0.1214778E+00
         21   -1    0    0  505  502  0.00000000000E+00  0.00000000000E+00  0.27814225705E+03  0.27814225705E+03  0.00000000000E+00 0.  1.
          2   -1    0    0  503    0 -0.00000000000E+00 -0.00000000000E+00 -0.49856967383E+03  0.49856967383E+03  0.00000000000E+00 0.  1.
         21    1    1    2  503  504 -0.17603605589E+02 -0.29125481636E+02  0.16392859420E+02  0.37774415286E+02  0.00000000000E+00 0.  1.
         21    1    1    2  504  502  0.15662500805E+02 -0.26289956278E+02  0.13369741091E+03  0.13715492487E+03  0.00000000000E+00 0.  1.
         21    1    1    2  505  501  0.13829087568E+03  0.24410642353E+02  0.57318033820E+02  0.15167597950E+03  0.00000000000E+00 0.  1.
          2    1    1    2  501    0 -0.13634977089E+03  0.31004795562E+02 -0.42783572093E+03  0.45010661123E+03  0.00000000000E+00 0.  1.
<scales pt_clust_3="37.11981" pt_clust_4="30.60189" pt_clust_5="138.92851" pt_clust_6="14000.00000"></scales>
<clustering>
<clus scale="   30.602">  1  4  2 -1</clus>
<clus scale="   37.120">  1  3  2 -1</clus>
<clus scale="  138.929">  1  5  2 -1</clus>
<clus scale="   30.602">  1  3  2 -1</clus>
</clustering>
</event>
<event>
 6    0  0.3522959E+002  0.1156003E+03  0.7546771E-02  0.1250537E+00
         21   -1    0    0  505  502  0.00000000000E+00  0.00000000000E+00  0.60246640336E+02  0.60246640336E+02  0.00000000000E+00 0.  1.
          2   -1    0    0  504    0 -0.00000000000E+00 -0.00000000000E+00 -0.31777766051E+04  0.31777766051E+04  0.00000000000E+00 0.  1.
         21    1    1    2  503  501 -0.46523696470E+02  0.53685122279E+02 -0.78804317681E+03  0.79123864618E+03  0.00000000000E+00 0.  1.
         21    1    1    2  504  502  0.17106101491E+02  0.11536918043E+03 -0.35072795162E+02  0.12178984958E+03  0.00000000000E+00 0.  1.
         21    1    1    2  505  503  0.43574989365E+02 -0.11619825004E+03 -0.24303513654E+03  0.27288622282E+03  0.00000000000E+00 0.  1.
          2    1    1    2  501    0 -0.14157394386E+02 -0.52856052667E+02 -0.20513788563E+04  0.20521085269E+04  0.00000000000E+00 0.  1.
<scales pt_clust_3="58.84723" pt_clust_4="115.60033" pt_clust_5="14000.00000" pt_clust_6="54.71923"></scales>
<clustering>
<clus scale="   54.719">  2  6  1 -1</clus>
<clus scale="   58.847">  2  3  1 -1</clus>
<clus scale="  115.600">  1  4  2 -1</clus>
<clus scale="  115.600">  1  3  2 -1</clus>
</clustering>
</event>
<event>
 6    0  0.3522959E+002  0.8350093E+02  0.7546771E-02  0.1319400E+00
          2   -1    0    0  503    0 -0.00000000000E+00  0.00000000000E+00  0.14802028082E+04  0.14802028082E+04  0.00000000000E+00 0.  1.
         21   -1    0    0  505  502  0.00000000000E+00 -0.00000000000E+00 -0.10566240345E+03  0.10566240345E+03  0.00000000000E+00 0.  1.
         21    1    1    2  503  502 -0.74556070846E+02  0.46774959066E+02  0.46007945094E+01  0.88134396269E+02  0.00000000000E+00 0. -1.
         21    1    1    2  504  501 -0.39503134169E+01 -0.11034476240E+03  0.36739884650E+02  0.11636748123E+03  0.00000000000E+00 0.  1.
         21    1    1    2  505  504  0.29100626788E+02  0.13025518004E+02 -0.12178673774E+02  0.34129616078E+02  0.00000000000E+00 0. -1.
          2    1    1    2  501    0  0.49405757474E+02  0.50544285325E+02  0.13453783993E+04  0.13472337180E+04  0.00000000000E+00 0.  1.
<scales pt_clust_3="83.50093" pt_clust_4="14000.00000" pt_clust_5="31.88276" pt_clust_6="71.01349"></scales>
<clustering>
<clus scale="   31.883">  2  5  1 -1</clus>
<clus scale="   71.013">  1  6  2 -1</clus>
<clus scale="   83.501">  2  3  1 -1</clus>
<clus scale="   31.883">  2  3  1 -1</clus>
</clustering>
</event>
<event>
 6    0  0.3522959E+002  0.1346663E+03  0.7546771E-02  0.1220692E+00
          3   -1    0    0  502    0 -0.00000000000E+00  0.00000000000E+00  0.19605683522E+03  0.19605683522E+03  0.00000000000E+00 0. -1.
         21   -1    0    0  503  502  0.00000000000E+00 -0.00000000000E+00 -0.25805561436E+03  0.25805561436E+03  0.00000000000E+00 0. -1.
         21    1    1    2  503  504 -0.10319215461E+03  0.21707334461E+02 -0.14371975776E+03  0.17825598983E+03  0.00000000000E+00 0. -1.
         21    1    1    2  504  505 -0.13834057980E+02  0.37922442904E+02 -0.56323658785E+02  0.69295363300E+02  0.00000000000E+00 0. -1.
         21    1    1    2  505  501  0.83541370761E+02 -0.20219206635E+02  0.38078404842E+02  0.94010328480E+02  0.00000000000E+00 0. -1.
          3    1    1    2  501    0  0.33484841831E+02 -0.39410570730E+02  0.99966232558E+02  0.11255076797E+03  0.00000000000E+00 0. -1.
<scales pt_clust_3="39.19656" pt_clust_4="39.19656" pt_clust_5="118.83412" pt_clust_6="51.71487"></scales>
<clustering>
<clus scale="   39.197">  3  4 -1 -1</clus>
<clus scale="   51.715">  1  6  2 -1</clus>
<clus scale="  118.834">  1  5  2 -1</clus>
<clus scale="  134.666">  2  3  1 -1</clus>
</clustering>
</event>
<event>
 6    0  0.3522959E+002  0.1515524E+03  0.7546771E-02  0.1198578E+00
          2   -1    0    0  504    0 -0.00000000000E+00  0.00000000000E+00  0.12959820619E+04  0.12959820619E+04  0.00000000000E+00 0.  1.
         21   -1    0    0  503  502  0.00000000000E+00 -0.00000000000E+00 -0.22060840579E+03  0.22060840579E+03  0.00000000000E+00 0.  1.
         21    1    1    2  503  501  0.71736945258E+02  0.87181434995E+02 -0.44855136106E+01  0.11299075960E+03  0.00000000000E+00 0.  1.
         21    1    1    2  504  505  0.22544000529E+02 -0.18658368776E+03  0.41115942603E+02  0.19238561598E+03  0.00000000000E+00 0.  1.
         21    1    1    2  505  502  0.43456159600E+02  0.29424753676E+02 -0.72378552800E+02  0.89403069531E+02  0.00000000000E+00 0.  1.
          2    1    1    2  501    0 -0.13773710539E+03  0.69977499089E+02  0.11111217800E+04  0.11218110226E+04  0.00000000000E+00 0.  1.
<scales pt_clust_3="134.20756" pt_clust_4="14000.00000" pt_clust_5="52.48099" pt_clust_6="151.55240"></scales>
<clustering>
<clus scale="   52.481">  2  5  1 -1</clus>
<clus scale="  134.208">  2  3  1 -1</clus>
<clus scale="  151.552">  1  6  2 -1</clus>
<clus scale="   52.481">  2  3  1 -1</clus>
</clustering>
</event>
<event>
 6    0  0.3522960E+002  0.2223591E+03  0.7546771E-02  0.1132136E+00
          2   -1    0    0  504    0 -0.00000000000E+00  0.00000000000E+00  0.10450731595E+04  0.10450731595E+04  0.00000000000E+00 0. -1.
         21   -1    0    0  501  502  0.00000000000E+00 -0.00000000000E+00 -0.95363253820E+03  0.95363253820E+03  0.00000000000E+00 0. -1.
         21    1    1    2  503  505  0.28715639844E+02  0.42763795498E+02 -0.21252333227E+03  0.21867669500E+03  0.00000000000E+00 0. -1.
         21    1    1    2  504  503  0.13531786948E+03  0.41294031000E+02 -0.28935518628E+03  0.32209089807E+03  0.00000000000E+00 0.  1.
         21    1    1    2  505  502  0.39242879845E+02 -0.41724776117E+02 -0.41983579688E+03  0.42372521391E+03  0.00000000000E+00 0. -1.
          2    1    1    2  501    0 -0.20327638917E+03 -0.42333050381E+02  0.10131549367E+04  0.10342128907E+04  0.00000000000E+00 0. -1.
<scales pt_clust_3="48.92661" pt_clust_4="48.92661" pt_clust_5="57.27967" pt_clust_6="207.04771"></scales>
<clustering>
<clus scale="   48.927">  3  4 -1 -1</clus>
<clus scale="   57.280">  2  5  1 -1</clus>
<clus scale="  207.048">  1  6  2 -1</clus>
<clus scale="   57.280">  2  3  1 -1</clus>
</clustering>
</event>
<event>
 6    0  0.3522959E+002  0.1459659E+03  0.7546771E-02  0.1205519E+00
         21   -1    0    0  504  502  0.00000000000E+00  0.00000000000E+00  0.24051395037E+02  0.24051395037E+02  0.00000000000E+00 0.  1.
          2   -1    0    0  505    0 -0.00000000000E+00 -0.00000000000E+00 -0.16836699998E+04  0.16836699998E+04  0.00000000000E+00 0.  1.
         21    1    1    2  503  501  0.28825374543E+02  0.10284439145E+03 -0.17887814097E+03  0.20833929151E+03  0.00000000000E+00 0.  1.
         21    1    1    2  504  503  0.49504884221E+01  0.38737441732E+02 -0.14695364534E+03  0.15205416997E+03  0.00000000000E+00 0.  1.
         21    1    1    2  505  502  0.46710627625E+02 -0.45943561849E+02 -0.44905663445E+03  0.45381114415E+03  0.00000000000E+00 0.  1.
          2    1    1    2  501    0 -0.80486490590E+02 -0.95638271330E+02 -0.88473018405E+03  0.89351678925E+03  0.00000000000E+00 0.  1.
<scales pt_clust_3="30.41992" pt_clust_4="30.41992" pt_clust_5="65.51865" pt_clust_6="137.02257"></scales>
<clustering>
<clus scale="   30.420">  3  4 -1 -1</clus>
<clus scale="   65.519">  2  5  1 -1</clus>
<clus scale="  137.023">  2  6  1 -1</clus>
<clus scale="  145.966">  1  3  2 -1</clus>
</clustering>
</event>
<event>
 6    0  0.3522959E+002  0.1041472E+03  0.7546771E-02  0.1271809E+00
         -3   -1    0    0    0  501 -0.00000000000E+00  0.00000000000E+00  0.70666897236E+03  0.70666897236E+03  0.00000000000E+00 0. -1.
         21   -1    0    0  504  502  0.00000000000E+00 -0.00000000000E+00 -0.22354806546E+03  0.22354806546E+03  0.00000000000E+00 0. -1.
         21    1    1    2  503  502 -0.38191203547E+01 -0.97571175825E+02 -0.17220074592E+02  0.99152665123E+02  0.00000000000E+00 0. -1.
         21    1    1    2  504  501 -0.21367610136E+02 -0.38212903056E+02 -0.14003293607E+03  0.14671749694E+03  0.00000000000E+00 0. -1.
         21    1    1    2  505  503 -0.92140364341E+01  0.89651198168E+02  0.78452822836E+02  0.11948674073E+03  0.00000000000E+00 0. -1.
         -3    1    1    2    0  505  0.34400766925E+02  0.46132880713E+02  0.56192109472E+03  0.56486013503E+03  0.00000000000E+00 0. -1.
<scales pt_clust_3="104.14715" pt_clust_4="43.78128" pt_clust_5="14000.00000" pt_clust_6="56.75146"></scales>
<clustering>
<clus scale="   43.781">  2  4  1 -1</clus>
<clus scale="   56.751">  1  6  2 -1</clus>
<clus scale="  104.147">  2  3  1 -1</clus>
<clus scale="   43.781">  2  3  1 -1</clus>
</clustering>
</event>
<event>
 6    0  0.3522959E+002  0.9555874E+02  0.7546771E-02  0.1289923E+00
          2   -1    0    0  505    0 -0.00000000000E+00  0.00000000000E+00  0.25616155494E+04  0.25616155494E+04  0.00000000000E+00 0. -1.
         21   -1    0    0  504  502  0.00000000000E+00 -0.00000000000E+00 -0.46028072482E+02  0.46028072482E+02  0.00000000000E+00 0. -1.
         21    1    1    2  503  501 -0.60356639477E+02 -0.89545945437E+02  0.19089054599E+03  0.21931849174E+03  0.00000000000E+00 0. -1.
         21    1    1    2  504  503 -0.19266584019E+02  0.83002028747E+02  0.38969363494E+02  0.93697114827E+02  0.00000000000E+00 0. -1.
         21    1    1    2  505  502  0.29125927059E+02  0.36114517748E+02  0.12871010699E+03  0.13681692023E+03  0.00000000000E+00 0. -1.
          2    1    1    2  501    0  0.50497296438E+02 -0.29570601058E+02  0.21570174604E+04  0.21578110950E+04  0.00000000000E+00 0. -1.
<scales pt_clust_3="95.55874" pt_clust_4="14000.00000" pt_clust_5="46.39588" pt_clust_6="58.58504"></scales>
<clustering>
<clus scale="   46.396">  2  5  1 -1</clus>
<clus scale="   58.585">  1  6  2 -1</clus>
<clus scale="   95.559">  1  3  2 -1</clus>
<clus scale="   46.396">  2  3  1 -1</clus>
</clustering>
</event>
<event>
 6    0  0.3522959E+002  0.8173284E+02  0.7546771E-02  0.1324205E+00
          1   -1    0    0  505    0 -0.00000000000E+00  0.00000000000E+00  0.21202190264E+04  0.21202190264E+04  0.00000000000E+00 0.  1.
         21   -1    0    0  504  502  0.00000000000E+00 -0.00000000000E+00 -0.14832000904E+03  0.14832000904E+03  0.00000000000E+00 0. -1.
         21    1    1    2  503  502 -0.61171697009E+01  0.33799198165E+02 -0.17263158404E+02  0.38442453094E+02  0.00000000000E+00 0.  1.
         21    1    1    2  504  501 -0.36746652533E+02  0.36200431638E+02 -0.10881395264E+03  0.12042119420E+03  0.00000000000E+00 0. -1.
         21    1    1    2  505  503 -0.64845465261E+02  0.33005544427E+02  0.71399949243E+03  0.71769741223E+03  0.00000000000E+00 0.  1.
          1    1    1    2  501    0  0.10770928750E+03 -0.10300517423E+03  0.13839766360E+04  0.13919779759E+04  0.00000000000E+00 0.  1.
<scales pt_clust_3="34.34830" pt_clust_4="14000.00000" pt_clust_5="73.08213" pt_clust_6="81.73284"></scales>
<clustering>
<clus scale="   34.348">  2  3  1 -1</clus>
<clus scale="   73.082">  1  5  2 -1</clus>
<clus scale="   81.733">  1  6  2 -1</clus>
<clus scale="   34.348">  2  3  1 -1</clus>
</clustering>
</event>
<event>
 6    0  0.3522959E+002  0.1330523E+03  0.7546771E-02  0.1222996E+00
          2   -1    0    0  502    0 -0.00000000000E+00  0.00000000000E+00  0.15644905400E+04  0.15644905400E+04  0.00000000000E+00 0. -1.
         21   -1    0    0  503  502  0.00000000000E+00 -0.00000000000E+00 -0.60065144381E+02  0.60065144381E+02  0.00000000000E+00 0. -1.
         21    1    1    2  503  505  0.55019383811E+01  0.34269542990E+02  0.26330014812E+02  0.43565382848E+02  0.00000000000E+00 0.  1.
         21    1    1    2  504  501 -0.90436090415E+02 -0.63651476033E+02  0.91401867301E+03  0.92068470796E+03  0.00000000000E+00 0. -1.
         21    1    1    2  505  504  0.57733575172E+02  0.74035830911E+02  0.74979093703E-01  0.93885438609E+02  0.00000000000E+00 0. -1.
          2    1    1    2  501    0  0.27200576862E+02 -0.44653897868E+02  0.56400172869E+03  0.56642015496E+03  0.00000000000E+00 0. -1.
<scales pt_clust_3="30.19800" pt_clust_4="123.43493" pt_clust_5="30.19800" pt_clust_6="52.28615"></scales>
<clustering>
<clus scale="   30.198">  3  5 -1 -1</clus>
<clus scale="   52.286">  1  6  2 -1</clus>
<clus scale="  123.435">  1  4  2 -1</clus>
<clus scale="  133.052">  2  3  1 -1</clus>
</clustering>
</event>
<event>
 6    0  0.3522959E+002  0.2843613E+03  0.7546771E-02  0.1093330E+00
          2   -1    0    0  504    0 -0.00000000000E+00  0.00000000000E+00  0.36420347468E+04  0.36420347468E+04  0.00000000000E+00 0. -1.
         21   -1    0    0  501  502  0.00000000000E+00 -0.00000000000E+00 -0.79714192071E+02  0.79714192071E+02  0.00000000000E+00 0. -1.
         21    1    1    2  503  505  0.13644539145E+02  0.38886283251E+02  0.23387672774E+02  0.47384593607E+02  0.00000000000E+00 0. -1.
         21    1    1    2  504  503 -0.57139820459E+02 -0.34474588105E+03  0.83182956730E+03  0.90225002666E+03  0.00000000000E+00 0. -1.
         21    1    1    2  505  502 -0.45891051367E+01  0.38311087350E+02 -0.11259026026E+02  0.40194091195E+02  0.00000000000E+00 0. -1.
          2    1    1    2  501    0  0.48084386451E+02  0.26754851045E+03  0.27183623407E+04  0.27319202274E+04  0.00000000000E+00 0. -1.
<scales pt_clust_3="86.73478" pt_clust_4="284.36132" pt_clust_5="37.24374" pt_clust_6="14000.00000"></scales>
<clustering>
<clus scale="   37.244">  3  5 -1 -1</clus>
<clus scale="   86.735">  2  3  1 -1</clus>
<clus scale="  284.361">  2  4  1 -1</clus>
<clus scale="   86.735">  2  3  1 -1</clus>
</clustering>
</event>
<event>
 6    0  0.3522959E+002  0.1823601E+03  0.7546771E-02  0.1165538E+00
          1   -1    0    0  503    0 -0.00000000000E+00  0.00000000000E+00  0.15381344977E+04  0.15381344977E+04  0.00000000000E+00 0. -1.
         21   -1    0    0  505  502  0.00000000000E+00 -0.00000000000E+00 -0.25750112360E+03  0.25750112360E+03  0.00000000000E+00 0.  1.
         21    1    1    2  503  504  0.78908337372E+02 -0.28408902363E+02 -0.63404956157E+02  0.10513695785E+03  0.00000000000E+00 0.  1.
         21    1    1    2  504  502  0.92624454691E+02  0.28135788870E+02 -0.15000636237E+03  0.17852960811E+03  0.00000000000E+00 0.  1.
         21    1    1    2  505  501 -0.93657765833E+02 -0.65378185621E+02  0.50824802571E+03  0.52092431302E+03  0.00000000000E+00 0. -1.
          1    1    1    2  501    0 -0.77875026230E+02  0.65651299114E+02  0.98579666687E+03  0.99104474228E+03  0.00000000000E+00 0. -1.
<scales pt_clust_3="69.02097" pt_clust_4="69.02097" pt_clust_5="166.60262" pt_clust_6="101.85584"></scales>
<clustering>
<clus scale="   69.021">  3  4 -1 -1</clus>
<clus scale="  101.856">  1  6  2 -1</clus>
<clus scale="  166.603">  1  5  2 -1</clus>
<clus scale="  182.360">  2  3  1 -1</clus>
</clustering>
</event>
<event>
 6    0  0.3522959E+002  0.7369095E+02  0.7546771E-02  0.1347973E+00
          2   -1    0    0  505    0 -0.00000000000E+00  0.00000000000E+00  0.25137944727E+04  0.25137944727E+04  0.00000000000E+00 0. -1.
         21   -1    0    0  504  502  0.00000000000E+00 -0.00000000000E+00 -0.58545436797E+03  0.58545436797E+03  0.00000000000E+00 0.  1.
         21    1    1    2  503  501 -0.44744007790E+02 -0.45122357133E+02 -0.43899002585E+03  0.44356543615E+03  0.00000000000E+00 0.  1.
         21    1    1    2  504  503  0.23700683648E+02 -0.25798311360E+02 -0.13836589387E+03  0.14273190204E+03  0.00000000000E+00 0.  1.
         21    1    1    2  505  502  0.80113876930E+02  0.36805305288E+02  0.64407451445E+03  0.65008064418E+03  0.00000000000E+00 0. -1.
          2    1    1    2  501    0 -0.59070552788E+02  0.34115363205E+02  0.18616215100E+04  0.18628708583E+04  0.00000000000E+00 0. -1.
<scales pt_clust_3="73.69095" pt_clust_4="35.03249" pt_clust_5="14000.00000" pt_clust_6="68.16735"></scales>
<clustering>
<clus scale="   35.032">  2  4  1 -1</clus>
<clus scale="   68.167">  1  6  2 -1</clus>
<clus scale="   73.691">  2  3  1 -1</clus>
<clus scale="   35.032">  2  3  1 -1</clus>
</clustering>
</event>
<event>
 6    0  0.3522959E+002  0.9336196E+02  0.7546771E-02  0.1294909E+00
         21   -1    0    0  505  502  0.00000000000E+00  0.00000000000E+00  0.30236265462E+03  0.30236265462E+03  0.00000000000E+00 0. -1.
          2   -1    0    0  503    0 -0.00000000000E+00 -0.00000000000E+00 -0.21361021946E+04  0.21361021946E+04  0.00000000000E+00 0. -1.
         21    1    1    2  503  504  0.88706341942E+02  0.80031136943E+02 -0.28984938110E+03  0.31350671716E+03  0.00000000000E+00 0. -1.
         21    1    1    2  504  502  0.84387378656E+02 -0.26994785531E+02 -0.77752854714E+02  0.11787898260E+03  0.00000000000E+00 0. -1.
         21    1    1    2  505  501 -0.12236144298E+03  0.22544762409E+02  0.25489524586E+03  0.28364092688E+03  0.00000000000E+00 0. -1.
          2    1    1    2  501    0 -0.50732277616E+02 -0.75581113821E+02 -0.17210325500E+04  0.17234382225E+04  0.00000000000E+00 0. -1.
<scales pt_clust_3="14000.00000" pt_clust_4="88.59993" pt_clust_5="41.99195" pt_clust_6="93.36196"></scales>
<clustering>
<clus scale="   88.600">  1  4  2 -1</clus>
<clus scale="   41.992">  1  5  2 -1</clus>
<clus scale="   93.362">  2  6  1 -1</clus>
<clus scale="   88.600">  1  3  2 -1</clus>
</clustering>
</event>
<event>
 6    0  0.3522959E+002  0.8286999E+02  0.7546771E-02  0.1321099E+00
         -1   -1    0    0    0  501 -0.00000000000E+00  0.00000000000E+00  0.47673915821E+03  0.47673915821E+03  0.00000000000E+00 0.  1.
         21   -1    0    0  505  502  0.00000000000E+00 -0.00000000000E+00 -0.59431794669E+03  0.59431794669E+03  0.00000000000E+00 0. -1.
         21    1    1    2  503  501 -0.83597061739E+02 -0.57485834184E+02  0.14914133609E+03  0.18037801417E+03  0.00000000000E+00 0. -1.
         21    1    1    2  504  502 -0.27414575803E+02  0.55313687874E+02 -0.10197581176E+03  0.11920666599E+03  0.00000000000E+00 0. -1.
         21    1    1    2  505  503  0.28670614137E+02  0.33057386326E+02 -0.46067624075E+03  0.46274981760E+03  0.00000000000E+00 0. -1.
         -1    1    1    2    0  504  0.82341023406E+02 -0.30885240016E+02  0.29593192794E+03  0.30872260714E+03  0.00000000000E+00 0.  1.
<scales pt_clust_3="82.86999" pt_clust_4="82.95725" pt_clust_5="43.75837" pt_clust_6="14000.00000"></scales>
<clustering>
<clus scale="   43.758">  2  5  1 -1</clus>
<clus scale="   82.957">  2  4  1 -1</clus>
<clus scale="   82.870">  2  3  1 -1</clus>
<clus scale="   43.758">  2  3  1 -1</clus>
</clustering>
</event>
<event>
 6    0  0.3522959E+002  0.6216177E+02  0.7546771E-02  0.1388977E+00
         21   -1    0    0  505  502  0.00000000000E+00  0.00000000000E+00  0.58220105429E+02  0.58220105429E+02  0.00000000000E+00 0.  1.
          2   -1    0    0  504    0 -0.00000000000E+00 -0.00000000000E+00 -0.95629798535E+03  0.95629798535E+03  0.00000000000E+00 0.  1.
         21    1    1    2  503  502  0.66778881359E+02 -0.20713000498E+02 -0.10255851873E+03  0.12412371711E+03  0.00000000000E+00 0.  1.
         21    1    1    2  504  503  0.31198710760E+02 -0.53904878529E+02 -0.59992991590E+03  0.60315420870E+03  0.00000000000E+00 0.  1.
         21    1    1    2  505  501 -0.39403497635E+02  0.39558682740E+02  0.21377623718E+02  0.59787354865E+02  0.00000000000E+00 0.  1.
          2    1    1    2  501    0 -0.58574094485E+02  0.35059196288E+02 -0.21696706902E+03  0.22745281011E+03  0.00000000000E+00 0.  1.
<scales pt_clust_3="42.83077" pt_clust_4="14000.00000" pt_clust_5="55.83480" pt_clust_6="62.16177"></scales>
<clustering>
<clus scale="   55.835">  1  5  2 -1</clus>
<clus scale="   42.831">  1  3  2 -1</clus>
<clus scale="   62.162">  1  6  2 -1</clus>
<clus scale="   55.835">  1  3  2 -1</clus>
</clustering>
</event>
<event>
 6    0  0.3522959E+002  0.2586307E+03  0.7546771E-02  0.1107969E+00
          2   -1    0    0  503    0 -0.00000000000E+00  0.00000000000E+00  0.17978704494E+04  0.17978704494E+04  0.00000000000E+00 0.  1.
         21   -1    0    0  505  502  0.00000000000E+00 -0.00000000000E+00 -0.20262748545E+03  0.20262748545E+03  0.00000000000E+00 0. -1.
         21    1    1    2  503  502 -0.80682623780E+02  0.23606851434E+03 -0.55137603766E+02  0.25549595807E+03  0.00000000000E+00 0. -1.
         21    1    1    2  504  501  0.32405674459E+02 -0.26679981221E+03  0.56831593319E+03  0.62866148876E+03  0.00000000000E+00 0.  1.
         21    1    1    2  505  504 -0.32825900623E+02 -0.63238689148E+00  0.21196376974E+01  0.32900342383E+02  0.00000000000E+00 0. -1.
          2    1    1    2  501    0  0.81102849945E+02  0.31363684765E+02  0.10799449968E+04  0.10834401456E+04  0.00000000000E+00 0.  1.
<scales pt_clust_3="14000.00000" pt_clust_4="258.63068" pt_clust_5="32.83199" pt_clust_6="86.66822"></scales>
<clustering>
<clus scale="   32.832">  2  5  1 -1</clus>
<clus scale="   86.668">  1  6  2 -1</clus>
<clus scale="  258.631">  1  4  2 -1</clus>
<clus scale="   32.832">  2  3  1 -1</clus>
</clustering>
</event>
<event>
 6    0  0.3522959E+002  0.1014170E+03  0.7546771E-02  0.1277344E+00
          2   -1    0    0  505    0 -0.00000000000E+00  0.00000000000E+00  0.38353069210E+03  0.38353069210E+03  0.00000000000E+00 0. -1.
         21   -1    0    0  503  502  0.00000000000E+00 -0.00000000000E+00 -0.35627647275E+03  0.35627647275E+03  0.00000000000E+00 0.  1.
         21    1    1    2  503  501 -0.12700242196E+03 -0.85220019474E+02 -0.22557016568E+03  0.27253250549E+03  0.00000000000E+00 0.  1.
         21    1    1    2  504  502  0.21225296529E+02  0.21526359570E+02 -0.49912473556E+02  0.58353683564E+02  0.00000000000E+00 0.  1.
         21    1    1    2  505  504  0.62791626530E+02  0.13055470580E+02 -0.29153092182E+02  0.70449531284E+02  0.00000000000E+00 0.  1.
          2    1    1    2  501    0  0.42985498904E+02  0.50638189324E+02  0.33188995076E+03  0.33847144452E+03  0.00000000000E+00 0. -1.
<scales pt_clust_3="101.41703" pt_clust_4="30.23074" pt_clust_5="14000.00000" pt_clust_6="66.75108"></scales>
<clustering>
<clus scale="   30.231">  2  4  1 -1</clus>
<clus scale="   66.751">  1  6  2 -1</clus>
<clus scale="  101.417">  2  3  1 -1</clus>
<clus scale="   30.231">  2  3  1 -1</clus>
</clustering>
</event>
<event>
 6    0  0.3522959E+002  0.1062142E+03  0.7546771E-02  0.1267746E+00
         21   -1    0    0  503  502  0.00000000000E+00  0.00000000000E+00  0.36042457706E+02  0.36042457706E+02  0.00000000000E+00 0. -1.
          1   -1    0    0  504    0 -0.00000000000E+00 -0.00000000000E+00 -0.84879461444E+03  0.84879461444E+03  0.00000000000E+00 0. -1.
         21    1    1    2  503  505 -0.12476879985E+01 -0.40876742236E+02 -0.92493158331E+02  0.10113085147E+03  0.00000000000E+00 0. -1.
         21    1    1    2  504  502 -0.22671394394E+02  0.13324143844E+03 -0.35082937270E+03  0.37596345806E+03  0.00000000000E+00 0. -1.
         21    1    1    2  505  501  0.74867104671E+02 -0.54588851876E+02 -0.12733406036E+03  0.15747694765E+03  0.00000000000E+00 0. -1.
          1    1    1    2  501    0 -0.50948022279E+02 -0.37775844331E+02 -0.24209556534E+03  0.25026581498E+03  0.00000000000E+00 0. -1.
<scales pt_clust_3="40.89578" pt_clust_4="14000.00000" pt_clust_5="106.21416" pt_clust_6="66.81698"></scales>
<clustering>
<clus scale="   40.896">  1  3  2 -1</clus>
<clus scale="   66.817">  2  6  1 -1</clus>
<clus scale="  106.214">  1  5  2 -1</clus>
<clus scale="   40.896">  1  3  2 -1</clus>
</clustering>
</event>
<event>
 6    0  0.3522959E+002  0.8536605E+02  0.7546771E-02  0.1314478E+00
         21   -1    0    0  504  502  0.00000000000E+00  0.00000000000E+00  0.18242493037E+03  0.18242493037E+03  0.00000000000E+00 0.  1.
          2   -1    0    0  503    0 -0.00000000000E+00 -0.00000000000E+00 -0.67312148354E+03  0.67312148354E+03  0.00000000000E+00 0.  1.
         21    1    1    2  503  502 -0.15468673168E+02 -0.70573973294E+02  0.47711280346E+02  0.86581359589E+02  0.00000000000E+00 0.  1.
         21    1    1    2  504  505 -0.12257491806E+02  0.46562124784E+02  0.55842193545E+02  0.73733494083E+02  0.00000000000E+00 0.  1.
         21    1    1    2  505  501 -0.58173540219E+02  0.36438837902E+02  0.22628367436E+02  0.72277193513E+02  0.00000000000E+00 0.  1.
          2    1    1    2  501    0  0.85899705194E+02 -0.12426989393E+02 -0.61687839450E+03  0.62295436673E+03  0.00000000000E+00 0.  1.
<scales pt_clust_3="49.40031" pt_clust_4="48.14849" pt_clust_5="14000.00000" pt_clust_6="85.36605"></scales>
<clustering>
<clus scale="   48.148">  1  4  2 -1</clus>
<clus scale="   49.400">  1  3  2 -1</clus>
<clus scale="   85.366">  2  6  1 -1</clus>
<clus scale="   48.148">  1  3  2 -1</clus>
</clustering>
</event>
<event>
 6    0  0.3522959E+002  0.9594868E+02  0.7546771E-02  0.1289054E+00
          2   -1    0    0  503    0 -0.00000000000E+00  0.00000000000E+00  0.26927429424E+03  0.26927429424E+03  0.00000000000E+00 0.  1.
         21   -1    0    0  505  502  0.00000000000E+00 -0.00000000000E+00 -0.26242199893E+03  0.26242199893E+03  0.00000000000E+00 0.  1.
         21    1    1    2  503  502 -0.10250506497E+03 -0.10332052139E+03 -0.19520097872E+03  0.24348683861E+03  0.00000000000E+00 0.  1.
         21    1    1    2  504  501  0.31828516445E+02  0.50688587048E+02  0.52117335089E+02  0.79363744448E+02  0.00000000000E+00 0.  1.
         21    1    1    2  505  504  0.29785884643E+02  0.26000257989E+02 -0.10701205756E+02  0.40960079884E+02  0.00000000000E+00 0. -1.
          2    1    1    2  501    0  0.40890663884E+02  0.26631676348E+02  0.16063714470E+03  0.16788563023E+03  0.00000000000E+00 0.  1.
<scales pt_clust_3="14000.00000" pt_clust_4="95.94868" pt_clust_5="39.53748" pt_clust_6="49.39826"></scales>
<clustering>
<clus scale="   39.537">  2  5  1 -1</clus>
<clus scale="   49.398">  1  6  2 -1</clus>
<clus scale="   95.949">  1  4  2 -1</clus>
<clus scale="   39.537">  2  3  1 -1</clus>
</clustering>
</event>
<event>
 6    0  0.3522959E+002  0.1914701E+03  0.7546771E-02  0.1157142E+00
         21   -1    0    0  504  502  0.00000000000E+00  0.00000000000E+00  0.16911866788E+03  0.16911866788E+03  0.00000000000E+00 0. -1.
          2   -1    0    0  502    0 -0.00000000000E+00 -0.00000000000E+00 -0.25972345584E+04  0.25972345584E+04  0.00000000000E+00 0. -1.
         21    1    1    2  503  501 -0.20289760243E+03 -0.21684793370E+03 -0.75934562192E+03  0.81535037680E+03  0.00000000000E+00 0. -1.
         21    1    1    2  504  505  0.14266365047E+01  0.35022950820E+02  0.51300419471E+02  0.62131919444E+02  0.00000000000E+00 0. -1.
         21    1    1    2  505  503  0.64195204486E+02  0.72461450914E+02  0.50798012757E+02  0.10932577120E+03  0.00000000000E+00 0. -1.
          2    1    1    2  501    0  0.13727576144E+03  0.10936353196E+03 -0.17708687008E+04  0.17795451589E+04  0.00000000000E+00 0. -1.
<scales pt_clust_3="191.47011" pt_clust_4="33.58134" pt_clust_5="137.74487" pt_clust_6="14000.00000"></scales>
<clustering>
<clus scale="   33.581">  4  5 -1 -1</clus>
<clus scale="  137.745">  1  4  2 -1</clus>
<clus scale="  191.470">  1  3  2 -1</clus>
<clus scale="  137.745">  1  3  2 -1</clus>
</clustering>
</event>
<event>
 6    0  0.3522959E+002  0.1067483E+03  0.7546771E-02  0.1266713E+00
          2   -1    0    0  503    0 -0.00000000000E+00  0.00000000000E+00  0.27300943582E+03  0.27300943582E+03  0.00000000000E+00 0.  1.
         21   -1    0    0  505  502  0.00000000000E+00 -0.00000000000E+00 -0.92454118147E+03  0.92454118147E+03  0.00000000000E+00 0.  1.
         21    1    1    2  503  504 -0.25250539818E+02 -0.49246567963E+02 -0.26507159145E+02  0.61363211317E+02  0.00000000000E+00 0. -1.
         21    1    1    2  504  502 -0.93450565529E+02 -0.54047206181E+02 -0.81308106566E+03  0.82021639097E+03  0.00000000000E+00 0.  1.
         21    1    1    2  505  501  0.51442060872E+02  0.90842760322E+02 -0.11489300957E+02  0.10502712395E+03  0.00000000000E+00 0.  1.
          2    1    1    2  501    0  0.67259044475E+02  0.12451013822E+02  0.19954578011E+03  0.21094389104E+03  0.00000000000E+00 0.  1.
<scales pt_clust_3="55.34270" pt_clust_4="106.74829" pt_clust_5="14000.00000" pt_clust_6="54.23549"></scales>
<clustering>
<clus scale="   55.343">  1  3  2 -1</clus>
<clus scale="   54.235">  1  6  2 -1</clus>
<clus scale="  106.748">  2  4  1 -1</clus>
<clus scale="  106.748">  2  3  1 -1</clus>
</clustering>
</event>
<event>
 6    0  0.3522959E+002  0.1754135E+03  0.7546771E-02  0.1172317E+00
         21   -1    0    0  503  502  0.00000000000E+00  0.00000000000E+00  0.92229839119E+02  0.92229839119E+02  0.00000000000E+00 0.  1.
          1   -1    0    0  504    0 -0.00000000000E+00 -0.00000000000E+00 -0.16234017411E+04  0.16234017411E+04  0.00000000000E+00 0.  1.
         21    1    1    2  503  505  0.19694480354E+03  0.84171946106E+02 -0.12653050834E+03  0.24876121421E+03  0.00000000000E+00 0.  1.
         21    1    1    2  504  502  0.11459083965E+02 -0.10467853735E+03 -0.58768390555E+03  0.59704378368E+03  0.00000000000E+00 0.  1.
         21    1    1    2  505  501 -0.14070544056E+03 -0.17080576022E+00 -0.17769695133E+03  0.22665889943E+03  0.00000000000E+00 0.  1.
          1    1    1    2  501    0 -0.67698446944E+02  0.20677397004E+02 -0.63926053673E+03  0.64316768286E+03  0.00000000000E+00 0.  1.
<scales pt_clust_3="175.41351" pt_clust_4="96.77244" pt_clust_5="14000.00000" pt_clust_6="70.78584"></scales>
<clustering>
<clus scale="   70.786">  2  6  1 -1</clus>
<clus scale="   96.772">  2  4  1 -1</clus>
<clus scale="  175.414">  1  3  2 -1</clus>
<clus scale="  175.414">  1  3  2 -1</clus>
</clustering>
</event>
<event>
 6    0  0.3522959E+002  0.2200552E+03  0.7546771E-02  0.1133842E+00
          2   -1    0    0  504    0 -0.00000000000E+00  0.00000000000E+00  0.10984595482E+04  0.10984595482E+04  0.00000000000E+00 0. -1.
         21   -1    0    0  503  502  0.00000000000E+00 -0.00000000000E+00 -0.22993104508E+03  0.22993104508E+03  0.00000000000E+00 0.  1.
         21    1    1    2  503  505 -0.39930080292E+02  0.28453913880E+01  0.32869307359E+02  0.51796707719E+02  0.00000000000E+00 0. -1.
         21    1    1    2  504  502  0.17599871051E+03 -0.14039109194E+03 -0.13212320101E+03  0.26103973844E+03  0.00000000000E+00 0.  1.
         21    1    1    2  505  501 -0.96142381406E+02  0.93873219881E+02  0.17534421171E+03  0.22090978134E+03  0.00000000000E+00 0.  1.
          2    1    1    2  501    0 -0.39926248815E+02  0.43672480673E+02  0.79243818511E+03  0.79464436582E+03  0.00000000000E+00 0. -1.
<scales pt_clust_3="30.61328" pt_clust_4="212.78749" pt_clust_5="30.61328" pt_clust_6="59.17255"></scales>
<clustering>
<clus scale="   30.613">  3  5 -1 -1</clus>
<clus scale="   59.173">  1  6  2 -1</clus>
<clus scale="  212.787">  2  4  1 -1</clus>
<clus scale="  212.787">  2  3  1 -1</clus>
</clustering>
</event>
<event>
 6    0  0.3522959E+002  0.7077615E+02  0.7546771E-02  0.1357473E+00
          2   -1    0    0  503    0 -0.00000000000E+00  0.00000000000E+00  0.26549399016E+04  0.26549399016E+04  0.00000000000E+00 0.  1.
         21   -1    0    0  504  502  0.00000000000E+00 -0.00000000000E+00 -0.51217293720E+02  0.51217293720E+02  0.00000000000E+00 0.  1.
         21    1    1    2  503  505  0.33601032940E+02  0.17034600678E+01  0.13526089806E+03  0.13938235804E+03  0.00000000000E+00 0. -1.
         21    1    1    2  504  501  0.36425788359E+02  0.99776864782E+02  0.25020391845E+03  0.27181659554E+03  0.00000000000E+00 0. -1.
         21    1    1    2  505  502 -0.49346140973E+02 -0.35628745549E+02 -0.13327091962E+02  0.62306183630E+02  0.00000000000E+00 0.  1.
          2    1    1    2  501    0 -0.20680680326E+02 -0.65851579301E+02  0.22315848834E+04  0.22326520581E+04  0.00000000000E+00 0.  1.
<scales pt_clust_3="33.64419" pt_clust_4="70.77615" pt_clust_5="60.58975" pt_clust_6="14000.00000"></scales>
<clustering>
<clus scale="   33.644">  1  3  2 -1</clus>
<clus scale="   60.590">  2  5  1 -1</clus>
<clus scale="   70.776">  2  4  1 -1</clus>
<clus scale="   60.590">  2  3  1 -1</clus>
</clustering>
</event>
<event>
 6    0  0.3522959E+002  0.1504990E+03  0.7546771E-02  0.1199861E+00
          1   -1    0    0  503    0 -0.00000000000E+00  0.00000000000E+00  0.77834924951E+03  0.77834924951E+03  0.00000000000E+00 0.  1.
         21   -1    0    0  504  502  0.00000000000E+00 -0.00000000000E+00 -0.43930935444E+03  0.43930935444E+03  0.00000000000E+00 0.  1.
         21    1    1    2  503  502 -0.40534641288E+02  0.43230697708E+01  0.75724363421E+02  0.85999565651E+02  0.00000000000E+00 0.  1.
         21    1    1    2  504  505  0.72373256208E+02  0.81860829300E+02 -0.34695213787E+03  0.36375110936E+03  0.00000000000E+00 0.  1.
         21    1    1    2  505  501  0.43298532007E+01  0.37454017754E+02 -0.67872086552E+02  0.77641298338E+02  0.00000000000E+00 0.  1.
          1    1    1    2  501    0 -0.36168468121E+02 -0.12363791683E+03  0.67813975607E+03  0.69026663060E+03  0.00000000000E+00 0.  1.
<scales pt_clust_3="40.76452" pt_clust_4="30.11758" pt_clust_5="30.11758" pt_clust_6="141.49636"></scales>
<clustering>
<clus scale="   30.118">  4  5 -1 -1</clus>
<clus scale="   40.765">  1  3  2 -1</clus>
<clus scale="  141.496">  1  6  2 -1</clus>
<clus scale="  150.499">  2  3  1 -1</clus>
</clustering>
</event>
<event>
 6    0  0.3522959E+002  0.1228485E+03  0.7546771E-02  0.1238471E+00
          1   -1    0    0  505    0 -0.00000000000E+00  0.00000000000E+00  0.12085741500E+04  0.12085741500E+04  0.00000000000E+00 0. -1.
         21   -1    0    0  503  502  0.00000000000E+00 -0.00000000000E+00 -0.26659353662E+03  0.26659353662E+03  0.00000000000E+00 0. -1.
         21    1    1    2  503  504 -0.29209380430E+02  0.20639424902E+02 -0.19184932447E+02  0.40586147864E+02  0.00000000000E+00 0.  1.
         21    1    1    2  504  501  0.14592435454E+03 -0.22464976603E+02  0.12592013493E+03  0.19404760448E+03  0.00000000000E+00 0.  1.
         21    1    1    2  505  502 -0.88381412023E+02 -0.62800633548E+02 -0.18683793492E+03  0.21601760921E+03  0.00000000000E+00 0. -1.
          1    1    1    2  501    0 -0.28333562085E+02  0.64626185249E+02  0.10220833458E+04  0.10245163251E+04  0.00000000000E+00 0. -1.
<scales pt_clust_3="35.76554" pt_clust_4="14000.00000" pt_clust_5="122.84852" pt_clust_6="70.72188"></scales>
<clustering>
<clus scale="   35.766">  2  3  1 -1</clus>
<clus scale="   70.722">  1  6  2 -1</clus>
<clus scale="  122.849">  2  5  1 -1</clus>
<clus scale="   35.766">  2  3  1 -1</clus>
</clustering>
</event>
<event>
 6    0  0.3522959E+002  0.1123759E+03  0.7546771E-02  0.1256232E+00
         21   -1    0    0  501  502  0.00000000000E+00  0.00000000000E+00  0.62242217648E+02  0.62242217648E+02  0.00000000000E+00 0. -1.
          1   -1    0    0  505    0 -0.00000000000E+00 -0.00000000000E+00 -0.76721022343E+03  0.76721022343E+03  0.00000000000E+00 0.  1.
         21    1    1    2  503  504 -0.62366879387E+01  0.51785127450E+02  0.10443598481E+01  0.52169784253E+02  0.00000000000E+00 0.  1.
         21    1    1    2  504  502 -0.24600304923E+02 -0.25444081391E+02 -0.56273776017E+00  0.35396227962E+02  0.00000000000E+00 0.  1.
         21    1    1    2  505  503  0.12747586476E+03 -0.35461440838E+02 -0.42421498414E+03  0.44437142421E+03  0.00000000000E+00 0. -1.
          1    1    1    2  501    0 -0.96638871896E+02  0.91203947790E+01 -0.28123464373E+03  0.29751500466E+03  0.00000000000E+00 0.  1.
<scales pt_clust_3="42.18816" pt_clust_4="35.39175" pt_clust_5="14000.00000" pt_clust_6="112.37588"></scales>
<clustering>
<clus scale="   35.392">  1  4  2 -1</clus>
<clus scale="   42.188">  1  3  2 -1</clus>
<clus scale="  112.376">  2  6  1 -1</clus>
<clus scale="   35.392">  1  3  2 -1</clus>
</clustering>
</event>
<event>
 6    0  0.3522959E+002  0.1407486E+03  0.7546771E-02  0.1212325E+00
         21   -1    0    0  504  502  0.00000000000E+00  0.00000000000E+00  0.65607602128E+02  0.65607602128E+02  0.00000000000E+00 0.  1.
         -1   -1    0    0    0  501 -0.00000000000E+00 -0.00000000000E+00 -0.11166461052E+04  0.11166461052E+04  0.00000000000E+00 0. -1.
         21    1    1    2  503  502  0.25734071189E+02 -0.77195380231E+02  0.60976642951E+01  0.81599942762E+02  0.00000000000E+00 0.  1.
         21    1    1    2  504  501 -0.10532504097E+03  0.99855504643E+02 -0.74874113968E+03  0.76267803188E+03  0.00000000000E+00 0.  1.
         21    1    1    2  505  503  0.44383965530E+02 -0.23629175316E+02 -0.32565059555E+02  0.59906238624E+02  0.00000000000E+00 0.  1.
         -1    1    1    2    0  505  0.35207004252E+02  0.96905090303E+00 -0.27582996815E+03  0.27806949408E+03  0.00000000000E+00 0. -1.
<scales pt_clust_3="51.89921" pt_clust_4="124.77510" pt_clust_5="51.89921" pt_clust_6="35.22034"></scales>
<clustering>
<clus scale="   35.220">  2  6  1 -1</clus>
<clus scale="   51.899">  3  5 -1 -1</clus>
<clus scale="  124.775">  2  4  1 -1</clus>
<clus scale="  140.749">  1  3  2 -1</clus>
</clustering>
</event>
<event>
 6    0  0.3522959E+002  0.1508230E+03  0.7546771E-02  0.1199465E+00
         -2   -1    0    0    0  501 -0.00000000000E+00  0.00000000000E+00  0.25858826837E+03  0.25858826837E+03  0.00000000000E+00 0.  1.
         21   -1    0    0  505  502  0.00000000000E+00 -0.00000000000E+00 -0.45079167662E+03  0.45079167662E+03  0.00000000000E+00 0. -1.
         21    1    1    2  503  502  0.36848894988E+02  0.32250231702E+01 -0.39480205876E+02  0.54101095112E+02  0.00000000000E+00 0. -1.
         21    1    1    2  504  503 -0.73920773492E+02  0.64851249576E+02  0.13641671711E+03  0.16816505592E+03  0.00000000000E+00 0.  1.
         21    1    1    2  505  501  0.91202333799E+02 -0.67569277639E+02 -0.37155774383E+03  0.38850821094E+03  0.00000000000E+00 0. -1.
         -2    1    1    2    0  504 -0.54130455294E+02 -0.50699510786E+00  0.82417824339E+02  0.98605583022E+02  0.00000000000E+00 0.  1.
<scales pt_clust_3="36.98975" pt_clust_4="38.77394" pt_clust_5="141.44563" pt_clust_6="38.77394"></scales>
<clustering>
<clus scale="   36.990">  2  3  1 -1</clus>
<clus scale="   38.774">  4  6 -1 -1</clus>
<clus scale="  141.446">  2  5  1 -1</clus>
<clus scale="   36.990">  2  3  1 -1</clus>
</clustering>
</event>
<event>
 6    0  0.3522959E+002  0.1214112E+03  0.7546771E-02  0.1240787E+00
         21   -1    0    0  503  502  0.00000000000E+00  0.00000000000E+00  0.15915896899E+03  0.15915896899E+03  0.00000000000E+00 0. -1.
          2   -1    0    0  505    0 -0.00000000000E+00 -0.00000000000E+00 -0.84672220650E+03  0.84672220650E+03  0.00000000000E+00 0. -1.
         21    1    1    2  503  504 -0.37247121025E+02 -0.23731678754E+02  0.60115942936E+02  0.74595356398E+02  0.00000000000E+00 0. -1.
         21    1    1    2  504  501 -0.33541671554E+02 -0.79064222139E+02  0.50905036038E+02  0.99837456133E+02  0.00000000000E+00 0. -1.
         21    1    1    2  505  502  0.46863469323E+01  0.67472940952E+02 -0.71882800915E+03  0.72200295453E+03  0.00000000000E+00 0. -1.
          2    1    1    2  501    0  0.66102445647E+02  0.35322959941E+02 -0.79756207337E+02  0.10944540844E+03  0.00000000000E+00 0. -1.
<scales pt_clust_3="36.02033" pt_clust_4="36.02033" pt_clust_5="67.63549" pt_clust_6="110.53322"></scales>
<clustering>
<clus scale="   36.020">  3  4 -1 -1</clus>
<clus scale="   67.635">  2  5  1 -1</clus>
<clus scale="  110.533">  2  6  1 -1</clus>
<clus scale="  121.411">  1  3  2 -1</clus>
</clustering>
</event>
<event>
 6    0  0.3522959E+002  0.8619565E+02  0.7546771E-02  0.1312335E+00
         21   -1    0    0  503  502  0.00000000000E+00  0.00000000000E+00  0.11753706054E+03  0.11753706054E+03  0.00000000000E+00 0.  1.
          2   -1    0    0  504    0 -0.00000000000E+00 -0.00000000000E+00 -0.21505875959E+04  0.21505875959E+04  0.00000000000E+00 0.  1.
         21    1    1    2  503  501  0.48479721208E+02  0.36383683499E+02  0.49712319825E+02  0.78392413763E+02  0.00000000000E+00 0.  1.
         21    1    1    2  504  505 -0.92929680092E+02  0.72548421952E+02 -0.78503446459E+03  0.79383770984E+03  0.00000000000E+00 0.  1.
         21    1    1    2  505  502  0.27066709223E+02 -0.28010423698E+02  0.39869475281E+02  0.55738367783E+02  0.00000000000E+00 0. -1.
          2    1    1    2  501    0  0.17383249661E+02 -0.80921681752E+02 -0.13375978659E+04  0.13401561651E+04  0.00000000000E+00 0.  1.
<scales pt_clust_3="74.11141" pt_clust_4="86.19565" pt_clust_5="38.95113" pt_clust_6="14000.00000"></scales>
<clustering>
<clus scale="   38.951">  1  5  2 -1</clus>
<clus scale="   74.111">  1  3  2 -1</clus>
<clus scale="   86.196">  1  4  2 -1</clus>
<clus scale="   38.951">  1  3  2 -1</clus>
</clustering>
</event>
<event>
 6    0  0.3522959E+002  0.9479411E+02  0.7546771E-02  0.1291640E+00
          2   -1    0    0  504    0 -0.00000000000E+00  0.00000000000E+00  0.63488195014E+03  0.63488195014E+03  0.00000000000E+00 0.  1.
         21   -1    0    0  505  502  0.00000000000E+00 -0.00000000000E+00 -0.38649340974E+03  0.38649340974E+03  0.00000000000E+00 0.  1.
         21    1    1    2  503  501  0.64354477273E+02  0.51795953588E+02  0.16324311259E+03  0.18295527694E+03  0.00000000000E+00 0.  1.
         21    1    1    2  504  502 -0.31797889843E+02  0.81373151502E+01 -0.35386359782E+03  0.35538256508E+03  0.00000000000E+00 0.  1.
         21    1    1    2  505  503  0.16026822842E+02  0.33965616968E+02  0.69031818072E+01  0.38186072140E+02  0.00000000000E+00 0.  1.
          2    1    1    2  501    0 -0.48583410272E+02 -0.93898885707E+02  0.43210584383E+03  0.44485144572E+03  0.00000000000E+00 0.  1.
<scales pt_clust_3="14000.00000" pt_clust_4="32.82258" pt_clust_5="37.96161" pt_clust_6="94.79411"></scales>
<clustering>
<clus scale="   32.823">  2  4  1 -1</clus>
<clus scale="   37.962">  2  5  1 -1</clus>
<clus scale="   94.794">  1  6  2 -1</clus>
<clus scale="   32.823">  2  3  1 -1</clus>
</clustering>
</event>
<event>
 6    0  0.3522959E+002  0.1023411E+03  0.7546771E-02  0.1275449E+00
         21   -1    0    0  503  502  0.00000000000E+00  0.00000000000E+00  0.85839641121E+02  0.85839641121E+02  0.00000000000E+00 0. -1.
          3   -1    0    0  505    0 -0.00000000000E+00 -0.00000000000E+00 -0.11205832390E+04  0.11205832390E+04  0.00000000000E+00 0. -1.
         21    1    1    2  503  504  0.32310835108E+02 -0.38951898347E+02 -0.14756771697E+02  0.52716247601E+02  0.00000000000E+00 0. -1.
         21    1    1    2  504  501 -0.56679572073E+02 -0.70483795724E+02  0.21862660592E+02  0.93051143347E+02  0.00000000000E+00 0. -1.
         21    1    1    2  505  502  0.43504940300E+02  0.12924274318E+02 -0.77361637404E+03  0.77494645678E+03  0.00000000000E+00 0.  1.
          3    1    1    2  501    0 -0.19136203335E+02  0.96511419753E+02 -0.26823311270E+03  0.28570903235E+03  0.00000000000E+00 0. -1.
<scales pt_clust_3="52.50317" pt_clust_4="14000.00000" pt_clust_5="45.38410" pt_clust_6="102.34106"></scales>
<clustering>
<clus scale="   45.384">  2  5  1 -1</clus>
<clus scale="   52.503">  1  3  2 -1</clus>
<clus scale="  102.341">  2  6  1 -1</clus>
<clus scale="   52.503">  1  3  2 -1</clus>
</clustering>
</event>
<event>
 6    0  0.3522959E+002  0.1170973E+03  0.7546771E-02  0.1247964E+00
         21   -1    0    0  501  502  0.00000000000E+00  0.00000000000E+00  0.51045470965E+03  0.51045470965E+03  0.00000000000E+00 0. -1.
          2   -1    0    0  505    0 -0.00000000000E+00 -0.00000000000E+00 -0.22186971568E+03  0.22186971568E+03  0.00000000000E+00 0. -1.
         21    1    1    2  503  504 -0.23332345079E-01 -0.71242422173E+02 -0.37543198881E+02  0.80529342750E+02  0.00000000000E+00 0. -1.
         21    1    1    2  504  502  0.96367320196E+02  0.76025676770E+02  0.45574317191E+03  0.47198347711E+03  0.00000000000E+00 0. -1.
         21    1    1    2  505  503 -0.46204910826E+02 -0.18392823120E+02 -0.11890453114E+02  0.51132891587E+02  0.00000000000E+00 0. -1.
          2    1    1    2  501    0 -0.50139077024E+02  0.13609568522E+02 -0.11772452594E+03  0.12867871389E+03  0.00000000000E+00 0. -1.
<scales pt_clust_3="78.27384" pt_clust_4="14000.00000" pt_clust_5="49.73117" pt_clust_6="117.09731"></scales>
<clustering>
<clus scale="   49.731">  2  5  1 -1</clus>
<clus scale="   78.274">  2  3  1 -1</clus>
<clus scale="  117.097">  2  6  1 -1</clus>
<clus scale="  117.097">  1  3  2 -1</clus>
</clustering>
</event>
<event>
 6    0  0.3522959E+002  0.2038737E+03  0.7546771E-02  0.1146511E+00
          2   -1    0    0  504    0 -0.00000000000E+00  0.00000000000E+00  0.72690856915E+03  0.72690856915E+03  0.00000000000E+00 0. -1.
         21   -1    0    0  505  502  0.00000000000E+00 -0.00000000000E+00 -0.24700054660E+03  0.24700054660E+03  0.00000000000E+00 0. -1.
         21    1    1    2  503  501 -0.22207695287E+02 -0.62518418348E+02 -0.23127374711E+02  0.70261012117E+02  0.00000000000E+00 0.  1.
         21    1    1    2  504  502  0.85619465551E+02  0.20704106139E+03  0.16815944159E+03  0.28013263247E+03  0.00000000000E+00 0.  1.
         21    1    1    2  505  503 -0.11487483503E+02 -0.12739514327E+03 -0.11398887240E+03  0.17133285685E+03  0.00000000000E+00 0. -1.
          2    1    1    2  501    0 -0.51924286761E+02 -0.17127499772E+02  0.44886482807E+03  0.45218261431E+03  0.00000000000E+00 0. -1.
<scales pt_clust_3="35.01813" pt_clust_4="197.99061" pt_clust_5="35.01813" pt_clust_6="54.67616"></scales>
<clustering>
<clus scale="   35.018">  3  5 -1 -1</clus>
<clus scale="   54.676">  1  6  2 -1</clus>
<clus scale="  197.991">  1  4  2 -1</clus>
<clus scale="  203.874">  2  3  1 -1</clus>
</clustering>
</event>
<event>
 6    0  0.3522959E+002  0.1100471E+03  0.7546771E-02  0.1260483E+00
          2   -1    0    0  502    0 -0.00000000000E+00  0.00000000000E+00  0.27493858920E+03  0.27493858920E+03  0.00000000000E+00 0. -1.
         21   -1    0    0  503  502  0.00000000000E+00 -0.00000000000E+00 -0.33001141464E+03  0.33001141464E+03  0.00000000000E+00 0. -1.
         21    1    1    2  503  505  0.41625321857E+02 -0.47501548944E+02 -0.10188136994E+03  0.11987025533E+03  0.00000000000E+00 0. -1.
         21    1    1    2  504  501  0.18989508821E+02  0.68378584902E+02 -0.12665925543E+03  0.14518539632E+03  0.00000000000E+00 0. -1.
         21    1    1    2  505  504  0.34444375718E+02  0.18582430780E+02 -0.67410726531E+02  0.77948237977E+02  0.00000000000E+00 0. -1.
          2    1    1    2  501    0 -0.95059206397E+02 -0.39459466738E+02  0.24087852647E+03  0.26194611421E+03  0.00000000000E+00 0. -1.
<scales pt_clust_3="63.15904" pt_clust_4="30.69166" pt_clust_5="30.69166" pt_clust_6="101.99172"></scales>
<clustering>
<clus scale="   30.692">  4  5 -1 -1</clus>
<clus scale="   63.159">  2  3  1 -1</clus>
<clus scale="  101.992">  1  6  2 -1</clus>
<clus scale="   63.159">  2  3  1 -1</clus>
</clustering>
</event>
<event>
 6    0  0.3522959E+002  0.1191054E+03  0.7546771E-02  0.1244580E+00
         21   -1    0    0  504  502  0.00000000000E+00  0.00000000000E+00  0.31302364467E+03  0.31302364467E+03  0.00000000000E+00 0. -1.
          3   -1    0    0  503    0 -0.00000000000E+00 -0.00000000000E+00 -0.26299600968E+03  0.26299600968E+03  0.00000000000E+00 0. -1.
         21    1    1    2  503  502  0.84339012066E+02 -0.50685975948E+02  0.12621470901E+03  0.16003840128E+03  0.00000000000E+00 0. -1.
         21    1    1    2  504  505 -0.38936406488E+02  0.50085384494E+02  0.71876704149E+02  0.95868921395E+02  0.00000000000E+00 0. -1.
         21    1    1    2  505  501 -0.73209662264E+02  0.38632574255E+02  0.62892194168E+02  0.10395940809E+03  0.00000000000E+00 0. -1.
          3    1    1    2  501    0  0.27807056686E+02 -0.38031982801E+02 -0.21095597233E+03  0.21615292360E+03  0.00000000000E+00 0. -1.
<scales pt_clust_3="113.42400" pt_clust_4="31.81925" pt_clust_5="31.81925" pt_clust_6="47.11331"></scales>
<clustering>
<clus scale="   31.819">  4  5 -1 -1</clus>
<clus scale="   47.113">  2  6  1 -1</clus>
<clus scale="  113.424">  1  3  2 -1</clus>
<clus scale="  113.424">  1  3  2 -1</clus>
</clustering>
</event>
<event>
 6    0  0.3522959E+002  0.9059518E+02  0.7546771E-02  0.1301417E+00
         21   -1    0    0  503  502  0.00000000000E+00  0.00000000000E+00  0.16233601783E+04  0.16233601783E+04  0.00000000000E+00 0.  1.
          1   -1    0    0  505    0 -0.00000000000E+00 -0.00000000000E+00 -0.19968182583E+04  0.19968182583E+04  0.00000000000E+00 0.  1.
         21    1    1    2  503  501 -0.71311212487E+02 -0.70598870651E+01  0.10010132562E+04  0.10035749450E+04  0.00000000000E+00 0.  1.
         21    1    1    2  504  502  0.16875862117E+02 -0.66322251494E+02  0.61153813160E+03  0.61535544376E+03  0.00000000000E+00 0.  1.
         21    1    1    2  505  504  0.95800128735E+02  0.30306101167E+01 -0.34097250201E+03  0.35418793936E+03  0.00000000000E+00 0.  1.
          1    1    1    2  501    0 -0.41364778364E+02  0.70351528442E+02 -0.16450369658E+04  0.16470601086E+04  0.00000000000E+00 0.  1.
<scales pt_clust_3="14000.00000" pt_clust_4="68.43563" pt_clust_5="90.59518" pt_clust_6="81.54533"></scales>
<clustering>
<clus scale="   68.436">  1  4  2 -1</clus>
<clus scale="   81.545">  2  6  1 -1</clus>
<clus scale="   90.595">  2  5  1 -1</clus>
<clus scale="   68.436">  1  3  2 -1</clus>
</clustering>
</event>
<event>
 6    0  0.3522959E+002  0.8548938E+02  0.7546771E-02  0.1314158E+00
         -4   -1    0    0    0  501 -0.00000000000E+00  0.00000000000E+00  0.42074773290E+03  0.42074773290E+03  0.00000000000E+00 0.  1.
         21   -1    0    0  505  502  0.00000000000E+00 -0.00000000000E+00 -0.97124566109E+03  0.97124566109E+03  0.00000000000E+00 0. -1.
         21    1    1    2  503  501  0.29323851403E+02 -0.12473177837E+03  0.13894987910E+03  0.18901051213E+03  0.00000000000E+00 0.  1.
         21    1    1    2  504  502 -0.23930498241E+02  0.22272204643E+02 -0.68104605916E+02  0.75544405436E+02  0.00000000000E+00 0.  1.
         21    1    1    2  505  503  0.24651053492E+02  0.62476211396E+02 -0.87061351716E+03  0.87320034796E+03  0.00000000000E+00 0. -1.
         -4    1    1    2    0  504 -0.30044406654E+02  0.39983362328E+02  0.24927031578E+03  0.25423812846E+03  0.00000000000E+00 0.  1.
<scales pt_clust_3="14000.00000" pt_clust_4="32.69128" pt_clust_5="85.48938" pt_clust_6="50.10223"></scales>
<clustering>
<clus scale="   32.691">  2  4  1 -1</clus>
<clus scale="   50.102">  1  6  2 -1</clus>
<clus scale="   85.489">  2  5  1 -1</clus>
<clus scale="   32.691">  2  3  1 -1</clus>
</clustering>
</event>
<event>
 6    0  0.3522959E+002  0.1110688E+03  0.7546771E-02  0.1258603E+00
         21   -1    0    0  503  502  0.00000000000E+00  0.00000000000E+00  0.60161924625E+02  0.60161924625E+02  0.00000000000E+00 0. -1.
          1   -1    0    0  505    0 -0.00000000000E+00 -0.00000000000E+00 -0.67043505431E+03  0.67043505431E+03  0.00000000000E+00 0. -1.
         21    1    1    2  503  501  0.67543418467E+02 -0.95867185327E+02 -0.32154127227E+02  0.12159982935E+03  0.00000000000E+00 0. -1.
         21    1    1    2  504  502 -0.47564790213E+02 -0.19495728253E+02 -0.95913149128E+02  0.10882014916E+03  0.00000000000E+00 0. -1.
         21    1    1    2  505  504 -0.28217720513E+02  0.14601494824E+02 -0.11449232876E+03  0.11881892419E+03  0.00000000000E+00 0. -1.
          1    1    1    2  501    0  0.82390922586E+01  0.10076141876E+03 -0.36771352458E+03  0.38135807623E+03  0.00000000000E+00 0. -1.
<scales pt_clust_3="14000.00000" pt_clust_4="55.38904" pt_clust_5="31.77174" pt_clust_6="111.06877"></scales>
<clustering>
<clus scale="   31.772">  2  5  1 -1</clus>
<clus scale="   55.389">  2  4  1 -1</clus>
<clus scale="  111.069">  2  6  1 -1</clus>
<clus scale="  111.069">  1  3  2 -1</clus>
</clustering>
</event>
<event>
 6    0  0.3522959E+002  0.1405433E+03  0.7546771E-02  0.1212600E+00
          1   -1    0    0  503    0 -0.00000000000E+00  0.00000000000E+00  0.12280604593E+04  0.12280604593E+04  0.00000000000E+00 0.  1.
         21   -1    0    0  505  502  0.00000000000E+00 -0.00000000000E+00 -0.53664403192E+03  0.53664403192E+03  0.00000000000E+00 0.  1.
         21    1    1    2  503  502 -0.11199689125E+03 -0.61015149813E+02 -0.48253243179E+03  0.49910289509E+03  0.00000000000E+00 0.  1.
         21    1    1    2  504  501  0.98996194817E+02  0.20436666360E+02  0.94570002378E+02  0.13842467002E+03  0.00000000000E+00 0. -1.
         21    1    1    2  505  504  0.47860921404E+02  0.22753081718E+02  0.62809486770E+01  0.53364977668E+02  0.00000000000E+00 0. -1.
          1    1    1    2  501    0 -0.34860224966E+02  0.17825401736E+02  0.10730979081E+04  0.10738119485E+04  0.00000000000E+00 0.  1.
<scales pt_clust_3="128.73398" pt_clust_4="43.96556" pt_clust_5="43.96556" pt_clust_6="39.15329"></scales>
<clustering>
<clus scale="   39.153">  1  6  2 -1</clus>
<clus scale="   43.966">  4  5 -1 -1</clus>
<clus scale="  128.734">  2  3  1 -1</clus>
<clus scale="  128.734">  2  3  1 -1</clus>
</clustering>
</event>
<event>
 6    0  0.3522959E+002  0.6928443E+02  0.7546771E-02  0.1362543E+00
         21   -1    0    0  505  502  0.00000000000E+00  0.00000000000E+00  0.60909620316E+03  0.60909620316E+03  0.00000000000E+00 0. -1.
          1   -1    0    0  503    0 -0.00000000000E+00 -0.00000000000E+00 -0.28664169862E+04  0.28664169862E+04  0.00000000000E+00 0. -1.
         21    1    1    2  503  504  0.35094504306E+02 -0.10161083446E+02 -0.18755006122E+03  0.19107563244E+03  0.00000000000E+00 0. -1.
         21    1    1    2  504  502 -0.50760727730E+02 -0.32854482666E+02  0.32063420908E+03  0.32628570999E+03  0.00000000000E+00 0. -1.
         21    1    1    2  505  501  0.71304527195E+02  0.61859688033E+02  0.27569332023E+03  0.29140652605E+03  0.00000000000E+00 0. -1.
          1    1    1    2  501    0 -0.55638303771E+02 -0.18844121921E+02 -0.26660982511E+04  0.26667453209E+04  0.00000000000E+00 0. -1.
<scales pt_clust_3="36.53590" pt_clust_4="69.28443" pt_clust_5="14000.00000" pt_clust_6="35.59175"></scales>
<clustering>
<clus scale="   36.536">  2  3  1 -1</clus>
<clus scale="   35.592">  2  6  1 -1</clus>
<clus scale="   69.284">  1  4  2 -1</clus>
<clus scale="   69.284">  1  3  2 -1</clus>
</clustering>
</event>
<event>
 6    0  0.3522959E+002  0.6823343E+02  0.7546771E-02  0.1366205E+00
         -2   -1    0    0    0  501 -0.00000000000E+00  0.00000000000E+00  0.65632414560E+03  0.65632414560E+03  0.00000000000E+00 0. -1.
         21   -1    0    0  505  502  0.00000000000E+00 -0.00000000000E+00 -0.25171445097E+03  0.25171445097E+03  0.00000000000E+00 0. -1.
         21    1    1    2  503  502 -0.44626111656E+02  0.53146623522E+02 -0.19789244984E+03  0.20970807123E+03  0.00000000000E+00 0. -1.
         21    1    1    2  504  501 -0.67089980454E+02 -0.35483485596E+02  0.64330599154E+02  0.99491553485E+02  0.00000000000E+00 0.  1.
         21    1    1    2  505  504  0.55826828117E+02 -0.32270368420E+02  0.73689946493E+01  0.64902338153E+02  0.00000000000E+00 0.  1.
         -2    1    1    2    0  503  0.55889263994E+02  0.14607230494E+02  0.53080255067E+03  0.53393663371E+03  0.00000000000E+00 0. -1.
<scales pt_clust_3="14000.00000" pt_clust_4="39.70774" pt_clust_5="68.23343" pt_clust_6="57.76661"></scales>
<clustering>
<clus scale="   57.767">  1  6  2 -1</clus>
<clus scale="   39.708">  1  4  2 -1</clus>
<clus scale="   68.233">  1  5  2 -1</clus>
<clus scale="   68.233">  2  3  1 -1</clus>
</clustering>
</event>
<event>
 6    0  0.3522959E+002  0.1132379E+03  0.7546771E-02  0.1254689E+00
         21   -1    0    0  503  502  0.00000000000E+00  0.00000000000E+00  0.26171164010E+02  0.26171164010E+02  0.00000000000E+00 0. -1.
          1   -1    0    0  505    0 -0.00000000000E+00 -0.00000000000E+00 -0.21073948331E+04  0.21073948331E+04  0.00000000000E+00 0.  1.
         21    1    1    2  503  501 -0.82203660844E+01  0.71428918887E+02 -0.27013565765E+03  0.27954058454E+03  0.00000000000E+00 0. -1.
         21    1    1    2  504  502  0.33774109941E+02  0.60300078060E+02 -0.47156191836E+02  0.83668968829E+02  0.00000000000E+00 0. -1.
         21    1    1    2  505  504 -0.19810973435E+02 -0.44267852434E+02 -0.30860962264E+03  0.31239720968E+03  0.00000000000E+00 0. -1.
          1    1    1    2  501    0 -0.57427704211E+01 -0.87461144514E+02 -0.14553221969E+04  0.14579592340E+04  0.00000000000E+00 0.  1.
<scales pt_clust_3="65.62956" pt_clust_4="113.23788" pt_clust_5="48.49863" pt_clust_6="14000.00000"></scales>
<clustering>
<clus scale="   48.499">  2  5  1 -1</clus>
<clus scale="   65.630">  1  3  2 -1</clus>
<clus scale="  113.238">  1  4  2 -1</clus>
<clus scale="   65.630">  1  3  2 -1</clus>
</clustering>
</event>
<event>
 6    0  0.3522959E+002  0.1184432E+03  0.7546771E-02  0.1245688E+00
         21   -1    0    0  503  502  0.00000000000E+00  0.00000000000E+00  0.93044749868E+02  0.93044749868E+02  0.00000000000E+00 0. -1.
         -2   -1    0    0    0  501 -0.00000000000E+00 -0.00000000000E+00 -0.39827815443E+03  0.39827815443E+03  0.00000000000E+00 0.  1.
         21    1    1    2  503  504 -0.12530247728E+01 -0.31193860750E+02 -0.79641716873E+00  0.31229173858E+02  0.00000000000E+00 0. -1.
         21    1    1    2  504  501  0.95703522178E+01 -0.43993266133E+02 -0.56900042536E+02  0.72557659466E+02  0.00000000000E+00 0. -1.
         21    1    1    2  505  502 -0.11941822854E+03  0.44482858915E+02 -0.15405249052E+02  0.12836183133E+03  0.00000000000E+00 0. -1.
         -2    1    1    2    0  505  0.11110090110E+03  0.30704267968E+02 -0.23213169581E+03  0.25917423964E+03  0.00000000000E+00 0.  1.
<scales pt_clust_3="31.21902" pt_clust_4="48.06801" pt_clust_5="14000.00000" pt_clust_6="118.44317"></scales>
<clustering>
<clus scale="   31.219">  1  3  2 -1</clus>
<clus scale="   48.068">  2  4  1 -1</clus>
<clus scale="  118.443">  2  6  1 -1</clus>
<clus scale="   31.219">  1  3  2 -1</clus>
</clustering>
</event>
<event>
 6    0  0.3522959E+002  0.9729703E+02  0.7546771E-02  0.1286085E+00
         21   -1    0    0  503  502  0.00000000000E+00  0.00000000000E+00  0.34080151090E+03  0.34080151090E+03  0.00000000000E+00 0. -1.
          2   -1    0    0  504    0 -0.00000000000E+00 -0.00000000000E+00 -0.13888608346E+04  0.13888608346E+04  0.00000000000E+00 0. -1.
         21    1    1    2  503  505  0.14605590899E+02  0.50221260657E+02  0.22096278122E+03  0.22706837956E+03  0.00000000000E+00 0.  1.
         21    1    1    2  504  502  0.12194317728E+02 -0.69788047091E+02 -0.73383282401E+02  0.10200087763E+03  0.00000000000E+00 0. -1.
         21    1    1    2  505  501  0.52377873880E+02 -0.38010980915E+02  0.90209857770E+02  0.11102294709E+03  0.00000000000E+00 0. -1.
          2    1    1    2  501    0 -0.79177782507E+02  0.57577767349E+02 -0.12858486802E+04  0.12895701412E+04  0.00000000000E+00 0. -1.
<scales pt_clust_3="52.30199" pt_clust_4="65.15322" pt_clust_5="97.29703" pt_clust_6="14000.00000"></scales>
<clustering>
<clus scale="   52.302">  1  3  2 -1</clus>
<clus scale="   65.153">  1  4  2 -1</clus>
<clus scale="   97.297">  1  5  2 -1</clus>
<clus scale="   52.302">  1  3  2 -1</clus>
</clustering>
</event>
<event>
 6    0  0.3522959E+002  0.1793782E+03  0.7546771E-02  0.1168406E+00
         21   -1    0    0  503  502  0.00000000000E+00  0.00000000000E+00  0.38688195494E+03  0.38688195494E+03  0.00000000000E+00 0.  1.
          2   -1    0    0  505    0 -0.00000000000E+00 -0.00000000000E+00 -0.53644100560E+03  0.53644100560E+03  0.00000000000E+00 0.  1.
         21    1    1    2  503  501 -0.34957841107E+02  0.42521775674E+02  0.22038308279E+03  0.22715381406E+03  0.00000000000E+00 0.  1.
         21    1    1    2  504  502 -0.70463812839E+02 -0.17791754693E+02  0.81447911951E+02  0.10915794894E+03  0.00000000000E+00 0. -1.
         21    1    1    2  505  504 -0.51829271079E+02  0.39883489400E+02  0.33286893787E+02  0.73382445893E+02  0.00000000000E+00 0.  1.
          2    1    1    2  501    0  0.15725092502E+03 -0.64613510381E+02 -0.48467693919E+03  0.51362875165E+03  0.00000000000E+00 0.  1.
<scales pt_clust_3="55.04682" pt_clust_4="65.52182" pt_clust_5="65.52182" pt_clust_6="165.72038"></scales>
<clustering>
<clus scale="   55.047">  1  3  2 -1</clus>
<clus scale="   65.522">  4  5 -1 -1</clus>
<clus scale="  165.720">  2  6  1 -1</clus>
<clus scale="   55.047">  1  3  2 -1</clus>
</clustering>
</event>
<event>
 6    0  0.3522959E+002  0.2201237E+03  0.7546771E-02  0.1133791E+00
          3   -1    0    0  502    0 -0.00000000000E+00  0.00000000000E+00  0.57707930857E+03  0.57707930857E+03  0.00000000000E+00 0. -1.
         21   -1    0    0  503  502  0.00000000000E+00 -0.00000000000E+00 -0.93523359284E+03  0.93523359284E+03  0.00000000000E+00 0. -1.
         21    1    1    2  503  505  0.10185089862E+03  0.47626925711E+02 -0.54668062602E+03  0.55812331654E+03  0.00000000000E+00 0. -1.
         21    1    1    2  504  501 -0.19764924209E+03 -0.16176176011E+03  0.11591473400E+03  0.28047872556E+03  0.00000000000E+00 0. -1.
         21    1    1    2  505  504  0.64843802832E+02  0.74181113303E+02 -0.29067805289E+03  0.30692228132E+03  0.00000000000E+00 0. -1.
          3    1    1    2  501    0  0.30954540636E+02  0.39953721096E+02  0.36328966065E+03  0.36678857800E+03  0.00000000000E+00 0. -1.
<scales pt_clust_3="63.13892" pt_clust_4="209.62926" pt_clust_5="63.13892" pt_clust_6="50.54190"></scales>
<clustering>
<clus scale="   50.542">  1  6  2 -1</clus>
<clus scale="   63.139">  3  5 -1 -1</clus>
<clus scale="  209.629">  1  4  2 -1</clus>
<clus scale="  220.124">  2  3  1 -1</clus>
</clustering>
</event>
<event>
 6    0  0.3522959E+002  0.8889478E+02  0.7546771E-02  0.1305550E+00
          1   -1    0    0  504    0 -0.00000000000E+00  0.00000000000E+00  0.14152598713E+04  0.14152598713E+04  0.00000000000E+00 0.  1.
         21   -1    0    0  505  502  0.00000000000E+00 -0.00000000000E+00 -0.48373967992E+02  0.48373967992E+02  0.00000000000E+00 0.  1.
         21    1    1    2  503  502  0.45058264400E+02  0.58604120984E+01  0.76059364191E+02  0.88598072789E+02  0.00000000000E+00 0. -1.
         21    1    1    2  504  503  0.11407514776E+02  0.76002531900E+02  0.51923019655E+03  0.52488714335E+03  0.00000000000E+00 0. -1.
         21    1    1    2  505  501 -0.95167642822E+02 -0.81642255830E+02  0.62690605937E+02  0.14018719717E+03  0.00000000000E+00 0.  1.
          1    1    1    2  501    0  0.38701863646E+02 -0.22068816911E+00  0.70890573665E+03  0.70996142600E+03  0.00000000000E+00 0.  1.
<scales pt_clust_3="49.91470" pt_clust_4="88.89478" pt_clust_5="14000.00000" pt_clust_6="38.70249"></scales>
<clustering>
<clus scale="   38.702">  1  6  2 -1</clus>
<clus scale="   49.915">  2  3  1 -1</clus>
<clus scale="   88.895">  1  4  2 -1</clus>
<clus scale="   49.915">  2  3  1 -1</clus>
</clustering>
</event>
<event>
 6    0  0.3522959E+002  0.1245983E+03  0.7546771E-02  0.1235698E+00
         -2   -1    0    0    0  501 -0.00000000000E+00  0.00000000000E+00  0.11280722092E+04  0.11280722092E+04  0.00000000000E+00 0. -1.
         21   -1    0    0  503  502  0.00000000000E+00 -0.00000000000E+00 -0.34047313011E+02  0.34047313011E+02  0.00000000000E+00 0. -1.
         21    1    1    2  503  505  0.14437159242E+02 -0.27399042345E+02  0.23738070609E+02  0.39020956993E+02  0.00000000000E+00 0. -1.
         21    1    1    2  504  501  0.12443245186E+03 -0.27485601239E+02  0.68784564063E+03  0.69955022599E+03  0.00000000000E+00 0. -1.
         21    1    1    2  505  504 -0.36826137488E+02 -0.19373481552E+02  0.36661727224E+02  0.55457897840E+02  0.00000000000E+00 0. -1.
         -2    1    1    2    0  502 -0.10204347361E+03  0.74258125136E+02  0.34577945775E+03  0.36809044141E+03  0.00000000000E+00 0. -1.
<scales pt_clust_3="30.96997" pt_clust_4="124.59833" pt_clust_5="43.03936" pt_clust_6="14000.00000"></scales>
<clustering>
<clus scale="   30.970">  2  3  1 -1</clus>
<clus scale="   43.039">  2  5  1 -1</clus>
<clus scale="  124.598">  1  4  2 -1</clus>
<clus scale="   30.970">  2  3  1 -1</clus>
</clustering>
</event>
<event>
 6    0  0.3522959E+002  0.3050908E+03  0.7546771E-02  0.1082723E+00
          1   -1    0    0  504    0 -0.00000000000E+00  0.00000000000E+00  0.25699740449E+04  0.25699740449E+04  0.00000000000E+00 0.  1.
         21   -1    0    0  503  502  0.00000000000E+00 -0.00000000000E+00 -0.12173229922E+04  0.12173229922E+04  0.00000000000E+00 0. -1.
         21    1    1    2  503  505 -0.66793252950E+02 -0.15311365929E+03 -0.54347827090E+03  0.56857168611E+03  0.00000000000E+00 0. -1.
         21    1    1    2  504  502 -0.16176115652E+02  0.70917834793E+02  0.33423379434E+03  0.34205735672E+03  0.00000000000E+00 0.  1.
         21    1    1    2  505  501 -0.11259394706E+03 -0.70586461740E+02 -0.64363939376E+03  0.65721496840E+03  0.00000000000E+00 0. -1.
          1    1    1    2  501    0  0.19556331566E+03  0.15278228624E+03  0.22055349230E+04  0.22194530259E+04  0.00000000000E+00 0.  1.
<scales pt_clust_3="93.96468" pt_clust_4="72.73930" pt_clust_5="93.96468" pt_clust_6="286.35174"></scales>
<clustering>
<clus scale="   72.739">  1  4  2 -1</clus>
<clus scale="   93.965">  3  5 -1 -1</clus>
<clus scale="  286.352">  1  6  2 -1</clus>
<clus scale="  305.091">  2  3  1 -1</clus>
</clustering>
</event>
<event>
 6    0  0.3522959E+002  0.2714191E+03  0.7546771E-02  0.1100470E+00
          2   -1    0    0  503    0 -0.00000000000E+00  0.00000000000E+00  0.39954629250E+04  0.39954629250E+04  0.00000000000E+00 0.  1.
         21   -1    0    0  501  502  0.00000000000E+00 -0.00000000000E+00 -0.21469156757E+03  0.21469156757E+03  0.00000000000E+00 0. -1.
         21    1    1    2  503  504  0.14078556577E+03  0.10526117425E+03  0.27471798564E+04  0.27527981498E+04  0.00000000000E+00 0.  1.
         21    1    1    2  504  505 -0.22841448591E+03  0.10056125632E+03 -0.49300505444E+02  0.25439395332E+03  0.00000000000E+00 0. -1.
         21    1    1    2  505  502 -0.59334683375E+02 -0.57550089501E+02 -0.16189000975E+02  0.84230049301E+02  0.00000000000E+00 0. -1.
          2    1    1    2  501    0  0.14696360352E+03 -0.14827234107E+03  0.10990810075E+04  0.11187323401E+04  0.00000000000E+00 0.  1.
<scales pt_clust_3="174.38529" pt_clust_4="14000.00000" pt_clust_5="82.65965" pt_clust_6="271.41912"></scales>
<clustering>
<clus scale="   82.660">  2  5  1 -1</clus>
<clus scale="  174.385">  1  3  2 -1</clus>
<clus scale="  271.419">  1  6  2 -1</clus>
<clus scale="   82.660">  2  3  1 -1</clus>
</clustering>
</event>
<event>
 6    0  0.3522959E+002  0.1778643E+03  0.7546771E-02  0.1169886E+00
          2   -1    0    0  503    0 -0.00000000000E+00  0.00000000000E+00  0.13790060357E+04  0.13790060357E+04  0.00000000000E+00 0.  1.
         21   -1    0    0  501  502  0.00000000000E+00 -0.00000000000E+00 -0.50938550073E+02  0.50938550073E+02  0.00000000000E+00 0. -1.
         21    1    1    2  503  505 -0.16532565841E+02 -0.95795153343E+02  0.68662875303E+03  0.69347608583E+03  0.00000000000E+00 0.  1.
         21    1    1    2  504  502  0.45266768885E+02  0.10067325077E+03  0.20653235777E+03  0.23417898836E+03  0.00000000000E+00 0. -1.
         21    1    1    2  505  504  0.26513194171E+02  0.10866365926E+03  0.12550334104E+03  0.16811254837E+03  0.00000000000E+00 0. -1.
          2    1    1    2  501    0 -0.55247397215E+02 -0.11354175669E+03  0.30940303376E+03  0.33417696317E+03  0.00000000000E+00 0.  1.
<scales pt_clust_3="97.21130" pt_clust_4="50.81434" pt_clust_5="50.81434" pt_clust_6="170.35030"></scales>
<clustering>
<clus scale="   50.814">  4  5 -1 -1</clus>
<clus scale="   97.211">  1  3  2 -1</clus>
<clus scale="  170.350">  2  6  1 -1</clus>
<clus scale="  170.350">  2  3  1 -1</clus>
</clustering>
</event>
<event>
 6    0  0.3522959E+002  0.9973310E+02  0.7546771E-02  0.1280858E+00
         21   -1    0    0  505  502  0.00000000000E+00  0.00000000000E+00  0.18478033473E+04  0.18478033473E+04  0.00000000000E+00 0. -1.
         -4   -1    0    0    0  501 -0.00000000000E+00 -0.00000000000E+00 -0.46593990749E+02  0.46593990749E+02  0.00000000000E+00 0. -1.
         21    1    1    2  503  504 -0.79614038868E+02  0.21596154948E+01  0.13438079948E+04  0.13461660321E+04  0.00000000000E+00 0. -1.
         21    1    1    2  504  501  0.13048148220E+03 -0.19257415366E+02  0.13795680797E+03  0.19086211282E+03  0.00000000000E+00 0. -1.
         21    1    1    2  505  503 -0.14822856740E+02  0.29285247551E+02  0.31758275611E+03  0.31927441142E+03  0.00000000000E+00 0. -1.
         -4    1    1    2    0  502 -0.36044586594E+02 -0.12187447680E+02  0.18617976865E+01  0.38094781720E+02  0.00000000000E+00 0. -1.
<scales pt_clust_3="14000.00000" pt_clust_4="99.73310" pt_clust_5="32.82290" pt_clust_6="38.11252"></scales>
<clustering>
<clus scale="   32.823">  1  5  2 -1</clus>
<clus scale="   38.113">  2  6  1 -1</clus>
<clus scale="   99.733">  2  4  1 -1</clus>
<clus scale="   32.823">  1  3  2 -1</clus>
</clustering>
</event>
<event>
 6    0  0.3522959E+002  0.8118981E+02  0.7546771E-02  0.1325708E+00
         21   -1    0    0  501  502  0.00000000000E+00  0.00000000000E+00  0.18199918420E+03  0.18199918420E+03  0.00000000000E+00 0. -1.
          2   -1    0    0  504    0 -0.00000000000E+00 -0.00000000000E+00 -0.56289621089E+03  0.56289621089E+03  0.00000000000E+00 0.  1.
         21    1    1    2  503  502 -0.66292239379E+02 -0.18065613422E+02  0.60356561534E+02  0.91454589335E+02  0.00000000000E+00 0. -1.
         21    1    1    2  504  505 -0.73410763571E+02 -0.15605947451E+02 -0.37163845783E+02  0.83748655137E+02  0.00000000000E+00 0. -1.
         21    1    1    2  505  503  0.10598437261E+03  0.35831772719E+02  0.44081680062E+02  0.12024889892E+03  0.00000000000E+00 0. -1.
          2    1    1    2  501    0  0.33718630340E+02 -0.21602118456E+01 -0.44817142250E+03  0.44944325170E+03  0.00000000000E+00 0.  1.
<scales pt_clust_3="81.18981" pt_clust_4="58.01396" pt_clust_5="14000.00000" pt_clust_6="33.78776"></scales>
<clustering>
<clus scale="   33.788">  2  6  1 -1</clus>
<clus scale="   58.014">  2  4  1 -1</clus>
<clus scale="   81.190">  1  3  2 -1</clus>
<clus scale="   81.190">  1  3  2 -1</clus>
</clustering>
</event>
<event>
 6    0  0.3522959E+002  0.2689891E+03  0.7546771E-02  0.1101860E+00
         21   -1    0    0  503  502  0.00000000000E+00  0.00000000000E+00  0.11109217609E+03  0.11109217609E+03  0.00000000000E+00 0.  1.
          2   -1    0    0  504    0 -0.00000000000E+00 -0.00000000000E+00 -0.13011027638E+04  0.13011027638E+04  0.00000000000E+00 0. -1.
         21    1    1    2  503  505  0.59757276345E+02  0.15032097964E+02 -0.17310911931E+03  0.18374891356E+03  0.00000000000E+00 0.  1.
         21    1    1    2  504  502 -0.25936442553E+03 -0.82652809303E+02 -0.15281437357E+03  0.31217563147E+03  0.00000000000E+00 0.  1.
         21    1    1    2  505  501  0.16918062775E+03  0.71117658613E+02 -0.30227464840E+03  0.35362376792E+03  0.00000000000E+00 0.  1.
          2    1    1    2  501    0  0.30426521431E+02 -0.34969472737E+01 -0.56181244645E+03  0.56264662697E+03  0.00000000000E+00 0. -1.
<scales pt_clust_3="32.14683" pt_clust_4="263.45744" pt_clust_5="32.14683" pt_clust_6="30.62682"></scales>
<clustering>
<clus scale="   30.627">  2  6  1 -1</clus>
<clus scale="   32.147">  3  5 -1 -1</clus>
<clus scale="  263.457">  1  4  2 -1</clus>
<clus scale="  263.457">  1  3  2 -1</clus>
</clustering>
</event>
<event>
 6    0  0.3522959E+002  0.2723412E+03  0.7546771E-02  0.1099947E+00
         21   -1    0    0  504  502  0.00000000000E+00  0.00000000000E+00  0.42642013244E+03  0.42642013244E+03  0.00000000000E+00 0. -1.
          1   -1    0    0  505    0 -0.00000000000E+00 -0.00000000000E+00 -0.11433776886E+04  0.11433776886E+04  0.00000000000E+00 0.  1.
         21    1    1    2  503  501  0.75203555482E+02 -0.37685358378E+02  0.13767195706E+03  0.16133607394E+03  0.00000000000E+00 0. -1.
         21    1    1    2  504  503  0.14575698233E+03 -0.86600719016E+02  0.99845987557E+02  0.19675874482E+03  0.00000000000E+00 0. -1.
         21    1    1    2  505  502 -0.21464311792E+03  0.16540753735E+03 -0.15095621123E+02  0.27140228307E+03  0.00000000000E+00 0. -1.
          1    1    1    2  501    0 -0.63174198983E+01 -0.41121459953E+02 -0.93937987960E+03  0.94030071917E+03  0.00000000000E+00 0.  1.
<scales pt_clust_3="60.76644" pt_clust_4="60.76644" pt_clust_5="258.11469" pt_clust_6="41.60390"></scales>
<clustering>
<clus scale="   41.604">  2  6  1 -1</clus>
<clus scale="   60.766">  3  4 -1 -1</clus>
<clus scale="  258.115">  2  5  1 -1</clus>
<clus scale="  272.341">  1  3  2 -1</clus>
</clustering>
</event>
<event>
 6    0  0.3522959E+002  0.9880449E+02  0.7546771E-02  0.1282830E+00
         -4   -1    0    0    0  501 -0.00000000000E+00  0.00000000000E+00  0.37142682994E+03  0.37142682994E+03  0.00000000000E+00 0.  1.
         21   -1    0    0  503  502  0.00000000000E+00 -0.00000000000E+00 -0.27468670808E+03  0.27468670808E+03  0.00000000000E+00 0. -1.
         21    1    1    2  503  505 -0.82257936565E+02  0.69715054468E+02 -0.81336582085E+02  0.13506367584E+03  0.00000000000E+00 0. -1.
         21    1    1    2  504  502  0.53488698875E+02 -0.77396542722E+02 -0.10256802148E+03  0.13918140954E+03  0.00000000000E+00 0. -1.
         21    1    1    2  505  501  0.74451420328E+01  0.53131698814E+02 -0.27064441971E+02  0.60090694604E+02  0.00000000000E+00 0. -1.
         -4    1    1    2    0  504  0.21324095657E+02 -0.45450210561E+02  0.30770916740E+03  0.31177775803E+03  0.00000000000E+00 0.  1.
<scales pt_clust_3="98.80449" pt_clust_4="14000.00000" pt_clust_5="43.02438" pt_clust_6="50.20397"></scales>
<clustering>
<clus scale="   50.204">  1  6  2 -1</clus>
<clus scale="   43.024">  1  5  2 -1</clus>
<clus scale="   98.804">  1  3  2 -1</clus>
<clus scale="   98.804">  2  3  1 -1</clus>
</clustering>
</event>
<event>
 6    0  0.3522959E+002  0.1460916E+03  0.7546771E-02  0.1205359E+00
         21   -1    0    0  505  502  0.00000000000E+00  0.00000000000E+00  0.96558727719E+03  0.96558727719E+03  0.00000000000E+00 0. -1.
          1   -1    0    0  504    0 -0.00000000000E+00 -0.00000000000E+00 -0.20785991570E+04  0.20785991570E+04  0.00000000000E+00 0. -1.
         21    1    1    2  503  502  0.67319618112E+02  0.13008208436E+03  0.89726887424E+03  0.90914504471E+03  0.00000000000E+00 0. -1.
         21    1    1    2  504  503 -0.28273891066E+02  0.26549399944E+02  0.60413942651E+01  0.39252796054E+02  0.00000000000E+00 0. -1.
         21    1    1    2  505  501 -0.15466275713E+01 -0.15246274718E+03 -0.10741375156E+03  0.18650736007E+03  0.00000000000E+00 0. -1.
          1    1    1    2  501    0 -0.37499099475E+02 -0.41687371233E+01 -0.19089083967E+04  0.19092812333E+04  0.00000000000E+00 0. -1.
<scales pt_clust_3="14000.00000" pt_clust_4="41.27950" pt_clust_5="146.09165" pt_clust_6="37.73011"></scales>
<clustering>
<clus scale="   37.730">  2  6  1 -1</clus>
<clus scale="   41.280">  2  4  1 -1</clus>
<clus scale="  146.092">  2  5  1 -1</clus>
<clus scale="  146.092">  1  3  2 -1</clus>
</clustering>
</event>
<event>
 6    0  0.3522959E+002  0.7882046E+02  0.7546771E-02  0.1332433E+00
         21   -1    0    0  501  502  0.00000000000E+00  0.00000000000E+00  0.14122282361E+03  0.14122282361E+03  0.00000000000E+00 0. -1.
          4   -1    0    0  505    0 -0.00000000000E+00 -0.00000000000E+00 -0.19459682100E+03  0.19459682100E+03  0.00000000000E+00 0. -1.
         21    1    1    2  503  502  0.38016722018E+02 -0.29191398715E+02  0.43750910348E+02  0.64896464220E+02  0.00000000000E+00 0. -1.
         21    1    1    2  504  503 -0.83869090464E+02 -0.24330562498E+02  0.80764023390E+01  0.87699651547E+02  0.00000000000E+00 0. -1.
         21    1    1    2  505  504 -0.42432735019E+02  0.43221190407E+02 -0.50467052034E+02  0.78838643078E+02  0.00000000000E+00 0.  1.
          4    1    1    2  501    0  0.88285103465E+02  0.10300770806E+02 -0.54734258039E+02  0.10438488576E+03  0.00000000000E+00 0. -1.
<scales pt_clust_3="47.93129" pt_clust_4="78.82046" pt_clust_5="52.83208" pt_clust_6="14000.00000"></scales>
<clustering>
<clus scale="   47.931">  1  3  2 -1</clus>
<clus scale="   52.832">  2  5  1 -1</clus>
<clus scale="   78.820">  1  4  2 -1</clus>
<clus scale="   47.931">  1  3  2 -1</clus>
</clustering>
</event>
<event>
 6    0  0.3522959E+002  0.1810403E+03  0.7546771E-02  0.1166800E+00
         -2   -1    0    0    0  501 -0.00000000000E+00  0.00000000000E+00  0.24749378834E+04  0.24749378834E+04  0.00000000000E+00 0. -1.
         21   -1    0    0  505  502  0.00000000000E+00 -0.00000000000E+00 -0.20283555713E+03  0.20283555713E+03  0.00000000000E+00 0.  1.
         21    1    1    2  503  504  0.99179855467E+02 -0.98792555719E+02  0.81466581403E+02  0.16196733214E+03  0.00000000000E+00 0.  1.
         21    1    1    2  504  501 -0.22146811264E+01  0.42822490515E+02  0.93498932480E+02  0.10286263112E+03  0.00000000000E+00 0.  1.
         21    1    1    2  505  503 -0.73233054923E+02 -0.97911450656E+02 -0.13110324008E+03  0.17927016501E+03  0.00000000000E+00 0.  1.
         -2    1    1    2    0  502 -0.23732119417E+02  0.15388151586E+03  0.22282400524E+04  0.22336733122E+04  0.00000000000E+00 0. -1.
<scales pt_clust_3="181.04030" pt_clust_4="42.87972" pt_clust_5="121.93538" pt_clust_6="14000.00000"></scales>
<clustering>
<clus scale="   42.880">  1  4  2 -1</clus>
<clus scale="  121.935">  2  5  1 -1</clus>
<clus scale="  181.040">  2  3  1 -1</clus>
<clus scale="  121.935">  2  3  1 -1</clus>
</clustering>
</event>
<event>
 6    0  0.3522959E+002  0.1485503E+03  0.7546771E-02  0.1202266E+00
         21   -1    0    0  505  502  0.00000000000E+00  0.00000000000E+00  0.47214645879E+02  0.47214645879E+02  0.00000000000E+00 0.  1.
          2   -1    0    0  503    0 -0.00000000000E+00 -0.00000000000E+00 -0.12837530224E+04  0.12837530224E+04  0.00000000000E+00 0.  1.
         21    1    1    2  503  504  0.52736608315E+02 -0.40097427089E+01 -0.56323936753E+02  0.77263275523E+02  0.00000000000E+00 0.  1.
         21    1    1    2  504  502  0.83383801112E+02  0.33485127054E+02 -0.31005068458E+02  0.95054859381E+02  0.00000000000E+00 0.  1.
         21    1    1    2  505  501 -0.88036760782E+02 -0.23992579601E+02 -0.55283597174E+03  0.56031573847E+03  0.00000000000E+00 0.  1.
          2    1    1    2  501    0 -0.48083648646E+02 -0.54828047444E+01 -0.59637339962E+03  0.59833379495E+03  0.00000000000E+00 0.  1.
<scales pt_clust_3="39.63994" pt_clust_4="39.63994" pt_clust_5="35.59578" pt_clust_6="147.60272"></scales>
<clustering>
<clus scale="   35.596">  5  6 -1 -1</clus>
<clus scale="   39.640">  3  4 -1 -1</clus>
<clus scale="  147.603">  2  5  1 -1</clus>
<clus scale="  148.550">  1  3  2 -1</clus>
</clustering>
</event>
<event>
 6    0  0.3522959E+002  0.1008284E+03  0.7546771E-02  0.1278564E+00
         21   -1    0    0  503  502  0.00000000000E+00  0.00000000000E+00  0.42546543175E+03  0.42546543175E+03  0.00000000000E+00 0.  1.
          1   -1    0    0  505    0 -0.00000000000E+00 -0.00000000000E+00 -0.75757910443E+03  0.75757910443E+03  0.00000000000E+00 0.  1.
         21    1    1    2  503  504 -0.94641083473E+02 -0.11843191851E+03  0.18882361655E+03  0.24215163054E+03  0.00000000000E+00 0.  1.
         21    1    1    2  504  501 -0.79778487980E+01  0.63786726214E+02 -0.23768546642E+03  0.24622504637E+03  0.00000000000E+00 0.  1.
         21    1    1    2  505  502  0.75307078751E+02  0.41707428830E+02  0.19620509284E+03  0.21425943196E+03  0.00000000000E+00 0.  1.
          1    1    1    2  501    0  0.27311853520E+02  0.12937763470E+02 -0.47945691565E+03  0.48040842731E+03  0.00000000000E+00 0.  1.
<scales pt_clust_3="100.82841" pt_clust_4="76.71100" pt_clust_5="14000.00000" pt_clust_6="30.22124"></scales>
<clustering>
<clus scale="   30.221">  2  6  1 -1</clus>
<clus scale="   76.711">  2  4  1 -1</clus>
<clus scale="  100.828">  2  3  1 -1</clus>
<clus scale="  100.828">  1  3  2 -1</clus>
</clustering>
</event>
<event>
 6    0  0.3522959E+002  0.1460828E+03  0.7546771E-02  0.1205371E+00
         21   -1    0    0  505  502  0.00000000000E+00  0.00000000000E+00  0.31977980173E+02  0.31977980173E+02  0.00000000000E+00 0. -1.
          2   -1    0    0  504    0 -0.00000000000E+00 -0.00000000000E+00 -0.15212146518E+04  0.15212146518E+04  0.00000000000E+00 0.  1.
         21    1    1    2  503  501 -0.90455922940E+02 -0.37762814853E+02 -0.19143181583E+03  0.21506846420E+03  0.00000000000E+00 0. -1.
         21    1    1    2  504  502  0.11549677951E+02  0.67166949909E+02 -0.23246704816E+03  0.24225136264E+03  0.00000000000E+00 0.  1.
         21    1    1    2  505  503 -0.37736475109E+02 -0.23900497465E+02 -0.29628674113E+02  0.53601619961E+02  0.00000000000E+00 0. -1.
          2    1    1    2  501    0  0.11664272010E+03 -0.55036375913E+01 -0.10357091335E+04  0.10422711852E+04  0.00000000000E+00 0.  1.
<scales pt_clust_3="37.46535" pt_clust_4="68.15273" pt_clust_5="37.46535" pt_clust_6="135.12944"></scales>
<clustering>
<clus scale="   37.465">  3  5 -1 -1</clus>
<clus scale="   68.153">  2  4  1 -1</clus>
<clus scale="  135.129">  2  6  1 -1</clus>
<clus scale="  146.083">  1  3  2 -1</clus>
</clustering>
</event>
<event>
 6    0  0.3522959E+002  0.1620399E+03  0.7546771E-02  0.1186413E+00
         -1   -1    0    0    0  501 -0.00000000000E+00  0.00000000000E+00  0.72309007094E+03  0.72309007094E+03  0.00000000000E+00 0. -1.
         21   -1    0    0  505  502  0.00000000000E+00 -0.00000000000E+00 -0.15980721149E+04  0.15980721149E+04  0.00000000000E+00 0.  1.
         21    1    1    2  503  501 -0.44177986625E+02 -0.11872949235E+01  0.16590936575E+03  0.17169455965E+03  0.00000000000E+00 0.  1.
         21    1    1    2  504  503 -0.13276094618E+03  0.13433554619E+03 -0.74054611173E+03  0.76425130121E+03  0.00000000000E+00 0.  1.
         21    1    1    2  505  504  0.55408166700E+02  0.70322799983E+01 -0.82594625310E+03  0.82783255004E+03  0.00000000000E+00 0.  1.
         -1    1    1    2    0  502  0.12153076610E+03 -0.14018053126E+03  0.52560095516E+03  0.55738377490E+03  0.00000000000E+00 0. -1.
<scales pt_clust_3="44.19394" pt_clust_4="162.03987" pt_clust_5="55.77782" pt_clust_6="14000.00000"></scales>
<clustering>
<clus scale="   44.194">  1  3  2 -1</clus>
<clus scale="   55.778">  2  5  1 -1</clus>
<clus scale="  162.040">  2  4  1 -1</clus>
<clus scale="   55.778">  2  3  1 -1</clus>
</clustering>
</event>
<event>
 6    0  0.3522959E+002  0.1110409E+03  0.7546771E-02  0.1258654E+00
         21   -1    0    0  501  502  0.00000000000E+00  0.00000000000E+00  0.12647764662E+04  0.12647764662E+04  0.00000000000E+00 0. -1.
          2   -1    0    0  503    0 -0.00000000000E+00 -0.00000000000E+00 -0.61286452003E+02  0.61286452003E+02  0.00000000000E+00 0.  1.
         21    1    1    2  503  505  0.54362465128E+01  0.93848302094E+02  0.29400356882E+03  0.30866673786E+03  0.00000000000E+00 0.  1.
         21    1    1    2  504  502 -0.32549403204E+02 -0.88114218220E+02  0.88034249325E+03  0.88533975655E+03  0.00000000000E+00 0. -1.
         21    1    1    2  505  504  0.25830026276E+02  0.27419342324E+02  0.69959743403E+02  0.79456757345E+02  0.00000000000E+00 0.  1.
          2    1    1    2  501    0  0.12831304153E+01 -0.33153426198E+02 -0.40815791281E+02  0.52599666445E+02  0.00000000000E+00 0.  1.
<scales pt_clust_3="31.56960" pt_clust_4="99.21165" pt_clust_5="31.56960" pt_clust_6="33.17825"></scales>
<clustering>
<clus scale="   31.570">  3  5 -1 -1</clus>
<clus scale="   33.178">  2  6  1 -1</clus>
<clus scale="   99.212">  1  4  2 -1</clus>
<clus scale="   99.212">  1  3  2 -1</clus>
</clustering>
</event>
<event>
 6    0  0.3522959E+002  0.5532016E+02  0.7546771E-02  0.1418591E+00
          2   -1    0    0  504    0 -0.00000000000E+00  0.00000000000E+00  0.36126719330E+04  0.36126719330E+04  0.00000000000E+00 0.  1.
         21   -1    0    0  503  502  0.00000000000E+00 -0.00000000000E+00 -0.23649619834E+03  0.23649619834E+03  0.00000000000E+00 0.  1.
         21    1    1    2  503  501  0.40561974118E+02 -0.34696234993E+02 -0.17551866737E+03  0.18345545797E+03  0.00000000000E+00 0.  1.
         21    1    1    2  504  505 -0.10581925751E+03  0.11245116431E+02  0.86987625233E+02  0.13744458828E+03  0.00000000000E+00 0.  1.
         21    1    1    2  505  502  0.15245366821E+02  0.46161350858E+02 -0.12845399065E+02  0.50282161843E+02  0.00000000000E+00 0.  1.
          2    1    1    2  501    0  0.50011916568E+02 -0.22710232296E+02  0.34775521759E+04  0.34779859232E+04  0.00000000000E+00 0.  1.
<scales pt_clust_3="54.21841" pt_clust_4="14000.00000" pt_clust_5="48.61370" pt_clust_6="55.32016"></scales>
<clustering>
<clus scale="   48.614">  2  5  1 -1</clus>
<clus scale="   54.218">  2  3  1 -1</clus>
<clus scale="   55.320">  1  6  2 -1</clus>
<clus scale="   48.614">  2  3  1 -1</clus>
</clustering>
</event>
<event>
 6    0  0.3522959E+002  0.1575984E+03  0.7546771E-02  0.1191435E+00
         21   -1    0    0  505  502  0.00000000000E+00  0.00000000000E+00  0.22984820034E+02  0.22984820034E+02  0.00000000000E+00 0. -1.
          2   -1    0    0  504    0 -0.00000000000E+00 -0.00000000000E+00 -0.29554247076E+04  0.29554247076E+04  0.00000000000E+00 0.  1.
         21    1    1    2  503  502  0.61764130025E+02 -0.55416935589E+02 -0.32722890339E+03  0.33758643296E+03  0.00000000000E+00 0. -1.
         21    1    1    2  504  503  0.53934362299E+02 -0.29241079107E+02 -0.41842607291E+03  0.42289991089E+03  0.00000000000E+00 0. -1.
         21    1    1    2  505  501 -0.16639093997E+03  0.10620362700E+02 -0.46826251147E+03  0.49705987230E+03  0.00000000000E+00 0. -1.
          2    1    1    2  501    0  0.50692447647E+02  0.74037651996E+02 -0.17185223998E+04  0.17208633115E+04  0.00000000000E+00 0.  1.
<scales pt_clust_3="36.32811" pt_clust_4="36.32811" pt_clust_5="151.82967" pt_clust_6="89.72903"></scales>
<clustering>
<clus scale="   36.328">  3  4 -1 -1</clus>
<clus scale="   89.729">  2  6  1 -1</clus>
<clus scale="  151.830">  1  5  2 -1</clus>
<clus scale="  151.830">  1  3  2 -1</clus>
</clustering>
</event>
<event>
 6    0  0.3522959E+002  0.4748013E+03  0.7546771E-02  0.1020574E+00
          2   -1    0    0  505    0 -0.00000000000E+00  0.00000000000E+00  0.10740387331E+04  0.10740387331E+04  0.00000000000E+00 0.  1.
         21   -1    0    0  501  502  0.00000000000E+00 -0.00000000000E+00 -0.46474671510E+03  0.46474671510E+03  0.00000000000E+00 0.  1.
         21    1    1    2  503  504 -0.13360620108E+03 -0.27853567313E+02 -0.33724066848E+02  0.14058360809E+03  0.00000000000E+00 0. -1.
         21    1    1    2  504  502 -0.91629546796E+02 -0.21537708067E+01 -0.14706364436E+03  0.17328683755E+03  0.00000000000E+00 0.  1.
         21    1    1    2  505  503 -0.22725726167E+03  0.15049860626E+03 -0.36408776253E+02  0.27499325893E+03  0.00000000000E+00 0.  1.
          2    1    1    2  501    0  0.45249300955E+03 -0.12049126814E+03  0.82648850551E+03  0.94992174368E+03  0.00000000000E+00 0.  1.
<scales pt_clust_3="108.22220" pt_clust_4="91.65486" pt_clust_5="108.22220" pt_clust_6="450.46092"></scales>
<clustering>
<clus scale="   91.655">  2  4  1 -1</clus>
<clus scale="  108.222">  3  5 -1 -1</clus>
<clus scale="  450.461">  1  6  2 -1</clus>
<clus scale="   91.655">  2  3  1 -1</clus>
</clustering>
</event>
<event>
 6    0  0.3522959E+002  0.1244377E+03  0.7546771E-02  0.1235951E+00
          2   -1    0    0  504    0 -0.00000000000E+00  0.00000000000E+00  0.15030356600E+04  0.15030356600E+04  0.00000000000E+00 0.  1.
         21   -1    0    0  501  502  0.00000000000E+00 -0.00000000000E+00 -0.15683618215E+04  0.15683618215E+04  0.00000000000E+00 0. -1.
         21    1    1    2  503  505 -0.99812992851E+02 -0.11660412504E+03 -0.13302073117E+04  0.13390334751E+04  0.00000000000E+00 0. -1.
         21    1    1    2  504  503  0.12438162764E+03  0.10557992344E+03  0.78835222549E+02  0.18119851501E+03  0.00000000000E+00 0.  1.
         21    1    1    2  505  502  0.26097919890E+01  0.43415458778E+02 -0.17963738660E+03  0.18482776777E+03  0.00000000000E+00 0.  1.
          2    1    1    2  501    0 -0.27178426779E+02 -0.32391257180E+02  0.13656833142E+04  0.13663377236E+04  0.00000000000E+00 0.  1.
<scales pt_clust_3="124.43775" pt_clust_4="14000.00000" pt_clust_5="42.85323" pt_clust_6="42.28310"></scales>
<clustering>
<clus scale="   42.283">  1  6  2 -1</clus>
<clus scale="   42.853">  2  5  1 -1</clus>
<clus scale="  124.438">  2  3  1 -1</clus>
<clus scale="   42.853">  2  3  1 -1</clus>
</clustering>
</event>
<event>
 6    0  0.3522959E+002  0.1139834E+03  0.7546771E-02  0.1253366E+00
          1   -1    0    0  505    0 -0.00000000000E+00  0.00000000000E+00  0.20943037948E+04  0.20943037948E+04  0.00000000000E+00 0.  1.
         21   -1    0    0  503  502  0.00000000000E+00 -0.00000000000E+00 -0.16595745179E+03  0.16595745179E+03  0.00000000000E+00 0. -1.
         21    1    1    2  503  501 -0.59908946669E+01 -0.13763481182E+03 -0.10086368127E+03  0.17074165995E+03  0.00000000000E+00 0. -1.
         21    1    1    2  504  502 -0.86677720804E+02  0.62720373613E+02  0.77317220550E+02  0.13200312551E+03  0.00000000000E+00 0.  1.
         21    1    1    2  505  504  0.30120632939E+02  0.48244515754E+02  0.38802505910E+03  0.39217117732E+03  0.00000000000E+00 0.  1.
          1    1    1    2  501    0  0.62547982531E+02  0.26669922455E+02  0.15638677446E+04  0.15653452838E+04  0.00000000000E+00 0.  1.
<scales pt_clust_3="14000.00000" pt_clust_4="107.28495" pt_clust_5="56.87518" pt_clust_6="113.98337"></scales>
<clustering>
<clus scale="   56.875">  1  5  2 -1</clus>
<clus scale="  107.285">  2  4  1 -1</clus>
<clus scale="  113.983">  1  6  2 -1</clus>
<clus scale="  107.285">  2  3  1 -1</clus>
</clustering>
</event>
<event>
 6    0  0.3522959E+002  0.3663964E+03  0.7546771E-02  0.1056079E+00
          2   -1    0    0  504    0 -0.00000000000E+00  0.00000000000E+00  0.32728476349E+04  0.32728476349E+04  0.00000000000E+00 0.  1.
         21   -1    0    0  505  502  0.00000000000E+00 -0.00000000000E+00 -0.75899998080E+02  0.75899998080E+02  0.00000000000E+00 0.  1.
         21    1    1    2  503  501 -0.48121813450E+02 -0.23226794878E+02  0.23289577086E+02  0.58288912590E+02  0.00000000000E+00 0.  1.
         21    1    1    2  504  502 -0.27462003930E+03  0.25590915983E+03  0.97124201247E+03  0.10412572741E+04  0.00000000000E+00 0.  1.
         21    1    1    2  505  503  0.15782880544E+02 -0.36418321649E+02  0.40158739091E+02  0.56463419976E+02  0.00000000000E+00 0.  1.
          2    1    1    2  501    0  0.30695897221E+03 -0.19626404330E+03  0.21622573082E+04  0.21927380264E+04  0.00000000000E+00 0.  1.
<scales pt_clust_3="54.81726" pt_clust_4="366.39636" pt_clust_5="39.69123" pt_clust_6="14000.00000"></scales>
<clustering>
<clus scale="   39.691">  2  5  1 -1</clus>
<clus scale="   54.817">  2  3  1 -1</clus>
<clus scale="  366.396">  2  4  1 -1</clus>
<clus scale="   39.691">  2  3  1 -1</clus>
</clustering>
</event>
<event>
 6    0  0.3522959E+002  0.1396429E+03  0.7546771E-02  0.1213810E+00
         21   -1    0    0  501  502  0.00000000000E+00  0.00000000000E+00  0.99616662435E+02  0.99616662435E+02  0.00000000000E+00 0.  1.
          2   -1    0    0  504    0 -0.00000000000E+00 -0.00000000000E+00 -0.23406569872E+04  0.23406569872E+04  0.00000000000E+00 0. -1.
         21    1    1    2  503  502  0.18896577301E+02 -0.81006260599E+02  0.51066563599E+02  0.97605782655E+02  0.00000000000E+00 0.  1.
         21    1    1    2  504  505 -0.43628835167E+02  0.85009122618E+02 -0.28527322663E+03  0.30085019531E+03  0.00000000000E+00 0.  1.
         21    1    1    2  505  503 -0.59822336979E+02  0.74107486859E+02 -0.12843034716E+03  0.15989054281E+03  0.00000000000E+00 0.  1.
          2    1    1    2  501    0  0.84554594846E+02 -0.78110348879E+02 -0.18784033145E+04  0.18819271288E+04  0.00000000000E+00 0. -1.
<scales pt_clust_3="83.18110" pt_clust_4="71.37568" pt_clust_5="71.37568" pt_clust_6="119.95416"></scales>
<clustering>
<clus scale="   71.376">  4  5 -1 -1</clus>
<clus scale="   83.181">  1  3  2 -1</clus>
<clus scale="  119.954">  2  6  1 -1</clus>
<clus scale="   83.181">  1  3  2 -1</clus>
</clustering>
</event>
<event>
 6    0  0.3522959E+002  0.1134638E+03  0.7546771E-02  0.1254287E+00
          2   -1    0    0  505    0 -0.00000000000E+00  0.00000000000E+00  0.23241915919E+04  0.23241915919E+04  0.00000000000E+00 0. -1.
         21   -1    0    0  503  502  0.00000000000E+00 -0.00000000000E+00 -0.32006099993E+03  0.32006099993E+03  0.00000000000E+00 0. -1.
         21    1    1    2  503  501  0.69264033035E+02  0.65804818145E+00 -0.24297223519E+03  0.25265281786E+03  0.00000000000E+00 0. -1.
         21    1    1    2  504  502  0.12048336272E+02 -0.29161858336E+02 -0.32976042357E+02  0.45639848357E+02  0.00000000000E+00 0.  1.
         21    1    1    2  505  504 -0.18666862786E+03 -0.41486643069E+01  0.24570933496E+03  0.30860243895E+03  0.00000000000E+00 0. -1.
          2    1    1    2  501    0  0.10535625855E+03  0.32652474461E+02  0.20343695346E+04  0.20373574867E+04  0.00000000000E+00 0. -1.
<scales pt_clust_3="83.74324" pt_clust_4="31.55276" pt_clust_5="14000.00000" pt_clust_6="113.46384"></scales>
<clustering>
<clus scale="   31.553">  2  4  1 -1</clus>
<clus scale="   83.743">  2  3  1 -1</clus>
<clus scale="  113.464">  1  6  2 -1</clus>
<clus scale="   31.553">  2  3  1 -1</clus>
</clustering>
</event>
<event>
 6    0  0.3522959E+002  0.1195667E+03  0.7546771E-02  0.1243814E+00
         21   -1    0    0  504  502  0.00000000000E+00  0.00000000000E+00  0.14827936124E+04  0.14827936124E+04  0.00000000000E+00 0.  1.
          4   -1    0    0  503    0 -0.00000000000E+00 -0.00000000000E+00 -0.10382440816E+03  0.10382440816E+03  0.00000000000E+00 0.  1.
         21    1    1    2  503  505  0.12470072893E+03 -0.18001381184E+02  0.18293075795E+03  0.22212155169E+03  0.00000000000E+00 0.  1.
         21    1    1    2  504  501 -0.17839252822E+02  0.24564423140E+02  0.17503878796E+03  0.17765198315E+03  0.00000000000E+00 0. -1.
         21    1    1    2  505  502 -0.64281385803E+01  0.68250918780E+02  0.10548813180E+04  0.10571064771E+04  0.00000000000E+00 0.  1.
          4    1    1    2  501    0 -0.10043333753E+03 -0.74813960735E+02 -0.33881659694E+02  0.12973800859E+03  0.00000000000E+00 0.  1.
<scales pt_clust_3="119.56673" pt_clust_4="30.35869" pt_clust_5="90.53904" pt_clust_6="14000.00000"></scales>
<clustering>
<clus scale="   30.359">  1  4  2 -1</clus>
<clus scale="   90.539">  1  5  2 -1</clus>
<clus scale="  119.567">  1  3  2 -1</clus>
<clus scale="   30.359">  1  3  2 -1</clus>
</clustering>
</event>
<event>
 6    0  0.3522959E+002  0.1602079E+03  0.7546771E-02  0.1188462E+00
         21   -1    0    0  505  502  0.00000000000E+00  0.00000000000E+00  0.24866497989E+03  0.24866497989E+03  0.00000000000E+00 0.  1.
          2   -1    0    0  503    0 -0.00000000000E+00 -0.00000000000E+00 -0.14167957320E+04  0.14167957320E+04  0.00000000000E+00 0.  1.
         21    1    1    2  503  504  0.43969558412E+02  0.16704937616E+03 -0.12434476818E+04  0.12553887659E+04  0.00000000000E+00 0.  1.
         21    1    1    2  504  502 -0.26762793479E+02 -0.13711876504E+02  0.18663498714E+03  0.18904200882E+03  0.00000000000E+00 0.  1.
         21    1    1    2  505  501 -0.18135538695E+01 -0.38719535078E+02  0.21977653346E+02  0.44559046454E+02  0.00000000000E+00 0.  1.
          2    1    1    2  501    0 -0.15393211063E+02 -0.11461796458E+03 -0.13329571076E+03  0.17647089069E+03  0.00000000000E+00 0.  1.
<scales pt_clust_3="160.20792" pt_clust_4="30.07096" pt_clust_5="49.05960" pt_clust_6="14000.00000"></scales>
<clustering>
<clus scale="   30.071">  1  4  2 -1</clus>
<clus scale="   49.060">  1  5  2 -1</clus>
<clus scale="  160.208">  2  3  1 -1</clus>
<clus scale="   30.071">  1  3  2 -1</clus>
</clustering>
</event>
<event>
 6    0  0.3522959E+002  0.9423711E+02  0.7546771E-02  0.1292904E+00
         21   -1    0    0  505  502  0.00000000000E+00  0.00000000000E+00  0.66039113510E+03  0.66039113510E+03  0.00000000000E+00 0.  1.
         -4   -1    0    0    0  501 -0.00000000000E+00 -0.00000000000E+00 -0.55859164247E+03  0.55859164247E+03  0.00000000000E+00 0.  1.
         21    1    1    2  503  501  0.17717572849E+02  0.12190413757E+03  0.91221821891E+02  0.15328389326E+03  0.00000000000E+00 0.  1.
         21    1    1    2  504  503  0.42508334979E+02 -0.61483233631E+02  0.27582079464E+03  0.28576958781E+03  0.00000000000E+00 0.  1.
         21    1    1    2  505  504 -0.62609400530E+01 -0.32330028459E+02  0.25450801220E+03  0.25662961323E+03  0.00000000000E+00 0.  1.
         -4    1    1    2    0  502 -0.53964967776E+02 -0.28090875479E+02 -0.51975113610E+03  0.52329968327E+03  0.00000000000E+00 0.  1.
<scales pt_clust_3="94.23711" pt_clust_4="14000.00000" pt_clust_5="32.93069" pt_clust_6="60.92831"></scales>
<clustering>
<clus scale="   32.931">  1  5  2 -1</clus>
<clus scale="   60.928">  2  6  1 -1</clus>
<clus scale="   94.237">  2  3  1 -1</clus>
<clus scale="   32.931">  1  3  2 -1</clus>
</clustering>
</event>
<event>
 6    0  0.3522959E+002  0.1393804E+03  0.7546771E-02  0.1214165E+00
          2   -1    0    0  504    0 -0.00000000000E+00  0.00000000000E+00  0.18152210030E+04  0.18152210030E+04  0.00000000000E+00 0.  1.
         21   -1    0    0  503  502  0.00000000000E+00 -0.00000000000E+00 -0.46310126390E+02  0.46310126390E+02  0.00000000000E+00 0.  1.
         21    1    1    2  503  505  0.30222236543E+02  0.21627151504E+01  0.17643064688E+02  0.35061925932E+02  0.00000000000E+00 0.  1.
         21    1    1    2  504  502 -0.11529670241E+03  0.14654457997E+03  0.26274662449E+03  0.32218695223E+03  0.00000000000E+00 0.  1.
         21    1    1    2  505  501  0.26850620524E+02 -0.27205179636E+02  0.73352341452E+02  0.82714228631E+02  0.00000000000E+00 0.  1.
          2    1    1    2  501    0  0.58223845341E+02 -0.12150211549E+03  0.14151688459E+04  0.14215680226E+04  0.00000000000E+00 0.  1.
<scales pt_clust_3="30.29952" pt_clust_4="139.38037" pt_clust_5="40.77624" pt_clust_6="14000.00000"></scales>
<clustering>
<clus scale="   30.300">  2  3  1 -1</clus>
<clus scale="   40.776">  2  5  1 -1</clus>
<clus scale="  139.380">  2  4  1 -1</clus>
<clus scale="   30.300">  2  3  1 -1</clus>
</clustering>
</event>
<event>
 6    0  0.3522959E+002  0.6280646E+02  0.7546771E-02  0.1386418E+00
         21   -1    0    0  505  502  0.00000000000E+00  0.00000000000E+00  0.11020186334E+03  0.11020186334E+03  0.00000000000E+00 0. -1.
          2   -1    0    0  504    0 -0.00000000000E+00 -0.00000000000E+00 -0.22769626693E+04  0.22769626693E+04  0.00000000000E+00 0.  1.
         21    1    1    2  503  501  0.90201976086E+02  0.28754713000E+02 -0.48612547852E+03  0.49525873125E+03  0.00000000000E+00 0.  1.
         21    1    1    2  504  502 -0.12117315615E+02 -0.38793691810E+02 -0.86683882958E+02  0.95738578571E+02  0.00000000000E+00 0. -1.
         21    1    1    2  505  503 -0.38604184408E+02  0.55796081339E+02  0.89121547501E+02  0.11200953520E+03  0.00000000000E+00 0. -1.
          2    1    1    2  501    0 -0.39480476063E+02 -0.45757102529E+02 -0.16830729920E+04  0.16841576877E+04  0.00000000000E+00 0.  1.
<scales pt_clust_3="62.80646" pt_clust_4="40.64209" pt_clust_5="53.57202" pt_clust_6="14000.00000"></scales>
<clustering>
<clus scale="   40.642">  1  4  2 -1</clus>
<clus scale="   53.572">  1  5  2 -1</clus>
<clus scale="   62.806">  1  3  2 -1</clus>
<clus scale="   40.642">  1  3  2 -1</clus>
</clustering>
</event>
<event>
 6    0  0.3522959E+002  0.1857172E+03  0.7546771E-02  0.1162382E+00
         21   -1    0    0  503  502  0.00000000000E+00  0.00000000000E+00  0.98253434945E+03  0.98253434945E+03  0.00000000000E+00 0.  1.
          1   -1    0    0  502    0 -0.00000000000E+00 -0.00000000000E+00 -0.93530536867E+02  0.93530536867E+02  0.00000000000E+00 0.  1.
         21    1    1    2  503  505  0.14869459733E+02  0.35014922782E+02  0.13378969391E+03  0.13909287490E+03  0.00000000000E+00 0.  1.
         21    1    1    2  504  501 -0.10294006714E+03 -0.19425305419E+03  0.25830839811E+03  0.33919630750E+03  0.00000000000E+00 0.  1.
         21    1    1    2  505  504 -0.57351616094E+02  0.61428164649E+02  0.37497585105E+03  0.38427791525E+03  0.00000000000E+00 0. -1.
          1    1    1    2  501    0  0.14542222350E+03  0.97809966762E+02  0.12192986951E+03  0.21349778866E+03  0.00000000000E+00 0.  1.
<scales pt_clust_3="38.04137" pt_clust_4="185.71719" pt_clust_5="92.29758" pt_clust_6="14000.00000"></scales>
<clustering>
<clus scale="   38.041">  1  3  2 -1</clus>
<clus scale="   92.298">  1  5  2 -1</clus>
<clus scale="  185.717">  1  4  2 -1</clus>
<clus scale="   38.041">  1  3  2 -1</clus>
</clustering>
</event>
<event>
 6    0  0.3522959E+002  0.1153294E+03  0.7546771E-02  0.1251007E+00
         21   -1    0    0  503  502  0.00000000000E+00  0.00000000000E+00  0.53081275829E+03  0.53081275829E+03  0.00000000000E+00 0. -1.
          2   -1    0    0  505    0 -0.00000000000E+00 -0.00000000000E+00 -0.31733915882E+03  0.31733915882E+03  0.00000000000E+00 0. -1.
         21    1    1    2  503  501 -0.43581023626E+02 -0.14328622230E+02  0.52300972246E+02  0.69570156915E+02  0.00000000000E+00 0. -1.
         21    1    1    2  504  502  0.96391221676E+01  0.28844795432E+02  0.38779464451E+02  0.49282672033E+02  0.00000000000E+00 0.  1.
         21    1    1    2  505  504  0.13379523657E+03  0.41990933347E+02  0.40270152481E+03  0.42641871663E+03  0.00000000000E+00 0. -1.
          2    1    1    2  501    0 -0.99853335113E+02 -0.56507106549E+02 -0.28030836204E+03  0.30288037153E+03  0.00000000000E+00 0. -1.
<scales pt_clust_3="43.70882" pt_clust_4="30.41274" pt_clust_5="14000.00000" pt_clust_6="115.32938"></scales>
<clustering>
<clus scale="   30.413">  1  4  2 -1</clus>
<clus scale="   43.709">  1  3  2 -1</clus>
<clus scale="  115.329">  2  6  1 -1</clus>
<clus scale="   30.413">  1  3  2 -1</clus>
</clustering>
</event>
<event>
 6    0  0.3522959E+002  0.1433216E+03  0.7546771E-02  0.1208928E+00
         21   -1    0    0  505  502  0.00000000000E+00  0.00000000000E+00  0.47678311187E+03  0.47678311187E+03  0.00000000000E+00 0. -1.
          3   -1    0    0  504    0 -0.00000000000E+00 -0.00000000000E+00 -0.68906970321E+02  0.68906970321E+02  0.00000000000E+00 0. -1.
         21    1    1    2  503  502  0.63224010051E+02 -0.31700000532E+02  0.16370491546E+03  0.17832965213E+03  0.00000000000E+00 0.  1.
         21    1    1    2  504  503  0.54870995655E+02 -0.48866835731E+02  0.95858641436E+02  0.12077943921E+03  0.00000000000E+00 0. -1.
         21    1    1    2  505  501 -0.12482660585E+03  0.45932151980E+02  0.16122518374E+03  0.20900957870E+03  0.00000000000E+00 0. -1.
          3    1    1    2  501    0  0.67316001458E+01  0.34634684284E+02 -0.12912599094E+02  0.37571412155E+02  0.00000000000E+00 0. -1.
<scales pt_clust_3="40.54651" pt_clust_4="40.54651" pt_clust_5="137.42462" pt_clust_6="35.28280"></scales>
<clustering>
<clus scale="   35.283">  2  6  1 -1</clus>
<clus scale="   40.547">  3  4 -1 -1</clus>
<clus scale="  137.425">  2  5  1 -1</clus>
<clus scale="  143.322">  1  3  2 -1</clus>
</clustering>
</event>
<event>
 6    0  0.3522959E+002  0.1107939E+03  0.7546771E-02  0.1259107E+00
         -1   -1    0    0    0  501 -0.00000000000E+00  0.00000000000E+00  0.41295063278E+03  0.41295063278E+03  0.00000000000E+00 0. -1.
         21   -1    0    0  504  502  0.00000000000E+00 -0.00000000000E+00 -0.36164194228E+03  0.36164194228E+03  0.00000000000E+00 0. -1.
         21    1    1    2  503  505  0.43237244754E+02  0.63364341038E+02 -0.34604971514E+02  0.84154638034E+02  0.00000000000E+00 0. -1.
         21    1    1    2  504  503  0.58568719676E+01  0.50261544500E+02 -0.26013006567E+03  0.26500599403E+03  0.00000000000E+00 0. -1.
         21    1    1    2  505  501 -0.49837463669E+02  0.42537547114E+02  0.20423511514E+03  0.21448822335E+03  0.00000000000E+00 0. -1.
         -1    1    1    2    0  502  0.74334694777E+00 -0.15616343265E+03  0.14180861255E+03  0.21094371964E+03  0.00000000000E+00 0. -1.
<scales pt_clust_3="110.79389" pt_clust_4="50.60164" pt_clust_5="67.01585" pt_clust_6="14000.00000"></scales>
<clustering>
<clus scale="   50.602">  2  4  1 -1</clus>
<clus scale="   67.016">  1  5  2 -1</clus>
<clus scale="  110.794">  2  3  1 -1</clus>
<clus scale="   50.602">  2  3  1 -1</clus>
</clustering>
</event>
<event>
 6    0  0.3522959E+002  0.9580143E+02  0.7546771E-02  0.1289381E+00
         21   -1    0    0  504  502  0.00000000000E+00  0.00000000000E+00  0.66340341332E+03  0.66340341332E+03  0.00000000000E+00 0. -1.
          2   -1    0    0  505    0 -0.00000000000E+00 -0.00000000000E+00 -0.68936022034E+03  0.68936022034E+03  0.00000000000E+00 0. -1.
         21    1    1    2  503  502  0.10142532195E+03 -0.57122142447E+02  0.32239889220E+03  0.34276971976E+03  0.00000000000E+00 0. -1.
         21    1    1    2  504  501 -0.65207561982E+02 -0.30739284462E+02  0.31560405687E+03  0.32373268365E+03  0.00000000000E+00 0. -1.
         21    1    1    2  505  503 -0.78782457781E+02  0.97500520658E+02 -0.41547158408E+03  0.43396965834E+03  0.00000000000E+00 0. -1.
          2    1    1    2  501    0  0.42564697816E+02 -0.96390937495E+01 -0.24848817201E+03  0.25229157191E+03  0.00000000000E+00 0. -1.
<scales pt_clust_3="95.80143" pt_clust_4="71.77175" pt_clust_5="14000.00000" pt_clust_6="43.64248"></scales>
<clustering>
<clus scale="   43.642">  2  6  1 -1</clus>
<clus scale="   71.772">  1  4  2 -1</clus>
<clus scale="   95.801">  1  3  2 -1</clus>
<clus scale="   71.772">  1  3  2 -1</clus>
</clustering>
</event>
<event>
 6    0  0.3522959E+002  0.8211141E+02  0.7546771E-02  0.1323164E+00
          1   -1    0    0  505    0 -0.00000000000E+00  0.00000000000E+00  0.13199820195E+04  0.13199820195E+04  0.00000000000E+00 0. -1.
         21   -1    0    0  504  502  0.00000000000E+00 -0.00000000000E+00 -0.13043939241E+03  0.13043939241E+03  0.00000000000E+00 0.  1.
         21    1    1    2  503  502 -0.34834088766E+02 -0.20258645713E+01  0.25993527904E+02  0.43510703974E+02  0.00000000000E+00 0. -1.
         21    1    1    2  504  501 -0.44315332134E+02  0.15471161376E+02 -0.10780182299E+03  0.11757737256E+03  0.00000000000E+00 0.  1.
         21    1    1    2  505  503  0.12874676569E+03 -0.52264207626E+01  0.49967334190E+03  0.51601985791E+03  0.00000000000E+00 0. -1.
          1    1    1    2  501    0 -0.49597344785E+02 -0.82188760425E+01  0.77167758024E+03  0.77331347744E+03  0.00000000000E+00 0. -1.
<scales pt_clust_3="34.89295" pt_clust_4="14000.00000" pt_clust_5="82.11141" pt_clust_6="50.50696"></scales>
<clustering>
<clus scale="   34.893">  2  3  1 -1</clus>
<clus scale="   50.507">  1  6  2 -1</clus>
<clus scale="   82.111">  1  5  2 -1</clus>
<clus scale="   34.893">  2  3  1 -1</clus>
</clustering>
</event>
<event>
 6    0  0.3522959E+002  0.1143644E+03  0.7546771E-02  0.1252695E+00
         -1   -1    0    0    0  501 -0.00000000000E+00  0.00000000000E+00  0.69215124882E+03  0.69215124882E+03  0.00000000000E+00 0. -1.
         21   -1    0    0  503  502  0.00000000000E+00 -0.00000000000E+00 -0.48731638123E+02  0.48731638123E+02  0.00000000000E+00 0. -1.
         21    1    1    2  503  505  0.49171791010E+02  0.18220062909E+02  0.17225655272E+02  0.55195642247E+02  0.00000000000E+00 0. -1.
         21    1    1    2  504  502 -0.12569329890E+03 -0.80317629380E+02  0.37586505151E+03  0.40438133479E+03  0.00000000000E+00 0. -1.
         21    1    1    2  505  501  0.35758925638E+02  0.37229505136E+02  0.39127896984E+02  0.64774448186E+02  0.00000000000E+00 0. -1.
         -1    1    1    2    0  504  0.40762582257E+02  0.24868061335E+02  0.21120100692E+03  0.21653146171E+03  0.00000000000E+00 0. -1.
<scales pt_clust_3="30.24446" pt_clust_4="110.22701" pt_clust_5="30.24446" pt_clust_6="47.74944"></scales>
<clustering>
<clus scale="   30.244">  3  5 -1 -1</clus>
<clus scale="   47.749">  1  6  2 -1</clus>
<clus scale="  110.227">  1  4  2 -1</clus>
<clus scale="  114.364">  2  3  1 -1</clus>
</clustering>
</event>
<event>
 6    0  0.3522959E+002  0.3660349E+03  0.7546771E-02  0.1056220E+00
          2   -1    0    0  505    0 -0.00000000000E+00  0.00000000000E+00  0.13380813430E+04  0.13380813430E+04  0.00000000000E+00 0. -1.
         21   -1    0    0  504  502  0.00000000000E+00 -0.00000000000E+00 -0.18779076749E+03  0.18779076749E+03  0.00000000000E+00 0. -1.
         21    1    1    2  503  501 -0.76358413725E+01 -0.69766301497E+02 -0.68838781600E+01  0.70519718353E+02  0.00000000000E+00 0. -1.
         21    1    1    2  504  503 -0.27534050437E+02 -0.30099588655E+02 -0.33167088041E+02  0.52575325960E+02  0.00000000000E+00 0. -1.
         21    1    1    2  505  502  0.34979906621E+03 -0.10469073905E+03  0.63582736229E+03  0.73320936451E+03  0.00000000000E+00 0. -1.
          2    1    1    2  501    0 -0.31462917440E+03  0.20455662920E+03  0.55451417938E+03  0.66956770163E+03  0.00000000000E+00 0. -1.
<scales pt_clust_3="116.39721" pt_clust_4="36.86548" pt_clust_5="366.03485" pt_clust_6="14000.00000"></scales>
<clustering>
<clus scale="   36.865">  3  4 -1 -1</clus>
<clus scale="  116.397">  2  3  1 -1</clus>
<clus scale="  366.035">  1  5  2 -1</clus>
<clus scale="  116.397">  2  3  1 -1</clus>
</clustering>
</event>
<event>
 6    0  0.3522959E+002  0.1065597E+03  0.7546771E-02  0.1267077E+00
          2   -1    0    0  503    0 -0.00000000000E+00  0.00000000000E+00  0.31411037605E+04  0.31411037605E+04  0.00000000000E+00 0.  1.
         21   -1    0    0  504  502  0.00000000000E+00 -0.00000000000E+00 -0.15990951764E+02  0.15990951764E+02  0.00000000000E+00 0. -1.
         21    1    1    2  503  502  0.63331373781E+02  0.81250682128E+02  0.79222454000E+03  0.79889439729E+03  0.00000000000E+00 0. -1.
         21    1    1    2  504  505  0.15009354449E+02 -0.32583411275E+02  0.11854151667E+03  0.12385092081E+03  0.00000000000E+00 0. -1.
         21    1    1    2  505  501 -0.10584382194E+03 -0.35200361807E+02  0.30499537407E+03  0.32475245698E+03  0.00000000000E+00 0. -1.
          2    1    1    2  501    0  0.27503093710E+02 -0.13466909046E+02  0.19093513780E+04  0.19095969372E+04  0.00000000000E+00 0.  1.
<scales pt_clust_3="14000.00000" pt_clust_4="38.25756" pt_clust_5="106.55965" pt_clust_6="30.62316"></scales>
<clustering>
<clus scale="   30.623">  1  6  2 -1</clus>
<clus scale="   38.258">  2  4  1 -1</clus>
<clus scale="  106.560">  2  5  1 -1</clus>
<clus scale="   38.258">  2  3  1 -1</clus>
</clustering>
</event>
<event>
 6    0  0.3522959E+002  0.2344035E+03  0.7546771E-02  0.1123578E+00
         21   -1    0    0  503  502  0.00000000000E+00  0.00000000000E+00  0.25719832027E+03  0.25719832027E+03  0.00000000000E+00 0.  1.
          1   -1    0    0  504    0 -0.00000000000E+00 -0.00000000000E+00 -0.19074787213E+04  0.19074787213E+04  0.00000000000E+00 0.  1.
         21    1    1    2  503  505  0.17451809658E+02 -0.24134261866E+03  0.16925299163E+03  0.29529205953E+03  0.00000000000E+00 0.  1.
         21    1    1    2  504  502 -0.43805169895E+02  0.38201827844E+02 -0.43906964870E+03  0.44290002141E+03  0.00000000000E+00 0. -1.
         21    1    1    2  505  501 -0.30830787562E+02  0.18487506498E+03 -0.37499871607E+03  0.41922948866E+03  0.00000000000E+00 0.  1.
          1    1    1    2  501    0  0.57184147799E+02  0.18265725842E+02 -0.10054650279E+04  0.10072554720E+04  0.00000000000E+00 0.  1.
<scales pt_clust_3="14000.00000" pt_clust_4="58.12291" pt_clust_5="234.40346" pt_clust_6="52.09855"></scales>
<clustering>
<clus scale="   58.123">  2  4  1 -1</clus>
<clus scale="   52.099">  2  6  1 -1</clus>
<clus scale="  234.403">  2  5  1 -1</clus>
<clus scale="  234.403">  1  3  2 -1</clus>
</clustering>
</event>
<event>
 6    0  0.3522959E+002  0.1210876E+03  0.7546771E-02  0.1241314E+00
         21   -1    0    0  501  502  0.00000000000E+00  0.00000000000E+00  0.44618599920E+02  0.44618599920E+02  0.00000000000E+00 0.  1.
          2   -1    0    0  505    0 -0.00000000000E+00 -0.00000000000E+00 -0.17994275190E+04  0.17994275190E+04  0.00000000000E+00 0. -1.
         21    1    1    2  503  502 -0.30015537024E+02 -0.13246664715E+02  0.31625116598E+01  0.32960704921E+02  0.00000000000E+00 0.  1.
         21    1    1    2  504  503 -0.44279624704E+01  0.10310017669E+03 -0.31634156867E+03  0.33274801480E+03  0.00000000000E+00 0.  1.
         21    1    1    2  505  504 -0.91912504986E+02 -0.57493542548E+02 -0.18104911012E+03  0.21102652981E+03  0.00000000000E+00 0.  1.
          2    1    1    2  501    0  0.12635600448E+03 -0.32359969425E+02 -0.12605807520E+04  0.12673108694E+04  0.00000000000E+00 0. -1.
<scales pt_clust_3="32.80864" pt_clust_4="99.95168" pt_clust_5="121.08756" pt_clust_6="14000.00000"></scales>
<clustering>
<clus scale="   32.809">  1  3  2 -1</clus>
<clus scale="   99.952">  1  4  2 -1</clus>
<clus scale="  121.088">  1  5  2 -1</clus>
<clus scale="   32.809">  1  3  2 -1</clus>
</clustering>
</event>
<event>
 6    0  0.3522959E+002  0.9534781E+02  0.7546771E-02  0.1290395E+00
         21   -1    0    0  503  502  0.00000000000E+00  0.00000000000E+00  0.19907657423E+03  0.19907657423E+03  0.00000000000E+00 0. -1.
          2   -1    0    0  505    0 -0.00000000000E+00 -0.00000000000E+00 -0.11761873169E+04  0.11761873169E+04  0.00000000000E+00 0. -1.
         21    1    1    2  503  501  0.65855594799E+02  0.70382570033E+02 -0.33838299160E+03  0.35184330963E+03  0.00000000000E+00 0.  1.
         21    1    1    2  504  502 -0.49691983631E+02 -0.81414643543E+02  0.16058775521E+03  0.18677811581E+03  0.00000000000E+00 0. -1.
         21    1    1    2  505  504 -0.51747514822E+02  0.22250901863E+02 -0.25336089075E+02  0.61764272307E+02  0.00000000000E+00 0.  1.
          2    1    1    2  501    0  0.35583903654E+02 -0.11218828354E+02 -0.77397941722E+03  0.77487819339E+03  0.00000000000E+00 0. -1.
<scales pt_clust_3="95.34781" pt_clust_4="14000.00000" pt_clust_5="52.30621" pt_clust_6="37.31054"></scales>
<clustering>
<clus scale="   37.311">  2  6  1 -1</clus>
<clus scale="   52.306">  2  5  1 -1</clus>
<clus scale="   95.348">  2  3  1 -1</clus>
<clus scale="   95.348">  1  3  2 -1</clus>
</clustering>
</event>
<event>
 6    0  0.3522959E+002  0.1756166E+03  0.7546771E-02  0.1172114E+00
         -4   -1    0    0    0  501 -0.00000000000E+00  0.00000000000E+00  0.18839808512E+04  0.18839808512E+04  0.00000000000E+00 0. -1.
         21   -1    0    0  501  502  0.00000000000E+00 -0.00000000000E+00 -0.91825177649E+03  0.91825177649E+03  0.00000000000E+00 0.  1.
         21    1    1    2  503  505 -0.10502285526E+03 -0.80257136797E+02  0.14637887423E+03  0.19722520872E+03  0.00000000000E+00 0.  1.
         21    1    1    2  504  502 -0.24076081732E+02  0.42987455933E+02 -0.10628990431E+03  0.11715426940E+03  0.00000000000E+00 0. -1.
         21    1    1    2  505  504  0.74798771299E+02  0.13315690088E+03 -0.77183735100E+03  0.78680271532E+03  0.00000000000E+00 0.  1.
         -4    1    1    2    0  503  0.54300165696E+02 -0.95887220017E+02  0.16974774558E+04  0.17010504342E+04  0.00000000000E+00 0. -1.
<scales pt_clust_3="175.61664" pt_clust_4="49.27047" pt_clust_5="14000.00000" pt_clust_6="110.08554"></scales>
<clustering>
<clus scale="   49.270">  2  4  1 -1</clus>
<clus scale="  110.086">  1  6  2 -1</clus>
<clus scale="  175.617">  1  3  2 -1</clus>
<clus scale="   49.270">  2  3  1 -1</clus>
</clustering>
</event>
<event>
 6    0  0.3522959E+002  0.8811048E+02  0.7546771E-02  0.1307493E+00
         21   -1    0    0  503  502  0.00000000000E+00  0.00000000000E+00  0.79506121273E+02  0.79506121273E+02  0.00000000000E+00 0.  1.
          2   -1    0    0  504    0 -0.00000000000E+00 -0.00000000000E+00 -0.28547398752E+04  0.28547398752E+04  0.00000000000E+00 0.  1.
         21    1    1    2  503  501  0.10009488079E+03 -0.99333773252E+02 -0.58386195344E+03  0.60065045104E+03  0.00000000000E+00 0.  1.
         21    1    1    2  504  505 -0.53906129660E+02  0.43152806009E+02 -0.44304585165E+02  0.82042255868E+02  0.00000000000E+00 0.  1.
         21    1    1    2  505  502  0.30794531803E+02  0.44344631322E+02  0.37413157369E+02  0.65684806922E+02  0.00000000000E+00 0.  1.
          2    1    1    2  501    0 -0.76983282931E+02  0.11836335921E+02 -0.21844803727E+04  0.21858684826E+04  0.00000000000E+00 0.  1.
<scales pt_clust_3="14000.00000" pt_clust_4="88.11048" pt_clust_5="53.98842" pt_clust_6="77.30896"></scales>
<clustering>
<clus scale="   53.988">  1  5  2 -1</clus>
<clus scale="   77.309">  2  6  1 -1</clus>
<clus scale="   88.110">  1  4  2 -1</clus>
<clus scale="   53.988">  1  3  2 -1</clus>
</clustering>
</event>
<event>
 6    0  0.3522959E+002  0.2592168E+03  0.7546771E-02  0.1107615E+00
         21   -1    0    0  501  502  0.00000000000E+00  0.00000000000E+00  0.22211433843E+03  0.22211433843E+03  0.00000000000E+00 0. -1.
          1   -1    0    0  504    0 -0.00000000000E+00 -0.00000000000E+00 -0.69944704850E+03  0.69944704850E+03  0.00000000000E+00 0. -1.
         21    1    1    2  503  505 -0.15827573267E+03 -0.83671417117E+02  0.76174603915E+02  0.19456280188E+03  0.00000000000E+00 0. -1.
         21    1    1    2  504  503  0.22560190919E+03  0.11694381500E+03 -0.38017072088E+03  0.45727656217E+03  0.00000000000E+00 0. -1.
         21    1    1    2  505  502 -0.45670190261E+02 -0.63829284491E+02  0.13090997388E+02  0.79569579927E+02  0.00000000000E+00 0. -1.
          1    1    1    2  501    0 -0.21655986264E+02  0.30556886613E+02 -0.18642759050E+03  0.19015244295E+03  0.00000000000E+00 0. -1.
<scales pt_clust_3="40.70567" pt_clust_4="251.72114" pt_clust_5="40.70567" pt_clust_6="37.45270"></scales>
<clustering>
<clus scale="   37.453">  2  6  1 -1</clus>
<clus scale="   40.706">  3  5 -1 -1</clus>
<clus scale="  251.721">  2  4  1 -1</clus>
<clus scale="  259.217">  1  3  2 -1</clus>
</clustering>
</event>
<event>
 6    0  0.3522959E+002  0.7571624E+02  0.7546771E-02  0.1341667E+00
         21   -1    0    0  504  502  0.00000000000E+00  0.00000000000E+00  0.23105628657E+04  0.23105628657E+04  0.00000000000E+00 0.  1.
          1   -1    0    0  503    0 -0.00000000000E+00 -0.00000000000E+00 -0.77822814083E+02  0.77822814083E+02  0.00000000000E+00 0.  1.
         21    1    1    2  503  505 -0.44334009962E+02  0.75157746986E+02  0.18582794779E+03  0.20529543967E+03  0.00000000000E+00 0.  1.
         21    1    1    2  504  501 -0.45728540077E+02 -0.23098172345E+01  0.19370462295E+04  0.19375872960E+04  0.00000000000E+00 0.  1.
         21    1    1    2  505  502  0.49542137182E+02 -0.10401994744E+02  0.15183149728E+03  0.16004820654E+03  0.00000000000E+00 0.  1.
          1    1    1    2  501    0  0.40520412857E+02 -0.62445935007E+02 -0.41965622935E+02  0.85454737524E+02  0.00000000000E+00 0.  1.
<scales pt_clust_3="75.71624" pt_clust_4="45.78684" pt_clust_5="32.49035" pt_clust_6="14000.00000"></scales>
<clustering>
<clus scale="   45.787">  1  4  2 -1</clus>
<clus scale="   32.490">  1  5  2 -1</clus>
<clus scale="   75.716">  1  3  2 -1</clus>
<clus scale="   45.787">  1  3  2 -1</clus>
</clustering>
</event>
<event>
 6    0  0.3522959E+002  0.2008688E+03  0.7546771E-02  0.1149008E+00
          1   -1    0    0  504    0 -0.00000000000E+00  0.00000000000E+00  0.34572707071E+03  0.34572707071E+03  0.00000000000E+00 0. -1.
         21   -1    0    0  501  502  0.00000000000E+00 -0.00000000000E+00 -0.65877973389E+03  0.65877973389E+03  0.00000000000E+00 0. -1.
         21    1    1    2  503  502  0.29590946575E+02 -0.77445081441E+02 -0.18910656791E+03  0.20648161852E+03  0.00000000000E+00 0. -1.
         21    1    1    2  504  505 -0.19527990077E+02  0.19275892192E+03  0.28283909854E+03  0.34283421656E+03  0.00000000000E+00 0. -1.
         21    1    1    2  505  503 -0.16968015054E+01 -0.15900426532E+03 -0.33333515368E+03  0.36932040318E+03  0.00000000000E+00 0. -1.
          1    1    1    2  501    0 -0.83661549921E+01  0.43690424833E+02 -0.73450040125E+02  0.85870566354E+02  0.00000000000E+00 0. -1.
<scales pt_clust_3="31.60825" pt_clust_4="196.04093" pt_clust_5="31.60825" pt_clust_6="44.48422"></scales>
<clustering>
<clus scale="   31.608">  3  5 -1 -1</clus>
<clus scale="   44.484">  2  6  1 -1</clus>
<clus scale="  196.041">  1  4  2 -1</clus>
<clus scale="   44.484">  2  3  1 -1</clus>
</clustering>
</event>
<event>
 6    0  0.3522959E+002  0.1769189E+03  0.7546771E-02  0.1170819E+00
         21   -1    0    0  505  502  0.00000000000E+00  0.00000000000E+00  0.38990364508E+03  0.38990364508E+03  0.00000000000E+00 0.  1.
          2   -1    0    0  504    0 -0.00000000000E+00 -0.00000000000E+00 -0.12691002156E+04  0.12691002156E+04  0.00000000000E+00 0.  1.
         21    1    1    2  503  502  0.14273279303E+02 -0.81729660394E+02  0.21054524549E+03  0.22630237359E+03  0.00000000000E+00 0.  1.
         21    1    1    2  504  503  0.51391347920E+01 -0.91834466488E+02  0.14845300985E+03  0.17463755631E+03  0.00000000000E+00 0.  1.
         21    1    1    2  505  501  0.15563089709E+02  0.13514627792E+03 -0.50412194370E+03  0.52215482409E+03  0.00000000000E+00 0.  1.
          2    1    1    2  501    0 -0.34975503803E+02  0.38417848959E+02 -0.73407288214E+03  0.73590910667E+03  0.00000000000E+00 0.  1.
<scales pt_clust_3="35.17581" pt_clust_4="35.17581" pt_clust_5="172.99879" pt_clust_6="51.95399"></scales>
<clustering>
<clus scale="   35.176">  3  4 -1 -1</clus>
<clus scale="   51.954">  2  6  1 -1</clus>
<clus scale="  172.999">  2  5  1 -1</clus>
<clus scale="  176.919">  1  3  2 -1</clus>
</clustering>
</event>
<event>
 6    0  0.3522959E+002  0.8496493E+02  0.7546771E-02  0.1315524E+00
         21   -1    0    0  505  502  0.00000000000E+00  0.00000000000E+00  0.26614173909E+04  0.26614173909E+04  0.00000000000E+00 0.  1.
          3   -1    0    0  503    0 -0.00000000000E+00 -0.00000000000E+00 -0.33039084666E+02  0.33039084666E+02  0.00000000000E+00 0. -1.
         21    1    1    2  503  504  0.59337296070E+02 -0.36036945745E+02  0.47828122406E+03  0.48329339479E+03  0.00000000000E+00 0.  1.
         21    1    1    2  504  502  0.26419739811E+02  0.17350224704E+02  0.55820560988E+03  0.55909975483E+03  0.00000000000E+00 0.  1.
         21    1    1    2  505  501 -0.11721012917E+03 -0.26749080599E+02  0.15922693888E+04  0.15968016578E+04  0.00000000000E+00 0.  1.
          3    1    1    2  501    0  0.31453093293E+02  0.45435801640E+02 -0.37791652168E+00  0.55261668173E+02  0.00000000000E+00 0. -1.
<scales pt_clust_3="14000.00000" pt_clust_4="31.60748" pt_clust_5="84.96493" pt_clust_6="55.64301"></scales>
<clustering>
<clus scale="   31.607">  1  4  2 -1</clus>
<clus scale="   55.643">  2  6  1 -1</clus>
<clus scale="   84.965">  1  5  2 -1</clus>
<clus scale="   31.607">  1  3  2 -1</clus>
</clustering>
</event>
<event>
 6    0  0.3522959E+002  0.2093187E+03  0.7546771E-02  0.1142107E+00
          1   -1    0    0  505    0 -0.00000000000E+00  0.00000000000E+00  0.19915983879E+04  0.19915983879E+04  0.00000000000E+00 0.  1.
         21   -1    0    0  503  502  0.00000000000E+00 -0.00000000000E+00 -0.38632428925E+02  0.38632428925E+02  0.00000000000E+00 0.  1.
         21    1    1    2  503  501  0.21097215317E+03  0.64063673598E+02  0.73189668543E+03  0.76438613398E+03  0.00000000000E+00 0.  1.
         21    1    1    2  504  502 -0.88418112160E+02 -0.58655665758E+02  0.22766010319E+03  0.25117199738E+03  0.00000000000E+00 0.  1.
         21    1    1    2  505  504 -0.65998396267E+02 -0.71657689812E+02  0.29079420551E+03  0.30667879415E+03  0.00000000000E+00 0.  1.
          1    1    1    2  501    0 -0.56555644746E+02  0.66249681973E+02  0.70261496485E+03  0.70799389132E+03  0.00000000000E+00 0.  1.
<scales pt_clust_3="205.51820" pt_clust_4="38.04675" pt_clust_5="38.04675" pt_clust_6="87.10661"></scales>
<clustering>
<clus scale="   38.047">  4  5 -1 -1</clus>
<clus scale="   87.107">  1  6  2 -1</clus>
<clus scale="  205.518">  1  3  2 -1</clus>
<clus scale="  209.319">  2  3  1 -1</clus>
</clustering>
</event>
<event>
 6    0  0.3522959E+002  0.1005787E+03  0.7546771E-02  0.1279084E+00
          2   -1    0    0  504    0 -0.00000000000E+00  0.00000000000E+00  0.29659822982E+03  0.29659822982E+03  0.00000000000E+00 0.  1.
         21   -1    0    0  505  502  0.00000000000E+00 -0.00000000000E+00 -0.11227640793E+03  0.11227640793E+03  0.00000000000E+00 0. -1.
         21    1    1    2  503  502  0.10119368782E+02  0.36814307003E+02 -0.25733599330E+02  0.46042512519E+02  0.00000000000E+00 0. -1.
         21    1    1    2  504  503 -0.12395908552E+03 -0.41009865320E+02  0.45990286243E+02  0.13842965855E+03  0.00000000000E+00 0. -1.
         21    1    1    2  505  501  0.24334665223E+02 -0.20518394049E+02 -0.43101424628E+01  0.32120986191E+02  0.00000000000E+00 0. -1.
          2    1    1    2  501    0  0.89505051515E+02  0.24713952366E+02  0.16837527744E+03  0.19228148050E+03  0.00000000000E+00 0.  1.
<scales pt_clust_3="34.88105" pt_clust_4="14000.00000" pt_clust_5="31.83050" pt_clust_6="100.57866"></scales>
<clustering>
<clus scale="   31.830">  2  5  1 -1</clus>
<clus scale="   34.881">  2  3  1 -1</clus>
<clus scale="  100.579">  1  6  2 -1</clus>
<clus scale="   31.830">  2  3  1 -1</clus>
</clustering>
</event>
<event>
 6    0  0.3522959E+002  0.1019659E+03  0.7546771E-02  0.1276215E+00
         21   -1    0    0  505  502  0.00000000000E+00  0.00000000000E+00  0.15624818948E+04  0.15624818948E+04  0.00000000000E+00 0.  1.
          3   -1    0    0  503    0 -0.00000000000E+00 -0.00000000000E+00 -0.54781917714E+02  0.54781917714E+02  0.00000000000E+00 0.  1.
         21    1    1    2  503  502 -0.15969777383E+02  0.11302328809E+03  0.36509410921E+03  0.38252190266E+03  0.00000000000E+00 0.  1.
         21    1    1    2  504  501  0.50644055907E+02 -0.94597425223E+02  0.90450441095E+03  0.91084670647E+03  0.00000000000E+00 0.  1.
         21    1    1    2  505  504  0.21102603129E+02  0.25446334962E+02  0.24979643601E+03  0.25197439407E+03  0.00000000000E+00 0.  1.
          3    1    1    2  501    0 -0.55776881653E+02 -0.43872197834E+02 -0.11694979122E+02  0.71920809272E+02  0.00000000000E+00 0.  1.
<scales pt_clust_3="14000.00000" pt_clust_4="101.96590" pt_clust_5="33.05807" pt_clust_6="70.22177"></scales>
<clustering>
<clus scale="   33.058">  1  5  2 -1</clus>
<clus scale="   70.222">  2  6  1 -1</clus>
<clus scale="  101.966">  1  4  2 -1</clus>
<clus scale="   33.058">  1  3  2 -1</clus>
</clustering>
</event>
<event>
 6    0  0.3522959E+002  0.1825168E+03  0.7546771E-02  0.1165389E+00
         -1   -1    0    0    0  501 -0.00000000000E+00  0.00000000000E+00  0.23717418636E+03  0.23717418636E+03  0.00000000000E+00 0.  1.
         21   -1    0    0  504  502  0.00000000000E+00 -0.00000000000E+00 -0.21297642402E+04  0.21297642402E+04  0.00000000000E+00 0.  1.
         21    1    1    2  503  501 -0.11592487506E+03 -0.30921161518E+02  0.96945216155E+02  0.15425002374E+03  0.00000000000E+00 0.  1.
         21    1    1    2  504  503  0.18261826959E+03 -0.29823588764E+02 -0.19658286795E+04  0.19745179857E+04  0.00000000000E+00 0.  1.
         21    1    1    2  505  502 -0.85297080521E+02  0.32470127228E+02 -0.11149297939E+03  0.14408534125E+03  0.00000000000E+00 0. -1.
         -1    1    1    2    0  505  0.18603685987E+02  0.28274623053E+02  0.87786388843E+02  0.94085075900E+02  0.00000000000E+00 0.  1.
<scales pt_clust_3="182.51681" pt_clust_4="14000.00000" pt_clust_5="90.52668" pt_clust_6="33.84600"></scales>
<clustering>
<clus scale="   33.846">  1  6  2 -1</clus>
<clus scale="   90.527">  1  5  2 -1</clus>
<clus scale="  182.517">  1  3  2 -1</clus>
<clus scale="  182.517">  2  3  1 -1</clus>
</clustering>
</event>
<event>
 6    0  0.3522959E+002  0.2251837E+03  0.7546771E-02  0.1130076E+00
          2   -1    0    0  503    0 -0.00000000000E+00  0.00000000000E+00  0.15527810302E+03  0.15527810302E+03  0.00000000000E+00 0.  1.
         21   -1    0    0  504  502  0.00000000000E+00 -0.00000000000E+00 -0.15039082236E+04  0.15039082236E+04  0.00000000000E+00 0. -1.
         21    1    1    2  503  502 -0.92553003906E+02  0.21699508024E+03 -0.40463141498E+03  0.46837965943E+03  0.00000000000E+00 0.  1.
         21    1    1    2  504  505  0.46794486957E+02 -0.88245819579E+02 -0.63311356752E+03  0.64094448907E+03  0.00000000000E+00 0. -1.
         21    1    1    2  505  501  0.20426516725E+02 -0.10998683142E+03 -0.42085201315E+03  0.43546614408E+03  0.00000000000E+00 0. -1.
          2    1    1    2  501    0  0.25332000224E+02 -0.18762429245E+02  0.10996687509E+03  0.11439603403E+03  0.00000000000E+00 0.  1.
<scales pt_clust_3="216.11603" pt_clust_4="59.49825" pt_clust_5="59.49825" pt_clust_6="31.52363"></scales>
<clustering>
<clus scale="   31.524">  1  6  2 -1</clus>
<clus scale="   59.498">  4  5 -1 -1</clus>
<clus scale="  216.116">  1  3  2 -1</clus>
<clus scale="  225.184">  2  3  1 -1</clus>
</clustering>
</event>
<event>
 6    0  0.3522959E+002  0.1122458E+03  0.7546771E-02  0.1256467E+00
         21   -1    0    0  503  502  0.00000000000E+00  0.00000000000E+00  0.47465930492E+02  0.47465930492E+02  0.00000000000E+00 0. -1.
          1   -1    0    0  504    0 -0.00000000000E+00 -0.00000000000E+00 -0.15077394133E+04  0.15077394133E+04  0.00000000000E+00 0.  1.
         21    1    1    2  503  505 -0.55326135023E+02 -0.35055449301E+02 -0.19574012016E+03  0.20640751048E+03  0.00000000000E+00 0. -1.
         21    1    1    2  504  502  0.12345024786E+03  0.71167261863E+02 -0.90929913284E+02  0.16903547553E+03  0.00000000000E+00 0. -1.
         21    1    1    2  505  501 -0.20454982710E+02 -0.58680551993E+02 -0.45471195024E+03  0.45893874449E+03  0.00000000000E+00 0. -1.
          1    1    1    2  501    0 -0.47669130131E+02  0.22568739431E+02 -0.71889149908E+03  0.72082361325E+03  0.00000000000E+00 0.  1.
<scales pt_clust_3="112.24580" pt_clust_4="14000.00000" pt_clust_5="66.27177" pt_clust_6="52.74177"></scales>
<clustering>
<clus scale="   52.742">  2  6  1 -1</clus>
<clus scale="   66.272">  2  5  1 -1</clus>
<clus scale="  112.246">  2  3  1 -1</clus>
<clus scale="  112.246">  1  3  2 -1</clus>
</clustering>
</event>
<event>
 6    0  0.3522959E+002  0.1500146E+03  0.7546771E-02  0.1200455E+00
          3   -1    0    0  505    0 -0.00000000000E+00  0.00000000000E+00  0.45276249265E+03  0.45276249265E+03  0.00000000000E+00 0.  1.
         21   -1    0    0  503  502  0.00000000000E+00 -0.00000000000E+00 -0.82989460528E+03  0.82989460528E+03  0.00000000000E+00 0.  1.
         21    1    1    2  503  501 -0.10306784126E+03  0.15988686466E+03 -0.71724810186E+03  0.74204557072E+03  0.00000000000E+00 0.  1.
         21    1    1    2  504  502 -0.62290407930E+01 -0.44189558692E+02 -0.63958873205E+02  0.77988816558E+02  0.00000000000E+00 0.  1.
         21    1    1    2  505  504  0.39011173196E+02 -0.54114511813E+02  0.34649745094E+03  0.35286078775E+03  0.00000000000E+00 0.  1.
          3    1    1    2  501    0  0.70285708862E+02 -0.61582794156E+02  0.57577411502E+02  0.10976192291E+03  0.00000000000E+00 0.  1.
<scales pt_clust_3="150.01455" pt_clust_4="44.62643" pt_clust_5="66.84534" pt_clust_6="14000.00000"></scales>
<clustering>
<clus scale="   44.626">  2  4  1 -1</clus>
<clus scale="   66.845">  1  5  2 -1</clus>
<clus scale="  150.015">  2  3  1 -1</clus>
<clus scale="   44.626">  2  3  1 -1</clus>
</clustering>
</event>
<event>
 6    0  0.3522959E+002  0.7357364E+02  0.7546771E-02  0.1348346E+00
         21   -1    0    0  504  502  0.00000000000E+00  0.00000000000E+00  0.36567103878E+02  0.36567103878E+02  0.00000000000E+00 0. -1.
          2   -1    0    0  503    0 -0.00000000000E+00 -0.00000000000E+00 -0.11791603891E+04  0.11791603891E+04  0.00000000000E+00 0.  1.
         21    1    1    2  503  505 -0.62178090915E+02  0.38196741489E+02 -0.76609379070E+03  0.76956143498E+03  0.00000000000E+00 0.  1.
         21    1    1    2  504  501  0.29788615975E+02 -0.43682266907E+02 -0.67782694809E+02  0.85965084770E+02  0.00000000000E+00 0.  1.
         21    1    1    2  505  502 -0.47483921283E+02  0.16145623524E+02 -0.10437212960E+02  0.51228306177E+02  0.00000000000E+00 0. -1.
          2    1    1    2  501    0  0.79873396223E+02 -0.10660098106E+02 -0.29827958677E+03  0.30897266708E+03  0.00000000000E+00 0.  1.
<scales pt_clust_3="73.57364" pt_clust_4="34.74373" pt_clust_5="50.15380" pt_clust_6="14000.00000"></scales>
<clustering>
<clus scale="   50.154">  1  5  2 -1</clus>
<clus scale="   34.744">  1  4  2 -1</clus>
<clus scale="   73.574">  2  3  1 -1</clus>
<clus scale="   50.154">  1  3  2 -1</clus>
</clustering>
</event>
<event>
 6    0  0.3522959E+002  0.3307199E+03  0.7546771E-02  0.1070819E+00
          2   -1    0    0  503    0 -0.00000000000E+00  0.00000000000E+00  0.33545728754E+04  0.33545728754E+04  0.00000000000E+00 0. -1.
         21   -1    0    0  504  502  0.00000000000E+00 -0.00000000000E+00 -0.25585361407E+03  0.25585361407E+03  0.00000000000E+00 0.  1.
         21    1    1    2  503  502 -0.11907830959E+03  0.33039314055E+03 -0.10173802445E+03  0.36563629026E+03  0.00000000000E+00 0.  1.
         21    1    1    2  504  505  0.53392031219E+02 -0.27020033687E+02  0.52397210697E+02  0.79537782889E+02  0.00000000000E+00 0. -1.
         21    1    1    2  505  501  0.31259390153E+02 -0.24888667180E+03  0.20477680188E+04  0.20630743039E+04  0.00000000000E+00 0. -1.
          2    1    1    2  501    0  0.34426888222E+02 -0.54486435059E+02  0.11002920563E+04  0.11021781124E+04  0.00000000000E+00 0. -1.
<scales pt_clust_3="311.74504" pt_clust_4="59.83971" pt_clust_5="55.96677" pt_clust_6="55.96677"></scales>
<clustering>
<clus scale="   55.967">  5  6 -1 -1</clus>
<clus scale="   59.840">  2  4  1 -1</clus>
<clus scale="  311.745">  2  3  1 -1</clus>
<clus scale="   59.840">  2  3  1 -1</clus>
</clustering>
</event>
<event>
 6    0  0.3522959E+002  0.1496259E+03  0.7546771E-02  0.1200933E+00
          1   -1    0    0  503    0 -0.00000000000E+00  0.00000000000E+00  0.26478687005E+03  0.26478687005E+03  0.00000000000E+00 0.  1.
         21   -1    0    0  505  502  0.00000000000E+00 -0.00000000000E+00 -0.23797552213E+03  0.23797552213E+03  0.00000000000E+00 0.  1.
         21    1    1    2  503  502  0.66835925959E+02  0.10137934326E+03 -0.25030275596E+02  0.12398115556E+03  0.00000000000E+00 0.  1.
         21    1    1    2  504  501 -0.39138071344E+02  0.13464574384E+02 -0.18439518390E+02  0.45311138038E+02  0.00000000000E+00 0.  1.
         21    1    1    2  505  504 -0.96800727716E+02 -0.77320982408E+02 -0.91215096574E+02  0.15384768133E+03  0.00000000000E+00 0.  1.
          1    1    1    2  501    0  0.69102873101E+02 -0.37522935234E+02  0.16149623847E+03  0.17962241726E+03  0.00000000000E+00 0.  1.
<scales pt_clust_3="131.54769" pt_clust_4="41.20877" pt_clust_5="41.20877" pt_clust_6="78.63318"></scales>
<clustering>
<clus scale="   41.209">  4  5 -1 -1</clus>
<clus scale="   78.633">  1  6  2 -1</clus>
<clus scale="  131.548">  1  3  2 -1</clus>
<clus scale="  149.626">  2  3  1 -1</clus>
</clustering>
</event>
<event>
 6    0  0.3522959E+002  0.7291282E+02  0.7546771E-02  0.1350459E+00
         21   -1    0    0  503  502  0.00000000000E+00  0.00000000000E+00  0.14889542159E+03  0.14889542159E+03  0.00000000000E+00 0. -1.
          2   -1    0    0  504    0 -0.00000000000E+00 -0.00000000000E+00 -0.25087229855E+04  0.25087229855E+04  0.00000000000E+00 0. -1.
         21    1    1    2  503  501  0.24211737489E+02 -0.56362200404E+02  0.12431544558E+03  0.13862624526E+03  0.00000000000E+00 0. -1.
         21    1    1    2  504  505 -0.11206423599E+03 -0.15359412481E+02 -0.69747314976E+03  0.70658552149E+03  0.00000000000E+00 0. -1.
         21    1    1    2  505  502  0.24283467722E+02  0.49280676987E+02 -0.49561383381E+02  0.73990557854E+02  0.00000000000E+00 0. -1.
          2    1    1    2  501    0  0.63569030776E+02  0.22440935899E+02 -0.17371084763E+04  0.17384160825E+04  0.00000000000E+00 0. -1.
<scales pt_clust_3="48.40605" pt_clust_4="72.91282" pt_clust_5="54.93880" pt_clust_6="14000.00000"></scales>
<clustering>
<clus scale="   54.939">  1  5  2 -1</clus>
<clus scale="   48.406">  1  3  2 -1</clus>
<clus scale="   72.913">  1  4  2 -1</clus>
<clus scale="   54.939">  1  3  2 -1</clus>
</clustering>
</event>
<event>
 6    0  0.3522959E+002  0.9178954E+02  0.7546771E-02  0.1298575E+00
          2   -1    0    0  505    0 -0.00000000000E+00  0.00000000000E+00  0.36462617949E+03  0.36462617949E+03  0.00000000000E+00 0. -1.
         21   -1    0    0  501  502  0.00000000000E+00 -0.00000000000E+00 -0.61079704568E+03  0.61079704568E+03  0.00000000000E+00 0. -1.
         21    1    1    2  503  504  0.27529245232E+02 -0.17075706194E+02 -0.23366421307E+03  0.23589913852E+03  0.00000000000E+00 0. -1.
         21    1    1    2  504  502  0.55322336710E+02  0.21737105357E+02 -0.33102229402E+03  0.33631655004E+03  0.00000000000E+00 0. -1.
         21    1    1    2  505  503 -0.57607504865E+02 -0.90093159792E+02  0.45837156699E+02  0.11634623755E+03  0.00000000000E+00 0. -1.
          2    1    1    2  501    0 -0.25244077078E+02  0.85431760630E+02  0.27267848420E+03  0.28686129906E+03  0.00000000000E+00 0. -1.
<scales pt_clust_3="30.20349" pt_clust_4="30.20349" pt_clust_5="82.16745" pt_clust_6="89.08338"></scales>
<clustering>
<clus scale="   30.203">  3  4 -1 -1</clus>
<clus scale="   89.083">  1  6  2 -1</clus>
<clus scale="   82.167">  1  5  2 -1</clus>
<clus scale="   91.790">  2  3  1 -1</clus>
</clustering>
</event>
<event>
 6    0  0.3522959E+002  0.1157774E+03  0.7546771E-02  0.1250230E+00
         21   -1    0    0  501  502  0.00000000000E+00  0.00000000000E+00  0.42738074681E+02  0.42738074681E+02  0.00000000000E+00 0. -1.
          2   -1    0    0  503    0 -0.00000000000E+00 -0.00000000000E+00 -0.15398102365E+04  0.15398102365E+04  0.00000000000E+00 0.  1.
         21    1    1    2  503  504  0.32055408348E+02 -0.51643911007E+02 -0.26862152316E+03  0.27541271839E+03  0.00000000000E+00 0.  1.
         21    1    1    2  504  505 -0.20518813737E+02  0.14485719024E+03 -0.18648549387E+03  0.23702629960E+03  0.00000000000E+00 0. -1.
         21    1    1    2  505  502 -0.13697933512E+02 -0.29104992660E+02 -0.66984554009E+01  0.32857317069E+02  0.00000000000E+00 0. -1.
          2    1    1    2  501    0  0.21613389009E+01 -0.64108286571E+02 -0.10352666893E+04  0.10372519761E+04  0.00000000000E+00 0.  1.
<scales pt_clust_3="62.86366" pt_clust_4="115.77740" pt_clust_5="32.16728" pt_clust_6="14000.00000"></scales>
<clustering>
<clus scale="   32.167">  1  5  2 -1</clus>
<clus scale="   62.864">  2  3  1 -1</clus>
<clus scale="  115.777">  1  4  2 -1</clus>
<clus scale="   32.167">  1  3  2 -1</clus>
</clustering>
</event>
<event>
 6    0  0.3522959E+002  0.2529972E+03  0.7546771E-02  0.1111425E+00
         21   -1    0    0  504  502  0.00000000000E+00  0.00000000000E+00  0.12647760424E+04  0.12647760424E+04  0.00000000000E+00 0. -1.
          1   -1    0    0  505    0 -0.00000000000E+00 -0.00000000000E+00 -0.30041002928E+04  0.30041002928E+04  0.00000000000E+00 0.  1.
         21    1    1    2  503  502  0.17955777176E+03 -0.39175496557E+02  0.98981947304E+03  0.10067364611E+04  0.00000000000E+00 0. -1.
         21    1    1    2  504  501 -0.43236685341E+03  0.18382447757E+03 -0.20558983278E+03  0.51283497719E+03  0.00000000000E+00 0. -1.
         21    1    1    2  505  503  0.38899591487E+02 -0.25119622183E+02  0.10216918340E+03  0.11217270467E+03  0.00000000000E+00 0. -1.
          1    1    1    2  501    0  0.21390949017E+03 -0.11952935883E+03 -0.26257230741E+04  0.26371321923E+04  0.00000000000E+00 0.  1.
<scales pt_clust_3="243.96413" pt_clust_4="252.99721" pt_clust_5="43.93463" pt_clust_6="14000.00000"></scales>
<clustering>
<clus scale="   43.935">  3  5 -1 -1</clus>
<clus scale="  243.964">  1  3  2 -1</clus>
<clus scale="  252.997">  1  4  2 -1</clus>
<clus scale="  243.964">  1  3  2 -1</clus>
</clustering>
</event>
<event>
 6    0  0.3522959E+002  0.6695689E+02  0.7546771E-02  0.1370758E+00
         21   -1    0    0  505  502  0.00000000000E+00  0.00000000000E+00  0.41313245951E+03  0.41313245951E+03  0.00000000000E+00 0.  1.
          2   -1    0    0  504    0 -0.00000000000E+00 -0.00000000000E+00 -0.33460978598E+03  0.33460978598E+03  0.00000000000E+00 0. -1.
         21    1    1    2  503  501  0.75998307094E+02  0.14059321758E+02 -0.16197594312E+03  0.17947036903E+03  0.00000000000E+00 0. -1.
         21    1    1    2  504  502  0.30529886338E+02 -0.50081675087E+02  0.94077659396E+02  0.11086412466E+03  0.00000000000E+00 0. -1.
         21    1    1    2  505  503 -0.55816418328E+02  0.71797105555E+02  0.28843157261E+03  0.30242861802E+03  0.00000000000E+00 0.  1.
          2    1    1    2  501    0 -0.50711775104E+02 -0.35774752225E+02 -0.14201061536E+03  0.15497913378E+03  0.00000000000E+00 0. -1.
<scales pt_clust_3="14000.00000" pt_clust_4="58.65363" pt_clust_5="36.07744" pt_clust_6="66.95689"></scales>
<clustering>
<clus scale="   58.654">  1  4  2 -1</clus>
<clus scale="   36.077">  1  5  2 -1</clus>
<clus scale="   66.957">  2  6  1 -1</clus>
<clus scale="   58.654">  1  3  2 -1</clus>
</clustering>
</event>
<event>
 6    0  0.3522959E+002  0.1232558E+03  0.7546771E-02  0.1237821E+00
         21   -1    0    0  504  502  0.00000000000E+00  0.00000000000E+00  0.53757821177E+03  0.53757821177E+03  0.00000000000E+00 0. -1.
         -1   -1    0    0    0  501 -0.00000000000E+00 -0.00000000000E+00 -0.33187491293E+03  0.33187491293E+03  0.00000000000E+00 0. -1.
         21    1    1    2  503  502 -0.50768348667E+02 -0.35493535763E+02  0.32154699045E+03  0.32745943776E+03  0.00000000000E+00 0. -1.
         21    1    1    2  504  505 -0.36475916268E+02  0.31555889860E+02  0.15150290773E+03  0.15899496125E+03  0.00000000000E+00 0. -1.
         21    1    1    2  505  501  0.15816575994E+03 -0.68496888687E+02 -0.15685605564E+03  0.23304946593E+03  0.00000000000E+00 0. -1.
         -1    1    1    2    0  503 -0.70921495008E+02  0.72434534590E+02 -0.11049054370E+03  0.14994925976E+03  0.00000000000E+00 0. -1.
<scales pt_clust_3="82.19026" pt_clust_4="48.23139" pt_clust_5="14000.00000" pt_clust_6="123.25580"></scales>
<clustering>
<clus scale="   48.231">  1  4  2 -1</clus>
<clus scale="   82.190">  1  3  2 -1</clus>
<clus scale="  123.256">  2  6  1 -1</clus>
<clus scale="   48.231">  1  3  2 -1</clus>
</clustering>
</event>
<event>
 6    0  0.3522959E+002  0.7787408E+02  0.7546771E-02  0.1335195E+00
         21   -1    0    0  501  502  0.00000000000E+00  0.00000000000E+00  0.14076827208E+02  0.14076827208E+02  0.00000000000E+00 0.  1.
          2   -1    0    0  504    0 -0.00000000000E+00 -0.00000000000E+00 -0.16597946255E+04  0.16597946255E+04  0.00000000000E+00 0.  1.
         21    1    1    2  503  505 -0.44728982996E+02 -0.49994903802E+02 -0.21180653244E+03  0.22217601020E+03  0.00000000000E+00 0.  1.
         21    1    1    2  504  503  0.15396537495E+02 -0.47782659711E+02 -0.28819196397E+03  0.29253178294E+03  0.00000000000E+00 0.  1.
         21    1    1    2  505  502 -0.46991007455E+02  0.46680094410E+02 -0.24575316715E+03  0.25452270068E+03  0.00000000000E+00 0.  1.
          2    1    1    2  501    0  0.76323452957E+02  0.51097469103E+02 -0.89996613469E+03  0.90464095884E+03  0.00000000000E+00 0.  1.
<scales pt_clust_3="77.87408" pt_clust_4="50.20195" pt_clust_5="58.24198" pt_clust_6="14000.00000"></scales>
<clustering>
<clus scale="   50.202">  2  4  1 -1</clus>
<clus scale="   58.242">  1  5  2 -1</clus>
<clus scale="   77.874">  1  3  2 -1</clus>
<clus scale="   58.242">  1  3  2 -1</clus>
</clustering>
</event>
<event>
 6    0  0.3522959E+002  0.8964460E+02  0.7546771E-02  0.1303715E+00
          1   -1    0    0  505    0 -0.00000000000E+00  0.00000000000E+00  0.67330942542E+02  0.67330942542E+02  0.00000000000E+00 0. -1.
         21   -1    0    0  504  502  0.00000000000E+00 -0.00000000000E+00 -0.39162905069E+03  0.39162905069E+03  0.00000000000E+00 0.  1.
         21    1    1    2  503  501 -0.46804050889E+02 -0.33115049804E+02 -0.11829693597E+03  0.13145870364E+03  0.00000000000E+00 0.  1.
         21    1    1    2  504  503 -0.13950840677E+02 -0.57721336971E+02 -0.99461856042E+02  0.11584057797E+03  0.00000000000E+00 0.  1.
         21    1    1    2  505  502  0.57242400686E+02  0.14267652067E+02 -0.12011333675E+03  0.13381880285E+03  0.00000000000E+00 0.  1.
          1    1    1    2  501    0  0.35124908804E+01  0.76568734707E+02  0.13574020604E+02  0.77841908778E+02  0.00000000000E+00 0. -1.
<scales pt_clust_3="41.63748" pt_clust_4="41.63748" pt_clust_5="58.99371" pt_clust_6="78.99694"></scales>
<clustering>
<clus scale="   41.637">  3  4 -1 -1</clus>
<clus scale="   58.994">  2  5  1 -1</clus>
<clus scale="   78.997">  1  6  2 -1</clus>
<clus scale="   58.994">  2  3  1 -1</clus>
</clustering>
</event>
<event>
 6    0  0.3522959E+002  0.1729380E+03  0.7546771E-02  0.1174818E+00
         21   -1    0    0  503  502  0.00000000000E+00  0.00000000000E+00  0.10184281049E+04  0.10184281049E+04  0.00000000000E+00 0. -1.
          1   -1    0    0  505    0 -0.00000000000E+00 -0.00000000000E+00 -0.99108083912E+02  0.99108083912E+02  0.00000000000E+00 0.  1.
         21    1    1    2  503  501  0.19866478267E+02 -0.31954456303E+02  0.67125821046E+02  0.76952193519E+02  0.00000000000E+00 0. -1.
         21    1    1    2  504  502  0.13678787637E+03  0.13800106205E+03  0.72932990582E+03  0.75476971837E+03  0.00000000000E+00 0. -1.
         21    1    1    2  505  504 -0.10402526945E+03 -0.97038201676E+02  0.16495454051E+03  0.21782486016E+03  0.00000000000E+00 0. -1.
          1    1    1    2  501    0 -0.52629085186E+02 -0.90084040741E+01 -0.42090246384E+02  0.67989416766E+02  0.00000000000E+00 0.  1.
<scales pt_clust_3="37.62664" pt_clust_4="172.93799" pt_clust_5="14000.00000" pt_clust_6="53.20246"></scales>
<clustering>
<clus scale="   37.627">  1  3  2 -1</clus>
<clus scale="   53.202">  2  6  1 -1</clus>
<clus scale="  172.938">  1  4  2 -1</clus>
<clus scale="   37.627">  1  3  2 -1</clus>
</clustering>
</event>
<event>
 6    0  0.3522959E+002  0.1742197E+03  0.7546771E-02  0.1173517E+00
         21   -1    0    0  504  502  0.00000000000E+00  0.00000000000E+00  0.15993942509E+03  0.15993942509E+03  0.00000000000E+00 0.  1.
          1   -1    0    0  503    0 -0.00000000000E+00 -0.00000000000E+00 -0.41653146404E+03  0.41653146404E+03  0.00000000000E+00 0. -1.
         21    1    1    2  503  502 -0.15966135040E+03  0.73050646165E+02  0.60946816016E+02  0.18585655248E+03  0.00000000000E+00 0.  1.
         21    1    1    2  504  505  0.52144678105E+02 -0.30777439438E+02 -0.28137311036E+02  0.66768454418E+02  0.00000000000E+00 0.  1.
         21    1    1    2  505  501  0.69713665328E+02 -0.53162652943E+02 -0.11252335664E+03  0.14264560488E+03  0.00000000000E+00 0. -1.
          1    1    1    2  501    0  0.37803006965E+02  0.10889446216E+02 -0.17687818729E+03  0.18120027735E+03  0.00000000000E+00 0. -1.
<scales pt_clust_3="167.86625" pt_clust_4="38.74374" pt_clust_5="38.74374" pt_clust_6="39.34015"></scales>
<clustering>
<clus scale="   38.744">  4  5 -1 -1</clus>
<clus scale="   39.340">  2  6  1 -1</clus>
<clus scale="  167.866">  1  3  2 -1</clus>
<clus scale="  167.866">  1  3  2 -1</clus>
</clustering>
</event>
<event>
 6    0  0.3522959E+002  0.2008449E+03  0.7546771E-02  0.1149028E+00
         -3   -1    0    0    0  501 -0.00000000000E+00  0.00000000000E+00  0.98812756721E+03  0.98812756721E+03  0.00000000000E+00 0.  1.
         21   -1    0    0  504  502  0.00000000000E+00 -0.00000000000E+00 -0.17002295647E+03  0.17002295647E+03  0.00000000000E+00 0.  1.
         21    1    1    2  503  505  0.58086648193E+02 -0.75668881134E+02  0.30177605758E+03  0.31649427672E+03  0.00000000000E+00 0.  1.
         21    1    1    2  504  501 -0.16029333733E+03 -0.71857872106E+02  0.15032479000E+03  0.23120348238E+03  0.00000000000E+00 0.  1.
         21    1    1    2  505  502  0.13980972086E+03  0.17148460414E+03 -0.19746487958E+02  0.22213430912E+03  0.00000000000E+00 0.  1.
         -3    1    1    2    0  503 -0.37603031718E+02 -0.23957850896E+02  0.38575025112E+03  0.38831845546E+03  0.00000000000E+00 0.  1.
<scales pt_clust_3="96.14394" pt_clust_4="200.84486" pt_clust_5="14000.00000" pt_clust_6="44.58662"></scales>
<clustering>
<clus scale="   44.587">  1  6  2 -1</clus>
<clus scale="   96.144">  1  3  2 -1</clus>
<clus scale="  200.845">  1  4  2 -1</clus>
<clus scale="  200.845">  2  3  1 -1</clus>
</clustering>
</event>
<event>
 6    0  0.3522959E+002  0.1056437E+03  0.7546771E-02  0.1268856E+00
          2   -1    0    0  503    0 -0.00000000000E+00  0.00000000000E+00  0.81738401347E+03  0.81738401347E+03  0.00000000000E+00 0. -1.
         21   -1    0    0  504  502  0.00000000000E+00 -0.00000000000E+00 -0.12086561001E+03  0.12086561001E+03  0.00000000000E+00 0.  1.
         21    1    1    2  503  502  0.33616487636E+02 -0.10188222508E+02  0.12175403088E+02  0.37176720663E+02  0.00000000000E+00 0. -1.
         21    1    1    2  504  505 -0.11469438487E+03  0.24007916205E+02 -0.31682604108E+02  0.12138768209E+03  0.00000000000E+00 0.  1.
         21    1    1    2  505  501  0.32735551707E+02 -0.11097196468E+03  0.96305599722E+02  0.15053624756E+03  0.00000000000E+00 0.  1.
          2    1    1    2  501    0  0.48342345526E+02  0.97152270986E+02  0.61972000476E+03  0.62914897316E+03  0.00000000000E+00 0. -1.
<scales pt_clust_3="35.12646" pt_clust_4="92.49280" pt_clust_5="105.64373" pt_clust_6="14000.00000"></scales>
<clustering>
<clus scale="   35.126">  2  3  1 -1</clus>
<clus scale="   92.493">  2  4  1 -1</clus>
<clus scale="  105.644">  2  5  1 -1</clus>
<clus scale="   35.126">  2  3  1 -1</clus>
</clustering>
</event>
<event>
 6    0  0.3522959E+002  0.9675439E+02  0.7546771E-02  0.1287273E+00
          2   -1    0    0  503    0 -0.00000000000E+00  0.00000000000E+00  0.31239624721E+04  0.31239624721E+04  0.00000000000E+00 0.  1.
         21   -1    0    0  501  502  0.00000000000E+00 -0.00000000000E+00 -0.10557315051E+02  0.10557315051E+02  0.00000000000E+00 0.  1.
         21    1    1    2  503  505 -0.10686659337E+02  0.52627724025E+02  0.13490008189E+04  0.13500692914E+04  0.00000000000E+00 0.  1.
         21    1    1    2  504  502  0.51445692033E+02 -0.43559769059E+02  0.37567430476E+03  0.38167433234E+03  0.00000000000E+00 0.  1.
         21    1    1    2  505  504 -0.58750768687E+02 -0.91155170831E+02  0.61421378970E+03  0.62371427549E+03  0.00000000000E+00 0.  1.
          2    1    1    2  501    0  0.17991735991E+02  0.82087215864E+02  0.77451624363E+03  0.77906188792E+03  0.00000000000E+00 0.  1.
<scales pt_clust_3="53.70179" pt_clust_4="58.84173" pt_clust_5="14000.00000" pt_clust_6="96.75439"></scales>
<clustering>
<clus scale="   53.702">  1  3  2 -1</clus>
<clus scale="   58.842">  2  4  1 -1</clus>
<clus scale="   96.754">  1  6  2 -1</clus>
<clus scale="   58.842">  2  3  1 -1</clus>
</clustering>
</event>
<event>
 6    0  0.3522959E+002  0.1079529E+03  0.7546771E-02  0.1264408E+00
         21   -1    0    0  504  502  0.00000000000E+00  0.00000000000E+00  0.12819974287E+03  0.12819974287E+03  0.00000000000E+00 0.  1.
          2   -1    0    0  505    0 -0.00000000000E+00 -0.00000000000E+00 -0.14580840413E+04  0.14580840413E+04  0.00000000000E+00 0. -1.
         21    1    1    2  503  501 -0.91037448352E+02  0.11120104696E+03 -0.77380357624E+03  0.78703587241E+03  0.00000000000E+00 0. -1.
         21    1    1    2  504  503  0.60867086879E+02 -0.76058591555E+02  0.87035219230E+02  0.13063246534E+03  0.00000000000E+00 0.  1.
         21    1    1    2  505  502  0.34281220236E+02  0.27347343404E+02 -0.31970170061E+02  0.54269429938E+02  0.00000000000E+00 0. -1.
          2    1    1    2  501    0 -0.41108587626E+01 -0.62489798807E+02 -0.61114577137E+03  0.61434601649E+03  0.00000000000E+00 0. -1.
<scales pt_clust_3="14000.00000" pt_clust_4="107.95291" pt_clust_5="43.85293" pt_clust_6="62.22264"></scales>
<clustering>
<clus scale="   43.853">  1  5  2 -1</clus>
<clus scale="   62.223">  2  6  1 -1</clus>
<clus scale="  107.953">  1  4  2 -1</clus>
<clus scale="   43.853">  1  3  2 -1</clus>
</clustering>
</event>
<event>
 6    0  0.3522959E+002  0.1867571E+03  0.7546771E-02  0.1161419E+00
          3   -1    0    0  505    0 -0.00000000000E+00  0.00000000000E+00  0.41367613061E+03  0.41367613061E+03  0.00000000000E+00 0.  1.
         21   -1    0    0  503  502  0.00000000000E+00 -0.00000000000E+00 -0.30202880250E+03  0.30202880250E+03  0.00000000000E+00 0. -1.
         21    1    1    2  503  504 -0.59855955958E+02 -0.93941657985E+02 -0.11328890048E+03  0.15887776919E+03  0.00000000000E+00 0. -1.
         21    1    1    2  504  501 -0.21105725983E+02 -0.10910052427E+03 -0.44423174220E+02  0.11967370000E+03  0.00000000000E+00 0. -1.
         21    1    1    2  505  502 -0.11802736688E+02  0.61777988767E+02 -0.46977838806E+02  0.78503132602E+02  0.00000000000E+00 0.  1.
          3    1    1    2  501    0  0.92764418629E+02  0.14126419348E+03  0.31633724162E+03  0.35865033132E+03  0.00000000000E+00 0.  1.
<scales pt_clust_3="69.24894" pt_clust_4="69.24894" pt_clust_5="62.89535" pt_clust_6="173.03559"></scales>
<clustering>
<clus scale="   62.895">  2  5  1 -1</clus>
<clus scale="   69.249">  3  4 -1 -1</clus>
<clus scale="  173.036">  1  6  2 -1</clus>
<clus scale="   62.895">  2  3  1 -1</clus>
</clustering>
</event>
<event>
 6    0  0.3522959E+002  0.8521387E+02  0.7546771E-02  0.1314874E+00
         21   -1    0    0  504  502  0.00000000000E+00  0.00000000000E+00  0.59790833807E+02  0.59790833807E+02  0.00000000000E+00 0.  1.
          1   -1    0    0  502    0 -0.00000000000E+00 -0.00000000000E+00 -0.79816602115E+03  0.79816602115E+03  0.00000000000E+00 0. -1.
         21    1    1    2  503  501 -0.69844520012E+02 -0.79621170710E+02 -0.26377099473E+03  0.28424096373E+03  0.00000000000E+00 0.  1.
         21    1    1    2  504  505  0.41518479071E+02 -0.16907387319E+02  0.32949708329E+01  0.44949979790E+02  0.00000000000E+00 0.  1.
         21    1    1    2  505  503  0.43477367474E+02  0.50942266583E+02 -0.22221899635E+02  0.70563509199E+02  0.00000000000E+00 0.  1.
          1    1    1    2  501    0 -0.15151326533E+02  0.45586291446E+02 -0.45567726382E+03  0.45820240224E+03  0.00000000000E+00 0. -1.
<scales pt_clust_3="85.21387" pt_clust_4="44.82905" pt_clust_5="14000.00000" pt_clust_6="47.02225"></scales>
<clustering>
<clus scale="   44.829">  1  4  2 -1</clus>
<clus scale="   47.022">  2  6  1 -1</clus>
<clus scale="   85.214">  2  3  1 -1</clus>
<clus scale="   44.829">  1  3  2 -1</clus>
</clustering>
</event>
<event>
 6    0  0.3522959E+002  0.9352841E+02  0.7546771E-02  0.1294525E+00
         21   -1    0    0  504  502  0.00000000000E+00  0.00000000000E+00  0.60192715811E+03  0.60192715811E+03  0.00000000000E+00 0.  1.
          1   -1    0    0  505    0 -0.00000000000E+00 -0.00000000000E+00 -0.21410956039E+04  0.21410956039E+04  0.00000000000E+00 0.  1.
         21    1    1    2  503  501  0.37090723255E+02  0.69590386644E+02  0.92438514482E+02  0.12150482552E+03  0.00000000000E+00 0.  1.
         21    1    1    2  504  503 -0.15698628194E+02  0.49159931985E+02  0.60093979406E+02  0.79211313591E+02  0.00000000000E+00 0.  1.
         21    1    1    2  505  502 -0.77405373010E+01 -0.73408449078E+02  0.42183280629E+03  0.42824249296E+03  0.00000000000E+00 0.  1.
          1    1    1    2  501    0 -0.13651557760E+02 -0.45341869552E+02 -0.21135337460E+04  0.21140641299E+04  0.00000000000E+00 0.  1.
<scales pt_clust_3="40.13568" pt_clust_4="40.13568" pt_clust_5="79.28440" pt_clust_6="47.35240"></scales>
<clustering>
<clus scale="   40.136">  3  4 -1 -1</clus>
<clus scale="   47.352">  2  6  1 -1</clus>
<clus scale="   79.284">  1  5  2 -1</clus>
<clus scale="   79.284">  1  3  2 -1</clus>
</clustering>
</event>
<event>
 6    0  0.3522959E+002  0.1313845E+03  0.7546771E-02  0.1225416E+00
         21   -1    0    0  503  502  0.00000000000E+00  0.00000000000E+00  0.22190009848E+04  0.22190009848E+04  0.00000000000E+00 0.  1.
         -2   -1    0    0    0  501 -0.00000000000E+00 -0.00000000000E+00 -0.39088025259E+03  0.39088025259E+03  0.00000000000E+00 0. -1.
         21    1    1    2  503  501 -0.89086126417E+02  0.89094143653E+02 -0.26787222595E+02  0.12880861636E+03  0.00000000000E+00 0. -1.
         21    1    1    2  504  502 -0.24023722279E+02 -0.32023213640E+02  0.71646643921E+03  0.71758399087E+03  0.00000000000E+00 0.  1.
         21    1    1    2  505  504 -0.21062154821E+02 -0.26646166982E+02  0.14356133749E+04  0.14360151096E+04  0.00000000000E+00 0.  1.
         -2    1    1    2    0  505  0.13417200352E+03 -0.30424763030E+02 -0.29717185932E+03  0.32747352062E+03  0.00000000000E+00 0. -1.
<scales pt_clust_3="14000.00000" pt_clust_4="80.87990" pt_clust_5="30.08399" pt_clust_6="131.38448"></scales>
<clustering>
<clus scale="   30.084">  4  5 -1 -1</clus>
<clus scale="   80.880">  1  4  2 -1</clus>
<clus scale="  131.384">  2  6  1 -1</clus>
<clus scale="   80.880">  1  3  2 -1</clus>
</clustering>
</event>
<event>
 6    0  0.3522959E+002  0.2328796E+03  0.7546771E-02  0.1124629E+00
         -1   -1    0    0    0  501 -0.00000000000E+00  0.00000000000E+00  0.39012527108E+03  0.39012527108E+03  0.00000000000E+00 0.  1.
         21   -1    0    0  505  502  0.00000000000E+00 -0.00000000000E+00 -0.20462266465E+04  0.20462266465E+04  0.00000000000E+00 0.  1.
         21    1    1    2  503  501 -0.36579388475E+02  0.10369674658E+01 -0.36597921109E+03  0.36780417332E+03  0.00000000000E+00 0.  1.
         21    1    1    2  504  502  0.27799127078E+02  0.10010884594E+03 -0.48254287973E+03  0.49360125940E+03  0.00000000000E+00 0.  1.
         21    1    1    2  505  503 -0.83519181803E+02  0.10583263014E+03 -0.11535264769E+04  0.11613782038E+04  0.00000000000E+00 0.  1.
         -1    1    1    2    0  504  0.92299443199E+02 -0.20697844354E+03  0.34594719226E+03  0.41356828111E+03  0.00000000000E+00 0.  1.
<scales pt_clust_3="31.50355" pt_clust_4="103.89693" pt_clust_5="31.50355" pt_clust_6="224.89213"></scales>
<clustering>
<clus scale="   31.504">  3  5 -1 -1</clus>
<clus scale="  103.897">  2  4  1 -1</clus>
<clus scale="  224.892">  1  6  2 -1</clus>
<clus scale="  103.897">  2  3  1 -1</clus>
</clustering>
</event>
<event>
 6    0  0.3522959E+002  0.7760262E+02  0.7546771E-02  0.1335996E+00
         21   -1    0    0  503  502  0.00000000000E+00  0.00000000000E+00  0.44542446752E+03  0.44542446752E+03  0.00000000000E+00 0.  1.
          2   -1    0    0  504    0 -0.00000000000E+00 -0.00000000000E+00 -0.30975910157E+03  0.30975910157E+03  0.00000000000E+00 0. -1.
         21    1    1    2  503  501 -0.45476639698E+02  0.45254289218E+02  0.45096066608E+02  0.78420218531E+02  0.00000000000E+00 0. -1.
         21    1    1    2  504  505  0.73885208750E+02 -0.14963300240E+01 -0.99077698569E+02  0.12360280510E+03  0.00000000000E+00 0.  1.
         21    1    1    2  505  502  0.48469415074E+02 -0.10843567526E+02  0.35998817012E+03  0.36339833486E+03  0.00000000000E+00 0.  1.
          2    1    1    2  501    0 -0.76877984125E+02 -0.32914391668E+02 -0.17034117220E+03  0.18976221059E+03  0.00000000000E+00 0. -1.
<scales pt_clust_3="38.50512" pt_clust_4="77.60262" pt_clust_5="49.66757" pt_clust_6="14000.00000"></scales>
<clustering>
<clus scale="   49.668">  1  5  2 -1</clus>
<clus scale="   38.505">  1  3  2 -1</clus>
<clus scale="   77.603">  1  4  2 -1</clus>
<clus scale="   49.668">  1  3  2 -1</clus>
</clustering>
</event>
<event>
 6    0  0.3522959E+002  0.1469590E+03  0.7546771E-02  0.1204260E+00
         21   -1    0    0  505  502  0.00000000000E+00  0.00000000000E+00  0.41481731136E+03  0.41481731136E+03  0.00000000000E+00 0. -1.
          3   -1    0    0  502    0 -0.00000000000E+00 -0.00000000000E+00 -0.10326203098E+04  0.10326203098E+04  0.00000000000E+00 0.  1.
         21    1    1    2  503  504 -0.78169892405E+02 -0.82673158335E+02  0.30728050850E+03  0.32766857355E+03  0.00000000000E+00 0. -1.
         21    1    1    2  504  501  0.12415479072E+03  0.28989280681E+02 -0.82135606625E+02  0.15166096508E+03  0.00000000000E+00 0. -1.
         21    1    1    2  505  503 -0.32549335339E+02  0.44797437610E+01  0.57495470287E+02  0.66221268779E+02  0.00000000000E+00 0. -1.
          3    1    1    2  501    0 -0.13435562977E+02  0.49204133893E+02 -0.90044337065E+03  0.90188681379E+03  0.00000000000E+00 0.  1.
<scales pt_clust_3="32.75244" pt_clust_4="133.72439" pt_clust_5="32.75244" pt_clust_6="51.00550"></scales>
<clustering>
<clus scale="   32.752">  3  5 -1 -1</clus>
<clus scale="   51.006">  2  6  1 -1</clus>
<clus scale="  133.724">  2  4  1 -1</clus>
<clus scale="  146.959">  1  3  2 -1</clus>
</clustering>
</event>
<event>
 6    0  0.3522959E+002  0.1574346E+03  0.7546771E-02  0.1191624E+00
          1   -1    0    0  504    0 -0.00000000000E+00  0.00000000000E+00  0.36624435962E+04  0.36624435962E+04  0.00000000000E+00 0. -1.
         21   -1    0    0  501  502  0.00000000000E+00 -0.00000000000E+00 -0.59438328973E+02  0.59438328973E+02  0.00000000000E+00 0.  1.
         21    1    1    2  503  502 -0.73427041321E+01  0.11681438096E+03  0.10707428148E+03  0.15863296208E+03  0.00000000000E+00 0. -1.
         21    1    1    2  504  505  0.28244124660E+02 -0.42293823321E+02  0.11045176177E+03  0.12159806638E+03  0.00000000000E+00 0.  1.
         21    1    1    2  505  503 -0.12824875858E+02 -0.14768533614E+03  0.17092424924E+03  0.22625325397E+03  0.00000000000E+00 0.  1.
          1    1    1    2  501    0 -0.80765446701E+01  0.73164778507E+02  0.32145549748E+04  0.32153976428E+04  0.00000000000E+00 0. -1.
<scales pt_clust_3="138.87911" pt_clust_4="43.43160" pt_clust_5="43.43160" pt_clust_6="73.60921"></scales>
<clustering>
<clus scale="   43.432">  4  5 -1 -1</clus>
<clus scale="   73.609">  1  6  2 -1</clus>
<clus scale="  138.879">  2  3  1 -1</clus>
<clus scale="  138.879">  2  3  1 -1</clus>
</clustering>
</event>
<event>
 6    0  0.3522959E+002  0.1059941E+03  0.7546771E-02  0.1268173E+00
         21   -1    0    0  505  502  0.00000000000E+00  0.00000000000E+00  0.78886836593E+03  0.78886836593E+03  0.00000000000E+00 0. -1.
          1   -1    0    0  504    0 -0.00000000000E+00 -0.00000000000E+00 -0.12310052193E+04  0.12310052193E+04  0.00000000000E+00 0.  1.
         21    1    1    2  503  501  0.12696921668E+03  0.24867356733E+02  0.17973978585E+03  0.22146322049E+03  0.00000000000E+00 0. -1.
         21    1    1    2  504  502  0.37168872332E+02 -0.31139861910E+02 -0.79661191118E+02  0.93258358556E+02  0.00000000000E+00 0. -1.
         21    1    1    2  505  503 -0.85474076091E+02 -0.56742707233E+02  0.57465576527E+03  0.58374206724E+03  0.00000000000E+00 0. -1.
          1    1    1    2  501    0 -0.78664012921E+02  0.63015212411E+02 -0.11168712134E+04  0.11214099390E+04  0.00000000000E+00 0.  1.
<scales pt_clust_3="105.99409" pt_clust_4="48.48934" pt_clust_5="14000.00000" pt_clust_6="53.40015"></scales>
<clustering>
<clus scale="   48.489">  2  4  1 -1</clus>
<clus scale="   53.400">  2  6  1 -1</clus>
<clus scale="  105.994">  2  3  1 -1</clus>
<clus scale="  105.994">  1  3  2 -1</clus>
</clustering>
</event>
<event>
 6    0  0.3522959E+002  0.1384578E+03  0.7546771E-02  0.1215419E+00
         21   -1    0    0  504  502  0.00000000000E+00  0.00000000000E+00  0.85254405567E+02  0.85254405567E+02  0.00000000000E+00 0.  1.
          2   -1    0    0  503    0 -0.00000000000E+00 -0.00000000000E+00 -0.24649966652E+04  0.24649966652E+04  0.00000000000E+00 0.  1.
         21    1    1    2  503  505  0.65066469553E+02  0.29263610641E+02 -0.27881987606E+02  0.76599018275E+02  0.00000000000E+00 0.  1.
         21    1    1    2  504  501 -0.95417660890E+02 -0.36635547285E+02 -0.18780261347E+03  0.21381420664E+03  0.00000000000E+00 0.  1.
         21    1    1    2  505  502  0.64839936859E+02  0.10242156178E+02  0.25194070421E+02  0.70312590334E+02  0.00000000000E+00 0.  1.
          2    1    1    2  501    0 -0.34488745522E+02 -0.28702195345E+01 -0.21892517290E+04  0.21895252555E+04  0.00000000000E+00 0.  1.
<scales pt_clust_3="54.99976" pt_clust_4="126.61418" pt_clust_5="54.99976" pt_clust_6="34.60797"></scales>
<clustering>
<clus scale="   34.608">  2  6  1 -1</clus>
<clus scale="   55.000">  3  5 -1 -1</clus>
<clus scale="  126.614">  2  4  1 -1</clus>
<clus scale="  138.458">  1  3  2 -1</clus>
</clustering>
</event>
<event>
 6    0  0.3522959E+002  0.7299355E+02  0.7546771E-02  0.1350199E+00
         21   -1    0    0  504  502  0.00000000000E+00  0.00000000000E+00  0.13174636068E+02  0.13174636068E+02  0.00000000000E+00 0.  1.
          2   -1    0    0  503    0 -0.00000000000E+00 -0.00000000000E+00 -0.32049268637E+04  0.32049268637E+04  0.00000000000E+00 0. -1.
         21    1    1    2  503  505 -0.75332858058E+02 -0.10271322649E+03 -0.19491192999E+04  0.19532770136E+04  0.00000000000E+00 0. -1.
         21    1    1    2  504  501  0.24529065564E+02  0.20154151485E+02 -0.18956495026E+03  0.19220493034E+03  0.00000000000E+00 0. -1.
         21    1    1    2  505  502  0.28951168115E+02  0.29499738763E+02 -0.38676532437E+02  0.56606350206E+02  0.00000000000E+00 0.  1.
          2    1    1    2  501    0  0.21852624378E+02  0.53059336237E+02 -0.10143914450E+04  0.10160132057E+04  0.00000000000E+00 0. -1.
<scales pt_clust_3="14000.00000" pt_clust_4="31.74689" pt_clust_5="72.99355" pt_clust_6="59.30573"></scales>
<clustering>
<clus scale="   31.747">  1  4  2 -1</clus>
<clus scale="   59.306">  2  6  1 -1</clus>
<clus scale="   72.994">  1  5  2 -1</clus>
<clus scale="   31.747">  1  3  2 -1</clus>
</clustering>
</event>
<event>
 6    0  0.3522959E+002  0.8590015E+02  0.7546771E-02  0.1313095E+00
          3   -1    0    0  504    0 -0.00000000000E+00  0.00000000000E+00  0.50732504290E+03  0.50732504290E+03  0.00000000000E+00 0.  1.
         21   -1    0    0  505  502  0.00000000000E+00 -0.00000000000E+00 -0.53858193243E+02  0.53858193243E+02  0.00000000000E+00 0.  1.
         21    1    1    2  503  502 -0.75571031754E+02  0.84987364663E+01  0.71015310559E+02  0.10404990964E+03  0.00000000000E+00 0.  1.
         21    1    1    2  504  503 -0.44526147875E+02 -0.45374636113E+02  0.11425788757E+03  0.13075282145E+03  0.00000000000E+00 0.  1.
         21    1    1    2  505  501  0.92885306089E+02  0.56194572258E+02  0.78991711306E+02  0.13425796250E+03  0.00000000000E+00 0.  1.
          3    1    1    2  501    0  0.27211873540E+02 -0.19318672611E+02  0.18920194023E+03  0.19212254256E+03  0.00000000000E+00 0.  1.
<scales pt_clust_3="85.90015" pt_clust_4="62.84002" pt_clust_5="14000.00000" pt_clust_6="33.37210"></scales>
<clustering>
<clus scale="   33.372">  1  6  2 -1</clus>
<clus scale="   62.840">  1  4  2 -1</clus>
<clus scale="   85.900">  2  3  1 -1</clus>
<clus scale="   85.900">  2  3  1 -1</clus>
</clustering>
</event>
<event>
 6    0  0.3522959E+002  0.1849532E+03  0.7546771E-02  0.1163094E+00
         21   -1    0    0  504  502  0.00000000000E+00  0.00000000000E+00  0.13431197837E+03  0.13431197837E+03  0.00000000000E+00 0.  1.
          2   -1    0    0  503    0 -0.00000000000E+00 -0.00000000000E+00 -0.16795876300E+04  0.16795876300E+04  0.00000000000E+00 0. -1.
         21    1    1    2  503  505  0.49166235985E+02 -0.15034711592E+03 -0.49745089549E+02  0.16581962478E+03  0.00000000000E+00 0.  1.
         21    1    1    2  504  501 -0.82460588460E+02  0.12950170098E+03 -0.35079432041E+02  0.15748335074E+03  0.00000000000E+00 0.  1.
         21    1    1    2  505  502  0.45101539938E+02 -0.21170888456E+02 -0.27360269875E+02  0.56841356339E+02  0.00000000000E+00 0. -1.
          2    1    1    2  501    0 -0.11807187463E+02  0.42016303397E+02 -0.14330908602E+04  0.14337552765E+04  0.00000000000E+00 0. -1.
<scales pt_clust_3="40.96498" pt_clust_4="169.94067" pt_clust_5="40.96498" pt_clust_6="43.64378"></scales>
<clustering>
<clus scale="   40.965">  3  5 -1 -1</clus>
<clus scale="   43.644">  2  6  1 -1</clus>
<clus scale="  169.941">  1  4  2 -1</clus>
<clus scale="  169.941">  1  3  2 -1</clus>
</clustering>
</event>
<event>
 6    0  0.3522959E+002  0.2974298E+03  0.7546771E-02  0.1086533E+00
          2   -1    0    0  505    0 -0.00000000000E+00  0.00000000000E+00  0.76598697297E+03  0.76598697297E+03  0.00000000000E+00 0. -1.
         21   -1    0    0  504  502  0.00000000000E+00 -0.00000000000E+00 -0.33186909467E+03  0.33186909467E+03  0.00000000000E+00 0.  1.
         21    1    1    2  503  501 -0.71900390582E+02 -0.59332744312E+02  0.12417424432E+03  0.15527164476E+03  0.00000000000E+00 0. -1.
         21    1    1    2  504  503 -0.62331610061E+02 -0.14428041634E+03  0.21956346547E+03  0.27001885772E+03  0.00000000000E+00 0. -1.
         21    1    1    2  505  502  0.14819648462E+03  0.26305393035E+03 -0.20888110383E+03  0.36713878011E+03  0.00000000000E+00 0.  1.
          2    1    1    2  501    0 -0.13964483976E+02 -0.59440769695E+02  0.29926127233E+03  0.30542678505E+03  0.00000000000E+00 0. -1.
<scales pt_clust_3="43.83636" pt_clust_4="43.83636" pt_clust_5="291.93255" pt_clust_6="61.05909"></scales>
<clustering>
<clus scale="   43.836">  3  4 -1 -1</clus>
<clus scale="   61.059">  1  6  2 -1</clus>
<clus scale="  291.933">  2  5  1 -1</clus>
<clus scale="  291.933">  2  3  1 -1</clus>
</clustering>
</event>
<event>
 6    0  0.3522959E+002  0.1642360E+03  0.7546771E-02  0.1183996E+00
         21   -1    0    0  505  502  0.00000000000E+00  0.00000000000E+00  0.39340816378E+03  0.39340816378E+03  0.00000000000E+00 0.  1.
          2   -1    0    0  503    0 -0.00000000000E+00 -0.00000000000E+00 -0.49691270497E+03  0.49691270497E+03  0.00000000000E+00 0.  1.
         21    1    1    2  503  502 -0.67318473052E+02  0.80969653112E+02  0.11451563912E+03  0.15556893373E+03  0.00000000000E+00 0.  1.
         21    1    1    2  504  501 -0.10838309873E+03 -0.16295109687E+03 -0.29910055928E+03  0.35743684844E+03  0.00000000000E+00 0.  1.
         21    1    1    2  505  504  0.13762908149E+03  0.67889444832E+02  0.19974945782E+03  0.25189399892E+03  0.00000000000E+00 0.  1.
          2    1    1    2  501    0  0.38072490286E+02  0.14091998930E+02 -0.11866907886E+03  0.12542108765E+03  0.00000000000E+00 0.  1.
<scales pt_clust_3="104.58049" pt_clust_4="164.23597" pt_clust_5="14000.00000" pt_clust_6="40.59678"></scales>
<clustering>
<clus scale="   40.597">  2  6  1 -1</clus>
<clus scale="  104.580">  1  3  2 -1</clus>
<clus scale="  164.236">  2  4  1 -1</clus>
<clus scale="  104.580">  1  3  2 -1</clus>
</clustering>
</event>
<event>
 6    0  0.3522959E+002  0.1202025E+03  0.7546771E-02  0.1242763E+00
          1   -1    0    0  505    0 -0.00000000000E+00  0.00000000000E+00  0.85276154913E+03  0.85276154913E+03  0.00000000000E+00 0.  1.
         21   -1    0    0  503  502  0.00000000000E+00 -0.00000000000E+00 -0.14171981376E+03  0.14171981376E+03  0.00000000000E+00 0. -1.
         21    1    1    2  503  501  0.25391537292E+02 -0.45134390792E+02 -0.68773141422E+02  0.86090582408E+02  0.00000000000E+00 0. -1.
         21    1    1    2  504  502  0.35806732987E+02  0.31902728731E+02 -0.12561747762E+02  0.49575233076E+02  0.00000000000E+00 0. -1.
         21    1    1    2  505  504  0.30097874418E+02  0.75312294875E+02  0.26944797871E+02  0.85462541129E+02  0.00000000000E+00 0. -1.
          1    1    1    2  501    0 -0.91296144697E+02 -0.62080632814E+02  0.76543182669E+03  0.77335300628E+03  0.00000000000E+00 0.  1.
<scales pt_clust_3="51.78652" pt_clust_4="35.98439" pt_clust_5="35.98439" pt_clust_6="110.71939"></scales>
<clustering>
<clus scale="   35.984">  4  5 -1 -1</clus>
<clus scale="   51.787">  2  3  1 -1</clus>
<clus scale="  110.719">  1  6  2 -1</clus>
<clus scale="   51.787">  2  3  1 -1</clus>
</clustering>
</event>
<event>
 6    0  0.3522959E+002  0.7286305E+02  0.7546771E-02  0.1350619E+00
          2   -1    0    0  504    0 -0.00000000000E+00  0.00000000000E+00  0.86682932698E+03  0.86682932698E+03  0.00000000000E+00 0. -1.
         21   -1    0    0  505  502  0.00000000000E+00 -0.00000000000E+00 -0.31259738482E+03  0.31259738482E+03  0.00000000000E+00 0.  1.
         21    1    1    2  503  502  0.44622105764E+02  0.52130010253E+02 -0.20823569405E+03  0.21925048362E+03  0.00000000000E+00 0.  1.
         21    1    1    2  504  503 -0.85835413718E+02 -0.66293280485E+02 -0.23518723127E+02  0.11097588758E+03  0.00000000000E+00 0.  1.
         21    1    1    2  505  501  0.21807851343E+02  0.40370460191E+02 -0.14445610092E+02  0.48104387400E+02  0.00000000000E+00 0.  1.
          2    1    1    2  501    0  0.19405456612E+02 -0.26207189959E+02  0.80043196943E+03  0.80109595320E+03  0.00000000000E+00 0. -1.
<scales pt_clust_3="14000.00000" pt_clust_4="72.86305" pt_clust_5="43.02259" pt_clust_6="32.60964"></scales>
<clustering>
<clus scale="   32.610">  1  6  2 -1</clus>
<clus scale="   43.023">  1  5  2 -1</clus>
<clus scale="   72.863">  1  4  2 -1</clus>
<clus scale="   72.863">  2  3  1 -1</clus>
</clustering>
</event>
<event>
 6    0  0.3522959E+002  0.9147656E+02  0.7546771E-02  0.1299315E+00
         21   -1    0    0  505  502  0.00000000000E+00  0.00000000000E+00  0.19536615119E+03  0.19536615119E+03  0.00000000000E+00 0.  1.
         -3   -1    0    0    0  501 -0.00000000000E+00 -0.00000000000E+00 -0.86288748068E+03  0.86288748068E+03  0.00000000000E+00 0.  1.
         21    1    1    2  503  501  0.25023517006E+02  0.11854180432E+03 -0.16604323907E+03  0.20554486862E+03  0.00000000000E+00 0.  1.
         21    1    1    2  504  502 -0.42760750198E+02 -0.66892729689E+02  0.12245602390E+03  0.14594038794E+03  0.00000000000E+00 0.  1.
         21    1    1    2  505  503  0.36044069729E+02 -0.22758777598E+02  0.29881965252E+02  0.52058320831E+02  0.00000000000E+00 0.  1.
         -3    1    1    2    0  504 -0.18306836537E+02 -0.28890297032E+02 -0.65381607957E+03  0.65471005447E+03  0.00000000000E+00 0.  1.
<scales pt_clust_3="14000.00000" pt_clust_4="91.47656" pt_clust_5="42.66371" pt_clust_6="34.20219"></scales>
<clustering>
<clus scale="   34.202">  2  6  1 -1</clus>
<clus scale="   42.664">  1  5  2 -1</clus>
<clus scale="   91.477">  1  4  2 -1</clus>
<clus scale="   42.664">  1  3  2 -1</clus>
</clustering>
</event>
<event>
 6    0  0.3522959E+002  0.7881780E+02  0.7546771E-02  0.1332440E+00
         -2   -1    0    0    0  501 -0.00000000000E+00  0.00000000000E+00  0.84570680359E+03  0.84570680359E+03  0.00000000000E+00 0.  1.
         21   -1    0    0  504  502  0.00000000000E+00 -0.00000000000E+00 -0.22874945428E+03  0.22874945428E+03  0.00000000000E+00 0. -1.
         21    1    1    2  503  501 -0.87972416121E+02  0.59115681514E+02 -0.63992906578E+02  0.12380994262E+03  0.00000000000E+00 0. -1.
         21    1    1    2  504  503  0.54557299926E+02  0.17022745876E+02 -0.57246174816E+02  0.80891268895E+02  0.00000000000E+00 0. -1.
         21    1    1    2  505  502  0.41364337967E+02 -0.41259715937E+02 -0.52321718628E+02  0.78427895897E+02  0.00000000000E+00 0.  1.
         -2    1    1    2    0  505 -0.79492217731E+01 -0.34878711453E+02  0.79051814933E+03  0.79132715046E+03  0.00000000000E+00 0.  1.
<scales pt_clust_3="14000.00000" pt_clust_4="53.68828" pt_clust_5="78.81780" pt_clust_6="35.77310"></scales>
<clustering>
<clus scale="   35.773">  1  6  2 -1</clus>
<clus scale="   53.688">  2  4  1 -1</clus>
<clus scale="   78.818">  1  5  2 -1</clus>
<clus scale="   53.688">  2  3  1 -1</clus>
</clustering>
</event>
<event>
 6    0  0.3522959E+002  0.2333411E+03  0.7546771E-02  0.1124310E+00
         21   -1    0    0  505  502  0.00000000000E+00  0.00000000000E+00  0.90736370095E+03  0.90736370095E+03  0.00000000000E+00 0.  1.
          1   -1    0    0  503    0 -0.00000000000E+00 -0.00000000000E+00 -0.79930074324E+03  0.79930074324E+03  0.00000000000E+00 0. -1.
         21    1    1    2  503  504 -0.80469527063E+02  0.20456096541E+03  0.11627142940E+03  0.24867564950E+03  0.00000000000E+00 0.  1.
         21    1    1    2  504  502  0.30302797319E+02  0.34830354026E+02  0.53142403119E+03  0.53342564057E+03  0.00000000000E+00 0.  1.
         21    1    1    2  505  501  0.45917312991E+02 -0.33477191450E+01  0.17029623585E+03  0.17640979225E+03  0.00000000000E+00 0. -1.
          1    1    1    2  501    0  0.42494167530E+01 -0.23604360030E+03 -0.70992873874E+03  0.74815336187E+03  0.00000000000E+00 0. -1.
<scales pt_clust_3="233.34110" pt_clust_4="71.38675" pt_clust_5="46.03919" pt_clust_6="14000.00000"></scales>
<clustering>
<clus scale="   46.039">  1  5  2 -1</clus>
<clus scale="   71.387">  1  4  2 -1</clus>
<clus scale="  233.341">  1  3  2 -1</clus>
<clus scale="   46.039">  1  3  2 -1</clus>
</clustering>
</event>
<event>
 6    0  0.3522959E+002  0.2113408E+03  0.7546771E-02  0.1140509E+00
          2   -1    0    0  505    0 -0.00000000000E+00  0.00000000000E+00  0.14714999717E+04  0.14714999717E+04  0.00000000000E+00 0. -1.
         21   -1    0    0  504  502  0.00000000000E+00 -0.00000000000E+00 -0.33813180061E+03  0.33813180061E+03  0.00000000000E+00 0. -1.
         21    1    1    2  503  501  0.14901550506E+03 -0.11876565213E+02 -0.20285063010E+03  0.25198224477E+03  0.00000000000E+00 0. -1.
         21    1    1    2  504  503 -0.17750579709E+02 -0.24259323451E+02 -0.59955507796E+02  0.67069074613E+02  0.00000000000E+00 0.  1.
         21    1    1    2  505  502  0.25584533521E+02  0.21215858923E+03  0.10514346124E+04  0.10729308363E+04  0.00000000000E+00 0. -1.
          2    1    1    2  501    0 -0.15684945887E+03 -0.17602270057E+03  0.34473969655E+03  0.41764961659E+03  0.00000000000E+00 0. -1.
<scales pt_clust_3="138.06743" pt_clust_4="30.05990" pt_clust_5="14000.00000" pt_clust_6="211.34082"></scales>
<clustering>
<clus scale="   30.060">  2  4  1 -1</clus>
<clus scale="  138.067">  2  3  1 -1</clus>
<clus scale="  211.341">  2  6  1 -1</clus>
<clus scale="   30.060">  2  3  1 -1</clus>
</clustering>
</event>
<event>
 6    0  0.3522959E+002  0.9562209E+02  0.7546771E-02  0.1289781E+00
          2   -1    0    0  503    0 -0.00000000000E+00  0.00000000000E+00  0.98551029012E+03  0.98551029012E+03  0.00000000000E+00 0.  1.
         21   -1    0    0  505  502  0.00000000000E+00 -0.00000000000E+00 -0.10565506955E+03  0.10565506955E+03  0.00000000000E+00 0. -1.
         21    1    1    2  503  504  0.33046097402E+02 -0.83766207726E+02  0.15605723763E+03  0.18017403677E+03  0.00000000000E+00 0.  1.
         21    1    1    2  504  502 -0.40659525046E+02  0.70205986520E+02 -0.12786650843E+02  0.82131455363E+02  0.00000000000E+00 0. -1.
         21    1    1    2  505  501 -0.35866758479E+02  0.58816042688E+01 -0.38252244342E+02  0.52766010175E+02  0.00000000000E+00 0. -1.
          2    1    1    2  501    0  0.43480186123E+02  0.76786169370E+01  0.77483687812E+03  0.77609385737E+03  0.00000000000E+00 0.  1.
<scales pt_clust_3="14000.00000" pt_clust_4="95.62209" pt_clust_5="36.34581" pt_clust_6="43.79480"></scales>
<clustering>
<clus scale="   36.346">  2  5  1 -1</clus>
<clus scale="   43.795">  1  6  2 -1</clus>
<clus scale="   95.622">  2  4  1 -1</clus>
<clus scale="   36.346">  2  3  1 -1</clus>
</clustering>
</event>
<event>
 6    0  0.4016815E+002  0.1064544E+03  0.7546771E-02  0.1267280E+00
          2   -1    0    0  505    0 -0.00000000000E+00  0.00000000000E+00  0.12894639550E+04  0.12894639550E+04  0.00000000000E+00 0. -1.
         21   -1    0    0  503  502  0.00000000000E+00 -0.00000000000E+00 -0.35442956406E+03  0.35442956406E+03  0.00000000000E+00 0. -1.
         21    1    1    2  503  504  0.29586762358E+02 -0.19377428546E+02 -0.10771209329E+03  0.11336999729E+03  0.00000000000E+00 0. -1.
         21    1    1    2  504  501  0.81837166109E+02  0.31063620710E+02 -0.21709746656E+03  0.23408028596E+03  0.00000000000E+00 0. -1.
         21    1    1    2  505  502 -0.22578953670E+02 -0.39272051949E+02  0.14405935861E+02  0.47535609822E+02  0.00000000000E+00 0. -1.
          2    1    1    2  501    0 -0.88844974798E+02  0.27585859785E+02  0.12454380149E+04  0.12489076259E+04  0.00000000000E+00 0. -1.
<scales pt_clust_3="32.83627" pt_clust_4="32.83627" pt_clust_5="45.30015" pt_clust_6="93.08028"></scales>
<clustering>
<clus scale="   32.836">  3  4 -1 -1</clus>
<clus scale="   45.300">  2  5  1 -1</clus>
<clus scale="   93.080">  1  6  2 -1</clus>
<clus scale="   45.300">  2  3  1 -1</clus>
</clustering>
</event>
<event>
 6    0  0.3522959E+002  0.1577059E+03  0.7546771E-02  0.1191311E+00
          1   -1    0    0  503    0 -0.00000000000E+00  0.00000000000E+00  0.46380335864E+03  0.46380335864E+03  0.00000000000E+00 0.  1.
         21   -1    0    0  501  502  0.00000000000E+00 -0.00000000000E+00 -0.22485795297E+03  0.22485795297E+03  0.00000000000E+00 0. -1.
         21    1    1    2  503  505  0.43551842081E+02 -0.19398408961E+03 -0.48980400520E+02  0.20475758742E+03  0.00000000000E+00 0. -1.
         21    1    1    2  504  502  0.15791346203E+02  0.49912415369E+02 -0.20357147491E+02  0.56169647292E+02  0.00000000000E+00 0. -1.
         21    1    1    2  505  504 -0.95988531379E+02 -0.56615792809E+01  0.16258518973E+02  0.97520208549E+02  0.00000000000E+00 0. -1.
          1    1    1    2  501    0  0.36645343095E+02  0.14973325352E+03  0.29202443471E+03  0.33021386835E+03  0.00000000000E+00 0.  1.
<scales pt_clust_3="14000.00000" pt_clust_4="52.35089" pt_clust_5="92.69633" pt_clust_6="157.70590"></scales>
<clustering>
<clus scale="   52.351">  2  4  1 -1</clus>
<clus scale="   92.696">  2  5  1 -1</clus>
<clus scale="  157.706">  1  6  2 -1</clus>
<clus scale="   52.351">  2  3  1 -1</clus>
</clustering>
</event>
<event>
 6    0  0.3522959E+002  0.1410489E+03  0.7546771E-02  0.1211925E+00
          2   -1    0    0  503    0 -0.00000000000E+00  0.00000000000E+00  0.65928547410E+03  0.65928547410E+03  0.00000000000E+00 0. -1.
         21   -1    0    0  505  502  0.00000000000E+00 -0.00000000000E+00 -0.71579744781E+03  0.71579744781E+03  0.00000000000E+00 0. -1.
         21    1    1    2  503  504 -0.68197885442E+02 -0.16104389049E+02  0.44054602323E+02  0.82771437774E+02  0.00000000000E+00 0. -1.
         21    1    1    2  504  502  0.17664650527E+03  0.26148515816E+02 -0.52903895814E+03  0.55836363772E+03  0.00000000000E+00 0. -1.
         21    1    1    2  505  501 -0.37552206198E+02 -0.54742887087E+02 -0.14231683165E+03  0.15703831522E+03  0.00000000000E+00 0.  1.
          2    1    1    2  501    0 -0.70896413629E+02  0.44698760320E+02  0.57078921376E+03  0.57690953120E+03  0.00000000000E+00 0. -1.
<scales pt_clust_3="71.76973" pt_clust_4="141.04885" pt_clust_5="66.38488" pt_clust_6="14000.00000"></scales>
<clustering>
<clus scale="   66.385">  2  5  1 -1</clus>
<clus scale="   71.770">  1  3  2 -1</clus>
<clus scale="  141.049">  2  4  1 -1</clus>
<clus scale="   66.385">  2  3  1 -1</clus>
</clustering>
</event>
<event>
 6    0  0.3522959E+002  0.9966254E+02  0.7546771E-02  0.1281007E+00
         21   -1    0    0  504  502  0.00000000000E+00  0.00000000000E+00  0.74185597890E+02  0.74185597890E+02  0.00000000000E+00 0. -1.
          4   -1    0    0  505    0 -0.00000000000E+00 -0.00000000000E+00 -0.45444336789E+03  0.45444336789E+03  0.00000000000E+00 0.  1.
         21    1    1    2  503  501 -0.28976639990E+02  0.59173143607E+02  0.13862994487E+02  0.67329705224E+02  0.00000000000E+00 0. -1.
         21    1    1    2  504  503 -0.32909778579E+02  0.29031551231E+02 -0.36123007289E+02  0.56839740927E+02  0.00000000000E+00 0.  1.
         21    1    1    2  505  502  0.34680772830E+02 -0.13138146433E+03 -0.28032050589E+03  0.31151794683E+03  0.00000000000E+00 0.  1.
          4    1    1    2  501    0  0.27205645738E+02  0.43176769492E+02 -0.77677251305E+02  0.92941572798E+02  0.00000000000E+00 0.  1.
<scales pt_clust_3="99.66254" pt_clust_4="43.88490" pt_clust_5="14000.00000" pt_clust_6="52.13033"></scales>
<clustering>
<clus scale="   43.885">  1  4  2 -1</clus>
<clus scale="   52.130">  2  6  1 -1</clus>
<clus scale="   99.663">  1  3  2 -1</clus>
<clus scale="   43.885">  1  3  2 -1</clus>
</clustering>
</event>
<event>
 6    0  0.3522959E+002  0.3880029E+03  0.7546771E-02  0.1048015E+00
         21   -1    0    0  505  502  0.00000000000E+00  0.00000000000E+00  0.33819717212E+03  0.33819717212E+03  0.00000000000E+00 0.  1.
          2   -1    0    0  504    0 -0.00000000000E+00 -0.00000000000E+00 -0.58879169774E+03  0.58879169774E+03  0.00000000000E+00 0. -1.
         21    1    1    2  503  501 -0.19552140932E+01 -0.11071096148E+03 -0.76119519267E+02  0.13436860150E+03  0.00000000000E+00 0. -1.
         21    1    1    2  504  502  0.88067172749E+02  0.37914791252E+03  0.49810418674E+02  0.39241565246E+03  0.00000000000E+00 0.  1.
         21    1    1    2  505  503 -0.10004891523E+03 -0.24118210084E+03 -0.11251950336E+03  0.28432240474E+03  0.00000000000E+00 0. -1.
          2    1    1    2  501    0  0.13936956574E+02 -0.27254850201E+02 -0.11176592166E+03  0.11588221116E+03  0.00000000000E+00 0. -1.
<scales pt_clust_3="48.73560" pt_clust_4="380.87048" pt_clust_5="48.73560" pt_clust_6="30.61153"></scales>
<clustering>
<clus scale="   30.612">  2  6  1 -1</clus>
<clus scale="   48.736">  3  5 -1 -1</clus>
<clus scale="  380.870">  1  4  2 -1</clus>
<clus scale="  380.870">  1  3  2 -1</clus>
</clustering>
</event>
<event>
 6    0  0.3522959E+002  0.1871689E+03  0.7546771E-02  0.1161040E+00
          2   -1    0    0  502    0 -0.00000000000E+00  0.00000000000E+00  0.24523398618E+04  0.24523398618E+04  0.00000000000E+00 0. -1.
         21   -1    0    0  503  502  0.00000000000E+00 -0.00000000000E+00 -0.10345500922E+04  0.10345500922E+04  0.00000000000E+00 0. -1.
         21    1    1    2  503  504  0.12503370032E+02 -0.92988173169E+02 -0.41623451285E+03  0.42667822103E+03  0.00000000000E+00 0. -1.
         21    1    1    2  504  505  0.91338381412E+01 -0.88953186282E+02 -0.58685862323E+03  0.59363215884E+03  0.00000000000E+00 0. -1.
         21    1    1    2  505  501 -0.51259670480E+02  0.21138830143E+03  0.50025568525E+03  0.54549822954E+03  0.00000000000E+00 0.  1.
          2    1    1    2  501    0  0.29622462307E+02 -0.29446941980E+02  0.19206272204E+04  0.19210813446E+04  0.00000000000E+00 0. -1.
<scales pt_clust_3="34.74407" pt_clust_4="34.74407" pt_clust_5="183.75420" pt_clust_6="41.76856"></scales>
<clustering>
<clus scale="   34.744">  3  4 -1 -1</clus>
<clus scale="   41.769">  1  6  2 -1</clus>
<clus scale="  183.754">  1  5  2 -1</clus>
<clus scale="  187.169">  2  3  1 -1</clus>
</clustering>
</event>
<event>
 6    0  0.3522959E+002  0.1046726E+03  0.7546771E-02  0.1270766E+00
          2   -1    0    0  505    0 -0.00000000000E+00  0.00000000000E+00  0.40829016842E+03  0.40829016842E+03  0.00000000000E+00 0.  1.
         21   -1    0    0  504  502  0.00000000000E+00 -0.00000000000E+00 -0.21456599517E+03  0.21456599517E+03  0.00000000000E+00 0. -1.
         21    1    1    2  503  501  0.35104206323E+02 -0.99904202314E+01 -0.18677637400E+02  0.40999608984E+02  0.00000000000E+00 0. -1.
         21    1    1    2  504  503  0.85331046049E+01  0.33064803157E+02 -0.46694075042E+01  0.34465902693E+02  0.00000000000E+00 0. -1.
         21    1    1    2  505  502 -0.99596299750E+02 -0.10917368914E+03 -0.12292819859E+03  0.19222294174E+03  0.00000000000E+00 0. -1.
          2    1    1    2  501    0  0.55958988822E+02  0.86099306212E+02  0.33999941675E+03  0.35516771017E+03  0.00000000000E+00 0.  1.
<scales pt_clust_3="36.74231" pt_clust_4="34.14813" pt_clust_5="104.67263" pt_clust_6="14000.00000"></scales>
<clustering>
<clus scale="   34.148">  2  4  1 -1</clus>
<clus scale="   36.742">  2  3  1 -1</clus>
<clus scale="  104.673">  2  5  1 -1</clus>
<clus scale="   34.148">  2  3  1 -1</clus>
</clustering>
</event>
<event>
 6    0  0.3522959E+002  0.8128657E+02  0.7546771E-02  0.1325439E+00
         21   -1    0    0  505  502  0.00000000000E+00  0.00000000000E+00  0.61334997372E+03  0.61334997372E+03  0.00000000000E+00 0.  1.
          1   -1    0    0  503    0 -0.00000000000E+00 -0.00000000000E+00 -0.29950366779E+03  0.29950366779E+03  0.00000000000E+00 0. -1.
         21    1    1    2  503  504 -0.71053534574E+02 -0.97277377749E+00  0.11461556187E+03  0.13485650925E+03  0.00000000000E+00 0. -1.
         21    1    1    2  504  502  0.58337089424E+02 -0.55863646430E+02  0.42249175366E+03  0.43014328416E+03  0.00000000000E+00 0.  1.
         21    1    1    2  505  501 -0.47728711001E+02  0.73744360989E+02  0.25362253981E+02  0.91430326252E+02  0.00000000000E+00 0.  1.
          1    1    1    2  501    0  0.60445156151E+02 -0.16907940782E+02 -0.24862326359E+03  0.25642352185E+03  0.00000000000E+00 0. -1.
<scales pt_clust_3="58.21568" pt_clust_4="81.28657" pt_clust_5="14000.00000" pt_clust_6="62.76540"></scales>
<clustering>
<clus scale="   62.765">  2  6  1 -1</clus>
<clus scale="   58.216">  2  3  1 -1</clus>
<clus scale="   81.287">  1  4  2 -1</clus>
<clus scale="   81.287">  1  3  2 -1</clus>
</clustering>
</event>
<event>
 6    0  0.3522959E+002  0.1661757E+03  0.7546771E-02  0.1181896E+00
          1   -1    0    0  504    0 -0.00000000000E+00  0.00000000000E+00  0.72100804427E+03  0.72100804427E+03  0.00000000000E+00 0.  1.
         21   -1    0    0  505  502  0.00000000000E+00 -0.00000000000E+00 -0.71371977644E+03  0.71371977644E+03  0.00000000000E+00 0.  1.
         21    1    1    2  503  501  0.31796335874E+02 -0.24615938220E+02 -0.42983211399E+02  0.58860070096E+02  0.00000000000E+00 0.  1.
         21    1    1    2  504  502 -0.12700272528E+02  0.16786876543E+03 -0.33278294695E+03  0.37294196480E+03  0.00000000000E+00 0.  1.
         21    1    1    2  505  503  0.73541140540E+01 -0.16370401378E+03 -0.28783003237E+03  0.33120871767E+03  0.00000000000E+00 0.  1.
          1    1    1    2  501    0 -0.26450177400E+02  0.20451186567E+02  0.67088445855E+03  0.67171706815E+03  0.00000000000E+00 0.  1.
<scales pt_clust_3="34.87173" pt_clust_4="166.17571" pt_clust_5="14000.00000" pt_clust_6="33.43446"></scales>
<clustering>
<clus scale="   33.434">  1  6  2 -1</clus>
<clus scale="   34.872">  1  3  2 -1</clus>
<clus scale="  166.176">  2  4  1 -1</clus>
<clus scale="  166.176">  2  3  1 -1</clus>
</clustering>
</event>
<event>
 6    0  0.3522959E+002  0.1050038E+03  0.7546771E-02  0.1270112E+00
         21   -1    0    0  504  502  0.00000000000E+00  0.00000000000E+00  0.41001081509E+03  0.41001081509E+03  0.00000000000E+00 0.  1.
          1   -1    0    0  503    0 -0.00000000000E+00 -0.00000000000E+00 -0.12880089968E+04  0.12880089968E+04  0.00000000000E+00 0.  1.
         21    1    1    2  503  505 -0.74192847178E+02  0.39219672890E+02 -0.10610998132E+04  0.10644132538E+04  0.00000000000E+00 0. -1.
         21    1    1    2  504  501  0.73307787824E+02 -0.12864166558E+03  0.37298545681E+03  0.40129896695E+03  0.00000000000E+00 0.  1.
         21    1    1    2  505  502 -0.22510409497E+02  0.36219787736E+02 -0.10746614186E+02  0.43978190911E+02  0.00000000000E+00 0. -1.
          1    1    1    2  501    0  0.23395468851E+02  0.53202204953E+02 -0.17913721120E+03  0.18832940028E+03  0.00000000000E+00 0.  1.
<scales pt_clust_3="105.00380" pt_clust_4="14000.00000" pt_clust_5="42.64495" pt_clust_6="58.40198"></scales>
<clustering>
<clus scale="   42.645">  1  5  2 -1</clus>
<clus scale="   58.402">  2  6  1 -1</clus>
<clus scale="  105.004">  2  3  1 -1</clus>
<clus scale="   42.645">  1  3  2 -1</clus>
</clustering>
</event>
<event>
 6    0  0.3522959E+002  0.1262408E+03  0.7546771E-02  0.1233143E+00
          1   -1    0    0  505    0 -0.00000000000E+00  0.00000000000E+00  0.39592134788E+03  0.39592134788E+03  0.00000000000E+00 0. -1.
         21   -1    0    0  503  502  0.00000000000E+00 -0.00000000000E+00 -0.10033792121E+03  0.10033792121E+03  0.00000000000E+00 0. -1.
         21    1    1    2  503  504  0.96033205685E+01  0.47574020109E+02  0.28568915243E+02  0.56317795353E+02  0.00000000000E+00 0. -1.
         21    1    1    2  504  501  0.11685522656E+03 -0.40115310697E+02  0.19623143302E+02  0.12509776129E+03  0.00000000000E+00 0. -1.
         21    1    1    2  505  502 -0.12673893664E+03  0.41658986238E+02  0.12441448760E+03  0.18242037693E+03  0.00000000000E+00 0. -1.
          1    1    1    2  501    0  0.28038951666E+00 -0.49117695650E+02  0.12297688053E+03  0.13242333551E+03  0.00000000000E+00 0. -1.
<scales pt_clust_3="48.53361" pt_clust_4="126.24080" pt_clust_5="14000.00000" pt_clust_6="46.52584"></scales>
<clustering>
<clus scale="   48.534">  2  3  1 -1</clus>
<clus scale="   46.526">  1  6  2 -1</clus>
<clus scale="  126.241">  2  4  1 -1</clus>
<clus scale="   48.534">  2  3  1 -1</clus>
</clustering>
</event>
<event>
 6    0  0.3522959E+002  0.1683081E+03  0.7546771E-02  0.1179624E+00
          2   -1    0    0  505    0 -0.00000000000E+00  0.00000000000E+00  0.60898526503E+03  0.60898526503E+03  0.00000000000E+00 0.  1.
         21   -1    0    0  503  502  0.00000000000E+00 -0.00000000000E+00 -0.37462130926E+03  0.37462130926E+03  0.00000000000E+00 0. -1.
         21    1    1    2  503  501 -0.29730730171E+02 -0.21324786013E+02 -0.37875958856E+02  0.52661666080E+02  0.00000000000E+00 0. -1.
         21    1    1    2  504  502 -0.14012168909E+03  0.66620907752E+02 -0.26527368087E+03  0.30731508077E+03  0.00000000000E+00 0. -1.
         21    1    1    2  505  504  0.15917319533E+03  0.12394971162E+02  0.11425984192E+03  0.19632894055E+03  0.00000000000E+00 0. -1.
          2    1    1    2  501    0  0.10679223925E+02 -0.57691092901E+02  0.42325375358E+03  0.42730088690E+03  0.00000000000E+00 0.  1.
<scales pt_clust_3="36.58774" pt_clust_4="14000.00000" pt_clust_5="168.30809" pt_clust_6="58.76712"></scales>
<clustering>
<clus scale="   36.588">  2  3  1 -1</clus>
<clus scale="   58.767">  1  6  2 -1</clus>
<clus scale="  168.308">  1  5  2 -1</clus>
<clus scale="   36.588">  2  3  1 -1</clus>
</clustering>
</event>
<event>
 6    0  0.3522959E+002  0.1092473E+03  0.7546771E-02  0.1261970E+00
          2   -1    0    0  503    0 -0.00000000000E+00  0.00000000000E+00  0.19097774457E+04  0.19097774457E+04  0.00000000000E+00 0.  1.
         21   -1    0    0  501  502  0.00000000000E+00 -0.00000000000E+00 -0.98556647938E+02  0.98556647938E+02  0.00000000000E+00 0. -1.
         21    1    1    2  503  505 -0.55094832156E+02 -0.12283072466E+03  0.12032382264E+04  0.12107456615E+04  0.00000000000E+00 0.  1.
         21    1    1    2  504  502 -0.21510612808E+02  0.23139233731E+02 -0.54321176519E+01  0.32056801201E+02  0.00000000000E+00 0.  1.
         21    1    1    2  505  504 -0.87437103499E+01  0.53192405134E+02 -0.62573828211E+02  0.82591575912E+02  0.00000000000E+00 0. -1.
          2    1    1    2  501    0  0.85349155314E+02  0.46499085790E+02  0.67598851726E+03  0.68294005502E+03  0.00000000000E+00 0.  1.
<scales pt_clust_3="109.24734" pt_clust_4="31.59320" pt_clust_5="79.44907" pt_clust_6="14000.00000"></scales>
<clustering>
<clus scale="   31.593">  2  4  1 -1</clus>
<clus scale="   79.449">  2  5  1 -1</clus>
<clus scale="  109.247">  2  3  1 -1</clus>
<clus scale="   31.593">  2  3  1 -1</clus>
</clustering>
</event>
<event>
 6    0  0.3522959E+002  0.1122687E+03  0.7546771E-02  0.1256425E+00
         21   -1    0    0  503  502  0.00000000000E+00  0.00000000000E+00  0.43952465835E+02  0.43952465835E+02  0.00000000000E+00 0. -1.
          2   -1    0    0  505    0 -0.00000000000E+00 -0.00000000000E+00 -0.32388605287E+04  0.32388605287E+04  0.00000000000E+00 0.  1.
         21    1    1    2  503  504  0.32630300026E+02  0.13043746526E+03 -0.97884447094E+02  0.16631305964E+03  0.00000000000E+00 0. -1.
         21    1    1    2  504  501 -0.41087100043E+02 -0.68321734561E+02 -0.20125354758E+03  0.21646939649E+03  0.00000000000E+00 0. -1.
         21    1    1    2  505  502 -0.37163702964E+02 -0.28902765339E+02 -0.30208464271E+03  0.30573132326E+03  0.00000000000E+00 0. -1.
          2    1    1    2  501    0  0.45620502981E+02 -0.33212965358E+02 -0.25936854254E+04  0.25942992151E+04  0.00000000000E+00 0.  1.
<scales pt_clust_3="14000.00000" pt_clust_4="112.26873" pt_clust_5="47.07983" pt_clust_6="60.13058"></scales>
<clustering>
<clus scale="   47.080">  2  5  1 -1</clus>
<clus scale="   60.131">  2  6  1 -1</clus>
<clus scale="  112.269">  2  4  1 -1</clus>
<clus scale="  112.269">  1  3  2 -1</clus>
</clustering>
</event>
<event>
 6    0  0.3522959E+002  0.1204740E+03  0.7546771E-02  0.1242317E+00
         21   -1    0    0  504  502  0.00000000000E+00  0.00000000000E+00  0.62557106339E+03  0.62557106339E+03  0.00000000000E+00 0.  1.
          2   -1    0    0  505    0 -0.00000000000E+00 -0.00000000000E+00 -0.16906628992E+04  0.16906628992E+04  0.00000000000E+00 0. -1.
         21    1    1    2  503  501 -0.38542317836E+02 -0.66295437569E+01  0.43037442747E+01  0.39344419292E+02  0.00000000000E+00 0.  1.
         21    1    1    2  504  503  0.45006955492E+02 -0.11076533601E+03  0.56300662936E+03  0.57556150880E+03  0.00000000000E+00 0.  1.
         21    1    1    2  505  502 -0.23707913011E+02  0.14494052137E+03 -0.12298136324E+03  0.19155739500E+03  0.00000000000E+00 0.  1.
          2    1    1    2  501    0  0.17243275355E+02 -0.27545641595E+02 -0.15094208462E+04  0.15097706395E+04  0.00000000000E+00 0. -1.
<scales pt_clust_3="38.02729" pt_clust_4="14000.00000" pt_clust_5="120.47398" pt_clust_6="32.49758"></scales>
<clustering>
<clus scale="   32.498">  2  6  1 -1</clus>
<clus scale="   38.027">  2  3  1 -1</clus>
<clus scale="  120.474">  2  5  1 -1</clus>
<clus scale="  120.474">  1  3  2 -1</clus>
</clustering>
</event>
<event>
 6    0  0.3522959E+002  0.3476472E+03  0.7546771E-02  0.1063585E+00
          2   -1    0    0  503    0 -0.00000000000E+00  0.00000000000E+00  0.20630160612E+04  0.20630160612E+04  0.00000000000E+00 0. -1.
         21   -1    0    0  504  502  0.00000000000E+00 -0.00000000000E+00 -0.17678550931E+04  0.17678550931E+04  0.00000000000E+00 0.  1.
         21    1    1    2  503  502  0.20156091954E+03 -0.27849511564E+03 -0.14801076946E+04  0.15195081841E+04  0.00000000000E+00 0.  1.
         21    1    1    2  504  505 -0.24369211610E+02 -0.17831751371E+02 -0.12444238985E+03  0.12805365369E+03  0.00000000000E+00 0.  1.
         21    1    1    2  505  501 -0.19690032426E+03  0.32313240664E+03  0.11107341495E+03  0.39436226166E+03  0.00000000000E+00 0. -1.
          2    1    1    2  501    0  0.19708616329E+02 -0.26805539628E+02  0.17886376377E+04  0.17889470549E+04  0.00000000000E+00 0. -1.
<scales pt_clust_3="347.64725" pt_clust_4="30.19652" pt_clust_5="14000.00000" pt_clust_6="33.27110"></scales>
<clustering>
<clus scale="   30.197">  2  4  1 -1</clus>
<clus scale="   33.271">  1  6  2 -1</clus>
<clus scale="  347.647">  2  3  1 -1</clus>
<clus scale="   30.197">  2  3  1 -1</clus>
</clustering>
</event>
<event>
 6    0  0.3522959E+002  0.1532637E+03  0.7546771E-02  0.1196519E+00
         21   -1    0    0  503  502  0.00000000000E+00  0.00000000000E+00  0.25417729084E+03  0.25417729084E+03  0.00000000000E+00 0. -1.
          1   -1    0    0  504    0 -0.00000000000E+00 -0.00000000000E+00 -0.14031474604E+04  0.14031474604E+04  0.00000000000E+00 0. -1.
         21    1    1    2  503  501 -0.12626747979E+01 -0.61113432844E+02  0.38733672294E+02  0.72365346617E+02  0.00000000000E+00 0. -1.
         21    1    1    2  504  505 -0.96013823688E+02  0.11904015633E+03 -0.66438825834E+03  0.68176313407E+03  0.00000000000E+00 0. -1.
         21    1    1    2  505  502 -0.18737255823E+02  0.44362601698E+02  0.17832365792E+03  0.18471180839E+03  0.00000000000E+00 0. -1.
          1    1    1    2  501    0  0.11601375431E+03 -0.10228932518E+03 -0.70163924146E+03  0.71848446218E+03  0.00000000000E+00 0. -1.
<scales pt_clust_3="31.34765" pt_clust_4="153.26374" pt_clust_5="48.15730" pt_clust_6="14000.00000"></scales>
<clustering>
<clus scale="   48.157">  1  5  2 -1</clus>
<clus scale="   31.348">  1  3  2 -1</clus>
<clus scale="  153.264">  1  4  2 -1</clus>
<clus scale="   48.157">  1  3  2 -1</clus>
</clustering>
</event>
<event>
 6    0  0.3522959E+002  0.1619241E+03  0.7546771E-02  0.1186541E+00
          2   -1    0    0  505    0 -0.00000000000E+00  0.00000000000E+00  0.45951593505E+03  0.45951593505E+03  0.00000000000E+00 0.  1.
         21   -1    0    0  504  502  0.00000000000E+00 -0.00000000000E+00 -0.95010649845E+03  0.95010649845E+03  0.00000000000E+00 0. -1.
         21    1    1    2  503  502 -0.55538755642E+02  0.12100700498E+02 -0.51770703503E+03  0.52081815872E+03  0.00000000000E+00 0. -1.
         21    1    1    2  504  501  0.10583695224E+03 -0.59242339935E+01  0.18841209300E+03  0.21618435141E+03  0.00000000000E+00 0. -1.
         21    1    1    2  505  503 -0.93609611463E+02 -0.22348700350E+02 -0.40923897704E+03  0.42040309715E+03  0.00000000000E+00 0. -1.
          2    1    1    2  501    0  0.43311414870E+02  0.16172233846E+02  0.24794335568E+03  0.25221682622E+03  0.00000000000E+00 0.  1.
<scales pt_clust_3="50.69702" pt_clust_4="147.99033" pt_clust_5="50.69702" pt_clust_6="46.23224"></scales>
<clustering>
<clus scale="   46.232">  1  6  2 -1</clus>
<clus scale="   50.697">  3  5 -1 -1</clus>
<clus scale="  147.990">  1  4  2 -1</clus>
<clus scale="  161.924">  2  3  1 -1</clus>
</clustering>
</event>
<event>
 6    0  0.3522959E+002  0.1663871E+03  0.7546771E-02  0.1181669E+00
         -4   -1    0    0    0  501 -0.00000000000E+00  0.00000000000E+00  0.36480900698E+03  0.36480900698E+03  0.00000000000E+00 0.  1.
         21   -1    0    0  504  502  0.00000000000E+00 -0.00000000000E+00 -0.11121939596E+03  0.11121939596E+03  0.00000000000E+00 0.  1.
         21    1    1    2  503  501  0.11652976889E+02 -0.29843490462E+02  0.39331109930E+02  0.50728315581E+02  0.00000000000E+00 0.  1.
         21    1    1    2  504  505 -0.83291923045E+02 -0.17768462089E+00 -0.31745221660E+02  0.89136609284E+02  0.00000000000E+00 0.  1.
         21    1    1    2  505  503 -0.71043816079E+02 -0.50312829950E+01  0.35830806586E+02  0.79726935927E+02  0.00000000000E+00 0.  1.
         -4    1    1    2    0  502  0.14268276224E+03  0.35052458078E+02  0.21017291617E+03  0.25643654214E+03  0.00000000000E+00 0.  1.
<scales pt_clust_3="32.03788" pt_clust_4="62.77614" pt_clust_5="62.77614" pt_clust_6="151.76661"></scales>
<clustering>
<clus scale="   32.038">  1  3  2 -1</clus>
<clus scale="   62.776">  4  5 -1 -1</clus>
<clus scale="  151.767">  1  6  2 -1</clus>
<clus scale="  166.387">  2  3  1 -1</clus>
</clustering>
</event>
<event>
 6    0  0.3522959E+002  0.1488226E+03  0.7546771E-02  0.1201927E+00
         21   -1    0    0  501  502  0.00000000000E+00  0.00000000000E+00  0.41022284695E+02  0.41022284695E+02  0.00000000000E+00 0.  1.
          2   -1    0    0  504    0 -0.00000000000E+00 -0.00000000000E+00 -0.15230722672E+04  0.15230722672E+04  0.00000000000E+00 0.  1.
         21    1    1    2  503  502  0.83532792115E+02  0.36642978942E+02 -0.11744112669E+03  0.14870391219E+03  0.00000000000E+00 0.  1.
         21    1    1    2  504  505 -0.92581211268E+02 -0.11958095572E+03 -0.32173510134E+03  0.35550578207E+03  0.00000000000E+00 0.  1.
         21    1    1    2  505  503  0.21759790748E+02  0.47598301891E+02 -0.75972952683E+02  0.92254953123E+02  0.00000000000E+00 0.  1.
          2    1    1    2  501    0 -0.12711371595E+02  0.35339674886E+02 -0.96690080175E+03  0.96762990446E+03  0.00000000000E+00 0.  1.
<scales pt_clust_3="38.89770" pt_clust_4="140.28229" pt_clust_5="38.89770" pt_clust_6="37.55625"></scales>
<clustering>
<clus scale="   37.556">  2  6  1 -1</clus>
<clus scale="   38.898">  3  5 -1 -1</clus>
<clus scale="  140.282">  2  4  1 -1</clus>
<clus scale="  148.823">  1  3  2 -1</clus>
</clustering>
</event>
<event>
 6    0  0.3522959E+002  0.1611531E+03  0.7546771E-02  0.1187401E+00
          2   -1    0    0  503    0 -0.00000000000E+00  0.00000000000E+00  0.19012190241E+04  0.19012190241E+04  0.00000000000E+00 0.  1.
         21   -1    0    0  505  502  0.00000000000E+00 -0.00000000000E+00 -0.13550742808E+04  0.13550742808E+04  0.00000000000E+00 0. -1.
         21    1    1    2  503  504 -0.10809016521E+02  0.49712002585E+02 -0.94421730738E+02  0.10725474943E+03  0.00000000000E+00 0. -1.
         21    1    1    2  504  502 -0.46261227915E+02  0.53183926294E+01 -0.57365292208E+03  0.57553980012E+03  0.00000000000E+00 0. -1.
         21    1    1    2  505  501  0.72900273926E+02  0.10559376971E+03 -0.67010251960E+03  0.68227698255E+03  0.00000000000E+00 0. -1.
          2    1    1    2  501    0 -0.15830029490E+02 -0.16062416493E+03  0.18843219157E+04  0.18912217729E+04  0.00000000000E+00 0.  1.
<scales pt_clust_3="53.12102" pt_clust_4="46.56594" pt_clust_5="161.15306" pt_clust_6="14000.00000"></scales>
<clustering>
<clus scale="   46.566">  2  4  1 -1</clus>
<clus scale="   53.121">  2  3  1 -1</clus>
<clus scale="  161.153">  2  5  1 -1</clus>
<clus scale="   46.566">  2  3  1 -1</clus>
</clustering>
</event>
<event>
 6    0  0.3522959E+002  0.9221747E+02  0.7546771E-02  0.1297569E+00
         21   -1    0    0  504  502  0.00000000000E+00  0.00000000000E+00  0.42632347204E+02  0.42632347204E+02  0.00000000000E+00 0.  1.
         -2   -1    0    0    0  501 -0.00000000000E+00 -0.00000000000E+00 -0.80461613038E+03  0.80461613038E+03  0.00000000000E+00 0.  1.
         21    1    1    2  503  501  0.62270085711E+02 -0.15757933381E+02 -0.33954256967E+03  0.34556480240E+03  0.00000000000E+00 0.  1.
         21    1    1    2  504  503 -0.36524840543E+02 -0.38026440544E+01 -0.38583636833E+02  0.53265571523E+02  0.00000000000E+00 0.  1.
         21    1    1    2  505  502 -0.21701373939E+02  0.92824594058E+02 -0.52085582647E+02  0.10862901460E+03  0.00000000000E+00 0.  1.
         -2    1    1    2    0  505 -0.40438712287E+01 -0.73264016623E+02 -0.33177199402E+03  0.33978908906E+03  0.00000000000E+00 0.  1.
<scales pt_clust_3="61.30095" pt_clust_4="36.72226" pt_clust_5="14000.00000" pt_clust_6="92.21747"></scales>
<clustering>
<clus scale="   36.722">  1  4  2 -1</clus>
<clus scale="   61.301">  2  3  1 -1</clus>
<clus scale="   92.217">  2  6  1 -1</clus>
<clus scale="   36.722">  1  3  2 -1</clus>
</clustering>
</event>
<event>
 6    0  0.3522959E+002  0.1438654E+03  0.7546771E-02  0.1208220E+00
         21   -1    0    0  503  502  0.00000000000E+00  0.00000000000E+00  0.20898355010E+03  0.20898355010E+03  0.00000000000E+00 0. -1.
          2   -1    0    0  504    0 -0.00000000000E+00 -0.00000000000E+00 -0.37670184048E+04  0.37670184048E+04  0.00000000000E+00 0. -1.
         21    1    1    2  503  505 -0.46719310454E+01 -0.82300852532E+02  0.14130334801E+03  0.16359062756E+03  0.00000000000E+00 0. -1.
         21    1    1    2  504  502  0.29962433255E+02  0.12867289951E+02  0.16679289476E+02  0.36626674087E+02  0.00000000000E+00 0. -1.
         21    1    1    2  505  501  0.10755106454E+03  0.12415005221E+03 -0.20898419337E+03  0.26580981928E+03  0.00000000000E+00 0. -1.
          2    1    1    2  501    0 -0.13284156675E+03 -0.54716489631E+02 -0.35070332988E+04  0.35099748340E+04  0.00000000000E+00 0. -1.
<scales pt_clust_3="74.38858" pt_clust_4="32.60850" pt_clust_5="14000.00000" pt_clust_6="143.86545"></scales>
<clustering>
<clus scale="   32.609">  1  4  2 -1</clus>
<clus scale="   74.389">  1  3  2 -1</clus>
<clus scale="  143.865">  2  6  1 -1</clus>
<clus scale="   32.609">  1  3  2 -1</clus>
</clustering>
</event>
<event>
 6    0  0.3522959E+002  0.1096789E+03  0.7546771E-02  0.1261166E+00
         21   -1    0    0  504  502  0.00000000000E+00  0.00000000000E+00  0.89899510849E+02  0.89899510849E+02  0.00000000000E+00 0.  1.
          4   -1    0    0  503    0 -0.00000000000E+00 -0.00000000000E+00 -0.69801713165E+03  0.69801713165E+03  0.00000000000E+00 0.  1.
         21    1    1    2  503  502  0.16063355348E+02 -0.93066377313E+02 -0.95156370652E+02  0.13406758313E+03  0.00000000000E+00 0.  1.
         21    1    1    2  504  505 -0.46788783294E+02 -0.49184068898E+01  0.20668511420E+01  0.47091961545E+02  0.00000000000E+00 0.  1.
         21    1    1    2  505  501 -0.22769788129E+01  0.12192905982E+03 -0.37634393004E+02  0.12762534152E+03  0.00000000000E+00 0.  1.
          4    1    1    2  501    0  0.33002406759E+02 -0.23944275616E+02 -0.47739370828E+03  0.47913175630E+03  0.00000000000E+00 0.  1.
<scales pt_clust_3="14000.00000" pt_clust_4="44.02932" pt_clust_5="109.67889" pt_clust_6="40.77361"></scales>
<clustering>
<clus scale="   40.774">  2  6  1 -1</clus>
<clus scale="   44.029">  1  4  2 -1</clus>
<clus scale="  109.679">  1  5  2 -1</clus>
<clus scale="   44.029">  1  3  2 -1</clus>
</clustering>
</event>
<event>
 6    0  0.3522959E+002  0.1000450E+03  0.7546771E-02  0.1280201E+00
          2   -1    0    0  505    0 -0.00000000000E+00  0.00000000000E+00  0.99129353965E+02  0.99129353965E+02  0.00000000000E+00 0. -1.
         21   -1    0    0  501  502  0.00000000000E+00 -0.00000000000E+00 -0.10361539441E+04  0.10361539441E+04  0.00000000000E+00 0.  1.
         21    1    1    2  503  502  0.88757743906E+02  0.81781838900E+02 -0.74361361902E+03  0.75334415818E+03  0.00000000000E+00 0.  1.
         21    1    1    2  504  503 -0.24101189288E+02 -0.77466421195E+02 -0.26077653559E+03  0.27310495282E+03  0.00000000000E+00 0.  1.
         21    1    1    2  505  504 -0.24512393182E+02 -0.29217936700E+02  0.27479436949E+02  0.47007070740E+02  0.00000000000E+00 0. -1.
          2    1    1    2  501    0 -0.40144161436E+02  0.24902518995E+02  0.39886127499E+02  0.61827116353E+02  0.00000000000E+00 0. -1.
<scales pt_clust_3="100.04499" pt_clust_4="14000.00000" pt_clust_5="38.13850" pt_clust_6="60.29450"></scales>
<clustering>
<clus scale="   38.139">  1  5  2 -1</clus>
<clus scale="   60.294">  1  6  2 -1</clus>
<clus scale="  100.045">  2  3  1 -1</clus>
<clus scale="  100.045">  2  3  1 -1</clus>
</clustering>
</event>
<event>
 6    0  0.3522959E+002  0.1624119E+03  0.7546771E-02  0.1186000E+00
          2   -1    0    0  504    0 -0.00000000000E+00  0.00000000000E+00  0.84680244243E+02  0.84680244243E+02  0.00000000000E+00 0. -1.
         21   -1    0    0  501  502  0.00000000000E+00 -0.00000000000E+00 -0.12558333986E+04  0.12558333986E+04  0.00000000000E+00 0.  1.
         21    1    1    2  503  505  0.45467171403E+02  0.15305720128E+02 -0.18958090588E+03  0.19555676572E+03  0.00000000000E+00 0.  1.
         21    1    1    2  504  503 -0.81701938509E+02 -0.14239927863E+03 -0.35598494731E+03  0.39201791288E+03  0.00000000000E+00 0.  1.
         21    1    1    2  505  502  0.76395325836E+02  0.81150915439E+02 -0.66889166908E+03  0.67811339896E+03  0.00000000000E+00 0.  1.
          2    1    1    2  501    0 -0.40160558730E+02  0.45942643059E+02  0.43304367957E+02  0.74825565236E+02  0.00000000000E+00 0. -1.
<scales pt_clust_3="30.56279" pt_clust_4="155.58784" pt_clust_5="30.56279" pt_clust_6="61.02128"></scales>
<clustering>
<clus scale="   30.563">  3  5 -1 -1</clus>
<clus scale="   61.021">  1  6  2 -1</clus>
<clus scale="  155.588">  1  4  2 -1</clus>
<clus scale="  162.412">  2  3  1 -1</clus>
</clustering>
</event>
<event>
 6    0  0.3522959E+002  0.8713339E+02  0.7546771E-02  0.1309946E+00
          1   -1    0    0  503    0 -0.00000000000E+00  0.00000000000E+00  0.29549443786E+04  0.29549443786E+04  0.00000000000E+00 0.  1.
         21   -1    0    0  504  502  0.00000000000E+00 -0.00000000000E+00 -0.14090423733E+04  0.14090423733E+04  0.00000000000E+00 0.  1.
         21    1    1    2  503  502  0.68171547850E+02 -0.24935052682E+02 -0.13884491315E+03  0.15667490767E+03  0.00000000000E+00 0.  1.
         21    1    1    2  504  505 -0.10557801113E+02 -0.67252245659E+02 -0.12093061760E+04  0.12112207722E+04  0.00000000000E+00 0.  1.
         21    1    1    2  505  501 -0.65727347917E+02  0.52938038388E+02 -0.15885013166E+02  0.85876969065E+02  0.00000000000E+00 0.  1.
          1    1    1    2  501    0  0.81136011801E+01  0.39249259953E+02  0.29099381076E+04  0.29102141029E+04  0.00000000000E+00 0.  1.
<scales pt_clust_3="87.13339" pt_clust_4="67.22181" pt_clust_5="14000.00000" pt_clust_6="40.07911"></scales>
<clustering>
<clus scale="   40.079">  1  6  2 -1</clus>
<clus scale="   67.222">  2  4  1 -1</clus>
<clus scale="   87.133">  2  3  1 -1</clus>
<clus scale="   67.222">  2  3  1 -1</clus>
</clustering>
</event>
<event>
 6    0  0.3860290E+002  0.1447667E+03  0.7546771E-02  0.1207055E+00
         21   -1    0    0  501  502  0.00000000000E+00  0.00000000000E+00  0.54253746881E+03  0.54253746881E+03  0.00000000000E+00 0.  1.
          1   -1    0    0  503    0 -0.00000000000E+00 -0.00000000000E+00 -0.18345265154E+03  0.18345265154E+03  0.00000000000E+00 0. -1.
         21    1    1    2  503  504  0.13785992200E+02  0.29003192421E+02  0.12958196072E+02  0.34628797221E+02  0.00000000000E+00 0.  1.
         21    1    1    2  504  505  0.35353936616E+02 -0.49523284952E+01  0.17680899747E+02  0.39837678241E+02  0.00000000000E+00 0.  1.
         21    1    1    2  505  502 -0.13112865173E+03 -0.70129139355E+02  0.46360059463E+03  0.48686582426E+03  0.00000000000E+00 0.  1.
          1    1    1    2  501    0  0.81988722916E+02  0.46078275429E+02 -0.13515487317E+03  0.16465782063E+03  0.00000000000E+00 0. -1.
<scales pt_clust_3="32.11291" pt_clust_4="36.37029" pt_clust_5="144.76668" pt_clust_6="14000.00000"></scales>
<clustering>
<clus scale="   32.113">  2  3  1 -1</clus>
<clus scale="   36.370">  2  4  1 -1</clus>
<clus scale="  144.767">  1  5  2 -1</clus>
<clus scale="  144.767">  1  3  2 -1</clus>
</clustering>
</event>
<event>
 6    0  0.3522959E+002  0.1065000E+03  0.7546771E-02  0.1267192E+00
          2   -1    0    0  503    0 -0.00000000000E+00  0.00000000000E+00  0.69981532574E+03  0.69981532574E+03  0.00000000000E+00 0. -1.
         21   -1    0    0  505  502  0.00000000000E+00 -0.00000000000E+00 -0.71558918615E+02  0.71558918615E+02  0.00000000000E+00 0.  1.
         21    1    1    2  503  502  0.23455093450E+02 -0.26865561842E+02  0.41289649734E+02  0.54559462946E+02  0.00000000000E+00 0.  1.
         21    1    1    2  504  501  0.40500246362E+02  0.77858342659E+02  0.13992071716E+03  0.16516657824E+03  0.00000000000E+00 0. -1.
         21    1    1    2  505  504 -0.67437858401E+02 -0.89271320879E+02  0.93529870320E+01  0.11227070786E+03  0.00000000000E+00 0.  1.
          2    1    1    2  501    0  0.34825185887E+01  0.38278540062E+02  0.43769305319E+03  0.43937749530E+03  0.00000000000E+00 0. -1.
<scales pt_clust_3="35.66370" pt_clust_4="106.49998" pt_clust_5="14000.00000" pt_clust_6="38.11859"></scales>
<clustering>
<clus scale="   35.664">  2  3  1 -1</clus>
<clus scale="   38.119">  1  6  2 -1</clus>
<clus scale="  106.500">  1  4  2 -1</clus>
<clus scale="   35.664">  2  3  1 -1</clus>
</clustering>
</event>
<event>
 6    0  0.3522959E+002  0.6628803E+02  0.7546771E-02  0.1373191E+00
         21   -1    0    0  505  502  0.00000000000E+00  0.00000000000E+00  0.54818403101E+02  0.54818403101E+02  0.00000000000E+00 0.  1.
         -2   -1    0    0    0  501 -0.00000000000E+00 -0.00000000000E+00 -0.12075041262E+04  0.12075041262E+04  0.00000000000E+00 0.  1.
         21    1    1    2  503  502 -0.12468263667E+02 -0.33701774217E+02 -0.23861739957E+01  0.36013344896E+02  0.00000000000E+00 0.  1.
         21    1    1    2  504  501  0.83744784896E+02  0.25390352370E+02 -0.31478157812E+03  0.32671899381E+03  0.00000000000E+00 0. -1.
         21    1    1    2  505  504 -0.46208926908E+02  0.63699630828E+02 -0.19189478920E+02  0.81000888852E+02  0.00000000000E+00 0.  1.
         -2    1    1    2    0  503 -0.25067594321E+02 -0.55388208981E+02 -0.81632849207E+03  0.81858930176E+03  0.00000000000E+00 0.  1.
<scales pt_clust_3="35.93421" pt_clust_4="14000.00000" pt_clust_5="66.28803" pt_clust_6="61.86289"></scales>
<clustering>
<clus scale="   35.934">  1  3  2 -1</clus>
<clus scale="   61.863">  2  6  1 -1</clus>
<clus scale="   66.288">  1  5  2 -1</clus>
<clus scale="   35.934">  1  3  2 -1</clus>
</clustering>
</event>
<event>
 6    0  0.3522959E+002  0.1485187E+03  0.7546771E-02  0.1202305E+00
         -3   -1    0    0    0  501 -0.00000000000E+00  0.00000000000E+00  0.20356237451E+03  0.20356237451E+03  0.00000000000E+00 0.  1.
         21   -1    0    0  505  502  0.00000000000E+00 -0.00000000000E+00 -0.37819145150E+03  0.37819145150E+03  0.00000000000E+00 0.  1.
         21    1    1    2  503  502  0.98977844644E+02  0.10164356480E+03 -0.21886389461E+03  0.26082452407E+03  0.00000000000E+00 0.  1.
         21    1    1    2  504  501 -0.92518052046E+02 -0.22514621021E+02 -0.59381285246E+02  0.11221691117E+03  0.00000000000E+00 0.  1.
         21    1    1    2  505  504 -0.26493749571E+02 -0.43486094653E+02 -0.36565456662E+02  0.62689646796E+02  0.00000000000E+00 0.  1.
         -3    1    1    2    0  503  0.20033956972E+02 -0.35642849121E+02  0.14018155953E+03  0.14602274398E+03  0.00000000000E+00 0.  1.
<scales pt_clust_3="138.53223" pt_clust_4="39.15384" pt_clust_5="39.15384" pt_clust_6="40.88731"></scales>
<clustering>
<clus scale="   39.154">  4  5 -1 -1</clus>
<clus scale="   40.887">  1  6  2 -1</clus>
<clus scale="  138.532">  2  3  1 -1</clus>
<clus scale="  138.532">  2  3  1 -1</clus>
</clustering>
</event>
<event>
 6    0  0.3522959E+002  0.9023862E+02  0.7546771E-02  0.1302275E+00
          1   -1    0    0  505    0 -0.00000000000E+00  0.00000000000E+00  0.24714395662E+03  0.24714395662E+03  0.00000000000E+00 0. -1.
         21   -1    0    0  503  502  0.00000000000E+00 -0.00000000000E+00 -0.44307573188E+03  0.44307573188E+03  0.00000000000E+00 0. -1.
         21    1    1    2  503  504  0.24344159431E+02 -0.45656991385E+02 -0.67547765806E+02  0.85087599721E+02  0.00000000000E+00 0. -1.
         21    1    1    2  504  501  0.37516456584E+01  0.90869666308E+02  0.75712999097E+02  0.11833777644E+03  0.00000000000E+00 0. -1.
         21    1    1    2  505  502 -0.74083938763E+02 -0.34256470623E+02 -0.33647234958E+03  0.34623052695E+03  0.00000000000E+00 0. -1.
          1    1    1    2  501    0  0.45988133673E+02 -0.10956204300E+02  0.13237534103E+03  0.14056378539E+03  0.00000000000E+00 0. -1.
<scales pt_clust_3="54.29490" pt_clust_4="14000.00000" pt_clust_5="90.23862" pt_clust_6="47.27522"></scales>
<clustering>
<clus scale="   47.275">  1  6  2 -1</clus>
<clus scale="   54.295">  2  3  1 -1</clus>
<clus scale="   90.239">  2  5  1 -1</clus>
<clus scale="   54.295">  2  3  1 -1</clus>
</clustering>
</event>
<event>
 6    0  0.3522959E+002  0.1911654E+03  0.7546771E-02  0.1157414E+00
         -2   -1    0    0    0  501 -0.00000000000E+00  0.00000000000E+00  0.19563217540E+03  0.19563217540E+03  0.00000000000E+00 0. -1.
         21   -1    0    0  505  502  0.00000000000E+00 -0.00000000000E+00 -0.22465368732E+04  0.22465368732E+04  0.00000000000E+00 0.  1.
         21    1    1    2  503  501 -0.40681359215E+02 -0.31841937327E+01 -0.64241396697E+02  0.76105644514E+02  0.00000000000E+00 0.  1.
         21    1    1    2  504  503 -0.12035617262E+03 -0.10858941776E+03 -0.51024964823E+03  0.53538021392E+03  0.00000000000E+00 0. -1.
         21    1    1    2  505  504  0.32917441434E+02 -0.74879790420E+01 -0.16100870481E+04  0.16104409118E+04  0.00000000000E+00 0.  1.
         -2    1    1    2    0  502  0.12812009040E+03  0.11926159054E+03  0.13367339533E+03  0.22024227832E+03  0.00000000000E+00 0. -1.
<scales pt_clust_3="37.05373" pt_clust_4="37.05373" pt_clust_5="33.75837" pt_clust_6="176.33961"></scales>
<clustering>
<clus scale="   33.758">  2  5  1 -1</clus>
<clus scale="   37.054">  3  4 -1 -1</clus>
<clus scale="  176.340">  1  6  2 -1</clus>
<clus scale="   33.758">  2  3  1 -1</clus>
</clustering>
</event>
<event>
 6    0  0.3522959E+002  0.8844329E+02  0.7546771E-02  0.1306666E+00
          3   -1    0    0  503    0 -0.00000000000E+00  0.00000000000E+00  0.15243668351E+03  0.15243668351E+03  0.00000000000E+00 0. -1.
         21   -1    0    0  504  502  0.00000000000E+00 -0.00000000000E+00 -0.13748416379E+03  0.13748416379E+03  0.00000000000E+00 0. -1.
         21    1    1    2  503  505  0.76517463775E+02 -0.80384397733E+02 -0.98985015324E+00  0.11098447398E+03  0.00000000000E+00 0. -1.
         21    1    1    2  504  501  0.27961104715E+02  0.39315074083E+02 -0.48379286718E+01  0.48486121529E+02  0.00000000000E+00 0. -1.
         21    1    1    2  505  502 -0.74268549353E+02  0.23404921780E+02 -0.16199955655E+02  0.79536446676E+02  0.00000000000E+00 0. -1.
          3    1    1    2  501    0 -0.30210019137E+02  0.17664401870E+02  0.36980254204E+02  0.50913805109E+02  0.00000000000E+00 0. -1.
<scales pt_clust_3="88.44329" pt_clust_4="48.13124" pt_clust_5="14000.00000" pt_clust_6="34.99538"></scales>
<clustering>
<clus scale="   34.995">  1  6  2 -1</clus>
<clus scale="   48.131">  2  4  1 -1</clus>
<clus scale="   88.443">  1  3  2 -1</clus>
<clus scale="   48.131">  2  3  1 -1</clus>
</clustering>
</event>
<event>
 6    0  0.3522959E+002  0.7647657E+02  0.7546771E-02  0.1339359E+00
          2   -1    0    0  503    0 -0.00000000000E+00  0.00000000000E+00  0.14132421486E+04  0.14132421486E+04  0.00000000000E+00 0. -1.
         21   -1    0    0  504  502  0.00000000000E+00 -0.00000000000E+00 -0.33315752242E+03  0.33315752242E+03  0.00000000000E+00 0. -1.
         21    1    1    2  503  502 -0.76909292991E+02  0.26123313955E+01 -0.16505310099E+03  0.18211092710E+03  0.00000000000E+00 0. -1.
         21    1    1    2  504  505  0.87964896134E+01  0.46478756566E+02 -0.50831247182E+02  0.69436796668E+02  0.00000000000E+00 0. -1.
         21    1    1    2  505  501  0.78715629221E+02  0.30637289853E+01 -0.83246329555E+02  0.11461015707E+03  0.00000000000E+00 0. -1.
          2    1    1    2  501    0 -0.10602825844E+02 -0.52154816947E+02  0.13792153039E+04  0.13802417902E+04  0.00000000000E+00 0. -1.
<scales pt_clust_3="14000.00000" pt_clust_4="47.30384" pt_clust_5="76.47657" pt_clust_6="53.13274"></scales>
<clustering>
<clus scale="   47.304">  2  4  1 -1</clus>
<clus scale="   53.133">  1  6  2 -1</clus>
<clus scale="   76.477">  1  5  2 -1</clus>
<clus scale="   47.304">  2  3  1 -1</clus>
</clustering>
</event>
<event>
 6    0  0.3522959E+002  0.1266713E+03  0.7546771E-02  0.1232480E+00
         21   -1    0    0  503  502  0.00000000000E+00  0.00000000000E+00  0.83000968827E+03  0.83000968827E+03  0.00000000000E+00 0. -1.
          2   -1    0    0  505    0 -0.00000000000E+00 -0.00000000000E+00 -0.20858137033E+04  0.20858137033E+04  0.00000000000E+00 0.  1.
         21    1    1    2  503  501  0.39311197198E+02  0.30978279693E+02  0.24648219975E+03  0.25151242282E+03  0.00000000000E+00 0.  1.
         21    1    1    2  504  502 -0.55212110254E+02 -0.51423850169E+01  0.38635433633E+03  0.39031332855E+03  0.00000000000E+00 0. -1.
         21    1    1    2  505  504 -0.35816913107E+02  0.90129625527E+02  0.17840122005E+03  0.20305958726E+03  0.00000000000E+00 0. -1.
          2    1    1    2  501    0  0.51717826163E+02 -0.11596552020E+03 -0.20670417712E+04  0.20709380530E+04  0.00000000000E+00 0.  1.
<scales pt_clust_3="50.05022" pt_clust_4="32.85692" pt_clust_5="14000.00000" pt_clust_6="126.67128"></scales>
<clustering>
<clus scale="   50.050">  1  3  2 -1</clus>
<clus scale="   32.857">  1  4  2 -1</clus>
<clus scale="  126.671">  2  6  1 -1</clus>
<clus scale="   50.050">  1  3  2 -1</clus>
</clustering>
</event>
<event>
 6    0  0.3522959E+002  0.8591666E+02  0.7546771E-02  0.1313053E+00
          2   -1    0    0  503    0 -0.00000000000E+00  0.00000000000E+00  0.17385644638E+04  0.17385644638E+04  0.00000000000E+00 0.  1.
         21   -1    0    0  504  502  0.00000000000E+00 -0.00000000000E+00 -0.25877036121E+03  0.25877036121E+03  0.00000000000E+00 0. -1.
         21    1    1    2  503  505 -0.31333322378E+02 -0.22311863655E+02  0.96517382418E+02  0.10389995890E+03  0.00000000000E+00 0.  1.
         21    1    1    2  504  501  0.23860981281E+02 -0.55906587587E+02 -0.71317935421E+02  0.93707741815E+02  0.00000000000E+00 0. -1.
         21    1    1    2  505  502  0.37910613860E+02  0.11579292812E+03 -0.15065012606E+03  0.19375416725E+03  0.00000000000E+00 0. -1.
          2    1    1    2  501    0 -0.30438272763E+02 -0.37574476877E+02  0.16052447817E+04  0.16059729571E+04  0.00000000000E+00 0.  1.
<scales pt_clust_3="38.46552" pt_clust_4="60.84235" pt_clust_5="14000.00000" pt_clust_6="85.91666"></scales>
<clustering>
<clus scale="   38.466">  1  3  2 -1</clus>
<clus scale="   60.842">  2  4  1 -1</clus>
<clus scale="   85.917">  1  6  2 -1</clus>
<clus scale="   60.842">  2  3  1 -1</clus>
</clustering>
</event>
<event>
 6    0  0.3522959E+002  0.1876112E+03  0.7546771E-02  0.1160634E+00
         21   -1    0    0  503  502  0.00000000000E+00  0.00000000000E+00  0.12658609863E+03  0.12658609863E+03  0.00000000000E+00 0. -1.
         -3   -1    0    0    0  501 -0.00000000000E+00 -0.00000000000E+00 -0.17709369040E+04  0.17709369040E+04  0.00000000000E+00 0. -1.
         21    1    1    2  503  504 -0.31652475777E+02  0.14861553232E+03  0.41263028004E+02  0.15745187566E+03  0.00000000000E+00 0. -1.
         21    1    1    2  504  501 -0.26117717447E+02 -0.23359410995E+03 -0.67230644602E+03  0.71221085412E+03  0.00000000000E+00 0. -1.
         21    1    1    2  505  502  0.25729960128E+01  0.36059877380E+02 -0.49822870632E+02  0.61556912717E+02  0.00000000000E+00 0.  1.
         -3    1    1    2    0  505  0.55197197211E+02  0.48918700246E+02 -0.96348451677E+03  0.96630336016E+03  0.00000000000E+00 0. -1.
<scales pt_clust_3="187.61122" pt_clust_4="14000.00000" pt_clust_5="36.15156" pt_clust_6="74.05710"></scales>
<clustering>
<clus scale="   36.152">  1  5  2 -1</clus>
<clus scale="   74.057">  2  6  1 -1</clus>
<clus scale="  187.611">  1  3  2 -1</clus>
<clus scale="   36.152">  1  3  2 -1</clus>
</clustering>
</event>
<event>
 6    0  0.3522959E+002  0.1239560E+03  0.7546771E-02  0.1236710E+00
          2   -1    0    0  503    0 -0.00000000000E+00  0.00000000000E+00  0.37175961438E+03  0.37175961438E+03  0.00000000000E+00 0. -1.
         21   -1    0    0  504  502  0.00000000000E+00 -0.00000000000E+00 -0.93575538640E+02  0.93575538640E+02  0.00000000000E+00 0. -1.
         21    1    1    2  503  502 -0.24564255291E+02  0.11245780262E+03 -0.18294956329E+02  0.11655413092E+03  0.00000000000E+00 0. -1.
         21    1    1    2  504  505  0.59187303422E+02 -0.63701428835E+02  0.95708075068E+02  0.12930987803E+03  0.00000000000E+00 0. -1.
         21    1    1    2  505  501 -0.45991275708E+01 -0.37007151108E+02  0.36913053989E+02  0.52471466173E+02  0.00000000000E+00 0.  1.
          2    1    1    2  501    0 -0.30023920560E+02 -0.11749222675E+02  0.16385790301E+03  0.16699967790E+03  0.00000000000E+00 0. -1.
<scales pt_clust_3="114.15379" pt_clust_4="31.63829" pt_clust_5="31.63829" pt_clust_6="32.24097"></scales>
<clustering>
<clus scale="   31.638">  4  5 -1 -1</clus>
<clus scale="   32.241">  1  6  2 -1</clus>
<clus scale="  114.154">  2  3  1 -1</clus>
<clus scale="  114.154">  2  3  1 -1</clus>
</clustering>
</event>
<event>
 6    0  0.3522959E+002  0.5233100E+02  0.7546771E-02  0.1433160E+00
          1   -1    0    0  504    0 -0.00000000000E+00  0.00000000000E+00  0.29490917819E+04  0.29490917819E+04  0.00000000000E+00 0. -1.
         21   -1    0    0  503  502  0.00000000000E+00 -0.00000000000E+00 -0.34773306574E+02  0.34773306574E+02  0.00000000000E+00 0. -1.
         21    1    1    2  503  501  0.24114734539E+02 -0.43120316115E+02  0.55470780437E+02  0.74282498383E+02  0.00000000000E+00 0. -1.
         21    1    1    2  504  505 -0.45384027606E+02 -0.24193006953E+02  0.66523981948E+03  0.66722487137E+03  0.00000000000E+00 0. -1.
         21    1    1    2  505  502 -0.34926027580E+02  0.92271249812E+02  0.77769446120E+02  0.12562602316E+03  0.00000000000E+00 0. -1.
          1    1    1    2  501    0  0.56195320647E+02 -0.24957926744E+02  0.21158384293E+04  0.21167316956E+04  0.00000000000E+00 0. -1.
<scales pt_clust_3="49.40528" pt_clust_4="51.42704" pt_clust_5="14000.00000" pt_clust_6="52.33100"></scales>
<clustering>
<clus scale="   49.405">  2  3  1 -1</clus>
<clus scale="   51.427">  1  4  2 -1</clus>
<clus scale="   52.331">  1  6  2 -1</clus>
<clus scale="   49.405">  2  3  1 -1</clus>
</clustering>
</event>
<event>
 6    0  0.3522959E+002  0.4093347E+03  0.7546771E-02  0.1040594E+00
         21   -1    0    0  503  502  0.00000000000E+00  0.00000000000E+00  0.21968256987E+03  0.21968256987E+03  0.00000000000E+00 0.  1.
          2   -1    0    0  504    0 -0.00000000000E+00 -0.00000000000E+00 -0.25419969561E+04  0.25419969561E+04  0.00000000000E+00 0.  1.
         21    1    1    2  503  505  0.31777349102E+03 -0.14507148987E+03 -0.73939758702E+02  0.35706136263E+03  0.00000000000E+00 0.  1.
         21    1    1    2  504  502 -0.18540408881E+03  0.12361907935E+03 -0.17538077251E+04  0.17679077718E+04  0.00000000000E+00 0.  1.
         21    1    1    2  505  501  0.36937976618E+02 -0.53059702707E+02  0.36574688352E+02  0.74279566477E+02  0.00000000000E+00 0.  1.
          2    1    1    2  501    0 -0.16930737883E+03  0.74512113225E+02 -0.53114159078E+03  0.56243082508E+03  0.00000000000E+00 0.  1.
<scales pt_clust_3="60.20193" pt_clust_4="384.67161" pt_clust_5="60.20193" pt_clust_6="184.97849"></scales>
<clustering>
<clus scale="   60.202">  3  5 -1 -1</clus>
<clus scale="  184.978">  2  6  1 -1</clus>
<clus scale="  384.672">  2  4  1 -1</clus>
<clus scale="  409.335">  1  3  2 -1</clus>
</clustering>
</event>
<event>
 6    0  0.3522959E+002  0.8377856E+02  0.7546771E-02  0.1318658E+00
         21   -1    0    0  504  502  0.00000000000E+00  0.00000000000E+00  0.35097605665E+03  0.35097605665E+03  0.00000000000E+00 0.  1.
          2   -1    0    0  503    0 -0.00000000000E+00 -0.00000000000E+00 -0.10059309220E+03  0.10059309220E+03  0.00000000000E+00 0.  1.
         21    1    1    2  503  505  0.16291012996E+01 -0.64701804397E+02  0.19474869100E+03  0.20522190456E+03  0.00000000000E+00 0.  1.
         21    1    1    2  504  501  0.57811094386E+02  0.10543425066E+03  0.69836785928E+01  0.12044615233E+03  0.00000000000E+00 0.  1.
         21    1    1    2  505  502 -0.25577434511E+02 -0.15875365000E+02  0.71858747915E+02  0.77909640109E+02  0.00000000000E+00 0.  1.
          2    1    1    2  501    0 -0.33862761175E+02 -0.24857081257E+02 -0.23208153058E+02  0.47991451857E+02  0.00000000000E+00 0.  1.
<scales pt_clust_3="14000.00000" pt_clust_4="83.77856" pt_clust_5="30.10369" pt_clust_6="43.35385"></scales>
<clustering>
<clus scale="   30.104">  1  5  2 -1</clus>
<clus scale="   43.354">  2  6  1 -1</clus>
<clus scale="   83.779">  2  4  1 -1</clus>
<clus scale="   30.104">  1  3  2 -1</clus>
</clustering>
</event>
<event>
 6    0  0.3522959E+002  0.8749142E+02  0.7546771E-02  0.1309043E+00
         21   -1    0    0  505  502  0.00000000000E+00  0.00000000000E+00  0.80040328005E+01  0.80040328005E+01  0.00000000000E+00 0. -1.
          1   -1    0    0  503    0 -0.00000000000E+00 -0.00000000000E+00 -0.34512194679E+04  0.34512194679E+04  0.00000000000E+00 0. -1.
         21    1    1    2  503  502  0.97803533954E+02 -0.60436079584E+02 -0.14043365690E+04  0.14090348647E+04  0.00000000000E+00 0. -1.
         21    1    1    2  504  501 -0.67807082891E+02  0.17430052237E+02 -0.45589065702E+03  0.46123518770E+03  0.00000000000E+00 0. -1.
         21    1    1    2  505  504  0.57713200877E+01  0.46287692771E+02 -0.19503465725E+03  0.20053522425E+03  0.00000000000E+00 0. -1.
          1    1    1    2  501    0 -0.35767771151E+02 -0.32816654252E+01 -0.13879535519E+04  0.13884182241E+04  0.00000000000E+00 0. -1.
<scales pt_clust_3="87.49142" pt_clust_4="14000.00000" pt_clust_5="46.03270" pt_clust_6="35.91800"></scales>
<clustering>
<clus scale="   35.918">  2  6  1 -1</clus>
<clus scale="   46.033">  1  5  2 -1</clus>
<clus scale="   87.491">  2  3  1 -1</clus>
<clus scale="   46.033">  1  3  2 -1</clus>
</clustering>
</event>
<event>
 6    0  0.3522959E+002  0.1390194E+03  0.7546771E-02  0.1214655E+00
          1   -1    0    0  502    0 -0.00000000000E+00  0.00000000000E+00  0.17882978379E+03  0.17882978379E+03  0.00000000000E+00 0. -1.
         21   -1    0    0  504  502  0.00000000000E+00 -0.00000000000E+00 -0.19195142649E+03  0.19195142649E+03  0.00000000000E+00 0.  1.
         21    1    1    2  503  505 -0.24598974786E+02 -0.49359442994E+02 -0.21319651369E+02  0.59126911873E+02  0.00000000000E+00 0. -1.
         21    1    1    2  504  503 -0.68811615152E+02 -0.29069700395E+02 -0.85836451189E+02  0.11378920078E+03  0.00000000000E+00 0.  1.
         21    1    1    2  505  501  0.86759038748E+02  0.11082461356E+03  0.71677087646E+02  0.15794565733E+03  0.00000000000E+00 0. -1.
          1    1    1    2  501    0  0.66515511898E+01 -0.32395470175E+02  0.22357372219E+02  0.39919440297E+02  0.00000000000E+00 0. -1.
<scales pt_clust_3="52.44008" pt_clust_4="52.44008" pt_clust_5="125.64038" pt_clust_6="33.07128"></scales>
<clustering>
<clus scale="   33.071">  1  6  2 -1</clus>
<clus scale="   52.440">  3  4 -1 -1</clus>
<clus scale="  125.640">  1  5  2 -1</clus>
<clus scale="  139.019">  2  3  1 -1</clus>
</clustering>
</event>
<event>
 6    0  0.3522959E+002  0.1975220E+03  0.7546771E-02  0.1151847E+00
         21   -1    0    0  504  502  0.00000000000E+00  0.00000000000E+00  0.16534372745E+03  0.16534372745E+03  0.00000000000E+00 0. -1.
          3   -1    0    0  502    0 -0.00000000000E+00 -0.00000000000E+00 -0.12217574951E+04  0.12217574951E+04  0.00000000000E+00 0. -1.
         21    1    1    2  503  505  0.70417879085E+02  0.15122286567E+02 -0.21428308853E+02  0.75143420645E+02  0.00000000000E+00 0.  1.
         21    1    1    2  504  503  0.76006897904E+02 -0.17371647870E+02  0.10289314481E+03  0.12909617318E+03  0.00000000000E+00 0. -1.
         21    1    1    2  505  501  0.60257783443E+02  0.19824098736E+02 -0.67738114666E+02  0.92803273297E+02  0.00000000000E+00 0. -1.
          3    1    1    2  501    0 -0.20668256043E+03 -0.17574737433E+02 -0.10701404890E+04  0.10900583555E+04  0.00000000000E+00 0. -1.
<scales pt_clust_3="41.52800" pt_clust_4="77.96680" pt_clust_5="41.52800" pt_clust_6="192.50164"></scales>
<clustering>
<clus scale="   41.528">  3  5 -1 -1</clus>
<clus scale="   77.967">  1  4  2 -1</clus>
<clus scale="  192.502">  2  6  1 -1</clus>
<clus scale="   77.967">  1  3  2 -1</clus>
</clustering>
</event>
<event>
 6    0  0.3522959E+002  0.1338682E+03  0.7546771E-02  0.1221826E+00
         21   -1    0    0  503  502  0.00000000000E+00  0.00000000000E+00  0.39420247755E+02  0.39420247755E+02  0.00000000000E+00 0.  1.
          2   -1    0    0  504    0 -0.00000000000E+00 -0.00000000000E+00 -0.22949454595E+04  0.22949454595E+04  0.00000000000E+00 0.  1.
         21    1    1    2  503  501 -0.77572777358E+01  0.14615096000E+03 -0.22865005893E+03  0.27147951656E+03  0.00000000000E+00 0.  1.
         21    1    1    2  504  505  0.36338618381E+02 -0.44775755804E+02 -0.17956995797E+03  0.18860205009E+03  0.00000000000E+00 0.  1.
         21    1    1    2  505  502  0.62775627067E+02 -0.19618666822E+02 -0.83823217247E+02  0.10654577979E+03  0.00000000000E+00 0.  1.
          2    1    1    2  501    0 -0.91356967713E+02 -0.81756537370E+02 -0.17634819776E+04  0.17677383608E+04  0.00000000000E+00 0.  1.
<scales pt_clust_3="118.97346" pt_clust_4="57.46278" pt_clust_5="57.46278" pt_clust_6="122.59783"></scales>
<clustering>
<clus scale="   57.463">  4  5 -1 -1</clus>
<clus scale="  122.598">  2  6  1 -1</clus>
<clus scale="  118.973">  2  3  1 -1</clus>
<clus scale="  133.868">  1  3  2 -1</clus>
</clustering>
</event>
<event>
 6    0  0.3522959E+002  0.1158648E+03  0.7546771E-02  0.1250079E+00
         21   -1    0    0  504  502  0.00000000000E+00  0.00000000000E+00  0.18825517636E+03  0.18825517636E+03  0.00000000000E+00 0. -1.
         -2   -1    0    0    0  501 -0.00000000000E+00 -0.00000000000E+00 -0.27475724046E+03  0.27475724046E+03  0.00000000000E+00 0.  1.
         21    1    1    2  503  502 -0.10991832698E+03  0.39766157805E+02 -0.60105374105E+02  0.13143835783E+03  0.00000000000E+00 0.  1.
         21    1    1    2  504  505  0.57559105865E+02 -0.26412401754E+02  0.70397933745E+02  0.94691787975E+02  0.00000000000E+00 0. -1.
         21    1    1    2  505  501  0.10605654358E+03  0.19979376174E+01  0.19518193201E+02  0.10785611738E+03  0.00000000000E+00 0. -1.
         -2    1    1    2    0  503 -0.53697322458E+02 -0.15351693669E+02 -0.11631281694E+03  0.12902615364E+03  0.00000000000E+00 0.  1.
<scales pt_clust_3="115.86478" pt_clust_4="60.01353" pt_clust_5="14000.00000" pt_clust_6="55.84870"></scales>
<clustering>
<clus scale="   55.849">  2  6  1 -1</clus>
<clus scale="   60.014">  1  4  2 -1</clus>
<clus scale="  115.865">  1  3  2 -1</clus>
<clus scale="   60.014">  1  3  2 -1</clus>
</clustering>
</event>
<event>
 6    0  0.3522959E+002  0.1530716E+03  0.7546771E-02  0.1196749E+00
         21   -1    0    0  504  502  0.00000000000E+00  0.00000000000E+00  0.63677144860E+03  0.63677144860E+03  0.00000000000E+00 0. -1.
         -3   -1    0    0    0  501 -0.00000000000E+00 -0.00000000000E+00 -0.69767964938E+03  0.69767964938E+03  0.00000000000E+00 0. -1.
         21    1    1    2  503  502  0.15424677171E+03  0.48037776060E+02  0.58203615610E+03  0.60404120847E+03  0.00000000000E+00 0. -1.
         21    1    1    2  504  501 -0.10290371317E+03  0.25717753481E+02 -0.44064382300E+02  0.11485750657E+03  0.00000000000E+00 0. -1.
         21    1    1    2  505  503 -0.63067963431E+02 -0.44751708469E+02 -0.18527952925E+03  0.20077048434E+03  0.00000000000E+00 0. -1.
         -3    1    1    2    0  505  0.11724904892E+02 -0.29003821072E+02 -0.41360044533E+03  0.41478189860E+03  0.00000000000E+00 0. -1.
<scales pt_clust_3="153.07160" pt_clust_4="14000.00000" pt_clust_5="84.82088" pt_clust_6="31.28410"></scales>
<clustering>
<clus scale="   31.284">  2  6  1 -1</clus>
<clus scale="   84.821">  2  5  1 -1</clus>
<clus scale="  153.072">  1  3  2 -1</clus>
<clus scale="  153.072">  1  3  2 -1</clus>
</clustering>
</event>
<event>
 6    0  0.3522959E+002  0.8700171E+02  0.7546771E-02  0.1310279E+00
          2   -1    0    0  504    0 -0.00000000000E+00  0.00000000000E+00  0.28148709483E+04  0.28148709483E+04  0.00000000000E+00 0. -1.
         21   -1    0    0  503  502  0.00000000000E+00 -0.00000000000E+00 -0.82278541685E+02  0.82278541685E+02  0.00000000000E+00 0.  1.
         21    1    1    2  503  505  0.26226988562E+02  0.19225738579E+02 -0.58974283214E+02  0.67345749929E+02  0.00000000000E+00 0.  1.
         21    1    1    2  504  502 -0.12958461096E+02 -0.56644207596E+02  0.55500992016E+02  0.80354515012E+02  0.00000000000E+00 0.  1.
         21    1    1    2  505  501 -0.75362673988E+02 -0.26338033369E+02  0.26458158066E+03  0.27636323464E+03  0.00000000000E+00 0.  1.
          2    1    1    2  501    0  0.62094146522E+02  0.63756502386E+02  0.24714841172E+04  0.24730859904E+04  0.00000000000E+00 0. -1.
<scales pt_clust_3="32.51898" pt_clust_4="44.33669" pt_clust_5="87.00171" pt_clust_6="14000.00000"></scales>
<clustering>
<clus scale="   32.519">  2  3  1 -1</clus>
<clus scale="   44.337">  2  4  1 -1</clus>
<clus scale="   87.002">  2  5  1 -1</clus>
<clus scale="   32.519">  2  3  1 -1</clus>
</clustering>
</event>
<event>
 6    0  0.3522959E+002  0.1043485E+03  0.7546771E-02  0.1271409E+00
         21   -1    0    0  503  502  0.00000000000E+00  0.00000000000E+00  0.12953627823E+03  0.12953627823E+03  0.00000000000E+00 0. -1.
          2   -1    0    0  505    0 -0.00000000000E+00 -0.00000000000E+00 -0.16424987605E+04  0.16424987605E+04  0.00000000000E+00 0.  1.
         21    1    1    2  503  504 -0.12931707324E+03  0.26648038550E+02  0.52388396850E+02  0.14204776491E+03  0.00000000000E+00 0. -1.
         21    1    1    2  504  501  0.71798083063E+02 -0.14685263974E+02 -0.23606872892E+02  0.76992896797E+02  0.00000000000E+00 0. -1.
         21    1    1    2  505  502  0.33620509612E+02  0.46479960448E+02 -0.16289782796E+03  0.17270329396E+03  0.00000000000E+00 0. -1.
          2    1    1    2  501    0  0.23898480569E+02 -0.58442735023E+02 -0.13788461783E+04  0.13802910831E+04  0.00000000000E+00 0.  1.
<scales pt_clust_3="104.34846" pt_clust_4="14000.00000" pt_clust_5="57.36484" pt_clust_6="57.33655"></scales>
<clustering>
<clus scale="   57.365">  2  5  1 -1</clus>
<clus scale="   57.337">  2  6  1 -1</clus>
<clus scale="  104.348">  1  3  2 -1</clus>
<clus scale="  104.348">  1  3  2 -1</clus>
</clustering>
</event>
<event>
 6    0  0.3522959E+002  0.2222833E+03  0.7546771E-02  0.1132192E+00
         21   -1    0    0  504  502  0.00000000000E+00  0.00000000000E+00  0.17372220429E+03  0.17372220429E+03  0.00000000000E+00 0. -1.
          1   -1    0    0  503    0 -0.00000000000E+00 -0.00000000000E+00 -0.21249816740E+04  0.21249816740E+04  0.00000000000E+00 0.  1.
         21    1    1    2  503  505 -0.64377001393E+01  0.85805499881E+02  0.40623253450E+02  0.95153962155E+02  0.00000000000E+00 0. -1.
         21    1    1    2  504  501  0.78137679812E+02 -0.18644535343E+03 -0.38677362335E+03  0.43641860930E+03  0.00000000000E+00 0. -1.
         21    1    1    2  505  502 -0.36753039129E+02  0.13301789749E+03  0.21636886705E+02  0.13968787279E+03  0.00000000000E+00 0. -1.
          1    1    1    2  501    0 -0.34946940543E+02 -0.32378043939E+02 -0.16267459865E+04  0.16274434340E+04  0.00000000000E+00 0.  1.
<scales pt_clust_3="30.83855" pt_clust_4="218.82551" pt_clust_5="30.83855" pt_clust_6="47.64060"></scales>
<clustering>
<clus scale="   30.839">  3  5 -1 -1</clus>
<clus scale="   47.641">  2  6  1 -1</clus>
<clus scale="  218.826">  2  4  1 -1</clus>
<clus scale="  222.283">  1  3  2 -1</clus>
</clustering>
</event>
<event>
 6    0  0.3522959E+002  0.1410328E+03  0.7546771E-02  0.1211946E+00
          2   -1    0    0  503    0 -0.00000000000E+00  0.00000000000E+00  0.18463113464E+04  0.18463113464E+04  0.00000000000E+00 0.  1.
         21   -1    0    0  504  502  0.00000000000E+00 -0.00000000000E+00 -0.16734108937E+03  0.16734108937E+03  0.00000000000E+00 0. -1.
         21    1    1    2  503  505  0.28037278369E+02 -0.20402434146E+03  0.95710379209E+03  0.97900954527E+03  0.00000000000E+00 0.  1.
         21    1    1    2  504  501  0.20716154861E+02  0.33023351082E+02 -0.19042721141E+02  0.43385781281E+02  0.00000000000E+00 0.  1.
         21    1    1    2  505  502 -0.89325273388E+02  0.89163859321E+02 -0.90208766896E+02  0.15513484425E+03  0.00000000000E+00 0. -1.
          2    1    1    2  501    0  0.40571840158E+02  0.81837131059E+02  0.83111795300E+03  0.83612226501E+03  0.00000000000E+00 0.  1.
<scales pt_clust_3="141.03282" pt_clust_4="38.98334" pt_clust_5="14000.00000" pt_clust_6="92.05516"></scales>
<clustering>
<clus scale="   38.983">  2  4  1 -1</clus>
<clus scale="   92.055">  1  6  2 -1</clus>
<clus scale="  141.033">  1  3  2 -1</clus>
<clus scale="   38.983">  2  3  1 -1</clus>
</clustering>
</event>
<event>
 6    0  0.3522959E+002  0.1001399E+03  0.7546771E-02  0.1280002E+00
         21   -1    0    0  501  502  0.00000000000E+00  0.00000000000E+00  0.15579390849E+02  0.15579390849E+02  0.00000000000E+00 0. -1.
          2   -1    0    0  503    0 -0.00000000000E+00 -0.00000000000E+00 -0.16153320957E+04  0.16153320957E+04  0.00000000000E+00 0. -1.
         21    1    1    2  503  505  0.47280646105E+02  0.35673707360E+02 -0.62757602280E+03  0.63036476527E+03  0.00000000000E+00 0. -1.
         21    1    1    2  504  502 -0.33131436674E+02  0.45498224366E+02 -0.10647528096E+03  0.12043573378E+03  0.00000000000E+00 0. -1.
         21    1    1    2  505  504  0.22048183007E+01  0.35730698161E+02 -0.12358562968E+03  0.12866604788E+03  0.00000000000E+00 0. -1.
          2    1    1    2  501    0 -0.16354027731E+02 -0.11690262989E+03 -0.74211577140E+03  0.75144493961E+03  0.00000000000E+00 0. -1.
<scales pt_clust_3="59.22899" pt_clust_4="31.59129" pt_clust_5="31.59129" pt_clust_6="91.97235"></scales>
<clustering>
<clus scale="   31.591">  4  5 -1 -1</clus>
<clus scale="   59.229">  2  3  1 -1</clus>
<clus scale="   91.972">  2  6  1 -1</clus>
<clus scale="  100.140">  1  3  2 -1</clus>
</clustering>
</event>
<event>
 6    0  0.3522959E+002  0.1077938E+03  0.7546771E-02  0.1264711E+00
         21   -1    0    0  503  502  0.00000000000E+00  0.00000000000E+00  0.19556793313E+02  0.19556793313E+02  0.00000000000E+00 0. -1.
          2   -1    0    0  504    0 -0.00000000000E+00 -0.00000000000E+00 -0.21874212622E+04  0.21874212622E+04  0.00000000000E+00 0. -1.
         21    1    1    2  503  505  0.49212351287E+02 -0.28044476295E+02 -0.75543758516E+02  0.94420377147E+02  0.00000000000E+00 0. -1.
         21    1    1    2  504  502  0.79919418626E+02 -0.21413264623E+02 -0.54903163993E+03  0.55523092765E+03  0.00000000000E+00 0. -1.
         21    1    1    2  505  501 -0.14731631381E+03  0.22094943769E+02 -0.82865580630E+03  0.84193867245E+03  0.00000000000E+00 0. -1.
          2    1    1    2  501    0  0.18184543899E+02  0.27362797149E+02 -0.71463326415E+03  0.71538807828E+03  0.00000000000E+00 0. -1.
<scales pt_clust_3="56.80374" pt_clust_4="14000.00000" pt_clust_5="107.79377" pt_clust_6="32.85423"></scales>
<clustering>
<clus scale="   32.854">  2  6  1 -1</clus>
<clus scale="   56.804">  1  3  2 -1</clus>
<clus scale="  107.794">  1  5  2 -1</clus>
<clus scale="   56.804">  1  3  2 -1</clus>
</clustering>
</event>
<event>
 6    0  0.3522959E+002  0.1046143E+03  0.7546771E-02  0.1270881E+00
         -1   -1    0    0    0  501 -0.00000000000E+00  0.00000000000E+00  0.44906455762E+03  0.44906455762E+03  0.00000000000E+00 0. -1.
         21   -1    0    0  505  502  0.00000000000E+00 -0.00000000000E+00 -0.21354525045E+03  0.21354525045E+03  0.00000000000E+00 0.  1.
         21    1    1    2  503  502  0.44216407059E+02  0.53334723115E+02 -0.13092191821E+03  0.14812235486E+03  0.00000000000E+00 0.  1.
         21    1    1    2  504  501  0.56679349953E+02  0.21677663959E+02 -0.19608830786E+02  0.63772847441E+02  0.00000000000E+00 0.  1.
         21    1    1    2  505  504 -0.35672654926E+02  0.90338065033E+01 -0.11990011224E+02  0.38702820808E+02  0.00000000000E+00 0.  1.
         -1    1    1    2    0  503 -0.65223102087E+02 -0.84046193577E+02  0.39804006739E+03  0.41201178496E+03  0.00000000000E+00 0. -1.
<scales pt_clust_3="104.61428" pt_clust_4="54.22066" pt_clust_5="36.79875" pt_clust_6="14000.00000"></scales>
<clustering>
<clus scale="   36.799">  2  5  1 -1</clus>
<clus scale="   54.221">  2  4  1 -1</clus>
<clus scale="  104.614">  2  3  1 -1</clus>
<clus scale="   36.799">  2  3  1 -1</clus>
</clustering>
</event>
<event>
 6    0  0.3522959E+002  0.1062790E+03  0.7546771E-02  0.1267620E+00
         21   -1    0    0  505  502  0.00000000000E+00  0.00000000000E+00  0.15328384395E+03  0.15328384395E+03  0.00000000000E+00 0. -1.
          2   -1    0    0  504    0 -0.00000000000E+00 -0.00000000000E+00 -0.22592493069E+04  0.22592493069E+04  0.00000000000E+00 0. -1.
         21    1    1    2  503  501 -0.19149469785E+03  0.76894439806E+02 -0.45329316342E+03  0.49805387879E+03  0.00000000000E+00 0.  1.
         21    1    1    2  504  502  0.59684386196E+02 -0.46282488809E+02 -0.65854909630E+02  0.10020560787E+03  0.00000000000E+00 0.  1.
         21    1    1    2  505  503  0.81907548105E+02 -0.60380527514E+02  0.90361989420E+02  0.13608799973E+03  0.00000000000E+00 0. -1.
          2    1    1    2  501    0  0.49902763544E+02  0.29768576517E+02 -0.16771793794E+04  0.16781856645E+04  0.00000000000E+00 0. -1.
<scales pt_clust_3="106.27900" pt_clust_4="78.93141" pt_clust_5="14000.00000" pt_clust_6="58.10726"></scales>
<clustering>
<clus scale="   58.107">  2  6  1 -1</clus>
<clus scale="   78.931">  2  4  1 -1</clus>
<clus scale="  106.279">  2  3  1 -1</clus>
<clus scale="  106.279">  1  3  2 -1</clus>
</clustering>
</event>
<event>
 6    0  0.3522959E+002  0.2253030E+03  0.7546771E-02  0.1129990E+00
         21   -1    0    0  505  502  0.00000000000E+00  0.00000000000E+00  0.11026576204E+03  0.11026576204E+03  0.00000000000E+00 0. -1.
          2   -1    0    0  504    0 -0.00000000000E+00 -0.00000000000E+00 -0.10605505105E+04  0.10605505105E+04  0.00000000000E+00 0. -1.
         21    1    1    2  503  502  0.20675683030E+03 -0.45102310111E+02 -0.23059952317E+03  0.31298361832E+03  0.00000000000E+00 0. -1.
         21    1    1    2  504  503 -0.29163400413E+02 -0.10742093908E+02 -0.17489980801E+03  0.17763963338E+03  0.00000000000E+00 0. -1.
         21    1    1    2  505  501 -0.21439293071E+03  0.10649261036E+03 -0.15448758238E+03  0.28490598083E+03  0.00000000000E+00 0. -1.
          2    1    1    2  501    0  0.36799500826E+02 -0.50648206342E+02 -0.39029783493E+03  0.39528704004E+03  0.00000000000E+00 0. -1.
<scales pt_clust_3="14000.00000" pt_clust_4="31.07888" pt_clust_5="225.30298" pt_clust_6="60.33200"></scales>
<clustering>
<clus scale="   31.079">  2  4  1 -1</clus>
<clus scale="   60.332">  2  6  1 -1</clus>
<clus scale="  225.303">  1  5  2 -1</clus>
<clus scale="  225.303">  1  3  2 -1</clus>
</clustering>
</event>
<event>
 6    0  0.3522959E+002  0.1960759E+03  0.7546771E-02  0.1153093E+00
          1   -1    0    0  503    0 -0.00000000000E+00  0.00000000000E+00  0.10269203289E+04  0.10269203289E+04  0.00000000000E+00 0. -1.
         21   -1    0    0  504  502  0.00000000000E+00 -0.00000000000E+00 -0.38115332635E+03  0.38115332635E+03  0.00000000000E+00 0. -1.
         21    1    1    2  503  505  0.12389018939E+03  0.20738155142E+03  0.88419127070E+03  0.91659701618E+03  0.00000000000E+00 0. -1.
         21    1    1    2  504  501 -0.42153819158E+02 -0.41470320152E+02 -0.10760411555E+02  0.60104229302E+02  0.00000000000E+00 0. -1.
         21    1    1    2  505  502 -0.52634074875E+02 -0.13128252148E+03 -0.30814215290E+03  0.33905314138E+03  0.00000000000E+00 0. -1.
          1    1    1    2  501    0 -0.29102295358E+02 -0.34628709791E+02  0.80478296265E+02  0.92319268338E+02  0.00000000000E+00 0. -1.
<scales pt_clust_3="196.07595" pt_clust_4="60.31454" pt_clust_5="14000.00000" pt_clust_6="45.23374"></scales>
<clustering>
<clus scale="   45.234">  1  6  2 -1</clus>
<clus scale="   60.315">  2  4  1 -1</clus>
<clus scale="  196.076">  1  3  2 -1</clus>
<clus scale="   60.315">  2  3  1 -1</clus>
</clustering>
</event>
<event>
 6    0  0.3522959E+002  0.9609677E+02  0.7546771E-02  0.1288725E+00
          1   -1    0    0  505    0 -0.00000000000E+00  0.00000000000E+00  0.73585742768E+03  0.73585742768E+03  0.00000000000E+00 0. -1.
         21   -1    0    0  503  502  0.00000000000E+00 -0.00000000000E+00 -0.75012565818E+02  0.75012565818E+02  0.00000000000E+00 0.  1.
         21    1    1    2  503  501  0.36500871288E+02 -0.42175776844E+02  0.47173644921E+02  0.73051095353E+02  0.00000000000E+00 0. -1.
         21    1    1    2  504  502  0.74269187342E+02  0.69178506835E+02  0.10084333270E+01  0.10150169917E+03  0.00000000000E+00 0.  1.
         21    1    1    2  505  504 -0.60758623764E+02 -0.51592433872E+02  0.14602305153E+03  0.16636141732E+03  0.00000000000E+00 0.  1.
          1    1    1    2  501    0 -0.50011434866E+02  0.24589703881E+02  0.46663973208E+03  0.46995578165E+03  0.00000000000E+00 0. -1.
<scales pt_clust_3="44.51545" pt_clust_4="96.09677" pt_clust_5="14000.00000" pt_clust_6="55.72968"></scales>
<clustering>
<clus scale="   55.730">  1  6  2 -1</clus>
<clus scale="   44.515">  1  3  2 -1</clus>
<clus scale="   96.097">  2  4  1 -1</clus>
<clus scale="   96.097">  2  3  1 -1</clus>
</clustering>
</event>
<event>
 6    0  0.4403943E+002  0.6132572E+02  0.7546771E-02  0.1392351E+00
          2   -1    0    0  503    0 -0.00000000000E+00  0.00000000000E+00  0.60735674105E+03  0.60735674105E+03  0.00000000000E+00 0. -1.
         21   -1    0    0  505  502  0.00000000000E+00 -0.00000000000E+00 -0.14389332972E+04  0.14389332972E+04  0.00000000000E+00 0.  1.
         21    1    1    2  503  502  0.44754154753E+02  0.52387972197E+01 -0.48287742793E+02  0.66046085940E+02  0.00000000000E+00 0.  1.
         21    1    1    2  504  501  0.45009183633E+02 -0.42936674638E+02 -0.14779213089E+02  0.63935981886E+02  0.00000000000E+00 0.  1.
         21    1    1    2  505  504 -0.10944658729E+03 -0.81220298367E+01 -0.13390762996E+04  0.13435660978E+04  0.00000000000E+00 0.  1.
          2    1    1    2  501    0  0.19683248908E+02  0.45819907255E+02  0.57056669940E+03  0.57274187262E+03  0.00000000000E+00 0. -1.
<scales pt_clust_3="45.05973" pt_clust_4="14000.00000" pt_clust_5="61.32572" pt_clust_6="49.88647"></scales>
<clustering>
<clus scale="   45.060">  2  3  1 -1</clus>
<clus scale="   49.886">  1  6  2 -1</clus>
<clus scale="   61.326">  2  5  1 -1</clus>
<clus scale="   45.060">  2  3  1 -1</clus>
</clustering>
</event>
<event>
 6    0  0.3522959E+002  0.1526350E+03  0.7546771E-02  0.1197272E+00
         -3   -1    0    0    0  501 -0.00000000000E+00  0.00000000000E+00  0.48620159367E+03  0.48620159367E+03  0.00000000000E+00 0.  1.
         21   -1    0    0  504  502  0.00000000000E+00 -0.00000000000E+00 -0.48705366699E+03  0.48705366699E+03  0.00000000000E+00 0. -1.
         21    1    1    2  503  502 -0.88110687364E+02 -0.11904410694E+03  0.76953981933E+02  0.16690388839E+03  0.00000000000E+00 0.  1.
         21    1    1    2  504  505 -0.17285096296E+02  0.92510674328E+02 -0.23115383172E+03  0.24957783022E+03  0.00000000000E+00 0.  1.
         21    1    1    2  505  501  0.16947286769E+02  0.57904694532E+02 -0.19077258569E+03  0.20008584065E+03  0.00000000000E+00 0. -1.
         -3    1    1    2    0  503  0.88448496891E+02 -0.31371261918E+02  0.34412036216E+03  0.35668770140E+03  0.00000000000E+00 0.  1.
<scales pt_clust_3="147.46808" pt_clust_4="31.52906" pt_clust_5="31.52906" pt_clust_6="93.84718"></scales>
<clustering>
<clus scale="   31.529">  4  5 -1 -1</clus>
<clus scale="   93.847">  1  6  2 -1</clus>
<clus scale="  147.468">  1  3  2 -1</clus>
<clus scale="  152.635">  2  3  1 -1</clus>
</clustering>
</event>
<event>
 6    0  0.3522959E+002  0.7108951E+02  0.7546771E-02  0.1356427E+00
          1   -1    0    0  504    0 -0.00000000000E+00  0.00000000000E+00  0.12846551486E+04  0.12846551486E+04  0.00000000000E+00 0. -1.
         21   -1    0    0  505  502  0.00000000000E+00 -0.00000000000E+00 -0.60833101212E+02  0.60833101212E+02  0.00000000000E+00 0. -1.
         21    1    1    2  503  501 -0.82065723977E+02  0.11705164221E+02  0.18874970112E+03  0.20615102133E+03  0.00000000000E+00 0.  1.
         21    1    1    2  504  502  0.75854193731E+02  0.92727002291E+02  0.61204499917E+03  0.62365955190E+03  0.00000000000E+00 0.  1.
         21    1    1    2  505  503  0.48443758990E+02 -0.52944418824E+02 -0.14414421615E+02  0.73196207689E+02  0.00000000000E+00 0. -1.
          1    1    1    2  501    0 -0.42232228744E+02 -0.51487747688E+02  0.43744176873E+03  0.44248146892E+03  0.00000000000E+00 0. -1.
<scales pt_clust_3="71.08951" pt_clust_4="71.09144" pt_clust_5="14000.00000" pt_clust_6="66.59241"></scales>
<clustering>
<clus scale="   66.592">  1  6  2 -1</clus>
<clus scale="   71.091">  1  4  2 -1</clus>
<clus scale="   71.090">  1  3  2 -1</clus>
<clus scale="   71.090">  2  3  1 -1</clus>
</clustering>
</event>
<event>
 6    0  0.3522959E+002  0.1636861E+03  0.7546771E-02  0.1184597E+00
          2   -1    0    0  505    0 -0.00000000000E+00  0.00000000000E+00  0.35378461874E+04  0.35378461874E+04  0.00000000000E+00 0. -1.
         21   -1    0    0  503  502  0.00000000000E+00 -0.00000000000E+00 -0.23875440552E+03  0.23875440552E+03  0.00000000000E+00 0. -1.
         21    1    1    2  503  504  0.17248118738E+02  0.57355768117E+02  0.14480968312E+03  0.15670681562E+03  0.00000000000E+00 0. -1.
         21    1    1    2  504  501 -0.15527655079E+02  0.98485719517E+02  0.16473823598E+03  0.19255968274E+03  0.00000000000E+00 0. -1.
         21    1    1    2  505  502 -0.58775531306E+02 -0.14759228334E+03 -0.18977500505E+03  0.24749262155E+03  0.00000000000E+00 0. -1.
          2    1    1    2  501    0  0.57055067647E+02 -0.82492042905E+01  0.31793188678E+04  0.31798414730E+04  0.00000000000E+00 0. -1.
<scales pt_clust_3="33.58477" pt_clust_4="33.58477" pt_clust_5="157.84646" pt_clust_6="57.64833"></scales>
<clustering>
<clus scale="   33.585">  3  4 -1 -1</clus>
<clus scale="   57.648">  1  6  2 -1</clus>
<clus scale="  157.846">  2  5  1 -1</clus>
<clus scale="  157.846">  2  3  1 -1</clus>
</clustering>
</event>
<event>
 6    0  0.3522959E+002  0.1746175E+03  0.7546771E-02  0.1173116E+00
         21   -1    0    0  505  502  0.00000000000E+00  0.00000000000E+00  0.70406735880E+02  0.70406735880E+02  0.00000000000E+00 0.  1.
          2   -1    0    0  502    0 -0.00000000000E+00 -0.00000000000E+00 -0.24959943227E+04  0.24959943227E+04  0.00000000000E+00 0. -1.
         21    1    1    2  503  504  0.98570531892E+02 -0.42672244989E+01 -0.63497018059E+02  0.11732957967E+03  0.00000000000E+00 0.  1.
         21    1    1    2  504  501 -0.12242828895E+03  0.91071940180E+02 -0.39869717906E+03  0.42689837762E+03  0.00000000000E+00 0.  1.
         21    1    1    2  505  503  0.78352387796E+02 -0.33718295194E+02 -0.34873218615E+02  0.92152924428E+02  0.00000000000E+00 0.  1.
          2    1    1    2  501    0 -0.54494630735E+02 -0.53086420487E+02 -0.19285201711E+04  0.19300201768E+04  0.00000000000E+00 0. -1.
<scales pt_clust_3="35.54761" pt_clust_4="170.38096" pt_clust_5="35.54761" pt_clust_6="76.07781"></scales>
<clustering>
<clus scale="   35.548">  3  5 -1 -1</clus>
<clus scale="   76.078">  2  6  1 -1</clus>
<clus scale="  170.381">  2  4  1 -1</clus>
<clus scale="  174.617">  1  3  2 -1</clus>
</clustering>
</event>
<event>
 6    0  0.3522959E+002  0.1675997E+03  0.7546771E-02  0.1180374E+00
          2   -1    0    0  504    0 -0.00000000000E+00  0.00000000000E+00  0.19577866634E+04  0.19577866634E+04  0.00000000000E+00 0.  1.
         21   -1    0    0  503  502  0.00000000000E+00 -0.00000000000E+00 -0.28539902815E+03  0.28539902815E+03  0.00000000000E+00 0. -1.
         21    1    1    2  503  501 -0.46116515663E+02 -0.11429008222E+03 -0.25073329982E+03  0.27938529587E+03  0.00000000000E+00 0. -1.
         21    1    1    2  504  505 -0.31274267845E+02  0.85576125998E+02  0.49698297027E+03  0.50526569833E+03  0.00000000000E+00 0. -1.
         21    1    1    2  505  502  0.16962667518E+02 -0.56857295476E+02  0.47721889747E+02  0.76143699011E+02  0.00000000000E+00 0.  1.
          2    1    1    2  501    0  0.60428115990E+02  0.85571251701E+02  0.13784160751E+04  0.13823909984E+04  0.00000000000E+00 0.  1.
<scales pt_clust_3="14000.00000" pt_clust_4="90.20734" pt_clust_5="59.33367" pt_clust_6="167.59973"></scales>
<clustering>
<clus scale="   59.334">  2  5  1 -1</clus>
<clus scale="   90.207">  1  4  2 -1</clus>
<clus scale="  167.600">  1  6  2 -1</clus>
<clus scale="   59.334">  2  3  1 -1</clus>
</clustering>
</event>
<event>
 6    0  0.3522959E+002  0.2210126E+03  0.7546771E-02  0.1133130E+00
         21   -1    0    0  505  502  0.00000000000E+00  0.00000000000E+00  0.96689248077E+03  0.96689248077E+03  0.00000000000E+00 0.  1.
          1   -1    0    0  504    0 -0.00000000000E+00 -0.00000000000E+00 -0.20903211639E+04  0.20903211639E+04  0.00000000000E+00 0. -1.
         21    1    1    2  503  502  0.31867203663E+02  0.33212634410E+02  0.17021566599E+03  0.17632915443E+03  0.00000000000E+00 0.  1.
         21    1    1    2  504  503  0.18047429208E+03  0.18034158159E+02  0.60051683728E+03  0.62730907280E+03  0.00000000000E+00 0.  1.
         21    1    1    2  505  501 -0.19017160955E+03 -0.21456310628E+02  0.12853651221E+03  0.23053687192E+03  0.00000000000E+00 0.  1.
          1    1    1    2  501    0 -0.22169886193E+02 -0.29790481940E+02 -0.20226976986E+04  0.20230385455E+04  0.00000000000E+00 0. -1.
<scales pt_clust_3="32.21978" pt_clust_4="32.21978" pt_clust_5="211.55595" pt_clust_6="37.13458"></scales>
<clustering>
<clus scale="   32.220">  3  4 -1 -1</clus>
<clus scale="   37.135">  2  6  1 -1</clus>
<clus scale="  211.556">  2  5  1 -1</clus>
<clus scale="  221.013">  1  3  2 -1</clus>
</clustering>
</event>
<event>
 6    0  0.3522959E+002  0.9478108E+02  0.7546771E-02  0.1291670E+00
         -1   -1    0    0    0  501 -0.00000000000E+00  0.00000000000E+00  0.24541063033E+04  0.24541063033E+04  0.00000000000E+00 0.  1.
         21   -1    0    0  505  502  0.00000000000E+00 -0.00000000000E+00 -0.46246307556E+02  0.46246307556E+02  0.00000000000E+00 0.  1.
         21    1    1    2  503  504  0.22405566151E+02 -0.68676497027E+02  0.30065625347E+02  0.78245846318E+02  0.00000000000E+00 0.  1.
         21    1    1    2  504  501  0.81003993112E+02  0.12566383653E+03  0.96105456225E+03  0.97261447570E+03  0.00000000000E+00 0.  1.
         21    1    1    2  505  503 -0.23252814333E+02 -0.23970178830E+02  0.34802602103E+01  0.33576406279E+02  0.00000000000E+00 0.  1.
         -1    1    1    2    0  502 -0.80156744931E+02 -0.33017160677E+02  0.14132595480E+04  0.14159158826E+04  0.00000000000E+00 0.  1.
<scales pt_clust_3="87.29890" pt_clust_4="14000.00000" pt_clust_5="33.39555" pt_clust_6="94.78108"></scales>
<clustering>
<clus scale="   33.396">  2  5  1 -1</clus>
<clus scale="   87.299">  2  3  1 -1</clus>
<clus scale="   94.781">  1  6  2 -1</clus>
<clus scale="   33.396">  2  3  1 -1</clus>
</clustering>
</event>
<event>
 6    0  0.3522959E+002  0.1333218E+03  0.7546771E-02  0.1222608E+00
         21   -1    0    0  505  502  0.00000000000E+00  0.00000000000E+00  0.77393560082E+03  0.77393560082E+03  0.00000000000E+00 0. -1.
          2   -1    0    0  503    0 -0.00000000000E+00 -0.00000000000E+00 -0.27080624892E+03  0.27080624892E+03  0.00000000000E+00 0.  1.
         21    1    1    2  503  504  0.14501506637E+03 -0.30528604917E+02  0.27620580178E+03  0.31345017169E+03  0.00000000000E+00 0. -1.
         21    1    1    2  504  502 -0.25562242523E+02  0.47215649678E+02  0.23907052202E+03  0.24502542790E+03  0.00000000000E+00 0. -1.
         21    1    1    2  505  501  0.11618346345E+02 -0.35714700258E+02  0.21774019391E+03  0.22095546572E+03  0.00000000000E+00 0.  1.
          2    1    1    2  501    0 -0.13107117019E+03  0.19027655497E+02 -0.22988716581E+03  0.26531078443E+03  0.00000000000E+00 0.  1.
<scales pt_clust_3="133.32180" pt_clust_4="37.68601" pt_clust_5="37.55697" pt_clust_6="14000.00000"></scales>
<clustering>
<clus scale="   37.557">  1  5  2 -1</clus>
<clus scale="   37.686">  1  4  2 -1</clus>
<clus scale="  133.322">  1  3  2 -1</clus>
<clus scale="   37.557">  1  3  2 -1</clus>
</clustering>
</event>
<event>
 6    0  0.3522959E+002  0.1551091E+03  0.7546771E-02  0.1194332E+00
         21   -1    0    0  501  502  0.00000000000E+00  0.00000000000E+00  0.94374449035E+03  0.94374449035E+03  0.00000000000E+00 0. -1.
          1   -1    0    0  505    0 -0.00000000000E+00 -0.00000000000E+00 -0.94035959779E+02  0.94035959779E+02  0.00000000000E+00 0. -1.
         21    1    1    2  503  504 -0.45688090203E+02 -0.76842898291E+02  0.35758441655E+03  0.36859035197E+03  0.00000000000E+00 0. -1.
         21    1    1    2  504  502 -0.82700673867E+01 -0.60335568693E+02  0.44100817429E+03  0.44519319924E+03  0.00000000000E+00 0. -1.
         21    1    1    2  505  503  0.11137648920E+03  0.98952437894E+02  0.38433428439E+02  0.15386174227E+03  0.00000000000E+00 0. -1.
          1    1    1    2  501    0 -0.57418331613E+02  0.38226029091E+02  0.12682511292E+02  0.70135156647E+02  0.00000000000E+00 0. -1.
<scales pt_clust_3="43.39299" pt_clust_4="43.39299" pt_clust_5="145.92706" pt_clust_6="68.97894"></scales>
<clustering>
<clus scale="   43.393">  3  4 -1 -1</clus>
<clus scale="   68.979">  2  6  1 -1</clus>
<clus scale="  145.927">  2  5  1 -1</clus>
<clus scale="  155.109">  1  3  2 -1</clus>
</clustering>
</event>
<event>
 6    0  0.3522959E+002  0.1615021E+03  0.7546771E-02  0.1187011E+00
          1   -1    0    0  504    0 -0.00000000000E+00  0.00000000000E+00  0.13147764400E+04  0.13147764400E+04  0.00000000000E+00 0. -1.
         21   -1    0    0  503  502  0.00000000000E+00 -0.00000000000E+00 -0.50187343278E+03  0.50187343278E+03  0.00000000000E+00 0. -1.
         21    1    1    2  503  505 -0.73639789695E+02  0.24633067363E+01 -0.14274156224E+03  0.16063635983E+03  0.00000000000E+00 0. -1.
         21    1    1    2  504  502  0.10349482125E+03 -0.93199050254E+02 -0.17470425539E+03  0.22342519519E+03  0.00000000000E+00 0. -1.
         21    1    1    2  505  501 -0.89152400300E+02  0.54425886095E+02 -0.13199887340E+03  0.16832715210E+03  0.00000000000E+00 0. -1.
          1    1    1    2  501    0  0.59297368747E+02  0.36309857423E+02  0.12623476982E+04  0.12642611656E+04  0.00000000000E+00 0. -1.
<scales pt_clust_3="45.97928" pt_clust_4="151.94054" pt_clust_5="45.97928" pt_clust_6="69.53117"></scales>
<clustering>
<clus scale="   45.979">  3  5 -1 -1</clus>
<clus scale="   69.531">  1  6  2 -1</clus>
<clus scale="  151.941">  2  4  1 -1</clus>
<clus scale="  151.941">  2  3  1 -1</clus>
</clustering>
</event>
<event>
 6    0  0.3522959E+002  0.1543457E+03  0.7546771E-02  0.1195232E+00
         21   -1    0    0  504  502  0.00000000000E+00  0.00000000000E+00  0.32129965112E+03  0.32129965112E+03  0.00000000000E+00 0.  1.
          2   -1    0    0  505    0 -0.00000000000E+00 -0.00000000000E+00 -0.84558658679E+03  0.84558658679E+03  0.00000000000E+00 0.  1.
         21    1    1    2  503  502 -0.88924730436E+02 -0.11927119019E+03  0.25540755155E+03  0.29557781020E+03  0.00000000000E+00 0.  1.
         21    1    1    2  504  501 -0.39841115808E+02  0.16295931520E+02  0.55988659910E+01  0.43407593728E+02  0.00000000000E+00 0.  1.
         21    1    1    2  505  503  0.10076967244E+03  0.64146678681E+02 -0.15449896992E+03  0.19529274174E+03  0.00000000000E+00 0.  1.
          2    1    1    2  501    0  0.27996173807E+02  0.38828579986E+02 -0.63079438330E+03  0.63260809224E+03  0.00000000000E+00 0.  1.
<scales pt_clust_3="154.34571" pt_clust_4="43.04500" pt_clust_5="14000.00000" pt_clust_6="47.83840"></scales>
<clustering>
<clus scale="   43.045">  1  4  2 -1</clus>
<clus scale="   47.838">  2  6  1 -1</clus>
<clus scale="  154.346">  1  3  2 -1</clus>
<clus scale="   43.045">  1  3  2 -1</clus>
</clustering>
</event>
<event>
 6    0  0.3522959E+002  0.7262673E+02  0.7546771E-02  0.1351382E+00
         21   -1    0    0  505  502  0.00000000000E+00  0.00000000000E+00  0.37693183573E+02  0.37693183573E+02  0.00000000000E+00 0. -1.
          2   -1    0    0  504    0 -0.00000000000E+00 -0.00000000000E+00 -0.10033191270E+04  0.10033191270E+04  0.00000000000E+00 0. -1.
         21    1    1    2  503  501 -0.37599075087E+02  0.39245170205E+02 -0.10694777432E+03  0.11996541278E+03  0.00000000000E+00 0. -1.
         21    1    1    2  504  502  0.56549159860E+02  0.10485882874E+02 -0.11472737696E+03  0.12833601304E+03  0.00000000000E+00 0. -1.
         21    1    1    2  505  503 -0.48397509913E+02 -0.82884768348E+02 -0.73744038753E+02  0.12103878321E+03  0.00000000000E+00 0. -1.
          2    1    1    2  501    0  0.29447425140E+02  0.33153715269E+02 -0.67020675338E+03  0.67167210152E+03  0.00000000000E+00 0. -1.
<scales pt_clust_3="57.57931" pt_clust_4="72.62673" pt_clust_5="14000.00000" pt_clust_6="44.34320"></scales>
<clustering>
<clus scale="   44.343">  2  6  1 -1</clus>
<clus scale="   57.579">  2  3  1 -1</clus>
<clus scale="   72.627">  2  4  1 -1</clus>
<clus scale="   72.627">  1  3  2 -1</clus>
</clustering>
</event>
<event>
 6    0  0.3522959E+002  0.2237570E+03  0.7546771E-02  0.1131113E+00
         21   -1    0    0  505  502  0.00000000000E+00  0.00000000000E+00  0.23277353575E+03  0.23277353575E+03  0.00000000000E+00 0.  1.
         -2   -1    0    0    0  501 -0.00000000000E+00 -0.00000000000E+00 -0.42907140130E+03  0.42907140130E+03  0.00000000000E+00 0.  1.
         21    1    1    2  503  504 -0.13626984181E+02  0.66541999229E+02 -0.83400374306E+02  0.10756000555E+03  0.00000000000E+00 0.  1.
         21    1    1    2  504  502  0.10392229919E+03  0.10551471762E+03 -0.13644253158E+03  0.20136972048E+03  0.00000000000E+00 0.  1.
         21    1    1    2  505  501 -0.12197077673E+03 -0.16326347874E+03  0.12984821212E+03  0.24164517802E+03  0.00000000000E+00 0.  1.
         -2    1    1    2    0  503  0.31675461722E+02 -0.87932381020E+01 -0.10630317179E+03  0.11127003300E+03  0.00000000000E+00 0.  1.
<scales pt_clust_3="61.71567" pt_clust_4="61.71567" pt_clust_5="201.78526" pt_clust_6="32.87333"></scales>
<clustering>
<clus scale="   32.873">  2  6  1 -1</clus>
<clus scale="   61.716">  3  4 -1 -1</clus>
<clus scale="  201.785">  1  5  2 -1</clus>
<clus scale="  201.785">  1  3  2 -1</clus>
</clustering>
</event>
<event>
 6    0  0.3522959E+002  0.2238778E+03  0.7546771E-02  0.1131025E+00
          1   -1    0    0  504    0 -0.00000000000E+00  0.00000000000E+00  0.12587467072E+04  0.12587467072E+04  0.00000000000E+00 0. -1.
         21   -1    0    0  501  502  0.00000000000E+00 -0.00000000000E+00 -0.29500764527E+03  0.29500764527E+03  0.00000000000E+00 0. -1.
         21    1    1    2  503  505  0.40134125841E+02  0.29187516891E+02 -0.85998143904E+02  0.99289173399E+02  0.00000000000E+00 0.  1.
         21    1    1    2  504  503 -0.89566916513E+02  0.20434286183E+03  0.42803509323E+02  0.22717917626E+03  0.00000000000E+00 0. -1.
         21    1    1    2  505  502  0.40266748943E+02 -0.80467877753E+01 -0.94466019951E+02  0.10300480954E+03  0.00000000000E+00 0. -1.
          1    1    1    2  501    0  0.91660417293E+01 -0.22548359095E+03  0.11013997165E+04  0.11242811933E+04  0.00000000000E+00 0. -1.
<scales pt_clust_3="91.40865" pt_clust_4="223.87783" pt_clust_5="34.57036" pt_clust_6="14000.00000"></scales>
<clustering>
<clus scale="   34.570">  3  5 -1 -1</clus>
<clus scale="   91.409">  2  3  1 -1</clus>
<clus scale="  223.878">  2  4  1 -1</clus>
<clus scale="   91.409">  2  3  1 -1</clus>
</clustering>
</event>
<event>
 6    0  0.3522959E+002  0.1038507E+03  0.7546771E-02  0.1272401E+00
         -1   -1    0    0    0  501 -0.00000000000E+00  0.00000000000E+00  0.35518994509E+03  0.35518994509E+03  0.00000000000E+00 0. -1.
         21   -1    0    0  503  502  0.00000000000E+00 -0.00000000000E+00 -0.12161748083E+03  0.12161748083E+03  0.00000000000E+00 0. -1.
         21    1    1    2  503  501 -0.39634310122E+02 -0.13728375042E+03  0.38754390493E+02  0.14805272524E+03  0.00000000000E+00 0. -1.
         21    1    1    2  504  505  0.61984536065E+01  0.71521426251E+02  0.35613955477E+01  0.71877804491E+02  0.00000000000E+00 0.  1.
         21    1    1    2  505  502 -0.36313817790E+02 -0.37630711147E+01 -0.54322763228E+01  0.36910211226E+02  0.00000000000E+00 0. -1.
         -1    1    1    2    0  504  0.69749674305E+02  0.69525395286E+02  0.19668895454E+03  0.21996668497E+03  0.00000000000E+00 0. -1.
<scales pt_clust_3="103.85067" pt_clust_4="70.51051" pt_clust_5="36.50827" pt_clust_6="14000.00000"></scales>
<clustering>
<clus scale="   36.508">  2  5  1 -1</clus>
<clus scale="   70.511">  2  4  1 -1</clus>
<clus scale="  103.851">  2  3  1 -1</clus>
<clus scale="   36.508">  2  3  1 -1</clus>
</clustering>
</event>
<event>
 6    0  0.3522959E+002  0.9140315E+02  0.7546771E-02  0.1299489E+00
          2   -1    0    0  505    0 -0.00000000000E+00  0.00000000000E+00  0.54445926241E+03  0.54445926241E+03  0.00000000000E+00 0. -1.
         21   -1    0    0  504  502  0.00000000000E+00 -0.00000000000E+00 -0.12846232238E+03  0.12846232238E+03  0.00000000000E+00 0. -1.
         21    1    1    2  503  502 -0.27373867963E+02  0.17827383635E+02 -0.88237694138E+01  0.33837895342E+02  0.00000000000E+00 0.  1.
         21    1    1    2  504  501  0.71962203314E+02 -0.92955704219E+02 -0.50040284646E+02  0.12776287309E+03  0.00000000000E+00 0. -1.
         21    1    1    2  505  503 -0.50981836414E+02 -0.16158173032E+02  0.39605151569E+02  0.66549246657E+02  0.00000000000E+00 0. -1.
          2    1    1    2  501    0  0.63935010627E+01  0.91286493616E+02  0.43525584252E+03  0.44477156971E+03  0.00000000000E+00 0. -1.
<scales pt_clust_3="32.66717" pt_clust_4="91.40315" pt_clust_5="56.17521" pt_clust_6="14000.00000"></scales>
<clustering>
<clus scale="   32.667">  2  3  1 -1</clus>
<clus scale="   56.175">  2  5  1 -1</clus>
<clus scale="   91.403">  2  4  1 -1</clus>
<clus scale="   32.667">  2  3  1 -1</clus>
</clustering>
</event>
<event>
 6    0  0.3522959E+002  0.1033827E+03  0.7546771E-02  0.1273339E+00
         21   -1    0    0  501  502  0.00000000000E+00  0.00000000000E+00  0.45294453787E+03  0.45294453787E+03  0.00000000000E+00 0.  1.
          2   -1    0    0  504    0 -0.00000000000E+00 -0.00000000000E+00 -0.97047459515E+03  0.97047459515E+03  0.00000000000E+00 0. -1.
         21    1    1    2  503  502 -0.19973381702E+02  0.27734098518E+02  0.73316140607E+02  0.80891116142E+02  0.00000000000E+00 0.  1.
         21    1    1    2  504  505 -0.66440997375E+02  0.27472126197E+02 -0.10689681440E+03  0.12882566816E+03  0.00000000000E+00 0. -1.
         21    1    1    2  505  503  0.10910077878E+03 -0.84316614718E+02  0.35142798105E+03  0.37751012875E+03  0.00000000000E+00 0.  1.
          2    1    1    2  501    0 -0.22686399707E+02  0.29110390003E+02 -0.83537736453E+03  0.83619221996E+03  0.00000000000E+00 0. -1.
<scales pt_clust_3="34.17771" pt_clust_4="103.38274" pt_clust_5="14000.00000" pt_clust_6="36.94349"></scales>
<clustering>
<clus scale="   34.178">  1  3  2 -1</clus>
<clus scale="   36.943">  2  6  1 -1</clus>
<clus scale="  103.383">  2  4  1 -1</clus>
<clus scale="   34.178">  1  3  2 -1</clus>
</clustering>
</event>
<event>
 6    0  0.3522959E+002  0.1276136E+03  0.7546771E-02  0.1231040E+00
         21   -1    0    0  503  502  0.00000000000E+00  0.00000000000E+00  0.82041770404E+03  0.82041770404E+03  0.00000000000E+00 0.  1.
          1   -1    0    0  505    0 -0.00000000000E+00 -0.00000000000E+00 -0.17253998209E+03  0.17253998209E+03  0.00000000000E+00 0.  1.
         21    1    1    2  503  504  0.63289616772E+02 -0.11237295855E+03  0.68432525787E+03  0.69637225387E+03  0.00000000000E+00 0.  1.
         21    1    1    2  504  501 -0.54956862145E+02  0.98600531807E+02 -0.16739642837E+02  0.11411633192E+03  0.00000000000E+00 0.  1.
         21    1    1    2  505  502 -0.37681493174E+02  0.39010225393E+02  0.67775091775E+02  0.86805274484E+02  0.00000000000E+00 0. -1.
          1    1    1    2  501    0  0.29348738548E+02 -0.25237798648E+02 -0.87482984858E+02  0.95663825841E+02  0.00000000000E+00 0.  1.
<scales pt_clust_3="127.61364" pt_clust_4="14000.00000" pt_clust_5="49.70970" pt_clust_6="38.70781"></scales>
<clustering>
<clus scale="   38.708">  2  6  1 -1</clus>
<clus scale="   49.710">  2  5  1 -1</clus>
<clus scale="  127.614">  1  3  2 -1</clus>
<clus scale="  127.614">  1  3  2 -1</clus>
</clustering>
</event>
<event>
 6    0  0.3522959E+002  0.1038904E+03  0.7546771E-02  0.1272321E+00
          4   -1    0    0  504    0 -0.00000000000E+00  0.00000000000E+00  0.20277852981E+03  0.20277852981E+03  0.00000000000E+00 0. -1.
         21   -1    0    0  505  502  0.00000000000E+00 -0.00000000000E+00 -0.13463981399E+04  0.13463981399E+04  0.00000000000E+00 0. -1.
         21    1    1    2  503  502 -0.61144019629E+02 -0.51607577462E+02 -0.37356365998E+03  0.38203630880E+03  0.00000000000E+00 0. -1.
         21    1    1    2  504  503 -0.30834467591E+02  0.27934287100E+02 -0.37502426287E+02  0.56013576611E+02  0.00000000000E+00 0. -1.
         21    1    1    2  505  501  0.13919038377E+03  0.29157224239E+02 -0.91326414096E+03  0.92427025150E+03  0.00000000000E+00 0. -1.
          4    1    1    2  501    0 -0.47211896552E+02 -0.54839338769E+01  0.18071061712E+03  0.18685653279E+03  0.00000000000E+00 0. -1.
<scales pt_clust_3="14000.00000" pt_clust_4="41.60636" pt_clust_5="103.89044" pt_clust_6="79.33656"></scales>
<clustering>
<clus scale="   41.606">  1  4  2 -1</clus>
<clus scale="   79.337">  1  6  2 -1</clus>
<clus scale="  103.890">  1  5  2 -1</clus>
<clus scale="  103.890">  2  3  1 -1</clus>
</clustering>
</event>
<event>
 6    0  0.3522959E+002  0.1450414E+03  0.7546771E-02  0.1206702E+00
         21   -1    0    0  504  502  0.00000000000E+00  0.00000000000E+00  0.28631366395E+03  0.28631366395E+03  0.00000000000E+00 0. -1.
          1   -1    0    0  505    0 -0.00000000000E+00 -0.00000000000E+00 -0.97379216125E+03  0.97379216125E+03  0.00000000000E+00 0.  1.
         21    1    1    2  503  501 -0.53321756344E+02  0.19392856669E+02  0.12034359861E+03  0.13304839088E+03  0.00000000000E+00 0. -1.
         21    1    1    2  504  503 -0.91487660770E+01 -0.55752105704E+02  0.10117324947E+03  0.11587934941E+03  0.00000000000E+00 0. -1.
         21    1    1    2  505  502  0.19051099753E+03  0.82416636858E+02 -0.19658524135E+03  0.28588931307E+03  0.00000000000E+00 0. -1.
          1    1    1    2  501    0 -0.12804047511E+03 -0.46057387823E+02 -0.71241010403E+03  0.72528877184E+03  0.00000000000E+00 0.  1.
<scales pt_clust_3="63.20294" pt_clust_4="56.49776" pt_clust_5="145.04143" pt_clust_6="14000.00000"></scales>
<clustering>
<clus scale="   56.498">  1  4  2 -1</clus>
<clus scale="   63.203">  1  3  2 -1</clus>
<clus scale="  145.041">  1  5  2 -1</clus>
<clus scale="   56.498">  1  3  2 -1</clus>
</clustering>
</event>
<event>
 6    0  0.3522959E+002  0.1173071E+03  0.7546771E-02  0.1247607E+00
         21   -1    0    0  505  502  0.00000000000E+00  0.00000000000E+00  0.43087233607E+03  0.43087233607E+03  0.00000000000E+00 0.  1.
          1   -1    0    0  504    0 -0.00000000000E+00 -0.00000000000E+00 -0.47206984174E+03  0.47206984174E+03  0.00000000000E+00 0.  1.
         21    1    1    2  503  502 -0.31867328116E+02  0.56363283362E+02  0.20191762124E+03  0.21204497655E+03  0.00000000000E+00 0.  1.
         21    1    1    2  504  503  0.88960725911E+02  0.17693315983E+01  0.56214712526E+01  0.89155718986E+02  0.00000000000E+00 0. -1.
         21    1    1    2  505  501  0.53314628907E+02 -0.87562636800E+00  0.16306853947E+03  0.17156504581E+03  0.00000000000E+00 0.  1.
          1    1    1    2  501    0 -0.11040802670E+03 -0.57256988592E+02 -0.41180513763E+03  0.43017643646E+03  0.00000000000E+00 0.  1.
<scales pt_clust_3="56.56706" pt_clust_4="14000.00000" pt_clust_5="53.32182" pt_clust_6="117.30713"></scales>
<clustering>
<clus scale="   53.322">  1  5  2 -1</clus>
<clus scale="   56.567">  1  3  2 -1</clus>
<clus scale="  117.307">  2  6  1 -1</clus>
<clus scale="   53.322">  1  3  2 -1</clus>
</clustering>
</event>
<event>
 6    0  0.3522959E+002  0.1463323E+03  0.7546771E-02  0.1205054E+00
         21   -1    0    0  503  502  0.00000000000E+00  0.00000000000E+00  0.30552694606E+02  0.30552694606E+02  0.00000000000E+00 0.  1.
          1   -1    0    0  505    0 -0.00000000000E+00 -0.00000000000E+00 -0.12800667907E+04  0.12800667907E+04  0.00000000000E+00 0. -1.
         21    1    1    2  503  504 -0.23946505066E+02 -0.21211384116E+02 -0.93167181166E+01  0.33319050969E+02  0.00000000000E+00 0.  1.
         21    1    1    2  504  501  0.23424973749E+02 -0.44131548466E+02 -0.17556921200E+03  0.18254005360E+03  0.00000000000E+00 0.  1.
         21    1    1    2  505  502 -0.68737434141E+01  0.14668907001E+03 -0.41906008547E+03  0.44404536575E+03  0.00000000000E+00 0.  1.
          1    1    1    2  501    0  0.73952747306E+01 -0.81346137430E+02 -0.64556808049E+03  0.65071501497E+03  0.00000000000E+00 0. -1.
<scales pt_clust_3="31.98997" pt_clust_4="45.32592" pt_clust_5="134.38798" pt_clust_6="45.32592"></scales>
<clustering>
<clus scale="   31.990">  1  3  2 -1</clus>
<clus scale="   45.326">  4  6 -1 -1</clus>
<clus scale="  134.388">  1  5  2 -1</clus>
<clus scale="   31.990">  1  3  2 -1</clus>
</clustering>
</event>
<event>
 6    0  0.3522959E+002  0.1117786E+03  0.7546771E-02  0.1257311E+00
         -2   -1    0    0    0  501 -0.00000000000E+00  0.00000000000E+00  0.96440988640E+02  0.96440988640E+02  0.00000000000E+00 0.  1.
         21   -1    0    0  504  502  0.00000000000E+00 -0.00000000000E+00 -0.38110721566E+03  0.38110721566E+03  0.00000000000E+00 0.  1.
         21    1    1    2  503  505 -0.24165086517E+02  0.40777868171E+02 -0.71154470160E+02  0.85497044175E+02  0.00000000000E+00 0.  1.
         21    1    1    2  504  503 -0.30093789342E+02  0.40560915291E+02 -0.15848250340E+03  0.16633558816E+03  0.00000000000E+00 0.  1.
         21    1    1    2  505  501  0.11274494470E+03 -0.10526668429E+03 -0.50737351008E+02  0.16237849662E+03  0.00000000000E+00 0.  1.
         -2    1    1    2    0  502 -0.58486068837E+02  0.23927900832E+02 -0.42919024533E+01  0.63337075343E+02  0.00000000000E+00 0.  1.
<scales pt_clust_3="32.51533" pt_clust_4="32.51533" pt_clust_5="106.62058" pt_clust_6="63.19149"></scales>
<clustering>
<clus scale="   32.515">  3  4 -1 -1</clus>
<clus scale="   63.191">  1  6  2 -1</clus>
<clus scale="  106.621">  1  5  2 -1</clus>
<clus scale="  111.779">  2  3  1 -1</clus>
</clustering>
</event>
<event>
 6    0  0.3522959E+002  0.1433375E+03  0.7546771E-02  0.1208907E+00
          1   -1    0    0  503    0 -0.00000000000E+00  0.00000000000E+00  0.61821738664E+02  0.61821738664E+02  0.00000000000E+00 0. -1.
         21   -1    0    0  501  502  0.00000000000E+00 -0.00000000000E+00 -0.12486643059E+04  0.12486643059E+04  0.00000000000E+00 0.  1.
         21    1    1    2  503  504 -0.12527929703E+03  0.73041531082E+02 -0.55856170603E+02  0.15540231440E+03  0.00000000000E+00 0. -1.
         21    1    1    2  504  505  0.11606477246E+03 -0.57096536479E+02 -0.89348144997E+03  0.90279573953E+03  0.00000000000E+00 0.  1.
         21    1    1    2  505  502  0.25435365769E+02 -0.44990361936E+02 -0.15150742816E+03  0.16007995279E+03  0.00000000000E+00 0. -1.
          1    1    1    2  501    0 -0.16220841200E+02  0.29045367332E+02 -0.85997518496E+02  0.92208037829E+02  0.00000000000E+00 0. -1.
<scales pt_clust_3="14000.00000" pt_clust_4="143.33753" pt_clust_5="47.21294" pt_clust_6="33.26784"></scales>
<clustering>
<clus scale="   33.268">  2  6  1 -1</clus>
<clus scale="   47.213">  2  5  1 -1</clus>
<clus scale="  143.338">  2  4  1 -1</clus>
<clus scale="   33.268">  2  3  1 -1</clus>
</clustering>
</event>
<event>
 6    0  0.3522959E+002  0.1053353E+03  0.7546771E-02  0.1269460E+00
          4   -1    0    0  504    0 -0.00000000000E+00  0.00000000000E+00  0.53234146083E+03  0.53234146083E+03  0.00000000000E+00 0. -1.
         21   -1    0    0  501  502  0.00000000000E+00 -0.00000000000E+00 -0.15087455395E+03  0.15087455395E+03  0.00000000000E+00 0.  1.
         21    1    1    2  503  502 -0.35147496323E+02 -0.21410940789E+02  0.35580253197E+01  0.41309011455E+02  0.00000000000E+00 0.  1.
         21    1    1    2  504  505  0.59375226639E+02  0.31642828981E+02  0.33857162277E+03  0.34519187405E+03  0.00000000000E+00 0. -1.
         21    1    1    2  505  503 -0.85122575999E+02  0.37170679992E+02 -0.10059211914E+03  0.13691708012E+03  0.00000000000E+00 0.  1.
          4    1    1    2  501    0  0.60894845683E+02 -0.47402568184E+02  0.13992937794E+03  0.15979804915E+03  0.00000000000E+00 0. -1.
<scales pt_clust_3="41.15550" pt_clust_4="66.25033" pt_clust_5="105.33529" pt_clust_6="14000.00000"></scales>
<clustering>
<clus scale="   41.155">  2  3  1 -1</clus>
<clus scale="   66.250">  1  4  2 -1</clus>
<clus scale="  105.335">  2  5  1 -1</clus>
<clus scale="   41.155">  2  3  1 -1</clus>
</clustering>
</event>
<event>
 6    0  0.3522959E+002  0.1061477E+03  0.7546771E-02  0.1267875E+00
         21   -1    0    0  505  502  0.00000000000E+00  0.00000000000E+00  0.26200948904E+03  0.26200948904E+03  0.00000000000E+00 0.  1.
         -3   -1    0    0    0  501 -0.00000000000E+00 -0.00000000000E+00 -0.39241200420E+03  0.39241200420E+03  0.00000000000E+00 0.  1.
         21    1    1    2  503  501  0.30968768858E+02  0.64393874344E+02 -0.67700058588E+02  0.98432381006E+02  0.00000000000E+00 0.  1.
         21    1    1    2  504  502  0.33019383922E+02 -0.51021458452E+02  0.17547569213E+02  0.63256510515E+02  0.00000000000E+00 0.  1.
         21    1    1    2  505  503 -0.43814525986E+02 -0.79200858055E+02  0.19181133615E+03  0.21209450082E+03  0.00000000000E+00 0.  1.
         -3    1    1    2    0  504 -0.20173626794E+02  0.65828442163E+02 -0.27206136193E+03  0.28063810089E+03  0.00000000000E+00 0.  1.
<scales pt_clust_3="106.14768" pt_clust_4="60.77392" pt_clust_5="14000.00000" pt_clust_6="67.71981"></scales>
<clustering>
<clus scale="   60.774">  1  4  2 -1</clus>
<clus scale="   67.720">  2  6  1 -1</clus>
<clus scale="  106.148">  2  3  1 -1</clus>
<clus scale="   60.774">  1  3  2 -1</clus>
</clustering>
</event>
<event>
 6    0  0.3522959E+002  0.1016945E+03  0.7546771E-02  0.1276772E+00
         -4   -1    0    0    0  501 -0.00000000000E+00  0.00000000000E+00  0.86267958268E+03  0.86267958268E+03  0.00000000000E+00 0.  1.
         21   -1    0    0  505  502  0.00000000000E+00 -0.00000000000E+00 -0.85038264612E+02  0.85038264612E+02  0.00000000000E+00 0.  1.
         21    1    1    2  503  504 -0.26828294873E+02  0.10160033925E+03 -0.97034254409E+00  0.10508723950E+03  0.00000000000E+00 0.  1.
         21    1    1    2  504  501  0.44026923602E+02 -0.32062909316E+01  0.34158614796E+03  0.34442669290E+03  0.00000000000E+00 0.  1.
         21    1    1    2  505  503  0.34679502984E+02  0.13013209750E+00 -0.11130698155E+02  0.36422208925E+02  0.00000000000E+00 0.  1.
         -4    1    1    2    0  502 -0.51878131713E+02 -0.98524180419E+02  0.44815621081E+03  0.46178170597E+03  0.00000000000E+00 0.  1.
<scales pt_clust_3="101.69453" pt_clust_4="44.94522" pt_clust_5="34.67975" pt_clust_6="14000.00000"></scales>
<clustering>
<clus scale="   34.680">  2  5  1 -1</clus>
<clus scale="   44.945">  1  4  2 -1</clus>
<clus scale="  101.695">  2  3  1 -1</clus>
<clus scale="   34.680">  2  3  1 -1</clus>
</clustering>
</event>
<event>
 6    0  0.3522959E+002  0.8172220E+02  0.7546771E-02  0.1324234E+00
          1   -1    0    0  504    0 -0.00000000000E+00  0.00000000000E+00  0.36522593223E+03  0.36522593223E+03  0.00000000000E+00 0.  1.
         21   -1    0    0  503  502  0.00000000000E+00 -0.00000000000E+00 -0.21653526348E+03  0.21653526348E+03  0.00000000000E+00 0. -1.
         21    1    1    2  503  501  0.51875366929E+02  0.12205443951E+02 -0.17326273842E+02  0.56037722307E+02  0.00000000000E+00 0.  1.
         21    1    1    2  504  505  0.30686749654E+02  0.15541109609E+02  0.98815053960E+02  0.10463086343E+03  0.00000000000E+00 0.  1.
         21    1    1    2  505  502 -0.12523692421E+03  0.25433388494E+02 -0.14788823087E+03  0.19545350666E+03  0.00000000000E+00 0. -1.
          1    1    1    2  501    0  0.42674807627E+02 -0.53179942054E+02  0.21509011949E+03  0.22563910332E+03  0.00000000000E+00 0.  1.
<scales pt_clust_3="55.75072" pt_clust_4="34.39771" pt_clust_5="14000.00000" pt_clust_6="81.72220"></scales>
<clustering>
<clus scale="   34.398">  1  4  2 -1</clus>
<clus scale="   55.751">  2  3  1 -1</clus>
<clus scale="   81.722">  1  6  2 -1</clus>
<clus scale="   55.751">  2  3  1 -1</clus>
</clustering>
</event>
<event>
 6    0  0.3522959E+002  0.9801233E+02  0.7546771E-02  0.1284532E+00
          2   -1    0    0  503    0 -0.00000000000E+00  0.00000000000E+00  0.17060656258E+04  0.17060656258E+04  0.00000000000E+00 0.  1.
         21   -1    0    0  504  502  0.00000000000E+00 -0.00000000000E+00 -0.92907890519E+03  0.92907890519E+03  0.00000000000E+00 0. -1.
         21    1    1    2  503  505 -0.10221461604E+03 -0.73985685500E+02  0.51660738117E+03  0.53179403501E+03  0.00000000000E+00 0.  1.
         21    1    1    2  504  501 -0.28696004453E+02  0.69258593668E+02 -0.87060893855E+03  0.87383072580E+03  0.00000000000E+00 0. -1.
         21    1    1    2  505  502  0.47278497313E+02  0.27560871919E+02 -0.31940264334E+02  0.63364331093E+02  0.00000000000E+00 0.  1.
          2    1    1    2  501    0  0.83632123183E+02 -0.22833780087E+02  0.11629285424E+04  0.11661554391E+04  0.00000000000E+00 0.  1.
<scales pt_clust_3="98.01233" pt_clust_4="14000.00000" pt_clust_5="54.72530" pt_clust_6="86.76344"></scales>
<clustering>
<clus scale="   54.725">  2  5  1 -1</clus>
<clus scale="   86.763">  1  6  2 -1</clus>
<clus scale="   98.012">  1  3  2 -1</clus>
<clus scale="   54.725">  2  3  1 -1</clus>
</clustering>
</event>
<event>
 6    0  0.3522959E+002  0.2110298E+03  0.7546771E-02  0.1140753E+00
          2   -1    0    0  504    0 -0.00000000000E+00  0.00000000000E+00  0.96011228483E+03  0.96011228483E+03  0.00000000000E+00 0. -1.
         21   -1    0    0  505  502  0.00000000000E+00 -0.00000000000E+00 -0.74153538134E+03  0.74153538134E+03  0.00000000000E+00 0.  1.
         21    1    1    2  503  502  0.10040169459E+03  0.59178873601E+02 -0.49813129761E+03  0.51158325717E+03  0.00000000000E+00 0.  1.
         21    1    1    2  504  503 -0.14092536131E+02 -0.19040286553E+03 -0.44620156395E+02  0.19606837872E+03  0.00000000000E+00 0. -1.
         21    1    1    2  505  501  0.27427540791E+02 -0.53613094128E+02 -0.93959813176E+02  0.11160233128E+03  0.00000000000E+00 0. -1.
          2    1    1    2  501    0 -0.11373669925E+03  0.18483708605E+03  0.85528817068E+03  0.88239369900E+03  0.00000000000E+00 0. -1.
<scales pt_clust_3="123.23094" pt_clust_4="211.02981" pt_clust_5="60.22154" pt_clust_6="14000.00000"></scales>
<clustering>
<clus scale="   60.222">  2  5  1 -1</clus>
<clus scale="  123.231">  2  3  1 -1</clus>
<clus scale="  211.030">  2  4  1 -1</clus>
<clus scale="   60.222">  2  3  1 -1</clus>
</clustering>
</event>
<event>
 6    0  0.3522959E+002  0.8057989E+02  0.7546771E-02  0.1327414E+00
         -3   -1    0    0    0  501 -0.00000000000E+00  0.00000000000E+00  0.33934420538E+03  0.33934420538E+03  0.00000000000E+00 0. -1.
         21   -1    0    0  503  502  0.00000000000E+00 -0.00000000000E+00 -0.23702628616E+03  0.23702628616E+03  0.00000000000E+00 0. -1.
         21    1    1    2  503  504 -0.20170996558E+02 -0.53377136740E+02 -0.10505710924E+03  0.11955326859E+03  0.00000000000E+00 0. -1.
         21    1    1    2  504  501  0.89966437387E+02  0.62724061301E+02 -0.70738371442E+02  0.13050741326E+03  0.00000000000E+00 0. -1.
         21    1    1    2  505  502 -0.31115892944E+02 -0.26703117061E+02 -0.38440519978E+01  0.41182908958E+02  0.00000000000E+00 0. -1.
         -3    1    1    2    0  505 -0.38679547885E+02  0.17356192500E+02  0.28195745190E+03  0.28512690074E+03  0.00000000000E+00 0. -1.
<scales pt_clust_3="14000.00000" pt_clust_4="80.57989" pt_clust_5="41.00311" pt_clust_6="42.52495"></scales>
<clustering>
<clus scale="   41.003">  2  5  1 -1</clus>
<clus scale="   42.525">  1  6  2 -1</clus>
<clus scale="   80.580">  1  4  2 -1</clus>
<clus scale="   41.003">  2  3  1 -1</clus>
</clustering>
</event>
<event>
 6    0  0.3522959E+002  0.1205573E+03  0.7546771E-02  0.1242180E+00
         21   -1    0    0  504  502  0.00000000000E+00  0.00000000000E+00  0.15104775972E+03  0.15104775972E+03  0.00000000000E+00 0. -1.
          2   -1    0    0  503    0 -0.00000000000E+00 -0.00000000000E+00 -0.11670966904E+04  0.11670966904E+04  0.00000000000E+00 0.  1.
         21    1    1    2  503  505 -0.17074696544E+02  0.59719260397E+02 -0.56196044183E+03  0.56538259038E+03  0.00000000000E+00 0. -1.
         21    1    1    2  504  501 -0.88928639550E+02  0.49191355902E+00 -0.56993862058E+02  0.10562596851E+03  0.00000000000E+00 0. -1.
         21    1    1    2  505  502  0.20552483145E+03  0.19711890248E+01  0.26821322866E+02  0.20727692898E+03  0.00000000000E+00 0. -1.
          2    1    1    2  501    0 -0.99521495353E+02 -0.62182362980E+02 -0.42391594966E+03  0.43985896226E+03  0.00000000000E+00 0.  1.
<scales pt_clust_3="62.11228" pt_clust_4="91.62815" pt_clust_5="120.55735" pt_clust_6="14000.00000"></scales>
<clustering>
<clus scale="   62.112">  2  3  1 -1</clus>
<clus scale="   91.628">  1  4  2 -1</clus>
<clus scale="  120.557">  1  5  2 -1</clus>
<clus scale="   91.628">  1  3  2 -1</clus>
</clustering>
</event>
<event>
 6    0  0.3522959E+002  0.1434186E+03  0.7546771E-02  0.1208802E+00
          2   -1    0    0  504    0 -0.00000000000E+00  0.00000000000E+00  0.27208765081E+04  0.27208765081E+04  0.00000000000E+00 0.  1.
         21   -1    0    0  505  502  0.00000000000E+00 -0.00000000000E+00 -0.26718240974E+02  0.26718240974E+02  0.00000000000E+00 0. -1.
         21    1    1    2  503  501 -0.45774875385E+02 -0.90575141062E+01  0.10529908755E+03  0.11517497826E+03  0.00000000000E+00 0. -1.
         21    1    1    2  504  502  0.63181154365E+02  0.69810564719E+01  0.46560930285E+03  0.46992830976E+03  0.00000000000E+00 0.  1.
         21    1    1    2  505  503 -0.83763690456E+02 -0.48807978228E+02  0.10653095697E+03  0.14403964513E+03  0.00000000000E+00 0. -1.
          2    1    1    2  501    0  0.66357411477E+02  0.50884435862E+02  0.20167189197E+04  0.20184518159E+04  0.00000000000E+00 0.  1.
<scales pt_clust_3="32.47868" pt_clust_4="63.56566" pt_clust_5="32.47868" pt_clust_6="135.56285"></scales>
<clustering>
<clus scale="   32.479">  3  5 -1 -1</clus>
<clus scale="   63.566">  1  4  2 -1</clus>
<clus scale="  135.563">  1  6  2 -1</clus>
<clus scale="  143.419">  2  3  1 -1</clus>
</clustering>
</event>
<event>
 6    0  0.3522959E+002  0.1786697E+03  0.7546771E-02  0.1169097E+00
         21   -1    0    0  505  502  0.00000000000E+00  0.00000000000E+00  0.13393466927E+04  0.13393466927E+04  0.00000000000E+00 0.  1.
          2   -1    0    0  504    0 -0.00000000000E+00 -0.00000000000E+00 -0.24214995550E+04  0.24214995550E+04  0.00000000000E+00 0. -1.
         21    1    1    2  503  501 -0.15337849163E+03 -0.42321716536E+01 -0.90378306447E+02  0.17807613891E+03  0.00000000000E+00 0. -1.
         21    1    1    2  504  502  0.11977046633E+02  0.56815118929E+02 -0.68552168357E+03  0.68797629758E+03  0.00000000000E+00 0.  1.
         21    1    1    2  505  503  0.16525481807E+03 -0.72648683347E+02  0.12878228937E+04  0.13004133157E+04  0.00000000000E+00 0.  1.
          2    1    1    2  501    0 -0.23853373073E+02  0.20065736072E+02 -0.15940757660E+04  0.15943804956E+04  0.00000000000E+00 0. -1.
<scales pt_clust_3="178.66969" pt_clust_4="73.88790" pt_clust_5="14000.00000" pt_clust_6="31.17077"></scales>
<clustering>
<clus scale="   31.171">  2  6  1 -1</clus>
<clus scale="   73.888">  2  4  1 -1</clus>
<clus scale="  178.670">  2  3  1 -1</clus>
<clus scale="  178.670">  1  3  2 -1</clus>
</clustering>
</event>
<event>
 6    0  0.3522959E+002  0.1704907E+03  0.7546771E-02  0.1177337E+00
         21   -1    0    0  501  502  0.00000000000E+00  0.00000000000E+00  0.55551933493E+02  0.55551933493E+02  0.00000000000E+00 0.  1.
          2   -1    0    0  503    0 -0.00000000000E+00 -0.00000000000E+00 -0.19150063917E+04  0.19150063917E+04  0.00000000000E+00 0.  1.
         21    1    1    2  503  504 -0.15351413888E+02  0.77077260408E+02 -0.29753664107E+03  0.30774116196E+03  0.00000000000E+00 0.  1.
         21    1    1    2  504  505 -0.12717814507E+03 -0.13834871809E+03 -0.32755801253E+03  0.37763593573E+03  0.00000000000E+00 0.  1.
         21    1    1    2  505  502  0.17008020057E+03  0.31074669980E+02 -0.27424247910E+03  0.32419415030E+03  0.00000000000E+00 0.  1.
          2    1    1    2  501    0 -0.27550641615E+02  0.30196787706E+02 -0.96011732554E+03  0.96098707725E+03  0.00000000000E+00 0.  1.
<scales pt_clust_3="89.93762" pt_clust_4="170.49071" pt_clust_5="14000.00000" pt_clust_6="40.87645"></scales>
<clustering>
<clus scale="   40.876">  2  6  1 -1</clus>
<clus scale="   89.938">  2  3  1 -1</clus>
<clus scale="  170.491">  2  4  1 -1</clus>
<clus scale="  170.491">  1  3  2 -1</clus>
</clustering>
</event>
<event>
 6    0  0.3522959E+002  0.6704069E+02  0.7546771E-02  0.1370456E+00
         21   -1    0    0  503  502  0.00000000000E+00  0.00000000000E+00  0.83293576418E+01  0.83293576418E+01  0.00000000000E+00 0. -1.
          2   -1    0    0  504    0 -0.00000000000E+00 -0.00000000000E+00 -0.28522991579E+04  0.28522991579E+04  0.00000000000E+00 0.  1.
         21    1    1    2  503  501  0.70906974976E+00 -0.56174223099E+02 -0.25410229421E+03  0.26023839463E+03  0.00000000000E+00 0. -1.
         21    1    1    2  504  505  0.30947216214E+02 -0.24959140605E+02 -0.37389618359E+03  0.37600404918E+03  0.00000000000E+00 0. -1.
         21    1    1    2  505  502  0.58050422589E+02  0.28516573485E+02 -0.37945522206E+03  0.38492767122E+03  0.00000000000E+00 0. -1.
          2    1    1    2  501    0 -0.89706708552E+02  0.52616790219E+02 -0.18365161004E+04  0.18394584005E+04  0.00000000000E+00 0.  1.
<scales pt_clust_3="58.89591" pt_clust_4="39.75788" pt_clust_5="14000.00000" pt_clust_6="67.04069"></scales>
<clustering>
<clus scale="   39.758">  2  4  1 -1</clus>
<clus scale="   58.896">  1  3  2 -1</clus>
<clus scale="   67.041">  2  6  1 -1</clus>
<clus scale="   58.896">  1  3  2 -1</clus>
</clustering>
</event>
<event>
 6    0  0.3522959E+002  0.1024637E+03  0.7546771E-02  0.1275199E+00
         -4   -1    0    0    0  501 -0.00000000000E+00  0.00000000000E+00  0.54172396604E+03  0.54172396604E+03  0.00000000000E+00 0. -1.
         21   -1    0    0  505  502  0.00000000000E+00 -0.00000000000E+00 -0.48828817944E+03  0.48828817944E+03  0.00000000000E+00 0.  1.
         21    1    1    2  503  504  0.97077378732E+02 -0.61992201434E+02 -0.10524357975E+03  0.15602327255E+03  0.00000000000E+00 0.  1.
         21    1    1    2  504  502 -0.21740288104E+02 -0.10313268717E+03 -0.27338590912E+03  0.29299973822E+03  0.00000000000E+00 0.  1.
         21    1    1    2  505  501 -0.48340696771E+02  0.65580238196E+02 -0.44882765371E+02  0.93016413786E+02  0.00000000000E+00 0.  1.
         -4    1    1    2    0  503 -0.26996393858E+02  0.99544650413E+02  0.47694804084E+03  0.48797272092E+03  0.00000000000E+00 0. -1.
<scales pt_clust_3="102.46368" pt_clust_4="80.12812" pt_clust_5="81.47141" pt_clust_6="14000.00000"></scales>
<clustering>
<clus scale="   81.471">  2  5  1 -1</clus>
<clus scale="   80.128">  2  4  1 -1</clus>
<clus scale="  102.464">  2  3  1 -1</clus>
<clus scale="   81.471">  2  3  1 -1</clus>
</clustering>
</event>
<event>
 6    0  0.6977958E+002  0.9675837E+02  0.7546771E-02  0.1287264E+00
         21   -1    0    0  503  502  0.00000000000E+00  0.00000000000E+00  0.17374859852E+03  0.17374859852E+03  0.00000000000E+00 0. -1.
          1   -1    0    0  504    0 -0.00000000000E+00 -0.00000000000E+00 -0.90717055027E+03  0.90717055027E+03  0.00000000000E+00 0.  1.
         21    1    1    2  503  501 -0.10676978736E+03  0.61536882516E+02  0.13287284796E+03  0.18122298179E+03  0.00000000000E+00 0. -1.
         21    1    1    2  504  505  0.33605388259E+01 -0.46560021500E+02 -0.69193010284E+02  0.83467367848E+02  0.00000000000E+00 0.  1.
         21    1    1    2  505  502  0.34673260015E+02  0.44738634939E+01 -0.30764788526E+02  0.46569546140E+02  0.00000000000E+00 0.  1.
          1    1    1    2  501    0  0.68735988521E+02 -0.19450724510E+02 -0.76633700090E+03  0.76965925301E+03  0.00000000000E+00 0.  1.
<scales pt_clust_3="96.75837" pt_clust_4="46.62073" pt_clust_5="34.96070" pt_clust_6="14000.00000"></scales>
<clustering>
<clus scale="   34.961">  1  5  2 -1</clus>
<clus scale="   46.621">  2  4  1 -1</clus>
<clus scale="   96.758">  1  3  2 -1</clus>
<clus scale="   34.961">  1  3  2 -1</clus>
</clustering>
</event>
<event>
 6    0  0.3522959E+002  0.1670818E+03  0.7546771E-02  0.1180926E+00
         21   -1    0    0  503  502  0.00000000000E+00  0.00000000000E+00  0.19956143288E+03  0.19956143288E+03  0.00000000000E+00 0.  1.
          1   -1    0    0  504    0 -0.00000000000E+00 -0.00000000000E+00 -0.13845274329E+04  0.13845274329E+04  0.00000000000E+00 0.  1.
         21    1    1    2  503  501 -0.13043275072E+03  0.11187453965E+02 -0.37837333667E+03  0.40038012374E+03  0.00000000000E+00 0.  1.
         21    1    1    2  504  505  0.56991184125E+02 -0.19854967733E+02  0.27127021831E+02  0.66167137803E+02  0.00000000000E+00 0.  1.
         21    1    1    2  505  502  0.97688100663E+02 -0.35118600010E+02  0.12218401624E+03  0.16032845943E+03  0.00000000000E+00 0.  1.
          1    1    1    2  501    0 -0.24246534070E+02  0.43786113778E+02 -0.95590370143E+03  0.95721314480E+03  0.00000000000E+00 0.  1.
<scales pt_clust_3="160.80308" pt_clust_4="34.59555" pt_clust_5="34.59555" pt_clust_6="50.05116"></scales>
<clustering>
<clus scale="   34.596">  4  5 -1 -1</clus>
<clus scale="   50.051">  2  6  1 -1</clus>
<clus scale="  160.803">  2  3  1 -1</clus>
<clus scale="  167.082">  1  3  2 -1</clus>
</clustering>
</event>
<event>
 6    0  0.3522959E+002  0.6372255E+02  0.7546771E-02  0.1382842E+00
         21   -1    0    0  505  502  0.00000000000E+00  0.00000000000E+00  0.12585066710E+04  0.12585066710E+04  0.00000000000E+00 0. -1.
          2   -1    0    0  503    0 -0.00000000000E+00 -0.00000000000E+00 -0.85075121633E+03  0.85075121633E+03  0.00000000000E+00 0. -1.
         21    1    1    2  503  502  0.77239867167E+02 -0.91758647121E+01  0.96436563965E+03  0.96749743179E+03  0.00000000000E+00 0. -1.
         21    1    1    2  504  501  0.57989386971E+01 -0.72826670305E+02  0.14286415729E+03  0.16046033477E+03  0.00000000000E+00 0. -1.
         21    1    1    2  505  504 -0.42582875553E+02  0.32731726277E+02  0.13453397420E+03  0.14485874985E+03  0.00000000000E+00 0.  1.
          2    1    1    2  501    0 -0.40455930312E+02  0.49270808741E+02 -0.83400831651E+03  0.83644137087E+03  0.00000000000E+00 0. -1.
<scales pt_clust_3="44.74877" pt_clust_4="14000.00000" pt_clust_5="53.70910" pt_clust_6="63.72255"></scales>
<clustering>
<clus scale="   53.709">  1  5  2 -1</clus>
<clus scale="   44.749">  1  3  2 -1</clus>
<clus scale="   63.723">  2  6  1 -1</clus>
<clus scale="   53.709">  1  3  2 -1</clus>
</clustering>
</event>
<event>
 6    0  0.3522959E+002  0.1452032E+03  0.7546771E-02  0.1206494E+00
          1   -1    0    0  504    0 -0.00000000000E+00  0.00000000000E+00  0.79920176553E+03  0.79920176553E+03  0.00000000000E+00 0.  1.
         21   -1    0    0  505  502  0.00000000000E+00 -0.00000000000E+00 -0.10361725389E+03  0.10361725389E+03  0.00000000000E+00 0.  1.
         21    1    1    2  503  502 -0.10173297816E+03 -0.43107327600E+02  0.74319478235E+02  0.13315864742E+03  0.00000000000E+00 0.  1.
         21    1    1    2  504  503 -0.12716092596E+02 -0.73037396318E+02  0.15530745349E+03  0.17209464077E+03  0.00000000000E+00 0.  1.
         21    1    1    2  505  501  0.15359142847E+03  0.13315350158E+03  0.95379601046E+02  0.22453830448E+03  0.00000000000E+00 0.  1.
          1    1    1    2  501    0 -0.39142357716E+02 -0.17008777660E+02  0.37057797887E+03  0.37302742675E+03  0.00000000000E+00 0.  1.
<scales pt_clust_3="14000.00000" pt_clust_4="84.23940" pt_clust_5="145.20316" pt_clust_6="42.67813"></scales>
<clustering>
<clus scale="   42.678">  1  6  2 -1</clus>
<clus scale="   84.239">  1  4  2 -1</clus>
<clus scale="  145.203">  1  5  2 -1</clus>
<clus scale="  145.203">  2  3  1 -1</clus>
</clustering>
</event>
<event>
 6    0  0.3522959E+002  0.6953731E+02  0.7546771E-02  0.1361674E+00
         21   -1    0    0  504  502  0.00000000000E+00  0.00000000000E+00  0.11248073472E+03  0.11248073472E+03  0.00000000000E+00 0.  1.
          2   -1    0    0  505    0 -0.00000000000E+00 -0.00000000000E+00 -0.20678773979E+04  0.20678773979E+04  0.00000000000E+00 0. -1.
         21    1    1    2  503  501  0.57623251711E+02  0.41834612115E+02 -0.44762173892E+01  0.71348513865E+02  0.00000000000E+00 0.  1.
         21    1    1    2  504  503  0.45857735719E+02 -0.26150701680E+02 -0.16190780456E+01  0.52814889352E+02  0.00000000000E+00 0.  1.
         21    1    1    2  505  502 -0.74143199747E+02  0.47507537757E+02  0.16135085241E+02  0.89523858207E+02  0.00000000000E+00 0.  1.
          2    1    1    2  501    0 -0.29337787682E+02 -0.63191448193E+02 -0.19654364529E+04  0.19666708712E+04  0.00000000000E+00 0. -1.
<scales pt_clust_3="14000.00000" pt_clust_4="52.79007" pt_clust_5="56.02575" pt_clust_6="69.53731"></scales>
<clustering>
<clus scale="   52.790">  1  4  2 -1</clus>
<clus scale="   56.026">  1  5  2 -1</clus>
<clus scale="   69.537">  2  6  1 -1</clus>
<clus scale="   52.790">  1  3  2 -1</clus>
</clustering>
</event>
<event>
 6    0  0.3522959E+002  0.1056981E+03  0.7546771E-02  0.1268750E+00
         21   -1    0    0  504  502  0.00000000000E+00  0.00000000000E+00  0.51439482406E+02  0.51439482406E+02  0.00000000000E+00 0. -1.
          2   -1    0    0  502    0 -0.00000000000E+00 -0.00000000000E+00 -0.22798230527E+04  0.22798230527E+04  0.00000000000E+00 0. -1.
         21    1    1    2  503  501 -0.23887296003E+02  0.11459276741E+03 -0.52349546428E+03  0.53642297339E+03  0.00000000000E+00 0. -1.
         21    1    1    2  504  505  0.16578698289E+02 -0.55366812471E+02 -0.70116563882E+01  0.58219416739E+02  0.00000000000E+00 0. -1.
         21    1    1    2  505  503 -0.54634376379E+02 -0.64535515681E+02 -0.76421161155E+02  0.11397342558E+03  0.00000000000E+00 0. -1.
          2    1    1    2  501    0  0.61942974094E+02  0.53095607461E+01 -0.16214552885E+04  0.16226467194E+04  0.00000000000E+00 0. -1.
<scales pt_clust_3="105.69807" pt_clust_4="57.79565" pt_clust_5="14000.00000" pt_clust_6="62.45559"></scales>
<clustering>
<clus scale="   57.796">  1  4  2 -1</clus>
<clus scale="   62.456">  2  6  1 -1</clus>
<clus scale="  105.698">  2  3  1 -1</clus>
<clus scale="   57.796">  1  3  2 -1</clus>
</clustering>
</event>
<event>
 6    0  0.3522959E+002  0.1262246E+03  0.7546771E-02  0.1233168E+00
         21   -1    0    0  505  502  0.00000000000E+00  0.00000000000E+00  0.50719433518E+03  0.50719433518E+03  0.00000000000E+00 0.  1.
          1   -1    0    0  503    0 -0.00000000000E+00 -0.00000000000E+00 -0.15458883262E+04  0.15458883262E+04  0.00000000000E+00 0.  1.
         21    1    1    2  503  502  0.93279905754E+02  0.24514043271E+02  0.42696833354E+03  0.43772598390E+03  0.00000000000E+00 0.  1.
         21    1    1    2  504  501 -0.12050295778E+03  0.74022642682E+02 -0.10993167983E+03  0.17912366871E+03  0.00000000000E+00 0.  1.
         21    1    1    2  505  504  0.20404811729E+02  0.31168840034E+02  0.27885153967E+02  0.46534231943E+02  0.00000000000E+00 0.  1.
          1    1    1    2  501    0  0.68182402962E+01 -0.12970552599E+03 -0.13836157988E+04  0.13896987769E+04  0.00000000000E+00 0.  1.
<scales pt_clust_3="124.03300" pt_clust_4="126.22461" pt_clust_5="37.25390" pt_clust_6="14000.00000"></scales>
<clustering>
<clus scale="   37.254">  1  5  2 -1</clus>
<clus scale="  124.033">  1  3  2 -1</clus>
<clus scale="  126.225">  1  4  2 -1</clus>
<clus scale="   37.254">  1  3  2 -1</clus>
</clustering>
</event>
<event>
 6    0  0.3522959E+002  0.1122921E+03  0.7546771E-02  0.1256383E+00
         21   -1    0    0  501  502  0.00000000000E+00  0.00000000000E+00  0.11048183689E+03  0.11048183689E+03  0.00000000000E+00 0.  1.
          1   -1    0    0  504    0 -0.00000000000E+00 -0.00000000000E+00 -0.10005882549E+04  0.10005882549E+04  0.00000000000E+00 0. -1.
         21    1    1    2  503  502 -0.47758094892E+02  0.11676293221E+02  0.76087407769E+02  0.90589541737E+02  0.00000000000E+00 0.  1.
         21    1    1    2  504  505  0.18252882244E+02 -0.54149466811E+02 -0.10189708565E+03  0.11682614661E+03  0.00000000000E+00 0.  1.
         21    1    1    2  505  503  0.36054048565E+01 -0.53899187248E+02 -0.26925956749E+02  0.60358333949E+02  0.00000000000E+00 0. -1.
          1    1    1    2  501    0  0.25899807792E+02  0.96372360838E+02 -0.83737078339E+03  0.84329606951E+03  0.00000000000E+00 0. -1.
<scales pt_clust_3="49.16474" pt_clust_4="50.38977" pt_clust_5="50.38977" pt_clust_6="99.81410"></scales>
<clustering>
<clus scale="   49.165">  1  3  2 -1</clus>
<clus scale="   50.390">  4  5 -1 -1</clus>
<clus scale="   99.814">  2  6  1 -1</clus>
<clus scale="   49.165">  1  3  2 -1</clus>
</clustering>
</event>
<event>
 6    0  0.3522959E+002  0.8959995E+02  0.7546771E-02  0.1303823E+00
         21   -1    0    0  505  502  0.00000000000E+00  0.00000000000E+00  0.90062513165E+02  0.90062513165E+02  0.00000000000E+00 0. -1.
          1   -1    0    0  504    0 -0.00000000000E+00 -0.00000000000E+00 -0.18257390462E+04  0.18257390462E+04  0.00000000000E+00 0.  1.
         21    1    1    2  503  502 -0.72154858471E+02  0.24969447570E+02  0.56592993953E+01  0.76562553396E+02  0.00000000000E+00 0. -1.
         21    1    1    2  504  503 -0.16982876240E+02 -0.27259389752E+02 -0.37400898920E+03  0.37538542382E+03  0.00000000000E+00 0. -1.
         21    1    1    2  505  501  0.11890459840E+03 -0.10342817532E+02 -0.26019914161E+02  0.12215692092E+03  0.00000000000E+00 0. -1.
          1    1    1    2  501    0 -0.29766863689E+02  0.12632759714E+02 -0.13413069291E+04  0.13416966612E+04  0.00000000000E+00 0.  1.
<scales pt_clust_3="14000.00000" pt_clust_4="32.11686" pt_clust_5="89.59995" pt_clust_6="47.17294"></scales>
<clustering>
<clus scale="   32.117">  2  4  1 -1</clus>
<clus scale="   47.173">  2  6  1 -1</clus>
<clus scale="   89.600">  2  5  1 -1</clus>
<clus scale="   89.600">  1  3  2 -1</clus>
</clustering>
</event>
<event>
 6    0  0.3522959E+002  0.2780650E+03  0.7546771E-02  0.1096751E+00
          1   -1    0    0  504    0 -0.00000000000E+00  0.00000000000E+00  0.13870781946E+04  0.13870781946E+04  0.00000000000E+00 0. -1.
         21   -1    0    0  503  502  0.00000000000E+00 -0.00000000000E+00 -0.22355819643E+03  0.22355819643E+03  0.00000000000E+00 0. -1.
         21    1    1    2  503  501  0.18572925861E+03  0.10508300118E+03  0.15651846268E+02  0.21396909808E+03  0.00000000000E+00 0. -1.
         21    1    1    2  504  505 -0.21517804977E+03  0.22762527266E+03  0.41063351597E+03  0.51646368923E+03  0.00000000000E+00 0. -1.
         21    1    1    2  505  502  0.79580446578E+02 -0.24941328563E+03  0.18769915796E+03  0.32213507792E+03  0.00000000000E+00 0. -1.
          1    1    1    2  501    0 -0.50131655416E+02 -0.83294988201E+02  0.54953547800E+03  0.55806852583E+03  0.00000000000E+00 0. -1.
<scales pt_clust_3="201.84024" pt_clust_4="14000.00000" pt_clust_5="278.06496" pt_clust_6="97.21748"></scales>
<clustering>
<clus scale="   97.217">  1  6  2 -1</clus>
<clus scale="  201.840">  2  3  1 -1</clus>
<clus scale="  278.065">  2  5  1 -1</clus>
<clus scale="  201.840">  2  3  1 -1</clus>
</clustering>
</event>
<event>
 6    0  0.3522959E+002  0.7772312E+02  0.7546771E-02  0.1335640E+00
         21   -1    0    0  505  502  0.00000000000E+00  0.00000000000E+00  0.11824510705E+03  0.11824510705E+03  0.00000000000E+00 0.  1.
          1   -1    0    0  504    0 -0.00000000000E+00 -0.00000000000E+00 -0.68439274431E+03  0.68439274431E+03  0.00000000000E+00 0. -1.
         21    1    1    2  503  501 -0.16554765369E+02 -0.54936622766E+02  0.45010555336E+02  0.72924912541E+02  0.00000000000E+00 0.  1.
         21    1    1    2  504  502  0.98759226919E+02  0.28232806222E+02 -0.69058518390E+02  0.12377219078E+03  0.00000000000E+00 0. -1.
         21    1    1    2  505  503 -0.48307461435E+02 -0.66330332144E+01  0.11666879325E+02  0.50137052497E+02  0.00000000000E+00 0.  1.
          1    1    1    2  501    0 -0.33897000115E+02  0.33336849759E+02 -0.55376655353E+03  0.55580369554E+03  0.00000000000E+00 0. -1.
<scales pt_clust_3="14000.00000" pt_clust_4="77.72312" pt_clust_5="53.36475" pt_clust_6="47.54316"></scales>
<clustering>
<clus scale="   47.543">  2  6  1 -1</clus>
<clus scale="   53.365">  1  5  2 -1</clus>
<clus scale="   77.723">  2  4  1 -1</clus>
<clus scale="   53.365">  1  3  2 -1</clus>
</clustering>
</event>
<event>
 6    0  0.3522959E+002  0.1640005E+03  0.7546771E-02  0.1184253E+00
          2   -1    0    0  503    0 -0.00000000000E+00  0.00000000000E+00  0.18830661779E+04  0.18830661779E+04  0.00000000000E+00 0.  1.
         21   -1    0    0  504  502  0.00000000000E+00 -0.00000000000E+00 -0.74125124536E+02  0.74125124536E+02  0.00000000000E+00 0.  1.
         21    1    1    2  503  502  0.16632647572E+02 -0.44720561063E+02  0.32971883677E+02  0.57997574607E+02  0.00000000000E+00 0.  1.
         21    1    1    2  504  505  0.13166281045E+03  0.12142475338E+03  0.88798294265E+02  0.19991048860E+03  0.00000000000E+00 0.  1.
         21    1    1    2  505  501 -0.13861969280E+03 -0.46405557726E+02  0.92768869468E+03  0.93913535194E+03  0.00000000000E+00 0.  1.
          2    1    1    2  501    0 -0.96757652139E+01 -0.30298634592E+02  0.75948218070E+03  0.76014788725E+03  0.00000000000E+00 0.  1.
<scales pt_clust_3="48.73330" pt_clust_4="14000.00000" pt_clust_5="164.00047" pt_clust_6="31.80610"></scales>
<clustering>
<clus scale="   31.806">  1  6  2 -1</clus>
<clus scale="   48.733">  2  3  1 -1</clus>
<clus scale="  164.000">  1  5  2 -1</clus>
<clus scale="   48.733">  2  3  1 -1</clus>
</clustering>
</event>
<event>
 6    0  0.3522959E+002  0.1033045E+03  0.7546771E-02  0.1273497E+00
         21   -1    0    0  505  502  0.00000000000E+00  0.00000000000E+00  0.10716380073E+03  0.10716380073E+03  0.00000000000E+00 0. -1.
          2   -1    0    0  502    0 -0.00000000000E+00 -0.00000000000E+00 -0.45711741930E+04  0.45711741930E+04  0.00000000000E+00 0.  1.
         21    1    1    2  503  501  0.32022868562E+02 -0.14872734663E+03 -0.95667304451E+03  0.96869427677E+03  0.00000000000E+00 0.  1.
         21    1    1    2  504  503  0.66354413833E+02  0.90264399874E+02 -0.30688255977E+02  0.11615652876E+03  0.00000000000E+00 0. -1.
         21    1    1    2  505  504 -0.53817282225E+02  0.88858947184E+01  0.45302151325E+02  0.70905175451E+02  0.00000000000E+00 0. -1.
          2    1    1    2  501    0 -0.44560000169E+02  0.49577052040E+02 -0.35219512431E+04  0.35225820128E+04  0.00000000000E+00 0.  1.
<scales pt_clust_3="103.30452" pt_clust_4="14000.00000" pt_clust_5="54.54593" pt_clust_6="66.93353"></scales>
<clustering>
<clus scale="   54.546">  1  5  2 -1</clus>
<clus scale="   66.934">  2  6  1 -1</clus>
<clus scale="  103.305">  2  3  1 -1</clus>
<clus scale="   54.546">  1  3  2 -1</clus>
</clustering>
</event>
<event>
 6    0  0.3522959E+002  0.1009531E+03  0.7546771E-02  0.1278304E+00
          2   -1    0    0  505    0 -0.00000000000E+00  0.00000000000E+00  0.17504201382E+04  0.17504201382E+04  0.00000000000E+00 0.  1.
         21   -1    0    0  503  502  0.00000000000E+00 -0.00000000000E+00 -0.75014931292E+03  0.75014931292E+03  0.00000000000E+00 0.  1.
         21    1    1    2  503  501  0.10216100881E+03  0.19873931725E+02 -0.64049644737E+03  0.64889717520E+03  0.00000000000E+00 0.  1.
         21    1    1    2  504  502 -0.90011991229E+02  0.35647560260E+02 -0.77126430896E+02  0.12377961650E+03  0.00000000000E+00 0.  1.
         21    1    1    2  505  504  0.22236750178E+02 -0.37989061708E+02  0.96788798860E+02  0.10632832855E+03  0.00000000000E+00 0.  1.
          2    1    1    2  501    0 -0.34385767755E+02 -0.17532430277E+02  0.16211049047E+04  0.16215643309E+04  0.00000000000E+00 0.  1.
<scales pt_clust_3="100.95312" pt_clust_4="14000.00000" pt_clust_5="52.00628" pt_clust_6="38.59750"></scales>
<clustering>
<clus scale="   38.598">  1  6  2 -1</clus>
<clus scale="   52.006">  1  5  2 -1</clus>
<clus scale="  100.953">  2  3  1 -1</clus>
<clus scale="  100.953">  2  3  1 -1</clus>
</clustering>
</event>
<event>
 6    0  0.3522959E+002  0.6436066E+02  0.7546771E-02  0.1380393E+00
         21   -1    0    0  501  502  0.00000000000E+00  0.00000000000E+00  0.12446568373E+03  0.12446568373E+03  0.00000000000E+00 0. -1.
          1   -1    0    0  503    0 -0.00000000000E+00 -0.00000000000E+00 -0.17692094462E+03  0.17692094462E+03  0.00000000000E+00 0. -1.
         21    1    1    2  503  504  0.58551447599E+02  0.64612596568E+02 -0.81188100797E+02  0.11914095586E+03  0.00000000000E+00 0. -1.
         21    1    1    2  504  505 -0.52851963402E+02  0.27814399105E+02  0.20582282074E+02  0.63171205216E+02  0.00000000000E+00 0. -1.
         21    1    1    2  505  502 -0.29331184039E+02 -0.42496999991E+02  0.29944378364E+02  0.59690695765E+02  0.00000000000E+00 0. -1.
          1    1    1    2  501    0  0.23631699842E+02 -0.49929995683E+02 -0.21793820529E+02  0.59383771517E+02  0.00000000000E+00 0. -1.
<scales pt_clust_3="14000.00000" pt_clust_4="64.36066" pt_clust_5="51.63636" pt_clust_6="62.24325"></scales>
<clustering>
<clus scale="   51.636">  1  5  2 -1</clus>
<clus scale="   62.243">  2  6  1 -1</clus>
<clus scale="   64.361">  1  4  2 -1</clus>
<clus scale="   51.636">  1  3  2 -1</clus>
</clustering>
</event>
<event>
 6    0  0.3522959E+002  0.3010366E+03  0.7546771E-02  0.1084724E+00
         21   -1    0    0  504  502  0.00000000000E+00  0.00000000000E+00  0.12875723783E+04  0.12875723783E+04  0.00000000000E+00 0.  1.
          1   -1    0    0  505    0 -0.00000000000E+00 -0.00000000000E+00 -0.13151854468E+04  0.13151854468E+04  0.00000000000E+00 0.  1.
         21    1    1    2  503  502 -0.30191805763E+02 -0.15029426077E+03  0.33945774744E+03  0.37246673979E+03  0.00000000000E+00 0.  1.
         21    1    1    2  504  501  0.25173092908E+03 -0.99159038287E+02  0.66411741535E+03  0.71711429835E+03  0.00000000000E+00 0.  1.
         21    1    1    2  505  503 -0.21688427459E+03  0.21185969002E+03  0.14521022555E+03  0.33616859821E+03  0.00000000000E+00 0.  1.
          1    1    1    2  501    0 -0.46548487279E+01  0.37593609044E+02 -0.11763984569E+04  0.11770081888E+04  0.00000000000E+00 0.  1.
<scales pt_clust_3="149.02019" pt_clust_4="301.03665" pt_clust_5="14000.00000" pt_clust_6="37.88070"></scales>
<clustering>
<clus scale="   37.881">  2  6  1 -1</clus>
<clus scale="  149.020">  1  3  2 -1</clus>
<clus scale="  301.037">  1  4  2 -1</clus>
<clus scale="  149.020">  1  3  2 -1</clus>
</clustering>
</event>
<event>
 6    0  0.3522959E+002  0.7386603E+02  0.7546771E-02  0.1347419E+00
         21   -1    0    0  505  502  0.00000000000E+00  0.00000000000E+00  0.28945521006E+03  0.28945521006E+03  0.00000000000E+00 0.  1.
         -3   -1    0    0    0  501 -0.00000000000E+00 -0.00000000000E+00 -0.58635513170E+03  0.58635513170E+03  0.00000000000E+00 0. -1.
         21    1    1    2  503  504  0.30386799280E+02 -0.94656902013E+02 -0.41732671845E+03  0.42900451816E+03  0.00000000000E+00 0. -1.
         21    1    1    2  504  502  0.59124551723E+02 -0.29304657930E+02  0.27381460664E+01  0.66045234777E+02  0.00000000000E+00 0.  1.
         21    1    1    2  505  501 -0.72236736835E+02  0.98256737837E+02  0.23212318590E+03  0.26220927922E+03  0.00000000000E+00 0.  1.
         -3    1    1    2    0  503 -0.17274614168E+02  0.25704822105E+02 -0.11443453515E+03  0.11855130961E+03  0.00000000000E+00 0. -1.
<scales pt_clust_3="73.86603" pt_clust_4="64.18507" pt_clust_5="14000.00000" pt_clust_6="30.97015"></scales>
<clustering>
<clus scale="   30.970">  2  6  1 -1</clus>
<clus scale="   64.185">  1  4  2 -1</clus>
<clus scale="   73.866">  2  3  1 -1</clus>
<clus scale="   64.185">  1  3  2 -1</clus>
</clustering>
</event>
<event>
 6    0  0.3522959E+002  0.2463326E+03  0.7546771E-02  0.1115645E+00
         21   -1    0    0  503  502  0.00000000000E+00  0.00000000000E+00  0.89586835608E+03  0.89586835608E+03  0.00000000000E+00 0. -1.
          2   -1    0    0  504    0 -0.00000000000E+00 -0.00000000000E+00 -0.14959694816E+04  0.14959694816E+04  0.00000000000E+00 0.  1.
         21    1    1    2  503  501  0.35269005459E+02  0.44623201379E+02  0.59205874632E+02  0.82100355897E+02  0.00000000000E+00 0.  1.
         21    1    1    2  504  505 -0.24610991396E+02 -0.23211447887E+03 -0.17724082688E+03  0.29308214363E+03  0.00000000000E+00 0.  1.
         21    1    1    2  505  502  0.14252088246E+03  0.14381615602E+03  0.74871546030E+03  0.77560952106E+03  0.00000000000E+00 0. -1.
          2    1    1    2  501    0 -0.15317889652E+03  0.43675121472E+02 -0.12307816336E+04  0.12410458171E+04  0.00000000000E+00 0.  1.
<scales pt_clust_3="56.87823" pt_clust_4="14000.00000" pt_clust_5="246.33260" pt_clust_6="159.14917"></scales>
<clustering>
<clus scale="   56.878">  1  3  2 -1</clus>
<clus scale="  159.149">  2  6  1 -1</clus>
<clus scale="  246.333">  1  5  2 -1</clus>
<clus scale="   56.878">  1  3  2 -1</clus>
</clustering>
</event>
<event>
 6    0  0.3522959E+002  0.7699068E+02  0.7546771E-02  0.1337815E+00
         21   -1    0    0  501  502  0.00000000000E+00  0.00000000000E+00  0.18857228499E+03  0.18857228499E+03  0.00000000000E+00 0. -1.
          2   -1    0    0  505    0 -0.00000000000E+00 -0.00000000000E+00 -0.20704187749E+04  0.20704187749E+04  0.00000000000E+00 0. -1.
         21    1    1    2  503  504  0.55510683694E+02  0.32509646877E+02 -0.30855817893E+03  0.31519273933E+03  0.00000000000E+00 0. -1.
         21    1    1    2  504  502  0.42740772182E+02  0.64039720217E+02  0.16848869970E+03  0.18524659592E+03  0.00000000000E+00 0. -1.
         21    1    1    2  505  503 -0.50144480826E+02 -0.36540435872E+02 -0.12127126217E+03  0.13622184641E+03  0.00000000000E+00 0. -1.
          2    1    1    2  501    0 -0.48106975049E+02 -0.60008931221E+02 -0.16205057485E+04  0.16223298782E+04  0.00000000000E+00 0. -1.
<scales pt_clust_3="54.42261" pt_clust_4="76.99068" pt_clust_5="62.04573" pt_clust_6="14000.00000"></scales>
<clustering>
<clus scale="   62.046">  2  5  1 -1</clus>
<clus scale="   54.423">  2  3  1 -1</clus>
<clus scale="   76.991">  1  4  2 -1</clus>
<clus scale="   76.991">  1  3  2 -1</clus>
</clustering>
</event>
<event>
 6    0  0.3522959E+002  0.1885208E+03  0.7546771E-02  0.1159802E+00
          1   -1    0    0  502    0 -0.00000000000E+00  0.00000000000E+00  0.47934675560E+03  0.47934675560E+03  0.00000000000E+00 0.  1.
         21   -1    0    0  504  502  0.00000000000E+00 -0.00000000000E+00 -0.21640954150E+03  0.21640954150E+03  0.00000000000E+00 0.  1.
         21    1    1    2  503  501 -0.99249106155E+02 -0.30209453428E+02  0.50794919271E+02  0.11551242346E+03  0.00000000000E+00 0.  1.
         21    1    1    2  504  505  0.19510993521E+03  0.18897431699E+02 -0.87180708819E+02  0.21453548828E+03  0.00000000000E+00 0.  1.
         21    1    1    2  505  503 -0.58334599963E+02 -0.10498654032E+02 -0.38949392480E+01  0.59399645125E+02  0.00000000000E+00 0.  1.
          1    1    1    2  501    0 -0.37526229089E+02  0.21810675761E+02  0.30321794290E+03  0.30630874023E+03  0.00000000000E+00 0.  1.
<scales pt_clust_3="32.98915" pt_clust_4="183.39914" pt_clust_5="32.98915" pt_clust_6="43.40419"></scales>
<clustering>
<clus scale="   32.989">  3  5 -1 -1</clus>
<clus scale="   43.404">  1  6  2 -1</clus>
<clus scale="  183.399">  2  4  1 -1</clus>
<clus scale="  183.399">  2  3  1 -1</clus>
</clustering>
</event>
<event>
 6    0  0.3522959E+002  0.7277478E+02  0.7546771E-02  0.1350904E+00
         21   -1    0    0  503  502  0.00000000000E+00  0.00000000000E+00  0.66944388360E+02  0.66944388360E+02  0.00000000000E+00 0. -1.
          2   -1    0    0  505    0 -0.00000000000E+00 -0.00000000000E+00 -0.19179035988E+04  0.19179035988E+04  0.00000000000E+00 0. -1.
         21    1    1    2  503  504  0.26198471798E+02  0.35798903766E+02  0.63187522566E+01  0.44809017680E+02  0.00000000000E+00 0. -1.
         21    1    1    2  504  501  0.40496945319E+01  0.83171090247E+02 -0.68764437776E+02  0.10799249132E+03  0.00000000000E+00 0. -1.
         21    1    1    2  505  502 -0.35042964917E+02 -0.46730477150E+02 -0.19539731303E+02  0.61591785039E+02  0.00000000000E+00 0. -1.
          2    1    1    2  501    0  0.47947985872E+01 -0.72239516863E+02 -0.17689737936E+04  0.17704546931E+04  0.00000000000E+00 0. -1.
<scales pt_clust_3="44.36126" pt_clust_4="14000.00000" pt_clust_5="35.87207" pt_clust_6="72.77478"></scales>
<clustering>
<clus scale="   44.361">  1  3  2 -1</clus>
<clus scale="   35.872">  1  5  2 -1</clus>
<clus scale="   72.775">  2  6  1 -1</clus>
<clus scale="   44.361">  1  3  2 -1</clus>
</clustering>
</event>
<event>
 6    0  0.3522959E+002  0.1238050E+03  0.7546771E-02  0.1236949E+00
          1   -1    0    0  504    0 -0.00000000000E+00  0.00000000000E+00  0.19359676703E+04  0.19359676703E+04  0.00000000000E+00 0. -1.
         21   -1    0    0  501  502  0.00000000000E+00 -0.00000000000E+00 -0.26283436124E+02  0.26283436124E+02  0.00000000000E+00 0.  1.
         21    1    1    2  503  502 -0.54244144182E+02  0.45757896234E+02  0.95889324116E+02  0.11929364914E+03  0.00000000000E+00 0.  1.
         21    1    1    2  504  505  0.58627694948E+02  0.37164641983E+02  0.45611863262E+03  0.46137037643E+03  0.00000000000E+00 0. -1.
         21    1    1    2  505  503 -0.12445581412E+02  0.51327925822E+02  0.74166064177E+02  0.91049731144E+02  0.00000000000E+00 0.  1.
          1    1    1    2  501    0  0.80620306467E+01 -0.13425046404E+03  0.12835102133E+04  0.12905373497E+04  0.00000000000E+00 0. -1.
<scales pt_clust_3="32.87651" pt_clust_4="69.41482" pt_clust_5="32.87651" pt_clust_6="117.79373"></scales>
<clustering>
<clus scale="   32.877">  3  5 -1 -1</clus>
<clus scale="   69.415">  1  4  2 -1</clus>
<clus scale="  117.794">  1  6  2 -1</clus>
<clus scale="  123.805">  2  3  1 -1</clus>
</clustering>
</event>
<event>
 6    0  0.3522959E+002  0.9950267E+02  0.7546771E-02  0.1281345E+00
          2   -1    0    0  503    0 -0.00000000000E+00  0.00000000000E+00  0.12637327221E+04  0.12637327221E+04  0.00000000000E+00 0. -1.
         21   -1    0    0  504  502  0.00000000000E+00 -0.00000000000E+00 -0.30958384430E+03  0.30958384430E+03  0.00000000000E+00 0.  1.
         21    1    1    2  503  505  0.68372392916E+02 -0.12030496827E+03  0.26360049320E+03  0.29771343524E+03  0.00000000000E+00 0.  1.
         21    1    1    2  504  501 -0.74824256230E+02 -0.53861820599E+02 -0.41188373923E+02  0.10097646847E+03  0.00000000000E+00 0.  1.
         21    1    1    2  505  502 -0.58688127094E+01  0.10772740833E+03 -0.20701753854E+03  0.23344356648E+03  0.00000000000E+00 0.  1.
          2    1    1    2  501    0  0.12320676023E+02  0.66439380543E+02  0.93875429707E+03  0.94118309622E+03  0.00000000000E+00 0. -1.
<scales pt_clust_3="14000.00000" pt_clust_4="87.79303" pt_clust_5="99.50267" pt_clust_6="67.57211"></scales>
<clustering>
<clus scale="   67.572">  1  6  2 -1</clus>
<clus scale="   87.793">  2  4  1 -1</clus>
<clus scale="   99.503">  2  5  1 -1</clus>
<clus scale="   87.793">  2  3  1 -1</clus>
</clustering>
</event>
<event>
 6    0  0.3522959E+002  0.1148842E+03  0.7546771E-02  0.1251783E+00
         21   -1    0    0  505  502  0.00000000000E+00  0.00000000000E+00  0.11714013537E+03  0.11714013537E+03  0.00000000000E+00 0. -1.
          1   -1    0    0  503    0 -0.00000000000E+00 -0.00000000000E+00 -0.15606600394E+04  0.15606600394E+04  0.00000000000E+00 0. -1.
         21    1    1    2  503  504  0.71956456011E+01  0.78352746073E+02 -0.73227708073E+02  0.10748594030E+03  0.00000000000E+00 0. -1.
         21    1    1    2  504  502 -0.21828926375E+02  0.34959880103E+02  0.54597492523E+01  0.41575282385E+02  0.00000000000E+00 0. -1.
         21    1    1    2  505  501 -0.53372914984E+01 -0.16152583229E+03 -0.99282433681E+01  0.16191865610E+03  0.00000000000E+00 0. -1.
          1    1    1    2  501    0  0.19970572272E+02  0.48213206112E+02 -0.13658237018E+04  0.13668202959E+04  0.00000000000E+00 0. -1.
<scales pt_clust_3="114.88416" pt_clust_4="41.21523" pt_clust_5="14000.00000" pt_clust_6="52.31335"></scales>
<clustering>
<clus scale="   41.215">  1  4  2 -1</clus>
<clus scale="   52.313">  2  6  1 -1</clus>
<clus scale="  114.884">  2  3  1 -1</clus>
<clus scale="   41.215">  1  3  2 -1</clus>
</clustering>
</event>
<event>
 6    0  0.3522959E+002  0.1227872E+03  0.7546771E-02  0.1238569E+00
         21   -1    0    0  504  502  0.00000000000E+00  0.00000000000E+00  0.13860819573E+03  0.13860819573E+03  0.00000000000E+00 0. -1.
          1   -1    0    0  505    0 -0.00000000000E+00 -0.00000000000E+00 -0.24075600471E+04  0.24075600471E+04  0.00000000000E+00 0.  1.
         21    1    1    2  503  501  0.10294906899E+02 -0.77300086057E+02  0.37735488395E+02  0.86632877691E+02  0.00000000000E+00 0.  1.
         21    1    1    2  504  503  0.15262471432E+02 -0.34300637279E+02  0.64001892315E+02  0.74200532153E+02  0.00000000000E+00 0. -1.
         21    1    1    2  505  502  0.24877588036E+02  0.96490017066E+02 -0.34864405707E+03  0.36260432473E+03  0.00000000000E+00 0.  1.
          1    1    1    2  501    0 -0.50434966368E+02  0.15110706270E+02 -0.20220451751E+04  0.20227305083E+04  0.00000000000E+00 0.  1.
<scales pt_clust_3="34.05517" pt_clust_4="34.05517" pt_clust_5="112.55094" pt_clust_6="52.64997"></scales>
<clustering>
<clus scale="   34.055">  3  4 -1 -1</clus>
<clus scale="   52.650">  2  6  1 -1</clus>
<clus scale="  112.551">  2  5  1 -1</clus>
<clus scale="  122.787">  1  3  2 -1</clus>
</clustering>
</event>
<event>
 6    0  0.3522959E+002  0.1509692E+03  0.7546771E-02  0.1199287E+00
         21   -1    0    0  505  502  0.00000000000E+00  0.00000000000E+00  0.13146713921E+03  0.13146713921E+03  0.00000000000E+00 0. -1.
          1   -1    0    0  503    0 -0.00000000000E+00 -0.00000000000E+00 -0.19369640962E+04  0.19369640962E+04  0.00000000000E+00 0.  1.
         21    1    1    2  503  504  0.13800068699E+03 -0.44913619770E+02 -0.12805239783E+04  0.12887214912E+04  0.00000000000E+00 0.  1.
         21    1    1    2  504  502 -0.45874363202E+02  0.34107270922E+02 -0.25182576679E+02  0.62465392795E+02  0.00000000000E+00 0. -1.
         21    1    1    2  505  501 -0.10732257019E+03 -0.19784908823E+02  0.80713769788E+02  0.13573610176E+03  0.00000000000E+00 0. -1.
          1    1    1    2  501    0  0.15196246396E+02  0.30591257671E+02 -0.58050417173E+03  0.58150824959E+03  0.00000000000E+00 0.  1.
<scales pt_clust_3="150.96921" pt_clust_4="57.37041" pt_clust_5="14000.00000" pt_clust_6="34.15774"></scales>
<clustering>
<clus scale="   34.158">  2  6  1 -1</clus>
<clus scale="   57.370">  1  4  2 -1</clus>
<clus scale="  150.969">  2  3  1 -1</clus>
<clus scale="   57.370">  1  3  2 -1</clus>
</clustering>
</event>
<event>
 6    0  0.3522959E+002  0.1138170E+03  0.7546771E-02  0.1253660E+00
         21   -1    0    0  504  502  0.00000000000E+00  0.00000000000E+00  0.22053038539E+04  0.22053038539E+04  0.00000000000E+00 0. -1.
         -3   -1    0    0    0  501 -0.00000000000E+00 -0.00000000000E+00 -0.14501364267E+02  0.14501364267E+02  0.00000000000E+00 0. -1.
         21    1    1    2  503  502  0.33536470197E+02 -0.10959759233E+02  0.52095483743E+03  0.52214821057E+03  0.00000000000E+00 0. -1.
         21    1    1    2  504  501 -0.10452937674E+03  0.80883442865E+02  0.96251839719E+03  0.97155040366E+03  0.00000000000E+00 0. -1.
         21    1    1    2  505  503  0.10424694039E+03 -0.32870267413E+02  0.56070642623E+03  0.57126138980E+03  0.00000000000E+00 0. -1.
         -3    1    1    2    0  505 -0.33254033847E+02 -0.37053416219E+02  0.14662282880E+03  0.15484521416E+03  0.00000000000E+00 0. -1.
<scales pt_clust_3="35.28188" pt_clust_4="113.81705" pt_clust_5="14000.00000" pt_clust_6="48.59832"></scales>
<clustering>
<clus scale="   35.282">  1  3  2 -1</clus>
<clus scale="   48.598">  2  6  1 -1</clus>
<clus scale="  113.817">  1  4  2 -1</clus>
<clus scale="   35.282">  1  3  2 -1</clus>
</clustering>
</event>
<event>
 6    0  0.3522959E+002  0.1503243E+03  0.7546771E-02  0.1200075E+00
          2   -1    0    0  504    0 -0.00000000000E+00  0.00000000000E+00  0.19837628147E+04  0.19837628147E+04  0.00000000000E+00 0. -1.
         21   -1    0    0  503  502  0.00000000000E+00 -0.00000000000E+00 -0.42101136982E+03  0.42101136982E+03  0.00000000000E+00 0. -1.
         21    1    1    2  503  501  0.20376547205E+03  0.11927145976E+02 -0.36859675036E+03  0.42133856788E+03  0.00000000000E+00 0. -1.
         21    1    1    2  504  505 -0.11957974657E+03 -0.33705342579E+02  0.89720371044E+03  0.90576479505E+03  0.00000000000E+00 0. -1.
         21    1    1    2  505  502 -0.54030401005E+02  0.91847298177E+01  0.13421701918E+02  0.56425043881E+02  0.00000000000E+00 0. -1.
          2    1    1    2  501    0 -0.30155324474E+02  0.12593466786E+02  0.10207227829E+04  0.10212457777E+04  0.00000000000E+00 0. -1.
<scales pt_clust_3="150.32427" pt_clust_4="14000.00000" pt_clust_5="55.96107" pt_clust_6="32.67934"></scales>
<clustering>
<clus scale="   32.679">  1  6  2 -1</clus>
<clus scale="   55.961">  2  5  1 -1</clus>
<clus scale="  150.324">  2  3  1 -1</clus>
<clus scale="   55.961">  2  3  1 -1</clus>
</clustering>
</event>
<event>
 6    0  0.3522959E+002  0.1074835E+03  0.7546771E-02  0.1265302E+00
         21   -1    0    0  504  502  0.00000000000E+00  0.00000000000E+00  0.10878047278E+03  0.10878047278E+03  0.00000000000E+00 0.  1.
          1   -1    0    0  503    0 -0.00000000000E+00 -0.00000000000E+00 -0.22742118844E+04  0.22742118844E+04  0.00000000000E+00 0. -1.
         21    1    1    2  503  505 -0.31246749514E+02  0.68125809283E+02 -0.52280850203E+03  0.52815359039E+03  0.00000000000E+00 0. -1.
         21    1    1    2  504  501  0.19443837249E+02  0.65112690748E+02 -0.35719120408E+02  0.76769661105E+02  0.00000000000E+00 0. -1.
         21    1    1    2  505  502  0.34799441050E+02 -0.16275232375E+03  0.42456603096E+01  0.16648527146E+03  0.00000000000E+00 0.  1.
          1    1    1    2  501    0 -0.22996528784E+02  0.29513823716E+02 -0.16111494495E+04  0.16115838342E+04  0.00000000000E+00 0. -1.
<scales pt_clust_3="107.48349" pt_clust_4="69.84304" pt_clust_5="14000.00000" pt_clust_6="37.41532"></scales>
<clustering>
<clus scale="   37.415">  2  6  1 -1</clus>
<clus scale="   69.843">  1  4  2 -1</clus>
<clus scale="  107.483">  2  3  1 -1</clus>
<clus scale="   69.843">  1  3  2 -1</clus>
</clustering>
</event>
<event>
 6    0  0.3522959E+002  0.1396854E+03  0.7546771E-02  0.1213753E+00
          2   -1    0    0  503    0 -0.00000000000E+00  0.00000000000E+00  0.73021945265E+02  0.73021945265E+02  0.00000000000E+00 0. -1.
         21   -1    0    0  505  502  0.00000000000E+00 -0.00000000000E+00 -0.22841728093E+04  0.22841728093E+04  0.00000000000E+00 0. -1.
         21    1    1    2  503  504  0.32686424877E+02 -0.49527785074E+02 -0.19786774426E+03  0.20657455817E+03  0.00000000000E+00 0. -1.
         21    1    1    2  504  502  0.11472779708E+02 -0.56099079791E+02 -0.29143235899E+03  0.29700429508E+03  0.00000000000E+00 0. -1.
         21    1    1    2  505  501 -0.17539819451E+03  0.58873928609E+02 -0.17030089754E+04  0.17130295492E+04  0.00000000000E+00 0. -1.
          2    1    1    2  501    0  0.13123898992E+03  0.46752936257E+02 -0.18841785372E+02  0.14058635211E+03  0.00000000000E+00 0. -1.
<scales pt_clust_3="119.06750" pt_clust_4="32.13213" pt_clust_5="139.68536" pt_clust_6="14000.00000"></scales>
<clustering>
<clus scale="   32.132">  3  4 -1 -1</clus>
<clus scale="  119.068">  2  3  1 -1</clus>
<clus scale="  139.685">  2  5  1 -1</clus>
<clus scale="  119.068">  2  3  1 -1</clus>
</clustering>
</event>
<event>
 6    0  0.3522959E+002  0.1775517E+03  0.7546771E-02  0.1170194E+00
          4   -1    0    0  505    0 -0.00000000000E+00  0.00000000000E+00  0.36707123799E+03  0.36707123799E+03  0.00000000000E+00 0. -1.
         21   -1    0    0  503  502  0.00000000000E+00 -0.00000000000E+00 -0.84695489756E+03  0.84695489756E+03  0.00000000000E+00 0. -1.
         21    1    1    2  503  501  0.17515550024E+03  0.77761946295E+02 -0.60306637424E+03  0.63278386617E+03  0.00000000000E+00 0. -1.
         21    1    1    2  504  502 -0.48146407838E+02  0.39072475636E+02 -0.50001543075E+02  0.79654813099E+02  0.00000000000E+00 0.  1.
         21    1    1    2  505  504  0.32925608298E+02 -0.20955211679E+03 -0.43729394453E+02  0.21658357572E+03  0.00000000000E+00 0. -1.
          4    1    1    2  501    0 -0.15993470070E+03  0.92717694856E+02  0.21691365219E+03  0.28500388056E+03  0.00000000000E+00 0. -1.
<scales pt_clust_3="174.93394" pt_clust_4="62.00593" pt_clust_5="14000.00000" pt_clust_6="177.55172"></scales>
<clustering>
<clus scale="   62.006">  2  4  1 -1</clus>
<clus scale="  174.934">  2  3  1 -1</clus>
<clus scale="  177.552">  1  6  2 -1</clus>
<clus scale="   62.006">  2  3  1 -1</clus>
</clustering>
</event>
<event>
 6    0  0.3522959E+002  0.6619811E+02  0.7546771E-02  0.1373521E+00
          1   -1    0    0  503    0 -0.00000000000E+00  0.00000000000E+00  0.36197173454E+03  0.36197173454E+03  0.00000000000E+00 0.  1.
         21   -1    0    0  505  502  0.00000000000E+00 -0.00000000000E+00 -0.62066790637E+03  0.62066790637E+03  0.00000000000E+00 0. -1.
         21    1    1    2  503  502 -0.46836999234E+02  0.42480525965E+02  0.89485930328E+02  0.10957203708E+03  0.00000000000E+00 0. -1.
         21    1    1    2  504  501  0.14088353763E+02 -0.10587712464E+03 -0.22580374103E+03  0.24979146642E+03  0.00000000000E+00 0. -1.
         21    1    1    2  505  504 -0.13490688302E+02  0.56889530659E+02 -0.36832470252E+03  0.37293632682E+03  0.00000000000E+00 0. -1.
          1    1    1    2  501    0  0.46239333773E+02  0.65070680212E+01  0.24594634140E+03  0.25033981060E+03  0.00000000000E+00 0.  1.
<scales pt_clust_3="48.59430" pt_clust_4="66.19811" pt_clust_5="14000.00000" pt_clust_6="46.69495"></scales>
<clustering>
<clus scale="   46.695">  1  6  2 -1</clus>
<clus scale="   48.594">  1  3  2 -1</clus>
<clus scale="   66.198">  1  4  2 -1</clus>
<clus scale="   66.198">  2  3  1 -1</clus>
</clustering>
</event>
<event>
 6    0  0.3522959E+002  0.8563956E+02  0.7546771E-02  0.1313768E+00
         21   -1    0    0  504  502  0.00000000000E+00  0.00000000000E+00  0.66617682521E+02  0.66617682521E+02  0.00000000000E+00 0.  1.
          2   -1    0    0  505    0 -0.00000000000E+00 -0.00000000000E+00 -0.19814569048E+04  0.19814569048E+04  0.00000000000E+00 0. -1.
         21    1    1    2  503  502  0.44737940919E+02 -0.89112536676E+02 -0.19748994863E+02  0.10164915321E+03  0.00000000000E+00 0.  1.
         21    1    1    2  504  501 -0.31872606867E+02  0.40618225772E+01  0.10615073972E+02  0.33838458395E+02  0.00000000000E+00 0.  1.
         21    1    1    2  505  503 -0.46046793298E+02  0.49002029194E+01 -0.12866826326E+04  0.12875156373E+04  0.00000000000E+00 0. -1.
          2    1    1    2  501    0  0.33181459247E+02  0.80150511180E+02 -0.61902266876E+03  0.62507133842E+03  0.00000000000E+00 0. -1.
<scales pt_clust_3="14000.00000" pt_clust_4="32.13038" pt_clust_5="46.60820" pt_clust_6="85.63956"></scales>
<clustering>
<clus scale="   32.130">  1  4  2 -1</clus>
<clus scale="   46.608">  2  5  1 -1</clus>
<clus scale="   85.640">  2  6  1 -1</clus>
<clus scale="   32.130">  1  3  2 -1</clus>
</clustering>
</event>
<event>
 6    0  0.3522959E+002  0.1534099E+03  0.7546771E-02  0.1196344E+00
          1   -1    0    0  503    0 -0.00000000000E+00  0.00000000000E+00  0.15140758206E+04  0.15140758206E+04  0.00000000000E+00 0.  1.
         21   -1    0    0  504  502  0.00000000000E+00 -0.00000000000E+00 -0.13235651136E+03  0.13235651136E+03  0.00000000000E+00 0.  1.
         21    1    1    2  503  502 -0.31811550158E+02 -0.21150665136E+02 -0.17594226910E+02  0.42058081027E+02  0.00000000000E+00 0.  1.
         21    1    1    2  504  505  0.22461496231E+02 -0.13184481450E+03 -0.28941113423E+02  0.13683991366E+03  0.00000000000E+00 0.  1.
         21    1    1    2  505  501 -0.68208132515E+02  0.18678376966E+03  0.54331296262E+03  0.57855812267E+03  0.00000000000E+00 0. -1.
          1    1    1    2  501    0  0.77558186441E+02 -0.33788290030E+02  0.88494168696E+03  0.88897621461E+03  0.00000000000E+00 0.  1.
<scales pt_clust_3="38.20112" pt_clust_4="153.40993" pt_clust_5="14000.00000" pt_clust_6="84.19336"></scales>
<clustering>
<clus scale="   38.201">  2  3  1 -1</clus>
<clus scale="   84.193">  1  6  2 -1</clus>
<clus scale="  153.410">  2  4  1 -1</clus>
<clus scale="   38.201">  2  3  1 -1</clus>
</clustering>
</event>
<event>
 6    0  0.3522959E+002  0.1118485E+03  0.7546771E-02  0.1257184E+00
         21   -1    0    0  504  502  0.00000000000E+00  0.00000000000E+00  0.74912685099E+03  0.74912685099E+03  0.00000000000E+00 0.  1.
          1   -1    0    0  505    0 -0.00000000000E+00 -0.00000000000E+00 -0.56491170875E+03  0.56491170875E+03  0.00000000000E+00 0. -1.
         21    1    1    2  503  502 -0.18867846020E+02  0.65529253241E+02  0.57888779897E+03  0.58289035199E+03  0.00000000000E+00 0.  1.
         21    1    1    2  504  501 -0.62478703603E+02  0.11756569176E+02  0.14530423689E+03  0.15860367770E+03  0.00000000000E+00 0.  1.
         21    1    1    2  505  503  0.12231827831E+03 -0.81431106419E+02 -0.38199267299E+03  0.40928130731E+03  0.00000000000E+00 0. -1.
          1    1    1    2  501    0 -0.40971728687E+02  0.41452840020E+01 -0.15798422063E+03  0.16326322274E+03  0.00000000000E+00 0. -1.
<scales pt_clust_3="111.84854" pt_clust_4="64.25011" pt_clust_5="14000.00000" pt_clust_6="41.18089"></scales>
<clustering>
<clus scale="   41.181">  2  6  1 -1</clus>
<clus scale="   64.250">  1  4  2 -1</clus>
<clus scale="  111.849">  1  3  2 -1</clus>
<clus scale="   64.250">  1  3  2 -1</clus>
</clustering>
</event>
<event>
 6    0  0.3522959E+002  0.1784940E+03  0.7546771E-02  0.1169269E+00
          2   -1    0    0  505    0 -0.00000000000E+00  0.00000000000E+00  0.13093769042E+03  0.13093769042E+03  0.00000000000E+00 0.  1.
         21   -1    0    0  504  502  0.00000000000E+00 -0.00000000000E+00 -0.75799668717E+03  0.75799668717E+03  0.00000000000E+00 0.  1.
         21    1    1    2  503  501 -0.38764146488E+02 -0.82971497990E+02 -0.23815186675E+03  0.25515336597E+03  0.00000000000E+00 0.  1.
         21    1    1    2  504  503  0.26804768792E+02  0.18007698329E+02 -0.21767751325E+03  0.22005970236E+03  0.00000000000E+00 0.  1.
         21    1    1    2  505  502 -0.15756052799E+03 -0.51401226639E+02 -0.42367579384E+02  0.17106261387E+03  0.00000000000E+00 0.  1.
          2    1    1    2  501    0  0.16951990569E+03  0.11636502630E+03 -0.12886203737E+03  0.24265869538E+03  0.00000000000E+00 0.  1.
<scales pt_clust_3="79.29254" pt_clust_4="32.29199" pt_clust_5="178.49399" pt_clust_6="14000.00000"></scales>
<clustering>
<clus scale="   32.292">  2  4  1 -1</clus>
<clus scale="   79.293">  2  3  1 -1</clus>
<clus scale="  178.494">  1  5  2 -1</clus>
<clus scale="   32.292">  2  3  1 -1</clus>
</clustering>
</event>
<event>
 6    0  0.3522959E+002  0.8660413E+02  0.7546771E-02  0.1311290E+00
         21   -1    0    0  505  502  0.00000000000E+00  0.00000000000E+00  0.14645842010E+04  0.14645842010E+04  0.00000000000E+00 0.  1.
          1   -1    0    0  504    0 -0.00000000000E+00 -0.00000000000E+00 -0.94839140730E+03  0.94839140730E+03  0.00000000000E+00 0.  1.
         21    1    1    2  503  502 -0.33072142117E+02 -0.26917574007E+02  0.12825322557E+04  0.12832409397E+04  0.00000000000E+00 0.  1.
         21    1    1    2  504  503  0.56003315955E+02  0.13113252647E+03  0.40765503318E+02  0.14830353049E+03  0.00000000000E+00 0. -1.
         21    1    1    2  505  501 -0.24920971121E+02 -0.18583356186E+02  0.82266694373E+02  0.87944328594E+02  0.00000000000E+00 0. -1.
          1    1    1    2  501    0  0.19897972827E+01 -0.85631596274E+02 -0.88937165974E+03  0.89348680948E+03  0.00000000000E+00 0.  1.
<scales pt_clust_3="71.53647" pt_clust_4="14000.00000" pt_clust_5="31.08691" pt_clust_6="86.60413"></scales>
<clustering>
<clus scale="   31.087">  1  5  2 -1</clus>
<clus scale="   71.536">  1  3  2 -1</clus>
<clus scale="   86.604">  2  6  1 -1</clus>
<clus scale="   31.087">  1  3  2 -1</clus>
</clustering>
</event>
<event>
 6    0  0.3522959E+002  0.1699253E+03  0.7546771E-02  0.1177926E+00
          2   -1    0    0  503    0 -0.00000000000E+00  0.00000000000E+00  0.25517082467E+04  0.25517082467E+04  0.00000000000E+00 0. -1.
         21   -1    0    0  504  502  0.00000000000E+00 -0.00000000000E+00 -0.10781526480E+03  0.10781526480E+03  0.00000000000E+00 0. -1.
         21    1    1    2  503  505  0.11410761735E+03  0.12515714495E+03  0.94793738344E+03  0.96294867059E+03  0.00000000000E+00 0. -1.
         21    1    1    2  504  501 -0.77603600895E+01 -0.30900182500E+02 -0.22306232071E+01  0.31937754259E+02  0.00000000000E+00 0. -1.
         21    1    1    2  505  502  0.40288866827E+02 -0.29137668444E+01 -0.73294671507E+02  0.83688659320E+02  0.00000000000E+00 0. -1.
          2    1    1    2  501    0 -0.14663612409E+03 -0.91343195602E+02  0.15714808932E+04  0.15809484274E+04  0.00000000000E+00 0. -1.
<scales pt_clust_3="169.92529" pt_clust_4="31.85976" pt_clust_5="44.79024" pt_clust_6="14000.00000"></scales>
<clustering>
<clus scale="   31.860">  2  4  1 -1</clus>
<clus scale="   44.790">  2  5  1 -1</clus>
<clus scale="  169.925">  2  3  1 -1</clus>
<clus scale="   31.860">  2  3  1 -1</clus>
</clustering>
</event>
<event>
 6    0  0.3522959E+002  0.1509565E+03  0.7546771E-02  0.1199303E+00
          1   -1    0    0  505    0 -0.00000000000E+00  0.00000000000E+00  0.53570134693E+03  0.53570134693E+03  0.00000000000E+00 0.  1.
         21   -1    0    0  504  502  0.00000000000E+00 -0.00000000000E+00 -0.40699560224E+03  0.40699560224E+03  0.00000000000E+00 0. -1.
         21    1    1    2  503  501  0.71320577746E+02  0.53262784036E+02 -0.67666604535E+02  0.11181376634E+03  0.00000000000E+00 0. -1.
         21    1    1    2  504  503  0.46030138784E+02  0.18833616594E+02 -0.14340833450E+03  0.15178744742E+03  0.00000000000E+00 0. -1.
         21    1    1    2  505  502 -0.27834571081E+02  0.61085385142E+02 -0.14965730511E+03  0.16402285389E+03  0.00000000000E+00 0. -1.
          1    1    1    2  501    0 -0.89516145448E+02 -0.13318178577E+03  0.48943798884E+03  0.51507288152E+03  0.00000000000E+00 0.  1.
<scales pt_clust_3="150.95650" pt_clust_4="49.73408" pt_clust_5="72.47279" pt_clust_6="14000.00000"></scales>
<clustering>
<clus scale="   49.734">  2  4  1 -1</clus>
<clus scale="   72.473">  2  5  1 -1</clus>
<clus scale="  150.956">  2  3  1 -1</clus>
<clus scale="   49.734">  2  3  1 -1</clus>
</clustering>
</event>
<event>
 6    0  0.3522959E+002  0.1110926E+03  0.7546771E-02  0.1258560E+00
         21   -1    0    0  505  502  0.00000000000E+00  0.00000000000E+00  0.23022091227E+03  0.23022091227E+03  0.00000000000E+00 0.  1.
          2   -1    0    0  504    0 -0.00000000000E+00 -0.00000000000E+00 -0.99499466688E+03  0.99499466688E+03  0.00000000000E+00 0.  1.
         21    1    1    2  503  501  0.60686060736E+02 -0.14163968343E+03 -0.32218250434E+03  0.35713605809E+03  0.00000000000E+00 0.  1.
         21    1    1    2  504  502 -0.64742348602E+02 -0.12846114169E+02  0.49799423717E+02  0.82683595437E+02  0.00000000000E+00 0.  1.
         21    1    1    2  505  503  0.14827184619E+02  0.10849501286E+03  0.12501160060E+03  0.16618939047E+03  0.00000000000E+00 0.  1.
          2    1    1    2  501    0 -0.10770896753E+02  0.45990784736E+02 -0.61740227460E+03  0.61920653515E+03  0.00000000000E+00 0.  1.
<scales pt_clust_3="111.09255" pt_clust_4="66.10707" pt_clust_5="14000.00000" pt_clust_6="47.23520"></scales>
<clustering>
<clus scale="   47.235">  2  6  1 -1</clus>
<clus scale="   66.107">  1  4  2 -1</clus>
<clus scale="  111.093">  2  3  1 -1</clus>
<clus scale="   66.107">  1  3  2 -1</clus>
</clustering>
</event>
<event>
 6    0  0.3522959E+002  0.7257715E+02  0.7546771E-02  0.1351542E+00
          2   -1    0    0  503    0 -0.00000000000E+00  0.00000000000E+00  0.16211387543E+04  0.16211387543E+04  0.00000000000E+00 0. -1.
         21   -1    0    0  504  502  0.00000000000E+00 -0.00000000000E+00 -0.19735946187E+03  0.19735946187E+03  0.00000000000E+00 0.  1.
         21    1    1    2  503  502 -0.25447759338E+02 -0.48204248890E+02 -0.16243019275E+03  0.17133244171E+03  0.00000000000E+00 0.  1.
         21    1    1    2  504  505  0.20685832526E+02 -0.22061273329E+02 -0.27404863474E+01  0.30366325323E+02  0.00000000000E+00 0.  1.
         21    1    1    2  505  501 -0.99291540446E+00  0.11793808137E+03  0.24417554575E+03  0.27116798126E+03  0.00000000000E+00 0. -1.
          2    1    1    2  501    0  0.57548422161E+01 -0.47672559155E+02  0.13447744258E+04  0.13456314679E+04  0.00000000000E+00 0. -1.
<scales pt_clust_3="72.57715" pt_clust_4="30.24241" pt_clust_5="14000.00000" pt_clust_6="48.07646"></scales>
<clustering>
<clus scale="   30.242">  2  4  1 -1</clus>
<clus scale="   48.076">  1  6  2 -1</clus>
<clus scale="   72.577">  2  3  1 -1</clus>
<clus scale="   30.242">  2  3  1 -1</clus>
</clustering>
</event>
<event>
 6    0  0.3522959E+002  0.1071844E+03  0.7546771E-02  0.1265875E+00
         21   -1    0    0  504  502  0.00000000000E+00  0.00000000000E+00  0.30967825053E+02  0.30967825053E+02  0.00000000000E+00 0. -1.
         -2   -1    0    0    0  501 -0.00000000000E+00 -0.00000000000E+00 -0.19638988443E+04  0.19638988443E+04  0.00000000000E+00 0.  1.
         21    1    1    2  503  502 -0.23291528659E+02  0.52938577436E+02 -0.64259259199E+02  0.86453690962E+02  0.00000000000E+00 0. -1.
         21    1    1    2  504  505  0.51563617416E+02 -0.13545119224E+02 -0.51724759468E+02  0.74281408427E+02  0.00000000000E+00 0. -1.
         21    1    1    2  505  501  0.84502340986E+02 -0.47973448922E+02 -0.36262619047E+03  0.37541956721E+03  0.00000000000E+00 0.  1.
         -2    1    1    2    0  503 -0.11277442974E+03  0.85799907104E+01 -0.14543208101E+04  0.14587120027E+04  0.00000000000E+00 0.  1.
<scales pt_clust_3="45.67040" pt_clust_4="53.31301" pt_clust_5="107.18438" pt_clust_6="14000.00000"></scales>
<clustering>
<clus scale="   53.313">  1  4  2 -1</clus>
<clus scale="   45.670">  1  3  2 -1</clus>
<clus scale="  107.184">  1  5  2 -1</clus>
<clus scale="   53.313">  1  3  2 -1</clus>
</clustering>
</event>
<event>
 6    0  0.3522959E+002  0.1198221E+03  0.7546771E-02  0.1243391E+00
          2   -1    0    0  503    0 -0.00000000000E+00  0.00000000000E+00  0.35027813720E+04  0.35027813720E+04  0.00000000000E+00 0. -1.
         21   -1    0    0  504  502  0.00000000000E+00 -0.00000000000E+00 -0.89243435475E+02  0.89243435475E+02  0.00000000000E+00 0.  1.
         21    1    1    2  503  502  0.14858275202E+01 -0.50804812022E+02 -0.60480231853E+02  0.79001234503E+02  0.00000000000E+00 0.  1.
         21    1    1    2  504  505 -0.31673996419E+02 -0.32862378395E+00  0.60203928157E+01  0.32242753796E+02  0.00000000000E+00 0.  1.
         21    1    1    2  505  501  0.92721396154E+02 -0.57780348757E+02  0.58909525794E+03  0.59914025815E+03  0.00000000000E+00 0.  1.
          2    1    1    2  501    0 -0.62533227256E+02  0.10891378456E+03  0.28789025176E+04  0.28816405610E+04  0.00000000000E+00 0. -1.
<scales pt_clust_3="58.04874" pt_clust_4="31.67570" pt_clust_5="14000.00000" pt_clust_6="119.82209"></scales>
<clustering>
<clus scale="   31.676">  2  4  1 -1</clus>
<clus scale="   58.049">  2  3  1 -1</clus>
<clus scale="  119.822">  1  6  2 -1</clus>
<clus scale="   31.676">  2  3  1 -1</clus>
</clustering>
</event>
<event>
 6    0  0.3522959E+002  0.1260626E+03  0.7546771E-02  0.1233418E+00
          2   -1    0    0  505    0 -0.00000000000E+00  0.00000000000E+00  0.97325144149E+02  0.97325144149E+02  0.00000000000E+00 0. -1.
         21   -1    0    0  504  502  0.00000000000E+00 -0.00000000000E+00 -0.19715982023E+04  0.19715982023E+04  0.00000000000E+00 0.  1.
         21    1    1    2  503  501 -0.12846131115E+02 -0.43934549726E+02 -0.10882860624E+03  0.11806325965E+03  0.00000000000E+00 0. -1.
         21    1    1    2  504  503 -0.73531783106E+02  0.10099094326E+03 -0.16376698770E+04  0.16424276909E+04  0.00000000000E+00 0.  1.
         21    1    1    2  505  502  0.10145120154E+03 -0.95291714430E+02 -0.18898217672E+03  0.23470645549E+03  0.00000000000E+00 0. -1.
          2    1    1    2  501    0 -0.15073287318E+02  0.38235320898E+02  0.61207601870E+02  0.73725940356E+02  0.00000000000E+00 0. -1.
<scales pt_clust_3="40.93899" pt_clust_4="14000.00000" pt_clust_5="126.06263" pt_clust_6="41.09919"></scales>
<clustering>
<clus scale="   41.099">  1  6  2 -1</clus>
<clus scale="   40.939">  1  3  2 -1</clus>
<clus scale="  126.063">  1  5  2 -1</clus>
<clus scale="  126.063">  2  3  1 -1</clus>
</clustering>
</event>
<event>
 6    0  0.3522959E+002  0.1350835E+03  0.7546771E-02  0.1220102E+00
         21   -1    0    0  503  502  0.00000000000E+00  0.00000000000E+00  0.15024322051E+03  0.15024322051E+03  0.00000000000E+00 0.  1.
          1   -1    0    0  505    0 -0.00000000000E+00 -0.00000000000E+00 -0.47115576778E+03  0.47115576778E+03  0.00000000000E+00 0. -1.
         21    1    1    2  503  504 -0.25811018082E+02 -0.67021075521E+02  0.38407423841E+02  0.81444235060E+02  0.00000000000E+00 0.  1.
         21    1    1    2  504  501 -0.28799793155E+02 -0.49540778297E+02 -0.85157893118E+01  0.57933025708E+02  0.00000000000E+00 0.  1.
         21    1    1    2  505  502 -0.47327718379E+02  0.37463788559E+02  0.38700837423E+02  0.71702184049E+02  0.00000000000E+00 0.  1.
          1    1    1    2  501    0  0.10193852962E+03  0.79098065260E+02 -0.38950501922E+03  0.41031954346E+03  0.00000000000E+00 0. -1.
<scales pt_clust_3="39.58096" pt_clust_4="39.58096" pt_clust_5="60.36098" pt_clust_6="127.60895"></scales>
<clustering>
<clus scale="   39.581">  3  4 -1 -1</clus>
<clus scale="   60.361">  1  5  2 -1</clus>
<clus scale="  127.609">  2  6  1 -1</clus>
<clus scale="   60.361">  1  3  2 -1</clus>
</clustering>
</event>
<event>
 6    0  0.3522959E+002  0.1303196E+03  0.7546771E-02  0.1226982E+00
         21   -1    0    0  501  502  0.00000000000E+00  0.00000000000E+00  0.29019216416E+03  0.29019216416E+03  0.00000000000E+00 0.  1.
         -3   -1    0    0    0  501 -0.00000000000E+00 -0.00000000000E+00 -0.58950124291E+02  0.58950124291E+02  0.00000000000E+00 0. -1.
         21    1    1    2  503  502 -0.13395502911E+02 -0.71069881981E+02  0.73323713268E+02  0.10298900209E+03  0.00000000000E+00 0.  1.
         21    1    1    2  504  505  0.34313754466E+02  0.19748165723E+02  0.27034736848E+02  0.47940596486E+02  0.00000000000E+00 0.  1.
         21    1    1    2  505  503 -0.43671191750E+02 -0.36470788392E+02  0.63264665376E+02  0.85086481183E+02  0.00000000000E+00 0.  1.
         -3    1    1    2    0  504  0.22752940195E+02  0.87792504651E+02  0.67618924375E+02  0.11312620870E+03  0.00000000000E+00 0. -1.
<scales pt_clust_3="129.29038" pt_clust_4="30.71829" pt_clust_5="38.60540" pt_clust_6="30.71829"></scales>
<clustering>
<clus scale="   30.718">  4  6 -1 -1</clus>
<clus scale="   38.605">  3  5 -1 -1</clus>
<clus scale="  129.290">  1  3  2 -1</clus>
<clus scale="  129.290">  1  3  2 -1</clus>
</clustering>
</event>
<event>
 6    0  0.3522959E+002  0.1390061E+03  0.7546771E-02  0.1214673E+00
         21   -1    0    0  503  502  0.00000000000E+00  0.00000000000E+00  0.68659250821E+02  0.68659250821E+02  0.00000000000E+00 0. -1.
          2   -1    0    0  505    0 -0.00000000000E+00 -0.00000000000E+00 -0.21789422435E+04  0.21789422435E+04  0.00000000000E+00 0.  1.
         21    1    1    2  503  504  0.15203330479E+02  0.31715401482E+02  0.95272585436E+01  0.36438669078E+02  0.00000000000E+00 0. -1.
         21    1    1    2  504  501  0.37623275015E+02 -0.16963030911E+02  0.25583063805E+01  0.41349730013E+02  0.00000000000E+00 0. -1.
         21    1    1    2  505  502 -0.11124479710E+03  0.11017371304E+03 -0.26844667379E+03  0.31076883466E+03  0.00000000000E+00 0. -1.
          2    1    1    2  501    0  0.58418191610E+02 -0.12492608361E+03 -0.18539218838E+04  0.18590442606E+04  0.00000000000E+00 0.  1.
<scales pt_clust_3="35.17112" pt_clust_4="44.96354" pt_clust_5="139.00610" pt_clust_6="14000.00000"></scales>
<clustering>
<clus scale="   35.171">  1  3  2 -1</clus>
<clus scale="   44.964">  1  4  2 -1</clus>
<clus scale="  139.006">  1  5  2 -1</clus>
<clus scale="   35.171">  1  3  2 -1</clus>
</clustering>
</event>
<event>
 6    0  0.3522959E+002  0.2057566E+03  0.7546771E-02  0.1144971E+00
         21   -1    0    0  505  502  0.00000000000E+00  0.00000000000E+00  0.63683374641E+03  0.63683374641E+03  0.00000000000E+00 0. -1.
          2   -1    0    0  504    0 -0.00000000000E+00 -0.00000000000E+00 -0.87599790149E+03  0.87599790149E+03  0.00000000000E+00 0. -1.
         21    1    1    2  503  502 -0.75448944871E+02 -0.60907855077E+02  0.24971271981E+03  0.26787824198E+03  0.00000000000E+00 0. -1.
         21    1    1    2  504  503 -0.58157907465E+02 -0.35135120516E+02  0.58762743069E+02  0.89832504515E+02  0.00000000000E+00 0. -1.
         21    1    1    2  505  501  0.18689015867E+03  0.16139667952E+03  0.25096328908E+03  0.35207867307E+03  0.00000000000E+00 0. -1.
          2    1    1    2  501    0 -0.53283306334E+02 -0.65353703929E+02 -0.79860290704E+03  0.80304222833E+03  0.00000000000E+00 0. -1.
<scales pt_clust_3="63.33709" pt_clust_4="63.33709" pt_clust_5="191.33986" pt_clust_6="84.32210"></scales>
<clustering>
<clus scale="   63.337">  3  4 -1 -1</clus>
<clus scale="   84.322">  2  6  1 -1</clus>
<clus scale="  191.340">  2  5  1 -1</clus>
<clus scale="  205.757">  1  3  2 -1</clus>
</clustering>
</event>
<event>
 6    0  0.3522959E+002  0.7759669E+02  0.7546771E-02  0.1336013E+00
         -4   -1    0    0    0  501 -0.00000000000E+00  0.00000000000E+00  0.16166420707E+04  0.16166420707E+04  0.00000000000E+00 0.  1.
         21   -1    0    0  503  502  0.00000000000E+00 -0.00000000000E+00 -0.61443476439E+02  0.61443476439E+02  0.00000000000E+00 0. -1.
         21    1    1    2  503  505 -0.80000633164E+02 -0.13380487077E+02  0.65778246129E+02  0.10443139569E+03  0.00000000000E+00 0. -1.
         21    1    1    2  504  502  0.47623752040E+02  0.70431750107E+02  0.66065196305E+01  0.85277777194E+02  0.00000000000E+00 0. -1.
         21    1    1    2  505  501  0.42673957527E+02  0.10286016843E+01  0.21530054549E+03  0.21949134280E+03  0.00000000000E+00 0. -1.
         -4    1    1    2    0  504 -0.10297076403E+02 -0.58079864715E+02  0.12675132830E+04  0.12688850315E+04  0.00000000000E+00 0.  1.
<scales pt_clust_3="14000.00000" pt_clust_4="77.59669" pt_clust_5="42.68635" pt_clust_6="63.80663"></scales>
<clustering>
<clus scale="   42.686">  1  5  2 -1</clus>
<clus scale="   63.807">  1  6  2 -1</clus>
<clus scale="   77.597">  2  4  1 -1</clus>
<clus scale="   77.597">  2  3  1 -1</clus>
</clustering>
</event>
<event>
 6    0  0.3522959E+002  0.1048930E+03  0.7546771E-02  0.1270331E+00
         21   -1    0    0  504  502  0.00000000000E+00  0.00000000000E+00  0.38079683759E+03  0.38079683759E+03  0.00000000000E+00 0. -1.
         -3   -1    0    0    0  501 -0.00000000000E+00 -0.00000000000E+00 -0.19484991502E+03  0.19484991502E+03  0.00000000000E+00 0. -1.
         21    1    1    2  503  502 -0.30568323832E+01  0.59833724798E+02  0.10841534166E+03  0.12386809579E+03  0.00000000000E+00 0. -1.
         21    1    1    2  504  501 -0.34854170779E+02 -0.10379185224E+03 -0.27483156086E+02  0.11288439078E+03  0.00000000000E+00 0. -1.
         21    1    1    2  505  503  0.70273620109E+02  0.34334416075E+02  0.21239135567E+03  0.22633453509E+03  0.00000000000E+00 0. -1.
         -3    1    1    2    0  505 -0.32362616948E+02  0.96237113679E+01 -0.10737661867E+03  0.11255973096E+03  0.00000000000E+00 0. -1.
<scales pt_clust_3="61.00576" pt_clust_4="104.89300" pt_clust_5="14000.00000" pt_clust_6="33.76322"></scales>
<clustering>
<clus scale="   33.763">  2  6  1 -1</clus>
<clus scale="   61.006">  1  3  2 -1</clus>
<clus scale="  104.893">  2  4  1 -1</clus>
<clus scale="   61.006">  1  3  2 -1</clus>
</clustering>
</event>
<event>
 6    0  0.3522959E+002  0.7326493E+02  0.7546771E-02  0.1349330E+00
         21   -1    0    0  504  502  0.00000000000E+00  0.00000000000E+00  0.19111960359E+04  0.19111960359E+04  0.00000000000E+00 0.  1.
          2   -1    0    0  505    0 -0.00000000000E+00 -0.00000000000E+00 -0.47254655915E+03  0.47254655915E+03  0.00000000000E+00 0. -1.
         21    1    1    2  503  501  0.18895048317E+01 -0.79862578324E+02  0.60449242521E+02  0.10017840369E+03  0.00000000000E+00 0.  1.
         21    1    1    2  504  503  0.57837553580E+02 -0.31300670999E+02  0.14881905737E+04  0.14896429432E+04  0.00000000000E+00 0.  1.
         21    1    1    2  505  502 -0.12029023196E+02  0.55030171326E+02  0.33660807851E+03  0.34128875703E+03  0.00000000000E+00 0.  1.
          2    1    1    2  501    0 -0.47698035216E+02  0.56133077997E+02 -0.44659841802E+03  0.45263249108E+03  0.00000000000E+00 0. -1.
<scales pt_clust_3="14000.00000" pt_clust_4="50.89610" pt_clust_5="56.32954" pt_clust_6="73.26493"></scales>
<clustering>
<clus scale="   56.330">  1  5  2 -1</clus>
<clus scale="   50.896">  1  4  2 -1</clus>
<clus scale="   73.265">  2  6  1 -1</clus>
<clus scale="   56.330">  1  3  2 -1</clus>
</clustering>
</event>
<event>
 6    0  0.3522959E+002  0.1090950E+03  0.7546771E-02  0.1262255E+00
         21   -1    0    0  505  502  0.00000000000E+00  0.00000000000E+00  0.13553804193E+03  0.13553804193E+03  0.00000000000E+00 0.  1.
          2   -1    0    0  502    0 -0.00000000000E+00 -0.00000000000E+00 -0.36929871756E+04  0.36929871756E+04  0.00000000000E+00 0.  1.
         21    1    1    2  503  504 -0.37539041470E+02  0.80946098041E+02  0.10362222454E+03  0.13674434483E+03  0.00000000000E+00 0.  1.
         21    1    1    2  504  501  0.23508378161E+02 -0.10747624723E+03 -0.14115929146E+04  0.14158737034E+04  0.00000000000E+00 0.  1.
         21    1    1    2  505  503 -0.30770168807E+02  0.51165656622E+01 -0.58588071599E+01  0.31738118311E+02  0.00000000000E+00 0.  1.
          2    1    1    2  501    0  0.44800832116E+02  0.21413583532E+02 -0.22436196365E+04  0.22441690510E+04  0.00000000000E+00 0.  1.
<scales pt_clust_3="14000.00000" pt_clust_4="109.09505" pt_clust_5="31.19267" pt_clust_6="49.59813"></scales>
<clustering>
<clus scale="   31.193">  1  5  2 -1</clus>
<clus scale="   49.598">  2  6  1 -1</clus>
<clus scale="  109.095">  2  4  1 -1</clus>
<clus scale="   31.193">  1  3  2 -1</clus>
</clustering>
</event>
<event>
 6    0  0.3522959E+002  0.1390518E+03  0.7546771E-02  0.1214611E+00
         21   -1    0    0  504  502  0.00000000000E+00  0.00000000000E+00  0.33531971285E+03  0.33531971285E+03  0.00000000000E+00 0. -1.
          2   -1    0    0  503    0 -0.00000000000E+00 -0.00000000000E+00 -0.19762852765E+04  0.19762852765E+04  0.00000000000E+00 0. -1.
         21    1    1    2  503  505 -0.83187699824E+02  0.19925833607E+03 -0.86340061890E+03  0.88999140817E+03  0.00000000000E+00 0. -1.
         21    1    1    2  504  501  0.79658462691E+00 -0.30363507341E+02  0.23279970015E+02  0.38269232146E+02  0.00000000000E+00 0. -1.
         21    1    1    2  505  502  0.27016421872E+02 -0.10532817553E+03  0.27940058717E+03  0.29981427538E+03  0.00000000000E+00 0. -1.
          2    1    1    2  501    0  0.55374693326E+02 -0.63566653201E+02 -0.10802455019E+04  0.10835300737E+04  0.00000000000E+00 0. -1.
<scales pt_clust_3="14000.00000" pt_clust_4="30.37395" pt_clust_5="139.05175" pt_clust_6="84.42982"></scales>
<clustering>
<clus scale="   30.374">  1  4  2 -1</clus>
<clus scale="   84.430">  2  6  1 -1</clus>
<clus scale="  139.052">  1  5  2 -1</clus>
<clus scale="   30.374">  1  3  2 -1</clus>
</clustering>
</event>
<event>
 6    0  0.3522959E+002  0.7969423E+02  0.7546771E-02  0.1329921E+00
         21   -1    0    0  504  502  0.00000000000E+00  0.00000000000E+00  0.29311820735E+03  0.29311820735E+03  0.00000000000E+00 0. -1.
          1   -1    0    0  505    0 -0.00000000000E+00 -0.00000000000E+00 -0.35973782160E+03  0.35973782160E+03  0.00000000000E+00 0. -1.
         21    1    1    2  503  502  0.27405594480E+02 -0.22192679014E+02  0.78664960154E+01  0.36131196634E+02  0.00000000000E+00 0. -1.
         21    1    1    2  504  501 -0.59064989165E+02  0.58222272159E+02  0.11478264352E+03  0.14161059696E+03  0.00000000000E+00 0. -1.
         21    1    1    2  505  503  0.91626709278E+02 -0.12146906464E+02  0.12434066600E+03  0.15493096015E+03  0.00000000000E+00 0. -1.
          1    1    1    2  501    0 -0.59967314594E+02 -0.23882686681E+02 -0.31360941979E+03  0.32018327521E+03  0.00000000000E+00 0. -1.
<scales pt_clust_3="35.26445" pt_clust_4="14000.00000" pt_clust_5="79.69423" pt_clust_6="64.34009"></scales>
<clustering>
<clus scale="   35.264">  1  3  2 -1</clus>
<clus scale="   64.340">  2  6  1 -1</clus>
<clus scale="   79.694">  2  5  1 -1</clus>
<clus scale="   35.264">  1  3  2 -1</clus>
</clustering>
</event>
<event>
 6    0  0.3522959E+002  0.9356338E+02  0.7546771E-02  0.1294445E+00
         21   -1    0    0  501  502  0.00000000000E+00  0.00000000000E+00  0.13307474310E+03  0.13307474310E+03  0.00000000000E+00 0.  1.
          1   -1    0    0  505    0 -0.00000000000E+00 -0.00000000000E+00 -0.34768676116E+03  0.34768676116E+03  0.00000000000E+00 0.  1.
         21    1    1    2  503  502 -0.76635651278E+01  0.29731467631E+02  0.31629160671E+02  0.44080542224E+02  0.00000000000E+00 0. -1.
         21    1    1    2  504  503  0.40978162707E+02 -0.32892981629E+02  0.34995446627E+02  0.63133504131E+02  0.00000000000E+00 0.  1.
         21    1    1    2  505  504 -0.61562219660E+01 -0.88545791938E+02 -0.14186089688E+02  0.89886047190E+02  0.00000000000E+00 0.  1.
          1    1    1    2  501    0 -0.27158375613E+02  0.91707305936E+02 -0.26705053567E+03  0.28366141072E+03  0.00000000000E+00 0.  1.
<scales pt_clust_3="30.70326" pt_clust_4="40.98760" pt_clust_5="93.56338" pt_clust_6="14000.00000"></scales>
<clustering>
<clus scale="   30.703">  1  3  2 -1</clus>
<clus scale="   40.988">  1  4  2 -1</clus>
<clus scale="   93.563">  1  5  2 -1</clus>
<clus scale="   30.703">  1  3  2 -1</clus>
</clustering>
</event>
<event>
 6    0  0.3522959E+002  0.1053789E+03  0.7546771E-02  0.1269375E+00
         21   -1    0    0  504  502  0.00000000000E+00  0.00000000000E+00  0.49562667982E+02  0.49562667982E+02  0.00000000000E+00 0.  1.
          2   -1    0    0  505    0 -0.00000000000E+00 -0.00000000000E+00 -0.17326988865E+04  0.17326988865E+04  0.00000000000E+00 0.  1.
         21    1    1    2  503  501  0.89982007605E+02  0.40810198989E+01 -0.17913140797E+03  0.20050306167E+03  0.00000000000E+00 0.  1.
         21    1    1    2  504  503 -0.11360686412E+03  0.18275476954E+01 -0.72383419185E+02  0.13471903681E+03  0.00000000000E+00 0.  1.
         21    1    1    2  505  502 -0.14708531332E+02  0.71274502304E+02 -0.20757439531E+03  0.21996255400E+03  0.00000000000E+00 0.  1.
          2    1    1    2  501    0  0.38333387846E+02 -0.77183069898E+02 -0.12240469961E+04  0.12270769021E+04  0.00000000000E+00 0.  1.
<scales pt_clust_3="14000.00000" pt_clust_4="105.37893" pt_clust_5="72.77634" pt_clust_6="83.72223"></scales>
<clustering>
<clus scale="   72.776">  1  5  2 -1</clus>
<clus scale="   83.722">  2  6  1 -1</clus>
<clus scale="  105.379">  1  4  2 -1</clus>
<clus scale="   72.776">  1  3  2 -1</clus>
</clustering>
</event>
<event>
 6    0  0.3522959E+002  0.9998013E+02  0.7546771E-02  0.1280338E+00
          2   -1    0    0  503    0 -0.00000000000E+00  0.00000000000E+00  0.32351843397E+04  0.32351843397E+04  0.00000000000E+00 0. -1.
         21   -1    0    0  505  502  0.00000000000E+00 -0.00000000000E+00 -0.17873550484E+02  0.17873550484E+02  0.00000000000E+00 0.  1.
         21    1    1    2  503  504  0.28635235135E+02 -0.48589161420E+02  0.39792792866E+03  0.40190486400E+03  0.00000000000E+00 0.  1.
         21    1    1    2  504  502 -0.19553047508E+02 -0.38477846118E+02  0.33138116321E+03  0.33418010360E+03  0.00000000000E+00 0.  1.
         21    1    1    2  505  501  0.72366560635E+02  0.36364614633E+02  0.10777665504E+03  0.13481510178E+03  0.00000000000E+00 0.  1.
          2    1    1    2  501    0 -0.81448748262E+02  0.50702392904E+02  0.23802250423E+04  0.23821578208E+04  0.00000000000E+00 0. -1.
<scales pt_clust_3="41.64429" pt_clust_4="41.64429" pt_clust_5="80.98953" pt_clust_6="87.91956"></scales>
<clustering>
<clus scale="   41.644">  3  4 -1 -1</clus>
<clus scale="   80.990">  2  5  1 -1</clus>
<clus scale="   87.920">  1  6  2 -1</clus>
<clus scale="   80.990">  2  3  1 -1</clus>
</clustering>
</event>
<event>
 6    0  0.3522959E+002  0.1551919E+03  0.7546771E-02  0.1194235E+00
         21   -1    0    0  504  502  0.00000000000E+00  0.00000000000E+00  0.30301989941E+02  0.30301989941E+02  0.00000000000E+00 0.  1.
          1   -1    0    0  505    0 -0.00000000000E+00 -0.00000000000E+00 -0.19039139939E+04  0.19039139939E+04  0.00000000000E+00 0. -1.
         21    1    1    2  503  502 -0.59380419573E+02 -0.10077300740E+02 -0.16897516230E+03  0.17938838227E+03  0.00000000000E+00 0.  1.
         21    1    1    2  504  501  0.14895548597E+03 -0.11411186269E+02 -0.24603257832E+03  0.28783672727E+03  0.00000000000E+00 0.  1.
         21    1    1    2  505  503 -0.85744730030E+02 -0.10376968325E+02 -0.47027214942E+03  0.47813777796E+03  0.00000000000E+00 0.  1.
          1    1    1    2  501    0 -0.38303363649E+01  0.31865455334E+02 -0.98833211395E+03  0.98885309636E+03  0.00000000000E+00 0. -1.
<scales pt_clust_3="39.03054" pt_clust_4="147.85362" pt_clust_5="39.03054" pt_clust_6="32.09484"></scales>
<clustering>
<clus scale="   32.095">  2  6  1 -1</clus>
<clus scale="   39.031">  3  5 -1 -1</clus>
<clus scale="  147.854">  1  4  2 -1</clus>
<clus scale="  147.854">  1  3  2 -1</clus>
</clustering>
</event>
<event>
 6    0  0.3522959E+002  0.1368383E+03  0.7546771E-02  0.1217648E+00
          2   -1    0    0  503    0 -0.00000000000E+00  0.00000000000E+00  0.22611140977E+04  0.22611140977E+04  0.00000000000E+00 0.  1.
         21   -1    0    0  505  502  0.00000000000E+00 -0.00000000000E+00 -0.13872226662E+04  0.13872226662E+04  0.00000000000E+00 0. -1.
         21    1    1    2  503  502  0.33850088611E+02 -0.33051158876E+01 -0.21845614718E+03  0.22108785704E+03  0.00000000000E+00 0. -1.
         21    1    1    2  504  501  0.32931158016E+02  0.14123225835E+03 -0.12086707608E+03  0.18878522730E+03  0.00000000000E+00 0.  1.
         21    1    1    2  505  504 -0.95814121745E+02 -0.11576663782E+03 -0.10068982972E+04  0.10180503137E+04  0.00000000000E+00 0. -1.
          2    1    1    2  501    0  0.29032875118E+02 -0.22160504645E+02  0.22201129520E+04  0.22204133659E+04  0.00000000000E+00 0.  1.
<scales pt_clust_3="34.01106" pt_clust_4="14000.00000" pt_clust_5="136.83831" pt_clust_6="36.52763"></scales>
<clustering>
<clus scale="   34.011">  2  3  1 -1</clus>
<clus scale="   36.528">  1  6  2 -1</clus>
<clus scale="  136.838">  2  5  1 -1</clus>
<clus scale="   34.011">  2  3  1 -1</clus>
</clustering>
</event>
<event>
 6    0  0.3522959E+002  0.1312196E+03  0.7546771E-02  0.1225657E+00
         21   -1    0    0  504  502  0.00000000000E+00  0.00000000000E+00  0.15001399224E+03  0.15001399224E+03  0.00000000000E+00 0.  1.
          3   -1    0    0  505    0 -0.00000000000E+00 -0.00000000000E+00 -0.11340372424E+04  0.11340372424E+04  0.00000000000E+00 0. -1.
         21    1    1    2  503  502 -0.60990279922E+02  0.37715876252E+01 -0.52776275343E+02  0.80742642744E+02  0.00000000000E+00 0.  1.
         21    1    1    2  504  501  0.17830791652E+03 -0.56518132134E+02  0.39228638106E+02  0.19112011511E+03  0.00000000000E+00 0.  1.
         21    1    1    2  505  503 -0.55002498654E+02  0.12294790628E+03 -0.23593333786E+03  0.27167260155E+03  0.00000000000E+00 0.  1.
          3    1    1    2  501    0 -0.62315137941E+02 -0.70201361774E+02 -0.73454227504E+03  0.74051587520E+03  0.00000000000E+00 0. -1.
<scales pt_clust_3="61.10678" pt_clust_4="131.21957" pt_clust_5="14000.00000" pt_clust_6="94.70206"></scales>
<clustering>
<clus scale="   61.107">  1  3  2 -1</clus>
<clus scale="   94.702">  2  6  1 -1</clus>
<clus scale="  131.220">  1  4  2 -1</clus>
<clus scale="   61.107">  1  3  2 -1</clus>
</clustering>
</event>
<event>
 6    0  0.3522959E+002  0.1047446E+03  0.7546771E-02  0.1270624E+00
         21   -1    0    0  503  502  0.00000000000E+00  0.00000000000E+00  0.75439886594E+03  0.75439886594E+03  0.00000000000E+00 0.  1.
          1   -1    0    0  505    0 -0.00000000000E+00 -0.00000000000E+00 -0.28967303981E+03  0.28967303981E+03  0.00000000000E+00 0.  1.
         21    1    1    2  503  501 -0.29968204245E+02 -0.17738989053E+02  0.18444160317E+03  0.18770047943E+03  0.00000000000E+00 0.  1.
         21    1    1    2  504  502  0.77212351289E+01 -0.91272958454E+02  0.54056982045E+03  0.54827557049E+03  0.00000000000E+00 0.  1.
         21    1    1    2  505  504  0.52543768274E+02  0.47094623257E+02 -0.49146319559E+02  0.85989021685E+02  0.00000000000E+00 0.  1.
          1    1    1    2  501    0 -0.30296799157E+02  0.61917324249E+02 -0.21113927794E+03  0.22210683414E+03  0.00000000000E+00 0.  1.
<scales pt_clust_3="34.82478" pt_clust_4="104.74465" pt_clust_5="14000.00000" pt_clust_6="68.90638"></scales>
<clustering>
<clus scale="   34.825">  1  3  2 -1</clus>
<clus scale="   68.906">  2  6  1 -1</clus>
<clus scale="  104.745">  1  4  2 -1</clus>
<clus scale="   34.825">  1  3  2 -1</clus>
</clustering>
</event>
<event>
 6    0  0.3522959E+002  0.1718167E+03  0.7546771E-02  0.1175966E+00
         21   -1    0    0  505  502  0.00000000000E+00  0.00000000000E+00  0.49430146481E+03  0.49430146481E+03  0.00000000000E+00 0.  1.
          2   -1    0    0  503    0 -0.00000000000E+00 -0.00000000000E+00 -0.19267062937E+04  0.19267062937E+04  0.00000000000E+00 0.  1.
         21    1    1    2  503  502  0.14287371373E+03  0.60503907600E+02  0.46369504214E+03  0.48896494048E+03  0.00000000000E+00 0.  1.
         21    1    1    2  504  501 -0.13150515008E+03 -0.44829022446E+02 -0.33410953779E+03  0.36184586359E+03  0.00000000000E+00 0.  1.
         21    1    1    2  505  504 -0.23221912266E+02 -0.48501432941E+02 -0.18230869223E+03  0.19007394737E+03  0.00000000000E+00 0.  1.
          2    1    1    2  501    0  0.11853348611E+02  0.32826547787E+02 -0.13796816410E+04  0.13801230070E+04  0.00000000000E+00 0.  1.
<scales pt_clust_3="155.70589" pt_clust_4="41.88023" pt_clust_5="41.88023" pt_clust_6="34.90106"></scales>
<clustering>
<clus scale="   34.901">  2  6  1 -1</clus>
<clus scale="   41.880">  4  5 -1 -1</clus>
<clus scale="  155.706">  1  3  2 -1</clus>
<clus scale="  155.706">  1  3  2 -1</clus>
</clustering>
</event>
<event>
 6    0  0.3522959E+002  0.1362553E+03  0.7546771E-02  0.1218458E+00
         21   -1    0    0  503  502  0.00000000000E+00  0.00000000000E+00  0.12986918904E+03  0.12986918904E+03  0.00000000000E+00 0.  1.
          1   -1    0    0  502    0 -0.00000000000E+00 -0.00000000000E+00 -0.22881444377E+04  0.22881444377E+04  0.00000000000E+00 0. -1.
         21    1    1    2  503  504  0.28650455808E+02 -0.58466166922E+02 -0.17329135952E+02  0.67375368239E+02  0.00000000000E+00 0.  1.
         21    1    1    2  504  505  0.67933132307E+02 -0.23761548755E+02  0.19042469272E+02  0.74445532440E+02  0.00000000000E+00 0.  1.
         21    1    1    2  505  501 -0.12821636825E+03  0.52574290019E+01 -0.14556207819E+02  0.12914705120E+03  0.00000000000E+00 0.  1.
          1    1    1    2  501    0  0.31632780136E+02  0.76970286675E+02 -0.21454323742E+04  0.21470456749E+04  0.00000000000E+00 0. -1.
<scales pt_clust_3="60.30928" pt_clust_4="60.30928" pt_clust_5="120.60288" pt_clust_6="83.21693"></scales>
<clustering>
<clus scale="   60.309">  3  4 -1 -1</clus>
<clus scale="   83.217">  2  6  1 -1</clus>
<clus scale="  120.603">  2  5  1 -1</clus>
<clus scale="  136.255">  1  3  2 -1</clus>
</clustering>
</event>
<event>
 6    0  0.3522959E+002  0.8800310E+02  0.7546771E-02  0.1307761E+00
          4   -1    0    0  505    0 -0.00000000000E+00  0.00000000000E+00  0.45786315733E+03  0.45786315733E+03  0.00000000000E+00 0.  1.
         21   -1    0    0  504  502  0.00000000000E+00 -0.00000000000E+00 -0.10385721793E+03  0.10385721793E+03  0.00000000000E+00 0. -1.
         21    1    1    2  503  501 -0.83847923268E+02  0.32368395395E+02  0.34758819375E+01  0.89945922709E+02  0.00000000000E+00 0. -1.
         21    1    1    2  504  503  0.18707898835E+02 -0.39918422593E+02  0.31893585127E+01  0.44199976797E+02  0.00000000000E+00 0.  1.
         21    1    1    2  505  502  0.27963023022E+01  0.70601505276E+02  0.16320007995E+01  0.70675705022E+02  0.00000000000E+00 0. -1.
          4    1    1    2  501    0  0.62343722131E+02 -0.63051478078E+02  0.34570869815E+03  0.35689877073E+03  0.00000000000E+00 0.  1.
<scales pt_clust_3="88.00310" pt_clust_4="44.08476" pt_clust_5="55.08711" pt_clust_6="14000.00000"></scales>
<clustering>
<clus scale="   44.085">  2  4  1 -1</clus>
<clus scale="   55.087">  2  5  1 -1</clus>
<clus scale="   88.003">  2  3  1 -1</clus>
<clus scale="   44.085">  2  3  1 -1</clus>
</clustering>
</event>
<event>
 6    0  0.3522959E+002  0.1066484E+03  0.7546771E-02  0.1266905E+00
         21   -1    0    0  505  502  0.00000000000E+00  0.00000000000E+00  0.51902844381E+03  0.51902844381E+03  0.00000000000E+00 0.  1.
          2   -1    0    0  504    0 -0.00000000000E+00 -0.00000000000E+00 -0.27288014967E+04  0.27288014967E+04  0.00000000000E+00 0. -1.
         21    1    1    2  503  501 -0.44656486456E+02 -0.90505092569E+01  0.11846779664E+03  0.12692805971E+03  0.00000000000E+00 0.  1.
         21    1    1    2  504  502  0.49711760638E+02 -0.82252281038E+02  0.12206168352E+03  0.15535685201E+03  0.00000000000E+00 0.  1.
         21    1    1    2  505  503 -0.55656189567E+02  0.38202697330E+02  0.25269293459E+03  0.26155453870E+03  0.00000000000E+00 0.  1.
          2    1    1    2  501    0  0.50600915385E+02  0.53100092965E+02 -0.27029954677E+04  0.27039904901E+04  0.00000000000E+00 0. -1.
<scales pt_clust_3="38.93520" pt_clust_4="95.54021" pt_clust_5="38.93520" pt_clust_6="73.34898"></scales>
<clustering>
<clus scale="   38.935">  3  5 -1 -1</clus>
<clus scale="   73.349">  2  6  1 -1</clus>
<clus scale="   95.540">  2  4  1 -1</clus>
<clus scale="  106.648">  1  3  2 -1</clus>
</clustering>
</event>
<event>
 6    0  0.3522959E+002  0.1939517E+03  0.7546771E-02  0.1154945E+00
          2   -1    0    0  505    0 -0.00000000000E+00  0.00000000000E+00  0.35956221309E+04  0.35956221309E+04  0.00000000000E+00 0.  1.
         21   -1    0    0  504  502  0.00000000000E+00 -0.00000000000E+00 -0.11257220434E+03  0.11257220434E+03  0.00000000000E+00 0.  1.
         21    1    1    2  503  501  0.69678076292E+02 -0.15013157835E+03  0.30695929130E+02  0.16833527616E+03  0.00000000000E+00 0.  1.
         21    1    1    2  504  503 -0.54640870682E+00  0.37809823360E+02 -0.16624903220E+02  0.41307005605E+02  0.00000000000E+00 0.  1.
         21    1    1    2  505  502 -0.33801121806E+02  0.27469234984E+03  0.17756920074E+04  0.17971311883E+04  0.00000000000E+00 0.  1.
          2    1    1    2  501    0 -0.35330545779E+02 -0.16237059485E+03  0.16932868933E+04  0.17014208652E+04  0.00000000000E+00 0.  1.
<scales pt_clust_3="137.67952" pt_clust_4="37.81377" pt_clust_5="14000.00000" pt_clust_6="193.95174"></scales>
<clustering>
<clus scale="   37.814">  2  4  1 -1</clus>
<clus scale="  137.680">  2  3  1 -1</clus>
<clus scale="  193.952">  1  6  2 -1</clus>
<clus scale="   37.814">  2  3  1 -1</clus>
</clustering>
</event>
<event>
 6    0  0.3522959E+002  0.8286326E+02  0.7546771E-02  0.1321117E+00
          2   -1    0    0  503    0 -0.00000000000E+00  0.00000000000E+00  0.20706674426E+04  0.20706674426E+04  0.00000000000E+00 0.  1.
         21   -1    0    0  504  502  0.00000000000E+00 -0.00000000000E+00 -0.44548694667E+02  0.44548694667E+02  0.00000000000E+00 0.  1.
         21    1    1    2  503  502 -0.17118066726E+02  0.25735616107E+02  0.76497448708E+01  0.31841305586E+02  0.00000000000E+00 0.  1.
         21    1    1    2  504  505 -0.20952703013E+02 -0.91137039040E+02  0.55895584361E+02  0.10894628034E+03  0.00000000000E+00 0.  1.
         21    1    1    2  505  501  0.63848738848E+02  0.95239587565E+02  0.57637629233E+03  0.58767071634E+03  0.00000000000E+00 0.  1.
          2    1    1    2  501    0 -0.25777969109E+02 -0.29838164633E+02  0.13861971263E+04  0.13867578350E+04  0.00000000000E+00 0.  1.
<scales pt_clust_3="30.90874" pt_clust_4="82.86326" pt_clust_5="14000.00000" pt_clust_6="39.36048"></scales>
<clustering>
<clus scale="   30.909">  2  3  1 -1</clus>
<clus scale="   39.360">  1  6  2 -1</clus>
<clus scale="   82.863">  2  4  1 -1</clus>
<clus scale="   30.909">  2  3  1 -1</clus>
</clustering>
</event>
<event>
 6    0  0.3522959E+002  0.8819106E+02  0.7546771E-02  0.1307292E+00
          2   -1    0    0  503    0 -0.00000000000E+00  0.00000000000E+00  0.18065526723E+04  0.18065526723E+04  0.00000000000E+00 0. -1.
         21   -1    0    0  505  502  0.00000000000E+00 -0.00000000000E+00 -0.26752729312E+02  0.26752729312E+02  0.00000000000E+00 0.  1.
         21    1    1    2  503  502 -0.32525033929E+02 -0.99802693900E+02  0.51612977751E+03  0.52669574022E+03  0.00000000000E+00 0.  1.
         21    1    1    2  504  501 -0.43537228088E+02  0.58525260429E+02  0.62439454652E+02  0.96017612109E+02  0.00000000000E+00 0.  1.
         21    1    1    2  505  504 -0.10492601164E+02  0.31672395547E+02  0.90533701702E+02  0.96486198302E+02  0.00000000000E+00 0.  1.
          2    1    1    2  501    0  0.86554863181E+02  0.96050379237E+01  0.11106970091E+04  0.11141058509E+04  0.00000000000E+00 0. -1.
<scales pt_clust_3="88.19106" pt_clust_4="14000.00000" pt_clust_5="33.36518" pt_clust_6="86.62061"></scales>
<clustering>
<clus scale="   33.365">  2  5  1 -1</clus>
<clus scale="   86.621">  1  6  2 -1</clus>
<clus scale="   88.191">  1  3  2 -1</clus>
<clus scale="   33.365">  2  3  1 -1</clus>
</clustering>
</event>
<event>
 6    0  0.3522959E+002  0.1309950E+03  0.7546771E-02  0.1225987E+00
         21   -1    0    0  503  502  0.00000000000E+00  0.00000000000E+00  0.45182474599E+03  0.45182474599E+03  0.00000000000E+00 0.  1.
          3   -1    0    0  505    0 -0.00000000000E+00 -0.00000000000E+00 -0.25536046501E+03  0.25536046501E+03  0.00000000000E+00 0. -1.
         21    1    1    2  503  501  0.62068014138E+02  0.16536480099E+01  0.50533143401E+02  0.80054803183E+02  0.00000000000E+00 0.  1.
         21    1    1    2  504  502 -0.39045053282E+02  0.35116989095E+02  0.74053546160E+02  0.90783516167E+02  0.00000000000E+00 0. -1.
         21    1    1    2  505  504 -0.12619793073E+03 -0.11311438093E+03  0.25895068380E+03  0.30947736191E+03  0.00000000000E+00 0.  1.
          3    1    1    2  501    0  0.10317496987E+03  0.76343743823E+02 -0.18707309239E+03  0.22686952974E+03  0.00000000000E+00 0. -1.
<scales pt_clust_3="55.72387" pt_clust_4="52.51399" pt_clust_5="14000.00000" pt_clust_6="130.99504"></scales>
<clustering>
<clus scale="   52.514">  1  4  2 -1</clus>
<clus scale="   55.724">  1  3  2 -1</clus>
<clus scale="  130.995">  2  6  1 -1</clus>
<clus scale="   52.514">  1  3  2 -1</clus>
</clustering>
</event>
<event>
 6    0  0.3522959E+002  0.1343471E+03  0.7546771E-02  0.1221144E+00
         21   -1    0    0  504  502  0.00000000000E+00  0.00000000000E+00  0.87487946809E+02  0.87487946809E+02  0.00000000000E+00 0. -1.
          2   -1    0    0  503    0 -0.00000000000E+00 -0.00000000000E+00 -0.14812512521E+04  0.14812512521E+04  0.00000000000E+00 0.  1.
         21    1    1    2  503  505  0.18974736040E+02 -0.23973526113E+02 -0.12739443815E+02  0.33121956325E+02  0.00000000000E+00 0. -1.
         21    1    1    2  504  501 -0.50163324484E+02 -0.71437297253E+02 -0.11443123581E+03  0.14392412685E+03  0.00000000000E+00 0. -1.
         21    1    1    2  505  502  0.95990460964E+02 -0.10900200206E+02  0.20362109792E+02  0.98729926951E+02  0.00000000000E+00 0. -1.
          2    1    1    2  501    0 -0.64801872520E+02  0.10631102357E+03 -0.12869547354E+04  0.12929631887E+04  0.00000000000E+00 0.  1.
<scales pt_clust_3="30.26171" pt_clust_4="87.29059" pt_clust_5="30.26171" pt_clust_6="123.10771"></scales>
<clustering>
<clus scale="   30.262">  3  5 -1 -1</clus>
<clus scale="   87.291">  1  4  2 -1</clus>
<clus scale="  123.108">  2  6  1 -1</clus>
<clus scale="   87.291">  1  3  2 -1</clus>
</clustering>
</event>
<event>
 6    0  0.3522959E+002  0.8782648E+02  0.7546771E-02  0.1308202E+00
         21   -1    0    0  505  502  0.00000000000E+00  0.00000000000E+00  0.12926894820E+04  0.12926894820E+04  0.00000000000E+00 0.  1.
         -1   -1    0    0    0  501 -0.00000000000E+00 -0.00000000000E+00 -0.81418602283E+02  0.81418602283E+02  0.00000000000E+00 0.  1.
         21    1    1    2  503  501  0.43319034615E+02 -0.63813879257E+02  0.17692845059E+03  0.19300887693E+03  0.00000000000E+00 0.  1.
         21    1    1    2  504  502  0.12329030989E+02  0.53789541980E+02  0.44833850310E+03  0.45172196448E+03  0.00000000000E+00 0.  1.
         21    1    1    2  505  503 -0.82161527671E+02  0.29748617740E+02  0.65080058133E+03  0.65664061217E+03  0.00000000000E+00 0.  1.
         -1    1    1    2    0  504  0.26513462067E+02 -0.19724280463E+02 -0.64796655294E+02  0.72736630715E+02  0.00000000000E+00 0.  1.
<scales pt_clust_3="87.82648" pt_clust_4="53.55869" pt_clust_5="14000.00000" pt_clust_6="33.04559"></scales>
<clustering>
<clus scale="   33.046">  2  6  1 -1</clus>
<clus scale="   53.559">  1  4  2 -1</clus>
<clus scale="   87.826">  2  3  1 -1</clus>
<clus scale="   53.559">  1  3  2 -1</clus>
</clustering>
</event>
<event>
 6    0  0.3522959E+002  0.8606277E+02  0.7546771E-02  0.1312676E+00
         21   -1    0    0  505  502  0.00000000000E+00  0.00000000000E+00  0.17517020057E+03  0.17517020057E+03  0.00000000000E+00 0.  1.
         -2   -1    0    0    0  501 -0.00000000000E+00 -0.00000000000E+00 -0.64015504534E+03  0.64015504534E+03  0.00000000000E+00 0.  1.
         21    1    1    2  503  501  0.28733768710E+02  0.80103231785E+02 -0.21101948935E+03  0.22753325492E+03  0.00000000000E+00 0.  1.
         21    1    1    2  504  502 -0.17795972207E+02 -0.31503147492E+02  0.27756967154E+02  0.45602567409E+02  0.00000000000E+00 0. -1.
         21    1    1    2  505  503 -0.16638241830E+02  0.40521802714E+02  0.12152129417E+03  0.12917535571E+03  0.00000000000E+00 0.  1.
         -2    1    1    2    0  504  0.57004453263E+01 -0.89121887007E+02 -0.40324361674E+03  0.41301406788E+03  0.00000000000E+00 0.  1.
<scales pt_clust_3="14000.00000" pt_clust_4="36.18211" pt_clust_5="34.87780" pt_clust_6="86.06277"></scales>
<clustering>
<clus scale="   36.182">  1  4  2 -1</clus>
<clus scale="   34.878">  1  5  2 -1</clus>
<clus scale="   86.063">  2  6  1 -1</clus>
<clus scale="   36.182">  1  3  2 -1</clus>
</clustering>
</event>
<event>
 6    0  0.3522959E+002  0.1018285E+03  0.7546771E-02  0.1276497E+00
          1   -1    0    0  504    0 -0.00000000000E+00  0.00000000000E+00  0.15361181255E+04  0.15361181255E+04  0.00000000000E+00 0.  1.
         21   -1    0    0  503  502  0.00000000000E+00 -0.00000000000E+00 -0.81477827730E+02  0.81477827730E+02  0.00000000000E+00 0. -1.
         21    1    1    2  503  505  0.62962234708E+02  0.32655887122E+02 -0.13874902363E+01  0.70940644854E+02  0.00000000000E+00 0.  1.
         21    1    1    2  504  502  0.27549409303E+02  0.14192738016E+02  0.46287341375E+02  0.55703875421E+02  0.00000000000E+00 0.  1.
         21    1    1    2  505  501 -0.13904704791E+03 -0.35827353150E+02  0.88283586139E+02  0.16855762323E+03  0.00000000000E+00 0. -1.
          1    1    1    2  501    0  0.48535403899E+02 -0.11021271988E+02  0.13214568605E+04  0.13223938097E+04  0.00000000000E+00 0.  1.
<scales pt_clust_3="14000.00000" pt_clust_4="30.99038" pt_clust_5="101.82853" pt_clust_6="49.91593"></scales>
<clustering>
<clus scale="   30.990">  2  4  1 -1</clus>
<clus scale="   49.916">  1  6  2 -1</clus>
<clus scale="  101.829">  1  5  2 -1</clus>
<clus scale="   30.990">  2  3  1 -1</clus>
</clustering>
</event>
<event>
 6    0  0.3522959E+002  0.7412925E+02  0.7546771E-02  0.1346589E+00
         21   -1    0    0  503  502  0.00000000000E+00  0.00000000000E+00  0.90692876059E+02  0.90692876059E+02  0.00000000000E+00 0. -1.
          1   -1    0    0  505    0 -0.00000000000E+00 -0.00000000000E+00 -0.15934880623E+04  0.15934880623E+04  0.00000000000E+00 0.  1.
         21    1    1    2  503  504  0.13345608587E+02  0.11263233387E+03 -0.31119357787E+02  0.11761191407E+03  0.00000000000E+00 0. -1.
         21    1    1    2  504  501  0.52669592997E+01 -0.44067181853E+02 -0.46347821630E+03  0.46559823277E+03  0.00000000000E+00 0.  1.
         21    1    1    2  505  502  0.15467088512E+02 -0.61980604816E+02  0.23962101096E+02  0.68227622627E+02  0.00000000000E+00 0.  1.
          1    1    1    2  501    0 -0.34079656398E+02 -0.65845471998E+01 -0.10321597133E+04  0.10327431689E+04  0.00000000000E+00 0.  1.
<scales pt_clust_3="14000.00000" pt_clust_4="54.57928" pt_clust_5="74.12925" pt_clust_6="34.70993"></scales>
<clustering>
<clus scale="   34.710">  2  6  1 -1</clus>
<clus scale="   54.579">  2  4  1 -1</clus>
<clus scale="   74.129">  1  5  2 -1</clus>
<clus scale="   74.129">  1  3  2 -1</clus>
</clustering>
</event>
<event>
 6    0  0.3522959E+002  0.8576407E+02  0.7546771E-02  0.1313446E+00
          1   -1    0    0  505    0 -0.00000000000E+00  0.00000000000E+00  0.14427236561E+04  0.14427236561E+04  0.00000000000E+00 0.  1.
         21   -1    0    0  503  502  0.00000000000E+00 -0.00000000000E+00 -0.64228098886E+02  0.64228098886E+02  0.00000000000E+00 0.  1.
         21    1    1    2  503  504  0.46148245167E+02  0.14260343047E+02 -0.80978081500E+01  0.48975426620E+02  0.00000000000E+00 0.  1.
         21    1    1    2  504  501  0.27893362848E+02 -0.22839352298E+02 -0.16564406322E+02  0.39674365290E+02  0.00000000000E+00 0.  1.
         21    1    1    2  505  502  0.14318340088E+02 -0.74670655230E+02  0.34955343400E+03  0.35772660628E+03  0.00000000000E+00 0.  1.
          1    1    1    2  501    0 -0.88359948102E+02  0.83249664481E+02  0.10536043377E+04  0.10605753568E+04  0.00000000000E+00 0.  1.
<scales pt_clust_3="35.56630" pt_clust_4="35.56630" pt_clust_5="76.03106" pt_clust_6="75.23745"></scales>
<clustering>
<clus scale="   35.566">  3  4 -1 -1</clus>
<clus scale="   76.031">  1  5  2 -1</clus>
<clus scale="   75.237">  1  6  2 -1</clus>
<clus scale="   85.764">  2  3  1 -1</clus>
</clustering>
</event>
<event>
 6    0  0.3522959E+002  0.9087410E+02  0.7546771E-02  0.1300749E+00
          1   -1    0    0  503    0 -0.00000000000E+00  0.00000000000E+00  0.15264218035E+04  0.15264218035E+04  0.00000000000E+00 0.  1.
         21   -1    0    0  504  502  0.00000000000E+00 -0.00000000000E+00 -0.19530548645E+03  0.19530548645E+03  0.00000000000E+00 0. -1.
         21    1    1    2  503  505  0.24502032302E+02 -0.38141455701E+02  0.16720469229E+03  0.17324124611E+03  0.00000000000E+00 0. -1.
         21    1    1    2  504  501 -0.65362112134E+02  0.20136823204E+02 -0.15622115089E+03  0.17053663928E+03  0.00000000000E+00 0. -1.
         21    1    1    2  505  502 -0.46328483177E+01 -0.84255939315E+02  0.40798402280E+02  0.93728524057E+02  0.00000000000E+00 0.  1.
          1    1    1    2  501    0  0.45492928150E+02  0.10226057181E+03  0.12793343733E+04  0.12842208805E+04  0.00000000000E+00 0.  1.
<scales pt_clust_3="45.33343" pt_clust_4="68.21101" pt_clust_5="90.87410" pt_clust_6="14000.00000"></scales>
<clustering>
<clus scale="   45.333">  1  3  2 -1</clus>
<clus scale="   68.211">  2  4  1 -1</clus>
<clus scale="   90.874">  2  5  1 -1</clus>
<clus scale="   68.211">  2  3  1 -1</clus>
</clustering>
</event>
<event>
 6    0  0.3522959E+002  0.1117496E+03  0.7546771E-02  0.1257364E+00
          2   -1    0    0  504    0 -0.00000000000E+00  0.00000000000E+00  0.21573334826E+04  0.21573334826E+04  0.00000000000E+00 0. -1.
         21   -1    0    0  505  502  0.00000000000E+00 -0.00000000000E+00 -0.12250611990E+03  0.12250611990E+03  0.00000000000E+00 0.  1.
         21    1    1    2  503  501  0.14087502745E+01 -0.45676564200E+02 -0.28256904504E+02  0.53728816725E+02  0.00000000000E+00 0.  1.
         21    1    1    2  504  502 -0.39191677650E+02  0.76569023985E+02  0.96623457187E+01  0.86557287133E+02  0.00000000000E+00 0.  1.
         21    1    1    2  505  503  0.32444672922E+02 -0.74523065333E+02 -0.42706059567E+01  0.81391536064E+02  0.00000000000E+00 0.  1.
          2    1    1    2  501    0  0.53382544531E+01  0.43630605548E+02  0.20576925274E+04  0.20581619625E+04  0.00000000000E+00 0. -1.
<scales pt_clust_3="30.04417" pt_clust_4="104.31929" pt_clust_5="30.04417" pt_clust_6="43.95596"></scales>
<clustering>
<clus scale="   30.044">  3  5 -1 -1</clus>
<clus scale="   43.956">  1  6  2 -1</clus>
<clus scale="  104.319">  1  4  2 -1</clus>
<clus scale="  111.750">  2  3  1 -1</clus>
</clustering>
</event>
<event>
 6    0  0.3522959E+002  0.1910167E+03  0.7546771E-02  0.1157548E+00
          2   -1    0    0  503    0 -0.00000000000E+00  0.00000000000E+00  0.25117299436E+04  0.25117299436E+04  0.00000000000E+00 0.  1.
         21   -1    0    0  504  502  0.00000000000E+00 -0.00000000000E+00 -0.52439757375E+02  0.52439757375E+02  0.00000000000E+00 0. -1.
         21    1    1    2  503  502 -0.18988948196E+03 -0.45974876528E+02  0.14756269177E+04  0.14885047883E+04  0.00000000000E+00 0.  1.
         21    1    1    2  504  505  0.57820212309E+02  0.53895898126E+02  0.93672480349E+02  0.12256622031E+03  0.00000000000E+00 0. -1.
         21    1    1    2  505  501  0.93147788310E+02  0.55977918589E+02  0.69049721625E+02  0.12875520142E+03  0.00000000000E+00 0. -1.
          2    1    1    2  501    0  0.38921481341E+02 -0.63898940187E+02  0.82094106656E+03  0.82434349092E+03  0.00000000000E+00 0.  1.
<scales pt_clust_3="186.19085" pt_clust_4="36.38722" pt_clust_5="36.38722" pt_clust_6="74.81949"></scales>
<clustering>
<clus scale="   36.387">  4  5 -1 -1</clus>
<clus scale="   74.819">  1  6  2 -1</clus>
<clus scale="  186.191">  1  3  2 -1</clus>
<clus scale="  191.017">  2  3  1 -1</clus>
</clustering>
</event>
<event>
 6    0  0.3522959E+002  0.1109584E+03  0.7546771E-02  0.1258805E+00
         -2   -1    0    0    0  501 -0.00000000000E+00  0.00000000000E+00  0.10944343053E+04  0.10944343053E+04  0.00000000000E+00 0.  1.
         21   -1    0    0  505  502  0.00000000000E+00 -0.00000000000E+00 -0.18569430643E+03  0.18569430643E+03  0.00000000000E+00 0.  1.
         21    1    1    2  503  502 -0.11091310602E+03  0.12234622016E+03  0.14436023578E+03  0.21934035732E+03  0.00000000000E+00 0.  1.
         21    1    1    2  504  501  0.57147003852E+02 -0.42222910718E+02 -0.89900848376E+01  0.71619661157E+02  0.00000000000E+00 0.  1.
         21    1    1    2  505  504  0.19860569349E+02 -0.51159970511E+02 -0.10031556129E+03  0.11434595154E+03  0.00000000000E+00 0.  1.
         -2    1    1    2    0  503  0.33905532821E+02 -0.28963338931E+02  0.87368540919E+03  0.87482264167E+03  0.00000000000E+00 0.  1.
<scales pt_clust_3="110.95837" pt_clust_4="14000.00000" pt_clust_5="56.13496" pt_clust_6="44.59215"></scales>
<clustering>
<clus scale="   44.592">  1  6  2 -1</clus>
<clus scale="   56.135">  2  5  1 -1</clus>
<clus scale="  110.958">  1  3  2 -1</clus>
<clus scale="   56.135">  2  3  1 -1</clus>
</clustering>
</event>
<event>
 6    0  0.3522959E+002  0.1385446E+03  0.7546771E-02  0.1215301E+00
         21   -1    0    0  505  502  0.00000000000E+00  0.00000000000E+00  0.98023254252E+02  0.98023254252E+02  0.00000000000E+00 0. -1.
          2   -1    0    0  502    0 -0.00000000000E+00 -0.00000000000E+00 -0.57514062316E+03  0.57514062316E+03  0.00000000000E+00 0. -1.
         21    1    1    2  503  504 -0.64019987982E+02 -0.31901220866E+02 -0.63555078103E+02  0.95684349330E+02  0.00000000000E+00 0. -1.
         21    1    1    2  504  501 -0.62173743097E+02 -0.22951448237E+02 -0.57984705698E+01  0.66527930735E+02  0.00000000000E+00 0. -1.
         21    1    1    2  505  503  0.96235946693E+02  0.80222763257E+02 -0.26993281348E+02  0.12816273412E+03  0.00000000000E+00 0. -1.
          2    1    1    2  501    0  0.29957784387E+02 -0.25370094154E+02 -0.38077053888E+03  0.38278886322E+03  0.00000000000E+00 0. -1.
<scales pt_clust_3="49.21317" pt_clust_4="49.21317" pt_clust_5="128.93942" pt_clust_6="39.25698"></scales>
<clustering>
<clus scale="   39.257">  2  6  1 -1</clus>
<clus scale="   49.213">  3  4 -1 -1</clus>
<clus scale="  128.939">  1  5  2 -1</clus>
<clus scale="  128.939">  1  3  2 -1</clus>
</clustering>
</event>
<event>
 6    0  0.3522959E+002  0.8494638E+02  0.7546771E-02  0.1315573E+00
          2   -1    0    0  504    0 -0.00000000000E+00  0.00000000000E+00  0.63279548828E+03  0.63279548828E+03  0.00000000000E+00 0. -1.
         21   -1    0    0  503  502  0.00000000000E+00 -0.00000000000E+00 -0.43036847395E+03  0.43036847395E+03  0.00000000000E+00 0. -1.
         21    1    1    2  503  501 -0.51483137979E+02  0.34544913542E+02 -0.19034368583E+02  0.64855005475E+02  0.00000000000E+00 0. -1.
         21    1    1    2  504  505  0.12847991535E+03 -0.46875636803E+02  0.36435361449E+03  0.38917601464E+03  0.00000000000E+00 0.  1.
         21    1    1    2  505  502 -0.37353532477E+02 -0.32366142169E+02 -0.37051659552E+03  0.37379861035E+03  0.00000000000E+00 0. -1.
          2    1    1    2  501    0 -0.39643244894E+02  0.44696865431E+02  0.22762436394E+03  0.23533433176E+03  0.00000000000E+00 0. -1.
<scales pt_clust_3="14000.00000" pt_clust_4="84.94638" pt_clust_5="49.42523" pt_clust_6="59.87181"></scales>
<clustering>
<clus scale="   49.425">  2  5  1 -1</clus>
<clus scale="   59.872">  1  6  2 -1</clus>
<clus scale="   84.946">  1  4  2 -1</clus>
<clus scale="   49.425">  2  3  1 -1</clus>
</clustering>
</event>
<event>
 6    0  0.3522959E+002  0.1163328E+03  0.7546771E-02  0.1249272E+00
          2   -1    0    0  503    0 -0.00000000000E+00  0.00000000000E+00  0.66708160868E+03  0.66708160868E+03  0.00000000000E+00 0. -1.
         21   -1    0    0  505  502  0.00000000000E+00 -0.00000000000E+00 -0.14863864442E+03  0.14863864442E+03  0.00000000000E+00 0. -1.
         21    1    1    2  503  504 -0.14069303458E+03  0.82069650767E+02  0.37021680785E+03  0.40446315329E+03  0.00000000000E+00 0. -1.
         21    1    1    2  504  502  0.51034115800E+02 -0.55355349125E+02 -0.10128857704E+03  0.12620646374E+03  0.00000000000E+00 0. -1.
         21    1    1    2  505  501  0.55973155071E+02 -0.52588287068E+02  0.82484073536E+02  0.11270379059E+03  0.00000000000E+00 0. -1.
          2    1    1    2  501    0  0.33685763706E+02  0.25873985427E+02  0.16703065991E+03  0.17234684548E+03  0.00000000000E+00 0. -1.
<scales pt_clust_3="116.33277" pt_clust_4="75.39362" pt_clust_5="14000.00000" pt_clust_6="42.47580"></scales>
<clustering>
<clus scale="   42.476">  1  6  2 -1</clus>
<clus scale="   75.394">  2  4  1 -1</clus>
<clus scale="  116.333">  1  3  2 -1</clus>
<clus scale="   75.394">  2  3  1 -1</clus>
</clustering>
</event>
<event>
 6    0  0.3522959E+002  0.2310130E+03  0.7546771E-02  0.1125929E+00
         21   -1    0    0  504  502  0.00000000000E+00  0.00000000000E+00  0.20625407837E+03  0.20625407837E+03  0.00000000000E+00 0. -1.
         -1   -1    0    0    0  501 -0.00000000000E+00 -0.00000000000E+00 -0.10515643618E+04  0.10515643618E+04  0.00000000000E+00 0. -1.
         21    1    1    2  503  505  0.35922713635E+02 -0.49014227154E+02 -0.83349777203E+02  0.10315047832E+03  0.00000000000E+00 0. -1.
         21    1    1    2  504  503 -0.15666844819E+02  0.23174459550E+03  0.98025340393E+02  0.25211103690E+03  0.00000000000E+00 0. -1.
         21    1    1    2  505  501  0.99505096440E+01 -0.14056644402E+03 -0.22520098553E+03  0.26565658605E+03  0.00000000000E+00 0. -1.
         -1    1    1    2    0  502 -0.30206378460E+02 -0.42163924318E+02 -0.63478486112E+03  0.63690033893E+03  0.00000000000E+00 0. -1.
<scales pt_clust_3="34.56114" pt_clust_4="224.93805" pt_clust_5="34.56114" pt_clust_6="51.86735"></scales>
<clustering>
<clus scale="   34.561">  3  5 -1 -1</clus>
<clus scale="   51.867">  2  6  1 -1</clus>
<clus scale="  224.938">  1  4  2 -1</clus>
<clus scale="  224.938">  1  3  2 -1</clus>
</clustering>
</event>
<event>
 6    0  0.3522959E+002  0.2047177E+03  0.7546771E-02  0.1145819E+00
          1   -1    0    0  505    0 -0.00000000000E+00  0.00000000000E+00  0.24799562042E+04  0.24799562042E+04  0.00000000000E+00 0. -1.
         21   -1    0    0  503  502  0.00000000000E+00 -0.00000000000E+00 -0.43074640666E+03  0.43074640666E+03  0.00000000000E+00 0. -1.
         21    1    1    2  503  504 -0.79175292278E+02 -0.21934445583E+02 -0.11962568359E+03  0.14512115967E+03  0.00000000000E+00 0. -1.
         21    1    1    2  504  501  0.28300256932E+02  0.20706842785E+03 -0.19383146479E+03  0.28504188306E+03  0.00000000000E+00 0. -1.
         21    1    1    2  505  502  0.26602274690E+02 -0.27909180133E+03  0.28212828771E+03  0.39773896630E+03  0.00000000000E+00 0. -1.
          1    1    1    2  501    0  0.24272760655E+02  0.93957819057E+02  0.20805386582E+04  0.20828006018E+04  0.00000000000E+00 0. -1.
<scales pt_clust_3="82.15745" pt_clust_4="204.71774" pt_clust_5="14000.00000" pt_clust_6="96.88727"></scales>
<clustering>
<clus scale="   82.157">  2  3  1 -1</clus>
<clus scale="   96.887">  1  6  2 -1</clus>
<clus scale="  204.718">  2  4  1 -1</clus>
<clus scale="   82.157">  2  3  1 -1</clus>
</clustering>
</event>
<event>
 6    0  0.3522959E+002  0.2852501E+03  0.7546771E-02  0.1092856E+00
         -2   -1    0    0    0  501 -0.00000000000E+00  0.00000000000E+00  0.60871263193E+03  0.60871263193E+03  0.00000000000E+00 0. -1.
         21   -1    0    0  503  502  0.00000000000E+00 -0.00000000000E+00 -0.52232271609E+03  0.52232271609E+03  0.00000000000E+00 0. -1.
         21    1    1    2  503  501 -0.17441103799E+03  0.21462950518E+03  0.22141428176E+03  0.35427294398E+03  0.00000000000E+00 0. -1.
         21    1    1    2  504  505  0.99862067092E+02 -0.41378078927E+02 -0.11909746885E+03  0.16083775970E+03  0.00000000000E+00 0. -1.
         21    1    1    2  505  502  0.12115193235E+03 -0.12584517985E+03 -0.28745869074E+03  0.33637374881E+03  0.00000000000E+00 0. -1.
         -2    1    1    2    0  504 -0.46602961452E+02 -0.47406246397E+02  0.27153179367E+03  0.27955089553E+03  0.00000000000E+00 0. -1.
<scales pt_clust_3="276.12869" pt_clust_4="56.29044" pt_clust_5="56.29044" pt_clust_6="66.47698"></scales>
<clustering>
<clus scale="   56.290">  4  5 -1 -1</clus>
<clus scale="   66.477">  1  6  2 -1</clus>
<clus scale="  276.129">  1  3  2 -1</clus>
<clus scale="  285.250">  2  3  1 -1</clus>
</clustering>
</event>
<event>
 6    0  0.3522959E+002  0.9378630E+02  0.7546771E-02  0.1293933E+00
          2   -1    0    0  502    0 -0.00000000000E+00  0.00000000000E+00  0.18407112100E+04  0.18407112100E+04  0.00000000000E+00 0.  1.
         21   -1    0    0  504  502  0.00000000000E+00 -0.00000000000E+00 -0.21599859770E+02  0.21599859770E+02  0.00000000000E+00 0. -1.
         21    1    1    2  503  501 -0.50201953271E+01 -0.90474211652E+02  0.24863038568E+03  0.26462776502E+03  0.00000000000E+00 0.  1.
         21    1    1    2  504  505  0.74630016152E+01  0.33612251311E+02  0.64198763403E+02  0.72848891918E+02  0.00000000000E+00 0. -1.
         21    1    1    2  505  503  0.56451611483E+02 -0.21921507582E+02  0.11404076746E+03  0.12912255255E+03  0.00000000000E+00 0. -1.
          2    1    1    2  501    0 -0.58894417771E+02  0.78783467923E+02  0.13922414337E+04  0.13957118603E+04  0.00000000000E+00 0.  1.
<scales pt_clust_3="93.78630" pt_clust_4="34.43080" pt_clust_5="60.14781" pt_clust_6="14000.00000"></scales>
<clustering>
<clus scale="   34.431">  2  4  1 -1</clus>
<clus scale="   60.148">  2  5  1 -1</clus>
<clus scale="   93.786">  2  3  1 -1</clus>
<clus scale="   34.431">  2  3  1 -1</clus>
</clustering>
</event>
<event>
 6    0  0.3522959E+002  0.9362951E+02  0.7546771E-02  0.1294293E+00
          2   -1    0    0  505    0 -0.00000000000E+00  0.00000000000E+00  0.20478812410E+04  0.20478812410E+04  0.00000000000E+00 0. -1.
         21   -1    0    0  503  502  0.00000000000E+00 -0.00000000000E+00 -0.59134983687E+03  0.59134983687E+03  0.00000000000E+00 0.  1.
         21    1    1    2  503  501 -0.46302597685E+02  0.49403998204E+02 -0.54371804340E+03  0.54791787369E+03  0.00000000000E+00 0.  1.
         21    1    1    2  504  502 -0.38667301942E+02 -0.11139266096E+02 -0.19316862418E+02  0.44636136283E+02  0.00000000000E+00 0. -1.
         21    1    1    2  505  504  0.84355762708E+02 -0.86609982600E+02  0.26314231450E+03  0.28958774399E+03  0.00000000000E+00 0.  1.
          2    1    1    2  501    0  0.61413691871E+00  0.48345250492E+02  0.17564239954E+04  0.17570893239E+04  0.00000000000E+00 0. -1.
<scales pt_clust_3="14000.00000" pt_clust_4="40.23982" pt_clust_5="93.62951" pt_clust_6="48.34224"></scales>
<clustering>
<clus scale="   40.240">  2  4  1 -1</clus>
<clus scale="   48.342">  1  6  2 -1</clus>
<clus scale="   93.630">  1  5  2 -1</clus>
<clus scale="   40.240">  2  3  1 -1</clus>
</clustering>
</event>
<event>
 6    0  0.3522959E+002  0.1004265E+03  0.7546771E-02  0.1279402E+00
         21   -1    0    0  504  502  0.00000000000E+00  0.00000000000E+00  0.42640485164E+02  0.42640485164E+02  0.00000000000E+00 0. -1.
          2   -1    0    0  502    0 -0.00000000000E+00 -0.00000000000E+00 -0.58981371462E+03  0.58981371462E+03  0.00000000000E+00 0.  1.
         21    1    1    2  503  501  0.54730673710E+02  0.87023900075E+02 -0.12103517737E+03  0.15880214101E+03  0.00000000000E+00 0. -1.
         21    1    1    2  504  505 -0.15091225616E+02 -0.34366235419E+02 -0.40630768758E+02  0.55314036170E+02  0.00000000000E+00 0. -1.
         21    1    1    2  505  503  0.26647340317E+02 -0.58068977030E+02 -0.65529642979E+02  0.91521696599E+02  0.00000000000E+00 0. -1.
          2    1    1    2  501    0 -0.66286788411E+02  0.54113123741E+01 -0.31997764035E+03  0.32681632601E+03  0.00000000000E+00 0.  1.
<scales pt_clust_3="92.04665" pt_clust_4="30.78169" pt_clust_5="30.78169" pt_clust_6="66.50730"></scales>
<clustering>
<clus scale="   30.782">  4  5 -1 -1</clus>
<clus scale="   66.507">  2  6  1 -1</clus>
<clus scale="   92.047">  2  3  1 -1</clus>
<clus scale="  100.426">  1  3  2 -1</clus>
</clustering>
</event>
<event>
 6    0  0.3522959E+002  0.8468571E+02  0.7546771E-02  0.1316256E+00
          1   -1    0    0  505    0 -0.00000000000E+00  0.00000000000E+00  0.68901582982E+03  0.68901582982E+03  0.00000000000E+00 0.  1.
         21   -1    0    0  503  502  0.00000000000E+00 -0.00000000000E+00 -0.22991961919E+03  0.22991961919E+03  0.00000000000E+00 0. -1.
         21    1    1    2  503  501  0.23162463960E+01 -0.45422840018E+02 -0.18784363698E+03  0.19327139299E+03  0.00000000000E+00 0. -1.
         21    1    1    2  504  502  0.26033808870E+02 -0.29466586178E+02  0.14062852111E+02  0.41758863907E+02  0.00000000000E+00 0. -1.
         21    1    1    2  505  504 -0.46381779935E+02  0.14641427600E+03  0.24561653955E+03  0.28968240235E+03  0.00000000000E+00 0. -1.
          1    1    1    2  501    0  0.18031724668E+02 -0.71524849806E+02  0.38726045595E+03  0.39422278977E+03  0.00000000000E+00 0.  1.
<scales pt_clust_3="84.68571" pt_clust_4="39.31970" pt_clust_5="14000.00000" pt_clust_6="74.32622"></scales>
<clustering>
<clus scale="   39.320">  2  4  1 -1</clus>
<clus scale="   74.326">  1  6  2 -1</clus>
<clus scale="   84.686">  2  3  1 -1</clus>
<clus scale="   39.320">  2  3  1 -1</clus>
</clustering>
</event>
<event>
 6    0  0.3522959E+002  0.8490823E+02  0.7546771E-02  0.1315673E+00
         21   -1    0    0  503  502  0.00000000000E+00  0.00000000000E+00  0.10560033456E+04  0.10560033456E+04  0.00000000000E+00 0. -1.
          2   -1    0    0  505    0 -0.00000000000E+00 -0.00000000000E+00 -0.93637231355E+02  0.93637231355E+02  0.00000000000E+00 0. -1.
         21    1    1    2  503  501  0.54004375591E+02  0.55777891623E+02  0.48702273434E+03  0.49317217028E+03  0.00000000000E+00 0.  1.
         21    1    1    2  504  502 -0.83607925281E+02 -0.54217643246E+02  0.43755075076E+03  0.44875438438E+03  0.00000000000E+00 0. -1.
         21    1    1    2  505  504  0.10477416548E+03 -0.29543994799E+01  0.69874762184E+02  0.12597157068E+03  0.00000000000E+00 0. -1.
          2    1    1    2  501    0 -0.75170615791E+02  0.13941511031E+01 -0.32082133040E+02  0.81742451616E+02  0.00000000000E+00 0. -1.
<scales pt_clust_3="14000.00000" pt_clust_4="84.90823" pt_clust_5="47.40084" pt_clust_6="75.18354"></scales>
<clustering>
<clus scale="   75.184">  2  6  1 -1</clus>
<clus scale="   47.401">  2  5  1 -1</clus>
<clus scale="   84.908">  2  4  1 -1</clus>
<clus scale="   84.908">  1  3  2 -1</clus>
</clustering>
</event>
<event>
 6    0  0.3522959E+002  0.2089309E+03  0.7546771E-02  0.1142415E+00
         21   -1    0    0  504  502  0.00000000000E+00  0.00000000000E+00  0.86003574145E+02  0.86003574145E+02  0.00000000000E+00 0. -1.
          1   -1    0    0  503    0 -0.00000000000E+00 -0.00000000000E+00 -0.16715850484E+04  0.16715850484E+04  0.00000000000E+00 0. -1.
         21    1    1    2  503  505 -0.67698204347E+02  0.21993831480E+02 -0.88219518194E+02  0.11335545371E+03  0.00000000000E+00 0. -1.
         21    1    1    2  504  501  0.17916736527E+03 -0.26485548230E+02 -0.29900916002E+03  0.34958390526E+03  0.00000000000E+00 0. -1.
         21    1    1    2  505  502 -0.13158856140E+03  0.36922335147E+02 -0.49797329759E+02  0.14545989954E+03  0.00000000000E+00 0. -1.
          1    1    1    2  501    0  0.20119400475E+02 -0.32430618397E+02 -0.11485554662E+04  0.11491893640E+04  0.00000000000E+00 0. -1.
<scales pt_clust_3="48.72837" pt_clust_4="197.23513" pt_clust_5="48.72837" pt_clust_6="38.16458"></scales>
<clustering>
<clus scale="   38.165">  2  6  1 -1</clus>
<clus scale="   48.728">  3  5 -1 -1</clus>
<clus scale="  197.235">  2  4  1 -1</clus>
<clus scale="  208.931">  1  3  2 -1</clus>
</clustering>
</event>
<event>
 6    0  0.3522959E+002  0.1482142E+03  0.7546771E-02  0.1202685E+00
          1   -1    0    0  504    0 -0.00000000000E+00  0.00000000000E+00  0.11701915533E+04  0.11701915533E+04  0.00000000000E+00 0.  1.
         21   -1    0    0  503  502  0.00000000000E+00 -0.00000000000E+00 -0.71712127664E+02  0.71712127664E+02  0.00000000000E+00 0.  1.
         21    1    1    2  503  505  0.75039920313E+02 -0.31897776056E+02  0.24670028453E+02  0.85188426806E+02  0.00000000000E+00 0.  1.
         21    1    1    2  504  502 -0.28787068435E+01 -0.37006609590E+02  0.34505311744E-01  0.37118422610E+02  0.00000000000E+00 0.  1.
         21    1    1    2  505  501  0.37572279764E+02  0.16523832775E+03  0.52126503858E+03  0.54811734292E+03  0.00000000000E+00 0.  1.
          1    1    1    2  501    0 -0.10973349323E+03 -0.96333942104E+02  0.55250985331E+03  0.57147948865E+03  0.00000000000E+00 0.  1.
<scales pt_clust_3="90.51177" pt_clust_4="37.11841" pt_clust_5="148.21420" pt_clust_6="14000.00000"></scales>
<clustering>
<clus scale="   37.118">  2  4  1 -1</clus>
<clus scale="   90.512">  2  3  1 -1</clus>
<clus scale="  148.214">  2  5  1 -1</clus>
<clus scale="   37.118">  2  3  1 -1</clus>
</clustering>
</event>
<event>
 6    0  0.3522959E+002  0.1346943E+03  0.7546771E-02  0.1220652E+00
         21   -1    0    0  505  502  0.00000000000E+00  0.00000000000E+00  0.18239248294E+04  0.18239248294E+04  0.00000000000E+00 0. -1.
          2   -1    0    0  503    0 -0.00000000000E+00 -0.00000000000E+00 -0.12805241977E+03  0.12805241977E+03  0.00000000000E+00 0. -1.
         21    1    1    2  503  502  0.15156740509E+03 -0.28893747331E+02  0.15735520346E+04  0.15810988371E+04  0.00000000000E+00 0. -1.
         21    1    1    2  504  501 -0.87662418432E+02 -0.16418103808E+02  0.13520737503E+03  0.16197310888E+03  0.00000000000E+00 0.  1.
         21    1    1    2  505  504  0.64583600666E+01  0.33413131311E+02  0.82809845973E+02  0.89529985753E+02  0.00000000000E+00 0.  1.
          2    1    1    2  501    0 -0.70363346724E+02  0.11898719828E+02 -0.95696845976E+02  0.11937531749E+03  0.00000000000E+00 0. -1.
<scales pt_clust_3="134.69430" pt_clust_4="14000.00000" pt_clust_5="34.03157" pt_clust_6="71.35726"></scales>
<clustering>
<clus scale="   34.032">  1  5  2 -1</clus>
<clus scale="   71.357">  2  6  1 -1</clus>
<clus scale="  134.694">  1  3  2 -1</clus>
<clus scale="   34.032">  1  3  2 -1</clus>
</clustering>
</event>
<event>
 6    0  0.3522959E+002  0.1282448E+03  0.7546771E-02  0.1230084E+00
         21   -1    0    0  504  502  0.00000000000E+00  0.00000000000E+00  0.78204529094E+03  0.78204529094E+03  0.00000000000E+00 0.  1.
          2   -1    0    0  503    0 -0.00000000000E+00 -0.00000000000E+00 -0.22713811372E+04  0.22713811372E+04  0.00000000000E+00 0.  1.
         21    1    1    2  503  505 -0.44416898645E+02  0.14064821276E+01 -0.94816715244E+03  0.94920797934E+03  0.00000000000E+00 0.  1.
         21    1    1    2  504  501  0.24560516269E+02 -0.40585129261E+02  0.64185627194E+03  0.64360690293E+03  0.00000000000E+00 0.  1.
         21    1    1    2  505  502  0.74508385960E+02 -0.43492156786E+02  0.12332592924E+03  0.15050698357E+03  0.00000000000E+00 0. -1.
          2    1    1    2  501    0 -0.54652003584E+02  0.82670803919E+02 -0.13063508950E+04  0.13101045623E+04  0.00000000000E+00 0.  1.
<scales pt_clust_3="44.43916" pt_clust_4="47.42207" pt_clust_5="14000.00000" pt_clust_6="128.24484"></scales>
<clustering>
<clus scale="   44.439">  2  3  1 -1</clus>
<clus scale="   47.422">  1  4  2 -1</clus>
<clus scale="  128.245">  2  6  1 -1</clus>
<clus scale="   47.422">  1  3  2 -1</clus>
</clustering>
</event>
<event>
 6    0  0.3522959E+002  0.8541783E+02  0.7546771E-02  0.1314343E+00
         -4   -1    0    0    0  501 -0.00000000000E+00  0.00000000000E+00  0.36885219110E+03  0.36885219110E+03  0.00000000000E+00 0. -1.
         21   -1    0    0  504  502  0.00000000000E+00 -0.00000000000E+00 -0.44435631745E+03  0.44435631745E+03  0.00000000000E+00 0.  1.
         21    1    1    2  503  501 -0.60703636650E+02  0.94338732158E+01  0.57600217289E+02  0.84212317972E+02  0.00000000000E+00 0. -1.
         21    1    1    2  504  505  0.67235884486E+02 -0.50242164068E+02 -0.35285123272E+03  0.36269674888E+03  0.00000000000E+00 0.  1.
         21    1    1    2  505  503 -0.90118830108E+02  0.39940867927E+02 -0.29917244272E+02  0.10301319321E+03  0.00000000000E+00 0.  1.
         -4    1    1    2    0  502  0.83586582273E+02  0.86742292503E+00  0.24966413336E+03  0.26328624849E+03  0.00000000000E+00 0. -1.
<scales pt_clust_3="61.43232" pt_clust_4="14000.00000" pt_clust_5="85.41783" pt_clust_6="32.59594"></scales>
<clustering>
<clus scale="   61.432">  1  3  2 -1</clus>
<clus scale="   32.596">  1  6  2 -1</clus>
<clus scale="   85.418">  1  5  2 -1</clus>
<clus scale="   85.418">  2  3  1 -1</clus>
</clustering>
</event>
<event>
 6    0  0.3522959E+002  0.1235610E+03  0.7546771E-02  0.1237335E+00
          2   -1    0    0  504    0 -0.00000000000E+00  0.00000000000E+00  0.13952725996E+04  0.13952725996E+04  0.00000000000E+00 0.  1.
         21   -1    0    0  503  502  0.00000000000E+00 -0.00000000000E+00 -0.13646253136E+03  0.13646253136E+03  0.00000000000E+00 0.  1.
         21    1    1    2  503  501 -0.35993255195E+02  0.53606312156E+02 -0.90016496096E+02  0.11077960413E+03  0.00000000000E+00 0.  1.
         21    1    1    2  504  505 -0.65404398556E+02 -0.69854000488E+02  0.11492717661E+03  0.14955123757E+03  0.00000000000E+00 0. -1.
         21    1    1    2  505  502 -0.32697106817E+02  0.81834449261E+01  0.37183424709E+01  0.33910111115E+02  0.00000000000E+00 0. -1.
          2    1    1    2  501    0  0.13409476057E+03  0.80642434061E+01  0.12301810453E+04  0.12374941782E+04  0.00000000000E+00 0.  1.
<scales pt_clust_3="87.28946" pt_clust_4="123.56099" pt_clust_5="33.70563" pt_clust_6="14000.00000"></scales>
<clustering>
<clus scale="   33.706">  2  5  1 -1</clus>
<clus scale="   87.289">  2  3  1 -1</clus>
<clus scale="  123.561">  2  4  1 -1</clus>
<clus scale="   33.706">  2  3  1 -1</clus>
</clustering>
</event>
<event>
 6    0  0.3522959E+002  0.1161596E+03  0.7546771E-02  0.1249570E+00
          2   -1    0    0  504    0 -0.00000000000E+00  0.00000000000E+00  0.30041802179E+04  0.30041802179E+04  0.00000000000E+00 0.  1.
         21   -1    0    0  505  502  0.00000000000E+00 -0.00000000000E+00 -0.18278220399E+03  0.18278220399E+03  0.00000000000E+00 0. -1.
         21    1    1    2  503  502 -0.56041914802E+02  0.58360825062E+02 -0.79197493798E+02  0.11322069219E+03  0.00000000000E+00 0. -1.
         21    1    1    2  504  503 -0.42321969321E+02  0.12446211170E+02 -0.17052008659E+02  0.47295118765E+02  0.00000000000E+00 0. -1.
         21    1    1    2  505  501  0.27593027445E+02 -0.99163781427E+02 -0.47634182135E+01  0.10304135511E+03  0.00000000000E+00 0. -1.
          2    1    1    2  501    0  0.70770856678E+02  0.28356745195E+02  0.29224109346E+04  0.29234052558E+04  0.00000000000E+00 0.  1.
<scales pt_clust_3="31.43366" pt_clust_4="31.43366" pt_clust_5="108.07767" pt_clust_6="76.24053"></scales>
<clustering>
<clus scale="   31.434">  3  4 -1 -1</clus>
<clus scale="   76.241">  1  6  2 -1</clus>
<clus scale="  108.078">  1  5  2 -1</clus>
<clus scale="  116.160">  2  3  1 -1</clus>
</clustering>
</event>
<event>
 6    0  0.3522959E+002  0.5531730E+02  0.7546771E-02  0.1418604E+00
          1   -1    0    0  503    0 -0.00000000000E+00  0.00000000000E+00  0.54344928450E+03  0.54344928450E+03  0.00000000000E+00 0.  1.
         21   -1    0    0  505  502  0.00000000000E+00 -0.00000000000E+00 -0.38989787387E+03  0.38989787387E+03  0.00000000000E+00 0. -1.
         21    1    1    2  503  502  0.38962693607E+02  0.22671637194E+02 -0.18215093403E+03  0.18764609613E+03  0.00000000000E+00 0. -1.
         21    1    1    2  504  501  0.71130468278E+02  0.13300938125E+02 -0.18263939761E+02  0.74632633399E+02  0.00000000000E+00 0. -1.
         21    1    1    2  505  504 -0.59351059933E+02 -0.57555355422E+02 -0.14615419405E+03  0.16791728824E+03  0.00000000000E+00 0. -1.
          1    1    1    2  501    0 -0.50742101952E+02  0.21582780104E+02  0.50012047847E+03  0.50315114060E+03  0.00000000000E+00 0.  1.
<scales pt_clust_3="45.07876" pt_clust_4="14000.00000" pt_clust_5="49.85583" pt_clust_6="55.31730"></scales>
<clustering>
<clus scale="   45.079">  2  3  1 -1</clus>
<clus scale="   49.856">  2  5  1 -1</clus>
<clus scale="   55.317">  1  6  2 -1</clus>
<clus scale="   45.079">  2  3  1 -1</clus>
</clustering>
</event>
<event>
 6    0  0.3522959E+002  0.8013143E+02  0.7546771E-02  0.1328679E+00
         -2   -1    0    0    0  501 -0.00000000000E+00  0.00000000000E+00  0.61576681410E+02  0.61576681410E+02  0.00000000000E+00 0. -1.
         21   -1    0    0  503  502  0.00000000000E+00 -0.00000000000E+00 -0.15013761423E+04  0.15013761423E+04  0.00000000000E+00 0.  1.
         21    1    1    2  503  501 -0.47528530544E+02  0.57887583291E+01 -0.48447220986E+03  0.48683240757E+03  0.00000000000E+00 0.  1.
         21    1    1    2  504  502  0.16154242916E+02 -0.42737757497E+02 -0.47751028852E+03  0.47969109969E+03  0.00000000000E+00 0.  1.
         21    1    1    2  505  504  0.10379279660E+03  0.44962132231E+01 -0.50265237953E+03  0.51327631468E+03  0.00000000000E+00 0.  1.
         -2    1    1    2    0  505 -0.72418508974E+02  0.32452785945E+02  0.24835417052E+02  0.83153001737E+02  0.00000000000E+00 0. -1.
<scales pt_clust_3="42.41508" pt_clust_4="45.68890" pt_clust_5="14000.00000" pt_clust_6="80.13143"></scales>
<clustering>
<clus scale="   45.689">  2  4  1 -1</clus>
<clus scale="   42.415">  2  3  1 -1</clus>
<clus scale="   80.131">  1  6  2 -1</clus>
<clus scale="   45.689">  2  3  1 -1</clus>
</clustering>
</event>
<event>
 6    0  0.3522959E+002  0.7821459E+02  0.7546771E-02  0.1334196E+00
         21   -1    0    0  505  502  0.00000000000E+00  0.00000000000E+00  0.38572613675E+02  0.38572613675E+02  0.00000000000E+00 0.  1.
          2   -1    0    0  503    0 -0.00000000000E+00 -0.00000000000E+00 -0.20677514327E+04  0.20677514327E+04  0.00000000000E+00 0.  1.
         21    1    1    2  503  502  0.31656529738E+02 -0.27637890435E+01 -0.44764023866E+02  0.54896195110E+02  0.00000000000E+00 0.  1.
         21    1    1    2  504  501 -0.14394713308E+01 -0.12229938169E+03 -0.66677597839E+03  0.67790074214E+03  0.00000000000E+00 0.  1.
         21    1    1    2  505  504 -0.41088305575E+02  0.72652983171E+02 -0.36213181429E+02  0.90984060845E+02  0.00000000000E+00 0.  1.
          2    1    1    2  501    0  0.10871247168E+02  0.52410187564E+02 -0.12814256353E+04  0.12825430483E+04  0.00000000000E+00 0.  1.
<scales pt_clust_3="31.77695" pt_clust_4="78.21459" pt_clust_5="14000.00000" pt_clust_6="53.59047"></scales>
<clustering>
<clus scale="   31.777">  1  3  2 -1</clus>
<clus scale="   53.590">  2  6  1 -1</clus>
<clus scale="   78.215">  2  4  1 -1</clus>
<clus scale="   31.777">  1  3  2 -1</clus>
</clustering>
</event>
<event>
 6    0  0.3583788E+002  0.1475967E+03  0.7546771E-02  0.1203458E+00
          2   -1    0    0  503    0 -0.00000000000E+00  0.00000000000E+00  0.14284340851E+04  0.14284340851E+04  0.00000000000E+00 0. -1.
         21   -1    0    0  504  502  0.00000000000E+00 -0.00000000000E+00 -0.39726404864E+04  0.39726404864E+04  0.00000000000E+00 0. -1.
         21    1    1    2  503  502 -0.42578905899E+02 -0.13661494423E+03 -0.39375165044E+04  0.39401158395E+04  0.00000000000E+00 0. -1.
         21    1    1    2  504  505  0.30634822783E+02  0.36828840129E+02  0.43470080870E+01  0.48101479307E+02  0.00000000000E+00 0. -1.
         21    1    1    2  505  501  0.25452684728E+02  0.45472687212E+02  0.48382531018E+02  0.71108886575E+02  0.00000000000E+00 0.  1.
          2    1    1    2  501    0 -0.13508601613E+02  0.54313416886E+02  0.13405805640E+04  0.13417483662E+04  0.00000000000E+00 0. -1.
<scales pt_clust_3="142.38478" pt_clust_4="37.27398" pt_clust_5="37.27398" pt_clust_6="55.96811"></scales>
<clustering>
<clus scale="   37.274">  4  5 -1 -1</clus>
<clus scale="   55.968">  1  6  2 -1</clus>
<clus scale="  142.385">  2  3  1 -1</clus>
<clus scale="  142.385">  2  3  1 -1</clus>
</clustering>
</event>
<event>
 6    0  0.3522959E+002  0.7563170E+02  0.7546771E-02  0.1341926E+00
          1   -1    0    0  504    0 -0.00000000000E+00  0.00000000000E+00  0.10973847713E+04  0.10973847713E+04  0.00000000000E+00 0.  1.
         21   -1    0    0  505  502  0.00000000000E+00 -0.00000000000E+00 -0.31645326590E+02  0.31645326590E+02  0.00000000000E+00 0.  1.
         21    1    1    2  503  502  0.42551157624E+02  0.50778843484E+01  0.11389394935E+03  0.12168902014E+03  0.00000000000E+00 0. -1.
         21    1    1    2  504  503  0.49011177508E+02 -0.67944383705E+02  0.27636371187E+03  0.28878267960E+03  0.00000000000E+00 0.  1.
         21    1    1    2  505  501 -0.11627002448E+02  0.54011761011E+02  0.20924289096E+02  0.59078620394E+02  0.00000000000E+00 0.  1.
          1    1    1    2  501    0 -0.79935332683E+02  0.88547383451E+01  0.65455749442E+03  0.65947977778E+03  0.00000000000E+00 0.  1.
<scales pt_clust_3="42.85307" pt_clust_4="75.63170" pt_clust_5="60.14419" pt_clust_6="14000.00000"></scales>
<clustering>
<clus scale="   42.853">  2  3  1 -1</clus>
<clus scale="   60.144">  2  5  1 -1</clus>
<clus scale="   75.632">  2  4  1 -1</clus>
<clus scale="   42.853">  2  3  1 -1</clus>
</clustering>
</event>
<event>
 6    0  0.3522959E+002  0.1120273E+03  0.7546771E-02  0.1256861E+00
         21   -1    0    0  504  502  0.00000000000E+00  0.00000000000E+00  0.46677657441E+02  0.46677657441E+02  0.00000000000E+00 0. -1.
         -1   -1    0    0    0  501 -0.00000000000E+00 -0.00000000000E+00 -0.10798384093E+04  0.10798384093E+04  0.00000000000E+00 0. -1.
         21    1    1    2  503  502  0.52768988633E+02 -0.13746791166E+03 -0.20174907437E+03  0.24976925733E+03  0.00000000000E+00 0. -1.
         21    1    1    2  504  505 -0.55118908165E+01  0.37913089113E+02 -0.28436215979E+02  0.47711651047E+02  0.00000000000E+00 0. -1.
         21    1    1    2  505  501  0.52096145943E+02  0.72773714946E+02 -0.22822666312E+03  0.24514777537E+03  0.00000000000E+00 0. -1.
         -1    1    1    2    0  503 -0.99353243760E+02  0.26781107604E+02 -0.57474879842E+03  0.58388738303E+03  0.00000000000E+00 0. -1.
<scales pt_clust_3="14000.00000" pt_clust_4="38.31166" pt_clust_5="95.99929" pt_clust_6="112.02735"></scales>
<clustering>
<clus scale="   38.312">  1  4  2 -1</clus>
<clus scale="   95.999">  2  5  1 -1</clus>
<clus scale="  112.027">  2  6  1 -1</clus>
<clus scale="   38.312">  1  3  2 -1</clus>
</clustering>
</event>
<event>
 6    0  0.3522959E+002  0.9652746E+02  0.7546771E-02  0.1287772E+00
         21   -1    0    0  504  502  0.00000000000E+00  0.00000000000E+00  0.24844040156E+03  0.24844040156E+03  0.00000000000E+00 0. -1.
          2   -1    0    0  503    0 -0.00000000000E+00 -0.00000000000E+00 -0.27393786810E+04  0.27393786810E+04  0.00000000000E+00 0. -1.
         21    1    1    2  503  502  0.22457089186E+01  0.55315270062E+02 -0.30094939208E+02  0.63012123250E+02  0.00000000000E+00 0.  1.
         21    1    1    2  504  505  0.23301067544E+02  0.54176390701E+02  0.20993331128E+03  0.21805966212E+03  0.00000000000E+00 0. -1.
         21    1    1    2  505  501  0.57595369078E+02 -0.80081119142E+02 -0.12402419573E+03  0.15846833535E+03  0.00000000000E+00 0.  1.
          2    1    1    2  501    0 -0.83142145541E+02 -0.29410541620E+02 -0.25467524558E+04  0.25482789618E+04  0.00000000000E+00 0. -1.
<scales pt_clust_3="55.36084" pt_clust_4="96.52746" pt_clust_5="14000.00000" pt_clust_6="88.12318"></scales>
<clustering>
<clus scale="   55.361">  1  3  2 -1</clus>
<clus scale="   88.123">  2  6  1 -1</clus>
<clus scale="   96.527">  1  4  2 -1</clus>
<clus scale="   55.361">  1  3  2 -1</clus>
</clustering>
</event>
<event>
 6    0  0.3522959E+002  0.6177667E+02  0.7546771E-02  0.1390524E+00
         21   -1    0    0  505  502  0.00000000000E+00  0.00000000000E+00  0.24425347203E+04  0.24425347203E+04  0.00000000000E+00 0.  1.
         -2   -1    0    0    0  501 -0.00000000000E+00 -0.00000000000E+00 -0.15151538469E+03  0.15151538469E+03  0.00000000000E+00 0. -1.
         21    1    1    2  503  501 -0.31124148506E+02 -0.30585280870E+01  0.24714237710E+02  0.39860516302E+02  0.00000000000E+00 0.  1.
         21    1    1    2  504  502  0.63474611702E+01  0.54463144113E+02  0.12600985755E+04  0.12612909832E+04  0.00000000000E+00 0.  1.
         21    1    1    2  505  503 -0.61307373340E+02 -0.79118150660E+02  0.11328594599E+04  0.11372725407E+04  0.00000000000E+00 0.  1.
         -2    1    1    2    0  504  0.86084060675E+02  0.27713534633E+02 -0.12665293746E+03  0.15562606489E+03  0.00000000000E+00 0. -1.
<scales pt_clust_3="31.27407" pt_clust_4="54.80442" pt_clust_5="61.77667" pt_clust_6="14000.00000"></scales>
<clustering>
<clus scale="   31.274">  2  3  1 -1</clus>
<clus scale="   54.804">  1  4  2 -1</clus>
<clus scale="   61.777">  1  5  2 -1</clus>
<clus scale="   54.804">  1  3  2 -1</clus>
</clustering>
</event>
<event>
 6    0  0.3522959E+002  0.1203284E+03  0.7546771E-02  0.1242556E+00
         21   -1    0    0  505  502  0.00000000000E+00  0.00000000000E+00  0.55987675581E+02  0.55987675581E+02  0.00000000000E+00 0.  1.
          1   -1    0    0  503    0 -0.00000000000E+00 -0.00000000000E+00 -0.12617680509E+04  0.12617680509E+04  0.00000000000E+00 0. -1.
         21    1    1    2  503  504  0.10528245221E+03  0.12027785639E+03 -0.20244689518E+03  0.25794554241E+03  0.00000000000E+00 0.  1.
         21    1    1    2  504  502 -0.93013574456E+02 -0.27563373828E+02 -0.88346965892E+02  0.13121147432E+03  0.00000000000E+00 0.  1.
         21    1    1    2  505  501 -0.10434750419E+02 -0.43804537699E+02 -0.77121507396E+02  0.89305366257E+02  0.00000000000E+00 0. -1.
          1    1    1    2  501    0 -0.18341273388E+01 -0.48909944865E+02 -0.83786500683E+03  0.83929334347E+03  0.00000000000E+00 0. -1.
<scales pt_clust_3="14000.00000" pt_clust_4="120.32837" pt_clust_5="45.03023" pt_clust_6="49.57662"></scales>
<clustering>
<clus scale="   45.030">  1  5  2 -1</clus>
<clus scale="   49.577">  2  6  1 -1</clus>
<clus scale="  120.328">  1  4  2 -1</clus>
<clus scale="   45.030">  1  3  2 -1</clus>
</clustering>
</event>
<event>
 6    0  0.3522959E+002  0.1636710E+03  0.7546771E-02  0.1184613E+00
         21   -1    0    0  505  502  0.00000000000E+00  0.00000000000E+00  0.90388916571E+02  0.90388916571E+02  0.00000000000E+00 0.  1.
          2   -1    0    0  502    0 -0.00000000000E+00 -0.00000000000E+00 -0.14814359780E+04  0.14814359780E+04  0.00000000000E+00 0. -1.
         21    1    1    2  503  501  0.35285487133E+02 -0.16004050794E+03 -0.10671566335E+03  0.19556651705E+03  0.00000000000E+00 0. -1.
         21    1    1    2  504  503 -0.24116370774E+02  0.80802323081E+02 -0.19507890090E+02  0.86551559954E+02  0.00000000000E+00 0.  1.
         21    1    1    2  505  504 -0.47588355418E+02  0.38716618417E+02 -0.67767134481E+02  0.91411228133E+02  0.00000000000E+00 0.  1.
          2    1    1    2  501    0  0.36419239059E+02  0.40521566443E+02 -0.11970563735E+04  0.11982955894E+04  0.00000000000E+00 0. -1.
<scales pt_clust_3="148.86474" pt_clust_4="56.66629" pt_clust_5="56.66629" pt_clust_6="54.48264"></scales>
<clustering>
<clus scale="   54.483">  2  6  1 -1</clus>
<clus scale="   56.666">  4  5 -1 -1</clus>
<clus scale="  148.865">  2  3  1 -1</clus>
<clus scale="  163.671">  1  3  2 -1</clus>
</clustering>
</event>
<event>
 6    0  0.3522959E+002  0.1852174E+03  0.7546771E-02  0.1162847E+00
         21   -1    0    0  501  502  0.00000000000E+00  0.00000000000E+00  0.32776461092E+02  0.32776461092E+02  0.00000000000E+00 0.  1.
          2   -1    0    0  504    0 -0.00000000000E+00 -0.00000000000E+00 -0.14400646292E+04  0.14400646292E+04  0.00000000000E+00 0. -1.
         21    1    1    2  503  505  0.33202806455E+02 -0.11043463875E+02 -0.45631918881E+02  0.57503534427E+02  0.00000000000E+00 0.  1.
         21    1    1    2  504  503 -0.74825604209E+02  0.14179454626E+03 -0.68719378259E+03  0.70564853803E+03  0.00000000000E+00 0.  1.
         21    1    1    2  505  502  0.70828421536E+02 -0.13803782967E+03 -0.33828252401E+03  0.37216417583E+03  0.00000000000E+00 0.  1.
          2    1    1    2  501    0 -0.29205623782E+02  0.72867472864E+01 -0.33617994259E+03  0.33752484197E+03  0.00000000000E+00 0. -1.
<scales pt_clust_3="30.68853" pt_clust_4="173.57752" pt_clust_5="30.68853" pt_clust_6="30.10092"></scales>
<clustering>
<clus scale="   30.101">  2  6  1 -1</clus>
<clus scale="   30.689">  3  5 -1 -1</clus>
<clus scale="  173.578">  2  4  1 -1</clus>
<clus scale="  185.217">  1  3  2 -1</clus>
</clustering>
</event>
<event>
 6    0  0.3522959E+002  0.7695579E+02  0.7546771E-02  0.1337919E+00
          1   -1    0    0  504    0 -0.00000000000E+00  0.00000000000E+00  0.38019073019E+03  0.38019073019E+03  0.00000000000E+00 0.  1.
         21   -1    0    0  503  502  0.00000000000E+00 -0.00000000000E+00 -0.72105122463E+03  0.72105122463E+03  0.00000000000E+00 0. -1.
         21    1    1    2  503  501 -0.13129635802E+01 -0.53797905255E+02 -0.11983734903E+03  0.13136562985E+03  0.00000000000E+00 0. -1.
         21    1    1    2  504  505 -0.69654057015E+02  0.22754790631E+02 -0.13892044699E+03  0.15706163996E+03  0.00000000000E+00 0. -1.
         21    1    1    2  505  502  0.65908529865E+02  0.73383726799E+02 -0.44074449518E+03  0.45164678201E+03  0.00000000000E+00 0. -1.
          1    1    1    2  501    0  0.50584907304E+01 -0.42340612175E+02  0.35864179677E+03  0.36116790300E+03  0.00000000000E+00 0.  1.
<scales pt_clust_3="65.82891" pt_clust_4="14000.00000" pt_clust_5="76.95579" pt_clust_6="42.64171"></scales>
<clustering>
<clus scale="   42.642">  1  6  2 -1</clus>
<clus scale="   65.829">  1  3  2 -1</clus>
<clus scale="   76.956">  2  5  1 -1</clus>
<clus scale="   76.956">  2  3  1 -1</clus>
</clustering>
</event>
<event>
 6    0  0.3522959E+002  0.2007169E+03  0.7546771E-02  0.1149136E+00
          2   -1    0    0  504    0 -0.00000000000E+00  0.00000000000E+00  0.29513935409E+04  0.29513935409E+04  0.00000000000E+00 0. -1.
         21   -1    0    0  505  502  0.00000000000E+00 -0.00000000000E+00 -0.12696137327E+04  0.12696137327E+04  0.00000000000E+00 0.  1.
         21    1    1    2  503  502 -0.67485201918E+02 -0.18424176897E+01 -0.52414317787E+03  0.52847300583E+03  0.00000000000E+00 0.  1.
         21    1    1    2  504  503 -0.11058859356E+03  0.49477131780E+02 -0.73492532226E+03  0.74484431454E+03  0.00000000000E+00 0.  1.
         21    1    1    2  505  501  0.73678904433E+02  0.13245737736E+02  0.82347696231E+03  0.82687262501E+03  0.00000000000E+00 0. -1.
          2    1    1    2  501    0  0.10439489104E+03 -0.60880451827E+02  0.21173713460E+04  0.21208173282E+04  0.00000000000E+00 0. -1.
<scales pt_clust_3="34.24206" pt_clust_4="189.95660" pt_clust_5="62.50946" pt_clust_6="62.50946"></scales>
<clustering>
<clus scale="   34.242">  3  4 -1 -1</clus>
<clus scale="   62.509">  5  6 -1 -1</clus>
<clus scale="  189.957">  2  3  1 -1</clus>
<clus scale="  189.957">  2  3  1 -1</clus>
</clustering>
</event>
<event>
 6    0  0.3522959E+002  0.8823503E+02  0.7546771E-02  0.1307183E+00
          2   -1    0    0  503    0 -0.00000000000E+00  0.00000000000E+00  0.75926730929E+03  0.75926730929E+03  0.00000000000E+00 0.  1.
         21   -1    0    0  504  502  0.00000000000E+00 -0.00000000000E+00 -0.38259516719E+03  0.38259516719E+03  0.00000000000E+00 0.  1.
         21    1    1    2  503  505 -0.97020329856E+01  0.13791008570E+03  0.13604806564E+03  0.19396493845E+03  0.00000000000E+00 0. -1.
         21    1    1    2  504  501  0.76753995215E+02 -0.78135166786E+02 -0.16894782485E+03  0.20134459911E+03  0.00000000000E+00 0.  1.
         21    1    1    2  505  502 -0.45086406183E+02  0.20957358816E+02 -0.16170798421E+03  0.16917880206E+03  0.00000000000E+00 0. -1.
          2    1    1    2  501    0 -0.21965556046E+02 -0.80732277733E+02  0.57127988551E+03  0.57737413685E+03  0.00000000000E+00 0.  1.
<scales pt_clust_3="88.23503" pt_clust_4="71.41387" pt_clust_5="49.71916" pt_clust_6="14000.00000"></scales>
<clustering>
<clus scale="   49.719">  2  5  1 -1</clus>
<clus scale="   71.414">  2  4  1 -1</clus>
<clus scale="   88.235">  2  3  1 -1</clus>
<clus scale="   49.719">  2  3  1 -1</clus>
</clustering>
</event>
<event>
 6    0  0.3522959E+002  0.1031902E+03  0.7546771E-02  0.1273727E+00
         21   -1    0    0  503  502  0.00000000000E+00  0.00000000000E+00  0.37858317300E+03  0.37858317300E+03  0.00000000000E+00 0.  1.
          1   -1    0    0  505    0 -0.00000000000E+00 -0.00000000000E+00 -0.32691275305E+04  0.32691275305E+04  0.00000000000E+00 0.  1.
         21    1    1    2  503  501 -0.91165341145E+02  0.11458850739E+02 -0.25070748766E+03  0.26701436114E+03  0.00000000000E+00 0. -1.
         21    1    1    2  504  502  0.42430949496E+02  0.13584477128E+02  0.15032027189E+03  0.15678363319E+03  0.00000000000E+00 0.  1.
         21    1    1    2  505  504  0.41711894161E+02 -0.77852781124E+02  0.20763897221E+03  0.22564325920E+03  0.00000000000E+00 0.  1.
          1    1    1    2  501    0  0.70224974888E+01  0.52809453257E+02 -0.29977961140E+04  0.29982694500E+04  0.00000000000E+00 0.  1.
<scales pt_clust_3="103.19022" pt_clust_4="44.55248" pt_clust_5="14000.00000" pt_clust_6="53.29439"></scales>
<clustering>
<clus scale="   44.552">  1  4  2 -1</clus>
<clus scale="   53.294">  2  6  1 -1</clus>
<clus scale="  103.190">  2  3  1 -1</clus>
<clus scale="   44.552">  1  3  2 -1</clus>
</clustering>
</event>
<event>
 6    0  0.3522959E+002  0.2104159E+03  0.7546771E-02  0.1141237E+00
         21   -1    0    0  501  502  0.00000000000E+00  0.00000000000E+00  0.43026307097E+03  0.43026307097E+03  0.00000000000E+00 0.  1.
          1   -1    0    0  504    0 -0.00000000000E+00 -0.00000000000E+00 -0.15031979779E+04  0.15031979779E+04  0.00000000000E+00 0. -1.
         21    1    1    2  503  502 -0.60089894182E+02 -0.19973066220E+03  0.33295989284E+03  0.39289365361E+03  0.00000000000E+00 0.  1.
         21    1    1    2  504  505  0.29395127332E+02 -0.19838955158E+02 -0.70522970701E+02  0.78937614919E+02  0.00000000000E+00 0. -1.
         21    1    1    2  505  503 -0.90688716044E+01  0.23485314465E+03 -0.15734982678E+03  0.28283778384E+03  0.00000000000E+00 0. -1.
          1    1    1    2  501    0  0.39763638454E+02 -0.15283527287E+02 -0.11780220022E+04  0.11787919965E+04  0.00000000000E+00 0. -1.
<scales pt_clust_3="210.41588" pt_clust_4="35.46347" pt_clust_5="14000.00000" pt_clust_6="71.40980"></scales>
<clustering>
<clus scale="   35.463">  2  4  1 -1</clus>
<clus scale="   71.410">  2  6  1 -1</clus>
<clus scale="  210.416">  1  3  2 -1</clus>
<clus scale="  210.416">  1  3  2 -1</clus>
</clustering>
</event>
<event>
 6    0  0.3522959E+002  0.7221301E+02  0.7546771E-02  0.1352725E+00
         21   -1    0    0  503  502  0.00000000000E+00  0.00000000000E+00  0.52241566347E+03  0.52241566347E+03  0.00000000000E+00 0.  1.
          3   -1    0    0  505    0 -0.00000000000E+00 -0.00000000000E+00 -0.24321128167E+03  0.24321128167E+03  0.00000000000E+00 0.  1.
         21    1    1    2  503  504  0.49594900357E+02  0.12322573492E+03  0.40901191554E+03  0.43004067591E+03  0.00000000000E+00 0.  1.
         21    1    1    2  504  501 -0.28976226455E+02 -0.36844089367E+02 -0.20489986257E+02  0.51156115545E+02  0.00000000000E+00 0. -1.
         21    1    1    2  505  502 -0.37134413457E+01 -0.58678759937E+02  0.76114812276E+02  0.96179265760E+02  0.00000000000E+00 0.  1.
          3    1    1    2  501    0 -0.16905232557E+02 -0.27702885615E+02 -0.18543235976E+03  0.18825088793E+03  0.00000000000E+00 0.  1.
<scales pt_clust_3="14000.00000" pt_clust_4="72.21301" pt_clust_5="63.96330" pt_clust_6="32.45361"></scales>
<clustering>
<clus scale="   32.454">  2  6  1 -1</clus>
<clus scale="   63.963">  1  5  2 -1</clus>
<clus scale="   72.213">  2  4  1 -1</clus>
<clus scale="   63.963">  1  3  2 -1</clus>
</clustering>
</event>
<event>
 6    0  0.3522959E+002  0.7108083E+02  0.7546771E-02  0.1356456E+00
         21   -1    0    0  503  502  0.00000000000E+00  0.00000000000E+00  0.48163102436E+02  0.48163102436E+02  0.00000000000E+00 0. -1.
          2   -1    0    0  505    0 -0.00000000000E+00 -0.00000000000E+00 -0.91076985512E+03  0.91076985512E+03  0.00000000000E+00 0. -1.
         21    1    1    2  503  501 -0.10309320197E+02 -0.41277214363E+02 -0.51555648072E+02  0.66843663549E+02  0.00000000000E+00 0. -1.
         21    1    1    2  504  502  0.31805204118E+02 -0.79920807948E+01 -0.11806416338E+02  0.34854495135E+02  0.00000000000E+00 0. -1.
         21    1    1    2  505  504  0.22176127697E+02  0.10345842113E+03 -0.75095371818E+02  0.12974875880E+03  0.00000000000E+00 0. -1.
          2    1    1    2  501    0 -0.43672011618E+02 -0.54189125971E+02 -0.72414931646E+03  0.72748604007E+03  0.00000000000E+00 0. -1.
<scales pt_clust_3="43.10146" pt_clust_4="32.79397" pt_clust_5="71.08083" pt_clust_6="14000.00000"></scales>
<clustering>
<clus scale="   32.794">  1  4  2 -1</clus>
<clus scale="   43.101">  1  3  2 -1</clus>
<clus scale="   71.081">  1  5  2 -1</clus>
<clus scale="   32.794">  1  3  2 -1</clus>
</clustering>
</event>
<event>
 6    0  0.3522959E+002  0.1247445E+03  0.7546771E-02  0.1235469E+00
          2   -1    0    0  505    0 -0.00000000000E+00  0.00000000000E+00  0.11542446599E+04  0.11542446599E+04  0.00000000000E+00 0. -1.
         21   -1    0    0  504  502  0.00000000000E+00 -0.00000000000E+00 -0.37072360394E+03  0.37072360394E+03  0.00000000000E+00 0. -1.
         21    1    1    2  503  502 -0.54766621527E+02 -0.47590696725E+01 -0.17086257093E+03  0.17948829969E+03  0.00000000000E+00 0. -1.
         21    1    1    2  504  501  0.10537619741E+02  0.31215529442E+02 -0.12616150823E+03  0.13039239574E+03  0.00000000000E+00 0.  1.
         21    1    1    2  505  503  0.14747923112E+03 -0.91401659410E+02  0.54567620946E+02  0.18188461235E+03  0.00000000000E+00 0.  1.
          2    1    1    2  501    0 -0.10325022934E+03  0.64945199641E+02  0.10259775142E+04  0.10332029561E+04  0.00000000000E+00 0. -1.
<scales pt_clust_3="50.39900" pt_clust_4="32.94618" pt_clust_5="124.74451" pt_clust_6="14000.00000"></scales>
<clustering>
<clus scale="   32.946">  2  4  1 -1</clus>
<clus scale="   50.399">  2  3  1 -1</clus>
<clus scale="  124.745">  2  5  1 -1</clus>
<clus scale="   32.946">  2  3  1 -1</clus>
</clustering>
</event>
<event>
 6    0  0.3522959E+002  0.1063547E+03  0.7546771E-02  0.1267473E+00
          2   -1    0    0  503    0 -0.00000000000E+00  0.00000000000E+00  0.48237292980E+04  0.48237292980E+04  0.00000000000E+00 0. -1.
         21   -1    0    0  504  502  0.00000000000E+00 -0.00000000000E+00 -0.80722611208E+03  0.80722611208E+03  0.00000000000E+00 0. -1.
         21    1    1    2  503  505  0.68769011412E+02 -0.64596501683E+02  0.20857149783E+04  0.20878479005E+04  0.00000000000E+00 0.  1.
         21    1    1    2  504  501  0.96850610006E+01  0.55647853343E+02 -0.62187266681E+03  0.62443262064E+03  0.00000000000E+00 0. -1.
         21    1    1    2  505  502 -0.68306776468E+01  0.50999684866E+02 -0.17874641988E+03  0.18600513066E+03  0.00000000000E+00 0. -1.
          2    1    1    2  501    0 -0.71623394766E+02 -0.42051036526E+02  0.27314072943E+04  0.27326697583E+04  0.00000000000E+00 0. -1.
<scales pt_clust_3="14000.00000" pt_clust_4="106.35467" pt_clust_5="51.45509" pt_clust_6="83.03528"></scales>
<clustering>
<clus scale="   51.455">  2  5  1 -1</clus>
<clus scale="   83.035">  1  6  2 -1</clus>
<clus scale="  106.355">  2  4  1 -1</clus>
<clus scale="   51.455">  2  3  1 -1</clus>
</clustering>
</event>
<event>
 6    0  0.3522959E+002  0.2330180E+03  0.7546771E-02  0.1124533E+00
         21   -1    0    0  503  502  0.00000000000E+00  0.00000000000E+00  0.20635764885E+03  0.20635764885E+03  0.00000000000E+00 0.  1.
          2   -1    0    0  505    0 -0.00000000000E+00 -0.00000000000E+00 -0.16083700009E+04  0.16083700009E+04  0.00000000000E+00 0.  1.
         21    1    1    2  503  504 -0.55416565816E+02  0.15677005161E+02 -0.62793719706E+02  0.85204550889E+02  0.00000000000E+00 0.  1.
         21    1    1    2  504  501  0.78253832057E+02  0.81615354946E+02 -0.62914834576E+03  0.63922794789E+03  0.00000000000E+00 0.  1.
         21    1    1    2  505  502 -0.14238889819E+03 -0.85438652840E+02  0.14885596973E+03  0.22300776097E+03  0.00000000000E+00 0.  1.
          2    1    1    2  501    0  0.11955163195E+03 -0.11853707267E+02 -0.85892625629E+03  0.86728738998E+03  0.00000000000E+00 0.  1.
<scales pt_clust_3="57.59136" pt_clust_4="103.00882" pt_clust_5="207.52981" pt_clust_6="103.00882"></scales>
<clustering>
<clus scale="   57.591">  1  3  2 -1</clus>
<clus scale="  103.009">  4  6 -1 -1</clus>
<clus scale="  207.530">  1  5  2 -1</clus>
<clus scale="   57.591">  1  3  2 -1</clus>
</clustering>
</event>
<event>
 6    0  0.3522959E+002  0.5733733E+02  0.7546771E-02  0.1409358E+00
          1   -1    0    0  505    0 -0.00000000000E+00  0.00000000000E+00  0.56650298426E+03  0.56650298426E+03  0.00000000000E+00 0.  1.
         21   -1    0    0  503  502  0.00000000000E+00 -0.00000000000E+00 -0.16393731497E+03  0.16393731497E+03  0.00000000000E+00 0.  1.
         21    1    1    2  503  501  0.69123984141E+02  0.40825243657E+02 -0.11643418458E+03  0.14142752576E+03  0.00000000000E+00 0.  1.
         21    1    1    2  504  502 -0.22105773111E+01 -0.54400791849E+02  0.35293552806E+02  0.64884263697E+02  0.00000000000E+00 0. -1.
         21    1    1    2  505  504 -0.37331811585E+02 -0.42840092911E+02  0.44702330626E+03  0.45062043236E+03  0.00000000000E+00 0.  1.
          1    1    1    2  501    0 -0.29581595245E+02  0.56415641102E+02  0.36682994797E+02  0.73508077417E+02  0.00000000000E+00 0.  1.
<scales pt_clust_3="55.91068" pt_clust_4="54.44569" pt_clust_5="57.33733" pt_clust_6="14000.00000"></scales>
<clustering>
<clus scale="   54.446">  2  4  1 -1</clus>
<clus scale="   57.337">  1  5  2 -1</clus>
<clus scale="   55.911">  2  3  1 -1</clus>
<clus scale="   54.446">  2  3  1 -1</clus>
</clustering>
</event>
<event>
 6    0  0.3522959E+002  0.7592917E+02  0.7546771E-02  0.1341018E+00
          2   -1    0    0  505    0 -0.00000000000E+00  0.00000000000E+00  0.54670404784E+03  0.54670404784E+03  0.00000000000E+00 0. -1.
         21   -1    0    0  503  502  0.00000000000E+00 -0.00000000000E+00 -0.46687145375E+03  0.46687145375E+03  0.00000000000E+00 0. -1.
         21    1    1    2  503  504 -0.35888485470E+02  0.30953456323E+02 -0.34876263838E+03  0.35196800675E+03  0.00000000000E+00 0. -1.
         21    1    1    2  504  501  0.49923538057E+02  0.36943518902E+02 -0.75340873454E+02  0.97639287450E+02  0.00000000000E+00 0.  1.
         21    1    1    2  505  502 -0.81236845008E+02 -0.28223653466E+02  0.42405684518E+02  0.95886608457E+02  0.00000000000E+00 0.  1.
          2    1    1    2  501    0  0.67201792421E+02 -0.39673321760E+02  0.46153042141E+03  0.46808159892E+03  0.00000000000E+00 0. -1.
<scales pt_clust_3="47.39304" pt_clust_4="64.28603" pt_clust_5="14000.00000" pt_clust_6="75.92917"></scales>
<clustering>
<clus scale="   47.393">  2  3  1 -1</clus>
<clus scale="   64.286">  2  4  1 -1</clus>
<clus scale="   75.929">  1  6  2 -1</clus>
<clus scale="   47.393">  2  3  1 -1</clus>
</clustering>
</event>
<event>
 6    0  0.3522959E+002  0.7656494E+02  0.7546771E-02  0.1339092E+00
          2   -1    0    0  505    0 -0.00000000000E+00  0.00000000000E+00  0.18443154097E+04  0.18443154097E+04  0.00000000000E+00 0.  1.
         21   -1    0    0  503  502  0.00000000000E+00 -0.00000000000E+00 -0.27402004755E+03  0.27402004755E+03  0.00000000000E+00 0. -1.
         21    1    1    2  503  501  0.11925941394E+03  0.35600971945E+02 -0.11848571532E+03  0.17184033797E+03  0.00000000000E+00 0. -1.
         21    1    1    2  504  502 -0.46167913575E+02 -0.53097100391E+02 -0.11002594135E+03  0.13060048270E+03  0.00000000000E+00 0. -1.
         21    1    1    2  505  504 -0.35685346147E+02 -0.32102089399E+02  0.64121744371E+02  0.80097354354E+02  0.00000000000E+00 0. -1.
          2    1    1    2  501    0 -0.37406154220E+02  0.49598217846E+02  0.17346852744E+04  0.17357972822E+04  0.00000000000E+00 0.  1.
<scales pt_clust_3="14000.00000" pt_clust_4="70.63832" pt_clust_5="47.99988" pt_clust_6="76.56494"></scales>
<clustering>
<clus scale="   48.000">  1  5  2 -1</clus>
<clus scale="   70.638">  2  4  1 -1</clus>
<clus scale="   76.565">  1  6  2 -1</clus>
<clus scale="   70.638">  2  3  1 -1</clus>
</clustering>
</event>
<event>
 6    0  0.3522959E+002  0.2463835E+03  0.7546771E-02  0.1115612E+00
         21   -1    0    0  505  502  0.00000000000E+00  0.00000000000E+00  0.97754427710E+03  0.97754427710E+03  0.00000000000E+00 0. -1.
          2   -1    0    0  504    0 -0.00000000000E+00 -0.00000000000E+00 -0.14150770617E+03  0.14150770617E+03  0.00000000000E+00 0. -1.
         21    1    1    2  503  502 -0.18792215866E+02 -0.76533655967E+02  0.83100883634E+02  0.11452643683E+03  0.00000000000E+00 0.  1.
         21    1    1    2  504  503 -0.54812602426E+02 -0.11161996730E+03  0.27677627246E+03  0.30342798731E+03  0.00000000000E+00 0. -1.
         21    1    1    2  505  501  0.19156822182E+03  0.22404114636E+03  0.49523908050E+03  0.57632852240E+03  0.00000000000E+00 0. -1.
          2    1    1    2  501    0 -0.11796340353E+03 -0.35887523086E+02 -0.19079665664E+02  0.12476903674E+03  0.00000000000E+00 0. -1.
<scales pt_clust_3="52.53442" pt_clust_4="52.53442" pt_clust_5="237.38148" pt_clust_6="123.30158"></scales>
<clustering>
<clus scale="   52.534">  3  4 -1 -1</clus>
<clus scale="  123.302">  2  6  1 -1</clus>
<clus scale="  237.381">  2  5  1 -1</clus>
<clus scale="  246.384">  1  3  2 -1</clus>
</clustering>
</event>
<event>
 6    0  0.3522959E+002  0.1243719E+03  0.7546771E-02  0.1236054E+00
         21   -1    0    0  501  502  0.00000000000E+00  0.00000000000E+00  0.95926956709E+02  0.95926956709E+02  0.00000000000E+00 0.  1.
          4   -1    0    0  505    0 -0.00000000000E+00 -0.00000000000E+00 -0.63682980783E+03  0.63682980783E+03  0.00000000000E+00 0.  1.
         21    1    1    2  503  502 -0.12229594413E+03 -0.34186300233E+02  0.13784986924E+02  0.12773028983E+03  0.00000000000E+00 0.  1.
         21    1    1    2  504  503  0.56862653094E+02  0.17070170302E+02 -0.68078791603E+02  0.90329806250E+02  0.00000000000E+00 0.  1.
         21    1    1    2  505  504  0.35732208300E+02  0.35814834411E+02 -0.34517889085E+02  0.61245226270E+02  0.00000000000E+00 0.  1.
          4    1    1    2  501    0  0.29701082741E+02 -0.18698704480E+02 -0.45209115736E+03  0.45345144219E+03  0.00000000000E+00 0.  1.
<scales pt_clust_3="119.95871" pt_clust_4="30.31252" pt_clust_5="30.31252" pt_clust_6="35.09695"></scales>
<clustering>
<clus scale="   30.313">  4  5 -1 -1</clus>
<clus scale="   35.097">  2  6  1 -1</clus>
<clus scale="  119.959">  1  3  2 -1</clus>
<clus scale="  119.959">  1  3  2 -1</clus>
</clustering>
</event>
<event>
 6    0  0.3522959E+002  0.8572068E+02  0.7546771E-02  0.1313559E+00
          2   -1    0    0  503    0 -0.00000000000E+00  0.00000000000E+00  0.93157773174E+03  0.93157773174E+03  0.00000000000E+00 0. -1.
         21   -1    0    0  505  502  0.00000000000E+00 -0.00000000000E+00 -0.41713946978E+02  0.41713946978E+02  0.00000000000E+00 0.  1.
         21    1    1    2  503  502 -0.36275118726E+02  0.83135043852E+02  0.57760582173E+03  0.58468436361E+03  0.00000000000E+00 0. -1.
         21    1    1    2  504  501 -0.13893888429E+02 -0.65311143139E+02  0.17669492973E+02  0.69070952909E+02  0.00000000000E+00 0.  1.
         21    1    1    2  505  504 -0.27963903164E+02 -0.25162041393E+02  0.49382676208E+02  0.62078634945E+02  0.00000000000E+00 0.  1.
          2    1    1    2  501    0  0.78132910319E+02  0.73381406801E+01  0.24520579385E+03  0.25745772725E+03  0.00000000000E+00 0. -1.
<scales pt_clust_3="85.72068" pt_clust_4="14000.00000" pt_clust_5="37.61792" pt_clust_6="73.34965"></scales>
<clustering>
<clus scale="   37.618">  2  5  1 -1</clus>
<clus scale="   73.350">  1  6  2 -1</clus>
<clus scale="   85.721">  1  3  2 -1</clus>
<clus scale="   37.618">  2  3  1 -1</clus>
</clustering>
</event>
<event>
 6    0  0.3522959E+002  0.1525016E+03  0.7546771E-02  0.1197432E+00
         21   -1    0    0  505  502  0.00000000000E+00  0.00000000000E+00  0.74985012204E+03  0.74985012204E+03  0.00000000000E+00 0. -1.
          1   -1    0    0  503    0 -0.00000000000E+00 -0.00000000000E+00 -0.10376304672E+04  0.10376304672E+04  0.00000000000E+00 0. -1.
         21    1    1    2  503  502 -0.43225121823E+02 -0.18181099958E+01  0.11826701024E+03  0.12593173703E+03  0.00000000000E+00 0.  1.
         21    1    1    2  504  501  0.19756188720E+02  0.11684297461E+03 -0.33176773653E+03  0.35229592491E+03  0.00000000000E+00 0.  1.
         21    1    1    2  505  504 -0.54499324481E+02 -0.11862231469E+03  0.60833833461E+03  0.62218723811E+03  0.00000000000E+00 0. -1.
          1    1    1    2  501    0  0.77968257585E+02  0.35974500737E+01 -0.68261795345E+03  0.68706568915E+03  0.00000000000E+00 0. -1.
<scales pt_clust_3="43.26334" pt_clust_4="14000.00000" pt_clust_5="152.50158" pt_clust_6="77.89794"></scales>
<clustering>
<clus scale="   43.263">  1  3  2 -1</clus>
<clus scale="   77.898">  2  6  1 -1</clus>
<clus scale="  152.502">  1  5  2 -1</clus>
<clus scale="   43.263">  1  3  2 -1</clus>
</clustering>
</event>
<event>
 6    0  0.3522959E+002  0.1370002E+03  0.7546771E-02  0.1217423E+00
          2   -1    0    0  505    0 -0.00000000000E+00  0.00000000000E+00  0.45834088134E+02  0.45834088134E+02  0.00000000000E+00 0.  1.
         21   -1    0    0  504  502  0.00000000000E+00 -0.00000000000E+00 -0.18041407628E+04  0.18041407628E+04  0.00000000000E+00 0.  1.
         21    1    1    2  503  502  0.33310726681E+02 -0.15663713003E+03 -0.14444072773E+04  0.14532574368E+04  0.00000000000E+00 0.  1.
         21    1    1    2  504  501 -0.58606943480E+02  0.76890439539E+02 -0.24785544604E+03  0.26604367245E+03  0.00000000000E+00 0.  1.
         21    1    1    2  505  503  0.32850388558E+02  0.45123258399E+02 -0.75598710494E+02  0.93970322471E+02  0.00000000000E+00 0.  1.
          2    1    1    2  501    0 -0.75541717595E+01  0.34623432092E+02  0.95547591224E+01  0.36703419223E+02  0.00000000000E+00 0.  1.
<scales pt_clust_3="137.00021" pt_clust_4="14000.00000" pt_clust_5="66.21299" pt_clust_6="35.43794"></scales>
<clustering>
<clus scale="   35.438">  1  6  2 -1</clus>
<clus scale="   66.213">  1  5  2 -1</clus>
<clus scale="  137.000">  2  3  1 -1</clus>
<clus scale="  137.000">  2  3  1 -1</clus>
</clustering>
</event>
<event>
 6    0  0.3522959E+002  0.1187323E+03  0.7546771E-02  0.1245203E+00
         -2   -1    0    0    0  501 -0.00000000000E+00  0.00000000000E+00  0.37646216835E+03  0.37646216835E+03  0.00000000000E+00 0.  1.
         21   -1    0    0  505  502  0.00000000000E+00 -0.00000000000E+00 -0.10223790344E+03  0.10223790344E+03  0.00000000000E+00 0.  1.
         21    1    1    2  503  501  0.85102329194E+02  0.41000786833E+01  0.31092461000E+02  0.90697068368E+02  0.00000000000E+00 0.  1.
         21    1    1    2  504  502  0.67565644931E+01 -0.33116989344E+02  0.22353158257E+02  0.40522214044E+02  0.00000000000E+00 0. -1.
         21    1    1    2  505  503  0.45669701598E+02  0.27619083921E+01 -0.33838338355E+02  0.56906791552E+02  0.00000000000E+00 0.  1.
         -2    1    1    2    0  504 -0.13752859529E+03  0.26255002269E+02  0.25461698401E+03  0.29057399782E+03  0.00000000000E+00 0.  1.
<scales pt_clust_3="14000.00000" pt_clust_4="33.79920" pt_clust_5="50.75295" pt_clust_6="118.73235"></scales>
<clustering>
<clus scale="   33.799">  2  4  1 -1</clus>
<clus scale="   50.753">  2  5  1 -1</clus>
<clus scale="  118.732">  1  6  2 -1</clus>
<clus scale="   33.799">  2  3  1 -1</clus>
</clustering>
</event>
<event>
 6    0  0.3522959E+002  0.1100729E+03  0.7546771E-02  0.1260435E+00
         -2   -1    0    0    0  501 -0.00000000000E+00  0.00000000000E+00  0.24130772662E+02  0.24130772662E+02  0.00000000000E+00 0. -1.
         21   -1    0    0  505  502  0.00000000000E+00 -0.00000000000E+00 -0.17626104618E+04  0.17626104618E+04  0.00000000000E+00 0. -1.
         21    1    1    2  503  502 -0.21019565382E+02 -0.94544518839E+02 -0.60900233057E+03  0.61665576038E+03  0.00000000000E+00 0. -1.
         21    1    1    2  504  501  0.48852997489E+02 -0.42392371689E+02 -0.25526148290E+03  0.26332898282E+03  0.00000000000E+00 0. -1.
         21    1    1    2  505  504  0.42274829073E+02  0.12205172696E+03 -0.76694499378E+03  0.77774572240E+03  0.00000000000E+00 0. -1.
         -2    1    1    2    0  503 -0.70108261180E+02  0.14885163564E+02 -0.10727088187E+03  0.12901076884E+03  0.00000000000E+00 0. -1.
<scales pt_clust_3="14000.00000" pt_clust_4="64.68175" pt_clust_5="110.07288" pt_clust_6="44.41935"></scales>
<clustering>
<clus scale="   64.682">  1  4  2 -1</clus>
<clus scale="   44.419">  1  6  2 -1</clus>
<clus scale="  110.073">  1  5  2 -1</clus>
<clus scale="  110.073">  2  3  1 -1</clus>
</clustering>
</event>
<event>
 6    0  0.3522959E+002  0.1164186E+03  0.7546771E-02  0.1249125E+00
          2   -1    0    0  503    0 -0.00000000000E+00  0.00000000000E+00  0.96738186586E+03  0.96738186586E+03  0.00000000000E+00 0. -1.
         21   -1    0    0  504  502  0.00000000000E+00 -0.00000000000E+00 -0.88170115499E+03  0.88170115499E+03  0.00000000000E+00 0.  1.
         21    1    1    2  503  505  0.11263896767E+03 -0.66965159906E-02  0.47226692290E+01  0.11273792923E+03  0.00000000000E+00 0. -1.
         21    1    1    2  504  501 -0.10909258366E+03  0.18336332981E+02 -0.69181769469E+03  0.70060626290E+03  0.00000000000E+00 0.  1.
         21    1    1    2  505  502 -0.34793015869E+01 -0.60795702442E+02 -0.12390114071E+03  0.13805692900E+03  0.00000000000E+00 0.  1.
          2    1    1    2  501    0 -0.67082419886E-01  0.42466065977E+02  0.89667687704E+03  0.89768189972E+03  0.00000000000E+00 0. -1.
<scales pt_clust_3="14000.00000" pt_clust_4="116.41859" pt_clust_5="56.62164" pt_clust_6="42.46612"></scales>
<clustering>
<clus scale="   42.466">  1  6  2 -1</clus>
<clus scale="   56.622">  2  5  1 -1</clus>
<clus scale="  116.419">  2  4  1 -1</clus>
<clus scale="   56.622">  2  3  1 -1</clus>
</clustering>
</event>
<event>
 6    0  0.3522959E+002  0.9586987E+02  0.7546771E-02  0.1289229E+00
         -1   -1    0    0    0  501 -0.00000000000E+00  0.00000000000E+00  0.60387453400E+03  0.60387453400E+03  0.00000000000E+00 0.  1.
         21   -1    0    0  503  502  0.00000000000E+00 -0.00000000000E+00 -0.60852346410E+03  0.60852346410E+03  0.00000000000E+00 0. -1.
         21    1    1    2  503  504 -0.91667892941E+02 -0.27567887426E+02 -0.34082524889E+03  0.35401248748E+03  0.00000000000E+00 0. -1.
         21    1    1    2  504  501  0.10830161943E+03 -0.77191809305E+02 -0.10858786911E+03  0.17169490823E+03  0.00000000000E+00 0. -1.
         21    1    1    2  505  502  0.65630931768E+01  0.50345001936E+02 -0.11400496375E+03  0.12479913931E+03  0.00000000000E+00 0. -1.
         -1    1    1    2    0  505 -0.23196819661E+02  0.54414694795E+02  0.55876915164E+03  0.56189146308E+03  0.00000000000E+00 0.  1.
<scales pt_clust_3="95.86987" pt_clust_4="14000.00000" pt_clust_5="50.77099" pt_clust_6="59.29244"></scales>
<clustering>
<clus scale="   50.771">  2  5  1 -1</clus>
<clus scale="   59.292">  1  6  2 -1</clus>
<clus scale="   95.870">  2  3  1 -1</clus>
<clus scale="   50.771">  2  3  1 -1</clus>
</clustering>
</event>
<event>
 6    0  0.3522959E+002  0.6145030E+02  0.7546771E-02  0.1391844E+00
         21   -1    0    0  504  502  0.00000000000E+00  0.00000000000E+00  0.17028371053E+03  0.17028371053E+03  0.00000000000E+00 0. -1.
         -4   -1    0    0    0  501 -0.00000000000E+00 -0.00000000000E+00 -0.52465166320E+03  0.52465166320E+03  0.00000000000E+00 0. -1.
         21    1    1    2  503  505  0.31112806952E+02 -0.42147929007E+02  0.12060048955E+01  0.52401422918E+02  0.00000000000E+00 0. -1.
         21    1    1    2  504  503 -0.50137831379E+02  0.16163036079E+01  0.11512114650E+03  0.12557584538E+03  0.00000000000E+00 0. -1.
         21    1    1    2  505  501  0.45338693492E+02  0.91290768940E+02 -0.10323296554E+03  0.14507462492E+03  0.00000000000E+00 0. -1.
         -4    1    1    2    0  502 -0.26313669065E+02 -0.50759143540E+02 -0.36746213852E+03  0.37188348052E+03  0.00000000000E+00 0. -1.
<scales pt_clust_3="41.49349" pt_clust_4="50.16388" pt_clust_5="14000.00000" pt_clust_6="61.45030"></scales>
<clustering>
<clus scale="   50.164">  1  4  2 -1</clus>
<clus scale="   41.493">  1  3  2 -1</clus>
<clus scale="   61.450">  2  6  1 -1</clus>
<clus scale="   50.164">  1  3  2 -1</clus>
</clustering>
</event>
<event>
 6    0  0.3522959E+002  0.8298707E+02  0.7546771E-02  0.1320782E+00
         21   -1    0    0  501  502  0.00000000000E+00  0.00000000000E+00  0.62263209611E+03  0.62263209611E+03  0.00000000000E+00 0. -1.
          1   -1    0    0  504    0 -0.00000000000E+00 -0.00000000000E+00 -0.85017087765E+02  0.85017087765E+02  0.00000000000E+00 0.  1.
         21    1    1    2  503  505 -0.37953149005E+01  0.54363769783E+02  0.12792646601E+03  0.13905036708E+03  0.00000000000E+00 0.  1.
         21    1    1    2  504  503  0.72804856221E+02 -0.83631028438E+02  0.79059555271E+02  0.13618042916E+03  0.00000000000E+00 0.  1.
         21    1    1    2  505  502  0.15287710898E+02  0.35773554603E+02  0.34454367795E+03  0.34673304909E+03  0.00000000000E+00 0. -1.
          1    1    1    2  501    0 -0.84297252218E+02 -0.65062959491E+01 -0.13914690888E+02  0.85685338542E+02  0.00000000000E+00 0.  1.
<scales pt_clust_3="71.69276" pt_clust_4="14000.00000" pt_clust_5="38.90323" pt_clust_6="82.98707"></scales>
<clustering>
<clus scale="   38.903">  1  5  2 -1</clus>
<clus scale="   71.693">  1  3  2 -1</clus>
<clus scale="   82.987">  2  6  1 -1</clus>
<clus scale="   38.903">  1  3  2 -1</clus>
</clustering>
</event>
<event>
 6    0  0.3522959E+002  0.1769447E+03  0.7546771E-02  0.1170793E+00
         21   -1    0    0  501  502  0.00000000000E+00  0.00000000000E+00  0.31523086828E+02  0.31523086828E+02  0.00000000000E+00 0.  1.
          2   -1    0    0  503    0 -0.00000000000E+00 -0.00000000000E+00 -0.16720390054E+04  0.16720390054E+04  0.00000000000E+00 0.  1.
         21    1    1    2  503  504  0.50966144534E+02  0.74391555281E+01 -0.20774152374E+03  0.21403137529E+03  0.00000000000E+00 0.  1.
         21    1    1    2  504  505 -0.55406279336E+02  0.10097638876E+03 -0.21495382047E+03  0.24386724219E+03  0.00000000000E+00 0.  1.
         21    1    1    2  505  502 -0.63187761183E+02  0.25984380871E+02 -0.12428489349E+03  0.14182600594E+03  0.00000000000E+00 0.  1.
          2    1    1    2  501    0  0.67627895985E+02 -0.13439992516E+03 -0.10935356808E+04  0.11038374688E+04  0.00000000000E+00 0.  1.
<scales pt_clust_3="51.50620" pt_clust_4="45.51774" pt_clust_5="45.51774" pt_clust_6="166.78320"></scales>
<clustering>
<clus scale="   45.518">  4  5 -1 -1</clus>
<clus scale="   51.506">  2  3  1 -1</clus>
<clus scale="  166.783">  2  6  1 -1</clus>
<clus scale="  176.945">  1  3  2 -1</clus>
</clustering>
</event>
<event>
 6    0  0.3522959E+002  0.8750824E+02  0.7546771E-02  0.1309001E+00
          2   -1    0    0  505    0 -0.00000000000E+00  0.00000000000E+00  0.90241758526E+03  0.90241758526E+03  0.00000000000E+00 0.  1.
         21   -1    0    0  503  502  0.00000000000E+00 -0.00000000000E+00 -0.30811267251E+02  0.30811267251E+02  0.00000000000E+00 0.  1.
         21    1    1    2  503  501 -0.23977947231E+02  0.88976177830E+02  0.15537834389E+03  0.18064919575E+03  0.00000000000E+00 0.  1.
         21    1    1    2  504  502  0.35059156247E+02  0.75692436615E+01  0.36608565356E+02  0.51250609204E+02  0.00000000000E+00 0.  1.
         21    1    1    2  505  504  0.63279400438E+02 -0.24321081760E+02  0.22225222682E+03  0.23236146381E+03  0.00000000000E+00 0.  1.
          2    1    1    2  501    0 -0.74360609454E+02 -0.72224339732E+02  0.45736718194E+03  0.46896758375E+03  0.00000000000E+00 0.  1.
<scales pt_clust_3="87.50824" pt_clust_4="35.86695" pt_clust_5="74.37001" pt_clust_6="14000.00000"></scales>
<clustering>
<clus scale="   35.867">  2  4  1 -1</clus>
<clus scale="   74.370">  1  5  2 -1</clus>
<clus scale="   87.508">  2  3  1 -1</clus>
<clus scale="   35.867">  2  3  1 -1</clus>
</clustering>
</event>
<event>
 6    0  0.3522959E+002  0.1465653E+03  0.7546771E-02  0.1204758E+00
          2   -1    0    0  503    0 -0.00000000000E+00  0.00000000000E+00  0.15000896967E+04  0.15000896967E+04  0.00000000000E+00 0.  1.
         21   -1    0    0  504  502  0.00000000000E+00 -0.00000000000E+00 -0.48194342779E+02  0.48194342779E+02  0.00000000000E+00 0.  1.
         21    1    1    2  503  505 -0.17435785731E+03 -0.10388461205E+02  0.12021371934E+04  0.12147602291E+04  0.00000000000E+00 0.  1.
         21    1    1    2  504  501  0.42639171858E+02 -0.25659061896E+02  0.17913423068E+02  0.52890236908E+02  0.00000000000E+00 0.  1.
         21    1    1    2  505  502  0.34639090991E+02  0.33921795275E+02  0.30997265295E+02  0.57544637240E+02  0.00000000000E+00 0.  1.
          2    1    1    2  501    0  0.97079594460E+02  0.21257278266E+01  0.20084747212E+03  0.22308893616E+03  0.00000000000E+00 0.  1.
<scales pt_clust_3="14000.00000" pt_clust_4="60.61001" pt_clust_5="48.48252" pt_clust_6="146.56527"></scales>
<clustering>
<clus scale="   48.483">  2  5  1 -1</clus>
<clus scale="   60.610">  2  4  1 -1</clus>
<clus scale="  146.565">  2  6  1 -1</clus>
<clus scale="   48.483">  2  3  1 -1</clus>
</clustering>
</event>
<event>
 6    0  0.3522959E+002  0.7709286E+02  0.7546771E-02  0.1337510E+00
          1   -1    0    0  504    0 -0.00000000000E+00  0.00000000000E+00  0.57638144798E+02  0.57638144798E+02  0.00000000000E+00 0.  1.
         21   -1    0    0  503  502  0.00000000000E+00 -0.00000000000E+00 -0.99856554845E+03  0.99856554845E+03  0.00000000000E+00 0.  1.
         21    1    1    2  503  505  0.81058179677E+01  0.69332461323E+02 -0.53063719573E+03  0.53520886388E+03  0.00000000000E+00 0.  1.
         21    1    1    2  504  502  0.56555491530E+02  0.55410591335E+02 -0.68908555732E+02  0.10496307116E+03  0.00000000000E+00 0.  1.
         21    1    1    2  505  501 -0.50126579362E+02 -0.94299349643E+02 -0.36136956502E+03  0.37681959055E+03  0.00000000000E+00 0.  1.
          1    1    1    2  501    0 -0.14534730137E+02 -0.30443703015E+02  0.19987912830E+02  0.39212167661E+02  0.00000000000E+00 0.  1.
<scales pt_clust_3="77.09286" pt_clust_4="59.27122" pt_clust_5="14000.00000" pt_clust_6="33.73540"></scales>
<clustering>
<clus scale="   33.735">  1  6  2 -1</clus>
<clus scale="   59.271">  1  4  2 -1</clus>
<clus scale="   77.093">  2  3  1 -1</clus>
<clus scale="   77.093">  2  3  1 -1</clus>
</clustering>
</event>
<event>
 6    0  0.3522959E+002  0.1197677E+03  0.7546771E-02  0.1243481E+00
          2   -1    0    0  504    0 -0.00000000000E+00  0.00000000000E+00  0.18361666508E+04  0.18361666508E+04  0.00000000000E+00 0. -1.
         21   -1    0    0  501  502  0.00000000000E+00 -0.00000000000E+00 -0.46484543793E+03  0.46484543793E+03  0.00000000000E+00 0.  1.
         21    1    1    2  503  502  0.93418181479E+02 -0.53611145313E+02 -0.42091476218E+03  0.43447709785E+03  0.00000000000E+00 0.  1.
         21    1    1    2  504  505 -0.85340925272E+02  0.14839868749E+02  0.41464551389E+02  0.96034390989E+02  0.00000000000E+00 0.  1.
         21    1    1    2  505  503 -0.42439533738E+02  0.32330831491E+02  0.63802437052E+02  0.83169391380E+02  0.00000000000E+00 0.  1.
          2    1    1    2  501    0  0.34362277530E+02  0.64404450737E+01  0.16869689867E+04  0.16873312086E+04  0.00000000000E+00 0. -1.
<scales pt_clust_3="108.92370" pt_clust_4="38.87361" pt_clust_5="38.87361" pt_clust_6="34.96063"></scales>
<clustering>
<clus scale="   34.961">  1  6  2 -1</clus>
<clus scale="   38.874">  4  5 -1 -1</clus>
<clus scale="  108.924">  2  3  1 -1</clus>
<clus scale="  108.924">  2  3  1 -1</clus>
</clustering>
</event>
<event>
 6    0  0.4027537E+002  0.1244724E+03  0.7546771E-02  0.1235896E+00
         21   -1    0    0  505  502  0.00000000000E+00  0.00000000000E+00  0.26682511598E+03  0.26682511598E+03  0.00000000000E+00 0. -1.
         -2   -1    0    0    0  501 -0.00000000000E+00 -0.00000000000E+00 -0.95755613585E+03  0.95755613585E+03  0.00000000000E+00 0.  1.
         21    1    1    2  503  501 -0.34254707924E+02  0.75553181940E+02  0.72080788923E+02  0.10989680818E+03  0.00000000000E+00 0. -1.
         21    1    1    2  504  502  0.42194441046E+02  0.17597331919E+02 -0.35663867386E+02  0.57982310947E+02  0.00000000000E+00 0.  1.
         21    1    1    2  505  503 -0.12399880440E+02  0.33606546848E+02  0.15815433926E+03  0.16216026657E+03  0.00000000000E+00 0. -1.
         -2    1    1    2    0  504  0.44601473188E+01 -0.12675706071E+03 -0.88530228068E+03  0.89434186614E+03  0.00000000000E+00 0.  1.
<scales pt_clust_3="14000.00000" pt_clust_4="46.02549" pt_clust_5="35.82118" pt_clust_6="124.47241"></scales>
<clustering>
<clus scale="   35.821">  1  5  2 -1</clus>
<clus scale="   46.025">  1  4  2 -1</clus>
<clus scale="  124.472">  2  6  1 -1</clus>
<clus scale="   35.821">  1  3  2 -1</clus>
</clustering>
</event>
<event>
 6    0  0.3522959E+002  0.9902608E+02  0.7546771E-02  0.1282357E+00
          1   -1    0    0  504    0 -0.00000000000E+00  0.00000000000E+00  0.28733951125E+04  0.28733951125E+04  0.00000000000E+00 0. -1.
         21   -1    0    0  503  502  0.00000000000E+00 -0.00000000000E+00 -0.85353994482E+01  0.85353994482E+01  0.00000000000E+00 0.  1.
         21    1    1    2  503  505  0.47817236657E+02 -0.48432750532E+01  0.20190541053E+03  0.20754695911E+03  0.00000000000E+00 0.  1.
         21    1    1    2  504  502 -0.47581962597E+02  0.35823741886E+02  0.38051884601E+03  0.38515188668E+03  0.00000000000E+00 0.  1.
         21    1    1    2  505  501  0.58229828018E+02  0.32987689032E+02  0.47173805752E+03  0.47646164107E+03  0.00000000000E+00 0.  1.
          1    1    1    2  501    0 -0.58465102078E+02 -0.63968155865E+02  0.18106973990E+04  0.18127700251E+04  0.00000000000E+00 0. -1.
<scales pt_clust_3="38.22079" pt_clust_4="59.55992" pt_clust_5="38.22079" pt_clust_6="88.15900"></scales>
<clustering>
<clus scale="   38.221">  3  5 -1 -1</clus>
<clus scale="   59.560">  2  4  1 -1</clus>
<clus scale="   88.159">  1  6  2 -1</clus>
<clus scale="   59.560">  2  3  1 -1</clus>
</clustering>
</event>
<event>
 6    0  0.3522959E+002  0.8303838E+02  0.7546771E-02  0.1320644E+00
          1   -1    0    0  504    0 -0.00000000000E+00  0.00000000000E+00  0.63803577224E+03  0.63803577224E+03  0.00000000000E+00 0. -1.
         21   -1    0    0  505  502  0.00000000000E+00 -0.00000000000E+00 -0.20439217413E+03  0.20439217413E+03  0.00000000000E+00 0. -1.
         21    1    1    2  503  501  0.63120522184E+02 -0.92796669107E+02  0.41396809830E+03  0.42891142271E+03  0.00000000000E+00 0. -1.
         21    1    1    2  504  502 -0.92423284075E+02  0.72366950031E+01 -0.10219641090E+03  0.13798021450E+03  0.00000000000E+00 0. -1.
         21    1    1    2  505  503  0.61507240719E+02  0.65743299820E+02 -0.47640621587E+02  0.10185750320E+03  0.00000000000E+00 0.  1.
          1    1    1    2  501    0 -0.32204478828E+02  0.19816674284E+02  0.16951253230E+03  0.17367880597E+03  0.00000000000E+00 0. -1.
<scales pt_clust_3="82.25783" pt_clust_4="14000.00000" pt_clust_5="83.03838" pt_clust_6="37.81308"></scales>
<clustering>
<clus scale="   37.813">  1  6  2 -1</clus>
<clus scale="   82.258">  1  3  2 -1</clus>
<clus scale="   83.038">  1  5  2 -1</clus>
<clus scale="   83.038">  2  3  1 -1</clus>
</clustering>
</event>
<event>
 6    0  0.3522959E+002  0.1971071E+03  0.7546771E-02  0.1152203E+00
         21   -1    0    0  501  502  0.00000000000E+00  0.00000000000E+00  0.50682215077E+02  0.50682215077E+02  0.00000000000E+00 0. -1.
          2   -1    0    0  505    0 -0.00000000000E+00 -0.00000000000E+00 -0.40070246457E+04  0.40070246457E+04  0.00000000000E+00 0.  1.
         21    1    1    2  503  504  0.13350881719E+03 -0.15561510821E+02 -0.18619100071E+03  0.22963852820E+03  0.00000000000E+00 0. -1.
         21    1    1    2  504  502  0.68090127047E+02  0.24914804574E+02 -0.21195119932E+03  0.22400965109E+03  0.00000000000E+00 0. -1.
         21    1    1    2  505  503 -0.12511888690E+03  0.15840963503E+03 -0.48498517744E+03  0.52531797101E+03  0.00000000000E+00 0. -1.
          2    1    1    2  501    0 -0.76480057339E+02 -0.16776292879E+03 -0.30732150531E+04  0.30787407105E+04  0.00000000000E+00 0.  1.
<scales pt_clust_3="59.44017" pt_clust_4="59.44017" pt_clust_5="179.72582" pt_clust_6="184.37353"></scales>
<clustering>
<clus scale="   59.440">  3  4 -1 -1</clus>
<clus scale="  184.374">  2  6  1 -1</clus>
<clus scale="  179.726">  2  5  1 -1</clus>
<clus scale="  197.107">  1  3  2 -1</clus>
</clustering>
</event>
<event>
 6    0  0.3522959E+002  0.2093803E+03  0.7546771E-02  0.1142058E+00
         21   -1    0    0  504  502  0.00000000000E+00  0.00000000000E+00  0.12817216942E+04  0.12817216942E+04  0.00000000000E+00 0.  1.
         -1   -1    0    0    0  501 -0.00000000000E+00 -0.00000000000E+00 -0.18091675993E+03  0.18091675993E+03  0.00000000000E+00 0. -1.
         21    1    1    2  503  502  0.11013723030E+03 -0.38427654900E+02  0.67923814953E+03  0.68918165816E+03  0.00000000000E+00 0.  1.
         21    1    1    2  504  501 -0.20727152542E+03 -0.81224283798E+01  0.13829533533E+03  0.24930515211E+03  0.00000000000E+00 0.  1.
         21    1    1    2  505  503  0.90687120274E+02  0.25696306391E+01  0.39427537415E+03  0.40457858007E+03  0.00000000000E+00 0.  1.
         -1    1    1    2    0  505  0.64471748512E+01  0.43980452641E+02 -0.11100392474E+03  0.11957306380E+03  0.00000000000E+00 0. -1.
<scales pt_clust_3="41.96180" pt_clust_4="203.90228" pt_clust_5="41.96180" pt_clust_6="44.45049"></scales>
<clustering>
<clus scale="   41.962">  3  5 -1 -1</clus>
<clus scale="   44.450">  2  6  1 -1</clus>
<clus scale="  203.902">  2  4  1 -1</clus>
<clus scale="  209.380">  1  3  2 -1</clus>
</clustering>
</event>
<event>
 6    0  0.3522959E+002  0.1470970E+03  0.7546771E-02  0.1204086E+00
         21   -1    0    0  504  502  0.00000000000E+00  0.00000000000E+00  0.26632745065E+03  0.26632745065E+03  0.00000000000E+00 0. -1.
          2   -1    0    0  502    0 -0.00000000000E+00 -0.00000000000E+00 -0.11351242950E+04  0.11351242950E+04  0.00000000000E+00 0. -1.
         21    1    1    2  503  501  0.64227487342E+02  0.17183028112E+03 -0.14720996551E+01  0.18344749308E+03  0.00000000000E+00 0. -1.
         21    1    1    2  504  505 -0.35161045886E+02 -0.21694195791E+01  0.10734318641E+03  0.11297594964E+03  0.00000000000E+00 0. -1.
         21    1    1    2  505  503 -0.39715561194E+02 -0.11358839495E+03  0.81006728818E+01  0.12060377345E+03  0.00000000000E+00 0. -1.
          2    1    1    2  501    0  0.10649119738E+02 -0.56072466592E+02 -0.98276860399E+03  0.98442452948E+03  0.00000000000E+00 0. -1.
<scales pt_clust_3="14000.00000" pt_clust_4="35.22791" pt_clust_5="147.09698" pt_clust_6="57.05155"></scales>
<clustering>
<clus scale="   35.228">  1  4  2 -1</clus>
<clus scale="   57.052">  2  6  1 -1</clus>
<clus scale="  147.097">  1  5  2 -1</clus>
<clus scale="   35.228">  1  3  2 -1</clus>
</clustering>
</event>
<event>
 6    0  0.3522959E+002  0.2501711E+03  0.7546771E-02  0.1113197E+00
         21   -1    0    0  501  502  0.00000000000E+00  0.00000000000E+00  0.26589755617E+04  0.26589755617E+04  0.00000000000E+00 0. -1.
         -1   -1    0    0    0  501 -0.00000000000E+00 -0.00000000000E+00 -0.63872834966E+02  0.63872834966E+02  0.00000000000E+00 0.  1.
         21    1    1    2  503  504  0.35020067736E+02  0.17449045710E+01  0.77206448988E+03  0.77286028904E+03  0.00000000000E+00 0. -1.
         21    1    1    2  504  502  0.26879445102E+02  0.37568310921E+02  0.72014826691E+03  0.72162830383E+03  0.00000000000E+00 0. -1.
         21    1    1    2  505  503  0.31854941768E+02  0.21232049027E+03  0.77685053967E+03  0.80597238718E+03  0.00000000000E+00 0. -1.
         -1    1    1    2    0  505 -0.93754454606E+02 -0.25163370576E+03  0.32603943028E+03  0.42238741663E+03  0.00000000000E+00 0.  1.
<scales pt_clust_3="32.83253" pt_clust_4="82.44539" pt_clust_5="250.17109" pt_clust_6="14000.00000"></scales>
<clustering>
<clus scale="   32.833">  3  4 -1 -1</clus>
<clus scale="   82.445">  1  3  2 -1</clus>
<clus scale="  250.171">  1  5  2 -1</clus>
<clus scale="   82.445">  1  3  2 -1</clus>
</clustering>
</event>
<event>
 6    0  0.3522959E+002  0.1162533E+03  0.7546771E-02  0.1249409E+00
          2   -1    0    0  504    0 -0.00000000000E+00  0.00000000000E+00  0.21113205082E+04  0.21113205082E+04  0.00000000000E+00 0.  1.
         21   -1    0    0  505  502  0.00000000000E+00 -0.00000000000E+00 -0.21532210317E+02  0.21532210317E+02  0.00000000000E+00 0.  1.
         21    1    1    2  503  502  0.34611595195E+02 -0.19172827760E+02  0.69438707970E+02  0.79920548114E+02  0.00000000000E+00 0.  1.
         21    1    1    2  504  503 -0.12417404387E+03  0.54618791769E+02  0.11198332554E+04  0.11280199136E+04  0.00000000000E+00 0.  1.
         21    1    1    2  505  501 -0.14725747007E+02 -0.27561857648E+02  0.17682497070E+02  0.35905073799E+02  0.00000000000E+00 0.  1.
          2    1    1    2  501    0  0.10428819568E+03 -0.78841063605E+01  0.88283383742E+03  0.88900718297E+03  0.00000000000E+00 0.  1.
<scales pt_clust_3="41.89560" pt_clust_4="116.25328" pt_clust_5="31.24906" pt_clust_6="14000.00000"></scales>
<clustering>
<clus scale="   31.249">  2  5  1 -1</clus>
<clus scale="   41.896">  2  3  1 -1</clus>
<clus scale="  116.253">  2  4  1 -1</clus>
<clus scale="   31.249">  2  3  1 -1</clus>
</clustering>
</event>
<event>
 6    0  0.3522959E+002  0.1210206E+03  0.7546771E-02  0.1241423E+00
          2   -1    0    0  504    0 -0.00000000000E+00  0.00000000000E+00  0.94100355333E+03  0.94100355333E+03  0.00000000000E+00 0. -1.
         21   -1    0    0  503  502  0.00000000000E+00 -0.00000000000E+00 -0.18698455180E+03  0.18698455180E+03  0.00000000000E+00 0. -1.
         21    1    1    2  503  505 -0.12987466826E+03  0.65366336115E+02 -0.11218073736E+03  0.18364287405E+03  0.00000000000E+00 0. -1.
         21    1    1    2  504  502 -0.87373059399E+01 -0.45426383968E+02  0.59729326445E+01  0.46643035920E+02  0.00000000000E+00 0.  1.
         21    1    1    2  505  501  0.77617043980E+02 -0.33570352513E+02  0.84796792943E+02  0.11975754748E+03  0.00000000000E+00 0.  1.
          2    1    1    2  501    0  0.60994930219E+02  0.13630400366E+02  0.77543001330E+03  0.77794464768E+03  0.00000000000E+00 0. -1.
<scales pt_clust_3="121.02061" pt_clust_4="46.25902" pt_clust_5="14000.00000" pt_clust_6="62.36110"></scales>
<clustering>
<clus scale="   46.259">  2  4  1 -1</clus>
<clus scale="   62.361">  1  6  2 -1</clus>
<clus scale="  121.021">  2  3  1 -1</clus>
<clus scale="   46.259">  2  3  1 -1</clus>
</clustering>
</event>
<event>
 6    0  0.3864265E+002  0.1472692E+03  0.7546771E-02  0.1203869E+00
         -1   -1    0    0    0  501 -0.00000000000E+00  0.00000000000E+00  0.20455017073E+04  0.20455017073E+04  0.00000000000E+00 0. -1.
         21   -1    0    0  505  502  0.00000000000E+00 -0.00000000000E+00 -0.51090534181E+03  0.51090534181E+03  0.00000000000E+00 0.  1.
         21    1    1    2  503  502  0.10025233697E+03 -0.13219220337E+03 -0.42016289289E+03  0.45173240559E+03  0.00000000000E+00 0.  1.
         21    1    1    2  504  501 -0.64571619349E+02  0.13038713708E+02 -0.27993658417E+02  0.71576162178E+02  0.00000000000E+00 0. -1.
         21    1    1    2  505  504  0.33189008640E+02 -0.10903995032E+02 -0.88723186095E+01  0.36043382744E+02  0.00000000000E+00 0. -1.
         -1    1    1    2    0  503 -0.68869726256E+02  0.13005748469E+03  0.19916252354E+04  0.19970550986E+04  0.00000000000E+00 0. -1.
<scales pt_clust_3="14000.00000" pt_clust_4="62.34047" pt_clust_5="34.93433" pt_clust_6="147.26920"></scales>
<clustering>
<clus scale="   34.934">  2  5  1 -1</clus>
<clus scale="   62.340">  2  4  1 -1</clus>
<clus scale="  147.269">  1  6  2 -1</clus>
<clus scale="   34.934">  2  3  1 -1</clus>
</clustering>
</event>
<event>
 6    0  0.3522959E+002  0.2059209E+03  0.7546771E-02  0.1144838E+00
          2   -1    0    0  503    0 -0.00000000000E+00  0.00000000000E+00  0.25526257297E+04  0.25526257297E+04  0.00000000000E+00 0.  1.
         21   -1    0    0  505  502  0.00000000000E+00 -0.00000000000E+00 -0.12661858998E+04  0.12661858998E+04  0.00000000000E+00 0. -1.
         21    1    1    2  503  504  0.10935124147E+03  0.20266030753E+02 -0.46954611374E+03  0.48253700266E+03  0.00000000000E+00 0. -1.
         21    1    1    2  504  502  0.74485987377E+02  0.22200425963E+02 -0.78330615023E+03  0.78715280995E+03  0.00000000000E+00 0. -1.
         21    1    1    2  505  501 -0.14306674537E+03 -0.72178224258E+02  0.14844097596E+04  0.14930338656E+04  0.00000000000E+00 0.  1.
          2    1    1    2  501    0 -0.40770483471E+02  0.29711767542E+02  0.10548823343E+04  0.10560879512E+04  0.00000000000E+00 0.  1.
<scales pt_clust_3="69.34013" pt_clust_4="69.34013" pt_clust_5="188.49272" pt_clust_6="50.44821"></scales>
<clustering>
<clus scale="   50.448">  1  6  2 -1</clus>
<clus scale="   69.340">  3  4 -1 -1</clus>
<clus scale="  188.493">  1  5  2 -1</clus>
<clus scale="  205.921">  2  3  1 -1</clus>
</clustering>
</event>
<event>
 6    0  0.3522959E+002  0.1029158E+03  0.7546771E-02  0.1274281E+00
          1   -1    0    0  505    0 -0.00000000000E+00  0.00000000000E+00  0.13791095377E+04  0.13791095377E+04  0.00000000000E+00 0.  1.
         21   -1    0    0  504  502  0.00000000000E+00 -0.00000000000E+00 -0.38218768267E+02  0.38218768267E+02  0.00000000000E+00 0. -1.
         21    1    1    2  503  502 -0.23974484696E+02 -0.10542998773E+03  0.71830296798E+02  0.12980697118E+03  0.00000000000E+00 0. -1.
         21    1    1    2  504  501  0.42967847668E+02 -0.39129984852E+01  0.77688914554E+02  0.88865712932E+02  0.00000000000E+00 0. -1.
         21    1    1    2  505  503 -0.27847320658E+02  0.40216350560E+02  0.25208610480E+03  0.25678830260E+03  0.00000000000E+00 0. -1.
          1    1    1    2  501    0  0.88539576854E+01  0.69126635657E+02  0.93928545333E+03  0.94186731929E+03  0.00000000000E+00 0.  1.
<scales pt_clust_3="14000.00000" pt_clust_4="43.14565" pt_clust_5="46.98285" pt_clust_6="102.91577"></scales>
<clustering>
<clus scale="   43.146">  2  4  1 -1</clus>
<clus scale="   46.983">  1  5  2 -1</clus>
<clus scale="  102.916">  1  6  2 -1</clus>
<clus scale="   43.146">  2  3  1 -1</clus>
</clustering>
</event>
<event>
 6    0  0.3522959E+002  0.7970007E+02  0.7546771E-02  0.1329905E+00
          2   -1    0    0  504    0 -0.00000000000E+00  0.00000000000E+00  0.75320238950E+03  0.75320238950E+03  0.00000000000E+00 0.  1.
         21   -1    0    0  505  502  0.00000000000E+00 -0.00000000000E+00 -0.22705556062E+03  0.22705556062E+03  0.00000000000E+00 0.  1.
         21    1    1    2  503  502 -0.32961088799E+02 -0.13888400341E+00 -0.16828576175E+03  0.17148338191E+03  0.00000000000E+00 0.  1.
         21    1    1    2  504  503  0.70649578428E+02  0.48087430270E+02  0.24832459377E+03  0.26261924483E+03  0.00000000000E+00 0.  1.
         21    1    1    2  505  501 -0.38867345167E+02  0.44131819176E+02 -0.26612685294E+02  0.64548609611E+02  0.00000000000E+00 0. -1.
          2    1    1    2  501    0  0.11788555388E+01 -0.92080365443E+02  0.47272068217E+03  0.48160671377E+03  0.00000000000E+00 0.  1.
<scales pt_clust_3="32.96138" pt_clust_4="79.70007" pt_clust_5="78.62495" pt_clust_6="14000.00000"></scales>
<clustering>
<clus scale="   32.961">  2  3  1 -1</clus>
<clus scale="   78.625">  2  5  1 -1</clus>
<clus scale="   79.700">  2  4  1 -1</clus>
<clus scale="   32.961">  2  3  1 -1</clus>
</clustering>
</event>
<event>
 6    0  0.3522959E+002  0.1506023E+03  0.7546771E-02  0.1199735E+00
         -1   -1    0    0    0  501 -0.00000000000E+00  0.00000000000E+00  0.45257467048E+03  0.45257467048E+03  0.00000000000E+00 0.  1.
         21   -1    0    0  504  502  0.00000000000E+00 -0.00000000000E+00 -0.23889339597E+03  0.23889339597E+03  0.00000000000E+00 0. -1.
         21    1    1    2  503  501  0.93818895434E+02  0.68778376041E+02 -0.55363506012E+02  0.12883154873E+03  0.00000000000E+00 0. -1.
         21    1    1    2  504  503  0.43216234920E+02 -0.25862234495E+01 -0.39891019766E+02  0.58869558945E+02  0.00000000000E+00 0. -1.
         21    1    1    2  505  502 -0.12642093969E+03 -0.31894357326E+02 -0.52497958754E+02  0.14055440120E+03  0.00000000000E+00 0. -1.
         -1    1    1    2    0  505 -0.10614190659E+02 -0.34297795265E+02  0.36143375904E+03  0.36321255757E+03  0.00000000000E+00 0.  1.
<scales pt_clust_3="33.40424" pt_clust_4="33.40424" pt_clust_5="140.29537" pt_clust_6="35.90264"></scales>
<clustering>
<clus scale="   33.404">  3  4 -1 -1</clus>
<clus scale="   35.903">  1  6  2 -1</clus>
<clus scale="  140.295">  1  5  2 -1</clus>
<clus scale="  150.602">  2  3  1 -1</clus>
</clustering>
</event>
<event>
 6    0  0.3522959E+002  0.1930194E+03  0.7546771E-02  0.1155766E+00
         21   -1    0    0  505  502  0.00000000000E+00  0.00000000000E+00  0.42664858404E+03  0.42664858404E+03  0.00000000000E+00 0. -1.
         -2   -1    0    0    0  501 -0.00000000000E+00 -0.00000000000E+00 -0.78760889923E+03  0.78760889923E+03  0.00000000000E+00 0.  1.
         21    1    1    2  503  501  0.91108254422E+02 -0.13698463660E+03 -0.31466373598E+03  0.35507572633E+03  0.00000000000E+00 0.  1.
         21    1    1    2  504  502 -0.30443110277E+02 -0.49450810875E+00  0.10040779224E+03  0.10492260121E+03  0.00000000000E+00 0. -1.
         21    1    1    2  505  503 -0.11734867880E+03  0.13249307099E+03  0.27592818325E+03  0.32781319160E+03  0.00000000000E+00 0. -1.
         -2    1    1    2    0  504  0.56683534652E+02  0.49860737195E+01 -0.42263255470E+03  0.42644596413E+03  0.00000000000E+00 0.  1.
<scales pt_clust_3="14000.00000" pt_clust_4="30.44713" pt_clust_5="193.01940" pt_clust_6="56.72368"></scales>
<clustering>
<clus scale="   30.447">  1  4  2 -1</clus>
<clus scale="   56.724">  2  6  1 -1</clus>
<clus scale="  193.019">  1  5  2 -1</clus>
<clus scale="   30.447">  1  3  2 -1</clus>
</clustering>
</event>
<event>
 6    0  0.3522959E+002  0.1906941E+03  0.7546771E-02  0.1157837E+00
         21   -1    0    0  503  502  0.00000000000E+00  0.00000000000E+00  0.17936428349E+03  0.17936428349E+03  0.00000000000E+00 0. -1.
          2   -1    0    0  504    0 -0.00000000000E+00 -0.00000000000E+00 -0.19003809891E+04  0.19003809891E+04  0.00000000000E+00 0.  1.
         21    1    1    2  503  501 -0.73101011193E+02  0.18103430475E+03  0.11273017931E+03  0.22544460664E+03  0.00000000000E+00 0. -1.
         21    1    1    2  504  505  0.14865847779E+02 -0.70412701257E+02 -0.28933819080E+03  0.29815353525E+03  0.00000000000E+00 0.  1.
         21    1    1    2  505  502  0.33509596960E+02 -0.25149540404E+02 -0.92863807913E+02  0.10187776642E+03  0.00000000000E+00 0.  1.
          2    1    1    2  501    0  0.24725566454E+02 -0.85472063094E+02 -0.14515448862E+04  0.14542693642E+04  0.00000000000E+00 0.  1.
<scales pt_clust_3="184.09203" pt_clust_4="37.95454" pt_clust_5="37.95454" pt_clust_6="88.97655"></scales>
<clustering>
<clus scale="   37.955">  4  5 -1 -1</clus>
<clus scale="   88.977">  2  6  1 -1</clus>
<clus scale="  184.092">  1  3  2 -1</clus>
<clus scale="  184.092">  1  3  2 -1</clus>
</clustering>
</event>
<event>
 6    0  0.3522959E+002  0.4084917E+03  0.7546771E-02  0.1040878E+00
          2   -1    0    0  505    0 -0.00000000000E+00  0.00000000000E+00  0.19511409186E+04  0.19511409186E+04  0.00000000000E+00 0. -1.
         21   -1    0    0  501  502  0.00000000000E+00 -0.00000000000E+00 -0.16899069154E+04  0.16899069154E+04  0.00000000000E+00 0. -1.
         21    1    1    2  503  502  0.71348189498E+02  0.76947481383E+02 -0.39421962414E+03  0.40794679934E+03  0.00000000000E+00 0. -1.
         21    1    1    2  504  503  0.23910184236E+03  0.13757158389E+03 -0.85490546254E+03  0.89830895665E+03  0.00000000000E+00 0. -1.
         21    1    1    2  505  504 -0.52433785216E+03 -0.39136905457E+03 -0.13341211565E+03  0.66775647708E+03  0.00000000000E+00 0. -1.
          2    1    1    2  501    0  0.21388782030E+03  0.17684998930E+03  0.16437712056E+04  0.16670356009E+04  0.00000000000E+00 0. -1.
<scales pt_clust_3="36.96988" pt_clust_4="36.96988" pt_clust_5="404.06996" pt_clust_6="277.53183"></scales>
<clustering>
<clus scale="   36.970">  3  4 -1 -1</clus>
<clus scale="  277.532">  1  6  2 -1</clus>
<clus scale="  404.070">  1  5  2 -1</clus>
<clus scale="  408.492">  2  3  1 -1</clus>
</clustering>
</event>
<event>
 6    0  0.3522959E+002  0.7523617E+02  0.7546771E-02  0.1343141E+00
         21   -1    0    0  501  502  0.00000000000E+00  0.00000000000E+00  0.72427663894E+03  0.72427663894E+03  0.00000000000E+00 0.  1.
          2   -1    0    0  503    0 -0.00000000000E+00 -0.00000000000E+00 -0.10504656661E+04  0.10504656661E+04  0.00000000000E+00 0.  1.
         21    1    1    2  503  504  0.29772005134E+02 -0.39561942584E+01 -0.23195804164E+02  0.37948242298E+02  0.00000000000E+00 0. -1.
         21    1    1    2  504  505 -0.12045563284E+03  0.32931877730E+02  0.51922403300E+03  0.53402964758E+03  0.00000000000E+00 0.  1.
         21    1    1    2  505  502  0.49000257403E+02 -0.56142107696E+02  0.18233817572E+03  0.19697759214E+03  0.00000000000E+00 0.  1.
          2    1    1    2  501    0  0.41683370304E+02  0.27166424224E+02 -0.10045554317E+04  0.10057868230E+04  0.00000000000E+00 0.  1.
<scales pt_clust_3="30.03371" pt_clust_4="14000.00000" pt_clust_5="74.68022" pt_clust_6="75.23617"></scales>
<clustering>
<clus scale="   30.034">  2  3  1 -1</clus>
<clus scale="   74.680">  1  5  2 -1</clus>
<clus scale="   75.236">  2  6  1 -1</clus>
<clus scale="   74.680">  1  3  2 -1</clus>
</clustering>
</event>
<event>
 6    0  0.3522959E+002  0.8502459E+02  0.7546771E-02  0.1315368E+00
         21   -1    0    0  503  502  0.00000000000E+00  0.00000000000E+00  0.47375914840E+02  0.47375914840E+02  0.00000000000E+00 0. -1.
          1   -1    0    0  504    0 -0.00000000000E+00 -0.00000000000E+00 -0.25445933663E+04  0.25445933663E+04  0.00000000000E+00 0.  1.
         21    1    1    2  503  501  0.15819123615E+02 -0.27082954129E+02  0.17985602925E+02  0.36155400549E+02  0.00000000000E+00 0. -1.
         21    1    1    2  504  505 -0.12403217676E+03  0.78285018972E+02 -0.34768767627E+03  0.37735824530E+03  0.00000000000E+00 0. -1.
         21    1    1    2  505  502  0.26929352690E+02 -0.38801135709E+02 -0.11536602078E+03  0.12465968442E+03  0.00000000000E+00 0. -1.
          1    1    1    2  501    0  0.81283700452E+02 -0.12400929134E+02 -0.20521493573E+04  0.20537959508E+04  0.00000000000E+00 0.  1.
<scales pt_clust_3="31.36449" pt_clust_4="85.02459" pt_clust_5="54.38917" pt_clust_6="14000.00000"></scales>
<clustering>
<clus scale="   31.364">  1  3  2 -1</clus>
<clus scale="   54.389">  1  5  2 -1</clus>
<clus scale="   85.025">  1  4  2 -1</clus>
<clus scale="   31.364">  1  3  2 -1</clus>
</clustering>
</event>
<event>
 6    0  0.4072872E+002  0.1639188E+03  0.7546771E-02  0.1184342E+00
         21   -1    0    0  501  502  0.00000000000E+00  0.00000000000E+00  0.53435733247E+03  0.53435733247E+03  0.00000000000E+00 0.  1.
          2   -1    0    0  503    0 -0.00000000000E+00 -0.00000000000E+00 -0.76407629210E+03  0.76407629210E+03  0.00000000000E+00 0.  1.
         21    1    1    2  503  504  0.10140151693E+03  0.47093951442E+02  0.83258246376E+02  0.13939886473E+03  0.00000000000E+00 0.  1.
         21    1    1    2  504  505  0.14518792108E+02  0.27370782024E+02  0.25739202153E+03  0.25925008733E+03  0.00000000000E+00 0.  1.
         21    1    1    2  505  502  0.31026112104E+02  0.79394978802E+01  0.15337870722E+03  0.15668657596E+03  0.00000000000E+00 0.  1.
          2    1    1    2  501    0 -0.14694642114E+03 -0.82404231346E+02 -0.72374793476E+03  0.74309809655E+03  0.00000000000E+00 0.  1.
<scales pt_clust_3="14000.00000" pt_clust_4="30.30917" pt_clust_5="65.35072" pt_clust_6="163.91884"></scales>
<clustering>
<clus scale="   30.309">  4  5 -1 -1</clus>
<clus scale="   65.351">  1  4  2 -1</clus>
<clus scale="  163.919">  2  6  1 -1</clus>
<clus scale="   65.351">  1  3  2 -1</clus>
</clustering>
</event>
<event>
 6    0  0.3522959E+002  0.2549576E+03  0.7546771E-02  0.1110211E+00
         21   -1    0    0  501  502  0.00000000000E+00  0.00000000000E+00  0.15535250854E+03  0.15535250854E+03  0.00000000000E+00 0.  1.
          2   -1    0    0  505    0 -0.00000000000E+00 -0.00000000000E+00 -0.12669482553E+04  0.12669482553E+04  0.00000000000E+00 0. -1.
         21    1    1    2  503  504 -0.14656954266E+02  0.46052412041E+02 -0.83192442870E+02  0.96211400124E+02  0.00000000000E+00 0.  1.
         21    1    1    2  504  502  0.24016824403E+03 -0.54815026035E+01 -0.26627918595E+02  0.24170204459E+03  0.00000000000E+00 0.  1.
         21    1    1    2  505  503 -0.20646869281E+03  0.80895555160E+02 -0.30639530179E+03  0.37822148658E+03  0.00000000000E+00 0.  1.
          2    1    1    2  501    0 -0.19042596957E+02 -0.12146646460E+03 -0.69538008354E+03  0.70616583258E+03  0.00000000000E+00 0. -1.
<scales pt_clust_3="42.52004" pt_clust_4="238.13387" pt_clust_5="42.52004" pt_clust_6="122.95008"></scales>
<clustering>
<clus scale="   42.520">  3  5 -1 -1</clus>
<clus scale="  122.950">  2  6  1 -1</clus>
<clus scale="  238.134">  1  4  2 -1</clus>
<clus scale="  238.134">  1  3  2 -1</clus>
</clustering>
</event>
<event>
 6    0  0.3522959E+002  0.1446338E+03  0.7546771E-02  0.1207226E+00
         21   -1    0    0  503  502  0.00000000000E+00  0.00000000000E+00  0.16577488865E+03  0.16577488865E+03  0.00000000000E+00 0. -1.
         -3   -1    0    0    0  501 -0.00000000000E+00 -0.00000000000E+00 -0.93801063382E+03  0.93801063382E+03  0.00000000000E+00 0. -1.
         21    1    1    2  503  504  0.90433022017E+02  0.62274404430E+01  0.11551815265E+03  0.14683785642E+03  0.00000000000E+00 0. -1.
         21    1    1    2  504  501 -0.49852902598E+02  0.70904092446E+01 -0.12268826191E+03  0.13261973990E+03  0.00000000000E+00 0.  1.
         21    1    1    2  505  502  0.62863149975E+02 -0.40803157142E+01 -0.11991858545E+02  0.64126665845E+02  0.00000000000E+00 0. -1.
         -3    1    1    2    0  505 -0.10344326939E+03 -0.92375339734E+01 -0.75307377737E+03  0.76020126031E+03  0.00000000000E+00 0. -1.
<scales pt_clust_3="144.63384" pt_clust_4="50.35460" pt_clust_5="60.63765" pt_clust_6="14000.00000"></scales>
<clustering>
<clus scale="   50.355">  2  4  1 -1</clus>
<clus scale="   60.638">  1  5  2 -1</clus>
<clus scale="  144.634">  1  3  2 -1</clus>
<clus scale="   60.638">  1  3  2 -1</clus>
</clustering>
</event>
<event>
 6    0  0.3522959E+002  0.1233250E+03  0.7546771E-02  0.1237710E+00
         21   -1    0    0  505  502  0.00000000000E+00  0.00000000000E+00  0.27833791220E+03  0.27833791220E+03  0.00000000000E+00 0.  1.
          2   -1    0    0  503    0 -0.00000000000E+00 -0.00000000000E+00 -0.25974029064E+04  0.25974029064E+04  0.00000000000E+00 0.  1.
         21    1    1    2  503  504 -0.38944770526E+01 -0.53024562163E+02 -0.31734950119E+03  0.32177239945E+03  0.00000000000E+00 0.  1.
         21    1    1    2  504  502  0.12465394493E+02  0.12524882253E+03  0.22529005879E+03  0.25806639494E+03  0.00000000000E+00 0.  1.
         21    1    1    2  505  501  0.36530839125E+02 -0.11071843496E+03 -0.65785326748E+02  0.13386852977E+03  0.00000000000E+00 0.  1.
          2    1    1    2  501    0 -0.45101756565E+02  0.38494174592E+02 -0.21612202251E+04  0.21620334945E+04  0.00000000000E+00 0.  1.
<scales pt_clust_3="53.16739" pt_clust_4="14000.00000" pt_clust_5="123.32503" pt_clust_6="50.20988"></scales>
<clustering>
<clus scale="   53.167">  2  3  1 -1</clus>
<clus scale="   50.210">  2  6  1 -1</clus>
<clus scale="  123.325">  2  5  1 -1</clus>
<clus scale="  123.325">  1  3  2 -1</clus>
</clustering>
</event>
<event>
 6    0  0.3522959E+002  0.1380841E+03  0.7546771E-02  0.1215930E+00
         21   -1    0    0  501  502  0.00000000000E+00  0.00000000000E+00  0.70669420619E+03  0.70669420619E+03  0.00000000000E+00 0.  1.
          2   -1    0    0  504    0 -0.00000000000E+00 -0.00000000000E+00 -0.18659117638E+03  0.18659117638E+03  0.00000000000E+00 0. -1.
         21    1    1    2  503  505  0.55368114158E+01 -0.52734907991E+02  0.37169307646E+02  0.64754800844E+02  0.00000000000E+00 0. -1.
         21    1    1    2  504  503 -0.52061897555E+02 -0.53367848864E+02  0.26343183210E+02  0.79072952209E+02  0.00000000000E+00 0.  1.
         21    1    1    2  505  502  0.18456339734E+02  0.12682400464E+03  0.59401011243E+03  0.60767835102E+03  0.00000000000E+00 0.  1.
          2    1    1    2  501    0  0.28068746405E+02 -0.20721247788E+02 -0.13741957348E+03  0.14177927849E+03  0.00000000000E+00 0. -1.
<scales pt_clust_3="51.19538" pt_clust_4="51.19538" pt_clust_5="125.84519" pt_clust_6="34.88875"></scales>
<clustering>
<clus scale="   34.889">  2  6  1 -1</clus>
<clus scale="   51.195">  3  4 -1 -1</clus>
<clus scale="  125.845">  1  5  2 -1</clus>
<clus scale="  125.845">  1  3  2 -1</clus>
</clustering>
</event>
<event>
 6    0  0.3522959E+002  0.1237306E+03  0.7546771E-02  0.1237067E+00
         21   -1    0    0  504  502  0.00000000000E+00  0.00000000000E+00  0.36977361351E+03  0.36977361351E+03  0.00000000000E+00 0. -1.
          2   -1    0    0  505    0 -0.00000000000E+00 -0.00000000000E+00 -0.99251068993E+03  0.99251068993E+03  0.00000000000E+00 0. -1.
         21    1    1    2  503  501  0.47917693184E+02 -0.55012436519E+01 -0.95898662867E+01  0.49176564918E+02  0.00000000000E+00 0. -1.
         21    1    1    2  504  503 -0.20555187265E+02 -0.12294083203E+03  0.32579373232E+03  0.34882448298E+03  0.00000000000E+00 0. -1.
         21    1    1    2  505  502 -0.54200831574E+02  0.10924790744E+03 -0.29124624239E+03  0.31574864866E+03  0.00000000000E+00 0. -1.
          2    1    1    2  501    0  0.26838325656E+02  0.19194168248E+02 -0.64769470007E+03  0.64853460688E+03  0.00000000000E+00 0. -1.
<scales pt_clust_3="50.35593" pt_clust_4="14000.00000" pt_clust_5="123.73061" pt_clust_6="32.99563"></scales>
<clustering>
<clus scale="   32.996">  2  6  1 -1</clus>
<clus scale="   50.356">  2  3  1 -1</clus>
<clus scale="  123.731">  2  5  1 -1</clus>
<clus scale="  123.731">  1  3  2 -1</clus>
</clustering>
</event>
<event>
 6    0  0.3522959E+002  0.1241344E+03  0.7546771E-02  0.1236428E+00
          1   -1    0    0  504    0 -0.00000000000E+00  0.00000000000E+00  0.43528804658E+03  0.43528804658E+03  0.00000000000E+00 0.  1.
         21   -1    0    0  505  502  0.00000000000E+00 -0.00000000000E+00 -0.10606447236E+03  0.10606447236E+03  0.00000000000E+00 0.  1.
         21    1    1    2  503  502 -0.33327119991E+02 -0.11410678754E+02 -0.15355015198E+02  0.38427555325E+02  0.00000000000E+00 0.  1.
         21    1    1    2  504  503 -0.67769979049E+02 -0.11194298391E+03  0.17014278931E+03  0.21464521998E+03  0.00000000000E+00 0.  1.
         21    1    1    2  505  501  0.44530484129E+02  0.18372212134E+02 -0.26232924286E+02  0.54851330996E+02  0.00000000000E+00 0.  1.
          1    1    1    2  501    0  0.56566614911E+02  0.10498145053E+03  0.20066872440E+03  0.23342841264E+03  0.00000000000E+00 0.  1.
<scales pt_clust_3="35.22642" pt_clust_4="14000.00000" pt_clust_5="30.18757" pt_clust_6="124.13436"></scales>
<clustering>
<clus scale="   35.226">  2  3  1 -1</clus>
<clus scale="   30.188">  2  5  1 -1</clus>
<clus scale="  124.134">  1  6  2 -1</clus>
<clus scale="   35.226">  2  3  1 -1</clus>
</clustering>
</event>
<event>
 6    0  0.3522959E+002  0.1403390E+03  0.7546771E-02  0.1212874E+00
         21   -1    0    0  505  502  0.00000000000E+00  0.00000000000E+00  0.19634314521E+04  0.19634314521E+04  0.00000000000E+00 0. -1.
         -2   -1    0    0    0  501 -0.00000000000E+00 -0.00000000000E+00 -0.11640100833E+03  0.11640100833E+03  0.00000000000E+00 0. -1.
         21    1    1    2  503  502 -0.47563778490E+02  0.68940993169E+02  0.71916480656E+03  0.72402568501E+03  0.00000000000E+00 0. -1.
         21    1    1    2  504  501 -0.39048801625E+01 -0.10628782923E+03  0.76250276537E+03  0.76988493811E+03  0.00000000000E+00 0. -1.
         21    1    1    2  505  504 -0.47493823854E+02 -0.33054011843E+02  0.43972473931E+03  0.44351558864E+03  0.00000000000E+00 0.  1.
         -2    1    1    2    0  503  0.98962482507E+02  0.70400847905E+02 -0.74361867466E+02  0.14240624868E+03  0.00000000000E+00 0. -1.
<scales pt_clust_3="83.75663" pt_clust_4="51.79911" pt_clust_5="51.79911" pt_clust_6="121.50368"></scales>
<clustering>
<clus scale="   51.799">  4  5 -1 -1</clus>
<clus scale="   83.757">  1  3  2 -1</clus>
<clus scale="  121.504">  2  6  1 -1</clus>
<clus scale="   83.757">  1  3  2 -1</clus>
</clustering>
</event>
<event>
 6    0  0.3522959E+002  0.3456979E+03  0.7546771E-02  0.1064395E+00
          1   -1    0    0  504    0 -0.00000000000E+00  0.00000000000E+00  0.76404439674E+03  0.76404439674E+03  0.00000000000E+00 0.  1.
         21   -1    0    0  501  502  0.00000000000E+00 -0.00000000000E+00 -0.71309191726E+03  0.71309191726E+03  0.00000000000E+00 0. -1.
         21    1    1    2  503  505  0.10208640535E+03  0.91195085894E+02 -0.32886897076E+03  0.35622040617E+03  0.00000000000E+00 0. -1.
         21    1    1    2  504  503  0.30949818348E+02 -0.30180935220E+02  0.23469477698E+02  0.49189394080E+02  0.00000000000E+00 0.  1.
         21    1    1    2  505  502  0.18952874663E+03  0.61595691357E+02 -0.28244893080E+03  0.34567697856E+03  0.00000000000E+00 0. -1.
          1    1    1    2  501    0 -0.32256497034E+03 -0.12260984203E+03  0.63880090333E+03  0.72604953519E+03  0.00000000000E+00 0.  1.
<scales pt_clust_3="85.02217" pt_clust_4="43.22939" pt_clust_5="85.02217" pt_clust_6="330.06224"></scales>
<clustering>
<clus scale="   43.229">  1  4  2 -1</clus>
<clus scale="   85.022">  3  5 -1 -1</clus>
<clus scale="  330.062">  1  6  2 -1</clus>
<clus scale="  345.698">  2  3  1 -1</clus>
</clustering>
</event>
<event>
 6    0  0.3522959E+002  0.1199647E+03  0.7546771E-02  0.1243155E+00
         21   -1    0    0  505  502  0.00000000000E+00  0.00000000000E+00  0.12022472556E+03  0.12022472556E+03  0.00000000000E+00 0.  1.
          2   -1    0    0  504    0 -0.00000000000E+00 -0.00000000000E+00 -0.33504642653E+04  0.33504642653E+04  0.00000000000E+00 0. -1.
         21    1    1    2  503  502 -0.12094304059E+02  0.27913425255E+02 -0.11763498022E+02  0.32616121564E+02  0.00000000000E+00 0.  1.
         21    1    1    2  504  503 -0.54180171473E+02  0.62271111988E+02 -0.34876222764E+03  0.35839681053E+03  0.00000000000E+00 0.  1.
         21    1    1    2  505  501 -0.60737741824E+02 -0.45198642378E+02  0.89595796333E+02  0.11730045727E+03  0.00000000000E+00 0.  1.
          2    1    1    2  501    0  0.12701221736E+03 -0.44985894865E+02 -0.29593096104E+04  0.29623756015E+04  0.00000000000E+00 0. -1.
<scales pt_clust_3="30.42091" pt_clust_4="14000.00000" pt_clust_5="74.56743" pt_clust_6="119.96470"></scales>
<clustering>
<clus scale="   30.421">  1  3  2 -1</clus>
<clus scale="   74.567">  1  5  2 -1</clus>
<clus scale="  119.965">  2  6  1 -1</clus>
<clus scale="   30.421">  1  3  2 -1</clus>
</clustering>
</event>
<event>
 6    0  0.3522959E+002  0.5607602E+02  0.7546771E-02  0.1415078E+00
          2   -1    0    0  505    0 -0.00000000000E+00  0.00000000000E+00  0.48870630730E+03  0.48870630730E+03  0.00000000000E+00 0.  1.
         21   -1    0    0  504  502  0.00000000000E+00 -0.00000000000E+00 -0.19316297344E+04  0.19316297344E+04  0.00000000000E+00 0.  1.
         21    1    1    2  503  502  0.18515361901E+02 -0.31280611577E+02 -0.21556987743E+03  0.21861305392E+03  0.00000000000E+00 0.  1.
         21    1    1    2  504  501 -0.38927141201E+02  0.83057131905E+02 -0.17047054367E+04  0.17071714721E+04  0.00000000000E+00 0.  1.
         21    1    1    2  505  503  0.39288047222E+02 -0.83010055866E+02  0.31291023292E+03  0.32610892949E+03  0.00000000000E+00 0.  1.
          2    1    1    2  501    0 -0.18876267922E+02  0.31233535538E+02  0.16444165408E+03  0.16844258615E+03  0.00000000000E+00 0.  1.
<scales pt_clust_3="36.34963" pt_clust_4="56.07602" pt_clust_5="14000.00000" pt_clust_6="36.45207"></scales>
<clustering>
<clus scale="   36.350">  2  3  1 -1</clus>
<clus scale="   36.452">  1  6  2 -1</clus>
<clus scale="   56.076">  2  4  1 -1</clus>
<clus scale="   36.350">  2  3  1 -1</clus>
</clustering>
</event>
<event>
 6    0  0.3522959E+002  0.8827385E+02  0.7546771E-02  0.1307086E+00
         21   -1    0    0  504  502  0.00000000000E+00  0.00000000000E+00  0.14702094377E+03  0.14702094377E+03  0.00000000000E+00 0. -1.
          2   -1    0    0  503    0 -0.00000000000E+00 -0.00000000000E+00 -0.17653189330E+04  0.17653189330E+04  0.00000000000E+00 0.  1.
         21    1    1    2  503  502 -0.17923839164E+02 -0.41814207638E+02  0.28762497245E+02  0.53823537774E+02  0.00000000000E+00 0.  1.
         21    1    1    2  504  505 -0.51929879084E+02 -0.12620398305E+02  0.81194672393E+02  0.97203711966E+02  0.00000000000E+00 0. -1.
         21    1    1    2  505  501  0.11188851332E+03  0.10861725557E+03 -0.37248352392E+03  0.40380778003E+03  0.00000000000E+00 0.  1.
          2    1    1    2  501    0 -0.42034795076E+02 -0.54182649624E+02 -0.13557716349E+04  0.13575048470E+04  0.00000000000E+00 0.  1.
<scales pt_clust_3="45.49387" pt_clust_4="88.27385" pt_clust_5="14000.00000" pt_clust_6="68.93703"></scales>
<clustering>
<clus scale="   45.494">  1  3  2 -1</clus>
<clus scale="   68.937">  2  6  1 -1</clus>
<clus scale="   88.274">  1  4  2 -1</clus>
<clus scale="   45.494">  1  3  2 -1</clus>
</clustering>
</event>
<event>
 6    0  0.3522959E+002  0.2260890E+03  0.7546771E-02  0.1129423E+00
         21   -1    0    0  503  502  0.00000000000E+00  0.00000000000E+00  0.98122759309E+03  0.98122759309E+03  0.00000000000E+00 0. -1.
          2   -1    0    0  502    0 -0.00000000000E+00 -0.00000000000E+00 -0.19654342635E+04  0.19654342635E+04  0.00000000000E+00 0. -1.
         21    1    1    2  503  504 -0.11399962804E+03 -0.12196289688E+03  0.73446732354E+03  0.75320190703E+03  0.00000000000E+00 0. -1.
         21    1    1    2  504  505 -0.54285900141E+02 -0.13076146318E+02  0.17232861721E+03  0.18114937722E+03  0.00000000000E+00 0. -1.
         21    1    1    2  505  501  0.21647767083E+03  0.99993334956E+02 -0.17624774334E+03  0.29652068399E+03  0.00000000000E+00 0.  1.
          2    1    1    2  501    0 -0.48192142648E+02  0.35045708248E+02 -0.17147548678E+04  0.17157898884E+04  0.00000000000E+00 0. -1.
<scales pt_clust_3="37.38157" pt_clust_4="37.38157" pt_clust_5="216.65263" pt_clust_6="59.58762"></scales>
<clustering>
<clus scale="   37.382">  3  4 -1 -1</clus>
<clus scale="   59.588">  2  6  1 -1</clus>
<clus scale="  216.653">  2  5  1 -1</clus>
<clus scale="  226.089">  1  3  2 -1</clus>
</clustering>
</event>
<event>
 6    0  0.3522959E+002  0.1112254E+03  0.7546771E-02  0.1258317E+00
         21   -1    0    0  504  502  0.00000000000E+00  0.00000000000E+00  0.74506375412E+02  0.74506375412E+02  0.00000000000E+00 0.  1.
         -4   -1    0    0    0  501 -0.00000000000E+00 -0.00000000000E+00 -0.53563501383E+03  0.53563501383E+03  0.00000000000E+00 0. -1.
         21    1    1    2  503  502 -0.40502300809E+02  0.40047074736E+02 -0.15940477877E+02  0.59146457211E+02  0.00000000000E+00 0.  1.
         21    1    1    2  504  505  0.50235345207E+02  0.11056449761E+02  0.71969233200E+01  0.51938720572E+02  0.00000000000E+00 0.  1.
         21    1    1    2  505  501  0.56118109734E+02  0.27000179703E+02 -0.39559613285E+02  0.73778146814E+02  0.00000000000E+00 0.  1.
         -4    1    1    2    0  503 -0.65851154132E+02 -0.78103704200E+02 -0.41282547058E+03  0.42527806464E+03  0.00000000000E+00 0. -1.
<scales pt_clust_3="56.95792" pt_clust_4="40.62393" pt_clust_5="40.62393" pt_clust_6="101.84821"></scales>
<clustering>
<clus scale="   40.624">  4  5 -1 -1</clus>
<clus scale="   56.958">  1  3  2 -1</clus>
<clus scale="  101.848">  2  6  1 -1</clus>
<clus scale="   56.958">  1  3  2 -1</clus>
</clustering>
</event>
<event>
 6    0  0.3522959E+002  0.1767476E+03  0.7546771E-02  0.1170988E+00
          1   -1    0    0  503    0 -0.00000000000E+00  0.00000000000E+00  0.20881773076E+04  0.20881773076E+04  0.00000000000E+00 0.  1.
         21   -1    0    0  504  502  0.00000000000E+00 -0.00000000000E+00 -0.59663152026E+03  0.59663152026E+03  0.00000000000E+00 0. -1.
         21    1    1    2  503  502  0.87812428566E+02  0.49963473757E+02  0.69372511311E+03  0.70104343937E+03  0.00000000000E+00 0. -1.
         21    1    1    2  504  505 -0.93537918276E+02 -0.15206550526E+03 -0.55005717273E+03  0.57830455066E+03  0.00000000000E+00 0. -1.
         21    1    1    2  505  501  0.29672698245E+02  0.62551666243E+02  0.13815821762E+02  0.70597853380E+02  0.00000000000E+00 0.  1.
          1    1    1    2  501    0 -0.23947208535E+02  0.39550365259E+02  0.13340620252E+04  0.13348629845E+04  0.00000000000E+00 0.  1.
<scales pt_clust_3="176.74761" pt_clust_4="14000.00000" pt_clust_5="70.69211" pt_clust_6="46.23527"></scales>
<clustering>
<clus scale="   46.235">  1  6  2 -1</clus>
<clus scale="   70.692">  1  5  2 -1</clus>
<clus scale="  176.748">  1  3  2 -1</clus>
<clus scale="  176.748">  2  3  1 -1</clus>
</clustering>
</event>
<event>
 6    0  0.3522959E+002  0.1183548E+03  0.7546771E-02  0.1245836E+00
         21   -1    0    0  505  502  0.00000000000E+00  0.00000000000E+00  0.11861290120E+04  0.11861290120E+04  0.00000000000E+00 0. -1.
         -3   -1    0    0    0  501 -0.00000000000E+00 -0.00000000000E+00 -0.22766447117E+04  0.22766447117E+04  0.00000000000E+00 0. -1.
         21    1    1    2  503  501  0.10413858121E+03  0.85429187877E+02 -0.16233964815E+04  0.16289748698E+04  0.00000000000E+00 0. -1.
         21    1    1    2  504  502  0.52283449961E+02 -0.13040544345E+02  0.35824702559E+02  0.64707219459E+02  0.00000000000E+00 0.  1.
         21    1    1    2  505  503 -0.79930977405E+02 -0.13119728550E+02  0.11279324829E+04  0.11308372007E+04  0.00000000000E+00 0. -1.
         -3    1    1    2    0  504 -0.76491053763E+02 -0.59268914983E+02 -0.63087640371E+03  0.63825443387E+03  0.00000000000E+00 0. -1.
<scales pt_clust_3="118.35481" pt_clust_4="53.88520" pt_clust_5="38.22875" pt_clust_6="14000.00000"></scales>
<clustering>
<clus scale="   53.885">  1  4  2 -1</clus>
<clus scale="   38.229">  1  5  2 -1</clus>
<clus scale="  118.355">  2  3  1 -1</clus>
<clus scale="   53.885">  1  3  2 -1</clus>
</clustering>
</event>
<event>
 6    0  0.3522959E+002  0.2884605E+03  0.7546771E-02  0.1091156E+00
         21   -1    0    0  505  502  0.00000000000E+00  0.00000000000E+00  0.67474504572E+02  0.67474504572E+02  0.00000000000E+00 0. -1.
          2   -1    0    0  503    0 -0.00000000000E+00 -0.00000000000E+00 -0.15188723083E+04  0.15188723083E+04  0.00000000000E+00 0. -1.
         21    1    1    2  503  502 -0.24360000655E+02 -0.24081505565E+03 -0.11250269826E+04  0.11507697477E+04  0.00000000000E+00 0. -1.
         21    1    1    2  504  501  0.34860423860E+02  0.82154604189E+02 -0.90759352781E+02  0.12728663818E+03  0.00000000000E+00 0. -1.
         21    1    1    2  505  504  0.32579911172E+02  0.26699113233E+02 -0.98383295137E+01  0.43256051450E+02  0.00000000000E+00 0. -1.
          2    1    1    2  501    0 -0.43080334377E+02  0.13196133823E+03 -0.22577313882E+03  0.26503437553E+03  0.00000000000E+00 0. -1.
<scales pt_clust_3="242.04401" pt_clust_4="136.20341" pt_clust_5="34.81187" pt_clust_6="136.20341"></scales>
<clustering>
<clus scale="   34.812">  4  5 -1 -1</clus>
<clus scale="  136.203">  4  6 -1 -1</clus>
<clus scale="  242.044">  2  3  1 -1</clus>
<clus scale="  288.461">  1  3  2 -1</clus>
</clustering>
</event>
<event>
 6    0  0.3522959E+002  0.1873358E+03  0.7546771E-02  0.1160886E+00
          2   -1    0    0  504    0 -0.00000000000E+00  0.00000000000E+00  0.31689867684E+04  0.31689867684E+04  0.00000000000E+00 0. -1.
         21   -1    0    0  505  502  0.00000000000E+00 -0.00000000000E+00 -0.80810506054E+02  0.80810506054E+02  0.00000000000E+00 0. -1.
         21    1    1    2  503  502 -0.11847526231E+02 -0.98517425335E+02  0.14884593378E+03  0.17888867760E+03  0.00000000000E+00 0. -1.
         21    1    1    2  504  503 -0.30920494367E+02 -0.56984018802E+02  0.24175602110E+03  0.25029828028E+03  0.00000000000E+00 0. -1.
         21    1    1    2  505  501 -0.12838606176E+03  0.90558264991E+02  0.47377733743E+02  0.16409884176E+03  0.00000000000E+00 0. -1.
          2    1    1    2  501    0  0.17115408236E+03  0.64943179145E+02  0.26501965738E+04  0.26565114749E+04  0.00000000000E+00 0. -1.
<scales pt_clust_3="60.60618" pt_clust_4="60.60618" pt_clust_5="157.11073" pt_clust_6="171.67682"></scales>
<clustering>
<clus scale="   60.606">  3  4 -1 -1</clus>
<clus scale="  157.111">  2  5  1 -1</clus>
<clus scale="  171.677">  1  6  2 -1</clus>
<clus scale="  157.111">  2  3  1 -1</clus>
</clustering>
</event>
<event>
 6    0  0.3522959E+002  0.9544424E+02  0.7546771E-02  0.1290179E+00
         21   -1    0    0  501  502  0.00000000000E+00  0.00000000000E+00  0.11959152864E+03  0.11959152864E+03  0.00000000000E+00 0. -1.
         -3   -1    0    0    0  501 -0.00000000000E+00 -0.00000000000E+00 -0.40860472647E+03  0.40860472647E+03  0.00000000000E+00 0.  1.
         21    1    1    2  503  502 -0.20316386729E+02 -0.30180535242E+02  0.10231153810E+02  0.37792813940E+02  0.00000000000E+00 0. -1.
         21    1    1    2  504  505  0.89721861610E+02 -0.24783894474E+02 -0.27435169288E+02  0.97040931519E+02  0.00000000000E+00 0. -1.
         21    1    1    2  505  503 -0.89771240121E+02  0.25661640936E+02  0.23197312658E+02  0.96205564719E+02  0.00000000000E+00 0. -1.
         -3    1    1    2    0  504  0.20365765240E+02  0.29302788780E+02 -0.29500649501E+03  0.29715694493E+03  0.00000000000E+00 0.  1.
<scales pt_clust_3="32.01176" pt_clust_4="14000.00000" pt_clust_5="95.44424" pt_clust_6="35.68498"></scales>
<clustering>
<clus scale="   35.685">  2  6  1 -1</clus>
<clus scale="   32.012">  1  3  2 -1</clus>
<clus scale="   95.444">  1  5  2 -1</clus>
<clus scale="   32.012">  1  3  2 -1</clus>
</clustering>
</event>
<event>
 6    0  0.3522959E+002  0.1207891E+03  0.7546771E-02  0.1241801E+00
          1   -1    0    0  505    0 -0.00000000000E+00  0.00000000000E+00  0.21024492954E+04  0.21024492954E+04  0.00000000000E+00 0. -1.
         21   -1    0    0  504  502  0.00000000000E+00 -0.00000000000E+00 -0.22286146856E+02  0.22286146856E+02  0.00000000000E+00 0. -1.
         21    1    1    2  503  501 -0.54593388328E+02  0.36079688971E+02  0.10912836333E+03  0.12724457430E+03  0.00000000000E+00 0. -1.
         21    1    1    2  504  503 -0.59471942340E+02 -0.12263742492E+02  0.75225704136E+02  0.96675839114E+02  0.00000000000E+00 0. -1.
         21    1    1    2  505  502  0.56570661928E+02  0.20345632098E+02  0.60739869018E+03  0.61036657294E+03  0.00000000000E+00 0. -1.
          1    1    1    2  501    0  0.57494668740E+02 -0.44161578576E+02  0.12884103909E+04  0.12904484559E+04  0.00000000000E+00 0. -1.
<scales pt_clust_3="48.88997" pt_clust_4="48.88997" pt_clust_5="60.11809" pt_clust_6="109.60919"></scales>
<clustering>
<clus scale="   48.890">  3  4 -1 -1</clus>
<clus scale="   60.118">  1  5  2 -1</clus>
<clus scale="  109.609">  1  6  2 -1</clus>
<clus scale="  120.789">  2  3  1 -1</clus>
</clustering>
</event>
<event>
 6    0  0.3522959E+002  0.1380908E+03  0.7546771E-02  0.1215921E+00
         21   -1    0    0  505  502  0.00000000000E+00  0.00000000000E+00  0.41482335060E+03  0.41482335060E+03  0.00000000000E+00 0.  1.
          2   -1    0    0  503    0 -0.00000000000E+00 -0.00000000000E+00 -0.24004898874E+04  0.24004898874E+04  0.00000000000E+00 0. -1.
         21    1    1    2  503  504  0.30887023976E+01 -0.10603257420E+03  0.26007202546E+03  0.28087346849E+03  0.00000000000E+00 0.  1.
         21    1    1    2  504  502 -0.28865885249E+02  0.24936725828E+02  0.11031671053E+03  0.11672555953E+03  0.00000000000E+00 0.  1.
         21    1    1    2  505  501 -0.46729130932E+02 -0.36863548828E+02 -0.19609902569E+01  0.59551476830E+02  0.00000000000E+00 0.  1.
          2    1    1    2  501    0  0.72506313784E+02  0.11795939720E+03 -0.23540942826E+04  0.23581627332E+04  0.00000000000E+00 0. -1.
<scales pt_clust_3="14000.00000" pt_clust_4="38.14551" pt_clust_5="60.31534" pt_clust_6="138.09082"></scales>
<clustering>
<clus scale="   38.146">  1  4  2 -1</clus>
<clus scale="   60.315">  1  5  2 -1</clus>
<clus scale="  138.091">  2  6  1 -1</clus>
<clus scale="   38.146">  1  3  2 -1</clus>
</clustering>
</event>
<event>
 6    0  0.3522959E+002  0.1192449E+03  0.7546771E-02  0.1244348E+00
         21   -1    0    0  503  502  0.00000000000E+00  0.00000000000E+00  0.26594023064E+03  0.26594023064E+03  0.00000000000E+00 0.  1.
          1   -1    0    0  505    0 -0.00000000000E+00 -0.00000000000E+00 -0.10430524861E+04  0.10430524861E+04  0.00000000000E+00 0. -1.
         21    1    1    2  503  504  0.63614951845E+02 -0.13951668770E+02  0.34413276739E+02  0.73659926525E+02  0.00000000000E+00 0.  1.
         21    1    1    2  504  501  0.27298477755E+02  0.83325579308E+02 -0.66692811728E+02  0.11016483192E+03  0.00000000000E+00 0. -1.
         21    1    1    2  505  502 -0.16741570968E+03  0.21923647671E+02  0.14793772014E+03  0.22448660364E+03  0.00000000000E+00 0.  1.
          1    1    1    2  501    0  0.76502280083E+02 -0.91297558209E+02 -0.89277044060E+03  0.90068135464E+03  0.00000000000E+00 0. -1.
<scales pt_clust_3="65.12689" pt_clust_4="88.60449" pt_clust_5="119.24492" pt_clust_6="14000.00000"></scales>
<clustering>
<clus scale="   65.127">  1  3  2 -1</clus>
<clus scale="   88.604">  1  4  2 -1</clus>
<clus scale="  119.245">  1  5  2 -1</clus>
<clus scale="   65.127">  1  3  2 -1</clus>
</clustering>
</event>
<event>
 6    0  0.3522959E+002  0.1156633E+03  0.7546771E-02  0.1250428E+00
         21   -1    0    0  505  502  0.00000000000E+00  0.00000000000E+00  0.12373422491E+03  0.12373422491E+03  0.00000000000E+00 0. -1.
          2   -1    0    0  504    0 -0.00000000000E+00 -0.00000000000E+00 -0.81800303194E+03  0.81800303194E+03  0.00000000000E+00 0.  1.
         21    1    1    2  503  502  0.10646834567E+03  0.20825010902E+01  0.68213925349E+02  0.12646337435E+03  0.00000000000E+00 0. -1.
         21    1    1    2  504  503 -0.53204495079E+02  0.38885573799E+01 -0.12155231033E+03  0.13274337393E+03  0.00000000000E+00 0. -1.
         21    1    1    2  505  501  0.10905968477E+02 -0.30248079864E+02  0.53693502374E+01  0.32599331371E+02  0.00000000000E+00 0. -1.
          2    1    1    2  501    0 -0.64169819069E+02  0.24277021394E+02 -0.64629977228E+03  0.64993117720E+03  0.00000000000E+00 0.  1.
<scales pt_clust_3="14000.00000" pt_clust_4="52.67098" pt_clust_5="32.15411" pt_clust_6="115.66330"></scales>
<clustering>
<clus scale="   32.154">  1  5  2 -1</clus>
<clus scale="   52.671">  2  4  1 -1</clus>
<clus scale="  115.663">  2  6  1 -1</clus>
<clus scale="   32.154">  1  3  2 -1</clus>
</clustering>
</event>
<event>
 6    0  0.3522959E+002  0.9828480E+02  0.7546771E-02  0.1283945E+00
         21   -1    0    0  505  502  0.00000000000E+00  0.00000000000E+00  0.14508873750E+04  0.14508873750E+04  0.00000000000E+00 0.  1.
         -1   -1    0    0    0  501 -0.00000000000E+00 -0.00000000000E+00 -0.65177786859E+03  0.65177786859E+03  0.00000000000E+00 0.  1.
         21    1    1    2  503  502 -0.18272885529E+02  0.48630788149E+02  0.79784450832E+03  0.79953405891E+03  0.00000000000E+00 0.  1.
         21    1    1    2  504  503  0.80503358815E+01 -0.13222847412E+03  0.54858510975E+03  0.56435343528E+03  0.00000000000E+00 0.  1.
         21    1    1    2  505  501 -0.47209563739E+02  0.38770358109E+01  0.85838510312E+02  0.98040931083E+02  0.00000000000E+00 0. -1.
         -1    1    1    2    0  504  0.57432113386E+02  0.79720650156E+02 -0.63315862199E+03  0.64073681829E+03  0.00000000000E+00 0.  1.
<scales pt_clust_3="68.62605" pt_clust_4="14000.00000" pt_clust_5="47.36849" pt_clust_6="98.28480"></scales>
<clustering>
<clus scale="   47.368">  1  5  2 -1</clus>
<clus scale="   68.626">  1  3  2 -1</clus>
<clus scale="   98.285">  2  6  1 -1</clus>
<clus scale="   47.368">  1  3  2 -1</clus>
</clustering>
</event>
<event>
 6    0  0.3522959E+002  0.1300317E+03  0.7546771E-02  0.1227409E+00
         21   -1    0    0  503  502  0.00000000000E+00  0.00000000000E+00  0.35116845142E+02  0.35116845142E+02  0.00000000000E+00 0. -1.
          2   -1    0    0  504    0 -0.00000000000E+00 -0.00000000000E+00 -0.22325295477E+04  0.22325295477E+04  0.00000000000E+00 0. -1.
         21    1    1    2  503  505 -0.35307114726E+02  0.28965695883E+02 -0.23601213543E+02  0.51406431203E+02  0.00000000000E+00 0. -1.
         21    1    1    2  504  502  0.43154600398E+02  0.48953804171E+02 -0.41836762305E+03  0.42342680890E+03  0.00000000000E+00 0. -1.
         21    1    1    2  505  501 -0.83622875982E+02 -0.11256952387E+02 -0.86561015803E+02  0.12088140395E+03  0.00000000000E+00 0. -1.
          2    1    1    2  501    0  0.75775390311E+02 -0.66662547667E+02 -0.16688828502E+04  0.16719317488E+04  0.00000000000E+00 0. -1.
<scales pt_clust_3="40.89172" pt_clust_4="65.25944" pt_clust_5="40.89172" pt_clust_6="117.55338"></scales>
<clustering>
<clus scale="   40.892">  3  5 -1 -1</clus>
<clus scale="   65.259">  2  4  1 -1</clus>
<clus scale="  117.553">  2  6  1 -1</clus>
<clus scale="  130.032">  1  3  2 -1</clus>
</clustering>
</event>
<event>
 6    0  0.7642440E+002  0.8417217E+02  0.7546771E-02  0.1317612E+00
          2   -1    0    0  504    0 -0.00000000000E+00  0.00000000000E+00  0.22422443982E+04  0.22422443982E+04  0.00000000000E+00 0.  1.
         21   -1    0    0  505  502  0.00000000000E+00 -0.00000000000E+00 -0.96279519244E+02  0.96279519244E+02  0.00000000000E+00 0. -1.
         21    1    1    2  503  501 -0.13451394759E+02 -0.33765902996E+02  0.58323066554E+02  0.68721585534E+02  0.00000000000E+00 0. -1.
         21    1    1    2  504  502  0.69306684763E+02  0.13126690272E+03 -0.45893986312E+01  0.14851087126E+03  0.00000000000E+00 0. -1.
         21    1    1    2  505  503 -0.27424258233E+01 -0.33065917174E+02  0.64020045589E+01  0.33791440341E+02  0.00000000000E+00 0. -1.
          2    1    1    2  501    0 -0.53112864181E+02 -0.64435082551E+02  0.20858292064E+04  0.20875000203E+04  0.00000000000E+00 0.  1.
<scales pt_clust_3="38.34927" pt_clust_4="84.17217" pt_clust_5="33.17945" pt_clust_6="14000.00000"></scales>
<clustering>
<clus scale="   33.179">  2  5  1 -1</clus>
<clus scale="   38.349">  2  3  1 -1</clus>
<clus scale="   84.172">  2  4  1 -1</clus>
<clus scale="   33.179">  2  3  1 -1</clus>
</clustering>
</event>
<event>
 6    0  0.3522959E+002  0.1065263E+03  0.7546771E-02  0.1267141E+00
         21   -1    0    0  501  502  0.00000000000E+00  0.00000000000E+00  0.55443791599E+03  0.55443791599E+03  0.00000000000E+00 0. -1.
          3   -1    0    0  503    0 -0.00000000000E+00 -0.00000000000E+00 -0.40860867616E+02  0.40860867616E+02  0.00000000000E+00 0. -1.
         21    1    1    2  503  505 -0.58040827827E+02 -0.33939243153E+02  0.97050672165E+02  0.11806541783E+03  0.00000000000E+00 0. -1.
         21    1    1    2  504  502 -0.47165159581E+02  0.41436274441E+02  0.20488501239E+03  0.21428808977E+03  0.00000000000E+00 0. -1.
         21    1    1    2  505  504 -0.77552464570E+01  0.34225760609E+02  0.57174160479E+02  0.67085252949E+02  0.00000000000E+00 0.  1.
          3    1    1    2  501    0  0.11296123387E+03 -0.41722791897E+02  0.15446720334E+03  0.19586002305E+03  0.00000000000E+00 0. -1.
<scales pt_clust_3="67.23548" pt_clust_4="31.32057" pt_clust_5="31.32057" pt_clust_6="97.94339"></scales>
<clustering>
<clus scale="   31.321">  4  5 -1 -1</clus>
<clus scale="   67.235">  2  3  1 -1</clus>
<clus scale="   97.943">  2  6  1 -1</clus>
<clus scale="  106.526">  1  3  2 -1</clus>
</clustering>
</event>
<event>
 6    0  0.3522959E+002  0.8092413E+02  0.7546771E-02  0.1326449E+00
         21   -1    0    0  504  502  0.00000000000E+00  0.00000000000E+00  0.12838952456E+04  0.12838952456E+04  0.00000000000E+00 0.  1.
         -4   -1    0    0    0  501 -0.00000000000E+00 -0.00000000000E+00 -0.90198707741E+02  0.90198707741E+02  0.00000000000E+00 0.  1.
         21    1    1    2  503  502 -0.49958630108E+02  0.20295181058E+02  0.26624407039E+03  0.27164989253E+03  0.00000000000E+00 0.  1.
         21    1    1    2  504  501 -0.32905620564E+02 -0.19185918039E+02  0.96372264005E+02  0.10362669823E+03  0.00000000000E+00 0.  1.
         21    1    1    2  505  503  0.15253950525E+03 -0.38938121883E+02  0.88759865324E+03  0.90145207706E+03  0.00000000000E+00 0.  1.
         -4    1    1    2    0  505 -0.69675254576E+02  0.37828858865E+02 -0.56518449765E+02  0.97365285534E+02  0.00000000000E+00 0.  1.
<scales pt_clust_3="59.60389" pt_clust_4="38.09041" pt_clust_5="14000.00000" pt_clust_6="80.92413"></scales>
<clustering>
<clus scale="   38.090">  1  4  2 -1</clus>
<clus scale="   59.604">  1  3  2 -1</clus>
<clus scale="   80.924">  2  6  1 -1</clus>
<clus scale="   38.090">  1  3  2 -1</clus>
</clustering>
</event>
<event>
 6    0  0.3522959E+002  0.9840825E+02  0.7546771E-02  0.1283679E+00
         21   -1    0    0  505  502  0.00000000000E+00  0.00000000000E+00  0.34463971509E+03  0.34463971509E+03  0.00000000000E+00 0. -1.
          2   -1    0    0  503    0 -0.00000000000E+00 -0.00000000000E+00 -0.10978762979E+04  0.10978762979E+04  0.00000000000E+00 0.  1.
         21    1    1    2  503  504 -0.40468920898E+02  0.53344066559E+02 -0.32194234430E+01  0.67034973581E+02  0.00000000000E+00 0. -1.
         21    1    1    2  504  502  0.80915604621E+02 -0.65714806074E+02  0.25237844825E+03  0.27305796445E+03  0.00000000000E+00 0. -1.
         21    1    1    2  505  501 -0.14723697494E+02 -0.30179197332E+02  0.43719624001E+02  0.55126914863E+02  0.00000000000E+00 0. -1.
          2    1    1    2  501    0 -0.25722986229E+02  0.42549936847E+02 -0.10461152316E+04  0.10472961601E+04  0.00000000000E+00 0.  1.
<scales pt_clust_3="14000.00000" pt_clust_4="98.40825" pt_clust_5="33.57933" pt_clust_6="49.68452"></scales>
<clustering>
<clus scale="   33.579">  1  5  2 -1</clus>
<clus scale="   49.685">  2  6  1 -1</clus>
<clus scale="   98.408">  1  4  2 -1</clus>
<clus scale="   33.579">  1  3  2 -1</clus>
</clustering>
</event>
<event>
 6    0  0.3522959E+002  0.1126905E+03  0.7546771E-02  0.1255667E+00
          2   -1    0    0  505    0 -0.00000000000E+00  0.00000000000E+00  0.49942077192E+03  0.49942077192E+03  0.00000000000E+00 0. -1.
         21   -1    0    0  503  502  0.00000000000E+00 -0.00000000000E+00 -0.42608235394E+02  0.42608235394E+02  0.00000000000E+00 0. -1.
         21    1    1    2  503  504  0.38748855711E+02  0.23720838119E+02  0.39798291295E+02  0.60399138818E+02  0.00000000000E+00 0.  1.
         21    1    1    2  504  501  0.83231505809E+02  0.24799248101E+02  0.17229941604E+03  0.19294966969E+03  0.00000000000E+00 0. -1.
         21    1    1    2  505  502 -0.80019056830E+02 -0.43341249880E+02  0.88855553269E+02  0.12718813916E+03  0.00000000000E+00 0. -1.
          2    1    1    2  501    0 -0.41961304690E+02 -0.51788363400E+01  0.15585927593E+03  0.16149205965E+03  0.00000000000E+00 0. -1.
<scales pt_clust_3="32.07628" pt_clust_4="32.07628" pt_clust_5="103.59716" pt_clust_6="42.27968"></scales>
<clustering>
<clus scale="   32.076">  3  4 -1 -1</clus>
<clus scale="   42.280">  1  6  2 -1</clus>
<clus scale="  103.597">  2  5  1 -1</clus>
<clus scale="  103.597">  2  3  1 -1</clus>
</clustering>
</event>
<event>
 6    0  0.3522959E+002  0.6209510E+02  0.7546771E-02  0.1389244E+00
         -1   -1    0    0    0  501 -0.00000000000E+00  0.00000000000E+00  0.40708771735E+04  0.40708771735E+04  0.00000000000E+00 0.  1.
         21   -1    0    0  504  502  0.00000000000E+00 -0.00000000000E+00 -0.21610228547E+02  0.21610228547E+02  0.00000000000E+00 0. -1.
         21    1    1    2  503  501  0.21427154753E+02 -0.95956844464E+02  0.28178250874E+03  0.29844299488E+03  0.00000000000E+00 0. -1.
         21    1    1    2  504  503 -0.56965275804E+02  0.54865475883E+01  0.66121124962E+02  0.87447973208E+02  0.00000000000E+00 0. -1.
         21    1    1    2  505  502  0.24617597821E+02  0.30272878119E+02  0.15944838589E+03  0.16415316334E+03  0.00000000000E+00 0.  1.
         -1    1    1    2    0  505  0.10920523231E+02  0.60197418757E+02  0.35419149254E+04  0.35424432706E+04  0.00000000000E+00 0.  1.
<scales pt_clust_3="62.09510" pt_clust_4="48.71209" pt_clust_5="39.01888" pt_clust_6="14000.00000"></scales>
<clustering>
<clus scale="   39.019">  2  5  1 -1</clus>
<clus scale="   48.712">  2  4  1 -1</clus>
<clus scale="   62.095">  2  3  1 -1</clus>
<clus scale="   39.019">  2  3  1 -1</clus>
</clustering>
</event>
<event>
 6    0  0.3522959E+002  0.9229699E+02  0.7546771E-02  0.1297383E+00
          2   -1    0    0  505    0 -0.00000000000E+00  0.00000000000E+00  0.10523338948E+04  0.10523338948E+04  0.00000000000E+00 0.  1.
         21   -1    0    0  503  502  0.00000000000E+00 -0.00000000000E+00 -0.45843516247E+03  0.45843516247E+03  0.00000000000E+00 0.  1.
         21    1    1    2  503  501  0.63371998486E+02 -0.13137976648E+03  0.14294210880E+02  0.14656390311E+03  0.00000000000E+00 0.  1.
         21    1    1    2  504  502  0.54646732043E-01  0.42324546567E+02 -0.65965472721E+02  0.78376104902E+02  0.00000000000E+00 0. -1.
         21    1    1    2  505  504 -0.70492428820E+02  0.15315500427E+02 -0.31462092889E+03  0.32278487568E+03  0.00000000000E+00 0.  1.
          2    1    1    2  501    0  0.70657836013E+01  0.73739719481E+02  0.96019092303E+03  0.96304417355E+03  0.00000000000E+00 0.  1.
<scales pt_clust_3="92.29699" pt_clust_4="42.32458" pt_clust_5="14000.00000" pt_clust_6="74.23310"></scales>
<clustering>
<clus scale="   42.325">  2  4  1 -1</clus>
<clus scale="   74.233">  1  6  2 -1</clus>
<clus scale="   92.297">  1  3  2 -1</clus>
<clus scale="   42.325">  2  3  1 -1</clus>
</clustering>
</event>
<event>
 6    0  0.3522959E+002  0.1241229E+03  0.7546771E-02  0.1236446E+00
         -3   -1    0    0    0  501 -0.00000000000E+00  0.00000000000E+00  0.29205080326E+03  0.29205080326E+03  0.00000000000E+00 0.  1.
         21   -1    0    0  503  502  0.00000000000E+00 -0.00000000000E+00 -0.22527407977E+03  0.22527407977E+03  0.00000000000E+00 0.  1.
         21    1    1    2  503  505 -0.21536118444E+01 -0.11221349005E+03  0.13932885440E+03  0.17891069019E+03  0.00000000000E+00 0. -1.
         21    1    1    2  504  502 -0.48058350854E+01  0.12569746761E+03 -0.15781544813E+03  0.20181344128E+03  0.00000000000E+00 0.  1.
         21    1    1    2  505  501 -0.31394827473E+02 -0.30736098733E+02  0.27907155267E+01  0.44024209823E+02  0.00000000000E+00 0. -1.
         -3    1    1    2    0  504  0.38354274403E+02  0.17252121182E+02  0.82472601686E+02  0.92576541732E+02  0.00000000000E+00 0.  1.
<scales pt_clust_3="124.12288" pt_clust_4="14000.00000" pt_clust_5="39.45272" pt_clust_6="42.05575"></scales>
<clustering>
<clus scale="   42.056">  1  6  2 -1</clus>
<clus scale="   39.453">  1  5  2 -1</clus>
<clus scale="  124.123">  1  3  2 -1</clus>
<clus scale="  124.123">  2  3  1 -1</clus>
</clustering>
</event>
<event>
 6    0  0.3522959E+002  0.1238325E+03  0.7546771E-02  0.1236905E+00
          1   -1    0    0  505    0 -0.00000000000E+00  0.00000000000E+00  0.14063837268E+03  0.14063837268E+03  0.00000000000E+00 0.  1.
         21   -1    0    0  504  502  0.00000000000E+00 -0.00000000000E+00 -0.16708626095E+03  0.16708626095E+03  0.00000000000E+00 0. -1.
         21    1    1    2  503  501 -0.25238246812E+02 -0.72358106714E+02  0.13031197186E+02  0.77733369987E+02  0.00000000000E+00 0. -1.
         21    1    1    2  504  503  0.19041654998E+02 -0.52100607218E+02 -0.20538195461E+02  0.59151292212E+02  0.00000000000E+00 0. -1.
         21    1    1    2  505  502  0.33725030402E+02  0.99326527755E+02 -0.55461730390E+02  0.11865555330E+03  0.00000000000E+00 0.  1.
          1    1    1    2  501    0 -0.27528438589E+02  0.25132186177E+02  0.36520840393E+02  0.52184418135E+02  0.00000000000E+00 0.  1.
<scales pt_clust_3="46.44345" pt_clust_4="46.44345" pt_clust_5="110.37118" pt_clust_6="37.27522"></scales>
<clustering>
<clus scale="   37.275">  1  6  2 -1</clus>
<clus scale="   46.443">  3  4 -1 -1</clus>
<clus scale="  110.371">  2  5  1 -1</clus>
<clus scale="  110.371">  2  3  1 -1</clus>
</clustering>
</event>
<event>
 6    0  0.3522959E+002  0.9628585E+02  0.7546771E-02  0.1288306E+00
          2   -1    0    0  503    0 -0.00000000000E+00  0.00000000000E+00  0.93537090809E+03  0.93537090809E+03  0.00000000000E+00 0.  1.
         21   -1    0    0  505  502  0.00000000000E+00 -0.00000000000E+00 -0.17800804462E+03  0.17800804462E+03  0.00000000000E+00 0. -1.
         21    1    1    2  503  504  0.11249960586E+02 -0.51308243925E+02  0.15222752420E+03  0.16103514098E+03  0.00000000000E+00 0.  1.
         21    1    1    2  504  502  0.57352401884E+02 -0.73124892173E+02 -0.11810984765E+03  0.15028800341E+03  0.00000000000E+00 0. -1.
         21    1    1    2  505  501 -0.38366975984E+02  0.11594567277E+03  0.56488430616E+02  0.13455989994E+03  0.00000000000E+00 0.  1.
          2    1    1    2  501    0 -0.30235386486E+02  0.84874633321E+01  0.66675675630E+03  0.66749590838E+03  0.00000000000E+00 0.  1.
<scales pt_clust_3="46.79272" pt_clust_4="14000.00000" pt_clust_5="96.28585" pt_clust_6="31.40407"></scales>
<clustering>
<clus scale="   31.404">  1  6  2 -1</clus>
<clus scale="   46.793">  1  3  2 -1</clus>
<clus scale="   96.286">  1  5  2 -1</clus>
<clus scale="   96.286">  2  3  1 -1</clus>
</clustering>
</event>
<event>
 6    0  0.3522959E+002  0.6264180E+02  0.7546771E-02  0.1387068E+00
          2   -1    0    0  505    0 -0.00000000000E+00  0.00000000000E+00  0.11277567709E+04  0.11277567709E+04  0.00000000000E+00 0. -1.
         21   -1    0    0  504  502  0.00000000000E+00 -0.00000000000E+00 -0.33002148160E+02  0.33002148160E+02  0.00000000000E+00 0. -1.
         21    1    1    2  503  502  0.10063593916E+02  0.51745792653E+02  0.25758307198E+02  0.58671912952E+02  0.00000000000E+00 0. -1.
         21    1    1    2  504  501 -0.54276142498E+02 -0.64780100340E+02  0.14328150730E+03  0.16634888451E+03  0.00000000000E+00 0. -1.
         21    1    1    2  505  503  0.75396321970E+02  0.44665484403E+02  0.49091544352E+03  0.49867583013E+03  0.00000000000E+00 0. -1.
          2    1    1    2  501    0 -0.31183773388E+02 -0.31631176716E+02  0.43479936476E+03  0.43706229151E+03  0.00000000000E+00 0. -1.
<scales pt_clust_3="50.47968" pt_clust_4="62.64180" pt_clust_5="14000.00000" pt_clust_6="44.41800"></scales>
<clustering>
<clus scale="   44.418">  1  6  2 -1</clus>
<clus scale="   50.480">  2  3  1 -1</clus>
<clus scale="   62.642">  2  4  1 -1</clus>
<clus scale="   50.480">  2  3  1 -1</clus>
</clustering>
</event>
<event>
 6    0  0.3522959E+002  0.3256185E+03  0.7546771E-02  0.1073092E+00
         21   -1    0    0  501  502  0.00000000000E+00  0.00000000000E+00  0.11483425374E+03  0.11483425374E+03  0.00000000000E+00 0.  1.
          2   -1    0    0  504    0 -0.00000000000E+00 -0.00000000000E+00 -0.12080797993E+04  0.12080797993E+04  0.00000000000E+00 0.  1.
         21    1    1    2  503  505  0.72075351679E+01  0.22099204582E+03 -0.32328347556E+03  0.39166521220E+03  0.00000000000E+00 0.  1.
         21    1    1    2  504  503 -0.11299513182E+03 -0.29429760496E+03 -0.49698592164E+03  0.58853545892E+03  0.00000000000E+00 0.  1.
         21    1    1    2  505  502  0.23554341257E+02  0.10830137783E+03 -0.10619754608E+03  0.15349890627E+03  0.00000000000E+00 0.  1.
          2    1    1    2  501    0  0.82233255400E+02 -0.34995818692E+02 -0.16677860230E+03  0.18921447568E+03  0.00000000000E+00 0.  1.
<scales pt_clust_3="41.09746" pt_clust_4="320.40269" pt_clust_5="41.09746" pt_clust_6="89.37010"></scales>
<clustering>
<clus scale="   41.097">  3  5 -1 -1</clus>
<clus scale="   89.370">  2  6  1 -1</clus>
<clus scale="  320.403">  2  4  1 -1</clus>
<clus scale="  325.618">  1  3  2 -1</clus>
</clustering>
</event>
<event>
 6    0  0.3522959E+002  0.1033150E+03  0.7546771E-02  0.1273475E+00
         21   -1    0    0  501  502  0.00000000000E+00  0.00000000000E+00  0.18267795145E+03  0.18267795145E+03  0.00000000000E+00 0. -1.
          2   -1    0    0  505    0 -0.00000000000E+00 -0.00000000000E+00 -0.24467331377E+03  0.24467331377E+03  0.00000000000E+00 0. -1.
         21    1    1    2  503  504  0.24107119968E+02 -0.84402640924E+02  0.64183255813E+02  0.10874028396E+03  0.00000000000E+00 0. -1.
         21    1    1    2  504  502  0.29486057580E+02 -0.18686620412E+02  0.67647481996E+02  0.76123578439E+02  0.00000000000E+00 0. -1.
         21    1    1    2  505  503  0.19909116859E+02  0.47008080143E+02 -0.49638405623E+02  0.71204661685E+02  0.00000000000E+00 0. -1.
          2    1    1    2  501    0 -0.73502294406E+02  0.56081181192E+02 -0.14418769451E+03  0.17128274114E+03  0.00000000000E+00 0. -1.
<scales pt_clust_3="103.31500" pt_clust_4="34.90870" pt_clust_5="50.60590" pt_clust_6="14000.00000"></scales>
<clustering>
<clus scale="   34.909">  1  4  2 -1</clus>
<clus scale="   50.606">  2  5  1 -1</clus>
<clus scale="  103.315">  1  3  2 -1</clus>
<clus scale="   34.909">  1  3  2 -1</clus>
</clustering>
</event>
<event>
 6    0  0.3522959E+002  0.1529689E+03  0.7546771E-02  0.1196872E+00
          2   -1    0    0  505    0 -0.00000000000E+00  0.00000000000E+00  0.18585238174E+04  0.18585238174E+04  0.00000000000E+00 0. -1.
         21   -1    0    0  503  502  0.00000000000E+00 -0.00000000000E+00 -0.79942403771E+03  0.79942403771E+03  0.00000000000E+00 0.  1.
         21    1    1    2  503  504 -0.18400508192E+03 -0.55333614702E+02 -0.33740462574E+03  0.38828026033E+03  0.00000000000E+00 0.  1.
         21    1    1    2  504  501  0.60614721288E+02  0.20102296607E+02  0.10628546102E+04  0.10647714164E+04  0.00000000000E+00 0. -1.
         21    1    1    2  505  502  0.11692013573E+03  0.73252030205E+02 -0.42419583643E+03  0.44606982157E+03  0.00000000000E+00 0.  1.
          2    1    1    2  501    0  0.64702248964E+01 -0.38020712109E+02  0.75784563170E+03  0.75882635685E+03  0.00000000000E+00 0. -1.
<scales pt_clust_3="152.96893" pt_clust_4="68.91542" pt_clust_5="14000.00000" pt_clust_6="38.56732"></scales>
<clustering>
<clus scale="   38.567">  1  6  2 -1</clus>
<clus scale="   68.915">  1  4  2 -1</clus>
<clus scale="  152.969">  1  3  2 -1</clus>
<clus scale="  152.969">  2  3  1 -1</clus>
</clustering>
</event>
<event>
 6    0  0.3522959E+002  0.6168284E+02  0.7546771E-02  0.1390902E+00
         21   -1    0    0  505  502  0.00000000000E+00  0.00000000000E+00  0.74034121602E+03  0.74034121602E+03  0.00000000000E+00 0. -1.
          2   -1    0    0  504    0 -0.00000000000E+00 -0.00000000000E+00 -0.33245077163E+03  0.33245077163E+03  0.00000000000E+00 0. -1.
         21    1    1    2  503  502  0.40438570547E+02 -0.34345001352E+02  0.13294897989E+03  0.14314429209E+03  0.00000000000E+00 0.  1.
         21    1    1    2  504  503 -0.25802019539E+02 -0.57185853972E+02  0.18942487405E+02  0.65534601059E+02  0.00000000000E+00 0.  1.
         21    1    1    2  505  501 -0.62132663908E+02  0.51617824159E+02  0.55393129637E+03  0.55978991487E+03  0.00000000000E+00 0. -1.
          2    1    1    2  501    0  0.47496112900E+02  0.39913031164E+02 -0.29793231926E+03  0.30432317963E+03  0.00000000000E+00 0. -1.
<scales pt_clust_3="53.05523" pt_clust_4="14000.00000" pt_clust_5="31.73102" pt_clust_6="61.68284"></scales>
<clustering>
<clus scale="   53.055">  1  3  2 -1</clus>
<clus scale="   31.731">  1  5  2 -1</clus>
<clus scale="   61.683">  2  6  1 -1</clus>
<clus scale="   53.055">  1  3  2 -1</clus>
</clustering>
</event>
<event>
 6    0  0.3522959E+002  0.7302958E+02  0.7546771E-02  0.1350084E+00
          2   -1    0    0  505    0 -0.00000000000E+00  0.00000000000E+00  0.31413145828E+04  0.31413145828E+04  0.00000000000E+00 0.  1.
         21   -1    0    0  503  502  0.00000000000E+00 -0.00000000000E+00 -0.12613579763E+03  0.12613579763E+03  0.00000000000E+00 0.  1.
         21    1    1    2  503  501 -0.14434726337E+02  0.43544383083E+02  0.49391672881E+02  0.67409286990E+02  0.00000000000E+00 0. -1.
         21    1    1    2  504  502  0.57299636727E+02 -0.99994393159E+02 -0.85597625455E+02  0.14355863093E+03  0.00000000000E+00 0.  1.
         21    1    1    2  505  504 -0.29880855082E+02  0.84664996080E+02  0.82327139221E+03  0.82815265036E+03  0.00000000000E+00 0.  1.
          2    1    1    2  501    0 -0.12984055308E+02 -0.28214986003E+02  0.22281133455E+04  0.22283298121E+04  0.00000000000E+00 0.  1.
<scales pt_clust_3="44.44361" pt_clust_4="14000.00000" pt_clust_5="73.02958" pt_clust_6="31.05916"></scales>
<clustering>
<clus scale="   31.059">  1  6  2 -1</clus>
<clus scale="   44.444">  2  3  1 -1</clus>
<clus scale="   73.030">  1  5  2 -1</clus>
<clus scale="   44.444">  2  3  1 -1</clus>
</clustering>
</event>
<event>
 6    0  0.3522959E+002  0.1309404E+03  0.7546771E-02  0.1226067E+00
         21   -1    0    0  503  502  0.00000000000E+00  0.00000000000E+00  0.13817451685E+04  0.13817451685E+04  0.00000000000E+00 0. -1.
         -1   -1    0    0    0  501 -0.00000000000E+00 -0.00000000000E+00 -0.11842721579E+04  0.11842721579E+04  0.00000000000E+00 0.  1.
         21    1    1    2  503  501  0.41009290970E+02  0.94580672436E+02  0.16033904217E+03  0.19061971039E+03  0.00000000000E+00 0. -1.
         21    1    1    2  504  505  0.43308288536E+02  0.75019865931E+02 -0.13945049027E+03  0.16416463498E+03  0.00000000000E+00 0.  1.
         21    1    1    2  505  502 -0.12982965580E+03 -0.19735809270E+03  0.11815097645E+04  0.12048947173E+04  0.00000000000E+00 0. -1.
         -1    1    1    2    0  504  0.45512076292E+02  0.27757554334E+02 -0.10049253058E+04  0.10063382638E+04  0.00000000000E+00 0.  1.
<scales pt_clust_3="106.81319" pt_clust_4="14000.00000" pt_clust_5="130.94036" pt_clust_6="53.30883"></scales>
<clustering>
<clus scale="   53.309">  2  6  1 -1</clus>
<clus scale="  106.813">  1  3  2 -1</clus>
<clus scale="  130.940">  1  5  2 -1</clus>
<clus scale="  106.813">  1  3  2 -1</clus>
</clustering>
</event>
<event>
 6    0  0.3522959E+002  0.1592836E+03  0.7546771E-02  0.1189508E+00
         21   -1    0    0  505  502  0.00000000000E+00  0.00000000000E+00  0.50625312138E+03  0.50625312138E+03  0.00000000000E+00 0. -1.
          2   -1    0    0  503    0 -0.00000000000E+00 -0.00000000000E+00 -0.19041517721E+04  0.19041517721E+04  0.00000000000E+00 0. -1.
         21    1    1    2  503  502  0.10502080128E+02 -0.33108356407E+02 -0.99307914304E+02  0.10520702826E+03  0.00000000000E+00 0.  1.
         21    1    1    2  504  501  0.28612712404E+02  0.82512485077E+02  0.26254725274E+03  0.27669126735E+03  0.00000000000E+00 0. -1.
         21    1    1    2  505  504 -0.87251812368E+01  0.71607659462E+02  0.22588970285E+03  0.23712853801E+03  0.00000000000E+00 0. -1.
          2    1    1    2  501    0 -0.30389611295E+02 -0.12101178813E+03 -0.17870276920E+04  0.17913780599E+04  0.00000000000E+00 0. -1.
<scales pt_clust_3="34.73409" pt_clust_4="32.66295" pt_clust_5="32.66295" pt_clust_6="155.17621"></scales>
<clustering>
<clus scale="   32.663">  4  5 -1 -1</clus>
<clus scale="   34.734">  2  3  1 -1</clus>
<clus scale="  155.176">  2  6  1 -1</clus>
<clus scale="  159.284">  1  3  2 -1</clus>
</clustering>
</event>
<event>
 6    0  0.3522959E+002  0.7171265E+02  0.7546771E-02  0.1354364E+00
         21   -1    0    0  505  502  0.00000000000E+00  0.00000000000E+00  0.50176656768E+03  0.50176656768E+03  0.00000000000E+00 0.  1.
          2   -1    0    0  503    0 -0.00000000000E+00 -0.00000000000E+00 -0.47180337523E+03  0.47180337523E+03  0.00000000000E+00 0.  1.
         21    1    1    2  503  502 -0.15562674938E+02  0.26270118608E+02  0.17090338328E+02  0.34991365322E+02  0.00000000000E+00 0.  1.
         21    1    1    2  504  501 -0.81212762046E+02  0.54255943626E+02 -0.18533770222E+03  0.20949769450E+03  0.00000000000E+00 0. -1.
         21    1    1    2  505  504  0.46654265029E+02 -0.88877857030E+02  0.45570065941E+03  0.46662510102E+03  0.00000000000E+00 0.  1.
          2    1    1    2  501    0  0.50121171955E+02  0.83517947950E+01 -0.25749010307E+03  0.26245578206E+03  0.00000000000E+00 0.  1.
<scales pt_clust_3="30.53385" pt_clust_4="71.71265" pt_clust_5="14000.00000" pt_clust_6="50.75488"></scales>
<clustering>
<clus scale="   30.534">  1  3  2 -1</clus>
<clus scale="   50.755">  2  6  1 -1</clus>
<clus scale="   71.713">  2  4  1 -1</clus>
<clus scale="   30.534">  1  3  2 -1</clus>
</clustering>
</event>
<event>
 6    0  0.3522959E+002  0.8532582E+02  0.7546771E-02  0.1314583E+00
         21   -1    0    0  503  502  0.00000000000E+00  0.00000000000E+00  0.25577499038E+04  0.25577499038E+04  0.00000000000E+00 0.  1.
         -3   -1    0    0    0  501 -0.00000000000E+00 -0.00000000000E+00 -0.63719808273E+02  0.63719808273E+02  0.00000000000E+00 0. -1.
         21    1    1    2  503  505  0.44912706393E+01 -0.32207073423E+02  0.45659009487E+03  0.45774663496E+03  0.00000000000E+00 0. -1.
         21    1    1    2  504  502  0.77314689651E+02  0.86869588975E+01  0.19671831856E+04  0.19687210849E+04  0.00000000000E+00 0.  1.
         21    1    1    2  505  501 -0.12365316733E+03 -0.11963169879E+02  0.32536279487E+02  0.12842053070E+03  0.00000000000E+00 0. -1.
         -3    1    1    2    0  504  0.41847207036E+02  0.35483284404E+02  0.37720535553E+02  0.66581461468E+02  0.00000000000E+00 0. -1.
<scales pt_clust_3="32.51872" pt_clust_4="85.32582" pt_clust_5="14000.00000" pt_clust_6="54.43796"></scales>
<clustering>
<clus scale="   32.519">  1  3  2 -1</clus>
<clus scale="   54.438">  2  6  1 -1</clus>
<clus scale="   85.326">  1  4  2 -1</clus>
<clus scale="   32.519">  1  3  2 -1</clus>
</clustering>
</event>
<event>
 6    0  0.3522959E+002  0.2488819E+03  0.7546771E-02  0.1114013E+00
         -2   -1    0    0    0  501 -0.00000000000E+00  0.00000000000E+00  0.82434022251E+03  0.82434022251E+03  0.00000000000E+00 0.  1.
         21   -1    0    0  505  502  0.00000000000E+00 -0.00000000000E+00 -0.36533497371E+03  0.36533497371E+03  0.00000000000E+00 0.  1.
         21    1    1    2  503  504 -0.45094193211E+02 -0.53884607436E+02 -0.48242975666E+01  0.70429475555E+02  0.00000000000E+00 0.  1.
         21    1    1    2  504  502 -0.78144065967E+02 -0.12743275275E+03 -0.10899667797E+03  0.18500237114E+03  0.00000000000E+00 0.  1.
         21    1    1    2  505  501  0.11823331717E+03  0.24567895931E+03 -0.75343072240E+02  0.28286718946E+03  0.00000000000E+00 0.  1.
         -2    1    1    2    0  503  0.50049420046E+01 -0.64361599122E+02  0.64816929657E+03  0.65137616007E+03  0.00000000000E+00 0.  1.
<scales pt_clust_3="44.57200" pt_clust_4="44.57200" pt_clust_5="240.24077" pt_clust_6="64.55591"></scales>
<clustering>
<clus scale="   44.572">  3  4 -1 -1</clus>
<clus scale="   64.556">  1  6  2 -1</clus>
<clus scale="  240.241">  1  5  2 -1</clus>
<clus scale="  248.882">  2  3  1 -1</clus>
</clustering>
</event>
<event>
 6    0  0.3522959E+002  0.1544834E+03  0.7546771E-02  0.1195070E+00
         21   -1    0    0  501  502  0.00000000000E+00  0.00000000000E+00  0.42195936630E+02  0.42195936630E+02  0.00000000000E+00 0. -1.
          2   -1    0    0  503    0 -0.00000000000E+00 -0.00000000000E+00 -0.46807256890E+04  0.46807256890E+04  0.00000000000E+00 0. -1.
         21    1    1    2  503  504  0.41013960882E+02  0.11195719672E+03 -0.12846986362E+04  0.12902198049E+04  0.00000000000E+00 0. -1.
         21    1    1    2  504  505 -0.83961186996E+01 -0.37661553426E+02 -0.49007491529E+02  0.62374847829E+02  0.00000000000E+00 0. -1.
         21    1    1    2  505  502  0.73976192010E+02 -0.94156048646E+02 -0.80735888760E+02  0.14441648872E+03  0.00000000000E+00 0. -1.
          2    1    1    2  501    0 -0.10659403419E+03  0.19860405347E+02 -0.32240877358E+04  0.32259104842E+04  0.00000000000E+00 0. -1.
<scales pt_clust_3="140.04442" pt_clust_4="37.01913" pt_clust_5="37.01913" pt_clust_6="108.42843"></scales>
<clustering>
<clus scale="   37.019">  4  5 -1 -1</clus>
<clus scale="  108.428">  2  6  1 -1</clus>
<clus scale="  140.044">  2  3  1 -1</clus>
<clus scale="  154.483">  1  3  2 -1</clus>
</clustering>
</event>
<event>
 6    0  0.3522959E+002  0.8146064E+02  0.7546771E-02  0.1324957E+00
          2   -1    0    0  505    0 -0.00000000000E+00  0.00000000000E+00  0.18876472407E+04  0.18876472407E+04  0.00000000000E+00 0. -1.
         21   -1    0    0  503  502  0.00000000000E+00 -0.00000000000E+00 -0.12936841943E+03  0.12936841943E+03  0.00000000000E+00 0. -1.
         21    1    1    2  503  501 -0.48139943572E+02 -0.23498850959E+02 -0.64733263118E+02  0.84024077010E+02  0.00000000000E+00 0. -1.
         21    1    1    2  504  502  0.12468355387E+02  0.10005951491E+03  0.39337091877E+02  0.10823480589E+03  0.00000000000E+00 0. -1.
         21    1    1    2  505  504 -0.33101264694E+02 -0.65624230117E+02  0.48220940434E+02  0.87906156776E+02  0.00000000000E+00 0. -1.
          2    1    1    2  501    0  0.68772852879E+02 -0.10936433830E+02  0.17354540521E+04  0.17368506204E+04  0.00000000000E+00 0. -1.
<scales pt_clust_3="53.56912" pt_clust_4="81.46064" pt_clust_5="14000.00000" pt_clust_6="69.08125"></scales>
<clustering>
<clus scale="   53.569">  2  3  1 -1</clus>
<clus scale="   69.081">  1  6  2 -1</clus>
<clus scale="   81.461">  2  4  1 -1</clus>
<clus scale="   53.569">  2  3  1 -1</clus>
</clustering>
</event>
<event>
 6    0  0.3522959E+002  0.1302155E+03  0.7546771E-02  0.1227136E+00
         -2   -1    0    0    0  501 -0.00000000000E+00  0.00000000000E+00  0.25279375476E+04  0.25279375476E+04  0.00000000000E+00 0. -1.
         21   -1    0    0  505  502  0.00000000000E+00 -0.00000000000E+00 -0.16304896644E+04  0.16304896644E+04  0.00000000000E+00 0. -1.
         21    1    1    2  503  502 -0.46778424404E+02 -0.18445936938E+02 -0.13793520671E+04  0.13802683067E+04  0.00000000000E+00 0. -1.
         21    1    1    2  504  503  0.72937099200E+02 -0.70818428047E+02  0.69307231763E+02  0.12303886608E+03  0.00000000000E+00 0. -1.
         21    1    1    2  505  501  0.40009059996E+02 -0.25392753684E+02 -0.21948120555E+03  0.22453845196E+03  0.00000000000E+00 0.  1.
         -2    1    1    2    0  504 -0.66167734792E+02  0.11465711867E+03  0.24269739240E+04  0.24305815872E+04  0.00000000000E+00 0. -1.
<scales pt_clust_3="43.98060" pt_clust_4="130.21549" pt_clust_5="47.38688" pt_clust_6="14000.00000"></scales>
<clustering>
<clus scale="   47.387">  2  5  1 -1</clus>
<clus scale="   43.981">  2  3  1 -1</clus>
<clus scale="  130.215">  2  4  1 -1</clus>
<clus scale="   47.387">  2  3  1 -1</clus>
</clustering>
</event>
<event>
 6    0  0.3522959E+002  0.6967479E+02  0.7546771E-02  0.1361202E+00
         21   -1    0    0  505  502  0.00000000000E+00  0.00000000000E+00  0.15736001620E+03  0.15736001620E+03  0.00000000000E+00 0. -1.
          2   -1    0    0  504    0 -0.00000000000E+00 -0.00000000000E+00 -0.63552729287E+03  0.63552729287E+03  0.00000000000E+00 0.  1.
         21    1    1    2  503  502  0.68957187704E+02  0.16763598027E+02  0.10335041163E+03  0.12536913312E+03  0.00000000000E+00 0. -1.
         21    1    1    2  504  503 -0.97328342661E+01  0.68873810383E+02 -0.92496817289E+02  0.11573241131E+03  0.00000000000E+00 0.  1.
         21    1    1    2  505  501 -0.32062648942E+01 -0.50140647041E+02  0.75490279347E+01  0.50807011750E+02  0.00000000000E+00 0. -1.
          2    1    1    2  501    0 -0.56018088543E+02 -0.35496761370E+02 -0.49656989894E+03  0.50097875289E+03  0.00000000000E+00 0.  1.
<scales pt_clust_3="14000.00000" pt_clust_4="65.10552" pt_clust_5="50.24306" pt_clust_6="69.67479"></scales>
<clustering>
<clus scale="   50.243">  1  5  2 -1</clus>
<clus scale="   65.106">  2  4  1 -1</clus>
<clus scale="   69.675">  2  6  1 -1</clus>
<clus scale="   50.243">  1  3  2 -1</clus>
</clustering>
</event>
<event>
 6    0  0.3522959E+002  0.2858367E+03  0.7546771E-02  0.1092543E+00
         21   -1    0    0  503  502  0.00000000000E+00  0.00000000000E+00  0.93457780252E+03  0.93457780252E+03  0.00000000000E+00 0. -1.
          2   -1    0    0  504    0 -0.00000000000E+00 -0.00000000000E+00 -0.21344125069E+04  0.21344125069E+04  0.00000000000E+00 0.  1.
         21    1    1    2  503  501 -0.21081450900E+03  0.20929011905E+03 -0.25320478331E+03  0.39033033885E+03  0.00000000000E+00 0. -1.
         21    1    1    2  504  505  0.55338797389E+02 -0.39643703401E+02  0.10543309362E+03  0.12549957349E+03  0.00000000000E+00 0. -1.
         21    1    1    2  505  502  0.14512436397E+03 -0.13676697770E+03  0.73713401226E+03  0.76363135035E+03  0.00000000000E+00 0. -1.
          2    1    1    2  501    0  0.10351347644E+02 -0.32879437952E+02 -0.17891970269E+04  0.17895290467E+04  0.00000000000E+00 0.  1.
<scales pt_clust_3="269.02487" pt_clust_4="56.59857" pt_clust_5="56.59857" pt_clust_6="34.47039"></scales>
<clustering>
<clus scale="   34.470">  2  6  1 -1</clus>
<clus scale="   56.599">  4  5 -1 -1</clus>
<clus scale="  269.025">  2  3  1 -1</clus>
<clus scale="  285.837">  1  3  2 -1</clus>
</clustering>
</event>
<event>
 6    0  0.3522959E+002  0.6510924E+02  0.7546771E-02  0.1377561E+00
         21   -1    0    0  504  502  0.00000000000E+00  0.00000000000E+00  0.21071953487E+03  0.21071953487E+03  0.00000000000E+00 0.  1.
          2   -1    0    0  503    0 -0.00000000000E+00 -0.00000000000E+00 -0.28549482559E+04  0.28549482559E+04  0.00000000000E+00 0. -1.
         21    1    1    2  503  505  0.30084236646E+02 -0.36448170897E+02 -0.18243599041E+03  0.18845800873E+03  0.00000000000E+00 0. -1.
         21    1    1    2  504  501 -0.33880342294E+01 -0.49491151379E+02  0.10829260399E+02  0.50775247134E+02  0.00000000000E+00 0.  1.
         21    1    1    2  505  502  0.68652621145E+00  0.11762425587E+03  0.15716848254E+03  0.19631064360E+03  0.00000000000E+00 0.  1.
          2    1    1    2  501    0 -0.27382728628E+02 -0.31684933592E+02 -0.26297904735E+04  0.26301238913E+04  0.00000000000E+00 0. -1.
<scales pt_clust_3="65.10924" pt_clust_4="52.62658" pt_clust_5="14000.00000" pt_clust_6="41.87778"></scales>
<clustering>
<clus scale="   41.878">  2  6  1 -1</clus>
<clus scale="   52.627">  1  4  2 -1</clus>
<clus scale="   65.109">  2  3  1 -1</clus>
<clus scale="   52.627">  1  3  2 -1</clus>
</clustering>
</event>
<event>
 6    0  0.3522959E+002  0.1011887E+03  0.7546771E-02  0.1277816E+00
         21   -1    0    0  501  502  0.00000000000E+00  0.00000000000E+00  0.12896344340E+03  0.12896344340E+03  0.00000000000E+00 0. -1.
          2   -1    0    0  505    0 -0.00000000000E+00 -0.00000000000E+00 -0.26543684428E+04  0.26543684428E+04  0.00000000000E+00 0. -1.
         21    1    1    2  503  504  0.32801440364E+02  0.30418532279E+02  0.31619433331E+02  0.54781476433E+02  0.00000000000E+00 0. -1.
         21    1    1    2  504  502 -0.12696104509E+01  0.45747607124E+02  0.30418751677E+02  0.54952305883E+02  0.00000000000E+00 0. -1.
         21    1    1    2  505  503 -0.50925516630E+02 -0.17354274798E+03 -0.15233508591E+03  0.23646664040E+03  0.00000000000E+00 0. -1.
          2    1    1    2  501    0  0.19393686716E+02  0.97376608579E+02 -0.24351080985E+04  0.24371314635E+04  0.00000000000E+00 0. -1.
<scales pt_clust_3="36.95642" pt_clust_4="90.51390" pt_clust_5="14000.00000" pt_clust_6="101.18874"></scales>
<clustering>
<clus scale="   36.956">  3  4 -1 -1</clus>
<clus scale="   90.514">  1  3  2 -1</clus>
<clus scale="  101.189">  2  6  1 -1</clus>
<clus scale="   90.514">  1  3  2 -1</clus>
</clustering>
</event>
<event>
 6    0  0.3522959E+002  0.1515649E+03  0.7546771E-02  0.1198563E+00
          2   -1    0    0  505    0 -0.00000000000E+00  0.00000000000E+00  0.15305246367E+03  0.15305246367E+03  0.00000000000E+00 0. -1.
         21   -1    0    0  504  502  0.00000000000E+00 -0.00000000000E+00 -0.74822140867E+03  0.74822140867E+03  0.00000000000E+00 0. -1.
         21    1    1    2  503  501 -0.36642099983E+02  0.26956856805E+02 -0.13439959330E+03  0.14188927479E+03  0.00000000000E+00 0. -1.
         21    1    1    2  504  503 -0.16983839308E+02  0.33295090700E+02 -0.44258173901E+03  0.44415719016E+03  0.00000000000E+00 0. -1.
         21    1    1    2  505  502 -0.97558074498E+02  0.50682592490E+02 -0.56847229059E+02  0.12376554663E+03  0.00000000000E+00 0. -1.
          2    1    1    2  501    0  0.15118401379E+03 -0.11093453999E+03  0.38659616368E+02  0.19146186076E+03  0.00000000000E+00 0. -1.
<scales pt_clust_3="61.10352" pt_clust_4="37.37665" pt_clust_5="14000.00000" pt_clust_6="151.56493"></scales>
<clustering>
<clus scale="   37.377">  2  4  1 -1</clus>
<clus scale="   61.104">  2  3  1 -1</clus>
<clus scale="  151.565">  1  6  2 -1</clus>
<clus scale="   37.377">  2  3  1 -1</clus>
</clustering>
</event>
<event>
 6    0  0.3522959E+002  0.8577201E+02  0.7546771E-02  0.1313426E+00
          1   -1    0    0  504    0 -0.00000000000E+00  0.00000000000E+00  0.15711666962E+04  0.15711666962E+04  0.00000000000E+00 0. -1.
         21   -1    0    0  505  502  0.00000000000E+00 -0.00000000000E+00 -0.26311473108E+02  0.26311473108E+02  0.00000000000E+00 0. -1.
         21    1    1    2  503  502  0.33944454619E+02 -0.38652073452E+02  0.14017394122E+03  0.14931491077E+03  0.00000000000E+00 0. -1.
         21    1    1    2  504  503 -0.36515905289E+02 -0.85467172367E+02  0.12821307043E+03  0.15835605552E+03  0.00000000000E+00 0. -1.
         21    1    1    2  505  501 -0.36094484669E+02  0.48408049636E+02  0.17619807670E+03  0.18625765306E+03  0.00000000000E+00 0.  1.
          1    1    1    2  501    0  0.38665935339E+02  0.75711196184E+02  0.11002701348E+04  0.11035495500E+04  0.00000000000E+00 0. -1.
<scales pt_clust_3="51.44131" pt_clust_4="14000.00000" pt_clust_5="48.52971" pt_clust_6="85.77201"></scales>
<clustering>
<clus scale="   51.441">  2  3  1 -1</clus>
<clus scale="   48.530">  2  5  1 -1</clus>
<clus scale="   85.772">  1  6  2 -1</clus>
<clus scale="   51.441">  2  3  1 -1</clus>
</clustering>
</event>
<event>
 6    0  0.3522959E+002  0.1180278E+03  0.7546771E-02  0.1246387E+00
          2   -1    0    0  503    0 -0.00000000000E+00  0.00000000000E+00  0.11493550410E+04  0.11493550410E+04  0.00000000000E+00 0.  1.
         21   -1    0    0  504  502  0.00000000000E+00 -0.00000000000E+00 -0.92769387124E+03  0.92769387124E+03  0.00000000000E+00 0. -1.
         21    1    1    2  503  502 -0.97481807664E+02  0.41860517608E+02 -0.68030900624E+03  0.68853129902E+03  0.00000000000E+00 0. -1.
         21    1    1    2  504  505  0.33494853672E+02 -0.21046731337E+01 -0.17655213873E+03  0.17971364045E+03  0.00000000000E+00 0. -1.
         21    1    1    2  505  501  0.16445976330E+03  0.18633423763E+02  0.48815467660E+02  0.17256062155E+03  0.00000000000E+00 0.  1.
          2    1    1    2  501    0 -0.10047280931E+03 -0.58389268237E+02  0.10297068471E+04  0.10362433512E+04  0.00000000000E+00 0.  1.
<scales pt_clust_3="77.91293" pt_clust_4="33.56091" pt_clust_5="118.02777" pt_clust_6="14000.00000"></scales>
<clustering>
<clus scale="   33.561">  2  4  1 -1</clus>
<clus scale="   77.913">  2  3  1 -1</clus>
<clus scale="  118.028">  2  5  1 -1</clus>
<clus scale="   33.561">  2  3  1 -1</clus>
</clustering>
</event>
<event>
 6    0  0.3522959E+002  0.5242322E+02  0.7546771E-02  0.1432693E+00
         21   -1    0    0  505  502  0.00000000000E+00  0.00000000000E+00  0.49180515192E+03  0.49180515192E+03  0.00000000000E+00 0.  1.
          2   -1    0    0  503    0 -0.00000000000E+00 -0.00000000000E+00 -0.35805210244E+04  0.35805210244E+04  0.00000000000E+00 0.  1.
         21    1    1    2  503  504 -0.48178141667E+02 -0.38529738631E+02 -0.29089987994E+03  0.29736915483E+03  0.00000000000E+00 0. -1.
         21    1    1    2  504  502 -0.95091552177E+01 -0.48635305390E+02  0.18774462741E+03  0.19417482351E+03  0.00000000000E+00 0. -1.
         21    1    1    2  505  501  0.95725540870E+01  0.10082387082E+03  0.28879807673E+03  0.30604152633E+03  0.00000000000E+00 0.  1.
          2    1    1    2  501    0  0.48114742797E+02 -0.13658826799E+02 -0.32743586967E+04  0.32747406717E+04  0.00000000000E+00 0.  1.
<scales pt_clust_3="52.42322" pt_clust_4="49.55620" pt_clust_5="14000.00000" pt_clust_6="50.01855"></scales>
<clustering>
<clus scale="   49.556">  1  4  2 -1</clus>
<clus scale="   50.019">  2  6  1 -1</clus>
<clus scale="   52.423">  2  3  1 -1</clus>
<clus scale="   49.556">  1  3  2 -1</clus>
</clustering>
</event>
<event>
 6    0  0.3522959E+002  0.1560730E+03  0.7546771E-02  0.1193203E+00
         21   -1    0    0  505  502  0.00000000000E+00  0.00000000000E+00  0.96152607411E+03  0.96152607411E+03  0.00000000000E+00 0.  1.
         -2   -1    0    0    0  501 -0.00000000000E+00 -0.00000000000E+00 -0.12530619124E+03  0.12530619124E+03  0.00000000000E+00 0.  1.
         21    1    1    2  503  502 -0.86930189951E+00 -0.81932967443E+02  0.73673552257E+02  0.11018874326E+03  0.00000000000E+00 0.  1.
         21    1    1    2  504  501 -0.43122892964E+02 -0.67877172869E+02  0.36943704005E+03  0.37808811282E+03  0.00000000000E+00 0.  1.
         21    1    1    2  505  504 -0.35198048712E+02 -0.12449142586E+01  0.42380078399E+03  0.42526175111E+03  0.00000000000E+00 0.  1.
         -2    1    1    2    0  503  0.79190243576E+02  0.15105505457E+03 -0.30691493423E+02  0.17329365816E+03  0.00000000000E+00 0.  1.
<scales pt_clust_3="82.43496" pt_clust_4="156.07300" pt_clust_5="35.22006" pt_clust_6="14000.00000"></scales>
<clustering>
<clus scale="   35.220">  1  5  2 -1</clus>
<clus scale="   82.435">  1  3  2 -1</clus>
<clus scale="  156.073">  1  4  2 -1</clus>
<clus scale="   35.220">  1  3  2 -1</clus>
</clustering>
</event>
<event>
 6    0  0.3522959E+002  0.9823039E+02  0.7546771E-02  0.1284062E+00
          4   -1    0    0  504    0 -0.00000000000E+00  0.00000000000E+00  0.14173870846E+04  0.14173870846E+04  0.00000000000E+00 0. -1.
         21   -1    0    0  505  502  0.00000000000E+00 -0.00000000000E+00 -0.84955961680E+02  0.84955961680E+02  0.00000000000E+00 0.  1.
         21    1    1    2  503  501 -0.13445373391E+03  0.26336454675E+02  0.89451117682E+03  0.90494290475E+03  0.00000000000E+00 0.  1.
         21    1    1    2  504  502  0.12631564491E+03  0.17438373808E+02  0.28387999673E+02  0.13063543760E+03  0.00000000000E+00 0.  1.
         21    1    1    2  505  503 -0.34939910929E+02 -0.22723075341E+02 -0.11321167008E+02  0.43189169373E+02  0.00000000000E+00 0. -1.
          4    1    1    2  501    0  0.43077999926E+02 -0.21051753141E+02  0.42085311345E+03  0.42357553457E+03  0.00000000000E+00 0. -1.
<scales pt_clust_3="14000.00000" pt_clust_4="98.23039" pt_clust_5="41.67896" pt_clust_6="47.44905"></scales>
<clustering>
<clus scale="   41.679">  2  5  1 -1</clus>
<clus scale="   47.449">  1  6  2 -1</clus>
<clus scale="   98.230">  2  4  1 -1</clus>
<clus scale="   41.679">  2  3  1 -1</clus>
</clustering>
</event>
<event>
 6    0  0.3522959E+002  0.1778301E+03  0.7546771E-02  0.1169920E+00
         21   -1    0    0  504  502  0.00000000000E+00  0.00000000000E+00  0.70378959676E+03  0.70378959676E+03  0.00000000000E+00 0.  1.
          2   -1    0    0  505    0 -0.00000000000E+00 -0.00000000000E+00 -0.59189129126E+03  0.59189129126E+03  0.00000000000E+00 0.  1.
         21    1    1    2  503  501 -0.10833513012E+03 -0.25877522267E+02  0.22109226519E+03  0.24756400445E+03  0.00000000000E+00 0.  1.
         21    1    1    2  504  503 -0.59355304328E+02 -0.43124122673E+02  0.24187232162E+03  0.25275474689E+03  0.00000000000E+00 0.  1.
         21    1    1    2  505  502 -0.43364151539E+00  0.87373804108E+02  0.20036002921E+03  0.21858296135E+03  0.00000000000E+00 0.  1.
          2    1    1    2  501    0  0.16812407596E+03 -0.18372159168E+02 -0.55142631052E+03  0.57677917532E+03  0.00000000000E+00 0.  1.
<scales pt_clust_3="45.19767" pt_clust_4="45.19767" pt_clust_5="87.37488" pt_clust_6="168.88514"></scales>
<clustering>
<clus scale="   45.198">  3  4 -1 -1</clus>
<clus scale="   87.375">  1  5  2 -1</clus>
<clus scale="  168.885">  2  6  1 -1</clus>
<clus scale="   87.375">  1  3  2 -1</clus>
</clustering>
</event>
<event>
 6    0  0.3522959E+002  0.1218126E+03  0.7546771E-02  0.1240136E+00
         21   -1    0    0  504  502  0.00000000000E+00  0.00000000000E+00  0.43209077780E+03  0.43209077780E+03  0.00000000000E+00 0.  1.
          1   -1    0    0  505    0 -0.00000000000E+00 -0.00000000000E+00 -0.17454864380E+04  0.17454864380E+04  0.00000000000E+00 0.  1.
         21    1    1    2  503  502  0.39343700616E+02  0.86769419651E+02  0.29136641141E+03  0.30654729597E+03  0.00000000000E+00 0.  1.
         21    1    1    2  504  501  0.64307675559E+02 -0.15050539209E+02  0.10149854861E+03  0.12109480268E+03  0.00000000000E+00 0.  1.
         21    1    1    2  505  503 -0.48021391038E+02 -0.12330051602E+03 -0.18865174126E+03  0.23043122776E+03  0.00000000000E+00 0. -1.
          1    1    1    2  501    0 -0.55629985136E+02  0.51581635581E+02 -0.15176088789E+04  0.15195038894E+04  0.00000000000E+00 0.  1.
<scales pt_clust_3="121.81264" pt_clust_4="66.04541" pt_clust_5="14000.00000" pt_clust_6="75.69465"></scales>
<clustering>
<clus scale="   66.045">  1  4  2 -1</clus>
<clus scale="   75.695">  2  6  1 -1</clus>
<clus scale="  121.813">  1  3  2 -1</clus>
<clus scale="   66.045">  1  3  2 -1</clus>
</clustering>
</event>
<event>
 6    0  0.3522959E+002  0.1266419E+03  0.7546771E-02  0.1232525E+00
         21   -1    0    0  504  502  0.00000000000E+00  0.00000000000E+00  0.60179632445E+03  0.60179632445E+03  0.00000000000E+00 0.  1.
          2   -1    0    0  505    0 -0.00000000000E+00 -0.00000000000E+00 -0.92500772117E+02  0.92500772117E+02  0.00000000000E+00 0.  1.
         21    1    1    2  503  501  0.14000276734E+03 -0.66535152219E+02  0.12921836413E+03  0.20180457620E+03  0.00000000000E+00 0.  1.
         21    1    1    2  504  503 -0.10394950110E+03  0.61366496794E+01  0.35525708374E+03  0.37020366394E+03  0.00000000000E+00 0.  1.
         21    1    1    2  505  502 -0.28680489917E+02 -0.13196327174E+02  0.35557309031E+02  0.47550349928E+02  0.00000000000E+00 0.  1.
          2    1    1    2  501    0 -0.73727763248E+01  0.73594829713E+02 -0.10737204574E+02  0.74738506496E+02  0.00000000000E+00 0.  1.
<scales pt_clust_3="14000.00000" pt_clust_4="126.64187" pt_clust_5="31.57077" pt_clust_6="73.39631"></scales>
<clustering>
<clus scale="   31.571">  1  5  2 -1</clus>
<clus scale="   73.396">  2  6  1 -1</clus>
<clus scale="  126.642">  1  4  2 -1</clus>
<clus scale="   31.571">  1  3  2 -1</clus>
</clustering>
</event>
<event>
 6    0  0.3522959E+002  0.1139875E+03  0.7546771E-02  0.1253359E+00
         21   -1    0    0  501  502  0.00000000000E+00  0.00000000000E+00  0.77044230782E+03  0.77044230782E+03  0.00000000000E+00 0.  1.
          1   -1    0    0  503    0 -0.00000000000E+00 -0.00000000000E+00 -0.62762118668E+03  0.62762118668E+03  0.00000000000E+00 0. -1.
         21    1    1    2  503  505 -0.12135015925E+03  0.56288208166E+02 -0.11601830318E+03  0.17707193511E+03  0.00000000000E+00 0.  1.
         21    1    1    2  504  502  0.52508371589E+02 -0.15072251294E+02  0.50312099364E+03  0.50607809287E+03  0.00000000000E+00 0.  1.
         21    1    1    2  505  504  0.50157746301E+02  0.13280821894E+02  0.23069390964E+03  0.23645688759E+03  0.00000000000E+00 0.  1.
          1    1    1    2  501    0  0.18684041362E+02 -0.54496778766E+02 -0.47497547896E+03  0.47845657892E+03  0.00000000000E+00 0. -1.
<scales pt_clust_3="103.26082" pt_clust_4="47.04629" pt_clust_5="47.04629" pt_clust_6="57.61070"></scales>
<clustering>
<clus scale="   47.046">  4  5 -1 -1</clus>
<clus scale="   57.611">  2  6  1 -1</clus>
<clus scale="  103.261">  2  3  1 -1</clus>
<clus scale="  113.987">  1  3  2 -1</clus>
</clustering>
</event>
<event>
 6    0  0.3522959E+002  0.1802285E+03  0.7546771E-02  0.1167582E+00
         21   -1    0    0  504  502  0.00000000000E+00  0.00000000000E+00  0.52857432285E+03  0.52857432285E+03  0.00000000000E+00 0. -1.
          2   -1    0    0  503    0 -0.00000000000E+00 -0.00000000000E+00 -0.35382887999E+03  0.35382887999E+03  0.00000000000E+00 0.  1.
         21    1    1    2  503  505  0.48371893695E+02  0.69607267676E+02 -0.18773810026E+02  0.86818591072E+02  0.00000000000E+00 0.  1.
         21    1    1    2  504  501 -0.13959694177E+03 -0.11090949046E+03  0.41668321120E+03  0.45322524170E+03  0.00000000000E+00 0. -1.
         21    1    1    2  505  502  0.14826741927E+02  0.67689854536E+02  0.30808975513E+02  0.75834963279E+02  0.00000000000E+00 0.  1.
          2    1    1    2  501    0  0.76398306152E+02 -0.26387631755E+02 -0.25397293383E+03  0.26652440678E+03  0.00000000000E+00 0.  1.
<scales pt_clust_3="53.23598" pt_clust_4="170.33945" pt_clust_5="53.23598" pt_clust_6="80.82703"></scales>
<clustering>
<clus scale="   53.236">  3  5 -1 -1</clus>
<clus scale="   80.827">  2  6  1 -1</clus>
<clus scale="  170.339">  1  4  2 -1</clus>
<clus scale="  170.339">  1  3  2 -1</clus>
</clustering>
</event>
<event>
 6    0  0.3522959E+002  0.1392249E+03  0.7546771E-02  0.1214376E+00
         21   -1    0    0  505  502  0.00000000000E+00  0.00000000000E+00  0.17122196201E+04  0.17122196201E+04  0.00000000000E+00 0. -1.
         -1   -1    0    0    0  501 -0.00000000000E+00 -0.00000000000E+00 -0.27026288243E+03  0.27026288243E+03  0.00000000000E+00 0.  1.
         21    1    1    2  503  502 -0.15147240735E+03  0.73256719702E+02  0.14228925478E+04  0.14328062115E+04  0.00000000000E+00 0. -1.
         21    1    1    2  504  501  0.42351468714E+02 -0.68372769388E+01  0.32027768258E+00  0.42901023717E+02  0.00000000000E+00 0.  1.
         21    1    1    2  505  504  0.84630034272E+02 -0.35890383599E+02  0.25304639003E+03  0.26922636914E+03  0.00000000000E+00 0.  1.
         -1    1    1    2    0  503  0.24490904365E+02 -0.30529059164E+02 -0.23430247788E+03  0.23754889811E+03  0.00000000000E+00 0.  1.
<scales pt_clust_3="139.22493" pt_clust_4="63.04276" pt_clust_5="14000.00000" pt_clust_6="39.13857"></scales>
<clustering>
<clus scale="   39.139">  2  6  1 -1</clus>
<clus scale="   63.043">  2  4  1 -1</clus>
<clus scale="  139.225">  1  3  2 -1</clus>
<clus scale="  139.225">  1  3  2 -1</clus>
</clustering>
</event>
<event>
 6    0  0.3522959E+002  0.3172824E+03  0.7546771E-02  0.1076907E+00
          1   -1    0    0  503    0 -0.00000000000E+00  0.00000000000E+00  0.37390223011E+04  0.37390223011E+04  0.00000000000E+00 0.  1.
         21   -1    0    0  501  502  0.00000000000E+00 -0.00000000000E+00 -0.18020701063E+03  0.18020701063E+03  0.00000000000E+00 0. -1.
         21    1    1    2  503  504  0.14234941386E+03  0.19005306082E+03  0.16500398113E+03  0.28915365351E+03  0.00000000000E+00 0. -1.
         21    1    1    2  504  505  0.40790349206E+02  0.23455291373E+02 -0.19968271335E+02  0.51114920932E+02  0.00000000000E+00 0.  1.
         21    1    1    2  505  502  0.97552772594E+02 -0.41308314809E+02 -0.37219054198E+02  0.11228614478E+03  0.00000000000E+00 0. -1.
          1    1    1    2  501    0 -0.28069253566E+03 -0.17220003738E+03  0.34509986349E+04  0.34666745925E+04  0.00000000000E+00 0.  1.
<scales pt_clust_3="14000.00000" pt_clust_4="42.00210" pt_clust_5="153.06704" pt_clust_6="317.28235"></scales>
<clustering>
<clus scale="   42.002">  4  5 -1 -1</clus>
<clus scale="  153.067">  2  4  1 -1</clus>
<clus scale="  317.282">  1  6  2 -1</clus>
<clus scale="  153.067">  2  3  1 -1</clus>
</clustering>
</event>
<event>
 6    0  0.3522959E+002  0.1353166E+03  0.7546771E-02  0.1219774E+00
          3   -1    0    0  504    0 -0.00000000000E+00  0.00000000000E+00  0.10546349691E+04  0.10546349691E+04  0.00000000000E+00 0.  1.
         21   -1    0    0  505  502  0.00000000000E+00 -0.00000000000E+00 -0.91851936868E+02  0.91851936868E+02  0.00000000000E+00 0. -1.
         21    1    1    2  503  501  0.29986771978E+02 -0.24929775177E+02  0.50122129729E+03  0.50273600332E+03  0.00000000000E+00 0.  1.
         21    1    1    2  504  502 -0.82719132014E+02 -0.23448702127E+02  0.48341145138E+00  0.85979823908E+02  0.00000000000E+00 0. -1.
         21    1    1    2  505  503 -0.27624749872E+02  0.88753991202E+02  0.51911873378E+01  0.93098583156E+02  0.00000000000E+00 0. -1.
          3    1    1    2  501    0  0.80357109908E+02 -0.40375513897E+02  0.45588713612E+03  0.46467249554E+03  0.00000000000E+00 0.  1.
<scales pt_clust_3="38.29579" pt_clust_4="85.97846" pt_clust_5="122.18213" pt_clust_6="38.29579"></scales>
<clustering>
<clus scale="   38.296">  3  6 -1 -1</clus>
<clus scale="   85.978">  2  4  1 -1</clus>
<clus scale="  122.182">  2  5  1 -1</clus>
<clus scale="   85.978">  2  3  1 -1</clus>
</clustering>
</event>
<event>
 6    0  0.3522959E+002  0.1218946E+03  0.7546771E-02  0.1240004E+00
         21   -1    0    0  505  502  0.00000000000E+00  0.00000000000E+00  0.11311730317E+03  0.11311730317E+03  0.00000000000E+00 0.  1.
          2   -1    0    0  503    0 -0.00000000000E+00 -0.00000000000E+00 -0.61818190446E+03  0.61818190446E+03  0.00000000000E+00 0.  1.
         21    1    1    2  503  504  0.42421198128E+02  0.16145632780E+02  0.22781493674E+02  0.50786178853E+02  0.00000000000E+00 0.  1.
         21    1    1    2  504  502  0.11896815214E+02  0.49105143836E+02  0.20620821971E+02  0.54571674540E+02  0.00000000000E+00 0.  1.
         21    1    1    2  505  501 -0.15919126621E+03 -0.83037295239E+02 -0.24054871498E+03  0.30016784624E+03  0.00000000000E+00 0.  1.
          2    1    1    2  501    0  0.10487325287E+03  0.17786518623E+02 -0.30791820196E+03  0.32577350799E+03  0.00000000000E+00 0.  1.
<scales pt_clust_3="42.47651" pt_clust_4="96.00269" pt_clust_5="121.89457" pt_clust_6="14000.00000"></scales>
<clustering>
<clus scale="   42.477">  3  4 -1 -1</clus>
<clus scale="   96.003">  1  3  2 -1</clus>
<clus scale="  121.895">  1  5  2 -1</clus>
<clus scale="   96.003">  1  3  2 -1</clus>
</clustering>
</event>
<event>
 6    0  0.3522959E+002  0.9662147E+02  0.7546771E-02  0.1287565E+00
         21   -1    0    0  504  502  0.00000000000E+00  0.00000000000E+00  0.80388963214E+02  0.80388963214E+02  0.00000000000E+00 0.  1.
          3   -1    0    0  503    0 -0.00000000000E+00 -0.00000000000E+00 -0.90573287305E+03  0.90573287305E+03  0.00000000000E+00 0. -1.
         21    1    1    2  503  505 -0.29376659001E+02  0.12646382081E+02 -0.72149264866E+02  0.78920437749E+02  0.00000000000E+00 0. -1.
         21    1    1    2  504  501 -0.45128708345E+02 -0.44648753321E+02 -0.68179280925E+02  0.93158605815E+02  0.00000000000E+00 0.  1.
         21    1    1    2  505  502  0.13391820957E+03  0.79988245370E+02 -0.35400838318E+02  0.15995444853E+03  0.00000000000E+00 0.  1.
          3    1    1    2  501    0 -0.59412842225E+02 -0.47985874129E+02 -0.64961452573E+03  0.65408834417E+03  0.00000000000E+00 0. -1.
<scales pt_clust_3="31.98311" pt_clust_4="64.71226" pt_clust_5="96.62147" pt_clust_6="14000.00000"></scales>
<clustering>
<clus scale="   31.983">  2  3  1 -1</clus>
<clus scale="   64.712">  1  4  2 -1</clus>
<clus scale="   96.621">  1  5  2 -1</clus>
<clus scale="   64.712">  1  3  2 -1</clus>
</clustering>
</event>
<event>
 6    0  0.3522959E+002  0.1080187E+03  0.7546771E-02  0.1264284E+00
         21   -1    0    0  504  502  0.00000000000E+00  0.00000000000E+00  0.14823738964E+03  0.14823738964E+03  0.00000000000E+00 0. -1.
          1   -1    0    0  503    0 -0.00000000000E+00 -0.00000000000E+00 -0.58158764301E+03  0.58158764301E+03  0.00000000000E+00 0. -1.
         21    1    1    2  503  502  0.77222485442E+02  0.39999431550E+01  0.52218227381E+01  0.77502124073E+02  0.00000000000E+00 0.  1.
         21    1    1    2  504  505 -0.31417516649E+02  0.12514105743E+02  0.43519099160E+02  0.55114201315E+02  0.00000000000E+00 0. -1.
         21    1    1    2  505  501 -0.42456029804E+02 -0.12275050842E+03 -0.30689010177E+02  0.13346166914E+03  0.00000000000E+00 0. -1.
          1    1    1    2  501    0 -0.33489389895E+01  0.10623645952E+03 -0.45140216509E+03  0.46374703812E+03  0.00000000000E+00 0. -1.
<scales pt_clust_3="64.74742" pt_clust_4="33.81809" pt_clust_5="108.01869" pt_clust_6="14000.00000"></scales>
<clustering>
<clus scale="   33.818">  1  4  2 -1</clus>
<clus scale="   64.747">  1  3  2 -1</clus>
<clus scale="  108.019">  1  5  2 -1</clus>
<clus scale="   33.818">  1  3  2 -1</clus>
</clustering>
</event>
<event>
 6    0  0.3522959E+002  0.1789612E+03  0.7546771E-02  0.1168812E+00
         21   -1    0    0  505  502  0.00000000000E+00  0.00000000000E+00  0.85674070953E+02  0.85674070953E+02  0.00000000000E+00 0.  1.
          2   -1    0    0  504    0 -0.00000000000E+00 -0.00000000000E+00 -0.90874114794E+03  0.90874114794E+03  0.00000000000E+00 0. -1.
         21    1    1    2  503  501 -0.19646679980E+02 -0.93815548617E+02 -0.38569175101E+02  0.10331955509E+03  0.00000000000E+00 0.  1.
         21    1    1    2  504  502  0.57486521615E+02  0.12232694502E+01 -0.96661848343E+02  0.11247092727E+03  0.00000000000E+00 0.  1.
         21    1    1    2  505  503 -0.70592845382E+02 -0.48648453776E+02 -0.11001883020E+02  0.86435312830E+02  0.00000000000E+00 0.  1.
          2    1    1    2  501    0  0.32753003747E+02  0.14124073294E+03 -0.67683417052E+03  0.69218942370E+03  0.00000000000E+00 0. -1.
<scales pt_clust_3="66.81582" pt_clust_4="57.49954" pt_clust_5="66.81582" pt_clust_6="164.06300"></scales>
<clustering>
<clus scale="   57.500">  2  4  1 -1</clus>
<clus scale="   66.816">  3  5 -1 -1</clus>
<clus scale="  164.063">  2  6  1 -1</clus>
<clus scale="  178.961">  1  3  2 -1</clus>
</clustering>
</event>
<event>
 6    0  0.3522959E+002  0.1657357E+03  0.7546771E-02  0.1182369E+00
         21   -1    0    0  501  502  0.00000000000E+00  0.00000000000E+00  0.12339351635E+03  0.12339351635E+03  0.00000000000E+00 0.  1.
         -2   -1    0    0    0  501 -0.00000000000E+00 -0.00000000000E+00 -0.30101922402E+03  0.30101922402E+03  0.00000000000E+00 0.  1.
         21    1    1    2  503  502 -0.65363169497E+02  0.15700219733E+03 -0.33860663164E+02  0.17340293654E+03  0.00000000000E+00 0.  1.
         21    1    1    2  504  505  0.31601130496E+02 -0.74947967790E+02 -0.63266794734E+02  0.10304618693E+03  0.00000000000E+00 0.  1.
         21    1    1    2  505  503  0.96776889566E+01 -0.61365432820E+02 -0.75113662752E+00  0.62128401033E+02  0.00000000000E+00 0.  1.
         -2    1    1    2    0  504  0.24084350045E+02 -0.20688796718E+02 -0.79747113144E+02  0.85835215859E+02  0.00000000000E+00 0.  1.
<scales pt_clust_3="156.74579" pt_clust_4="45.41198" pt_clust_5="45.41198" pt_clust_6="31.75031"></scales>
<clustering>
<clus scale="   31.750">  2  6  1 -1</clus>
<clus scale="   45.412">  4  5 -1 -1</clus>
<clus scale="  156.746">  1  3  2 -1</clus>
<clus scale="  156.746">  1  3  2 -1</clus>
</clustering>
</event>
<event>
 6    0  0.3522959E+002  0.2297536E+03  0.7546771E-02  0.1126813E+00
          2   -1    0    0  504    0 -0.00000000000E+00  0.00000000000E+00  0.15673943073E+04  0.15673943073E+04  0.00000000000E+00 0.  1.
         21   -1    0    0  505  502  0.00000000000E+00 -0.00000000000E+00 -0.21309322751E+03  0.21309322751E+03  0.00000000000E+00 0.  1.
         21    1    1    2  503  502  0.14697041073E+03  0.17896104938E+03 -0.88061794192E+02  0.24775439132E+03  0.00000000000E+00 0.  1.
         21    1    1    2  504  503 -0.62392280227E+02 -0.22989127403E+03  0.35811365848E+03  0.43010253068E+03  0.00000000000E+00 0. -1.
         21    1    1    2  505  501 -0.94746608056E+02  0.22316414744E+02  0.25687489444E+03  0.27469920549E+03  0.00000000000E+00 0. -1.
          2    1    1    2  501    0  0.10168477554E+02  0.28613809907E+02  0.82737432105E+03  0.82793140730E+03  0.00000000000E+00 0.  1.
<scales pt_clust_3="14000.00000" pt_clust_4="229.75364" pt_clust_5="96.74986" pt_clust_6="30.36689"></scales>
<clustering>
<clus scale="   30.367">  1  6  2 -1</clus>
<clus scale="   96.750">  1  5  2 -1</clus>
<clus scale="  229.754">  1  4  2 -1</clus>
<clus scale="  229.754">  2  3  1 -1</clus>
</clustering>
</event>
<event>
 6    0  0.3522959E+002  0.1296155E+03  0.7546771E-02  0.1228027E+00
          3   -1    0    0  504    0 -0.00000000000E+00  0.00000000000E+00  0.46787376116E+03  0.46787376116E+03  0.00000000000E+00 0. -1.
         21   -1    0    0  503  502  0.00000000000E+00 -0.00000000000E+00 -0.26065071096E+03  0.26065071096E+03  0.00000000000E+00 0. -1.
         21    1    1    2  503  505 -0.10487979217E+03  0.65441958783E+02 -0.14753765266E+03  0.19248319336E+03  0.00000000000E+00 0. -1.
         21    1    1    2  504  502 -0.88782190959E+02  0.69361217905E+02  0.26362979174E+02  0.11570766030E+03  0.00000000000E+00 0. -1.
         21    1    1    2  505  501  0.14457439236E+03 -0.14904374186E+03  0.23293271756E+03  0.31204718044E+03  0.00000000000E+00 0. -1.
          3    1    1    2  501    0  0.49087590769E+02  0.14240565173E+02  0.95465006125E+02  0.10828643802E+03  0.00000000000E+00 0. -1.
<scales pt_clust_3="129.61548" pt_clust_4="107.16053" pt_clust_5="14000.00000" pt_clust_6="51.11150"></scales>
<clustering>
<clus scale="   51.111">  1  6  2 -1</clus>
<clus scale="  107.161">  1  4  2 -1</clus>
<clus scale="  129.615">  2  3  1 -1</clus>
<clus scale="  129.615">  2  3  1 -1</clus>
</clustering>
</event>
<event>
 6    0  0.3522959E+002  0.1616167E+03  0.7546771E-02  0.1186883E+00
         21   -1    0    0  505  502  0.00000000000E+00  0.00000000000E+00  0.18110368471E+03  0.18110368471E+03  0.00000000000E+00 0.  1.
          1   -1    0    0  504    0 -0.00000000000E+00 -0.00000000000E+00 -0.20026345127E+04  0.20026345127E+04  0.00000000000E+00 0.  1.
         21    1    1    2  503  501 -0.34366829589E+02  0.31894918352E+02 -0.13886303349E+02  0.48899838583E+02  0.00000000000E+00 0.  1.
         21    1    1    2  504  502 -0.91715215940E+02 -0.13809305144E+03  0.31377231171E+02  0.16871841135E+03  0.00000000000E+00 0.  1.
         21    1    1    2  505  503 -0.30000391271E+02  0.59964030036E+02  0.41310456828E+02  0.78754442528E+02  0.00000000000E+00 0.  1.
          1    1    1    2  501    0  0.15608243680E+03  0.46234103054E+02 -0.18803322126E+04  0.18873655049E+04  0.00000000000E+00 0.  1.
<scales pt_clust_3="45.51367" pt_clust_4="14000.00000" pt_clust_5="124.67370" pt_clust_6="161.61672"></scales>
<clustering>
<clus scale="   45.514">  3  5 -1 -1</clus>
<clus scale="  124.674">  1  3  2 -1</clus>
<clus scale="  161.617">  2  6  1 -1</clus>
<clus scale="  124.674">  1  3  2 -1</clus>
</clustering>
</event>
<event>
 6    0  0.3522959E+002  0.9793657E+02  0.7546771E-02  0.1284696E+00
         21   -1    0    0  504  502  0.00000000000E+00  0.00000000000E+00  0.93570849606E+03  0.93570849606E+03  0.00000000000E+00 0. -1.
         -4   -1    0    0    0  501 -0.00000000000E+00 -0.00000000000E+00 -0.35528845306E+02  0.35528845306E+02  0.00000000000E+00 0. -1.
         21    1    1    2  503  501 -0.75866893919E+02 -0.58647278976E+02  0.27647035109E+03  0.29262799585E+03  0.00000000000E+00 0. -1.
         21    1    1    2  504  505  0.92785804288E+01 -0.29297561575E+02  0.27829108455E+03  0.27998279752E+03  0.00000000000E+00 0. -1.
         21    1    1    2  505  503  0.85898759066E+02  0.53879613089E+02  0.34486720155E+03  0.35946487481E+03  0.00000000000E+00 0. -1.
         -4    1    1    2    0  502 -0.19310445576E+02  0.34065227462E+02  0.55101356097E+00  0.39161673181E+02  0.00000000000E+00 0. -1.
<scales pt_clust_3="97.93657" pt_clust_4="30.73173" pt_clust_5="14000.00000" pt_clust_6="38.24910"></scales>
<clustering>
<clus scale="   30.732">  1  4  2 -1</clus>
<clus scale="   38.249">  2  6  1 -1</clus>
<clus scale="   97.937">  2  3  1 -1</clus>
<clus scale="   30.732">  1  3  2 -1</clus>
</clustering>
</event>
<event>
 6    0  0.3522959E+002  0.1330039E+03  0.7546771E-02  0.1223065E+00
         -4   -1    0    0    0  501 -0.00000000000E+00  0.00000000000E+00  0.15636594437E+03  0.15636594437E+03  0.00000000000E+00 0. -1.
         21   -1    0    0  504  502  0.00000000000E+00 -0.00000000000E+00 -0.20955891798E+03  0.20955891798E+03  0.00000000000E+00 0. -1.
         21    1    1    2  503  501  0.47964367322E+02  0.37084146783E+02  0.27128049124E+01  0.60689157069E+02  0.00000000000E+00 0. -1.
         21    1    1    2  504  503  0.20999442666E+02 -0.12624429142E+03 -0.11055888412E+03  0.16912085787E+03  0.00000000000E+00 0. -1.
         21    1    1    2  505  502 -0.45048029813E+02  0.58730587395E+02  0.64517865833E+01  0.74298266709E+02  0.00000000000E+00 0. -1.
         -4    1    1    2    0  505 -0.23915780175E+02  0.30429557246E+02  0.48201319009E+02  0.61816580703E+02  0.00000000000E+00 0. -1.
<scales pt_clust_3="60.62850" pt_clust_4="121.88231" pt_clust_5="38.50014" pt_clust_6="38.50014"></scales>
<clustering>
<clus scale="   38.500">  5  6 -1 -1</clus>
<clus scale="   60.628">  1  3  2 -1</clus>
<clus scale="  121.882">  2  4  1 -1</clus>
<clus scale="  121.882">  2  3  1 -1</clus>
</clustering>
</event>
<event>
 6    0  0.3522959E+002  0.1294958E+03  0.7546771E-02  0.1228206E+00
          2   -1    0    0  505    0 -0.00000000000E+00  0.00000000000E+00  0.40006356583E+03  0.40006356583E+03  0.00000000000E+00 0. -1.
         21   -1    0    0  503  502  0.00000000000E+00 -0.00000000000E+00 -0.78352031962E+02  0.78352031962E+02  0.00000000000E+00 0. -1.
         21    1    1    2  503  501  0.83299825026E+02  0.12478817513E+03  0.12562415555E+03  0.19568438354E+03  0.00000000000E+00 0. -1.
         21    1    1    2  504  502 -0.61800242832E+02 -0.13138885300E+02  0.47285180120E+02  0.78916339119E+02  0.00000000000E+00 0.  1.
         21    1    1    2  505  504 -0.35195869791E+02 -0.40981573500E+02  0.22663160057E+02  0.58582057327E+02  0.00000000000E+00 0. -1.
          2    1    1    2  501    0  0.13696287597E+02 -0.70667716333E+02  0.12613903814E+03  0.14523281781E+03  0.00000000000E+00 0. -1.
<scales pt_clust_3="122.85521" pt_clust_4="37.85230" pt_clust_5="37.85230" pt_clust_6="71.98274"></scales>
<clustering>
<clus scale="   37.852">  4  5 -1 -1</clus>
<clus scale="   71.983">  1  6  2 -1</clus>
<clus scale="  122.855">  1  3  2 -1</clus>
<clus scale="  129.496">  2  3  1 -1</clus>
</clustering>
</event>
<event>
 6    0  0.3522959E+002  0.1436852E+03  0.7546771E-02  0.1208455E+00
          1   -1    0    0  503    0 -0.00000000000E+00  0.00000000000E+00  0.43209056234E+03  0.43209056234E+03  0.00000000000E+00 0.  1.
         21   -1    0    0  504  502  0.00000000000E+00 -0.00000000000E+00 -0.97539730827E+02  0.97539730827E+02  0.00000000000E+00 0.  1.
         21    1    1    2  503  502  0.88684796642E+02 -0.14329921970E+03  0.17167007247E+03  0.24056241041E+03  0.00000000000E+00 0.  1.
         21    1    1    2  504  505 -0.20440383494E+02  0.48999307965E+02 -0.15355374376E+02  0.55267793339E+02  0.00000000000E+00 0.  1.
         21    1    1    2  505  501 -0.30265200313E+02  0.65950945683E+02  0.30614803162E+02  0.78757702856E+02  0.00000000000E+00 0.  1.
          1    1    1    2  501    0 -0.37979212835E+02  0.28348966048E+02  0.14762133025E+03  0.15504238655E+03  0.00000000000E+00 0.  1.
<scales pt_clust_3="136.74817" pt_clust_4="37.72719" pt_clust_5="37.72719" pt_clust_6="47.39287"></scales>
<clustering>
<clus scale="   37.727">  4  5 -1 -1</clus>
<clus scale="   47.393">  1  6  2 -1</clus>
<clus scale="  136.748">  1  3  2 -1</clus>
<clus scale="  143.685">  2  3  1 -1</clus>
</clustering>
</event>
<event>
 6    0  0.3522959E+002  0.9265566E+02  0.7546771E-02  0.1296545E+00
         -2   -1    0    0    0  501 -0.00000000000E+00  0.00000000000E+00  0.11827844602E+04  0.11827844602E+04  0.00000000000E+00 0.  1.
         21   -1    0    0  503  502  0.00000000000E+00 -0.00000000000E+00 -0.10755185619E+03  0.10755185619E+03  0.00000000000E+00 0.  1.
         21    1    1    2  503  504  0.51168966218E+02  0.21035234841E+02 -0.74389114394E+02  0.92706442867E+02  0.00000000000E+00 0.  1.
         21    1    1    2  504  501  0.30733506237E+01 -0.51952351429E+02  0.93655755521E+02  0.10714426184E+03  0.00000000000E+00 0.  1.
         21    1    1    2  505  502  0.45652693998E+02 -0.13711733785E+02  0.25179996899E+02  0.53909297496E+02  0.00000000000E+00 0.  1.
         -2    1    1    2    0  505 -0.99895010840E+02  0.44628850373E+02  0.10307859660E+04  0.10365763142E+04  0.00000000000E+00 0.  1.
<scales pt_clust_3="92.65566" pt_clust_4="53.32742" pt_clust_5="47.66739" pt_clust_6="14000.00000"></scales>
<clustering>
<clus scale="   47.667">  2  5  1 -1</clus>
<clus scale="   53.327">  1  4  2 -1</clus>
<clus scale="   92.656">  2  3  1 -1</clus>
<clus scale="   47.667">  2  3  1 -1</clus>
</clustering>
</event>
<event>
 6    0  0.3522959E+002  0.1205331E+03  0.7546771E-02  0.1242220E+00
          1   -1    0    0  503    0 -0.00000000000E+00  0.00000000000E+00  0.29363677098E+03  0.29363677098E+03  0.00000000000E+00 0. -1.
         21   -1    0    0  504  502  0.00000000000E+00 -0.00000000000E+00 -0.19682743047E+03  0.19682743047E+03  0.00000000000E+00 0. -1.
         21    1    1    2  503  505 -0.10279644204E+03 -0.82605432211E+02  0.89548891093E+02  0.15940442222E+03  0.00000000000E+00 0. -1.
         21    1    1    2  504  501  0.52834371391E+02  0.98760327996E+01 -0.77886569495E+02  0.94632576484E+02  0.00000000000E+00 0. -1.
         21    1    1    2  505  502  0.43267577186E+01 -0.37528851735E+02 -0.45730333337E+02  0.59316093364E+02  0.00000000000E+00 0. -1.
          1    1    1    2  501    0  0.45635312933E+02  0.11025825115E+03  0.13087735225E+03  0.17711110938E+03  0.00000000000E+00 0. -1.
<scales pt_clust_3="14000.00000" pt_clust_4="56.82556" pt_clust_5="37.77745" pt_clust_6="120.53307"></scales>
<clustering>
<clus scale="   37.777">  2  5  1 -1</clus>
<clus scale="   56.826">  2  4  1 -1</clus>
<clus scale="  120.533">  1  6  2 -1</clus>
<clus scale="   37.777">  2  3  1 -1</clus>
</clustering>
</event>
<event>
 6    0  0.3522959E+002  0.9093725E+02  0.7546771E-02  0.1300598E+00
          1   -1    0    0  503    0 -0.00000000000E+00  0.00000000000E+00  0.13147924052E+04  0.13147924052E+04  0.00000000000E+00 0. -1.
         21   -1    0    0  505  502  0.00000000000E+00 -0.00000000000E+00 -0.43224210209E+03  0.43224210209E+03  0.00000000000E+00 0.  1.
         21    1    1    2  503  502 -0.35902262428E+02  0.32207361867E+02  0.35643593684E+01  0.48363118837E+02  0.00000000000E+00 0. -1.
         21    1    1    2  504  501  0.62990882396E+02 -0.16933161328E+03 -0.25624818468E+03  0.31353497201E+03  0.00000000000E+00 0.  1.
         21    1    1    2  505  504  0.19141837078E+02  0.59393552336E+02 -0.11542405820E+03  0.13121248873E+03  0.00000000000E+00 0.  1.
          1    1    1    2  501    0 -0.46230457046E+02  0.77730699081E+02  0.12506581867E+04  0.12539239278E+04  0.00000000000E+00 0. -1.
<scales pt_clust_3="48.23159" pt_clust_4="14000.00000" pt_clust_5="69.58597" pt_clust_6="90.93725"></scales>
<clustering>
<clus scale="   48.232">  2  3  1 -1</clus>
<clus scale="   69.586">  2  5  1 -1</clus>
<clus scale="   90.937">  1  6  2 -1</clus>
<clus scale="   48.232">  2  3  1 -1</clus>
</clustering>
</event>
<event>
 6    0  0.3522959E+002  0.2443743E+03  0.7546771E-02  0.1116913E+00
         21   -1    0    0  505  502  0.00000000000E+00  0.00000000000E+00  0.66463014380E+03  0.66463014380E+03  0.00000000000E+00 0.  1.
          2   -1    0    0  502    0 -0.00000000000E+00 -0.00000000000E+00 -0.18841921643E+04  0.18841921643E+04  0.00000000000E+00 0.  1.
         21    1    1    2  503  501 -0.15926240208E+03 -0.15579622892E+03 -0.48062752131E+03  0.52975446379E+03  0.00000000000E+00 0.  1.
         21    1    1    2  504  503  0.77925046167E+02  0.53338483805E+02  0.16011519530E+03  0.18588755322E+03  0.00000000000E+00 0. -1.
         21    1    1    2  505  504  0.13337574611E+03  0.45638890811E+02  0.45530877174E+03  0.47663201281E+03  0.00000000000E+00 0.  1.
          2    1    1    2  501    0 -0.52038390200E+02  0.56818854304E+02 -0.13543584662E+04  0.13565482783E+04  0.00000000000E+00 0.  1.
<scales pt_clust_3="232.33129" pt_clust_4="62.01414" pt_clust_5="62.01414" pt_clust_6="77.04788"></scales>
<clustering>
<clus scale="   62.014">  4  5 -1 -1</clus>
<clus scale="   77.048">  2  6  1 -1</clus>
<clus scale="  232.331">  2  3  1 -1</clus>
<clus scale="  244.374">  1  3  2 -1</clus>
</clustering>
</event>
<event>
 6    0  0.3522959E+002  0.1838202E+03  0.7546771E-02  0.1164156E+00
         21   -1    0    0  504  502  0.00000000000E+00  0.00000000000E+00  0.35384028792E+03  0.35384028792E+03  0.00000000000E+00 0.  1.
          2   -1    0    0  503    0 -0.00000000000E+00 -0.00000000000E+00 -0.27221216680E+04  0.27221216680E+04  0.00000000000E+00 0. -1.
         21    1    1    2  503  505 -0.10091952575E+02 -0.84920703488E+02  0.14441030020E+03  0.16783238124E+03  0.00000000000E+00 0.  1.
         21    1    1    2  504  501 -0.18564491822E+02  0.19114062611E+03 -0.10009766275E+04  0.10192318618E+04  0.00000000000E+00 0. -1.
         21    1    1    2  505  502 -0.58551454715E+02 -0.79145635578E+02  0.17442293422E+03  0.20028895242E+03  0.00000000000E+00 0.  1.
          2    1    1    2  501    0  0.87207899112E+02 -0.27074287040E+02 -0.16861379870E+04  0.16886087604E+04  0.00000000000E+00 0. -1.
<scales pt_clust_3="44.00258" pt_clust_4="177.65374" pt_clust_5="44.00258" pt_clust_6="91.31393"></scales>
<clustering>
<clus scale="   44.003">  3  5 -1 -1</clus>
<clus scale="   91.314">  2  6  1 -1</clus>
<clus scale="  177.654">  2  4  1 -1</clus>
<clus scale="  183.820">  1  3  2 -1</clus>
</clustering>
</event>
<event>
 6    0  0.3522959E+002  0.1360874E+03  0.7546771E-02  0.1218693E+00
         21   -1    0    0  501  502  0.00000000000E+00  0.00000000000E+00  0.10214698318E+03  0.10214698318E+03  0.00000000000E+00 0.  1.
          1   -1    0    0  504    0 -0.00000000000E+00 -0.00000000000E+00 -0.22370737087E+04  0.22370737087E+04  0.00000000000E+00 0. -1.
         21    1    1    2  503  502  0.13134387272E+03 -0.65714113679E+00  0.54941041286E+02  0.14237332177E+03  0.00000000000E+00 0.  1.
         21    1    1    2  504  505 -0.55118514733E+02  0.12855981935E+02 -0.62118968877E+03  0.62376274045E+03  0.00000000000E+00 0. -1.
         21    1    1    2  505  503 -0.44958786721E+02 -0.94715360962E+01 -0.25987678207E+03  0.26390707523E+03  0.00000000000E+00 0. -1.
          1    1    1    2  501    0 -0.31266571264E+02 -0.27273047021E+01 -0.13088012960E+04  0.13091775544E+04  0.00000000000E+00 0. -1.
<scales pt_clust_3="129.87348" pt_clust_4="34.30499" pt_clust_5="34.30499" pt_clust_6="31.38529"></scales>
<clustering>
<clus scale="   31.385">  2  6  1 -1</clus>
<clus scale="   34.305">  4  5 -1 -1</clus>
<clus scale="  129.873">  1  3  2 -1</clus>
<clus scale="  129.873">  1  3  2 -1</clus>
</clustering>
</event>
<event>
 6    0  0.3522959E+002  0.1109856E+03  0.7546771E-02  0.1258755E+00
         21   -1    0    0  504  502  0.00000000000E+00  0.00000000000E+00  0.19749421919E+03  0.19749421919E+03  0.00000000000E+00 0. -1.
          2   -1    0    0  505    0 -0.00000000000E+00 -0.00000000000E+00 -0.10286074952E+04  0.10286074952E+04  0.00000000000E+00 0.  1.
         21    1    1    2  503  501 -0.83895599551E+02  0.10756260774E+02  0.67519989671E+01  0.84851389263E+02  0.00000000000E+00 0. -1.
         21    1    1    2  504  503 -0.38214982487E+02  0.14599333185E+02  0.12745230019E+03  0.13385669292E+03  0.00000000000E+00 0. -1.
         21    1    1    2  505  502  0.12440306980E+03  0.56658267973E+02 -0.23032235713E+03  0.26783329012E+03  0.00000000000E+00 0.  1.
          2    1    1    2  501    0 -0.22924877641E+01 -0.82013861932E+02 -0.73499521808E+03  0.73956034213E+03  0.00000000000E+00 0.  1.
<scales pt_clust_3="110.98563" pt_clust_4="40.90874" pt_clust_5="14000.00000" pt_clust_6="81.59464"></scales>
<clustering>
<clus scale="   40.909">  1  4  2 -1</clus>
<clus scale="   81.595">  2  6  1 -1</clus>
<clus scale="  110.986">  1  3  2 -1</clus>
<clus scale="   40.909">  1  3  2 -1</clus>
</clustering>
</event>
<event>
 6    0  0.3522959E+002  0.9200405E+02  0.7546771E-02  0.1298070E+00
         21   -1    0    0  504  502  0.00000000000E+00  0.00000000000E+00  0.22791760469E+03  0.22791760469E+03  0.00000000000E+00 0.  1.
          2   -1    0    0  505    0 -0.00000000000E+00 -0.00000000000E+00 -0.22694745995E+04  0.22694745995E+04  0.00000000000E+00 0.  1.
         21    1    1    2  503  501  0.79900046382E+02  0.39513603423E+02  0.91316420130E+01  0.89603176022E+02  0.00000000000E+00 0.  1.
         21    1    1    2  504  503 -0.48670600148E+02 -0.83601177538E+02  0.16356185826E+03  0.19002753927E+03  0.00000000000E+00 0.  1.
         21    1    1    2  505  502  0.75725968355E+01  0.56043158229E+02 -0.52757328706E+03  0.53059565870E+03  0.00000000000E+00 0.  1.
          2    1    1    2  501    0 -0.38802043070E+02 -0.11955584114E+02 -0.16866772081E+04  0.16871658302E+04  0.00000000000E+00 0.  1.
<scales pt_clust_3="14000.00000" pt_clust_4="92.00405" pt_clust_5="52.98299" pt_clust_6="40.60215"></scales>
<clustering>
<clus scale="   40.602">  2  6  1 -1</clus>
<clus scale="   52.983">  2  5  1 -1</clus>
<clus scale="   92.004">  1  4  2 -1</clus>
<clus scale="   92.004">  1  3  2 -1</clus>
</clustering>
</event>
<event>
 6    0  0.3522959E+002  0.1751268E+03  0.7546771E-02  0.1172604E+00
          1   -1    0    0  504    0 -0.00000000000E+00  0.00000000000E+00  0.39830816420E+03  0.39830816420E+03  0.00000000000E+00 0. -1.
         21   -1    0    0  501  502  0.00000000000E+00 -0.00000000000E+00 -0.17671296447E+03  0.17671296447E+03  0.00000000000E+00 0. -1.
         21    1    1    2  503  502 -0.95769868046E+02  0.11809017348E+03 -0.33730085676E+02  0.15573976813E+03  0.00000000000E+00 0. -1.
         21    1    1    2  504  505  0.70159768028E+02 -0.12897519864E+03  0.27099200265E+02  0.14930291882E+03  0.00000000000E+00 0. -1.
         21    1    1    2  505  503  0.12739007365E+01 -0.55936837577E+02  0.40036962315E+02  0.68800515787E+02  0.00000000000E+00 0. -1.
          1    1    1    2  501    0  0.24336199281E+02  0.66821862738E+02  0.18818912282E+03  0.20117792593E+03  0.00000000000E+00 0. -1.
<scales pt_clust_3="164.02068" pt_clust_4="37.88643" pt_clust_5="37.88643" pt_clust_6="71.11548"></scales>
<clustering>
<clus scale="   37.886">  4  5 -1 -1</clus>
<clus scale="   71.115">  1  6  2 -1</clus>
<clus scale="  164.021">  2  3  1 -1</clus>
<clus scale="  164.021">  2  3  1 -1</clus>
</clustering>
</event>
<event>
 6    0  0.3522959E+002  0.1372069E+03  0.7546771E-02  0.1217137E+00
         21   -1    0    0  503  502  0.00000000000E+00  0.00000000000E+00  0.81873022993E+02  0.81873022993E+02  0.00000000000E+00 0.  1.
          2   -1    0    0  505    0 -0.00000000000E+00 -0.00000000000E+00 -0.52030597745E+03  0.52030597745E+03  0.00000000000E+00 0.  1.
         21    1    1    2  503  501 -0.74713041639E+02 -0.11525813868E+03 -0.22519247671E+02  0.13918905718E+03  0.00000000000E+00 0.  1.
         21    1    1    2  504  502  0.38042769436E+02  0.23397306187E+02 -0.23450870131E+02  0.50444321316E+02  0.00000000000E+00 0.  1.
         21    1    1    2  505  504  0.21194982068E+02  0.60833426803E+02 -0.10634800559E+03  0.12433757024E+03  0.00000000000E+00 0.  1.
          2    1    1    2  501    0  0.15475290135E+02  0.31027405694E+02 -0.28611483107E+03  0.28820805170E+03  0.00000000000E+00 0.  1.
<scales pt_clust_3="125.41415" pt_clust_4="43.34195" pt_clust_5="43.34195" pt_clust_6="34.67253"></scales>
<clustering>
<clus scale="   34.673">  2  6  1 -1</clus>
<clus scale="   43.342">  4  5 -1 -1</clus>
<clus scale="  125.414">  1  3  2 -1</clus>
<clus scale="  125.414">  1  3  2 -1</clus>
</clustering>
</event>
<event>
 6    0  0.3522959E+002  0.8790004E+02  0.7546771E-02  0.1308018E+00
          2   -1    0    0  505    0 -0.00000000000E+00  0.00000000000E+00  0.66573730029E+03  0.66573730029E+03  0.00000000000E+00 0.  1.
         21   -1    0    0  504  502  0.00000000000E+00 -0.00000000000E+00 -0.52974723436E+03  0.52974723436E+03  0.00000000000E+00 0. -1.
         21    1    1    2  503  501 -0.39024200417E+02  0.30699030427E+02  0.18223935510E+03  0.18888224171E+03  0.00000000000E+00 0. -1.
         21    1    1    2  504  503  0.91400322126E+01 -0.12216945492E+03 -0.21180292143E+03  0.24468222950E+03  0.00000000000E+00 0.  1.
         21    1    1    2  505  502 -0.50130542848E+01  0.77158202426E+02 -0.29238233900E+03  0.30243338287E+03  0.00000000000E+00 0. -1.
          2    1    1    2  501    0  0.34897222489E+02  0.14312222071E+02  0.45793597127E+03  0.45948668057E+03  0.00000000000E+00 0.  1.
<scales pt_clust_3="44.21104" pt_clust_4="14000.00000" pt_clust_5="87.90004" pt_clust_6="37.71811"></scales>
<clustering>
<clus scale="   37.718">  1  6  2 -1</clus>
<clus scale="   44.211">  1  3  2 -1</clus>
<clus scale="   87.900">  2  5  1 -1</clus>
<clus scale="   87.900">  2  3  1 -1</clus>
</clustering>
</event>
<event>
 6    0  0.3522959E+002  0.1029209E+03  0.7546771E-02  0.1274271E+00
         -4   -1    0    0    0  501 -0.00000000000E+00  0.00000000000E+00  0.42778193460E+03  0.42778193460E+03  0.00000000000E+00 0.  1.
         21   -1    0    0  503  502  0.00000000000E+00 -0.00000000000E+00 -0.41286220568E+03  0.41286220568E+03  0.00000000000E+00 0.  1.
         21    1    1    2  503  505  0.26263387891E+02 -0.51439290758E+02 -0.26636386760E+03  0.27255362067E+03  0.00000000000E+00 0.  1.
         21    1    1    2  504  501 -0.12841973412E+03  0.64791609376E+02  0.19721964325E+03  0.24410073420E+03  0.00000000000E+00 0. -1.
         21    1    1    2  505  504  0.53056155332E+02 -0.23083092964E+02 -0.10961426924E+03  0.12394786332E+03  0.00000000000E+00 0. -1.
         -4    1    1    2    0  502  0.49100190897E+02  0.97307743456E+01  0.19367822251E+03  0.20004192209E+03  0.00000000000E+00 0.  1.
<scales pt_clust_3="57.94277" pt_clust_4="14000.00000" pt_clust_5="102.92092" pt_clust_6="50.05514"></scales>
<clustering>
<clus scale="   50.055">  1  6  2 -1</clus>
<clus scale="   57.943">  2  3  1 -1</clus>
<clus scale="  102.921">  2  5  1 -1</clus>
<clus scale="   57.943">  2  3  1 -1</clus>
</clustering>
</event>
<event>
 6    0  0.3522959E+002  0.9744578E+02  0.7546771E-02  0.1285761E+00
         21   -1    0    0  505  502  0.00000000000E+00  0.00000000000E+00  0.48084202403E+03  0.48084202403E+03  0.00000000000E+00 0. -1.
          2   -1    0    0  503    0 -0.00000000000E+00 -0.00000000000E+00 -0.22025105857E+03  0.22025105857E+03  0.00000000000E+00 0. -1.
         21    1    1    2  503  504 -0.31788420701E+02 -0.77854565755E+02  0.14577059130E+03  0.16828815284E+03  0.00000000000E+00 0. -1.
         21    1    1    2  504  502  0.59656137807E+02 -0.65816681688E+02  0.20698844540E+03  0.22524410513E+03  0.00000000000E+00 0. -1.
         21    1    1    2  505  501 -0.45787984759E+02  0.46633416420E+02  0.83523666015E+02  0.10605384415E+03  0.00000000000E+00 0.  1.
          2    1    1    2  501    0  0.17920267652E+02  0.97037831023E+02 -0.17569173725E+03  0.20150698048E+03  0.00000000000E+00 0. -1.
<scales pt_clust_3="97.44578" pt_clust_4="52.29299" pt_clust_5="65.35453" pt_clust_6="14000.00000"></scales>
<clustering>
<clus scale="   65.355">  1  5  2 -1</clus>
<clus scale="   52.293">  1  4  2 -1</clus>
<clus scale="   97.446">  1  3  2 -1</clus>
<clus scale="   65.355">  1  3  2 -1</clus>
</clustering>
</event>
<event>
 6    0  0.3522959E+002  0.8635213E+02  0.7546771E-02  0.1311934E+00
          2   -1    0    0  503    0 -0.00000000000E+00  0.00000000000E+00  0.12506794641E+04  0.12506794641E+04  0.00000000000E+00 0.  1.
         21   -1    0    0  504  502  0.00000000000E+00 -0.00000000000E+00 -0.20150292034E+03  0.20150292034E+03  0.00000000000E+00 0.  1.
         21    1    1    2  503  505  0.56917680518E+02 -0.27185481972E+02 -0.73530520161E+02  0.96878326683E+02  0.00000000000E+00 0.  1.
         21    1    1    2  504  501 -0.11835663162E+03  0.20025886000E+02  0.26127678408E+02  0.12284943605E+03  0.00000000000E+00 0.  1.
         21    1    1    2  505  502  0.30726193612E+02  0.22378324475E+02 -0.62347359200E+02  0.73021103658E+02  0.00000000000E+00 0.  1.
          2    1    1    2  501    0  0.30712757493E+02 -0.15218728503E+02  0.11589267447E+04  0.11594335181E+04  0.00000000000E+00 0.  1.
<scales pt_clust_3="86.35213" pt_clust_4="14000.00000" pt_clust_5="38.97744" pt_clust_6="34.27657"></scales>
<clustering>
<clus scale="   34.277">  1  6  2 -1</clus>
<clus scale="   38.977">  2  5  1 -1</clus>
<clus scale="   86.352">  2  3  1 -1</clus>
<clus scale="   38.977">  2  3  1 -1</clus>
</clustering>
</event>
<event>
 6    0  0.3522959E+002  0.6247531E+02  0.7546771E-02  0.1387728E+00
         21   -1    0    0  505  502  0.00000000000E+00  0.00000000000E+00  0.80297495070E+03  0.80297495070E+03  0.00000000000E+00 0. -1.
          2   -1    0    0  504    0 -0.00000000000E+00 -0.00000000000E+00 -0.55760195780E+03  0.55760195780E+03  0.00000000000E+00 0.  1.
         21    1    1    2  503  502  0.30328378647E+02 -0.35859174443E+02  0.37122809960E+03  0.37418710945E+03  0.00000000000E+00 0. -1.
         21    1    1    2  504  503  0.46764225559E+02  0.93494720428E+02 -0.26259062346E+03  0.28263402320E+03  0.00000000000E+00 0.  1.
         21    1    1    2  505  501 -0.57291844538E+02 -0.20207740892E+02  0.41644834407E+03  0.42085618865E+03  0.00000000000E+00 0. -1.
          2    1    1    2  501    0 -0.19800759668E+02 -0.37427805093E+02 -0.27971282731E+03  0.28289958720E+03  0.00000000000E+00 0.  1.
<scales pt_clust_3="47.04981" pt_clust_4="62.47531" pt_clust_5="14000.00000" pt_clust_6="42.34278"></scales>
<clustering>
<clus scale="   42.343">  2  6  1 -1</clus>
<clus scale="   47.050">  1  3  2 -1</clus>
<clus scale="   62.475">  2  4  1 -1</clus>
<clus scale="   47.050">  1  3  2 -1</clus>
</clustering>
</event>
<event>
 6    0  0.3522959E+002  0.7814651E+02  0.7546771E-02  0.1334395E+00
          3   -1    0    0  503    0 -0.00000000000E+00  0.00000000000E+00  0.11525705320E+03  0.11525705320E+03  0.00000000000E+00 0. -1.
         21   -1    0    0  504  502  0.00000000000E+00 -0.00000000000E+00 -0.11658681577E+04  0.11658681577E+04  0.00000000000E+00 0. -1.
         21    1    1    2  503  505 -0.56192268867E+02  0.30492416133E+02 -0.19017028388E+03  0.20062924860E+03  0.00000000000E+00 0. -1.
         21    1    1    2  504  501  0.80032288453E+01 -0.70879118759E+02 -0.62974302250E+03  0.63376981273E+03  0.00000000000E+00 0. -1.
         21    1    1    2  505  502 -0.30824209564E+02  0.26249833907E+02 -0.32235653536E+03  0.32488909118E+03  0.00000000000E+00 0.  1.
          3    1    1    2  501    0  0.79013249586E+02  0.14136868719E+02  0.91658737277E+02  0.12183705835E+03  0.00000000000E+00 0. -1.
<scales pt_clust_3="78.14651" pt_clust_4="53.37513" pt_clust_5="40.48686" pt_clust_6="14000.00000"></scales>
<clustering>
<clus scale="   40.487">  2  5  1 -1</clus>
<clus scale="   53.375">  2  4  1 -1</clus>
<clus scale="   78.147">  2  3  1 -1</clus>
<clus scale="   40.487">  2  3  1 -1</clus>
</clustering>
</event>
<event>
 6    0  0.3522959E+002  0.1206263E+03  0.7546771E-02  0.1242067E+00
          2   -1    0    0  503    0 -0.00000000000E+00  0.00000000000E+00  0.47088892000E+04  0.47088892000E+04  0.00000000000E+00 0. -1.
         21   -1    0    0  504  502  0.00000000000E+00 -0.00000000000E+00 -0.30304862011E+03  0.30304862011E+03  0.00000000000E+00 0.  1.
         21    1    1    2  503  502 -0.10796995776E+03 -0.79170586564E+02  0.86303699204E+02  0.15929162581E+03  0.00000000000E+00 0. -1.
         21    1    1    2  504  505 -0.25278755350E+02  0.25608320012E+02 -0.22192847043E+02  0.42276754674E+02  0.00000000000E+00 0. -1.
         21    1    1    2  505  501  0.13278535172E+02  0.70455226992E+02 -0.22801389768E+03  0.23902007455E+03  0.00000000000E+00 0.  1.
          2    1    1    2  501    0  0.11997017794E+03 -0.16892960440E+02  0.45697436254E+04  0.45713493651E+04  0.00000000000E+00 0. -1.
<scales pt_clust_3="14000.00000" pt_clust_4="35.98335" pt_clust_5="92.92802" pt_clust_6="120.62633"></scales>
<clustering>
<clus scale="   35.983">  2  4  1 -1</clus>
<clus scale="   92.928">  2  5  1 -1</clus>
<clus scale="  120.626">  1  6  2 -1</clus>
<clus scale="   35.983">  2  3  1 -1</clus>
</clustering>
</event>
<event>
 6    0  0.3522959E+002  0.1078639E+03  0.7546771E-02  0.1264578E+00
         21   -1    0    0  505  502  0.00000000000E+00  0.00000000000E+00  0.18972341408E+03  0.18972341408E+03  0.00000000000E+00 0.  1.
          2   -1    0    0  504    0 -0.00000000000E+00 -0.00000000000E+00 -0.14628243279E+04  0.14628243279E+04  0.00000000000E+00 0.  1.
         21    1    1    2  503  502 -0.63409753897E+02 -0.56651168039E+02  0.13566701613E+03  0.16011149551E+03  0.00000000000E+00 0.  1.
         21    1    1    2  504  503  0.13404917056E+03  0.15750627876E+01 -0.34446148542E+03  0.36962870003E+03  0.00000000000E+00 0.  1.
         21    1    1    2  505  501 -0.31546092266E+02  0.23306849275E+01  0.19404574252E+02  0.37109642027E+02  0.00000000000E+00 0.  1.
          2    1    1    2  501    0 -0.39093324399E+02  0.52745420324E+02 -0.10837110188E+04  0.10856979044E+04  0.00000000000E+00 0.  1.
<scales pt_clust_3="107.86390" pt_clust_4="14000.00000" pt_clust_5="31.63207" pt_clust_6="65.78065"></scales>
<clustering>
<clus scale="   31.632">  1  5  2 -1</clus>
<clus scale="   65.781">  2  6  1 -1</clus>
<clus scale="  107.864">  1  3  2 -1</clus>
<clus scale="   31.632">  1  3  2 -1</clus>
</clustering>
</event>
<event>
 6    0  0.3522959E+002  0.1417009E+03  0.7546771E-02  0.1211058E+00
         -1   -1    0    0    0  501 -0.00000000000E+00  0.00000000000E+00  0.40740495164E+02  0.40740495164E+02  0.00000000000E+00 0.  1.
         21   -1    0    0  505  502  0.00000000000E+00 -0.00000000000E+00 -0.23634390415E+04  0.23634390415E+04  0.00000000000E+00 0.  1.
         21    1    1    2  503  502 -0.39114126709E+02 -0.66399337668E+02 -0.15750022639E+04  0.15768864634E+04  0.00000000000E+00 0.  1.
         21    1    1    2  504  503 -0.26099259591E+02 -0.45336328782E+02 -0.47794479913E+03  0.48079911094E+03  0.00000000000E+00 0. -1.
         21    1    1    2  505  501  0.47897693250E+02  0.14789100100E+03 -0.26347640321E+03  0.30591788480E+03  0.00000000000E+00 0.  1.
         -1    1    1    2    0  504  0.17315693051E+02 -0.36155334548E+02 -0.62750800884E+01  0.40576077586E+02  0.00000000000E+00 0.  1.
<scales pt_clust_3="43.45550" pt_clust_4="43.45550" pt_clust_5="131.67578" pt_clust_6="40.08792"></scales>
<clustering>
<clus scale="   40.088">  1  6  2 -1</clus>
<clus scale="   43.455">  3  4 -1 -1</clus>
<clus scale="  131.676">  1  5  2 -1</clus>
<clus scale="  141.701">  2  3  1 -1</clus>
</clustering>
</event>
<event>
 6    0  0.3522959E+002  0.1160263E+03  0.7546771E-02  0.1249800E+00
         -2   -1    0    0    0  501 -0.00000000000E+00  0.00000000000E+00  0.19530246610E+03  0.19530246610E+03  0.00000000000E+00 0.  1.
         21   -1    0    0  505  502  0.00000000000E+00 -0.00000000000E+00 -0.72665959741E+03  0.72665959741E+03  0.00000000000E+00 0.  1.
         21    1    1    2  503  502  0.80303459711E+02  0.28178319330E+01 -0.58005390815E+03  0.58559296630E+03  0.00000000000E+00 0.  1.
         21    1    1    2  504  501 -0.67763273678E+02 -0.11280313256E+03  0.62880112210E+02  0.14584346570E+03  0.00000000000E+00 0.  1.
         21    1    1    2  505  504 -0.38159223599E+02  0.74579838600E+01 -0.63065878467E+02  0.74088142747E+02  0.00000000000E+00 0.  1.
         -2    1    1    2    0  503  0.25619037566E+02  0.10252731677E+03  0.48882543096E+02  0.11643748876E+03  0.00000000000E+00 0.  1.
<scales pt_clust_3="47.45315" pt_clust_4="116.02629" pt_clust_5="38.88120" pt_clust_6="14000.00000"></scales>
<clustering>
<clus scale="   38.881">  2  5  1 -1</clus>
<clus scale="   47.453">  2  3  1 -1</clus>
<clus scale="  116.026">  2  4  1 -1</clus>
<clus scale="   38.881">  2  3  1 -1</clus>
</clustering>
</event>
<event>
 6    0  0.3522959E+002  0.1554789E+03  0.7546771E-02  0.1193898E+00
         21   -1    0    0  505  502  0.00000000000E+00  0.00000000000E+00  0.22730603602E+03  0.22730603602E+03  0.00000000000E+00 0. -1.
         -2   -1    0    0    0  501 -0.00000000000E+00 -0.00000000000E+00 -0.39607748420E+03  0.39607748420E+03  0.00000000000E+00 0. -1.
         21    1    1    2  503  502  0.21309298555E+02 -0.11360997863E+03 -0.12865184934E+03  0.17295262874E+03  0.00000000000E+00 0. -1.
         21    1    1    2  504  501 -0.21956828384E+02  0.37914391867E+02  0.15992634279E+02  0.46640838055E+02  0.00000000000E+00 0.  1.
         21    1    1    2  505  504 -0.39287320169E+02  0.10044397190E+03  0.15426589292E+03  0.18822978175E+03  0.00000000000E+00 0. -1.
         -2    1    1    2    0  503  0.39934849998E+02 -0.24748385137E+02 -0.21037812604E+03  0.21556027168E+03  0.00000000000E+00 0. -1.
<scales pt_clust_3="144.53828" pt_clust_4="36.51555" pt_clust_5="36.51555" pt_clust_6="46.98164"></scales>
<clustering>
<clus scale="   36.516">  4  5 -1 -1</clus>
<clus scale="   46.982">  2  6  1 -1</clus>
<clus scale="  144.538">  2  3  1 -1</clus>
<clus scale="  155.479">  1  3  2 -1</clus>
</clustering>
</event>
<event>
 6    0  0.3522959E+002  0.1369986E+03  0.7546771E-02  0.1217426E+00
          1   -1    0    0  505    0 -0.00000000000E+00  0.00000000000E+00  0.52462459616E+03  0.52462459616E+03  0.00000000000E+00 0. -1.
         21   -1    0    0  504  502  0.00000000000E+00 -0.00000000000E+00 -0.74361604861E+03  0.74361604861E+03  0.00000000000E+00 0. -1.
         21    1    1    2  503  501 -0.35709737935E+02 -0.35562178111E+01 -0.96753642580E+02  0.10319447379E+03  0.00000000000E+00 0. -1.
         21    1    1    2  504  503 -0.94569656962E+02  0.15647487925E+02 -0.60376375211E+03  0.61132555341E+03  0.00000000000E+00 0. -1.
         21    1    1    2  505  502  0.92280805134E+02  0.29792634920E+01  0.25389588762E+02  0.95756222903E+02  0.00000000000E+00 0. -1.
          1    1    1    2  501    0  0.37998589763E+02 -0.15070533606E+02  0.45613635348E+03  0.45796439466E+03  0.00000000000E+00 0. -1.
<scales pt_clust_3="31.76599" pt_clust_4="31.76599" pt_clust_5="126.78043" pt_clust_6="40.87804"></scales>
<clustering>
<clus scale="   31.766">  3  4 -1 -1</clus>
<clus scale="   40.878">  1  6  2 -1</clus>
<clus scale="  126.780">  1  5  2 -1</clus>
<clus scale="  136.999">  2  3  1 -1</clus>
</clustering>
</event>
<event>
 6    0  0.3522959E+002  0.1122417E+03  0.7546771E-02  0.1256474E+00
         21   -1    0    0  503  502  0.00000000000E+00  0.00000000000E+00  0.16799550607E+03  0.16799550607E+03  0.00000000000E+00 0. -1.
          2   -1    0    0  504    0 -0.00000000000E+00 -0.00000000000E+00 -0.69219279721E+03  0.69219279721E+03  0.00000000000E+00 0. -1.
         21    1    1    2  503  505 -0.87557632857E+01  0.82440653119E+02  0.75932360381E+02  0.11242263131E+03  0.00000000000E+00 0. -1.
         21    1    1    2  504  502 -0.50813527182E+02  0.10624954540E+02 -0.39324235041E+02  0.65125261345E+02  0.00000000000E+00 0.  1.
         21    1    1    2  505  501  0.11201130109E+03 -0.10656219760E+03 -0.40898401987E+02  0.15992095802E+03  0.00000000000E+00 0. -1.
          2    1    1    2  501    0 -0.52442010624E+02  0.13496589946E+02 -0.51990701449E+03  0.52271945261E+03  0.00000000000E+00 0. -1.
<scales pt_clust_3="14000.00000" pt_clust_4="51.91247" pt_clust_5="112.24174" pt_clust_6="54.62112"></scales>
<clustering>
<clus scale="   51.912">  1  4  2 -1</clus>
<clus scale="   54.621">  2  6  1 -1</clus>
<clus scale="  112.242">  2  5  1 -1</clus>
<clus scale="   51.912">  1  3  2 -1</clus>
</clustering>
</event>
<event>
 6    0  0.3522959E+002  0.1902730E+03  0.7546771E-02  0.1158215E+00
         21   -1    0    0  504  502  0.00000000000E+00  0.00000000000E+00  0.43199603014E+02  0.43199603014E+02  0.00000000000E+00 0. -1.
         -2   -1    0    0    0  501 -0.00000000000E+00 -0.00000000000E+00 -0.14187033235E+04  0.14187033235E+04  0.00000000000E+00 0. -1.
         21    1    1    2  503  502  0.25411740664E+02  0.21102995052E+03 -0.63261584619E+03  0.66736961681E+03  0.00000000000E+00 0. -1.
         21    1    1    2  504  505 -0.40124658274E+02 -0.37526854586E+02 -0.70439515719E+02  0.89330724790E+02  0.00000000000E+00 0. -1.
         21    1    1    2  505  501 -0.32239801124E+02 -0.30182609712E+00 -0.82962429550E+02  0.89007081698E+02  0.00000000000E+00 0. -1.
         -2    1    1    2    0  503  0.46952718734E+02 -0.17320126984E+03 -0.58948592900E+03  0.61619550320E+03  0.00000000000E+00 0. -1.
<scales pt_clust_3="190.27301" pt_clust_4="90.95173" pt_clust_5="30.68663" pt_clust_6="14000.00000"></scales>
<clustering>
<clus scale="   30.687">  4  5 -1 -1</clus>
<clus scale="   90.952">  1  4  2 -1</clus>
<clus scale="  190.273">  1  3  2 -1</clus>
<clus scale="   90.952">  1  3  2 -1</clus>
</clustering>
</event>
<event>
 6    0  0.3522959E+002  0.2009180E+03  0.7546771E-02  0.1148967E+00
         21   -1    0    0  503  502  0.00000000000E+00  0.00000000000E+00  0.10814280263E+03  0.10814280263E+03  0.00000000000E+00 0.  1.
          1   -1    0    0  505    0 -0.00000000000E+00 -0.00000000000E+00 -0.19128986226E+04  0.19128986226E+04  0.00000000000E+00 0. -1.
         21    1    1    2  503  501  0.15402562363E+03  0.12237470667E+03 -0.38506798037E+02  0.20045506993E+03  0.00000000000E+00 0.  1.
         21    1    1    2  504  502  0.85790043017E+02 -0.26337742856E+02 -0.20815221141E+03  0.22667366697E+03  0.00000000000E+00 0. -1.
         21    1    1    2  505  504  0.33466898652E+02 -0.46111286780E+02 -0.21789461742E+03  0.22522066596E+03  0.00000000000E+00 0. -1.
          1    1    1    2  501    0 -0.27328256530E+03 -0.49925677033E+02 -0.13402021931E+04  0.13686920223E+04  0.00000000000E+00 0. -1.
<scales pt_clust_3="200.91800" pt_clust_4="150.64059" pt_clust_5="45.22500" pt_clust_6="14000.00000"></scales>
<clustering>
<clus scale="   45.225">  4  5 -1 -1</clus>
<clus scale="  150.641">  2  4  1 -1</clus>
<clus scale="  200.918">  1  3  2 -1</clus>
<clus scale="  200.918">  1  3  2 -1</clus>
</clustering>
</event>
<event>
 6    0  0.3522959E+002  0.1037796E+03  0.7546771E-02  0.1272543E+00
          1   -1    0    0  503    0 -0.00000000000E+00  0.00000000000E+00  0.30202004202E+04  0.30202004202E+04  0.00000000000E+00 0.  1.
         21   -1    0    0  504  502  0.00000000000E+00 -0.00000000000E+00 -0.68893625334E+03  0.68893625334E+03  0.00000000000E+00 0. -1.
         21    1    1    2  503  505  0.91133983829E+02  0.27883725129E+02  0.77998882187E+02  0.12315328156E+03  0.00000000000E+00 0. -1.
         21    1    1    2  504  501  0.26186996600E+02 -0.14886115057E+02 -0.39025879658E+03  0.39141957478E+03  0.00000000000E+00 0. -1.
         21    1    1    2  505  502 -0.14729482826E+02 -0.33322216210E+02 -0.27337419620E+03  0.27579118714E+03  0.00000000000E+00 0. -1.
          1    1    1    2  501    0 -0.10259149760E+03  0.20324606138E+02  0.29168982775E+04  0.29187726301E+04  0.00000000000E+00 0.  1.
<scales pt_clust_3="103.77961" pt_clust_4="30.12234" pt_clust_5="47.96261" pt_clust_6="14000.00000"></scales>
<clustering>
<clus scale="   30.122">  2  4  1 -1</clus>
<clus scale="   47.963">  2  5  1 -1</clus>
<clus scale="  103.780">  2  3  1 -1</clus>
<clus scale="   30.122">  2  3  1 -1</clus>
</clustering>
</event>
<event>
 6    0  0.3522959E+002  0.1058721E+03  0.7546771E-02  0.1268411E+00
          3   -1    0    0  505    0 -0.00000000000E+00  0.00000000000E+00  0.36221110473E+02  0.36221110473E+02  0.00000000000E+00 0. -1.
         21   -1    0    0  501  502  0.00000000000E+00 -0.00000000000E+00 -0.67737718419E+03  0.67737718419E+03  0.00000000000E+00 0.  1.
         21    1    1    2  503  502 -0.23281412524E+01  0.74485036873E+02 -0.28391230334E+03  0.29352961852E+03  0.00000000000E+00 0.  1.
         21    1    1    2  504  503  0.42254006797E+02  0.24589410831E+02 -0.11963591746E+03  0.12923928567E+03  0.00000000000E+00 0. -1.
         21    1    1    2  505  504  0.36917999381E+02  0.48231040660E+01 -0.39335115482E+02  0.54161354499E+02  0.00000000000E+00 0.  1.
          3    1    1    2  501    0 -0.76843864926E+02 -0.10389755177E+03 -0.19827273743E+03  0.23666803597E+03  0.00000000000E+00 0. -1.
<scales pt_clust_3="74.52141" pt_clust_4="30.61483" pt_clust_5="30.61483" pt_clust_6="99.89093"></scales>
<clustering>
<clus scale="   30.615">  4  5 -1 -1</clus>
<clus scale="   74.521">  2  3  1 -1</clus>
<clus scale="   99.891">  2  6  1 -1</clus>
<clus scale="   74.521">  2  3  1 -1</clus>
</clustering>
</event>
<event>
 6    0  0.3522959E+002  0.1042903E+03  0.7546771E-02  0.1271524E+00
          2   -1    0    0  503    0 -0.00000000000E+00  0.00000000000E+00  0.16233131851E+04  0.16233131851E+04  0.00000000000E+00 0.  1.
         21   -1    0    0  505  502  0.00000000000E+00 -0.00000000000E+00 -0.41772944873E+02  0.41772944873E+02  0.00000000000E+00 0.  1.
         21    1    1    2  503  502  0.10265719873E+02 -0.79383638629E+02  0.66599187161E+02  0.10412780040E+03  0.00000000000E+00 0.  1.
         21    1    1    2  504  501  0.75250143295E+02  0.44535471354E+02  0.21647804063E+03  0.23347105678E+03  0.00000000000E+00 0.  1.
         21    1    1    2  505  504  0.34935605270E+01  0.99131720538E+02  0.19698142762E+03  0.22054701496E+03  0.00000000000E+00 0.  1.
          2    1    1    2  501    0 -0.89009423695E+02 -0.64283553263E+02  0.11014815848E+04  0.11069402578E+04  0.00000000000E+00 0.  1.
<scales pt_clust_3="80.04466" pt_clust_4="14000.00000" pt_clust_5="59.13021" pt_clust_6="104.29035"></scales>
<clustering>
<clus scale="   80.045">  2  3  1 -1</clus>
<clus scale="   59.130">  2  5  1 -1</clus>
<clus scale="  104.290">  1  6  2 -1</clus>
<clus scale="   80.045">  2  3  1 -1</clus>
</clustering>
</event>
<event>
 6    0  0.3522959E+002  0.1301729E+03  0.7546771E-02  0.1227199E+00
          2   -1    0    0  503    0 -0.00000000000E+00  0.00000000000E+00  0.42348709579E+03  0.42348709579E+03  0.00000000000E+00 0.  1.
         21   -1    0    0  505  502  0.00000000000E+00 -0.00000000000E+00 -0.32761566527E+04  0.32761566527E+04  0.00000000000E+00 0.  1.
         21    1    1    2  503  502  0.10778060902E+02 -0.70415849393E+02  0.71766194866E+02  0.10111847095E+03  0.00000000000E+00 0.  1.
         21    1    1    2  504  501 -0.47863597028E+02  0.29002919075E+02 -0.10327959595E+04  0.10343111656E+04  0.00000000000E+00 0.  1.
         21    1    1    2  505  504 -0.46338449861E+02  0.52145740170E+02 -0.22221115522E+04  0.22232062839E+04  0.00000000000E+00 0.  1.
          2    1    1    2  501    0  0.83423985987E+02 -0.10732809852E+02  0.33047175999E+03  0.34100782806E+03  0.00000000000E+00 0.  1.
<scales pt_clust_3="71.23594" pt_clust_4="35.12522" pt_clust_5="35.12522" pt_clust_6="124.12533"></scales>
<clustering>
<clus scale="   35.125">  4  5 -1 -1</clus>
<clus scale="   71.236">  1  3  2 -1</clus>
<clus scale="  124.125">  1  6  2 -1</clus>
<clus scale="  130.173">  2  3  1 -1</clus>
</clustering>
</event>
<event>
 6    0  0.3522959E+002  0.1339029E+03  0.7546771E-02  0.1221777E+00
         -1   -1    0    0    0  501 -0.00000000000E+00  0.00000000000E+00  0.58394848926E+02  0.58394848926E+02  0.00000000000E+00 0.  1.
         21   -1    0    0  505  502  0.00000000000E+00 -0.00000000000E+00 -0.95984951627E+03  0.95984951627E+03  0.00000000000E+00 0.  1.
         21    1    1    2  503  502 -0.29910937870E+02 -0.75731263797E+02 -0.22522294001E+03  0.23948958480E+03  0.00000000000E+00 0.  1.
         21    1    1    2  504  503  0.23099338232E+02  0.67954970287E+02 -0.29745095348E+02  0.77693166435E+02  0.00000000000E+00 0.  1.
         21    1    1    2  505  501  0.52683583836E+02 -0.59433454042E+02 -0.60412517691E+03  0.60932349770E+03  0.00000000000E+00 0.  1.
         -1    1    1    2    0  504 -0.45871984198E+02  0.67209747552E+02 -0.42361455077E+02  0.91738116269E+02  0.00000000000E+00 0.  1.
<scales pt_clust_3="114.93685" pt_clust_4="64.51991" pt_clust_5="79.42226" pt_clust_6="64.51991"></scales>
<clustering>
<clus scale="   64.520">  4  6 -1 -1</clus>
<clus scale="   79.422">  2  5  1 -1</clus>
<clus scale="  114.937">  2  3  1 -1</clus>
<clus scale="   79.422">  2  3  1 -1</clus>
</clustering>
</event>
<event>
 6    0  0.3522959E+002  0.1954184E+03  0.7546771E-02  0.1153663E+00
         21   -1    0    0  503  502  0.00000000000E+00  0.00000000000E+00  0.15029999135E+03  0.15029999135E+03  0.00000000000E+00 0. -1.
          2   -1    0    0  502    0 -0.00000000000E+00 -0.00000000000E+00 -0.11547670731E+04  0.11547670731E+04  0.00000000000E+00 0. -1.
         21    1    1    2  503  505 -0.17268783880E+03 -0.89250933982E+01  0.59757356098E+02  0.18295269489E+03  0.00000000000E+00 0. -1.
         21    1    1    2  504  501  0.62903833228E+02  0.25634922400E+02 -0.16690837354E+03  0.18020112830E+03  0.00000000000E+00 0. -1.
         21    1    1    2  505  504  0.10825078379E+03 -0.49367082662E+02 -0.13930398012E+03  0.18319645171E+03  0.00000000000E+00 0. -1.
          2    1    1    2  501    0  0.15332217782E+01  0.32657253660E+02 -0.75801208415E+03  0.75871678952E+03  0.00000000000E+00 0. -1.
<scales pt_clust_3="172.49257" pt_clust_4="74.30325" pt_clust_5="74.30325" pt_clust_6="32.69323"></scales>
<clustering>
<clus scale="   32.693">  2  6  1 -1</clus>
<clus scale="   74.303">  4  5 -1 -1</clus>
<clus scale="  172.493">  1  3  2 -1</clus>
<clus scale="  172.493">  1  3  2 -1</clus>
</clustering>
</event>
<event>
 6    0  0.3522959E+002  0.1662687E+03  0.7546771E-02  0.1181796E+00
          1   -1    0    0  504    0 -0.00000000000E+00  0.00000000000E+00  0.11874361596E+04  0.11874361596E+04  0.00000000000E+00 0.  1.
         21   -1    0    0  505  502  0.00000000000E+00 -0.00000000000E+00 -0.54086317507E+03  0.54086317507E+03  0.00000000000E+00 0.  1.
         21    1    1    2  503  502 -0.82835079291E+02 -0.14714873493E+03 -0.55726960566E+02  0.17781983772E+03  0.00000000000E+00 0. -1.
         21    1    1    2  504  503  0.50780585208E+02  0.33630243077E+01  0.78980608164E+02  0.93956980754E+02  0.00000000000E+00 0. -1.
         21    1    1    2  505  501  0.12497772514E+02  0.16861685059E+03 -0.39919194042E+03  0.43352282744E+03  0.00000000000E+00 0.  1.
          1    1    1    2  501    0  0.19556721570E+02 -0.24831139967E+02  0.10225112773E+04  0.10229996887E+04  0.00000000000E+00 0.  1.
<scales pt_clust_3="166.26865" pt_clust_4="61.81112" pt_clust_5="14000.00000" pt_clust_6="31.60777"></scales>
<clustering>
<clus scale="   31.608">  1  6  2 -1</clus>
<clus scale="   61.811">  1  4  2 -1</clus>
<clus scale="  166.269">  1  3  2 -1</clus>
<clus scale="  166.269">  2  3  1 -1</clus>
</clustering>
</event>
<event>
 6    0  0.3522959E+002  0.1600987E+03  0.7546771E-02  0.1188585E+00
         -1   -1    0    0    0  501 -0.00000000000E+00  0.00000000000E+00  0.50691205121E+03  0.50691205121E+03  0.00000000000E+00 0. -1.
         21   -1    0    0  503  502  0.00000000000E+00 -0.00000000000E+00 -0.10438640497E+03  0.10438640497E+03  0.00000000000E+00 0. -1.
         21    1    1    2  503  505  0.62228731699E+02  0.33618264982E+02 -0.33964966457E+02  0.78461594017E+02  0.00000000000E+00 0. -1.
         21    1    1    2  504  502 -0.10425249244E+03 -0.41333786236E+02  0.26827487052E+03  0.29077219643E+03  0.00000000000E+00 0. -1.
         21    1    1    2  505  501  0.53697161240E+02  0.52044793922E+02  0.77509901849E+01  0.75180606199E+02  0.00000000000E+00 0. -1.
         -1    1    1    2    0  504 -0.11673400501E+02 -0.44329272668E+02  0.16046475199E+03  0.16688405953E+03  0.00000000000E+00 0. -1.
<scales pt_clust_3="45.00843" pt_clust_4="44.54584" pt_clust_5="151.38941" pt_clust_6="44.54584"></scales>
<clustering>
<clus scale="   44.546">  4  6 -1 -1</clus>
<clus scale="   45.008">  3  5 -1 -1</clus>
<clus scale="  151.389">  2  3  1 -1</clus>
<clus scale="  151.389">  2  3  1 -1</clus>
</clustering>
</event>
<event>
 6    0  0.3522959E+002  0.7948217E+02  0.7546771E-02  0.1330527E+00
         -1   -1    0    0    0  501 -0.00000000000E+00  0.00000000000E+00  0.65660983624E+03  0.65660983624E+03  0.00000000000E+00 0. -1.
         21   -1    0    0  505  502  0.00000000000E+00 -0.00000000000E+00 -0.16486809919E+03  0.16486809919E+03  0.00000000000E+00 0. -1.
         21    1    1    2  503  502  0.21752160672E+02  0.54901800549E+02 -0.16981746338E+02  0.61447082161E+02  0.00000000000E+00 0. -1.
         21    1    1    2  504  501  0.36136862079E+02 -0.69683472600E+02 -0.15248499712E+01  0.78511045859E+02  0.00000000000E+00 0. -1.
         21    1    1    2  505  504 -0.89042885658E+02  0.18476159067E+02 -0.60940350072E+02  0.10947022521E+03  0.00000000000E+00 0. -1.
         -1    1    1    2    0  503  0.31153862907E+02 -0.36944870166E+01  0.57118868343E+03  0.57204958219E+03  0.00000000000E+00 0. -1.
<scales pt_clust_3="61.66955" pt_clust_4="14000.00000" pt_clust_5="79.48217" pt_clust_6="31.37216"></scales>
<clustering>
<clus scale="   31.372">  1  6  2 -1</clus>
<clus scale="   61.670">  2  3  1 -1</clus>
<clus scale="   79.482">  2  5  1 -1</clus>
<clus scale="   61.670">  2  3  1 -1</clus>
</clustering>
</event>
<event>
 6    0  0.3522959E+002  0.1179939E+03  0.7546771E-02  0.1246444E+00
         21   -1    0    0  504  502  0.00000000000E+00  0.00000000000E+00  0.10385507619E+03  0.10385507619E+03  0.00000000000E+00 0. -1.
         -2   -1    0    0    0  501 -0.00000000000E+00 -0.00000000000E+00 -0.80449437855E+03  0.80449437855E+03  0.00000000000E+00 0.  1.
         21    1    1    2  503  505  0.99917119869E+01  0.35430751445E+02  0.12013494980E+02  0.38723332992E+02  0.00000000000E+00 0. -1.
         21    1    1    2  504  503  0.83555461733E+02  0.34095978379E+02  0.40613910293E+02  0.98962319275E+02  0.00000000000E+00 0. -1.
         21    1    1    2  505  501 -0.68098539249E+02 -0.17653605735E+02 -0.16244864249E+03  0.17702717953E+03  0.00000000000E+00 0. -1.
         -2    1    1    2    0  502 -0.25448634471E+02 -0.51873124089E+02 -0.59081806514E+03  0.59363662294E+03  0.00000000000E+00 0.  1.
<scales pt_clust_3="32.58343" pt_clust_4="32.58343" pt_clust_5="106.39500" pt_clust_6="57.77936"></scales>
<clustering>
<clus scale="   32.583">  3  4 -1 -1</clus>
<clus scale="   57.779">  2  6  1 -1</clus>
<clus scale="  106.395">  2  5  1 -1</clus>
<clus scale="  117.994">  1  3  2 -1</clus>
</clustering>
</event>
<event>
 6    0  0.3522959E+002  0.1024621E+03  0.7546771E-02  0.1275202E+00
          3   -1    0    0  505    0 -0.00000000000E+00  0.00000000000E+00  0.41606456796E+04  0.41606456796E+04  0.00000000000E+00 0.  1.
         21   -1    0    0  503  502  0.00000000000E+00 -0.00000000000E+00 -0.10475871323E+04  0.10475871323E+04  0.00000000000E+00 0.  1.
         21    1    1    2  503  501 -0.63952660185E+01  0.54936707322E+02  0.17790064765E+02  0.58098430643E+02  0.00000000000E+00 0. -1.
         21    1    1    2  504  502  0.12242917143E+02 -0.49424540681E+02 -0.70134615124E+03  0.70319207768E+03  0.00000000000E+00 0.  1.
         21    1    1    2  505  504  0.81321471104E+02  0.48369095045E+02 -0.31762901210E+03  0.33142260084E+03  0.00000000000E+00 0.  1.
          3    1    1    2  501    0 -0.87169122229E+02 -0.53881261687E+02  0.41142436459E+04  0.41155197028E+04  0.00000000000E+00 0.  1.
<scales pt_clust_3="52.36115" pt_clust_4="50.91831" pt_clust_5="102.46209" pt_clust_6="14000.00000"></scales>
<clustering>
<clus scale="   50.918">  2  4  1 -1</clus>
<clus scale="   52.361">  2  3  1 -1</clus>
<clus scale="  102.462">  2  5  1 -1</clus>
<clus scale="   50.918">  2  3  1 -1</clus>
</clustering>
</event>
<event>
 6    0  0.3522959E+002  0.1965516E+03  0.7546771E-02  0.1152681E+00
         21   -1    0    0  503  502  0.00000000000E+00  0.00000000000E+00  0.12955484093E+03  0.12955484093E+03  0.00000000000E+00 0. -1.
          2   -1    0    0  505    0 -0.00000000000E+00 -0.00000000000E+00 -0.21249074256E+04  0.21249074256E+04  0.00000000000E+00 0.  1.
         21    1    1    2  503  501 -0.78384057776E+02 -0.23236518244E+03 -0.24993409167E+02  0.24650011973E+03  0.00000000000E+00 0. -1.
         21    1    1    2  504  502  0.38515554461E+02  0.34959241861E+02 -0.59450138344E+02  0.78993135626E+02  0.00000000000E+00 0.  1.
         21    1    1    2  505  504  0.39494265061E+02  0.15124036151E+03 -0.70258124728E+03  0.71975957997E+03  0.00000000000E+00 0.  1.
          2    1    1    2  501    0  0.37423825396E+00  0.46165579066E+02 -0.12083277899E+04  0.12092094312E+04  0.00000000000E+00 0.  1.
<scales pt_clust_3="196.55162" pt_clust_4="54.44108" pt_clust_5="14000.00000" pt_clust_6="46.16710"></scales>
<clustering>
<clus scale="   46.167">  2  6  1 -1</clus>
<clus scale="   54.441">  1  4  2 -1</clus>
<clus scale="  196.552">  1  3  2 -1</clus>
<clus scale="   54.441">  1  3  2 -1</clus>
</clustering>
</event>
<event>
 6    0  0.3522959E+002  0.8930713E+02  0.7546771E-02  0.1304538E+00
          2   -1    0    0  503    0 -0.00000000000E+00  0.00000000000E+00  0.13803288641E+04  0.13803288641E+04  0.00000000000E+00 0. -1.
         21   -1    0    0  505  502  0.00000000000E+00 -0.00000000000E+00 -0.29395453135E+02  0.29395453135E+02  0.00000000000E+00 0. -1.
         21    1    1    2  503  504 -0.82191540833E+02 -0.57078780306E+01  0.81237806363E+03  0.81654525137E+03  0.00000000000E+00 0. -1.
         21    1    1    2  504  502 -0.19120563467E+02  0.62906859557E+02  0.79689512567E+02  0.10331160312E+03  0.00000000000E+00 0. -1.
         21    1    1    2  505  501 -0.16946708347E+02 -0.25652424930E+02  0.26752011424E+02  0.40754238354E+02  0.00000000000E+00 0. -1.
          2    1    1    2  501    0  0.11825881265E+03 -0.31546556596E+02  0.43211382335E+03  0.44911322441E+03  0.00000000000E+00 0. -1.
<scales pt_clust_3="14000.00000" pt_clust_4="56.79270" pt_clust_5="30.74472" pt_clust_6="89.30713"></scales>
<clustering>
<clus scale="   30.745">  2  5  1 -1</clus>
<clus scale="   56.793">  2  4  1 -1</clus>
<clus scale="   89.307">  2  6  1 -1</clus>
<clus scale="   30.745">  2  3  1 -1</clus>
</clustering>
</event>
<event>
 6    0  0.3522959E+002  0.1474723E+03  0.7546771E-02  0.1203614E+00
         -2   -1    0    0    0  501 -0.00000000000E+00  0.00000000000E+00  0.96224560084E+02  0.96224560084E+02  0.00000000000E+00 0.  1.
         21   -1    0    0  504  502  0.00000000000E+00 -0.00000000000E+00 -0.93994347186E+03  0.93994347186E+03  0.00000000000E+00 0.  1.
         21    1    1    2  503  501  0.20695386801E+02  0.30390496358E+02 -0.37112037829E+02  0.52241598899E+02  0.00000000000E+00 0.  1.
         21    1    1    2  504  505 -0.16677470222E+02 -0.15681743334E+03 -0.63665546970E+03  0.65589635805E+03  0.00000000000E+00 0.  1.
         21    1    1    2  505  503 -0.53806990831E+02  0.12755887725E+03 -0.21837869502E+03  0.25856471891E+03  0.00000000000E+00 0.  1.
         -2    1    1    2    0  502  0.49789074252E+02 -0.11319402725E+01  0.48427290770E+02  0.69465356077E+02  0.00000000000E+00 0.  1.
<scales pt_clust_3="36.76794" pt_clust_4="14000.00000" pt_clust_5="147.47230" pt_clust_6="66.34925"></scales>
<clustering>
<clus scale="   36.768">  1  3  2 -1</clus>
<clus scale="   66.349">  1  6  2 -1</clus>
<clus scale="  147.472">  1  5  2 -1</clus>
<clus scale="  147.472">  2  3  1 -1</clus>
</clustering>
</event>
<event>
 6    0  0.3522959E+002  0.1570744E+03  0.7546771E-02  0.1192040E+00
         -4   -1    0    0    0  501 -0.00000000000E+00  0.00000000000E+00  0.67191101756E+03  0.67191101756E+03  0.00000000000E+00 0.  1.
         21   -1    0    0  501  502  0.00000000000E+00 -0.00000000000E+00 -0.73735721094E+03  0.73735721094E+03  0.00000000000E+00 0.  1.
         21    1    1    2  503  505  0.73519442948E+02  0.33398987660E+02 -0.14943596218E+03  0.16985790432E+03  0.00000000000E+00 0.  1.
         21    1    1    2  504  503  0.50948687381E+02  0.11347948467E+03 -0.33649378600E+03  0.35874981562E+03  0.00000000000E+00 0.  1.
         21    1    1    2  505  502 -0.76477842014E+02 -0.70931468164E+02 -0.21494246642E+03  0.23891504215E+03  0.00000000000E+00 0. -1.
         -4    1    1    2    0  504 -0.47990288315E+02 -0.75947004167E+02  0.63542602122E+03  0.64174546641E+03  0.00000000000E+00 0.  1.
<scales pt_clust_3="63.60882" pt_clust_4="63.60882" pt_clust_5="135.79241" pt_clust_6="89.83883"></scales>
<clustering>
<clus scale="   63.609">  3  4 -1 -1</clus>
<clus scale="   89.839">  1  6  2 -1</clus>
<clus scale="  135.792">  2  5  1 -1</clus>
<clus scale="  135.792">  2  3  1 -1</clus>
</clustering>
</event>
<event>
 6    0  0.3522959E+002  0.1423553E+03  0.7546771E-02  0.1210194E+00
          1   -1    0    0  504    0 -0.00000000000E+00  0.00000000000E+00  0.15351086835E+03  0.15351086835E+03  0.00000000000E+00 0.  1.
         21   -1    0    0  503  502  0.00000000000E+00 -0.00000000000E+00 -0.50916411575E+03  0.50916411575E+03  0.00000000000E+00 0.  1.
         21    1    1    2  503  505  0.40287902926E+02  0.22413636121E+02 -0.11608858238E+03  0.12490814692E+03  0.00000000000E+00 0. -1.
         21    1    1    2  504  502 -0.20718482404E+03 -0.87020593788E+02 -0.24242740403E+03  0.33055889230E+03  0.00000000000E+00 0.  1.
         21    1    1    2  505  501  0.50906004830E+02  0.69755832016E+01 -0.45817127669E+02  0.68842496153E+02  0.00000000000E+00 0. -1.
          1    1    1    2  501    0  0.11599091628E+03  0.57631374465E+02  0.48679866684E+02  0.13836544874E+03  0.00000000000E+00 0.  1.
<scales pt_clust_3="43.87879" pt_clust_4="14000.00000" pt_clust_5="106.42299" pt_clust_6="142.35528"></scales>
<clustering>
<clus scale="   43.879">  3  5 -1 -1</clus>
<clus scale="  106.423">  2  3  1 -1</clus>
<clus scale="  142.355">  1  6  2 -1</clus>
<clus scale="  106.423">  2  3  1 -1</clus>
</clustering>
</event>
<event>
 6    0  0.3522959E+002  0.9716427E+02  0.7546771E-02  0.1286375E+00
         21   -1    0    0  505  502  0.00000000000E+00  0.00000000000E+00  0.61562161198E+02  0.61562161198E+02  0.00000000000E+00 0. -1.
          2   -1    0    0  503    0 -0.00000000000E+00 -0.00000000000E+00 -0.66812709595E+03  0.66812709595E+03  0.00000000000E+00 0.  1.
         21    1    1    2  503  504 -0.79983829111E+02  0.10840009940E+03 -0.82300075696E+02  0.15786480586E+03  0.00000000000E+00 0. -1.
         21    1    1    2  504  502  0.32374398031E+02 -0.38202411020E+01 -0.10477644792E+02  0.34241450471E+02  0.00000000000E+00 0.  1.
         21    1    1    2  505  501  0.54471502413E+01 -0.69956771326E+02 -0.11239422623E+03  0.13249937128E+03  0.00000000000E+00 0. -1.
          2    1    1    2  501    0  0.42162280838E+02 -0.34623086969E+02 -0.40139298804E+03  0.40508362954E+03  0.00000000000E+00 0.  1.
<scales pt_clust_3="97.16427" pt_clust_4="32.59902" pt_clust_5="14000.00000" pt_clust_6="55.57976"></scales>
<clustering>
<clus scale="   32.599">  1  4  2 -1</clus>
<clus scale="   55.580">  2  6  1 -1</clus>
<clus scale="   97.164">  1  3  2 -1</clus>
<clus scale="   32.599">  1  3  2 -1</clus>
</clustering>
</event>
<event>
 6    0  0.3522959E+002  0.9478698E+02  0.7546771E-02  0.1291657E+00
          2   -1    0    0  504    0 -0.00000000000E+00  0.00000000000E+00  0.64198703775E+03  0.64198703775E+03  0.00000000000E+00 0. -1.
         21   -1    0    0  501  502  0.00000000000E+00 -0.00000000000E+00 -0.37325355050E+03  0.37325355050E+03  0.00000000000E+00 0. -1.
         21    1    1    2  503  505  0.74851546510E+02 -0.56565709695E+02 -0.25451526140E+03  0.27125716914E+03  0.00000000000E+00 0. -1.
         21    1    1    2  504  503 -0.53332780026E+02  0.79960709636E+02  0.10341070489E+03  0.14118029040E+03  0.00000000000E+00 0. -1.
         21    1    1    2  505  502 -0.54472728165E+02 -0.38653903475E+02 -0.78541236827E+02  0.10310251331E+03  0.00000000000E+00 0. -1.
          2    1    1    2  501    0  0.32953961680E+02  0.15258903534E+02  0.49837928058E+03  0.49970061540E+03  0.00000000000E+00 0. -1.
<scales pt_clust_3="14000.00000" pt_clust_4="94.78698" pt_clust_5="63.72879" pt_clust_6="36.31525"></scales>
<clustering>
<clus scale="   36.315">  1  6  2 -1</clus>
<clus scale="   63.729">  2  5  1 -1</clus>
<clus scale="   94.787">  1  4  2 -1</clus>
<clus scale="   63.729">  2  3  1 -1</clus>
</clustering>
</event>
<event>
 6    0  0.3522959E+002  0.1352121E+03  0.7546771E-02  0.1219921E+00
         -2   -1    0    0    0  501 -0.00000000000E+00  0.00000000000E+00  0.44242435615E+03  0.44242435615E+03  0.00000000000E+00 0.  1.
         21   -1    0    0  503  502  0.00000000000E+00 -0.00000000000E+00 -0.20516185412E+03  0.20516185412E+03  0.00000000000E+00 0. -1.
         21    1    1    2  503  504 -0.15873894538E+02  0.63091138152E+02 -0.37089548396E+02  0.74887294258E+02  0.00000000000E+00 0. -1.
         21    1    1    2  504  501  0.11300677687E+03 -0.15380408194E+03  0.76610475130E+02  0.20565843561E+03  0.00000000000E+00 0. -1.
         21    1    1    2  505  502 -0.11311938052E+03  0.42365256032E+01 -0.34798822693E+02  0.11842677256E+03  0.00000000000E+00 0. -1.
         -2    1    1    2    0  505  0.15986498191E+02  0.86476418186E+02  0.23254039799E+03  0.24861370783E+03  0.00000000000E+00 0.  1.
<scales pt_clust_3="65.05745" pt_clust_4="135.21205" pt_clust_5="14000.00000" pt_clust_6="91.14027"></scales>
<clustering>
<clus scale="   65.057">  2  3  1 -1</clus>
<clus scale="   91.140">  1  6  2 -1</clus>
<clus scale="  135.212">  1  4  2 -1</clus>
<clus scale="   65.057">  2  3  1 -1</clus>
</clustering>
</event>
<event>
 6    0  0.3522959E+002  0.1047240E+03  0.7546771E-02  0.1270664E+00
         21   -1    0    0  505  502  0.00000000000E+00  0.00000000000E+00  0.49629595481E+03  0.49629595481E+03  0.00000000000E+00 0.  1.
          2   -1    0    0  504    0 -0.00000000000E+00 -0.00000000000E+00 -0.10586778276E+04  0.10586778276E+04  0.00000000000E+00 0. -1.
         21    1    1    2  503  502  0.15946107664E+02 -0.31992891366E+02  0.23607122198E+02  0.42838296722E+02  0.00000000000E+00 0. -1.
         21    1    1    2  504  503 -0.14929080648E+03 -0.63365828311E+02 -0.79410368734E+02  0.18057956628E+03  0.00000000000E+00 0.  1.
         21    1    1    2  505  501  0.85416643389E+02  0.23974221977E+02  0.40567335261E+03  0.41526092436E+03  0.00000000000E+00 0.  1.
          2    1    1    2  501    0  0.47928055423E+02  0.71384497701E+02 -0.91225197891E+03  0.91629499509E+03  0.00000000000E+00 0. -1.
<scales pt_clust_3="35.74666" pt_clust_4="14000.00000" pt_clust_5="104.72403" pt_clust_6="85.90461"></scales>
<clustering>
<clus scale="   35.747">  1  3  2 -1</clus>
<clus scale="   85.905">  2  6  1 -1</clus>
<clus scale="  104.724">  1  5  2 -1</clus>
<clus scale="   35.747">  1  3  2 -1</clus>
</clustering>
</event>
<event>
 6    0  0.3522959E+002  0.1610733E+03  0.7546771E-02  0.1187490E+00
          2   -1    0    0  504    0 -0.00000000000E+00  0.00000000000E+00  0.50830360264E+03  0.50830360264E+03  0.00000000000E+00 0.  1.
         21   -1    0    0  503  502  0.00000000000E+00 -0.00000000000E+00 -0.39561702976E+03  0.39561702976E+03  0.00000000000E+00 0. -1.
         21    1    1    2  503  501 -0.69093788191E+02 -0.13171094714E+03 -0.32697427664E+03  0.35921289335E+03  0.00000000000E+00 0. -1.
         21    1    1    2  504  505  0.84596897273E+01  0.11469301836E+03  0.87763270006E+02  0.14466667334E+03  0.00000000000E+00 0.  1.
         21    1    1    2  505  502 -0.15882689004E+02 -0.28874551410E+02 -0.39387085232E+01  0.33189048705E+02  0.00000000000E+00 0. -1.
          2    1    1    2  501    0  0.76516787468E+02  0.45892480186E+02  0.35583628804E+03  0.36685201701E+03  0.00000000000E+00 0.  1.
<scales pt_clust_3="14000.00000" pt_clust_4="161.07330" pt_clust_5="32.95451" pt_clust_6="88.80851"></scales>
<clustering>
<clus scale="   32.955">  2  5  1 -1</clus>
<clus scale="   88.809">  1  6  2 -1</clus>
<clus scale="  161.073">  1  4  2 -1</clus>
<clus scale="   32.955">  2  3  1 -1</clus>
</clustering>
</event>
<event>
 6    0  0.3522959E+002  0.9008338E+02  0.7546771E-02  0.1302650E+00
          1   -1    0    0  504    0 -0.00000000000E+00  0.00000000000E+00  0.49658021340E+04  0.49658021340E+04  0.00000000000E+00 0. -1.
         21   -1    0    0  503  502  0.00000000000E+00 -0.00000000000E+00 -0.64762263816E+01  0.64762263816E+01  0.00000000000E+00 0.  1.
         21    1    1    2  503  501 -0.12502482585E+03 -0.68897375618E+02  0.20618808102E+04  0.20668165208E+04  0.00000000000E+00 0.  1.
         21    1    1    2  504  505  0.28135680037E+02  0.12390889045E+02  0.53142460571E+03  0.53231312419E+03  0.00000000000E+00 0.  1.
         21    1    1    2  505  502  0.74868598312E+02  0.24378312004E+02  0.45716985860E+03  0.46390073154E+03  0.00000000000E+00 0.  1.
          1    1    1    2  501    0  0.22020547506E+02  0.32128174569E+02  0.19088506332E+04  0.19092479839E+04  0.00000000000E+00 0. -1.
<scales pt_clust_3="90.08338" pt_clust_4="30.74330" pt_clust_5="14000.00000" pt_clust_6="50.68184"></scales>
<clustering>
<clus scale="   30.743">  1  4  2 -1</clus>
<clus scale="   50.682">  1  6  2 -1</clus>
<clus scale="   90.083">  1  3  2 -1</clus>
<clus scale="   90.083">  2  3  1 -1</clus>
</clustering>
</event>
<event>
 6    0  0.3522959E+002  0.2441222E+03  0.7546771E-02  0.1117077E+00
         21   -1    0    0  501  502  0.00000000000E+00  0.00000000000E+00  0.15602968511E+03  0.15602968511E+03  0.00000000000E+00 0.  1.
          2   -1    0    0  505    0 -0.00000000000E+00 -0.00000000000E+00 -0.55023565535E+03  0.55023565535E+03  0.00000000000E+00 0. -1.
         21    1    1    2  503  504 -0.13153828091E+03  0.60000722215E+02 -0.68212793826E+01  0.14473747221E+03  0.00000000000E+00 0.  1.
         21    1    1    2  504  502  0.44617512148E+01  0.52653416142E+02 -0.18708021875E+02  0.56056039263E+02  0.00000000000E+00 0.  1.
         21    1    1    2  505  503 -0.54389873375E+02  0.56596797564E+02 -0.26619689692E+02  0.82885847402E+02  0.00000000000E+00 0.  1.
          2    1    1    2  501    0  0.18146640307E+03 -0.16925093592E+03 -0.34205697928E+03  0.42258598158E+03  0.00000000000E+00 0. -1.
<scales pt_clust_3="37.06093" pt_clust_4="52.84212" pt_clust_5="37.06093" pt_clust_6="238.88458"></scales>
<clustering>
<clus scale="   37.061">  3  5 -1 -1</clus>
<clus scale="   52.842">  1  4  2 -1</clus>
<clus scale="  238.885">  2  6  1 -1</clus>
<clus scale="   52.842">  1  3  2 -1</clus>
</clustering>
</event>
<event>
 6    0  0.3522959E+002  0.2245311E+03  0.7546771E-02  0.1130549E+00
         -4   -1    0    0    0  501 -0.00000000000E+00  0.00000000000E+00  0.90342910922E+03  0.90342910922E+03  0.00000000000E+00 0. -1.
         21   -1    0    0  503  502  0.00000000000E+00 -0.00000000000E+00 -0.22859366392E+03  0.22859366392E+03  0.00000000000E+00 0. -1.
         21    1    1    2  503  501  0.15183840587E+02 -0.56089302249E+02 -0.10335171994E+03  0.11856701420E+03  0.00000000000E+00 0. -1.
         21    1    1    2  504  502  0.27702571621E+01  0.33229695966E+02 -0.18082053789E+02  0.37932145840E+02  0.00000000000E+00 0.  1.
         21    1    1    2  505  504  0.19359485608E+03  0.10291982407E+03  0.95488784056E+02  0.23914340126E+03  0.00000000000E+00 0. -1.
         -4    1    1    2    0  505 -0.21154895383E+03 -0.80060217789E+02  0.70078043498E+03  0.73638021184E+03  0.00000000000E+00 0. -1.
<scales pt_clust_3="41.24667" pt_clust_4="33.34497" pt_clust_5="14000.00000" pt_clust_6="224.53113"></scales>
<clustering>
<clus scale="   33.345">  2  4  1 -1</clus>
<clus scale="   41.247">  2  3  1 -1</clus>
<clus scale="  224.531">  1  6  2 -1</clus>
<clus scale="   33.345">  2  3  1 -1</clus>
</clustering>
</event>
<event>
 6    0  0.3522959E+002  0.1400557E+03  0.7546771E-02  0.1213254E+00
         -1   -1    0    0    0  501 -0.00000000000E+00  0.00000000000E+00  0.44014392547E+03  0.44014392547E+03  0.00000000000E+00 0. -1.
         21   -1    0    0  503  502  0.00000000000E+00 -0.00000000000E+00 -0.10458717461E+03  0.10458717461E+03  0.00000000000E+00 0.  1.
         21    1    1    2  503  504 -0.32092982419E+02  0.68265216709E+02  0.34076261553E+02  0.82772525238E+02  0.00000000000E+00 0.  1.
         21    1    1    2  504  501 -0.84327437679E+01  0.38470154322E+02 -0.15792198036E+02  0.42431797745E+02  0.00000000000E+00 0.  1.
         21    1    1    2  505  502  0.65638906609E+02  0.31112788462E+02 -0.56954202923E-01  0.72639348224E+02  0.00000000000E+00 0.  1.
         -1    1    1    2    0  505 -0.25113180422E+02 -0.13784815949E+03  0.31732964154E+03  0.34688742887E+03  0.00000000000E+00 0. -1.
<scales pt_clust_3="34.70605" pt_clust_4="34.70605" pt_clust_5="72.63933" pt_clust_6="131.56199"></scales>
<clustering>
<clus scale="   34.706">  3  4 -1 -1</clus>
<clus scale="   72.639">  2  5  1 -1</clus>
<clus scale="  131.562">  1  6  2 -1</clus>
<clus scale="   72.639">  2  3  1 -1</clus>
</clustering>
</event>
<event>
 6    0  0.3522959E+002  0.1198060E+03  0.7546771E-02  0.1243418E+00
         21   -1    0    0  503  502  0.00000000000E+00  0.00000000000E+00  0.14874926174E+03  0.14874926174E+03  0.00000000000E+00 0. -1.
          2   -1    0    0  504    0 -0.00000000000E+00 -0.00000000000E+00 -0.31921067559E+03  0.31921067559E+03  0.00000000000E+00 0. -1.
         21    1    1    2  503  505  0.10910736687E+03 -0.10214153864E+02  0.25723021628E+02  0.11256296143E+03  0.00000000000E+00 0. -1.
         21    1    1    2  504  502  0.52522104802E+02  0.36593178516E+02 -0.13871881109E+03  0.15277611318E+03  0.00000000000E+00 0. -1.
         21    1    1    2  505  501 -0.13646346707E+03 -0.21486687019E+01 -0.13114451033E+01  0.13648668254E+03  0.00000000000E+00 0. -1.
          2    1    1    2  501    0 -0.25166004603E+02 -0.24230355950E+02 -0.56154179287E+02  0.66134180184E+02  0.00000000000E+00 0. -1.
<scales pt_clust_3="14000.00000" pt_clust_4="44.63631" pt_clust_5="119.80595" pt_clust_6="34.93477"></scales>
<clustering>
<clus scale="   34.935">  2  6  1 -1</clus>
<clus scale="   44.636">  2  4  1 -1</clus>
<clus scale="  119.806">  2  5  1 -1</clus>
<clus scale="  119.806">  1  3  2 -1</clus>
</clustering>
</event>
<event>
 6    0  0.3522959E+002  0.8075841E+02  0.7546771E-02  0.1326913E+00
         -2   -1    0    0    0  501 -0.00000000000E+00  0.00000000000E+00  0.11266931878E+04  0.11266931878E+04  0.00000000000E+00 0.  1.
         21   -1    0    0  503  502  0.00000000000E+00 -0.00000000000E+00 -0.73933623552E+02  0.73933623552E+02  0.00000000000E+00 0. -1.
         21    1    1    2  503  501  0.66971895305E+02 -0.85101019001E+02  0.31221129304E+01  0.10833820095E+03  0.00000000000E+00 0. -1.
         21    1    1    2  504  505 -0.27888659429E+02  0.95256955511E+02  0.31009256854E+03  0.32559033457E+03  0.00000000000E+00 0.  1.
         21    1    1    2  505  502 -0.35383917009E+02  0.19889458100E+02  0.17805567041E+02  0.44324376409E+02  0.00000000000E+00 0. -1.
         -2    1    1    2    0  504 -0.36993188667E+01 -0.30045394609E+02  0.72173931571E+03  0.72237389941E+03  0.00000000000E+00 0.  1.
<scales pt_clust_3="80.75841" pt_clust_4="14000.00000" pt_clust_5="39.76626" pt_clust_6="30.27228"></scales>
<clustering>
<clus scale="   30.272">  1  6  2 -1</clus>
<clus scale="   39.766">  2  5  1 -1</clus>
<clus scale="   80.758">  2  3  1 -1</clus>
<clus scale="   39.766">  2  3  1 -1</clus>
</clustering>
</event>
<event>
 6    0  0.3522959E+002  0.1082862E+03  0.7546771E-02  0.1263777E+00
          2   -1    0    0  505    0 -0.00000000000E+00  0.00000000000E+00  0.17068715821E+04  0.17068715821E+04  0.00000000000E+00 0. -1.
         21   -1    0    0  503  502  0.00000000000E+00 -0.00000000000E+00 -0.34960559437E+02  0.34960559437E+02  0.00000000000E+00 0.  1.
         21    1    1    2  503  501  0.43663761510E+01  0.34374868914E+02  0.98804542568E+02  0.10470451034E+03  0.00000000000E+00 0.  1.
         21    1    1    2  504  502 -0.95593102363E+02  0.34928494648E+02  0.66870236166E+02  0.12177713021E+03  0.00000000000E+00 0.  1.
         21    1    1    2  505  504 -0.40995811978E+01 -0.57205961305E+02  0.30997364780E+03  0.31523481867E+03  0.00000000000E+00 0.  1.
          2    1    1    2  501    0  0.95326307410E+02 -0.12097402257E+02  0.11962625961E+04  0.12001156823E+04  0.00000000000E+00 0. -1.
<scales pt_clust_3="34.65107" pt_clust_4="14000.00000" pt_clust_5="54.50959" pt_clust_6="108.28621"></scales>
<clustering>
<clus scale="   34.651">  2  3  1 -1</clus>
<clus scale="   54.510">  1  5  2 -1</clus>
<clus scale="  108.286">  1  6  2 -1</clus>
<clus scale="   34.651">  2  3  1 -1</clus>
</clustering>
</event>
<event>
 6    0  0.3522959E+002  0.6630067E+02  0.7546771E-02  0.1373145E+00
         21   -1    0    0  503  502  0.00000000000E+00  0.00000000000E+00  0.83924992025E+03  0.83924992025E+03  0.00000000000E+00 0. -1.
         -1   -1    0    0    0  501 -0.00000000000E+00 -0.00000000000E+00 -0.75859444955E+03  0.75859444955E+03  0.00000000000E+00 0. -1.
         21    1    1    2  503  505 -0.43306439913E+02  0.53476125868E+02  0.71174363105E+03  0.71506233303E+03  0.00000000000E+00 0. -1.
         21    1    1    2  504  502  0.39562726450E+02  0.12445414043E+02  0.85720057062E+02  0.95226182522E+02  0.00000000000E+00 0.  1.
         21    1    1    2  505  501 -0.59224130476E+02 -0.76703246358E+02 -0.35416050763E+02  0.10317549265E+03  0.00000000000E+00 0. -1.
         -1    1    1    2    0  504  0.62967843939E+02  0.10781706447E+02 -0.68139216665E+03  0.68438036160E+03  0.00000000000E+00 0. -1.
<scales pt_clust_3="14000.00000" pt_clust_4="41.47406" pt_clust_5="66.30067" pt_clust_6="63.96623"></scales>
<clustering>
<clus scale="   41.474">  1  4  2 -1</clus>
<clus scale="   63.966">  2  6  1 -1</clus>
<clus scale="   66.301">  2  5  1 -1</clus>
<clus scale="   41.474">  1  3  2 -1</clus>
</clustering>
</event>
<event>
 6    0  0.3522959E+002  0.8600063E+02  0.7546771E-02  0.1312836E+00
          1   -1    0    0  504    0 -0.00000000000E+00  0.00000000000E+00  0.24409903988E+03  0.24409903988E+03  0.00000000000E+00 0. -1.
         21   -1    0    0  505  502  0.00000000000E+00 -0.00000000000E+00 -0.14267856154E+03  0.14267856154E+03  0.00000000000E+00 0. -1.
         21    1    1    2  503  502  0.76036444963E+02  0.27927750813E+02 -0.32432047787E+02  0.87254443736E+02  0.00000000000E+00 0.  1.
         21    1    1    2  504  503  0.11923129135E+02  0.65026376186E+02  0.21411493869E+02  0.69491313687E+02  0.00000000000E+00 0. -1.
         21    1    1    2  505  501 -0.10423413947E+02 -0.10758703168E+03  0.22541503795E+02  0.11041619599E+03  0.00000000000E+00 0. -1.
          1    1    1    2  501    0 -0.77536160151E+02  0.14632904681E+02  0.89899528457E+02  0.11961564800E+03  0.00000000000E+00 0. -1.
<scales pt_clust_3="86.00063" pt_clust_4="66.11044" pt_clust_5="14000.00000" pt_clust_6="74.83926"></scales>
<clustering>
<clus scale="   66.110">  1  4  2 -1</clus>
<clus scale="   86.001">  2  3  1 -1</clus>
<clus scale="   74.839">  1  6  2 -1</clus>
<clus scale="   86.001">  2  3  1 -1</clus>
</clustering>
</event>
<event>
 6    0  0.3522959E+002  0.6372492E+02  0.7546771E-02  0.1382833E+00
          1   -1    0    0  502    0 -0.00000000000E+00  0.00000000000E+00  0.45232653246E+03  0.45232653246E+03  0.00000000000E+00 0. -1.
         21   -1    0    0  504  502  0.00000000000E+00 -0.00000000000E+00 -0.14765673638E+03  0.14765673638E+03  0.00000000000E+00 0.  1.
         21    1    1    2  503  501 -0.77463480090E+02  0.69263502193E+02  0.13300426569E+02  0.10476127543E+03  0.00000000000E+00 0.  1.
         21    1    1    2  504  505  0.34059213695E+02 -0.15770214223E+02 -0.46843846050E+02  0.60025624586E+02  0.00000000000E+00 0.  1.
         21    1    1    2  505  503 -0.18967551145E+02 -0.48787522848E+02 -0.30924143411E+02  0.60797146543E+02  0.00000000000E+00 0.  1.
          1    1    1    2  501    0  0.62371817540E+02 -0.47057651224E+01  0.36913735898E+03  0.37439922228E+03  0.00000000000E+00 0. -1.
<scales pt_clust_3="14000.00000" pt_clust_4="37.53305" pt_clust_5="56.51391" pt_clust_6="63.72492"></scales>
<clustering>
<clus scale="   37.533">  2  4  1 -1</clus>
<clus scale="   56.514">  2  5  1 -1</clus>
<clus scale="   63.725">  1  6  2 -1</clus>
<clus scale="   37.533">  2  3  1 -1</clus>
</clustering>
</event>
<event>
 6    0  0.3522959E+002  0.1185218E+03  0.7546771E-02  0.1245556E+00
         21   -1    0    0  501  502  0.00000000000E+00  0.00000000000E+00  0.89585812852E+02  0.89585812852E+02  0.00000000000E+00 0. -1.
          2   -1    0    0  504    0 -0.00000000000E+00 -0.00000000000E+00 -0.36966250930E+03  0.36966250930E+03  0.00000000000E+00 0. -1.
         21    1    1    2  503  505  0.57108925245E+02 -0.20386923247E+02 -0.41015514981E+02  0.73207434399E+02  0.00000000000E+00 0. -1.
         21    1    1    2  504  503  0.22582251334E+02 -0.35502357358E+02 -0.11539959155E+02  0.43629647152E+02  0.00000000000E+00 0. -1.
         21    1    1    2  505  502 -0.77081945601E+02  0.10253590133E+03 -0.20160456780E+02  0.12985253720E+03  0.00000000000E+00 0. -1.
          2    1    1    2  501    0 -0.26092309781E+01 -0.46646620722E+02 -0.20736076553E+03  0.21255870341E+03  0.00000000000E+00 0. -1.
<scales pt_clust_3="31.32907" pt_clust_4="31.32907" pt_clust_5="112.39607" pt_clust_6="46.71954"></scales>
<clustering>
<clus scale="   31.329">  3  4 -1 -1</clus>
<clus scale="   46.720">  2  6  1 -1</clus>
<clus scale="  112.396">  1  5  2 -1</clus>
<clus scale="  112.396">  1  3  2 -1</clus>
</clustering>
</event>
<event>
 6    0  0.3522959E+002  0.7022945E+02  0.7546771E-02  0.1359315E+00
         -1   -1    0    0    0  501 -0.00000000000E+00  0.00000000000E+00  0.78915416100E+03  0.78915416100E+03  0.00000000000E+00 0. -1.
         21   -1    0    0  505  502  0.00000000000E+00 -0.00000000000E+00 -0.16040748556E+04  0.16040748556E+04  0.00000000000E+00 0. -1.
         21    1    1    2  503  502  0.11572456854E+02 -0.98834727161E+02 -0.12844536305E+04  0.12883025087E+04  0.00000000000E+00 0. -1.
         21    1    1    2  504  501 -0.66111873679E+02  0.55855705799E+01 -0.87524325111E+02  0.10982934911E+03  0.00000000000E+00 0.  1.
         21    1    1    2  505  504  0.35428711164E+02  0.25697846412E+02 -0.21522529231E+03  0.21963036979E+03  0.00000000000E+00 0.  1.
         -1    1    1    2    0  503  0.19110705660E+02  0.67551310169E+02  0.77228255334E+03  0.77546678896E+03  0.00000000000E+00 0. -1.
<scales pt_clust_3="14000.00000" pt_clust_4="64.02146" pt_clust_5="43.76726" pt_clust_6="70.22945"></scales>
<clustering>
<clus scale="   43.767">  2  5  1 -1</clus>
<clus scale="   64.021">  2  4  1 -1</clus>
<clus scale="   70.229">  1  6  2 -1</clus>
<clus scale="   43.767">  2  3  1 -1</clus>
</clustering>
</event>
<event>
 6    0  0.3522959E+002  0.9516639E+02  0.7546771E-02  0.1290802E+00
          2   -1    0    0  504    0 -0.00000000000E+00  0.00000000000E+00  0.90311319155E+03  0.90311319155E+03  0.00000000000E+00 0. -1.
         21   -1    0    0  505  502  0.00000000000E+00 -0.00000000000E+00 -0.14688826021E+03  0.14688826021E+03  0.00000000000E+00 0. -1.
         21    1    1    2  503  502  0.25205856128E+01  0.47500003110E+02  0.20195610256E+02  0.51676554847E+02  0.00000000000E+00 0. -1.
         21    1    1    2  504  503  0.26430069350E+02  0.37371782285E+02  0.41130983608E+02  0.61538252246E+02  0.00000000000E+00 0.  1.
         21    1    1    2  505  501  0.65183486168E+02 -0.70116977888E+02 -0.98691848149E+02  0.13749675759E+03  0.00000000000E+00 0. -1.
          2    1    1    2  501    0 -0.94134141130E+02 -0.14754807506E+02  0.79359018563E+03  0.79928988708E+03  0.00000000000E+00 0. -1.
<scales pt_clust_3="95.16639" pt_clust_4="31.25700" pt_clust_5="94.31839" pt_clust_6="14000.00000"></scales>
<clustering>
<clus scale="   31.257">  3  4 -1 -1</clus>
<clus scale="   95.166">  2  3  1 -1</clus>
<clus scale="   94.318">  2  5  1 -1</clus>
<clus scale="   95.166">  2  3  1 -1</clus>
</clustering>
</event>
<event>
 6    0  0.3522959E+002  0.7215662E+02  0.7546771E-02  0.1352909E+00
         21   -1    0    0  504  502  0.00000000000E+00  0.00000000000E+00  0.20727578412E+03  0.20727578412E+03  0.00000000000E+00 0.  1.
         -3   -1    0    0    0  501 -0.00000000000E+00 -0.00000000000E+00 -0.24309583138E+03  0.24309583138E+03  0.00000000000E+00 0.  1.
         21    1    1    2  503  505  0.26633276817E+02  0.11139677507E+03  0.17146027213E+02  0.11581260371E+03  0.00000000000E+00 0.  1.
         21    1    1    2  504  501 -0.43208118763E+02 -0.40598981478E+02 -0.28211253628E+02  0.65658919085E+02  0.00000000000E+00 0.  1.
         21    1    1    2  505  502 -0.12051444190E+02 -0.48346770549E+02  0.11455309176E+03  0.12492020798E+03  0.00000000000E+00 0.  1.
         -3    1    1    2    0  503  0.28626286137E+02 -0.22451023038E+02 -0.13930791260E+03  0.14397988473E+03  0.00000000000E+00 0.  1.
<scales pt_clust_3="72.15662" pt_clust_4="14000.00000" pt_clust_5="50.61390" pt_clust_6="36.38011"></scales>
<clustering>
<clus scale="   36.380">  2  6  1 -1</clus>
<clus scale="   50.614">  1  5  2 -1</clus>
<clus scale="   72.157">  1  3  2 -1</clus>
<clus scale="   50.614">  1  3  2 -1</clus>
</clustering>
</event>
<event>
 6    0  0.3522959E+002  0.8731259E+02  0.7546771E-02  0.1309493E+00
         21   -1    0    0  501  502  0.00000000000E+00  0.00000000000E+00  0.64678524346E+02  0.64678524346E+02  0.00000000000E+00 0.  1.
          1   -1    0    0  504    0 -0.00000000000E+00 -0.00000000000E+00 -0.88798222578E+03  0.88798222578E+03  0.00000000000E+00 0.  1.
         21    1    1    2  503  505 -0.51356696564E+02  0.13449152127E+02 -0.12274038843E+02  0.54488916345E+02  0.00000000000E+00 0.  1.
         21    1    1    2  504  503 -0.69530799509E+02  0.35457447087E+02 -0.38517678606E+03  0.39300498617E+03  0.00000000000E+00 0. -1.
         21    1    1    2  505  502  0.28714992186E+02 -0.90526738407E+01  0.27529434553E+02  0.40796708773E+02  0.00000000000E+00 0.  1.
          1    1    1    2  501    0  0.92172503887E+02 -0.39853925374E+02 -0.45338231109E+03  0.46437013884E+03  0.00000000000E+00 0.  1.
<scales pt_clust_3="32.30435" pt_clust_4="87.31259" pt_clust_5="30.10817" pt_clust_6="14000.00000"></scales>
<clustering>
<clus scale="   30.108">  1  5  2 -1</clus>
<clus scale="   32.304">  1  3  2 -1</clus>
<clus scale="   87.313">  2  4  1 -1</clus>
<clus scale="   30.108">  1  3  2 -1</clus>
</clustering>
</event>
<event>
 6    0  0.3522959E+002  0.9976675E+02  0.7546771E-02  0.1280787E+00
          1   -1    0    0  504    0 -0.00000000000E+00  0.00000000000E+00  0.32580995211E+03  0.32580995211E+03  0.00000000000E+00 0.  1.
         21   -1    0    0  501  502  0.00000000000E+00 -0.00000000000E+00 -0.14751259484E+03  0.14751259484E+03  0.00000000000E+00 0. -1.
         21    1    1    2  503  505  0.14795263159E+02  0.78342283720E+02 -0.92070903497E+01  0.80256985634E+02  0.00000000000E+00 0. -1.
         21    1    1    2  504  503  0.28833818528E+02  0.17436890643E+02 -0.16869970068E+02  0.37683287228E+02  0.00000000000E+00 0. -1.
         21    1    1    2  505  502  0.27801430307E+02 -0.44572193910E+02 -0.58251675915E+02  0.78440153901E+02  0.00000000000E+00 0. -1.
          1    1    1    2  501    0 -0.71430511994E+02 -0.51206980452E+02  0.26262609361E+03  0.27694212019E+03  0.00000000000E+00 0.  1.
<scales pt_clust_3="30.16366" pt_clust_4="30.16366" pt_clust_5="52.53190" pt_clust_6="88.32133"></scales>
<clustering>
<clus scale="   30.164">  3  4 -1 -1</clus>
<clus scale="   52.532">  2  5  1 -1</clus>
<clus scale="   88.321">  1  6  2 -1</clus>
<clus scale="   52.532">  2  3  1 -1</clus>
</clustering>
</event>
<event>
 6    0  0.5420161E+002  0.1240992E+03  0.7546771E-02  0.1236484E+00
         21   -1    0    0  501  502  0.00000000000E+00  0.00000000000E+00  0.20149215883E+04  0.20149215883E+04  0.00000000000E+00 0. -1.
          2   -1    0    0  505    0 -0.00000000000E+00 -0.00000000000E+00 -0.14687021486E+04  0.14687021486E+04  0.00000000000E+00 0. -1.
         21    1    1    2  503  504 -0.39227701690E+02 -0.21301813695E+02  0.80994676421E+01  0.45367182221E+02  0.00000000000E+00 0. -1.
         21    1    1    2  504  502  0.49493528997E+02  0.10128691007E+03  0.19587027771E+04  0.19619442440E+04  0.00000000000E+00 0. -1.
         21    1    1    2  505  503 -0.88727876752E+02 -0.33950112275E+02 -0.59292745119E+02  0.11198605208E+03  0.00000000000E+00 0. -1.
          2    1    1    2  501    0  0.78462049445E+02 -0.46034984095E+02 -0.13612900599E+04  0.13643262587E+04  0.00000000000E+00 0. -1.
<scales pt_clust_3="35.70958" pt_clust_4="112.63538" pt_clust_5="35.70958" pt_clust_6="90.96985"></scales>
<clustering>
<clus scale="   35.710">  3  5 -1 -1</clus>
<clus scale="   90.970">  2  6  1 -1</clus>
<clus scale="  112.635">  1  4  2 -1</clus>
<clus scale="  112.635">  1  3  2 -1</clus>
</clustering>
</event>
<event>
 6    0  0.3522959E+002  0.1524195E+03  0.7546771E-02  0.1197531E+00
         21   -1    0    0  505  502  0.00000000000E+00  0.00000000000E+00  0.48320207725E+03  0.48320207725E+03  0.00000000000E+00 0. -1.
          2   -1    0    0  503    0 -0.00000000000E+00 -0.00000000000E+00 -0.10038941479E+04  0.10038941479E+04  0.00000000000E+00 0. -1.
         21    1    1    2  503  502 -0.35227326946E+02  0.44930766120E+02 -0.46513684359E+02  0.73642794220E+02  0.00000000000E+00 0. -1.
         21    1    1    2  504  501 -0.31731036620E+02 -0.91731249234E+02  0.38395568964E+03  0.39603466058E+03  0.00000000000E+00 0. -1.
         21    1    1    2  505  504 -0.16080255106E+01 -0.60752614520E+02  0.62976693022E+02  0.87518739599E+02  0.00000000000E+00 0. -1.
          2    1    1    2  501    0  0.68566389077E+02  0.10755309763E+03 -0.92111076893E+03  0.92990003074E+03  0.00000000000E+00 0. -1.
<scales pt_clust_3="57.09412" pt_clust_4="152.41948" pt_clust_5="60.20391" pt_clust_6="14000.00000"></scales>
<clustering>
<clus scale="   57.094">  2  3  1 -1</clus>
<clus scale="   60.204">  1  5  2 -1</clus>
<clus scale="  152.419">  1  4  2 -1</clus>
<clus scale="   60.204">  1  3  2 -1</clus>
</clustering>
</event>
<event>
 6    0  0.8584824E+002  0.1407142E+03  0.7546771E-02  0.1212371E+00
         21   -1    0    0  501  502  0.00000000000E+00  0.00000000000E+00  0.30324980835E+03  0.30324980835E+03  0.00000000000E+00 0.  1.
          1   -1    0    0  504    0 -0.00000000000E+00 -0.00000000000E+00 -0.74896359469E+03  0.74896359469E+03  0.00000000000E+00 0. -1.
         21    1    1    2  503  505 -0.13755664461E+02 -0.50716374710E+02 -0.15803788452E+02  0.54873752359E+02  0.00000000000E+00 0. -1.
         21    1    1    2  504  503  0.27733839980E+02 -0.38180403080E+02  0.94296820957E+01  0.48123050233E+02  0.00000000000E+00 0.  1.
         21    1    1    2  505  502 -0.44115566332E+02 -0.46244168390E+02  0.24387618953E+03  0.25211168581E+03  0.00000000000E+00 0.  1.
          1    1    1    2  501    0  0.30137390813E+02  0.13514094618E+03 -0.68321586951E+03  0.69710491464E+03  0.00000000000E+00 0. -1.
<scales pt_clust_3="47.09397" pt_clust_4="47.09397" pt_clust_5="63.91171" pt_clust_6="131.64652"></scales>
<clustering>
<clus scale="   47.094">  3  4 -1 -1</clus>
<clus scale="   63.912">  1  5  2 -1</clus>
<clus scale="  131.647">  2  6  1 -1</clus>
<clus scale="   63.912">  1  3  2 -1</clus>
</clustering>
</event>
<event>
 6    0  0.3522959E+002  0.1111258E+03  0.7546771E-02  0.1258499E+00
         21   -1    0    0  501  502  0.00000000000E+00  0.00000000000E+00  0.21453934220E+03  0.21453934220E+03  0.00000000000E+00 0.  1.
          2   -1    0    0  504    0 -0.00000000000E+00 -0.00000000000E+00 -0.26075794084E+04  0.26075794084E+04  0.00000000000E+00 0.  1.
         21    1    1    2  503  505 -0.51905999018E+02  0.61259250646E+02  0.16123256586E+03  0.18011904068E+03  0.00000000000E+00 0.  1.
         21    1    1    2  504  503  0.56427093011E+02 -0.14128293245E+03 -0.10449967895E+04  0.10560128664E+04  0.00000000000E+00 0.  1.
         21    1    1    2  505  502  0.10001538553E+02  0.41557570633E+02  0.26085474216E+02  0.50075087772E+02  0.00000000000E+00 0.  1.
          2    1    1    2  501    0 -0.14522632546E+02  0.38466111174E+02 -0.15353613168E+04  0.15359117558E+04  0.00000000000E+00 0.  1.
<scales pt_clust_3="111.12580" pt_clust_4="14000.00000" pt_clust_5="43.12538" pt_clust_6="41.11628"></scales>
<clustering>
<clus scale="   41.116">  2  6  1 -1</clus>
<clus scale="   43.125">  1  5  2 -1</clus>
<clus scale="  111.126">  1  3  2 -1</clus>
<clus scale="   43.125">  1  3  2 -1</clus>
</clustering>
</event>
<event>
 6    0  0.3522959E+002  0.7724409E+02  0.7546771E-02  0.1337059E+00
         21   -1    0    0  504  502  0.00000000000E+00  0.00000000000E+00  0.40915675676E+03  0.40915675676E+03  0.00000000000E+00 0.  1.
          2   -1    0    0  505    0 -0.00000000000E+00 -0.00000000000E+00 -0.60929402773E+03  0.60929402773E+03  0.00000000000E+00 0.  1.
         21    1    1    2  503  502 -0.44078462868E+02  0.26020021929E+02  0.94229884313E+02  0.10723443257E+03  0.00000000000E+00 0. -1.
         21    1    1    2  504  501  0.21591003985E+02  0.43220112586E+02  0.97401981883E+02  0.10872578195E+03  0.00000000000E+00 0.  1.
         21    1    1    2  505  503  0.78393883378E+02 -0.15371032897E+02  0.19493647545E+03  0.21067059374E+03  0.00000000000E+00 0.  1.
          2    1    1    2  501    0 -0.55906424496E+02 -0.53869101618E+02 -0.58670561262E+03  0.59181997625E+03  0.00000000000E+00 0.  1.
<scales pt_clust_3="54.64919" pt_clust_4="48.31304" pt_clust_5="77.24409" pt_clust_6="14000.00000"></scales>
<clustering>
<clus scale="   48.313">  1  4  2 -1</clus>
<clus scale="   54.649">  1  3  2 -1</clus>
<clus scale="   77.244">  1  5  2 -1</clus>
<clus scale="   48.313">  1  3  2 -1</clus>
</clustering>
</event>
<event>
 6    0  0.3522959E+002  0.1019795E+03  0.7546771E-02  0.1276188E+00
          2   -1    0    0  505    0 -0.00000000000E+00  0.00000000000E+00  0.45708743489E+04  0.45708743489E+04  0.00000000000E+00 0.  1.
         21   -1    0    0  503  502  0.00000000000E+00 -0.00000000000E+00 -0.14329377126E+03  0.14329377126E+03  0.00000000000E+00 0. -1.
         21    1    1    2  503  501 -0.39652466666E+02  0.19902224989E+02 -0.11113141254E+03  0.11966038411E+03  0.00000000000E+00 0. -1.
         21    1    1    2  504  502  0.26959328640E+01 -0.34520396293E+02 -0.30570068423E+01  0.34760194261E+02  0.00000000000E+00 0. -1.
         21    1    1    2  505  504  0.12621351406E+03 -0.30794233329E+02  0.49577587159E+03  0.51251522005E+03  0.00000000000E+00 0. -1.
          2    1    1    2  501    0 -0.89256980253E+02  0.45412404633E+02  0.40459931254E+04  0.40472323217E+04  0.00000000000E+00 0.  1.
<scales pt_clust_3="39.07942" pt_clust_4="34.62551" pt_clust_5="14000.00000" pt_clust_6="101.97946"></scales>
<clustering>
<clus scale="   34.626">  2  4  1 -1</clus>
<clus scale="   39.079">  2  3  1 -1</clus>
<clus scale="  101.979">  1  6  2 -1</clus>
<clus scale="   34.626">  2  3  1 -1</clus>
</clustering>
</event>
<event>
 6    0  0.3522959E+002  0.1413193E+03  0.7546771E-02  0.1211565E+00
         21   -1    0    0  505  502  0.00000000000E+00  0.00000000000E+00  0.82389437769E+03  0.82389437769E+03  0.00000000000E+00 0.  1.
          4   -1    0    0  503    0 -0.00000000000E+00 -0.00000000000E+00 -0.23254929253E+04  0.23254929253E+04  0.00000000000E+00 0. -1.
         21    1    1    2  503  502  0.73471609892E+02 -0.12347336817E+03  0.14564015328E+02  0.14441558313E+03  0.00000000000E+00 0.  1.
         21    1    1    2  504  501 -0.49142522238E+01  0.67974525408E+02  0.41868888516E+03  0.42419932642E+03  0.00000000000E+00 0.  1.
         21    1    1    2  505  504  0.16242813900E+02  0.71203296669E+02  0.31799604779E+03  0.32627476898E+03  0.00000000000E+00 0.  1.
          4    1    1    2  501    0 -0.84800171568E+02 -0.15704453907E+02 -0.22528474959E+04  0.22544976245E+04  0.00000000000E+00 0. -1.
<scales pt_clust_3="137.70714" pt_clust_4="30.66793" pt_clust_5="30.66793" pt_clust_6="86.24210"></scales>
<clustering>
<clus scale="   30.668">  4  5 -1 -1</clus>
<clus scale="   86.242">  2  6  1 -1</clus>
<clus scale="  137.707">  2  3  1 -1</clus>
<clus scale="  141.319">  1  3  2 -1</clus>
</clustering>
</event>
<event>
 6    0  0.3522959E+002  0.8877595E+02  0.7546771E-02  0.1305843E+00
          2   -1    0    0  503    0 -0.00000000000E+00  0.00000000000E+00  0.11358972427E+03  0.11358972427E+03  0.00000000000E+00 0. -1.
         21   -1    0    0  504  502  0.00000000000E+00 -0.00000000000E+00 -0.54493427484E+03  0.54493427484E+03  0.00000000000E+00 0. -1.
         21    1    1    2  503  502 -0.11341515886E+02  0.63624930665E+02  0.32425265132E+02  0.72306013606E+02  0.00000000000E+00 0. -1.
         21    1    1    2  504  505  0.45362613485E+02  0.17133234122E+01 -0.19008436075E+03  0.19542969677E+03  0.00000000000E+00 0. -1.
         21    1    1    2  505  501  0.36479469018E+02 -0.60541100054E+02 -0.30529977483E+03  0.31337506118E+03  0.00000000000E+00 0. -1.
          2    1    1    2  501    0 -0.70500566617E+02 -0.47971540232E+01  0.31614319871E+02  0.77413227558E+02  0.00000000000E+00 0. -1.
<scales pt_clust_3="64.32303" pt_clust_4="45.39496" pt_clust_5="88.77595" pt_clust_6="14000.00000"></scales>
<clustering>
<clus scale="   45.395">  2  4  1 -1</clus>
<clus scale="   64.323">  1  3  2 -1</clus>
<clus scale="   88.776">  2  5  1 -1</clus>
<clus scale="   45.395">  2  3  1 -1</clus>
</clustering>
</event>
<event>
 6    0  0.3522959E+002  0.3056527E+03  0.7546771E-02  0.1082449E+00
         21   -1    0    0  505  502  0.00000000000E+00  0.00000000000E+00  0.59242366106E+03  0.59242366106E+03  0.00000000000E+00 0.  1.
          1   -1    0    0  502    0 -0.00000000000E+00 -0.00000000000E+00 -0.97383557284E+03  0.97383557284E+03  0.00000000000E+00 0.  1.
         21    1    1    2  503  504 -0.18698492532E+03  0.16528062727E+03  0.12311438693E+03  0.27827720049E+03  0.00000000000E+00 0.  1.
         21    1    1    2  504  501 -0.60025000117E+02  0.12784110802E+02  0.25063615394E+02  0.66291922168E+02  0.00000000000E+00 0.  1.
         21    1    1    2  505  503  0.30895113290E+03 -0.37603666985E+02  0.26723118187E+03  0.41021621476E+03  0.00000000000E+00 0.  1.
          1    1    1    2  501    0 -0.61941207466E+02 -0.14046107108E+03 -0.79682109597E+03  0.81147389648E+03  0.00000000000E+00 0.  1.
<scales pt_clust_3="31.55965" pt_clust_4="31.55965" pt_clust_5="298.95374" pt_clust_6="153.51230"></scales>
<clustering>
<clus scale="   31.560">  3  4 -1 -1</clus>
<clus scale="  153.512">  2  6  1 -1</clus>
<clus scale="  298.954">  1  5  2 -1</clus>
<clus scale="  298.954">  1  3  2 -1</clus>
</clustering>
</event>
<event>
 6    0  0.3522959E+002  0.1175526E+03  0.7546771E-02  0.1247190E+00
         21   -1    0    0  503  502  0.00000000000E+00  0.00000000000E+00  0.11926731027E+04  0.11926731027E+04  0.00000000000E+00 0.  1.
          2   -1    0    0  505    0 -0.00000000000E+00 -0.00000000000E+00 -0.78322466285E+02  0.78322466285E+02  0.00000000000E+00 0.  1.
         21    1    1    2  503  501  0.49862549033E+02  0.95790069542E+02  0.69287289979E+03  0.70123809543E+03  0.00000000000E+00 0.  1.
         21    1    1    2  504  502 -0.34989200542E+02 -0.23065610820E+01  0.20862602642E+03  0.21155231806E+03  0.00000000000E+00 0.  1.
         21    1    1    2  505  504 -0.48017885368E+02 -0.63638951159E+02  0.27238835618E+03  0.28381516873E+03  0.00000000000E+00 0.  1.
          2    1    1    2  501    0  0.33144536877E+02 -0.29844557301E+02 -0.59536645940E+02  0.74389986793E+02  0.00000000000E+00 0.  1.
<scales pt_clust_3="105.08797" pt_clust_4="34.93730" pt_clust_5="34.93730" pt_clust_6="44.60110"></scales>
<clustering>
<clus scale="   34.937">  4  5 -1 -1</clus>
<clus scale="   44.601">  2  6  1 -1</clus>
<clus scale="  105.088">  1  3  2 -1</clus>
<clus scale="  105.088">  1  3  2 -1</clus>
</clustering>
</event>
<event>
 6    0  0.3522959E+002  0.1683596E+03  0.7546771E-02  0.1179569E+00
         21   -1    0    0  503  502  0.00000000000E+00  0.00000000000E+00  0.71550216117E+03  0.71550216117E+03  0.00000000000E+00 0. -1.
          2   -1    0    0  505    0 -0.00000000000E+00 -0.00000000000E+00 -0.48320577301E+03  0.48320577301E+03  0.00000000000E+00 0. -1.
         21    1    1    2  503  504 -0.38642310611E+02  0.76406821269E+02  0.25412167666E+02  0.89314101749E+02  0.00000000000E+00 0. -1.
         21    1    1    2  504  501 -0.23887308217E+01  0.54008255114E+02 -0.95988294895E+01  0.54906604183E+02  0.00000000000E+00 0. -1.
         21    1    1    2  505  502  0.78672898387E+02 -0.14796935205E+03  0.62336114610E+03  0.64549475021E+03  0.00000000000E+00 0. -1.
          2    1    1    2  501    0 -0.37641856954E+02  0.17554275666E+02 -0.40687809611E+03  0.40899247803E+03  0.00000000000E+00 0. -1.
<scales pt_clust_3="34.25000" pt_clust_4="34.25000" pt_clust_5="162.74836" pt_clust_6="41.53387"></scales>
<clustering>
<clus scale="   34.250">  3  4 -1 -1</clus>
<clus scale="   41.534">  2  6  1 -1</clus>
<clus scale="  162.748">  1  5  2 -1</clus>
<clus scale="  162.748">  1  3  2 -1</clus>
</clustering>
</event>
<event>
 6    0  0.3522959E+002  0.1449340E+03  0.7546771E-02  0.1206840E+00
         21   -1    0    0  503  502  0.00000000000E+00  0.00000000000E+00  0.25927413882E+03  0.25927413882E+03  0.00000000000E+00 0.  1.
          2   -1    0    0  504    0 -0.00000000000E+00 -0.00000000000E+00 -0.25465848392E+03  0.25465848392E+03  0.00000000000E+00 0.  1.
         21    1    1    2  503  505  0.95346916471E+01  0.39585734424E+02  0.65514676622E+02  0.77136979249E+02  0.00000000000E+00 0.  1.
         21    1    1    2  504  502 -0.49643718948E+02 -0.13771418888E+03 -0.12075001247E+03  0.18976370085E+03  0.00000000000E+00 0.  1.
         21    1    1    2  505  501 -0.49240693613E+02  0.91993617260E+02  0.10387829257E+03  0.14723508818E+03  0.00000000000E+00 0.  1.
          2    1    1    2  501    0  0.89349720913E+02  0.61348371944E+01 -0.44027301822E+02  0.99796854462E+02  0.00000000000E+00 0.  1.
<scales pt_clust_3="32.81319" pt_clust_4="135.08039" pt_clust_5="32.81319" pt_clust_6="89.56009"></scales>
<clustering>
<clus scale="   32.813">  3  5 -1 -1</clus>
<clus scale="   89.560">  2  6  1 -1</clus>
<clus scale="  135.080">  2  4  1 -1</clus>
<clus scale="  144.934">  1  3  2 -1</clus>
</clustering>
</event>
<event>
 6    0  0.3522959E+002  0.1003338E+03  0.7546771E-02  0.1279596E+00
         21   -1    0    0  504  502  0.00000000000E+00  0.00000000000E+00  0.79122729873E+03  0.79122729873E+03  0.00000000000E+00 0. -1.
         -1   -1    0    0    0  501 -0.00000000000E+00 -0.00000000000E+00 -0.86747120963E+02  0.86747120963E+02  0.00000000000E+00 0. -1.
         21    1    1    2  503  502  0.42962799907E+02 -0.35627000371E+02  0.11990951247E+03  0.13226252875E+03  0.00000000000E+00 0. -1.
         21    1    1    2  504  501 -0.17796443721E+02  0.13391512124E+03  0.97063396366E+02  0.16634685455E+03  0.00000000000E+00 0. -1.
         21    1    1    2  505  503  0.37944248470E+02 -0.43426679531E+02  0.49224203494E+03  0.49560857887E+03  0.00000000000E+00 0. -1.
         -1    1    1    2    0  505 -0.63110604656E+02 -0.54861441335E+02 -0.47347660197E+01  0.83756457511E+02  0.00000000000E+00 0. -1.
<scales pt_clust_3="55.81295" pt_clust_4="14000.00000" pt_clust_5="100.33377" pt_clust_6="83.14926"></scales>
<clustering>
<clus scale="   55.813">  1  3  2 -1</clus>
<clus scale="   83.149">  2  6  1 -1</clus>
<clus scale="  100.334">  1  5  2 -1</clus>
<clus scale="   55.813">  1  3  2 -1</clus>
</clustering>
</event>
<event>
 6    0  0.3522959E+002  0.1176055E+03  0.7546771E-02  0.1247100E+00
         21   -1    0    0  505  502  0.00000000000E+00  0.00000000000E+00  0.31170102200E+03  0.31170102200E+03  0.00000000000E+00 0.  1.
          1   -1    0    0  503    0 -0.00000000000E+00 -0.00000000000E+00 -0.38898204454E+03  0.38898204454E+03  0.00000000000E+00 0.  1.
         21    1    1    2  503  502  0.27110155608E+02  0.11827751373E+03 -0.17913954298E+03  0.21636891331E+03  0.00000000000E+00 0. -1.
         21    1    1    2  504  501 -0.29682564727E+02 -0.55411947024E+02  0.10115663211E+03  0.11909745061E+03  0.00000000000E+00 0.  1.
         21    1    1    2  505  504 -0.20619231392E+02 -0.39969851880E+02  0.17869340063E+03  0.18426631052E+03  0.00000000000E+00 0.  1.
          1    1    1    2  501    0  0.23191640511E+02 -0.22895714822E+02 -0.17799151231E+03  0.18095039210E+03  0.00000000000E+00 0.  1.
<scales pt_clust_3="108.37652" pt_clust_4="38.55925" pt_clust_5="38.55925" pt_clust_6="32.58935"></scales>
<clustering>
<clus scale="   32.589">  2  6  1 -1</clus>
<clus scale="   38.559">  4  5 -1 -1</clus>
<clus scale="  108.377">  2  3  1 -1</clus>
<clus scale="  117.605">  1  3  2 -1</clus>
</clustering>
</event>
<event>
 6    0  0.3522959E+002  0.1319859E+03  0.7546771E-02  0.1224538E+00
          2   -1    0    0  503    0 -0.00000000000E+00  0.00000000000E+00  0.33661453043E+04  0.33661453043E+04  0.00000000000E+00 0. -1.
         21   -1    0    0  505  502  0.00000000000E+00 -0.00000000000E+00 -0.84722780446E+02  0.84722780446E+02  0.00000000000E+00 0. -1.
         21    1    1    2  503  504 -0.49926796062E+02  0.12003702845E+03  0.70682539152E+03  0.71868192356E+03  0.00000000000E+00 0. -1.
         21    1    1    2  504  502  0.50931009128E+01 -0.67815950266E+02 -0.24373282706E+02  0.72242644589E+02  0.00000000000E+00 0. -1.
         21    1    1    2  505  501  0.10113121214E+03 -0.34557172665E+02  0.64585719950E+02  0.12487207644E+03  0.00000000000E+00 0. -1.
          2    1    1    2  501    0 -0.56297516992E+02 -0.17663905521E+02  0.25343846951E+04  0.25350714402E+04  0.00000000000E+00 0. -1.
<scales pt_clust_3="131.98587" pt_clust_4="68.41264" pt_clust_5="14000.00000" pt_clust_6="59.00359"></scales>
<clustering>
<clus scale="   59.004">  1  6  2 -1</clus>
<clus scale="   68.413">  2  4  1 -1</clus>
<clus scale="  131.986">  1  3  2 -1</clus>
<clus scale="   68.413">  2  3  1 -1</clus>
</clustering>
</event>
<event>
 6    0  0.3522959E+002  0.1714549E+03  0.7546771E-02  0.1176339E+00
          2   -1    0    0  503    0 -0.00000000000E+00  0.00000000000E+00  0.15488959170E+04  0.15488959170E+04  0.00000000000E+00 0. -1.
         21   -1    0    0  504  502  0.00000000000E+00 -0.00000000000E+00 -0.99493168652E+02  0.99493168652E+02  0.00000000000E+00 0. -1.
         21    1    1    2  503  502 -0.16678999256E+03 -0.77494522354E+02  0.51130730635E+02  0.19088911501E+03  0.00000000000E+00 0. -1.
         21    1    1    2  504  505  0.81209714832E+02  0.20376856796E+02  0.64410176025E+02  0.10563571769E+03  0.00000000000E+00 0. -1.
         21    1    1    2  505  501  0.56720652769E+02  0.16119479345E+02  0.93836883340E+02  0.11082612842E+03  0.00000000000E+00 0. -1.
          2    1    1    2  501    0  0.28859624964E+02  0.40998186214E+02  0.12400249583E+04  0.12410381245E+04  0.00000000000E+00 0. -1.
<scales pt_clust_3="167.15251" pt_clust_4="32.03131" pt_clust_5="32.03131" pt_clust_6="50.13710"></scales>
<clustering>
<clus scale="   32.031">  4  5 -1 -1</clus>
<clus scale="   50.137">  1  6  2 -1</clus>
<clus scale="  167.153">  2  3  1 -1</clus>
<clus scale="  167.153">  2  3  1 -1</clus>
</clustering>
</event>
<event>
 6    0  0.3522959E+002  0.8885084E+02  0.7546771E-02  0.1305659E+00
          1   -1    0    0  503    0 -0.00000000000E+00  0.00000000000E+00  0.18871158648E+04  0.18871158648E+04  0.00000000000E+00 0. -1.
         21   -1    0    0  505  502  0.00000000000E+00 -0.00000000000E+00 -0.18302847254E+03  0.18302847254E+03  0.00000000000E+00 0.  1.
         21    1    1    2  503  504 -0.10973579495E+03  0.42808454717E+02  0.14320573688E+03  0.18542489467E+03  0.00000000000E+00 0.  1.
         21    1    1    2  504  502  0.69461457612E+02  0.37036726320E+02 -0.10393577052E+03  0.13038120104E+03  0.00000000000E+00 0.  1.
         21    1    1    2  505  501  0.16274573035E+02 -0.53955148207E+02 -0.26763948029E+02  0.62388529873E+02  0.00000000000E+00 0.  1.
          1    1    1    2  501    0  0.23999764298E+02 -0.25890032830E+02  0.16915813739E+04  0.16919497118E+04  0.00000000000E+00 0. -1.
<scales pt_clust_3="14000.00000" pt_clust_4="88.85084" pt_clust_5="59.26510" pt_clust_6="35.30273"></scales>
<clustering>
<clus scale="   35.303">  1  6  2 -1</clus>
<clus scale="   59.265">  2  5  1 -1</clus>
<clus scale="   88.851">  2  4  1 -1</clus>
<clus scale="   59.265">  2  3  1 -1</clus>
</clustering>
</event>
<event>
 6    0  0.3522959E+002  0.9530428E+02  0.7546771E-02  0.1290492E+00
         21   -1    0    0  504  502  0.00000000000E+00  0.00000000000E+00  0.30920635081E+02  0.30920635081E+02  0.00000000000E+00 0. -1.
          1   -1    0    0  503    0 -0.00000000000E+00 -0.00000000000E+00 -0.23689628769E+04  0.23689628769E+04  0.00000000000E+00 0. -1.
         21    1    1    2  503  505  0.19321817263E+01  0.12533481551E+03 -0.70592111016E+03  0.71696385061E+03  0.00000000000E+00 0. -1.
         21    1    1    2  504  501  0.43946317800E+02  0.46385638267E+01 -0.20482554345E+02  0.48706571990E+02  0.00000000000E+00 0. -1.
         21    1    1    2  505  502 -0.36637962539E+02 -0.88568890822E+02 -0.19841258971E+03  0.22035050369E+03  0.00000000000E+00 0. -1.
          1    1    1    2  501    0 -0.92405369866E+01 -0.41404488518E+02 -0.14132259876E+04  0.14138625857E+04  0.00000000000E+00 0. -1.
<scales pt_clust_3="95.30428" pt_clust_4="43.72458" pt_clust_5="14000.00000" pt_clust_6="42.42310"></scales>
<clustering>
<clus scale="   42.423">  2  6  1 -1</clus>
<clus scale="   43.725">  1  4  2 -1</clus>
<clus scale="   95.304">  2  3  1 -1</clus>
<clus scale="   43.725">  1  3  2 -1</clus>
</clustering>
</event>
<event>
 6    0  0.3522959E+002  0.7673763E+02  0.7546771E-02  0.1338573E+00
         21   -1    0    0  503  502  0.00000000000E+00  0.00000000000E+00  0.13750666535E+03  0.13750666535E+03  0.00000000000E+00 0.  1.
          1   -1    0    0  504    0 -0.00000000000E+00 -0.00000000000E+00 -0.17472653775E+04  0.17472653775E+04  0.00000000000E+00 0.  1.
         21    1    1    2  503  505  0.67016103545E+02  0.22500578010E+02  0.52705433064E+02  0.88177643536E+02  0.00000000000E+00 0.  1.
         21    1    1    2  504  502  0.33520238393E+02 -0.20702785382E+02 -0.15441545778E+02  0.42316108522E+02  0.00000000000E+00 0. -1.
         21    1    1    2  505  501 -0.79481436022E+02  0.47377425536E+02  0.12960153147E+02  0.93433851961E+02  0.00000000000E+00 0.  1.
          1    1    1    2  501    0 -0.21054905915E+02 -0.49175218164E+02 -0.16599827526E+04  0.16608444389E+04  0.00000000000E+00 0.  1.
<scales pt_clust_3="76.73763" pt_clust_4="39.39812" pt_clust_5="14000.00000" pt_clust_6="53.51354"></scales>
<clustering>
<clus scale="   39.398">  1  4  2 -1</clus>
<clus scale="   53.514">  2  6  1 -1</clus>
<clus scale="   76.738">  1  3  2 -1</clus>
<clus scale="   39.398">  1  3  2 -1</clus>
</clustering>
</event>
<event>
 6    0  0.3522959E+002  0.8778681E+02  0.7546771E-02  0.1308302E+00
         -1   -1    0    0    0  501 -0.00000000000E+00  0.00000000000E+00  0.18314539969E+03  0.18314539969E+03  0.00000000000E+00 0. -1.
         21   -1    0    0  504  502  0.00000000000E+00 -0.00000000000E+00 -0.87648022426E+03  0.87648022426E+03  0.00000000000E+00 0. -1.
         21    1    1    2  503  501  0.41888857940E+02  0.46391064391E+01 -0.12062008049E+03  0.12777089475E+03  0.00000000000E+00 0. -1.
         21    1    1    2  504  503 -0.12104807473E+02 -0.37732850268E+02 -0.58882797120E+03  0.59015987158E+03  0.00000000000E+00 0. -1.
         21    1    1    2  505  502 -0.11134654587E+03  0.42942212058E+01 -0.13041807273E+03  0.17153823861E+03  0.00000000000E+00 0. -1.
         -1    1    1    2    0  505  0.81562495398E+02  0.28799522623E+02  0.14653129985E+03  0.17015661901E+03  0.00000000000E+00 0. -1.
<scales pt_clust_3="38.46960" pt_clust_4="39.62694" pt_clust_5="87.78681" pt_clust_6="14000.00000"></scales>
<clustering>
<clus scale="   39.627">  2  4  1 -1</clus>
<clus scale="   38.470">  2  3  1 -1</clus>
<clus scale="   87.787">  2  5  1 -1</clus>
<clus scale="   39.627">  2  3  1 -1</clus>
</clustering>
</event>
<event>
 6    0  0.3522959E+002  0.1114452E+03  0.7546771E-02  0.1257917E+00
         21   -1    0    0  505  502  0.00000000000E+00  0.00000000000E+00  0.26652207550E+03  0.26652207550E+03  0.00000000000E+00 0.  1.
          1   -1    0    0  503    0 -0.00000000000E+00 -0.00000000000E+00 -0.46529788342E+03  0.46529788342E+03  0.00000000000E+00 0.  1.
         21    1    1    2  503  504 -0.38527485207E+01  0.13549530204E+03 -0.11954603274E+03  0.18073481815E+03  0.00000000000E+00 0. -1.
         21    1    1    2  504  502 -0.18933397196E+02  0.55846254339E+02  0.92273810497E+02  0.10950677494E+03  0.00000000000E+00 0.  1.
         21    1    1    2  505  501 -0.15863361055E+02 -0.93015156051E+02  0.10762096962E+03  0.14312839893E+03  0.00000000000E+00 0.  1.
          1    1    1    2  501    0  0.38649506772E+02 -0.98326400330E+02 -0.27912455530E+03  0.29844996691E+03  0.00000000000E+00 0.  1.
<scales pt_clust_3="14000.00000" pt_clust_4="58.96845" pt_clust_5="59.04685" pt_clust_6="111.44522"></scales>
<clustering>
<clus scale="   58.968">  1  4  2 -1</clus>
<clus scale="   59.047">  1  5  2 -1</clus>
<clus scale="  111.445">  2  6  1 -1</clus>
<clus scale="   58.968">  1  3  2 -1</clus>
</clustering>
</event>
<event>
 6    0  0.3522959E+002  0.1136693E+03  0.7546771E-02  0.1253922E+00
          2   -1    0    0  505    0 -0.00000000000E+00  0.00000000000E+00  0.14572713889E+04  0.14572713889E+04  0.00000000000E+00 0.  1.
         21   -1    0    0  504  502  0.00000000000E+00 -0.00000000000E+00 -0.17909819870E+03  0.17909819870E+03  0.00000000000E+00 0.  1.
         21    1    1    2  503  501 -0.10976837778E+03 -0.25732951533E+02  0.43344247061E+02  0.12078909432E+03  0.00000000000E+00 0.  1.
         21    1    1    2  504  503 -0.28364904899E+02 -0.42900608026E+02  0.51240787729E+02  0.72599230891E+02  0.00000000000E+00 0.  1.
         21    1    1    2  505  502  0.74267266922E+02  0.40837607016E+02 -0.11481629235E+03  0.14270990881E+03  0.00000000000E+00 0.  1.
          2    1    1    2  501    0  0.63866015752E+02  0.27795952543E+02  0.12984044477E+04  0.13002713535E+04  0.00000000000E+00 0.  1.
<scales pt_clust_3="46.11222" pt_clust_4="46.11222" pt_clust_5="90.88107" pt_clust_6="69.65259"></scales>
<clustering>
<clus scale="   46.112">  3  4 -1 -1</clus>
<clus scale="   69.653">  1  6  2 -1</clus>
<clus scale="   90.881">  2  5  1 -1</clus>
<clus scale="   90.881">  2  3  1 -1</clus>
</clustering>
</event>
<event>
 6    0  0.3522959E+002  0.9093742E+02  0.7546771E-02  0.1300597E+00
          2   -1    0    0  505    0 -0.00000000000E+00  0.00000000000E+00  0.14097566139E+03  0.14097566139E+03  0.00000000000E+00 0. -1.
         21   -1    0    0  504  502  0.00000000000E+00 -0.00000000000E+00 -0.37868286860E+03  0.37868286860E+03  0.00000000000E+00 0. -1.
         21    1    1    2  503  502  0.48201021049E+02 -0.43039366806E+02 -0.25322036614E+03  0.26133556848E+03  0.00000000000E+00 0. -1.
         21    1    1    2  504  501 -0.23279703531E+02 -0.28749530375E+02 -0.36433380143E+02  0.51921780420E+02  0.00000000000E+00 0.  1.
         21    1    1    2  505  503  0.75653383919E+02  0.52942328736E+02  0.15794711228E+01  0.92351607455E+02  0.00000000000E+00 0. -1.
          2    1    1    2  501    0 -0.10057470144E+03  0.18846568445E+02  0.50367067952E+02  0.11404957363E+03  0.00000000000E+00 0. -1.
<scales pt_clust_3="71.85094" pt_clust_4="36.99297" pt_clust_5="90.93742" pt_clust_6="14000.00000"></scales>
<clustering>
<clus scale="   36.993">  2  4  1 -1</clus>
<clus scale="   71.851">  2  3  1 -1</clus>
<clus scale="   90.937">  2  5  1 -1</clus>
<clus scale="   36.993">  2  3  1 -1</clus>
</clustering>
</event>
<event>
 6    0  0.3522959E+002  0.1312003E+03  0.7546771E-02  0.1225686E+00
         21   -1    0    0  503  502  0.00000000000E+00  0.00000000000E+00  0.46042625170E+03  0.46042625170E+03  0.00000000000E+00 0. -1.
          1   -1    0    0  505    0 -0.00000000000E+00 -0.00000000000E+00 -0.53975737790E+03  0.53975737790E+03  0.00000000000E+00 0.  1.
         21    1    1    2  503  501  0.12223623187E+03  0.83280201173E+02 -0.94289453964E+02  0.17540749533E+03  0.00000000000E+00 0. -1.
         21    1    1    2  504  502 -0.13111228981E+03 -0.84714649058E+01  0.34934953214E+03  0.37323892330E+03  0.00000000000E+00 0. -1.
         21    1    1    2  505  504  0.43052693374E+02 -0.66798056591E+02  0.30381287939E+02  0.85079594663E+02  0.00000000000E+00 0. -1.
          1    1    1    2  501    0 -0.34176635432E+02 -0.80106796763E+01 -0.36477249231E+03  0.36645761630E+03  0.00000000000E+00 0.  1.
<scales pt_clust_3="131.20030" pt_clust_4="14000.00000" pt_clust_5="77.79341" pt_clust_6="35.10290"></scales>
<clustering>
<clus scale="   35.103">  2  6  1 -1</clus>
<clus scale="   77.793">  2  5  1 -1</clus>
<clus scale="  131.200">  2  3  1 -1</clus>
<clus scale="  131.200">  1  3  2 -1</clus>
</clustering>
</event>
<event>
 6    0  0.3522959E+002  0.1108416E+03  0.7546771E-02  0.1259019E+00
          2   -1    0    0  503    0 -0.00000000000E+00  0.00000000000E+00  0.13646078002E+04  0.13646078002E+04  0.00000000000E+00 0. -1.
         21   -1    0    0  504  502  0.00000000000E+00 -0.00000000000E+00 -0.25160773406E+03  0.25160773406E+03  0.00000000000E+00 0. -1.
         21    1    1    2  503  502  0.21609022271E+02 -0.28745207655E+02 -0.13096111728E+03  0.13580887690E+03  0.00000000000E+00 0. -1.
         21    1    1    2  504  505 -0.54386554904E+02  0.11568428106E+02 -0.68846776324E+02  0.88496352995E+02  0.00000000000E+00 0. -1.
         21    1    1    2  505  501 -0.79789529373E+02  0.80624057334E+01  0.62048375290E+01  0.80435510768E+02  0.00000000000E+00 0. -1.
          2    1    1    2  501    0  0.11256706201E+03  0.91143738160E+01  0.13066031222E+04  0.13114747936E+04  0.00000000000E+00 0. -1.
<scales pt_clust_3="35.96160" pt_clust_4="40.71484" pt_clust_5="14000.00000" pt_clust_6="110.84158"></scales>
<clustering>
<clus scale="   35.962">  2  3  1 -1</clus>
<clus scale="   40.715">  2  4  1 -1</clus>
<clus scale="  110.842">  1  6  2 -1</clus>
<clus scale="   35.962">  2  3  1 -1</clus>
</clustering>
</event>
<event>
 6    0  0.3522959E+002  0.1296488E+03  0.7546771E-02  0.1227978E+00
         21   -1    0    0  505  502  0.00000000000E+00  0.00000000000E+00  0.12200127628E+04  0.12200127628E+04  0.00000000000E+00 0.  1.
          1   -1    0    0  504    0 -0.00000000000E+00 -0.00000000000E+00 -0.94847016668E+03  0.94847016668E+03  0.00000000000E+00 0.  1.
         21    1    1    2  503  501  0.15190027205E+03  0.55335947228E+02  0.39186955858E+03  0.42390743170E+03  0.00000000000E+00 0.  1.
         21    1    1    2  504  502 -0.33651804054E+02  0.30527741977E+02 -0.23592378499E+02  0.51195578613E+02  0.00000000000E+00 0. -1.
         21    1    1    2  505  503 -0.84557088321E+02 -0.90513179105E+02  0.79319126370E+03  0.80280440805E+03  0.00000000000E+00 0.  1.
          1    1    1    2  501    0 -0.33691379676E+02  0.46494898999E+01 -0.88992584762E+03  0.89057551116E+03  0.00000000000E+00 0.  1.
<scales pt_clust_3="14000.00000" pt_clust_4="64.65561" pt_clust_5="129.64884" pt_clust_6="34.01069"></scales>
<clustering>
<clus scale="   34.011">  2  6  1 -1</clus>
<clus scale="   64.656">  2  4  1 -1</clus>
<clus scale="  129.649">  1  5  2 -1</clus>
<clus scale="  129.649">  1  3  2 -1</clus>
</clustering>
</event>
<event>
 6    0  0.3522959E+002  0.1123515E+03  0.7546771E-02  0.1256276E+00
         21   -1    0    0  504  502  0.00000000000E+00  0.00000000000E+00  0.12272986933E+04  0.12272986933E+04  0.00000000000E+00 0. -1.
          2   -1    0    0  502    0 -0.00000000000E+00 -0.00000000000E+00 -0.93900576421E+03  0.93900576421E+03  0.00000000000E+00 0.  1.
         21    1    1    2  503  505  0.81621930473E+02 -0.88939732369E+01  0.15055095026E+03  0.17148420020E+03  0.00000000000E+00 0.  1.
         21    1    1    2  504  503  0.26762008467E+02  0.49475175120E+02  0.10579317394E+04  0.10594260537E+04  0.00000000000E+00 0. -1.
         21    1    1    2  505  501 -0.73255079784E+02 -0.68961045309E+02 -0.37255215859E+03  0.38589771100E+03  0.00000000000E+00 0.  1.
          2    1    1    2  501    0 -0.35128859156E+02  0.28379843426E+02 -0.54763760199E+03  0.54949649260E+03  0.00000000000E+00 0.  1.
<scales pt_clust_3="112.35152" pt_clust_4="56.26528" pt_clust_5="14000.00000" pt_clust_6="45.16030"></scales>
<clustering>
<clus scale="   45.160">  2  6  1 -1</clus>
<clus scale="   56.265">  1  4  2 -1</clus>
<clus scale="  112.352">  1  3  2 -1</clus>
<clus scale="   56.265">  1  3  2 -1</clus>
</clustering>
</event>
<event>
 6    0  0.3522959E+002  0.2263081E+03  0.7546771E-02  0.1129266E+00
         21   -1    0    0  503  502  0.00000000000E+00  0.00000000000E+00  0.43286232655E+03  0.43286232655E+03  0.00000000000E+00 0. -1.
          1   -1    0    0  505    0 -0.00000000000E+00 -0.00000000000E+00 -0.98056639863E+03  0.98056639863E+03  0.00000000000E+00 0.  1.
         21    1    1    2  503  501  0.30467279253E+02 -0.97184118164E+01  0.64572546705E+01  0.32625124845E+02  0.00000000000E+00 0.  1.
         21    1    1    2  504  502 -0.25908170671E+02 -0.21501166558E+03  0.33961721552E+03  0.40279163686E+03  0.00000000000E+00 0. -1.
         21    1    1    2  505  504 -0.37049444446E+02  0.24763088949E+03 -0.33710400428E+03  0.41992002627E+03  0.00000000000E+00 0.  1.
          1    1    1    2  501    0  0.32490335865E+02 -0.22900812087E+02 -0.55667453799E+03  0.55809193720E+03  0.00000000000E+00 0.  1.
<scales pt_clust_3="31.97972" pt_clust_4="226.30808" pt_clust_5="14000.00000" pt_clust_6="39.80239"></scales>
<clustering>
<clus scale="   31.980">  1  3  2 -1</clus>
<clus scale="   39.802">  2  6  1 -1</clus>
<clus scale="  226.308">  1  4  2 -1</clus>
<clus scale="   31.980">  1  3  2 -1</clus>
</clustering>
</event>
<event>
 6    0  0.3522959E+002  0.1756787E+03  0.7546771E-02  0.1172052E+00
          2   -1    0    0  504    0 -0.00000000000E+00  0.00000000000E+00  0.25519668933E+04  0.25519668933E+04  0.00000000000E+00 0. -1.
         21   -1    0    0  503  502  0.00000000000E+00 -0.00000000000E+00 -0.23695223748E+03  0.23695223748E+03  0.00000000000E+00 0.  1.
         21    1    1    2  503  501 -0.15952482801E+03  0.42455886428E+02 -0.17454155049E+02  0.16599795352E+03  0.00000000000E+00 0.  1.
         21    1    1    2  504  505  0.13160765027E+03  0.69828084724E+02  0.62863693764E+03  0.64605025686E+03  0.00000000000E+00 0. -1.
         21    1    1    2  505  502 -0.26225756786E+02 -0.36613495561E+02 -0.13159434463E+03  0.13908777774E+03  0.00000000000E+00 0.  1.
          2    1    1    2  501    0  0.54142934526E+02 -0.75670475591E+02  0.18354262178E+04  0.18377831426E+04  0.00000000000E+00 0. -1.
<scales pt_clust_3="175.67865" pt_clust_4="14000.00000" pt_clust_5="45.03708" pt_clust_6="93.21523"></scales>
<clustering>
<clus scale="   45.037">  2  5  1 -1</clus>
<clus scale="   93.215">  1  6  2 -1</clus>
<clus scale="  175.679">  2  3  1 -1</clus>
<clus scale="   45.037">  2  3  1 -1</clus>
</clustering>
</event>
<event>
 6    0  0.3522959E+002  0.1099734E+03  0.7546771E-02  0.1260619E+00
         21   -1    0    0  503  502  0.00000000000E+00  0.00000000000E+00  0.25588878972E+02  0.25588878972E+02  0.00000000000E+00 0.  1.
          2   -1    0    0  505    0 -0.00000000000E+00 -0.00000000000E+00 -0.19271942938E+04  0.19271942938E+04  0.00000000000E+00 0.  1.
         21    1    1    2  503  504 -0.44757099196E+02  0.25793232107E+02 -0.36813734963E+02  0.63432955417E+02  0.00000000000E+00 0.  1.
         21    1    1    2  504  501 -0.57029482354E+02  0.31577445571E+01 -0.86206723210E+02  0.10341147100E+03  0.00000000000E+00 0.  1.
         21    1    1    2  505  502  0.17104140129E+02 -0.56920788106E+02 -0.39107339862E+03  0.39556406666E+03  0.00000000000E+00 0.  1.
          2    1    1    2  501    0  0.84682441421E+02  0.27969811441E+02 -0.13875115580E+04  0.13903746797E+04  0.00000000000E+00 0.  1.
<scales pt_clust_3="36.88591" pt_clust_4="36.88591" pt_clust_5="59.43507" pt_clust_6="102.90670"></scales>
<clustering>
<clus scale="   36.886">  3  4 -1 -1</clus>
<clus scale="   59.435">  2  5  1 -1</clus>
<clus scale="  102.907">  2  6  1 -1</clus>
<clus scale="  109.973">  1  3  2 -1</clus>
</clustering>
</event>
<event>
 6    0  0.3522959E+002  0.1082620E+03  0.7546771E-02  0.1263823E+00
         21   -1    0    0  503  502  0.00000000000E+00  0.00000000000E+00  0.14192512616E+03  0.14192512616E+03  0.00000000000E+00 0.  1.
         -4   -1    0    0    0  501 -0.00000000000E+00 -0.00000000000E+00 -0.48030913585E+03  0.48030913585E+03  0.00000000000E+00 0.  1.
         21    1    1    2  503  504  0.16716714260E+02  0.67389733457E+02  0.44600619536E+02  0.82522966343E+02  0.00000000000E+00 0.  1.
         21    1    1    2  504  501 -0.13582195722E+03 -0.52359159770E+02 -0.24179572691E+03  0.28223086157E+03  0.00000000000E+00 0.  1.
         21    1    1    2  505  502  0.73434122028E+02  0.77758589201E+01  0.29351072748E+02  0.79463952402E+02  0.00000000000E+00 0.  1.
         -4    1    1    2    0  505  0.45671120932E+02 -0.22806432607E+02 -0.17053997507E+03  0.17801648169E+03  0.00000000000E+00 0.  1.
<scales pt_clust_3="68.81123" pt_clust_4="14000.00000" pt_clust_5="108.26198" pt_clust_6="51.04885"></scales>
<clustering>
<clus scale="   51.049">  2  6  1 -1</clus>
<clus scale="   68.811">  1  3  2 -1</clus>
<clus scale="  108.262">  1  5  2 -1</clus>
<clus scale="   68.811">  1  3  2 -1</clus>
</clustering>
</event>
<event>
 6    0  0.3522959E+002  0.1751385E+03  0.7546771E-02  0.1172593E+00
         21   -1    0    0  501  502  0.00000000000E+00  0.00000000000E+00  0.63390986013E+03  0.63390986013E+03  0.00000000000E+00 0. -1.
          2   -1    0    0  503    0 -0.00000000000E+00 -0.00000000000E+00 -0.27992181143E+03  0.27992181143E+03  0.00000000000E+00 0. -1.
         21    1    1    2  503  504 -0.61436342701E+02 -0.32429270831E+02  0.22550892046E+02  0.73038514109E+02  0.00000000000E+00 0.  1.
         21    1    1    2  504  505  0.15259268860E+03 -0.18466946647E+03 -0.18662312514E+02  0.24028238048E+03  0.00000000000E+00 0. -1.
         21    1    1    2  505  502 -0.89368824757E+02  0.14198368359E+03  0.44725841469E+03  0.47768843691E+03  0.00000000000E+00 0. -1.
          2    1    1    2  501    0 -0.17875211411E+01  0.75115053714E+02 -0.97158945523E+02  0.12282234007E+03  0.00000000000E+00 0. -1.
<scales pt_clust_3="69.47001" pt_clust_4="175.13851" pt_clust_5="14000.00000" pt_clust_6="67.35302"></scales>
<clustering>
<clus scale="   69.470">  2  3  1 -1</clus>
<clus scale="   67.353">  2  6  1 -1</clus>
<clus scale="  175.139">  2  4  1 -1</clus>
<clus scale="  175.139">  1  3  2 -1</clus>
</clustering>
</event>
<event>
 6    0  0.3522959E+002  0.1020003E+03  0.7546771E-02  0.1276145E+00
         21   -1    0    0  505  502  0.00000000000E+00  0.00000000000E+00  0.33211946699E+03  0.33211946699E+03  0.00000000000E+00 0.  1.
         -3   -1    0    0    0  501 -0.00000000000E+00 -0.00000000000E+00 -0.63511519604E+02  0.63511519604E+02  0.00000000000E+00 0.  1.
         21    1    1    2  503  501  0.55020276423E+02  0.22377140765E+02  0.63239278010E+02  0.86759284977E+02  0.00000000000E+00 0.  1.
         21    1    1    2  504  502 -0.54085843900E+02  0.34436630604E+02  0.13156465978E+03  0.14635716498E+03  0.00000000000E+00 0. -1.
         21    1    1    2  505  503  0.14060093219E+02  0.41365175054E+02  0.34634420674E+02  0.55752192997E+02  0.00000000000E+00 0.  1.
         -3    1    1    2    0  504 -0.14994525742E+02 -0.98178946422E+02  0.39169588918E+02  0.10676234364E+03  0.00000000000E+00 0.  1.
<scales pt_clust_3="37.33539" pt_clust_4="64.11833" pt_clust_5="37.33539" pt_clust_6="92.24411"></scales>
<clustering>
<clus scale="   37.335">  3  5 -1 -1</clus>
<clus scale="   64.118">  1  4  2 -1</clus>
<clus scale="   92.244">  2  6  1 -1</clus>
<clus scale="   64.118">  1  3  2 -1</clus>
</clustering>
</event>
<event>
 6    0  0.3522959E+002  0.9587550E+02  0.7546771E-02  0.1289216E+00
          1   -1    0    0  505    0 -0.00000000000E+00  0.00000000000E+00  0.16958649836E+04  0.16958649836E+04  0.00000000000E+00 0. -1.
         21   -1    0    0  503  502  0.00000000000E+00 -0.00000000000E+00 -0.41720433601E+02  0.41720433601E+02  0.00000000000E+00 0.  1.
         21    1    1    2  503  504 -0.65155044786E+02 -0.57370088717E+02  0.71480976641E+02  0.11245459956E+03  0.00000000000E+00 0.  1.
         21    1    1    2  504  501 -0.35406489832E+02 -0.46682477768E+01  0.96797970036E+02  0.10317586473E+03  0.00000000000E+00 0.  1.
         21    1    1    2  505  502  0.11998348979E+03  0.34806313822E+02  0.20104748525E+03  0.23670151801E+03  0.00000000000E+00 0.  1.
          1    1    1    2  501    0 -0.19421955168E+02  0.27232022672E+02  0.12848181181E+04  0.12852534350E+04  0.00000000000E+00 0. -1.
<scales pt_clust_3="14000.00000" pt_clust_4="40.18118" pt_clust_5="95.87550" pt_clust_6="33.44840"></scales>
<clustering>
<clus scale="   33.448">  1  6  2 -1</clus>
<clus scale="   40.181">  1  4  2 -1</clus>
<clus scale="   95.875">  1  5  2 -1</clus>
<clus scale="   95.875">  2  3  1 -1</clus>
</clustering>
</event>
<event>
 6    0  0.3522959E+002  0.1615493E+03  0.7546771E-02  0.1186959E+00
          2   -1    0    0  503    0 -0.00000000000E+00  0.00000000000E+00  0.30060106086E+04  0.30060106086E+04  0.00000000000E+00 0. -1.
         21   -1    0    0  505  502  0.00000000000E+00 -0.00000000000E+00 -0.34567701814E+03  0.34567701814E+03  0.00000000000E+00 0. -1.
         21    1    1    2  503  502 -0.27855877637E+02 -0.11152943236E+02  0.51917532668E+00  0.30010125037E+02  0.00000000000E+00 0.  1.
         21    1    1    2  504  501  0.19760404258E+02 -0.12499824450E+03  0.20777371884E+03  0.24327957774E+03  0.00000000000E+00 0.  1.
         21    1    1    2  505  504 -0.10472144561E+02 -0.29923779443E+02 -0.30984429311E+03  0.31146201110E+03  0.00000000000E+00 0. -1.
          2    1    1    2  501    0  0.18567617939E+02  0.16607496718E+03  0.27618849894E+04  0.27669359128E+04  0.00000000000E+00 0. -1.
<scales pt_clust_3="30.00563" pt_clust_4="161.54930" pt_clust_5="54.52270" pt_clust_6="14000.00000"></scales>
<clustering>
<clus scale="   30.006">  2  3  1 -1</clus>
<clus scale="   54.523">  2  5  1 -1</clus>
<clus scale="  161.549">  2  4  1 -1</clus>
<clus scale="   30.006">  2  3  1 -1</clus>
</clustering>
</event>
<event>
 6    0  0.3522959E+002  0.1068080E+03  0.7546771E-02  0.1266598E+00
         -2   -1    0    0    0  501 -0.00000000000E+00  0.00000000000E+00  0.21550888836E+04  0.21550888836E+04  0.00000000000E+00 0. -1.
         21   -1    0    0  505  502  0.00000000000E+00 -0.00000000000E+00 -0.10754334842E+04  0.10754334842E+04  0.00000000000E+00 0. -1.
         21    1    1    2  503  501 -0.13770781948E+03 -0.10413547851E+02  0.37165610716E+03  0.39648473806E+03  0.00000000000E+00 0. -1.
         21    1    1    2  504  502  0.26372954812E+02 -0.17320705657E+02 -0.14690922504E+02  0.34804637536E+02  0.00000000000E+00 0.  1.
         21    1    1    2  505  503  0.20155613130E+02 -0.22854124725E+02 -0.10365036823E+04  0.10369515144E+04  0.00000000000E+00 0. -1.
         -2    1    1    2    0  504  0.91179251539E+02  0.50588378233E+02  0.17591938970E+04  0.17622814779E+04  0.00000000000E+00 0. -1.
<scales pt_clust_3="14000.00000" pt_clust_4="50.60712" pt_clust_5="30.47228" pt_clust_6="106.80796"></scales>
<clustering>
<clus scale="   30.472">  2  5  1 -1</clus>
<clus scale="   50.607">  2  4  1 -1</clus>
<clus scale="  106.808">  1  6  2 -1</clus>
<clus scale="   30.472">  2  3  1 -1</clus>
</clustering>
</event>
<event>
 6    0  0.3522959E+002  0.5784797E+02  0.7546771E-02  0.1407091E+00
         21   -1    0    0  505  502  0.00000000000E+00  0.00000000000E+00  0.21567489189E+03  0.21567489189E+03  0.00000000000E+00 0.  1.
         -2   -1    0    0    0  501 -0.00000000000E+00 -0.00000000000E+00 -0.57072252096E+03  0.57072252096E+03  0.00000000000E+00 0.  1.
         21    1    1    2  503  502  0.21695745207E+02  0.21657136712E+02  0.21741873142E+02  0.37582522246E+02  0.00000000000E+00 0.  1.
         21    1    1    2  504  501  0.97740284526E+00 -0.11518370311E+03  0.12044396893E+03  0.16665830442E+03  0.00000000000E+00 0.  1.
         21    1    1    2  505  504 -0.32091132874E+02  0.37063477958E+02  0.26210050299E+02  0.55592346093E+02  0.00000000000E+00 0.  1.
         -2    1    1    2    0  503  0.94179848217E+01  0.56463088440E+02 -0.52344352145E+03  0.52656424009E+03  0.00000000000E+00 0.  1.
<scales pt_clust_3="30.65513" pt_clust_4="57.84797" pt_clust_5="49.95788" pt_clust_6="14000.00000"></scales>
<clustering>
<clus scale="   30.655">  1  3  2 -1</clus>
<clus scale="   49.958">  1  5  2 -1</clus>
<clus scale="   57.848">  1  4  2 -1</clus>
<clus scale="   30.655">  1  3  2 -1</clus>
</clustering>
</event>
<event>
 6    0  0.3522959E+002  0.8476524E+02  0.7546771E-02  0.1316048E+00
          1   -1    0    0  504    0 -0.00000000000E+00  0.00000000000E+00  0.28497703372E+03  0.28497703372E+03  0.00000000000E+00 0.  1.
         21   -1    0    0  505  502  0.00000000000E+00 -0.00000000000E+00 -0.17050864565E+03  0.17050864565E+03  0.00000000000E+00 0.  1.
         21    1    1    2  503  501 -0.66279577599E+02  0.91644299879E+02  0.19679101707E+03  0.22697657259E+03  0.00000000000E+00 0.  1.
         21    1    1    2  504  502  0.27867692443E+02 -0.46771939472E+02 -0.32423331844E+02  0.63367933941E+02  0.00000000000E+00 0. -1.
         21    1    1    2  505  503  0.49001282672E+02 -0.81473715721E+01 -0.94283080115E+02  0.10656830937E+03  0.00000000000E+00 0.  1.
          1    1    1    2  501    0 -0.10589397516E+02 -0.36724988835E+02  0.44383782956E+02  0.58572863463E+02  0.00000000000E+00 0.  1.
<scales pt_clust_3="84.76524" pt_clust_4="14000.00000" pt_clust_5="49.56771" pt_clust_6="38.22120"></scales>
<clustering>
<clus scale="   38.221">  1  6  2 -1</clus>
<clus scale="   49.568">  2  5  1 -1</clus>
<clus scale="   84.765">  1  3  2 -1</clus>
<clus scale="   49.568">  2  3  1 -1</clus>
</clustering>
</event>
<event>
 6    0  0.3522959E+002  0.1422806E+03  0.7546771E-02  0.1210293E+00
         21   -1    0    0  504  502  0.00000000000E+00  0.00000000000E+00  0.14280915932E+03  0.14280915932E+03  0.00000000000E+00 0. -1.
          2   -1    0    0  503    0 -0.00000000000E+00 -0.00000000000E+00 -0.37313184623E+04  0.37313184623E+04  0.00000000000E+00 0. -1.
         21    1    1    2  503  505 -0.26495765522E+02 -0.17556339514E+02 -0.43177810349E+03  0.43294639542E+03  0.00000000000E+00 0. -1.
         21    1    1    2  504  501  0.13990905593E+03  0.64693553921E+02  0.74362756703E+02  0.17114210305E+03  0.00000000000E+00 0. -1.
         21    1    1    2  505  502 -0.11546238260E+03  0.61051605117E+02 -0.21198045170E+03  0.24898709240E+03  0.00000000000E+00 0. -1.
          2    1    1    2  501    0  0.20490921894E+01 -0.10818881952E+03 -0.30191135045E+04  0.30210520308E+04  0.00000000000E+00 0. -1.
<scales pt_clust_3="31.78444" pt_clust_4="14000.00000" pt_clust_5="142.28065" pt_clust_6="126.22977"></scales>
<clustering>
<clus scale="   31.784">  2  3  1 -1</clus>
<clus scale="  126.230">  2  6  1 -1</clus>
<clus scale="  142.281">  2  5  1 -1</clus>
<clus scale="  142.281">  1  3  2 -1</clus>
</clustering>
</event>
<event>
 6    0  0.5017498E+002  0.1230945E+03  0.7546771E-02  0.1238078E+00
         21   -1    0    0  504  502  0.00000000000E+00  0.00000000000E+00  0.23984216522E+03  0.23984216522E+03  0.00000000000E+00 0.  1.
          2   -1    0    0  503    0 -0.00000000000E+00 -0.00000000000E+00 -0.10503872676E+04  0.10503872676E+04  0.00000000000E+00 0.  1.
         21    1    1    2  503  502  0.10232621422E+03  0.31222833124E+02  0.16377443619E+03  0.19562102488E+03  0.00000000000E+00 0.  1.
         21    1    1    2  504  505 -0.95828721585E+01 -0.37802542492E+02  0.24353692812E+02  0.45977886111E+02  0.00000000000E+00 0.  1.
         21    1    1    2  505  501  0.12655390589E+02 -0.59196410041E+02 -0.22495944026E+02  0.64578954547E+02  0.00000000000E+00 0.  1.
          2    1    1    2  501    0 -0.10539873265E+03  0.65776119409E+02 -0.97617728734E+03  0.98405156727E+03  0.00000000000E+00 0.  1.
<scales pt_clust_3="123.09447" pt_clust_4="38.99825" pt_clust_5="64.15306" pt_clust_6="14000.00000"></scales>
<clustering>
<clus scale="   38.998">  1  4  2 -1</clus>
<clus scale="   64.153">  1  5  2 -1</clus>
<clus scale="  123.094">  1  3  2 -1</clus>
<clus scale="   38.998">  1  3  2 -1</clus>
</clustering>
</event>
<event>
 6    0  0.3522959E+002  0.1273207E+03  0.7546771E-02  0.1231486E+00
         21   -1    0    0  504  502  0.00000000000E+00  0.00000000000E+00  0.12984078972E+03  0.12984078972E+03  0.00000000000E+00 0.  1.
          2   -1    0    0  503    0 -0.00000000000E+00 -0.00000000000E+00 -0.13564344241E+04  0.13564344241E+04  0.00000000000E+00 0.  1.
         21    1    1    2  503  505  0.18507566490E+02  0.48769162036E+02  0.28875645796E+02  0.59621842501E+02  0.00000000000E+00 0.  1.
         21    1    1    2  504  501 -0.77383488686E+02 -0.50619938470E+01 -0.47155738241E+02  0.90760628865E+02  0.00000000000E+00 0.  1.
         21    1    1    2  505  502 -0.20079877830E+02  0.48608323695E+02  0.49502145293E+02  0.72224878087E+02  0.00000000000E+00 0.  1.
          2    1    1    2  501    0  0.78955800026E+02 -0.92315491885E+02 -0.12578156873E+04  0.12636678644E+04  0.00000000000E+00 0.  1.
<scales pt_clust_3="41.72876" pt_clust_4="77.54888" pt_clust_5="41.72876" pt_clust_6="120.22868"></scales>
<clustering>
<clus scale="   41.729">  3  5 -1 -1</clus>
<clus scale="   77.549">  1  4  2 -1</clus>
<clus scale="  120.229">  2  6  1 -1</clus>
<clus scale="   77.549">  1  3  2 -1</clus>
</clustering>
</event>
<event>
 6    0  0.3522959E+002  0.1170146E+03  0.7546771E-02  0.1248105E+00
         21   -1    0    0  503  502  0.00000000000E+00  0.00000000000E+00  0.87925511726E+02  0.87925511726E+02  0.00000000000E+00 0.  1.
          2   -1    0    0  505    0 -0.00000000000E+00 -0.00000000000E+00 -0.28931553866E+04  0.28931553866E+04  0.00000000000E+00 0. -1.
         21    1    1    2  503  501  0.58161462365E+02  0.41930704839E+02 -0.22365267108E+03  0.23486476320E+03  0.00000000000E+00 0.  1.
         21    1    1    2  504  502 -0.97840084532E+02 -0.80999376949E+02  0.29493257985E+02  0.13039721421E+03  0.00000000000E+00 0.  1.
         21    1    1    2  505  504 -0.20188487371E+02  0.38421034388E+02 -0.23378544393E+03  0.23778011839E+03  0.00000000000E+00 0. -1.
          2    1    1    2  501    0  0.59867109538E+02  0.64763772147E+00 -0.23772850178E+04  0.23780388025E+04  0.00000000000E+00 0. -1.
<scales pt_clust_3="14000.00000" pt_clust_4="117.01456" pt_clust_5="43.40220" pt_clust_6="54.53679"></scales>
<clustering>
<clus scale="   43.402">  2  5  1 -1</clus>
<clus scale="   54.537">  2  6  1 -1</clus>
<clus scale="  117.015">  1  4  2 -1</clus>
<clus scale="  117.015">  1  3  2 -1</clus>
</clustering>
</event>
<event>
 6    0  0.3522959E+002  0.9682262E+02  0.7546771E-02  0.1287123E+00
         -1   -1    0    0    0  501 -0.00000000000E+00  0.00000000000E+00  0.28951052742E+03  0.28951052742E+03  0.00000000000E+00 0. -1.
         21   -1    0    0  505  502  0.00000000000E+00 -0.00000000000E+00 -0.29690200884E+03  0.29690200884E+03  0.00000000000E+00 0.  1.
         21    1    1    2  503  504  0.23735933952E+01 -0.67044691634E+02  0.23013911830E+02  0.70924359423E+02  0.00000000000E+00 0. -1.
         21    1    1    2  504  502  0.30395822991E+01  0.10352695413E+03 -0.24198819002E+03  0.26322111124E+03  0.00000000000E+00 0.  1.
         21    1    1    2  505  501  0.39463322117E+02  0.70640729973E+01  0.10155568606E+02  0.41356867550E+02  0.00000000000E+00 0.  1.
         -1    1    1    2    0  503 -0.44876497811E+02 -0.43546335494E+02  0.20142722817E+03  0.21091019804E+03  0.00000000000E+00 0. -1.
<scales pt_clust_3="96.82262" pt_clust_4="14000.00000" pt_clust_5="40.09058" pt_clust_6="40.53007"></scales>
<clustering>
<clus scale="   40.091">  1  5  2 -1</clus>
<clus scale="   40.530">  1  6  2 -1</clus>
<clus scale="   96.823">  1  3  2 -1</clus>
<clus scale="   96.823">  2  3  1 -1</clus>
</clustering>
</event>
<event>
 6    0  0.3522959E+002  0.6815990E+02  0.7546771E-02  0.1366465E+00
          2   -1    0    0  504    0 -0.00000000000E+00  0.00000000000E+00  0.37348292546E+03  0.37348292546E+03  0.00000000000E+00 0.  1.
         21   -1    0    0  505  502  0.00000000000E+00 -0.00000000000E+00 -0.26477041096E+03  0.26477041096E+03  0.00000000000E+00 0.  1.
         21    1    1    2  503  502  0.31183867217E+02  0.75067731026E+02 -0.19320592574E+03  0.20960946438E+03  0.00000000000E+00 0.  1.
         21    1    1    2  504  503  0.45426674042E+02 -0.45498613227E+02  0.35714876247E+02  0.73547664174E+02  0.00000000000E+00 0.  1.
         21    1    1    2  505  501 -0.51343161895E+01 -0.36613200721E+02 -0.31672934259E+02  0.48683287013E+02  0.00000000000E+00 0.  1.
          2    1    1    2  501    0 -0.71476225070E+02  0.70440829218E+01  0.29787649826E+03  0.30641292086E+03  0.00000000000E+00 0.  1.
<scales pt_clust_3="49.90183" pt_clust_4="14000.00000" pt_clust_5="36.97144" pt_clust_6="68.15990"></scales>
<clustering>
<clus scale="   36.971">  2  5  1 -1</clus>
<clus scale="   49.902">  2  3  1 -1</clus>
<clus scale="   68.160">  1  6  2 -1</clus>
<clus scale="   36.971">  2  3  1 -1</clus>
</clustering>
</event>
<event>
 6    0  0.3522959E+002  0.2735621E+03  0.7546771E-02  0.1099258E+00
          1   -1    0    0  504    0 -0.00000000000E+00  0.00000000000E+00  0.62394180732E+03  0.62394180732E+03  0.00000000000E+00 0.  1.
         21   -1    0    0  505  502  0.00000000000E+00 -0.00000000000E+00 -0.30042562755E+03  0.30042562755E+03  0.00000000000E+00 0. -1.
         21    1    1    2  503  502 -0.32902140554E+02 -0.42940194043E+02 -0.49218976898E+01  0.54319758784E+02  0.00000000000E+00 0.  1.
         21    1    1    2  504  503 -0.17729939211E+03 -0.53991810256E+02 -0.55459711375E+02  0.19345792721E+03  0.00000000000E+00 0.  1.
         21    1    1    2  505  501  0.30045905624E+03  0.19259096210E+03  0.11115704256E+03  0.37379514613E+03  0.00000000000E+00 0. -1.
          1    1    1    2  501    0 -0.90257523578E+02 -0.95658957806E+02  0.27274074627E+03  0.30279460274E+03  0.00000000000E+00 0.  1.
<scales pt_clust_3="34.87637" pt_clust_4="34.87637" pt_clust_5="265.83614" pt_clust_6="131.51828"></scales>
<clustering>
<clus scale="   34.876">  3  4 -1 -1</clus>
<clus scale="  131.518">  1  6  2 -1</clus>
<clus scale="  265.836">  1  5  2 -1</clus>
<clus scale="  273.562">  2  3  1 -1</clus>
</clustering>
</event>
<event>
 6    0  0.3522959E+002  0.1237380E+03  0.7546771E-02  0.1237055E+00
         21   -1    0    0  505  502  0.00000000000E+00  0.00000000000E+00  0.14367439186E+04  0.14367439186E+04  0.00000000000E+00 0.  1.
          1   -1    0    0  503    0 -0.00000000000E+00 -0.00000000000E+00 -0.79324288560E+03  0.79324288560E+03  0.00000000000E+00 0.  1.
         21    1    1    2  503  504 -0.67543425541E+02  0.13716794709E+03 -0.12391430517E+03  0.19680425572E+03  0.00000000000E+00 0. -1.
         21    1    1    2  504  502  0.12037631182E+03 -0.91988697712E+02  0.11924772312E+04  0.12020625291E+04  0.00000000000E+00 0.  1.
         21    1    1    2  505  501 -0.60817957555E+02 -0.14070621586E+02  0.19780718939E+03  0.20742345703E+03  0.00000000000E+00 0.  1.
          1    1    1    2  501    0  0.79850712728E+01 -0.31108627790E+02 -0.62286908241E+03  0.62369656236E+03  0.00000000000E+00 0.  1.
<scales pt_clust_3="123.73799" pt_clust_4="14000.00000" pt_clust_5="62.40930" pt_clust_6="32.11710"></scales>
<clustering>
<clus scale="   32.117">  2  6  1 -1</clus>
<clus scale="   62.409">  1  5  2 -1</clus>
<clus scale="  123.738">  2  3  1 -1</clus>
<clus scale="   62.409">  1  3  2 -1</clus>
</clustering>
</event>
<event>
 6    0  0.3522959E+002  0.1424734E+03  0.7546771E-02  0.1210039E+00
          2   -1    0    0  504    0 -0.00000000000E+00  0.00000000000E+00  0.21902892316E+04  0.21902892316E+04  0.00000000000E+00 0.  1.
         21   -1    0    0  505  502  0.00000000000E+00 -0.00000000000E+00 -0.76687752825E+02  0.76687752825E+02  0.00000000000E+00 0. -1.
         21    1    1    2  503  502  0.39555318302E+02  0.12632630547E+02 -0.36235542593E+02  0.55110988991E+02  0.00000000000E+00 0. -1.
         21    1    1    2  504  503 -0.14811711371E+03  0.93747966977E+02  0.51016733374E+03  0.53944236866E+03  0.00000000000E+00 0. -1.
         21    1    1    2  505  501 -0.73072913649E+01 -0.34956656971E+02  0.10008772254E+02  0.37088271674E+02  0.00000000000E+00 0.  1.
          2    1    1    2  501    0  0.11586908677E+03 -0.71423940553E+02  0.16296609154E+04  0.16353353551E+04  0.00000000000E+00 0.  1.
<scales pt_clust_3="36.53054" pt_clust_4="142.47343" pt_clust_5="35.71224" pt_clust_6="14000.00000"></scales>
<clustering>
<clus scale="   35.712">  2  5  1 -1</clus>
<clus scale="   36.531">  2  3  1 -1</clus>
<clus scale="  142.473">  2  4  1 -1</clus>
<clus scale="   35.712">  2  3  1 -1</clus>
</clustering>
</event>
<event>
 6    0  0.3522959E+002  0.1017534E+03  0.7546771E-02  0.1276651E+00
         21   -1    0    0  504  502  0.00000000000E+00  0.00000000000E+00  0.95400621632E+02  0.95400621632E+02  0.00000000000E+00 0.  1.
          2   -1    0    0  505    0 -0.00000000000E+00 -0.00000000000E+00 -0.27904122711E+04  0.27904122711E+04  0.00000000000E+00 0.  1.
         21    1    1    2  503  502 -0.11168650492E+02  0.32055590407E+02  0.17410692699E+02  0.38150122548E+02  0.00000000000E+00 0.  1.
         21    1    1    2  504  501  0.77563635995E+02 -0.74707770483E+00 -0.14776145012E+01  0.77581306373E+02  0.00000000000E+00 0.  1.
         21    1    1    2  505  503 -0.94998243893E+02  0.66712734022E+02 -0.89321392035E+02  0.14647035980E+03  0.00000000000E+00 0.  1.
          2    1    1    2  501    0  0.28603258390E+02 -0.98021246724E+02 -0.26216233356E+04  0.26236111040E+04  0.00000000000E+00 0.  1.
<scales pt_clust_3="33.94554" pt_clust_4="73.34611" pt_clust_5="101.75342" pt_clust_6="14000.00000"></scales>
<clustering>
<clus scale="   33.946">  1  3  2 -1</clus>
<clus scale="   73.346">  1  4  2 -1</clus>
<clus scale="  101.753">  1  5  2 -1</clus>
<clus scale="   33.946">  1  3  2 -1</clus>
</clustering>
</event>
<event>
 6    0  0.3522959E+002  0.9657548E+02  0.7546771E-02  0.1287667E+00
         21   -1    0    0  504  502  0.00000000000E+00  0.00000000000E+00  0.38187403858E+03  0.38187403858E+03  0.00000000000E+00 0. -1.
          2   -1    0    0  505    0 -0.00000000000E+00 -0.00000000000E+00 -0.35711576172E+03  0.35711576172E+03  0.00000000000E+00 0. -1.
         21    1    1    2  503  501 -0.75645826492E+02 -0.56739088113E+02 -0.14511022260E+02  0.95667052597E+02  0.00000000000E+00 0. -1.
         21    1    1    2  504  503  0.39969580579E+02 -0.16132065200E+02  0.29991174939E+03  0.30299318197E+03  0.00000000000E+00 0. -1.
         21    1    1    2  505  502  0.24231503597E+02 -0.29193138920E+02  0.18994486598E+02  0.42428712539E+02  0.00000000000E+00 0. -1.
          2    1    1    2  501    0  0.11444742317E+02  0.10206429223E+03 -0.27963693687E+03  0.29790085320E+03  0.00000000000E+00 0. -1.
<scales pt_clust_3="96.57548" pt_clust_4="73.41621" pt_clust_5="37.93949" pt_clust_6="14000.00000"></scales>
<clustering>
<clus scale="   37.939">  1  5  2 -1</clus>
<clus scale="   73.416">  1  4  2 -1</clus>
<clus scale="   96.575">  1  3  2 -1</clus>
<clus scale="   37.939">  1  3  2 -1</clus>
</clustering>
</event>
<event>
 6    0  0.3522959E+002  0.1109226E+03  0.7546771E-02  0.1258871E+00
          1   -1    0    0  505    0 -0.00000000000E+00  0.00000000000E+00  0.13718210796E+04  0.13718210796E+04  0.00000000000E+00 0.  1.
         21   -1    0    0  503  502  0.00000000000E+00 -0.00000000000E+00 -0.15688306734E+03  0.15688306734E+03  0.00000000000E+00 0.  1.
         21    1    1    2  503  501  0.10937310893E+03 -0.39966698285E+02 -0.53949440568E+02  0.12833688506E+03  0.00000000000E+00 0.  1.
         21    1    1    2  504  502  0.10817816756E+02 -0.43406487156E+02  0.24340263924E+02  0.50927367245E+02  0.00000000000E+00 0. -1.
         21    1    1    2  505  504 -0.10285636691E+02  0.99961215594E+02  0.55354106416E+00  0.10049052370E+03  0.00000000000E+00 0.  1.
          1    1    1    2  501    0 -0.10990528900E+03 -0.16588030154E+02  0.12439936479E+04  0.12489493709E+04  0.00000000000E+00 0.  1.
<scales pt_clust_3="14000.00000" pt_clust_4="44.73420" pt_clust_5="85.10616" pt_clust_6="110.92259"></scales>
<clustering>
<clus scale="   44.734">  2  4  1 -1</clus>
<clus scale="   85.106">  2  5  1 -1</clus>
<clus scale="  110.923">  1  6  2 -1</clus>
<clus scale="   44.734">  2  3  1 -1</clus>
</clustering>
</event>
<event>
 6    0  0.3522959E+002  0.1100125E+03  0.7546771E-02  0.1260547E+00
         21   -1    0    0  503  502  0.00000000000E+00  0.00000000000E+00  0.66860985982E+02  0.66860985982E+02  0.00000000000E+00 0.  1.
          2   -1    0    0  504    0 -0.00000000000E+00 -0.00000000000E+00 -0.12607177206E+04  0.12607177206E+04  0.00000000000E+00 0.  1.
         21    1    1    2  503  501 -0.23056332562E+01  0.47699148678E+02 -0.10762756782E+03  0.11774641432E+03  0.00000000000E+00 0.  1.
         21    1    1    2  504  505  0.73219261661E+02  0.74937646028E+02 -0.94234240828E+02  0.14091416967E+03  0.00000000000E+00 0.  1.
         21    1    1    2  505  502 -0.41903685492E+02 -0.11046461282E+03 -0.53156837645E+02  0.12955307380E+03  0.00000000000E+00 0.  1.
          2    1    1    2  501    0 -0.29009942912E+02 -0.12172181885E+02 -0.93883808836E+03  0.93936504883E+03  0.00000000000E+00 0.  1.
<scales pt_clust_3="45.18894" pt_clust_4="110.01246" pt_clust_5="14000.00000" pt_clust_6="31.46011"></scales>
<clustering>
<clus scale="   31.460">  2  6  1 -1</clus>
<clus scale="   45.189">  2  3  1 -1</clus>
<clus scale="  110.012">  2  4  1 -1</clus>
<clus scale="  110.012">  1  3  2 -1</clus>
</clustering>
</event>
<event>
 6    0  0.3522959E+002  0.1175258E+03  0.7546771E-02  0.1247235E+00
         -2   -1    0    0    0  501 -0.00000000000E+00  0.00000000000E+00  0.48224872778E+03  0.48224872778E+03  0.00000000000E+00 0. -1.
         21   -1    0    0  503  502  0.00000000000E+00 -0.00000000000E+00 -0.20403888176E+04  0.20403888176E+04  0.00000000000E+00 0.  1.
         21    1    1    2  503  504 -0.23221252334E+02 -0.52840961857E+02 -0.82676185318E+03  0.82877412827E+03  0.00000000000E+00 0.  1.
         21    1    1    2  504  505 -0.50901733846E+02 -0.27165866101E+02 -0.11955619203E+04  0.11969533308E+04  0.00000000000E+00 0.  1.
         21    1    1    2  505  501  0.10105925570E+03  0.98782133777E+02  0.33434427768E+03  0.36298344195E+03  0.00000000000E+00 0. -1.
         -2    1    1    2    0  502 -0.26936269518E+02 -0.18775305820E+02  0.12983940599E+03  0.13392664437E+03  0.00000000000E+00 0. -1.
<scales pt_clust_3="43.37956" pt_clust_4="43.37956" pt_clust_5="109.22145" pt_clust_6="32.83405"></scales>
<clustering>
<clus scale="   32.834">  1  6  2 -1</clus>
<clus scale="   43.380">  3  4 -1 -1</clus>
<clus scale="  109.221">  1  5  2 -1</clus>
<clus scale="  117.526">  2  3  1 -1</clus>
</clustering>
</event>
<event>
 6    0  0.3522959E+002  0.1094665E+03  0.7546771E-02  0.1261561E+00
          2   -1    0    0  503    0 -0.00000000000E+00  0.00000000000E+00  0.34448077663E+03  0.34448077663E+03  0.00000000000E+00 0.  1.
         21   -1    0    0  505  502  0.00000000000E+00 -0.00000000000E+00 -0.98056806824E+03  0.98056806824E+03  0.00000000000E+00 0. -1.
         21    1    1    2  503  502 -0.12596264294E+03  0.84205442445E+02  0.87579377628E+02  0.17500654656E+03  0.00000000000E+00 0. -1.
         21    1    1    2  504  501  0.56704534238E+02 -0.12556832870E+02 -0.30815747154E+02  0.65747156042E+02  0.00000000000E+00 0.  1.
         21    1    1    2  505  504  0.44701960191E+02 -0.99371741122E+02 -0.88344342114E+03  0.89013779076E+03  0.00000000000E+00 0. -1.
          2    1    1    2  501    0  0.24556148508E+02  0.27723131547E+02  0.19059249905E+03  0.19415735152E+03  0.00000000000E+00 0.  1.
<scales pt_clust_3="14000.00000" pt_clust_4="60.25774" pt_clust_5="109.46647" pt_clust_6="37.03480"></scales>
<clustering>
<clus scale="   37.035">  1  6  2 -1</clus>
<clus scale="   60.258">  1  4  2 -1</clus>
<clus scale="  109.466">  2  5  1 -1</clus>
<clus scale="  109.466">  2  3  1 -1</clus>
</clustering>
</event>
<event>
 6    0  0.3522959E+002  0.1754425E+03  0.7546771E-02  0.1172288E+00
         21   -1    0    0  504  502  0.00000000000E+00  0.00000000000E+00  0.41136162627E+03  0.41136162627E+03  0.00000000000E+00 0.  1.
          1   -1    0    0  505    0 -0.00000000000E+00 -0.00000000000E+00 -0.72402423089E+03  0.72402423089E+03  0.00000000000E+00 0.  1.
         21    1    1    2  503  502  0.90983432027E+02 -0.52769397590E+02  0.27603118731E+03  0.29539094535E+03  0.00000000000E+00 0.  1.
         21    1    1    2  504  501 -0.19873984384E+03  0.11580025158E+02 -0.11227585886E+03  0.22855522526E+03  0.00000000000E+00 0. -1.
         21    1    1    2  505  503  0.44272465656E+02 -0.32370453585E+02  0.51152201129E+02  0.74996300982E+02  0.00000000000E+00 0. -1.
          1    1    1    2  501    0  0.63483946156E+02  0.73559826017E+02 -0.52757013420E+03  0.53644338557E+03  0.00000000000E+00 0.  1.
<scales pt_clust_3="48.94793" pt_clust_4="161.81865" pt_clust_5="48.94793" pt_clust_6="97.16614"></scales>
<clustering>
<clus scale="   48.948">  3  5 -1 -1</clus>
<clus scale="   97.166">  2  6  1 -1</clus>
<clus scale="  161.819">  2  4  1 -1</clus>
<clus scale="  175.442">  1  3  2 -1</clus>
</clustering>
</event>
<event>
 6    0  0.3522959E+002  0.8266188E+02  0.7546771E-02  0.1321663E+00
          2   -1    0    0  504    0 -0.00000000000E+00  0.00000000000E+00  0.25610056867E+04  0.25610056867E+04  0.00000000000E+00 0.  1.
         21   -1    0    0  505  502  0.00000000000E+00 -0.00000000000E+00 -0.17671556601E+02  0.17671556601E+02  0.00000000000E+00 0. -1.
         21    1    1    2  503  502 -0.30961044954E+02 -0.20562466479E+02  0.66160266791E+02  0.75885322917E+02  0.00000000000E+00 0. -1.
         21    1    1    2  504  503 -0.16075798535E+02  0.83238928645E+02  0.21316587121E+03  0.22940540358E+03  0.00000000000E+00 0. -1.
         21    1    1    2  505  501  0.97910485196E+02 -0.46561436132E+02  0.68927542128E+03  0.69774998160E+03  0.00000000000E+00 0. -1.
          2    1    1    2  501    0 -0.50873641708E+02 -0.16115026033E+02  0.15747325708E+04  0.15756365352E+04  0.00000000000E+00 0.  1.
<scales pt_clust_3="37.16721" pt_clust_4="82.66188" pt_clust_5="14000.00000" pt_clust_6="54.62678"></scales>
<clustering>
<clus scale="   37.167">  2  3  1 -1</clus>
<clus scale="   54.627">  1  6  2 -1</clus>
<clus scale="   82.662">  2  4  1 -1</clus>
<clus scale="   37.167">  2  3  1 -1</clus>
</clustering>
</event>
<event>
 6    0  0.3522959E+002  0.9834278E+02  0.7546771E-02  0.1283820E+00
          1   -1    0    0  504    0 -0.00000000000E+00  0.00000000000E+00  0.14715682509E+03  0.14715682509E+03  0.00000000000E+00 0. -1.
         21   -1    0    0  503  502  0.00000000000E+00 -0.00000000000E+00 -0.54784886377E+03  0.54784886377E+03  0.00000000000E+00 0. -1.
         21    1    1    2  503  501  0.33015008313E+02  0.22359434436E+01 -0.25578878720E+03  0.25792032466E+03  0.00000000000E+00 0. -1.
         21    1    1    2  504  505  0.10381129115E+03 -0.31146049960E+02 -0.93788133021E+02  0.14332855435E+03  0.00000000000E+00 0. -1.
         21    1    1    2  505  502 -0.10665824734E+03  0.15363006541E+02 -0.15271741319E+03  0.18690803082E+03  0.00000000000E+00 0. -1.
          1    1    1    2  501    0 -0.30168052122E+02  0.13547099976E+02  0.10160229473E+03  0.10684877903E+03  0.00000000000E+00 0. -1.
<scales pt_clust_3="32.36845" pt_clust_4="98.34278" pt_clust_5="14000.00000" pt_clust_6="33.07016"></scales>
<clustering>
<clus scale="   33.070">  1  6  2 -1</clus>
<clus scale="   32.368">  2  3  1 -1</clus>
<clus scale="   98.343">  1  4  2 -1</clus>
<clus scale="   32.368">  2  3  1 -1</clus>
</clustering>
</event>
<event>
 6    0  0.3522959E+002  0.1304181E+03  0.7546771E-02  0.1226837E+00
          1   -1    0    0  503    0 -0.00000000000E+00  0.00000000000E+00  0.11501711461E+04  0.11501711461E+04  0.00000000000E+00 0. -1.
         21   -1    0    0  505  502  0.00000000000E+00 -0.00000000000E+00 -0.11951656663E+03  0.11951656663E+03  0.00000000000E+00 0. -1.
         21    1    1    2  503  502 -0.25894312511E+02 -0.86371152350E+02 -0.63725185449E+02  0.11041463055E+03  0.00000000000E+00 0. -1.
         21    1    1    2  504  501  0.74235718095E+00  0.15417607764E+03  0.31720638946E+03  0.35269066832E+03  0.00000000000E+00 0. -1.
         21    1    1    2  505  504 -0.26601312274E+01 -0.45174599550E+02  0.21573356989E+02  0.50132130160E+02  0.00000000000E+00 0. -1.
          1    1    1    2  501    0  0.27812086558E+02 -0.22630325740E+02  0.75560001850E+03  0.75645028374E+03  0.00000000000E+00 0. -1.
<scales pt_clust_3="14000.00000" pt_clust_4="130.41812" pt_clust_5="47.23330" pt_clust_6="35.85588"></scales>
<clustering>
<clus scale="   35.856">  1  6  2 -1</clus>
<clus scale="   47.233">  2  5  1 -1</clus>
<clus scale="  130.418">  1  4  2 -1</clus>
<clus scale="   47.233">  2  3  1 -1</clus>
</clustering>
</event>
<event>
 6    0  0.3522959E+002  0.7022635E+02  0.7546771E-02  0.1359325E+00
          2   -1    0    0  504    0 -0.00000000000E+00  0.00000000000E+00  0.13359581671E+03  0.13359581671E+03  0.00000000000E+00 0.  1.
         21   -1    0    0  505  502  0.00000000000E+00 -0.00000000000E+00 -0.79695312773E+03  0.79695312773E+03  0.00000000000E+00 0.  1.
         21    1    1    2  503  502  0.31032051934E+02  0.53602783813E+02 -0.54905369568E+03  0.55253615938E+03  0.00000000000E+00 0.  1.
         21    1    1    2  504  503 -0.33952780207E+02 -0.93852354941E+01 -0.28288716546E+02  0.45178815974E+02  0.00000000000E+00 0.  1.
         21    1    1    2  505  501  0.14853097069E+02 -0.10294751594E+03 -0.18782067841E+03  0.21469842284E+03  0.00000000000E+00 0.  1.
          2    1    1    2  501    0 -0.11932368797E+02  0.58729967619E+02  0.10180577962E+03  0.11813554624E+03  0.00000000000E+00 0.  1.
<scales pt_clust_3="61.58872" pt_clust_4="35.22604" pt_clust_5="70.22635" pt_clust_6="14000.00000"></scales>
<clustering>
<clus scale="   35.226">  1  4  2 -1</clus>
<clus scale="   61.589">  2  3  1 -1</clus>
<clus scale="   70.226">  2  5  1 -1</clus>
<clus scale="   61.589">  2  3  1 -1</clus>
</clustering>
</event>
<event>
 6    0  0.3522959E+002  0.8293343E+02  0.7546771E-02  0.1320927E+00
         21   -1    0    0  503  502  0.00000000000E+00  0.00000000000E+00  0.26437158825E+03  0.26437158825E+03  0.00000000000E+00 0.  1.
          1   -1    0    0  505    0 -0.00000000000E+00 -0.00000000000E+00 -0.15355987808E+04  0.15355987808E+04  0.00000000000E+00 0. -1.
         21    1    1    2  503  504 -0.77412350007E+02  0.30980347781E+02  0.20888615423E+03  0.22491304834E+03  0.00000000000E+00 0.  1.
         21    1    1    2  504  501  0.88662486517E+02  0.18415886655E+02 -0.98332276102E+02  0.13367654215E+03  0.00000000000E+00 0. -1.
         21    1    1    2  505  502 -0.78532835608E+02 -0.46522168152E+02 -0.42986999799E+02  0.10089400651E+03  0.00000000000E+00 0. -1.
          1    1    1    2  501    0  0.67282699098E+02 -0.28740662843E+01 -0.13387940709E+04  0.13404867721E+04  0.00000000000E+00 0. -1.
<scales pt_clust_3="82.93343" pt_clust_4="14000.00000" pt_clust_5="71.84340" pt_clust_6="67.34406"></scales>
<clustering>
<clus scale="   67.344">  2  6  1 -1</clus>
<clus scale="   71.843">  2  5  1 -1</clus>
<clus scale="   82.933">  1  3  2 -1</clus>
<clus scale="   82.933">  1  3  2 -1</clus>
</clustering>
</event>
<event>
 6    0  0.3522959E+002  0.8858306E+02  0.7546771E-02  0.1306320E+00
         21   -1    0    0  504  502  0.00000000000E+00  0.00000000000E+00  0.29442906849E+03  0.29442906849E+03  0.00000000000E+00 0.  1.
          2   -1    0    0  503    0 -0.00000000000E+00 -0.00000000000E+00 -0.17597359666E+04  0.17597359666E+04  0.00000000000E+00 0.  1.
         21    1    1    2  503  502  0.50868120427E+02  0.43338705735E+00 -0.59470294454E+02  0.78258989404E+02  0.00000000000E+00 0. -1.
         21    1    1    2  504  505 -0.51391626745E+02  0.71762580901E+02  0.27011749508E+03  0.28417323671E+03  0.00000000000E+00 0.  1.
         21    1    1    2  505  501  0.27173083871E+02 -0.11615026502E+03 -0.47740935800E+03  0.49208632948E+03  0.00000000000E+00 0. -1.
          2    1    1    2  501    0 -0.26649577552E+02  0.43954297057E+02 -0.11985447407E+04  0.11996464794E+04  0.00000000000E+00 0.  1.
<scales pt_clust_3="50.86997" pt_clust_4="14000.00000" pt_clust_5="88.58306" pt_clust_6="45.25377"></scales>
<clustering>
<clus scale="   50.870">  2  3  1 -1</clus>
<clus scale="   45.254">  2  6  1 -1</clus>
<clus scale="   88.583">  2  5  1 -1</clus>
<clus scale="   88.583">  1  3  2 -1</clus>
</clustering>
</event>
<event>
 6    0  0.3522959E+002  0.9859267E+02  0.7546771E-02  0.1283284E+00
          4   -1    0    0  504    0 -0.00000000000E+00  0.00000000000E+00  0.18615896574E+03  0.18615896574E+03  0.00000000000E+00 0.  1.
         21   -1    0    0  505  502  0.00000000000E+00 -0.00000000000E+00 -0.30780805938E+03  0.30780805938E+03  0.00000000000E+00 0. -1.
         21    1    1    2  503  501 -0.93011790341E+02 -0.42633050881E+02 -0.37948783674E+02  0.10912781658E+03  0.00000000000E+00 0. -1.
         21    1    1    2  504  502  0.48418483333E+02 -0.16007622264E+02 -0.12117183308E+03  0.13146561007E+03  0.00000000000E+00 0. -1.
         21    1    1    2  505  503 -0.39829066800E+01 -0.30806364328E+02 -0.87118886964E+02  0.92491059539E+02  0.00000000000E+00 0. -1.
          4    1    1    2  501    0  0.48576213688E+02  0.89447037473E+02  0.12459041008E+03  0.16088253893E+03  0.00000000000E+00 0.  1.
<scales pt_clust_3="98.59267" pt_clust_4="57.20621" pt_clust_5="31.06277" pt_clust_6="14000.00000"></scales>
<clustering>
<clus scale="   31.063">  2  5  1 -1</clus>
<clus scale="   57.206">  2  4  1 -1</clus>
<clus scale="   98.593">  2  3  1 -1</clus>
<clus scale="   31.063">  2  3  1 -1</clus>
</clustering>
</event>
<event>
 6    0  0.3522959E+002  0.1302940E+03  0.7546771E-02  0.1227020E+00
         21   -1    0    0  503  502  0.00000000000E+00  0.00000000000E+00  0.27553595215E+03  0.27553595215E+03  0.00000000000E+00 0.  1.
          1   -1    0    0  502    0 -0.00000000000E+00 -0.00000000000E+00 -0.67327259498E+03  0.67327259498E+03  0.00000000000E+00 0. -1.
         21    1    1    2  503  504  0.37032587757E+02  0.99324315402E+01  0.28379848937E+02  0.47702008112E+02  0.00000000000E+00 0.  1.
         21    1    1    2  504  505  0.63981397330E+02  0.53019707444E+02  0.22346046189E+03  0.23840991299E+03  0.00000000000E+00 0.  1.
         21    1    1    2  505  501 -0.49917650588E+02 -0.62454589728E+02 -0.41213538263E+03  0.41981891481E+03  0.00000000000E+00 0. -1.
          1    1    1    2  501    0 -0.51096334499E+02 -0.49754925675E+00 -0.23744157103E+03  0.24287771122E+03  0.00000000000E+00 0. -1.
<scales pt_clust_3="38.34144" pt_clust_4="118.01156" pt_clust_5="44.10337" pt_clust_6="44.10337"></scales>
<clustering>
<clus scale="   38.341">  1  3  2 -1</clus>
<clus scale="   44.103">  5  6 -1 -1</clus>
<clus scale="  118.012">  1  4  2 -1</clus>
<clus scale="   38.341">  1  3  2 -1</clus>
</clustering>
</event>
<event>
 6    0  0.3522959E+002  0.2980434E+03  0.7546771E-02  0.1086223E+00
         21   -1    0    0  505  502  0.00000000000E+00  0.00000000000E+00  0.76997862206E+03  0.76997862206E+03  0.00000000000E+00 0.  1.
          2   -1    0    0  503    0 -0.00000000000E+00 -0.00000000000E+00 -0.94566194237E+03  0.94566194237E+03  0.00000000000E+00 0. -1.
         21    1    1    2  503  504  0.22086704100E+03 -0.14845162498E+03 -0.20027948205E+03  0.33306456685E+03  0.00000000000E+00 0. -1.
         21    1    1    2  504  502 -0.20434493489E+02 -0.22564992069E+02  0.26873957402E+02  0.40607351276E+02  0.00000000000E+00 0.  1.
         21    1    1    2  505  501 -0.23496777561E+03  0.18637113868E+03  0.63568914073E+03  0.70288316280E+03  0.00000000000E+00 0.  1.
          2    1    1    2  501    0  0.34535228096E+02 -0.15354521633E+02 -0.63796693639E+03  0.63908548351E+03  0.00000000000E+00 0. -1.
<scales pt_clust_3="298.04344" pt_clust_4="30.44253" pt_clust_5="14000.00000" pt_clust_6="37.78754"></scales>
<clustering>
<clus scale="   30.443">  1  4  2 -1</clus>
<clus scale="   37.788">  2  6  1 -1</clus>
<clus scale="  298.043">  2  3  1 -1</clus>
<clus scale="   30.443">  1  3  2 -1</clus>
</clustering>
</event>
<event>
 6    0  0.3522959E+002  0.8185436E+02  0.7546771E-02  0.1323870E+00
         21   -1    0    0  503  502  0.00000000000E+00  0.00000000000E+00  0.73014483726E+03  0.73014483726E+03  0.00000000000E+00 0. -1.
         -2   -1    0    0    0  501 -0.00000000000E+00 -0.00000000000E+00 -0.50083493478E+03  0.50083493478E+03  0.00000000000E+00 0.  1.
         21    1    1    2  503  504 -0.11501392601E+02  0.62149725674E+02  0.49796293516E+02  0.80464534306E+02  0.00000000000E+00 0. -1.
         21    1    1    2  504  501 -0.22444444587E+02 -0.44384607515E+02 -0.13926337503E+03  0.14787844367E+03  0.00000000000E+00 0.  1.
         21    1    1    2  505  502  0.64693023128E+02 -0.59000058569E+02  0.65584654840E+03  0.66166523952E+03  0.00000000000E+00 0. -1.
         -2    1    1    2    0  505 -0.30747185940E+02  0.41234940411E+02 -0.33706956440E+03  0.34097155453E+03  0.00000000000E+00 0.  1.
<scales pt_clust_3="14000.00000" pt_clust_4="49.73677" pt_clust_5="81.85436" pt_clust_6="52.05301"></scales>
<clustering>
<clus scale="   49.737">  2  4  1 -1</clus>
<clus scale="   52.053">  2  6  1 -1</clus>
<clus scale="   81.854">  1  5  2 -1</clus>
<clus scale="   81.854">  1  3  2 -1</clus>
</clustering>
</event>
<event>
 6    0  0.4149549E+002  0.1188559E+03  0.7546771E-02  0.1244996E+00
         21   -1    0    0  504  502  0.00000000000E+00  0.00000000000E+00  0.70327252138E+03  0.70327252138E+03  0.00000000000E+00 0.  1.
         -2   -1    0    0    0  501 -0.00000000000E+00 -0.00000000000E+00 -0.27262121851E+03  0.27262121851E+03  0.00000000000E+00 0.  1.
         21    1    1    2  503  501  0.40790737509E+02  0.28287074452E+02  0.23737884570E+02  0.55022995297E+02  0.00000000000E+00 0.  1.
         21    1    1    2  504  503  0.50608091606E+02 -0.34045811534E+01  0.14002414517E+02  0.52619746494E+02  0.00000000000E+00 0. -1.
         21    1    1    2  505  502 -0.11378675106E+03  0.34486186594E+02  0.62059982431E+03  0.63188674912E+03  0.00000000000E+00 0.  1.
         -2    1    1    2    0  505  0.22387921949E+02 -0.59368679892E+02 -0.22768882053E+03  0.23636424898E+03  0.00000000000E+00 0.  1.
<scales pt_clust_3="34.12234" pt_clust_4="34.12234" pt_clust_5="113.74084" pt_clust_6="63.44966"></scales>
<clustering>
<clus scale="   34.122">  3  4 -1 -1</clus>
<clus scale="   63.450">  2  6  1 -1</clus>
<clus scale="  113.741">  1  5  2 -1</clus>
<clus scale="  113.741">  1  3  2 -1</clus>
</clustering>
</event>
<event>
 6    0  0.3522959E+002  0.6777403E+02  0.7546771E-02  0.1367830E+00
          2   -1    0    0  505    0 -0.00000000000E+00  0.00000000000E+00  0.15492888047E+04  0.15492888047E+04  0.00000000000E+00 0. -1.
         21   -1    0    0  503  502  0.00000000000E+00 -0.00000000000E+00 -0.10609804614E+03  0.10609804614E+03  0.00000000000E+00 0. -1.
         21    1    1    2  503  501  0.78121574835E+02  0.84700981355E+02  0.55386985204E+02  0.12784738882E+03  0.00000000000E+00 0.  1.
         21    1    1    2  504  502  0.91143896216E+01 -0.29606260712E+02 -0.56479804783E+02  0.64417164792E+02  0.00000000000E+00 0. -1.
         21    1    1    2  505  504 -0.20203940291E+02 -0.48663420042E+02  0.72173314856E+02  0.89360589919E+02  0.00000000000E+00 0. -1.
          2    1    1    2  501    0 -0.67032024165E+02 -0.64313006009E+01  0.13721102633E+04  0.13737617074E+04  0.00000000000E+00 0. -1.
<scales pt_clust_3="67.77403" pt_clust_4="30.97746" pt_clust_5="57.30139" pt_clust_6="14000.00000"></scales>
<clustering>
<clus scale="   30.977">  2  4  1 -1</clus>
<clus scale="   57.301">  2  5  1 -1</clus>
<clus scale="   67.774">  2  3  1 -1</clus>
<clus scale="   30.977">  2  3  1 -1</clus>
</clustering>
</event>
<event>
 6    0  0.3522959E+002  0.9712751E+02  0.7546771E-02  0.1286455E+00
          2   -1    0    0  505    0 -0.00000000000E+00  0.00000000000E+00  0.63562457443E+03  0.63562457443E+03  0.00000000000E+00 0.  1.
         21   -1    0    0  504  502  0.00000000000E+00 -0.00000000000E+00 -0.22795784249E+03  0.22795784249E+03  0.00000000000E+00 0. -1.
         21    1    1    2  503  501  0.12105950075E+02 -0.51999639633E+02 -0.36848676848E+02  0.64871731398E+02  0.00000000000E+00 0. -1.
         21    1    1    2  504  503 -0.17359429058E+02 -0.34579428981E+02 -0.64181379117E+02  0.74942218483E+02  0.00000000000E+00 0. -1.
         21    1    1    2  505  502  0.90443485563E+02  0.65215970318E+02 -0.74430878231E+02  0.13406380011E+03  0.00000000000E+00 0.  1.
          2    1    1    2  501    0 -0.85190006580E+02  0.21363098296E+02  0.58312766614E+03  0.58970466693E+03  0.00000000000E+00 0.  1.
<scales pt_clust_3="36.29094" pt_clust_4="36.29094" pt_clust_5="87.27209" pt_clust_6="87.82778"></scales>
<clustering>
<clus scale="   36.291">  3  4 -1 -1</clus>
<clus scale="   87.828">  1  6  2 -1</clus>
<clus scale="   87.272">  1  5  2 -1</clus>
<clus scale="   97.128">  2  3  1 -1</clus>
</clustering>
</event>
<event>
 6    0  0.3522959E+002  0.1180949E+03  0.7546771E-02  0.1246273E+00
         21   -1    0    0  504  502  0.00000000000E+00  0.00000000000E+00  0.13835254833E+04  0.13835254833E+04  0.00000000000E+00 0. -1.
          2   -1    0    0  505    0 -0.00000000000E+00 -0.00000000000E+00 -0.10686422680E+04  0.10686422680E+04  0.00000000000E+00 0. -1.
         21    1    1    2  503  502 -0.57897473815E+02  0.15177740103E+02  0.51698334614E+03  0.52043660657E+03  0.00000000000E+00 0. -1.
         21    1    1    2  504  501  0.14851247268E+03 -0.90376082054E+02  0.84810676712E+03  0.86574180861E+03  0.00000000000E+00 0. -1.
         21    1    1    2  505  503  0.21408659140E+02  0.43922631746E+02 -0.56196808462E+03  0.56408834095E+03  0.00000000000E+00 0. -1.
          2    1    1    2  501    0 -0.11202365801E+03  0.31275710205E+02 -0.48823881343E+03  0.50190099516E+03  0.00000000000E+00 0. -1.
<scales pt_clust_3="59.82137" pt_clust_4="14000.00000" pt_clust_5="48.86234" pt_clust_6="118.09487"></scales>
<clustering>
<clus scale="   48.862">  2  5  1 -1</clus>
<clus scale="   59.821">  1  3  2 -1</clus>
<clus scale="  118.095">  2  6  1 -1</clus>
<clus scale="   59.821">  1  3  2 -1</clus>
</clustering>
</event>
<event>
 6    0  0.3522959E+002  0.1136499E+03  0.7546771E-02  0.1253956E+00
         21   -1    0    0  503  502  0.00000000000E+00  0.00000000000E+00  0.10026287875E+04  0.10026287875E+04  0.00000000000E+00 0.  1.
          2   -1    0    0  504    0 -0.00000000000E+00 -0.00000000000E+00 -0.74983200626E+03  0.74983200626E+03  0.00000000000E+00 0.  1.
         21    1    1    2  503  501  0.27009830186E+02 -0.11205740903E+03  0.27504596993E+03  0.29822253339E+03  0.00000000000E+00 0. -1.
         21    1    1    2  504  505  0.71227459726E+02 -0.48147920627E+01 -0.35780842039E+03  0.36486079393E+03  0.00000000000E+00 0.  1.
         21    1    1    2  505  502 -0.98447345373E+02  0.19110926464E+02  0.70250766575E+03  0.70962957080E+03  0.00000000000E+00 0.  1.
          2    1    1    2  501    0  0.21005546051E+00  0.97761274628E+02 -0.36694843408E+03  0.37974789560E+03  0.00000000000E+00 0.  1.
<scales pt_clust_3="14000.00000" pt_clust_4="71.39001" pt_clust_5="99.63585" pt_clust_6="113.64986"></scales>
<clustering>
<clus scale="   71.390">  2  4  1 -1</clus>
<clus scale="   99.636">  1  5  2 -1</clus>
<clus scale="  113.650">  2  6  1 -1</clus>
<clus scale="   99.636">  1  3  2 -1</clus>
</clustering>
</event>
<event>
 6    0  0.3522959E+002  0.9732284E+02  0.7546771E-02  0.1286029E+00
         21   -1    0    0  504  502  0.00000000000E+00  0.00000000000E+00  0.57788323043E+02  0.57788323043E+02  0.00000000000E+00 0.  1.
          1   -1    0    0  505    0 -0.00000000000E+00 -0.00000000000E+00 -0.20814768820E+04  0.20814768820E+04  0.00000000000E+00 0.  1.
         21    1    1    2  503  502  0.20867993986E+02  0.34705653520E+02 -0.17850748530E+02  0.44256127060E+02  0.00000000000E+00 0.  1.
         21    1    1    2  504  501 -0.11531576111E+03 -0.12998752041E+02 -0.48783954191E+02  0.12588314622E+03  0.00000000000E+00 0.  1.
         21    1    1    2  505  503  0.93352864887E+02  0.42571648045E+02 -0.48815894761E+03  0.49882487982E+03  0.00000000000E+00 0.  1.
          1    1    1    2  501    0  0.10949022414E+01 -0.64278549524E+02 -0.14688949086E+04  0.14703010519E+04  0.00000000000E+00 0.  1.
<scales pt_clust_3="40.49636" pt_clust_4="97.32284" pt_clust_5="14000.00000" pt_clust_6="63.74718"></scales>
<clustering>
<clus scale="   40.496">  1  3  2 -1</clus>
<clus scale="   63.747">  2  6  1 -1</clus>
<clus scale="   97.323">  1  4  2 -1</clus>
<clus scale="   40.496">  1  3  2 -1</clus>
</clustering>
</event>
<event>
 6    0  0.3522959E+002  0.1277528E+03  0.7546771E-02  0.1230829E+00
          1   -1    0    0  503    0 -0.00000000000E+00  0.00000000000E+00  0.64476683395E+03  0.64476683395E+03  0.00000000000E+00 0. -1.
         21   -1    0    0  505  502  0.00000000000E+00 -0.00000000000E+00 -0.13552629618E+04  0.13552629618E+04  0.00000000000E+00 0.  1.
         21    1    1    2  503  504  0.77649555181E+02  0.19531914718E+02 -0.92500489685E+03  0.92846378944E+03  0.00000000000E+00 0.  1.
         21    1    1    2  504  502  0.27391679366E+02  0.54415755699E+02 -0.38002684488E+03  0.38487891784E+03  0.00000000000E+00 0. -1.
         21    1    1    2  505  501 -0.13571764865E+03 -0.95555567063E+02  0.10650090303E+03  0.19721204045E+03  0.00000000000E+00 0. -1.
          1    1    1    2  501    0  0.30676414105E+02  0.21607896646E+02  0.48803471088E+03  0.48947504799E+03  0.00000000000E+00 0. -1.
<scales pt_clust_3="14000.00000" pt_clust_4="61.43631" pt_clust_5="127.75277" pt_clust_6="37.52257"></scales>
<clustering>
<clus scale="   37.523">  1  6  2 -1</clus>
<clus scale="   61.436">  2  4  1 -1</clus>
<clus scale="  127.753">  1  5  2 -1</clus>
<clus scale="   61.436">  2  3  1 -1</clus>
</clustering>
</event>
<event>
 6    0  0.3522959E+002  0.6958401E+02  0.7546771E-02  0.1361513E+00
          1   -1    0    0  504    0 -0.00000000000E+00  0.00000000000E+00  0.23928283878E+04  0.23928283878E+04  0.00000000000E+00 0.  1.
         21   -1    0    0  503  502  0.00000000000E+00 -0.00000000000E+00 -0.59852403156E+03  0.59852403156E+03  0.00000000000E+00 0.  1.
         21    1    1    2  503  501  0.18662969927E+02 -0.51207460524E+02 -0.80445227456E+02  0.97169671608E+02  0.00000000000E+00 0.  1.
         21    1    1    2  504  505  0.27361361930E+02 -0.49283695693E+02  0.17390214677E+03  0.18280996537E+03  0.00000000000E+00 0.  1.
         21    1    1    2  505  502  0.36186927075E+01  0.11882263661E+03 -0.49794754026E+03  0.51194107743E+03  0.00000000000E+00 0.  1.
          1    1    1    2  501    0 -0.49643024564E+02 -0.18331480396E+02  0.21987949772E+04  0.21994317050E+04  0.00000000000E+00 0.  1.
<scales pt_clust_3="54.55991" pt_clust_4="69.58401" pt_clust_5="14000.00000" pt_clust_6="52.91950"></scales>
<clustering>
<clus scale="   52.919">  1  6  2 -1</clus>
<clus scale="   54.560">  2  3  1 -1</clus>
<clus scale="   69.584">  1  4  2 -1</clus>
<clus scale="   54.560">  2  3  1 -1</clus>
</clustering>
</event>
<event>
 6    0  0.3522959E+002  0.8029856E+02  0.7546771E-02  0.1328206E+00
         21   -1    0    0  503  502  0.00000000000E+00  0.00000000000E+00  0.48650957967E+03  0.48650957967E+03  0.00000000000E+00 0. -1.
          1   -1    0    0  505    0 -0.00000000000E+00 -0.00000000000E+00 -0.94612738461E+03  0.94612738461E+03  0.00000000000E+00 0.  1.
         21    1    1    2  503  504 -0.53202754914E+02  0.58112334329E+02  0.26727049747E+03  0.27864151763E+03  0.00000000000E+00 0. -1.
         21    1    1    2  504  501  0.51085774977E+02  0.75699096461E+02 -0.73223950782E+03  0.73791246529E+03  0.00000000000E+00 0.  1.
         21    1    1    2  505  502 -0.58568277026E+01 -0.10428535896E+03  0.19648266495E+03  0.22252005786E+03  0.00000000000E+00 0. -1.
          1    1    1    2  501    0  0.79738076395E+01 -0.29526071829E+02 -0.19113145954E+03  0.19356292350E+03  0.00000000000E+00 0.  1.
<scales pt_clust_3="80.29856" pt_clust_4="75.26517" pt_clust_5="14000.00000" pt_clust_6="30.58383"></scales>
<clustering>
<clus scale="   30.584">  2  6  1 -1</clus>
<clus scale="   75.265">  2  4  1 -1</clus>
<clus scale="   80.299">  1  3  2 -1</clus>
<clus scale="   80.299">  1  3  2 -1</clus>
</clustering>
</event>
<event>
 6    0  0.3522959E+002  0.2348738E+03  0.7546771E-02  0.1123256E+00
          2   -1    0    0  503    0 -0.00000000000E+00  0.00000000000E+00  0.33526602121E+03  0.33526602121E+03  0.00000000000E+00 0.  1.
         21   -1    0    0  505  502  0.00000000000E+00 -0.00000000000E+00 -0.49163220054E+03  0.49163220054E+03  0.00000000000E+00 0.  1.
         21    1    1    2  503  502  0.72227952716E+02  0.23462229856E+03 -0.38919211088E+03  0.46014671498E+03  0.00000000000E+00 0.  1.
         21    1    1    2  504  501 -0.30647434083E+01 -0.60527703968E+02  0.18665890953E+02  0.63414596781E+02  0.00000000000E+00 0. -1.
         21    1    1    2  505  504 -0.65042485711E+02 -0.96190779378E+02  0.60326528437E+02  0.13085289839E+03  0.00000000000E+00 0.  1.
          2    1    1    2  501    0 -0.41207235972E+01 -0.77903815218E+02  0.15383351217E+03  0.17248401159E+03  0.00000000000E+00 0.  1.
<scales pt_clust_3="229.92378" pt_clust_4="34.65329" pt_clust_5="34.65329" pt_clust_6="78.01272"></scales>
<clustering>
<clus scale="   34.653">  4  5 -1 -1</clus>
<clus scale="   78.013">  1  6  2 -1</clus>
<clus scale="  229.924">  2  3  1 -1</clus>
<clus scale="  229.924">  2  3  1 -1</clus>
</clustering>
</event>
<event>
 6    0  0.3522959E+002  0.3145490E+03  0.7546771E-02  0.1078186E+00
         21   -1    0    0  505  502  0.00000000000E+00  0.00000000000E+00  0.84014774340E+03  0.84014774340E+03  0.00000000000E+00 0. -1.
          2   -1    0    0  503    0 -0.00000000000E+00 -0.00000000000E+00 -0.60530725841E+03  0.60530725841E+03  0.00000000000E+00 0.  1.
         21    1    1    2  503  504  0.37275491079E+02  0.79246396853E+02  0.52406881989E+02  0.10205848779E+03  0.00000000000E+00 0.  1.
         21    1    1    2  504  502 -0.14292285822E+02  0.20406837935E+03  0.70165853466E+02  0.21626701060E+03  0.00000000000E+00 0.  1.
         21    1    1    2  505  501 -0.18098660675E+02 -0.31389822124E+03  0.57927051119E+03  0.65910088754E+03  0.00000000000E+00 0. -1.
          2    1    1    2  501    0 -0.48845445824E+01  0.30583445037E+02 -0.46700276166E+03  0.46802861588E+03  0.00000000000E+00 0.  1.
<scales pt_clust_3="47.97029" pt_clust_4="47.97029" pt_clust_5="305.66238" pt_clust_6="30.97105"></scales>
<clustering>
<clus scale="   30.971">  2  6  1 -1</clus>
<clus scale="   47.970">  3  4 -1 -1</clus>
<clus scale="  305.662">  1  5  2 -1</clus>
<clus scale="  305.662">  1  3  2 -1</clus>
</clustering>
</event>
<event>
 6    0  0.3522959E+002  0.1157699E+03  0.7546771E-02  0.1250243E+00
         21   -1    0    0  505  502  0.00000000000E+00  0.00000000000E+00  0.72369160189E+03  0.72369160189E+03  0.00000000000E+00 0.  1.
          2   -1    0    0  503    0 -0.00000000000E+00 -0.00000000000E+00 -0.10201680552E+03  0.10201680552E+03  0.00000000000E+00 0.  1.
         21    1    1    2  503  504 -0.84006283683E+02 -0.49226993671E+02  0.70789154562E+02  0.12038046772E+03  0.00000000000E+00 0.  1.
         21    1    1    2  504  502 -0.83337588304E+02 -0.11520543760E+01  0.24767942498E+03  0.26132657425E+03  0.00000000000E+00 0.  1.
         21    1    1    2  505  501  0.18324799061E+03  0.17671474352E+02  0.34349874184E+03  0.38972232771E+03  0.00000000000E+00 0.  1.
          2    1    1    2  501    0 -0.15904118624E+02  0.32707573695E+02 -0.40292525010E+02  0.54279037740E+02  0.00000000000E+00 0.  1.
<scales pt_clust_3="115.76985" pt_clust_4="85.37058" pt_clust_5="14000.00000" pt_clust_6="36.36931"></scales>
<clustering>
<clus scale="   36.369">  2  6  1 -1</clus>
<clus scale="   85.371">  1  4  2 -1</clus>
<clus scale="  115.770">  2  3  1 -1</clus>
<clus scale="   85.371">  1  3  2 -1</clus>
</clustering>
</event>
<event>
 6    0  0.3522959E+002  0.9364909E+02  0.7546771E-02  0.1294248E+00
          1   -1    0    0  503    0 -0.00000000000E+00  0.00000000000E+00  0.47956608476E+03  0.47956608476E+03  0.00000000000E+00 0. -1.
         21   -1    0    0  504  502  0.00000000000E+00 -0.00000000000E+00 -0.43926240005E+03  0.43926240005E+03  0.00000000000E+00 0. -1.
         21    1    1    2  503  505  0.16041377799E+03 -0.24036138641E+02  0.56438489404E+02  0.17174288694E+03  0.00000000000E+00 0. -1.
         21    1    1    2  504  501 -0.46983538096E+02 -0.24939476205E+02 -0.33413470730E+03  0.33834218322E+03  0.00000000000E+00 0. -1.
         21    1    1    2  505  502 -0.30784837379E+02  0.20355476276E+02 -0.31466161622E+02  0.48499185087E+02  0.00000000000E+00 0. -1.
          1    1    1    2  501    0 -0.82645402511E+02  0.28620138569E+02  0.34946606423E+03  0.36024422957E+03  0.00000000000E+00 0. -1.
<scales pt_clust_3="14000.00000" pt_clust_4="73.32366" pt_clust_5="36.90598" pt_clust_6="93.64909"></scales>
<clustering>
<clus scale="   36.906">  2  5  1 -1</clus>
<clus scale="   73.324">  2  4  1 -1</clus>
<clus scale="   93.649">  1  6  2 -1</clus>
<clus scale="   36.906">  2  3  1 -1</clus>
</clustering>
</event>
<event>
 6    0  0.3522959E+002  0.2562854E+03  0.7546771E-02  0.1109396E+00
         21   -1    0    0  501  502  0.00000000000E+00  0.00000000000E+00  0.10588684528E+04  0.10588684528E+04  0.00000000000E+00 0.  1.
          2   -1    0    0  503    0 -0.00000000000E+00 -0.00000000000E+00 -0.84458069540E+03  0.84458069540E+03  0.00000000000E+00 0.  1.
         21    1    1    2  503  505  0.18008875845E+02  0.13688705281E+03 -0.23249874021E+03  0.27040349302E+03  0.00000000000E+00 0. -1.
         21    1    1    2  504  502  0.54924185488E+02 -0.11210623043E+03  0.39326596911E+03  0.41260464796E+03  0.00000000000E+00 0.  1.
         21    1    1    2  505  504  0.88117693670E+02 -0.94158702987E+02  0.61698589287E+03  0.63031911068E+03  0.00000000000E+00 0.  1.
          2    1    1    2  501    0 -0.16105075500E+03  0.69377880609E+02 -0.56346536435E+03  0.59012189658E+03  0.00000000000E+00 0.  1.
<scales pt_clust_3="138.06660" pt_clust_4="62.80681" pt_clust_5="62.80681" pt_clust_6="248.20811"></scales>
<clustering>
<clus scale="   62.807">  4  5 -1 -1</clus>
<clus scale="  138.067">  2  3  1 -1</clus>
<clus scale="  248.208">  2  6  1 -1</clus>
<clus scale="  256.285">  1  3  2 -1</clus>
</clustering>
</event>
<event>
 6    0  0.3522959E+002  0.1860593E+03  0.7546771E-02  0.1162064E+00
         21   -1    0    0  504  502  0.00000000000E+00  0.00000000000E+00  0.40392947929E+02  0.40392947929E+02  0.00000000000E+00 0. -1.
          1   -1    0    0  505    0 -0.00000000000E+00 -0.00000000000E+00 -0.24107094188E+04  0.24107094188E+04  0.00000000000E+00 0. -1.
         21    1    1    2  503  501  0.63622516228E+02  0.58288615510E+01 -0.36485444737E+03  0.37040595023E+03  0.00000000000E+00 0.  1.
         21    1    1    2  504  503  0.76597683465E+02  0.56114517533E+02 -0.64735699996E+03  0.65428367669E+03  0.00000000000E+00 0. -1.
         21    1    1    2  505  502 -0.16946559793E+03 -0.81140766677E+02 -0.22658532174E+03  0.29435237544E+03  0.00000000000E+00 0. -1.
          1    1    1    2  501    0  0.29245398240E+02  0.19197387592E+02 -0.11315197018E+04  0.11320603644E+04  0.00000000000E+00 0. -1.
<scales pt_clust_3="35.22287" pt_clust_4="35.22287" pt_clust_5="180.83125" pt_clust_6="34.98332"></scales>
<clustering>
<clus scale="   34.983">  2  6  1 -1</clus>
<clus scale="   35.223">  3  4 -1 -1</clus>
<clus scale="  180.831">  1  5  2 -1</clus>
<clus scale="  180.831">  1  3  2 -1</clus>
</clustering>
</event>
<event>
 6    0  0.3522959E+002  0.2366376E+03  0.7546771E-02  0.1122053E+00
         21   -1    0    0  504  502  0.00000000000E+00  0.00000000000E+00  0.38814527711E+03  0.38814527711E+03  0.00000000000E+00 0.  1.
          2   -1    0    0  503    0 -0.00000000000E+00 -0.00000000000E+00 -0.77644027167E+03  0.77644027167E+03  0.00000000000E+00 0. -1.
         21    1    1    2  503  505 -0.53469535114E+01  0.11172264648E+03  0.14946040337E+03  0.18667873961E+03  0.00000000000E+00 0.  1.
         21    1    1    2  504  501  0.87551289579E+02 -0.22676169191E+03 -0.61538091498E+02  0.25074494996E+03  0.00000000000E+00 0.  1.
         21    1    1    2  505  502 -0.50913962865E+02  0.10600507474E+03  0.97353995380E+02  0.15266665615E+03  0.00000000000E+00 0.  1.
          2    1    1    2  501    0 -0.31290373203E+02  0.90339706892E+01 -0.57357130181E+03  0.57449520306E+03  0.00000000000E+00 0. -1.
<scales pt_clust_3="58.57915" pt_clust_4="228.75762" pt_clust_5="58.57915" pt_clust_6="32.56839"></scales>
<clustering>
<clus scale="   32.568">  2  6  1 -1</clus>
<clus scale="   58.579">  3  5 -1 -1</clus>
<clus scale="  228.758">  2  4  1 -1</clus>
<clus scale="  236.638">  1  3  2 -1</clus>
</clustering>
</event>
<event>
 6    0  0.3522959E+002  0.1162294E+03  0.7546771E-02  0.1249450E+00
         21   -1    0    0  504  502  0.00000000000E+00  0.00000000000E+00  0.20510433552E+03  0.20510433552E+03  0.00000000000E+00 0.  1.
          2   -1    0    0  505    0 -0.00000000000E+00 -0.00000000000E+00 -0.32014913144E+04  0.32014913144E+04  0.00000000000E+00 0. -1.
         21    1    1    2  503  502 -0.31391543713E+02  0.40091387404E+02  0.11806549180E+00  0.50919174189E+02  0.00000000000E+00 0. -1.
         21    1    1    2  504  501  0.31384711599E+02 -0.74330061551E+02  0.16593049275E+03  0.18450714511E+03  0.00000000000E+00 0.  1.
         21    1    1    2  505  503 -0.11598777907E+03  0.10444397616E+02 -0.14844826054E+04  0.14890436045E+04  0.00000000000E+00 0. -1.
          2    1    1    2  501    0  0.11599461118E+03  0.23794276532E+02 -0.16779529317E+04  0.16821257261E+04  0.00000000000E+00 0. -1.
<scales pt_clust_3="50.91904" pt_clust_4="35.22168" pt_clust_5="14000.00000" pt_clust_6="116.22945"></scales>
<clustering>
<clus scale="   50.919">  1  3  2 -1</clus>
<clus scale="   35.222">  1  4  2 -1</clus>
<clus scale="  116.229">  2  6  1 -1</clus>
<clus scale="   50.919">  1  3  2 -1</clus>
</clustering>
</event>
<event>
 6    0  0.3522959E+002  0.3316411E+03  0.7546771E-02  0.1070413E+00
         21   -1    0    0  501  502  0.00000000000E+00  0.00000000000E+00  0.88987291537E+02  0.88987291537E+02  0.00000000000E+00 0.  1.
          2   -1    0    0  504    0 -0.00000000000E+00 -0.00000000000E+00 -0.29579806187E+04  0.29579806187E+04  0.00000000000E+00 0. -1.
         21    1    1    2  503  502 -0.15165731339E+03  0.44993582819E+02 -0.35591371874E+03  0.38948547905E+03  0.00000000000E+00 0. -1.
         21    1    1    2  504  505 -0.14541167140E+03 -0.13932248136E+03 -0.19397556388E+03  0.27961013461E+03  0.00000000000E+00 0.  1.
         21    1    1    2  505  503 -0.17023812693E+02 -0.52169340577E+02 -0.29728136641E+02  0.62411636760E+02  0.00000000000E+00 0.  1.
          2    1    1    2  501    0  0.31409279749E+03  0.14649823912E+03 -0.22893759079E+04  0.23154606598E+04  0.00000000000E+00 0. -1.
<scales pt_clust_3="158.19091" pt_clust_4="32.52084" pt_clust_5="32.52084" pt_clust_6="325.73711"></scales>
<clustering>
<clus scale="   32.521">  4  5 -1 -1</clus>
<clus scale="  158.191">  1  3  2 -1</clus>
<clus scale="  325.737">  2  6  1 -1</clus>
<clus scale="  158.191">  1  3  2 -1</clus>
</clustering>
</event>
<event>
 6    0  0.3522959E+002  0.2502889E+03  0.7546771E-02  0.1113122E+00
          1   -1    0    0  505    0 -0.00000000000E+00  0.00000000000E+00  0.30411794148E+04  0.30411794148E+04  0.00000000000E+00 0. -1.
         21   -1    0    0  503  502  0.00000000000E+00 -0.00000000000E+00 -0.18855524624E+03  0.18855524624E+03  0.00000000000E+00 0. -1.
         21    1    1    2  503  504  0.44703661847E+01  0.35235239387E+02  0.22361046774E+01  0.35588009675E+02  0.00000000000E+00 0. -1.
         21    1    1    2  504  501  0.74474713096E+02  0.94918121992E+02  0.16257536561E+03  0.20245167886E+03  0.00000000000E+00 0. -1.
         21    1    1    2  505  502 -0.32593410065E+03 -0.11334018176E+03  0.57593992138E+02  0.34985154380E+03  0.00000000000E+00 0. -1.
          1    1    1    2  501    0  0.24698902136E+03 -0.16813179614E+02  0.26302187062E+04  0.26418434287E+04  0.00000000000E+00 0. -1.
<scales pt_clust_3="35.51769" pt_clust_4="124.20173" pt_clust_5="250.28892" pt_clust_6="14000.00000"></scales>
<clustering>
<clus scale="   35.518">  2  3  1 -1</clus>
<clus scale="  124.202">  2  4  1 -1</clus>
<clus scale="  250.289">  2  5  1 -1</clus>
<clus scale="   35.518">  2  3  1 -1</clus>
</clustering>
</event>
<event>
 6    0  0.3522959E+002  0.1592637E+03  0.7546771E-02  0.1189531E+00
          1   -1    0    0  504    0 -0.00000000000E+00  0.00000000000E+00  0.16935649583E+04  0.16935649583E+04  0.00000000000E+00 0. -1.
         21   -1    0    0  501  502  0.00000000000E+00 -0.00000000000E+00 -0.17511346197E+04  0.17511346197E+04  0.00000000000E+00 0. -1.
         21    1    1    2  503  505  0.94941125917E+02  0.33954289148E+02 -0.67613832304E+02  0.12140157108E+03  0.00000000000E+00 0.  1.
         21    1    1    2  504  503  0.25060507641E+02  0.41991768661E+02 -0.56541855572E+02  0.74755060765E+02  0.00000000000E+00 0.  1.
         21    1    1    2  505  502 -0.14913935782E+03 -0.27409643165E+02 -0.15868797851E+04  0.15941083053E+04  0.00000000000E+00 0. -1.
          1    1    1    2  501    0  0.29137724257E+02 -0.48536414645E+02  0.16534658116E+04  0.16544346408E+04  0.00000000000E+00 0. -1.
<scales pt_clust_3="37.46786" pt_clust_4="37.46786" pt_clust_5="149.90105" pt_clust_6="56.61087"></scales>
<clustering>
<clus scale="   37.468">  3  4 -1 -1</clus>
<clus scale="   56.611">  1  6  2 -1</clus>
<clus scale="  149.901">  2  5  1 -1</clus>
<clus scale="  149.901">  2  3  1 -1</clus>
</clustering>
</event>
<event>
 6    0  0.3522959E+002  0.1003155E+03  0.7546771E-02  0.1279634E+00
          2   -1    0    0  502    0 -0.00000000000E+00  0.00000000000E+00  0.69090904011E+03  0.69090904011E+03  0.00000000000E+00 0.  1.
         21   -1    0    0  504  502  0.00000000000E+00 -0.00000000000E+00 -0.26620383682E+03  0.26620383682E+03  0.00000000000E+00 0.  1.
         21    1    1    2  503  505  0.22220743415E+02 -0.70225246935E+02 -0.14490329867E+03  0.16254941621E+03  0.00000000000E+00 0.  1.
         21    1    1    2  504  503 -0.57706547405E+02 -0.31404486403E+02 -0.84688427943E+02  0.10718403429E+03  0.00000000000E+00 0.  1.
         21    1    1    2  505  501  0.73971074883E+02  0.71512811912E+02  0.15713999323E+03  0.18782646156E+03  0.00000000000E+00 0.  1.
          2    1    1    2  501    0 -0.38485270893E+02  0.30116921425E+02  0.49715693667E+03  0.49955296487E+03  0.00000000000E+00 0.  1.
<scales pt_clust_3="14000.00000" pt_clust_4="66.88345" pt_clust_5="100.31548" pt_clust_6="48.86865"></scales>
<clustering>
<clus scale="   48.869">  1  6  2 -1</clus>
<clus scale="   66.883">  2  4  1 -1</clus>
<clus scale="  100.315">  1  5  2 -1</clus>
<clus scale="   66.883">  2  3  1 -1</clus>
</clustering>
</event>
<event>
 6    0  0.3522959E+002  0.1014156E+03  0.7546771E-02  0.1277347E+00
         -1   -1    0    0    0  501 -0.00000000000E+00  0.00000000000E+00  0.13227151157E+04  0.13227151157E+04  0.00000000000E+00 0. -1.
         21   -1    0    0  503  502  0.00000000000E+00 -0.00000000000E+00 -0.10345377438E+03  0.10345377438E+03  0.00000000000E+00 0.  1.
         21    1    1    2  503  504  0.31776872344E+01 -0.34610103299E+02 -0.50438310202E+02  0.61253408742E+02  0.00000000000E+00 0.  1.
         21    1    1    2  504  505  0.31954010140E+02 -0.28400739320E+02 -0.23903483368E+02  0.48979968100E+02  0.00000000000E+00 0. -1.
         21    1    1    2  505  501  0.35694471189E+02 -0.74352329882E+02  0.57631930504E+03  0.58219095286E+03  0.00000000000E+00 0.  1.
         -1    1    1    2    0  502 -0.70826168563E+02  0.13736317250E+03  0.71728382984E+03  0.73374456036E+03  0.00000000000E+00 0. -1.
<scales pt_clust_3="33.97796" pt_clust_4="81.39223" pt_clust_5="101.41560" pt_clust_6="14000.00000"></scales>
<clustering>
<clus scale="   33.978">  3  4 -1 -1</clus>
<clus scale="   81.392">  2  3  1 -1</clus>
<clus scale="  101.416">  1  5  2 -1</clus>
<clus scale="   81.392">  2  3  1 -1</clus>
</clustering>
</event>
<event>
 6    0  0.3522959E+002  0.1605725E+03  0.7546771E-02  0.1188052E+00
          2   -1    0    0  504    0 -0.00000000000E+00  0.00000000000E+00  0.94965181886E+03  0.94965181886E+03  0.00000000000E+00 0. -1.
         21   -1    0    0  501  502  0.00000000000E+00 -0.00000000000E+00 -0.32624447504E+03  0.32624447504E+03  0.00000000000E+00 0. -1.
         21    1    1    2  503  505 -0.18414025700E+02  0.77937742319E+02 -0.64524436531E+02  0.10284342920E+03  0.00000000000E+00 0.  1.
         21    1    1    2  504  503 -0.13461834105E+03 -0.84358851449E+02 -0.25930551906E+02  0.16096865250E+03  0.00000000000E+00 0. -1.
         21    1    1    2  505  502  0.37769712199E+02  0.81135785555E+02 -0.12960664196E+03  0.15750380471E+03  0.00000000000E+00 0. -1.
          2    1    1    2  501    0  0.11526265456E+03 -0.74714676425E+02  0.84346897421E+03  0.85458040749E+03  0.00000000000E+00 0. -1.
<scales pt_clust_3="62.85266" pt_clust_4="146.18054" pt_clust_5="62.85266" pt_clust_6="137.35997"></scales>
<clustering>
<clus scale="   62.853">  3  5 -1 -1</clus>
<clus scale="  137.360">  1  6  2 -1</clus>
<clus scale="  146.181">  1  4  2 -1</clus>
<clus scale="  160.573">  2  3  1 -1</clus>
</clustering>
</event>
<event>
 6    0  0.3522959E+002  0.1247320E+03  0.7546771E-02  0.1235489E+00
          2   -1    0    0  505    0 -0.00000000000E+00  0.00000000000E+00  0.21074471086E+03  0.21074471086E+03  0.00000000000E+00 0. -1.
         21   -1    0    0  504  502  0.00000000000E+00 -0.00000000000E+00 -0.90607746237E+03  0.90607746237E+03  0.00000000000E+00 0. -1.
         21    1    1    2  503  501 -0.39748674460E+02  0.61278859481E+02 -0.69207106642E+03  0.69591480564E+03  0.00000000000E+00 0. -1.
         21    1    1    2  504  503 -0.11715971129E+02  0.41576218267E+02 -0.17338431520E+03  0.17868398547E+03  0.00000000000E+00 0.  1.
         21    1    1    2  505  502  0.63051220206E+02 -0.31378395529E+02  0.16417026965E+02  0.72315827105E+02  0.00000000000E+00 0. -1.
          2    1    1    2  501    0 -0.11586574617E+02 -0.71476682219E+02  0.15370560314E+03  0.16990755501E+03  0.00000000000E+00 0. -1.
<scales pt_clust_3="39.82758" pt_clust_4="39.82758" pt_clust_5="70.42769" pt_clust_6="113.47172"></scales>
<clustering>
<clus scale="   39.828">  3  4 -1 -1</clus>
<clus scale="   70.428">  1  5  2 -1</clus>
<clus scale="  113.472">  1  6  2 -1</clus>
<clus scale="  124.732">  2  3  1 -1</clus>
</clustering>
</event>
<event>
 6    0  0.3522959E+002  0.1159401E+03  0.7546771E-02  0.1249949E+00
         21   -1    0    0  505  502  0.00000000000E+00  0.00000000000E+00  0.15902753779E+04  0.15902753779E+04  0.00000000000E+00 0. -1.
          2   -1    0    0  504    0 -0.00000000000E+00 -0.00000000000E+00 -0.53429992322E+03  0.53429992322E+03  0.00000000000E+00 0. -1.
         21    1    1    2  503  502  0.35026781701E+02  0.45143933352E+02  0.15051433819E+03  0.16099508115E+03  0.00000000000E+00 0.  1.
         21    1    1    2  504  503  0.54696190345E+02  0.40510532155E+01 -0.15655833059E+03  0.16588729652E+03  0.00000000000E+00 0.  1.
         21    1    1    2  505  501 -0.64167684714E+02  0.67652319369E+02  0.14185616527E+04  0.14216228369E+04  0.00000000000E+00 0. -1.
          2    1    1    2  501    0 -0.25555287332E+02 -0.11684730594E+03 -0.35654220558E+03  0.37607008652E+03  0.00000000000E+00 0. -1.
<scales pt_clust_3="57.65763" pt_clust_4="54.84601" pt_clust_5="115.94014" pt_clust_6="14000.00000"></scales>
<clustering>
<clus scale="   54.846">  2  4  1 -1</clus>
<clus scale="   57.658">  1  3  2 -1</clus>
<clus scale="  115.940">  1  5  2 -1</clus>
<clus scale="   57.658">  1  3  2 -1</clus>
</clustering>
</event>
<event>
 6    0  0.3522959E+002  0.1824039E+03  0.7546771E-02  0.1165497E+00
         21   -1    0    0  505  502  0.00000000000E+00  0.00000000000E+00  0.10317825164E+04  0.10317825164E+04  0.00000000000E+00 0. -1.
          1   -1    0    0  504    0 -0.00000000000E+00 -0.00000000000E+00 -0.24049491663E+03  0.24049491663E+03  0.00000000000E+00 0.  1.
         21    1    1    2  503  502  0.77630236728E+02  0.38824531493E+02  0.28338745154E+03  0.29638192521E+03  0.00000000000E+00 0. -1.
         21    1    1    2  504  503  0.14727918062E+03  0.42348944902E+02  0.21648162896E+03  0.26523364390E+03  0.00000000000E+00 0. -1.
         21    1    1    2  505  501 -0.11653970810E+03  0.28924761284E+02  0.46385532711E+03  0.47914497793E+03  0.00000000000E+00 0. -1.
          1    1    1    2  501    0 -0.10836970925E+03 -0.11009823768E+03 -0.17243680781E+03  0.23151688602E+03  0.00000000000E+00 0.  1.
<scales pt_clust_3="68.85085" pt_clust_4="68.85085" pt_clust_5="120.07558" pt_clust_6="157.80248"></scales>
<clustering>
<clus scale="   68.851">  3  4 -1 -1</clus>
<clus scale="  120.076">  1  5  2 -1</clus>
<clus scale="  157.802">  2  6  1 -1</clus>
<clus scale="  120.076">  1  3  2 -1</clus>
</clustering>
</event>
<event>
 6    0  0.4820116E+002  0.1002359E+03  0.7546771E-02  0.1279801E+00
          2   -1    0    0  505    0 -0.00000000000E+00  0.00000000000E+00  0.27593972208E+04  0.27593972208E+04  0.00000000000E+00 0.  1.
         21   -1    0    0  504  502  0.00000000000E+00 -0.00000000000E+00 -0.12823379519E+03  0.12823379519E+03  0.00000000000E+00 0. -1.
         21    1    1    2  503  502  0.64911155137E+02 -0.34930508142E+02 -0.10038493885E+03  0.12454209894E+03  0.00000000000E+00 0. -1.
         21    1    1    2  504  501  0.15690276451E+02 -0.26603429570E+02  0.10061884501E+02  0.32483361275E+02  0.00000000000E+00 0. -1.
         21    1    1    2  505  503 -0.29196552424E+02 -0.31553508439E+02  0.12970458988E+03  0.13664312351E+03  0.00000000000E+00 0. -1.
          2    1    1    2  501    0 -0.51404879164E+02  0.93087446151E+02  0.25917818901E+04  0.25939624322E+04  0.00000000000E+00 0.  1.
<scales pt_clust_3="100.23593" pt_clust_4="30.88571" pt_clust_5="43.26096" pt_clust_6="14000.00000"></scales>
<clustering>
<clus scale="   30.886">  2  4  1 -1</clus>
<clus scale="   43.261">  1  5  2 -1</clus>
<clus scale="  100.236">  2  3  1 -1</clus>
<clus scale="   30.886">  2  3  1 -1</clus>
</clustering>
</event>
<event>
 6    0  0.3522959E+002  0.1444961E+03  0.7546771E-02  0.1207404E+00
          2   -1    0    0  502    0 -0.00000000000E+00  0.00000000000E+00  0.39399399648E+04  0.39399399648E+04  0.00000000000E+00 0. -1.
         21   -1    0    0  503  502  0.00000000000E+00 -0.00000000000E+00 -0.70420981448E+03  0.70420981448E+03  0.00000000000E+00 0.  1.
         21    1    1    2  503  504  0.26478614182E+02  0.46176965823E+02 -0.21755776406E+03  0.22397502067E+03  0.00000000000E+00 0. -1.
         21    1    1    2  504  505  0.90846332408E+02  0.23401802020E+02 -0.44907960530E+03  0.45877357416E+03  0.00000000000E+00 0.  1.
         21    1    1    2  505  501 -0.54536617867E+02 -0.91852986990E+02  0.68379605848E+02  0.12683447640E+03  0.00000000000E+00 0.  1.
          2    1    1    2  501    0 -0.62788328724E+02  0.22274219147E+02  0.38339879139E+04  0.38345667081E+04  0.00000000000E+00 0. -1.
<scales pt_clust_3="42.16890" pt_clust_4="42.16890" pt_clust_5="133.21114" pt_clust_6="66.62218"></scales>
<clustering>
<clus scale="   42.169">  3  4 -1 -1</clus>
<clus scale="   66.622">  1  6  2 -1</clus>
<clus scale="  133.211">  1  5  2 -1</clus>
<clus scale="  144.496">  2  3  1 -1</clus>
</clustering>
</event>
<event>
 6    0  0.3522959E+002  0.8296228E+02  0.7546771E-02  0.1320849E+00
         21   -1    0    0  503  502  0.00000000000E+00  0.00000000000E+00  0.35201538239E+03  0.35201538239E+03  0.00000000000E+00 0.  1.
          1   -1    0    0  505    0 -0.00000000000E+00 -0.00000000000E+00 -0.80482967046E+03  0.80482967046E+03  0.00000000000E+00 0. -1.
         21    1    1    2  503  501  0.89168525768E+02 -0.36878563388E+02  0.67578044392E+02  0.11780427203E+03  0.00000000000E+00 0.  1.
         21    1    1    2  504  502 -0.60529576432E+01  0.41121810647E+02  0.24895222139E+03  0.25239819758E+03  0.00000000000E+00 0.  1.
         21    1    1    2  505  504 -0.18818113011E+02 -0.52409351344E+02 -0.11934316812E+03  0.13169530463E+03  0.00000000000E+00 0.  1.
          1    1    1    2  501    0 -0.64297455114E+02  0.48166104085E+02 -0.65000138573E+03  0.65494727862E+03  0.00000000000E+00 0. -1.
<scales pt_clust_3="82.96228" pt_clust_4="41.56491" pt_clust_5="53.46469" pt_clust_6="14000.00000"></scales>
<clustering>
<clus scale="   41.565">  1  4  2 -1</clus>
<clus scale="   53.465">  2  5  1 -1</clus>
<clus scale="   82.962">  1  3  2 -1</clus>
<clus scale="   41.565">  1  3  2 -1</clus>
</clustering>
</event>
<event>
 6    0  0.3522959E+002  0.1459657E+03  0.7546771E-02  0.1205520E+00
          1   -1    0    0  504    0 -0.00000000000E+00  0.00000000000E+00  0.23615211081E+03  0.23615211081E+03  0.00000000000E+00 0.  1.
         21   -1    0    0  501  502  0.00000000000E+00 -0.00000000000E+00 -0.22498823153E+03  0.22498823153E+03  0.00000000000E+00 0.  1.
         21    1    1    2  503  502  0.50833992359E+02  0.10957762447E+02 -0.77302032566E+02  0.93165291690E+02  0.00000000000E+00 0.  1.
         21    1    1    2  504  505  0.29378759679E+02 -0.13959726973E+02  0.23232963121E+02  0.39971941069E+02  0.00000000000E+00 0. -1.
         21    1    1    2  505  503  0.83270292435E+02 -0.24706730351E+02 -0.71956995246E+02  0.11279261187E+03  0.00000000000E+00 0.  1.
          1    1    1    2  501    0 -0.16348304447E+03  0.27708694876E+02  0.13718994397E+03  0.21521049772E+03  0.00000000000E+00 0.  1.
<scales pt_clust_3="34.02740" pt_clust_4="32.52669" pt_clust_5="34.02740" pt_clust_6="139.06326"></scales>
<clustering>
<clus scale="   32.527">  1  4  2 -1</clus>
<clus scale="   34.027">  3  5 -1 -1</clus>
<clus scale="  139.063">  1  6  2 -1</clus>
<clus scale="  145.966">  2  3  1 -1</clus>
</clustering>
</event>
<event>
 6    0  0.3522959E+002  0.1126282E+03  0.7546771E-02  0.1255779E+00
         21   -1    0    0  505  502  0.00000000000E+00  0.00000000000E+00  0.10811588827E+03  0.10811588827E+03  0.00000000000E+00 0.  1.
          1   -1    0    0  504    0 -0.00000000000E+00 -0.00000000000E+00 -0.74916231922E+03  0.74916231922E+03  0.00000000000E+00 0.  1.
         21    1    1    2  503  501 -0.51590410966E+02 -0.57656520756E+01 -0.57078375146E+02  0.77154093585E+02  0.00000000000E+00 0.  1.
         21    1    1    2  504  502  0.18566901001E+03 -0.39837943191E+02 -0.32068280500E+03  0.37268955502E+03  0.00000000000E+00 0.  1.
         21    1    1    2  505  503 -0.88508273121E+02  0.56506836195E+02  0.30963674227E+02  0.10947824473E+03  0.00000000000E+00 0.  1.
          1    1    1    2  501    0 -0.45570325921E+02 -0.10903240929E+02 -0.29424892503E+03  0.29795631416E+03  0.00000000000E+00 0.  1.
<scales pt_clust_3="58.80623" pt_clust_4="112.62822" pt_clust_5="14000.00000" pt_clust_6="46.85654"></scales>
<clustering>
<clus scale="   46.857">  2  6  1 -1</clus>
<clus scale="   58.806">  2  3  1 -1</clus>
<clus scale="  112.628">  2  4  1 -1</clus>
<clus scale="  112.628">  1  3  2 -1</clus>
</clustering>
</event>
<event>
 6    0  0.3522959E+002  0.8841858E+02  0.7546771E-02  0.1306727E+00
         21   -1    0    0  504  502  0.00000000000E+00  0.00000000000E+00  0.21023916381E+03  0.21023916381E+03  0.00000000000E+00 0. -1.
          2   -1    0    0  503    0 -0.00000000000E+00 -0.00000000000E+00 -0.71389447605E+03  0.71389447605E+03  0.00000000000E+00 0. -1.
         21    1    1    2  503  502  0.57491156225E+02  0.34630753925E+02  0.89109364540E+02  0.11155716476E+03  0.00000000000E+00 0. -1.
         21    1    1    2  504  505 -0.38764542858E+02  0.18739595326E+01  0.77558403895E+02  0.86726625220E+02  0.00000000000E+00 0. -1.
         21    1    1    2  505  501  0.62540626221E+02  0.73016427791E+01 -0.15893552569E+02  0.64940349003E+02  0.00000000000E+00 0. -1.
          2    1    1    2  501    0 -0.81267239588E+02 -0.43806356236E+02 -0.65442952811E+03  0.66090950087E+03  0.00000000000E+00 0. -1.
<scales pt_clust_3="45.15588" pt_clust_4="38.80981" pt_clust_5="14000.00000" pt_clust_6="88.41858"></scales>
<clustering>
<clus scale="   38.810">  1  4  2 -1</clus>
<clus scale="   45.156">  1  3  2 -1</clus>
<clus scale="   88.419">  2  6  1 -1</clus>
<clus scale="   38.810">  1  3  2 -1</clus>
</clustering>
</event>
<event>
 6    0  0.7778280E+002  0.1548061E+03  0.7546771E-02  0.1194689E+00
          2   -1    0    0  503    0 -0.00000000000E+00  0.00000000000E+00  0.20064518168E+04  0.20064518168E+04  0.00000000000E+00 0. -1.
         21   -1    0    0  504  502  0.00000000000E+00 -0.00000000000E+00 -0.14890890806E+04  0.14890890806E+04  0.00000000000E+00 0. -1.
         21    1    1    2  503  505 -0.93398037929E+02  0.10122696488E+03 -0.11724379645E+03  0.18087619997E+03  0.00000000000E+00 0. -1.
         21    1    1    2  504  501  0.17574007263E+03 -0.96359568473E+01 -0.13033081475E+04  0.13151386057E+04  0.00000000000E+00 0. -1.
         21    1    1    2  505  502  0.11901871576E+02  0.31385300915E+02 -0.17588140501E+02  0.37895043829E+02  0.00000000000E+00 0. -1.
          2    1    1    2  501    0 -0.94243906274E+02 -0.12297630895E+03  0.19555028207E+04  0.19616310479E+04  0.00000000000E+00 0. -1.
<scales pt_clust_3="139.29526" pt_clust_4="154.80610" pt_clust_5="33.56623" pt_clust_6="14000.00000"></scales>
<clustering>
<clus scale="   33.566">  2  5  1 -1</clus>
<clus scale="  139.295">  2  3  1 -1</clus>
<clus scale="  154.806">  2  4  1 -1</clus>
<clus scale="   33.566">  2  3  1 -1</clus>
</clustering>
</event>
<event>
 6    0  0.3522959E+002  0.1098373E+03  0.7546771E-02  0.1260871E+00
         -2   -1    0    0    0  501 -0.00000000000E+00  0.00000000000E+00  0.50371033147E+02  0.50371033147E+02  0.00000000000E+00 0. -1.
         21   -1    0    0  504  502  0.00000000000E+00 -0.00000000000E+00 -0.11869424842E+04  0.11869424842E+04  0.00000000000E+00 0. -1.
         21    1    1    2  503  502  0.17948875722E+02 -0.34291283586E+02 -0.18428423217E+03  0.18830489238E+03  0.00000000000E+00 0. -1.
         21    1    1    2  504  505  0.39067419043E+02  0.27254894505E+01 -0.56343731499E+03  0.56479668859E+03  0.00000000000E+00 0. -1.
         21    1    1    2  505  501 -0.15486647993E+03  0.42249334342E+02 -0.33626140810E+03  0.37261289220E+03  0.00000000000E+00 0. -1.
         -2    1    1    2    0  503  0.97850185169E+02 -0.10683540206E+02 -0.52588495798E+02  0.11159904417E+03  0.00000000000E+00 0. -1.
<scales pt_clust_3="38.70471" pt_clust_4="51.91381" pt_clust_5="109.83731" pt_clust_6="14000.00000"></scales>
<clustering>
<clus scale="   38.705">  2  3  1 -1</clus>
<clus scale="   51.914">  2  4  1 -1</clus>
<clus scale="  109.837">  2  5  1 -1</clus>
<clus scale="   38.705">  2  3  1 -1</clus>
</clustering>
</event>
<event>
 6    0  0.3522959E+002  0.7858768E+02  0.7546771E-02  0.1333108E+00
         -1   -1    0    0    0  501 -0.00000000000E+00  0.00000000000E+00  0.26456151455E+02  0.26456151455E+02  0.00000000000E+00 0.  1.
         21   -1    0    0  504  502  0.00000000000E+00 -0.00000000000E+00 -0.14337851083E+04  0.14337851083E+04  0.00000000000E+00 0.  1.
         21    1    1    2  503  502  0.15253958844E+02  0.38942125885E+02 -0.80472497860E+03  0.80581105950E+03  0.00000000000E+00 0.  1.
         21    1    1    2  504  501 -0.54959103452E+02 -0.10916570523E+03 -0.34735227969E+03  0.36822718593E+03  0.00000000000E+00 0.  1.
         21    1    1    2  505  503  0.50604417854E+02  0.23571783070E+02 -0.21933152661E+03  0.22632444549E+03  0.00000000000E+00 0.  1.
         -1    1    1    2    0  505 -0.10899273246E+02  0.46651796277E+02 -0.35920171950E+02  0.59878568838E+02  0.00000000000E+00 0.  1.
<scales pt_clust_3="41.82311" pt_clust_4="78.58768" pt_clust_5="14000.00000" pt_clust_6="50.56587"></scales>
<clustering>
<clus scale="   41.823">  2  3  1 -1</clus>
<clus scale="   50.566">  1  6  2 -1</clus>
<clus scale="   78.588">  1  4  2 -1</clus>
<clus scale="   41.823">  2  3  1 -1</clus>
</clustering>
</event>
<event>
 6    0  0.3522959E+002  0.7327709E+02  0.7546771E-02  0.1349291E+00
         21   -1    0    0  504  502  0.00000000000E+00  0.00000000000E+00  0.23807496019E+04  0.23807496019E+04  0.00000000000E+00 0. -1.
          2   -1    0    0  503    0 -0.00000000000E+00 -0.00000000000E+00 -0.18828234315E+04  0.18828234315E+04  0.00000000000E+00 0. -1.
         21    1    1    2  503  505  0.67785420536E+02 -0.13906982771E+01 -0.55077926353E+03  0.55493656792E+03  0.00000000000E+00 0. -1.
         21    1    1    2  504  501 -0.52550590099E+02  0.86730994095E+02  0.23125691591E+04  0.23147915555E+04  0.00000000000E+00 0. -1.
         21    1    1    2  505  502 -0.19753281008E+01 -0.37450623501E+02  0.59074815795E+02  0.69973459132E+02  0.00000000000E+00 0. -1.
          2    1    1    2  501    0 -0.13259502336E+02 -0.47889672317E+02 -0.13229385410E+04  0.13238714508E+04  0.00000000000E+00 0. -1.
<scales pt_clust_3="73.27709" pt_clust_4="14000.00000" pt_clust_5="37.50268" pt_clust_6="49.69877"></scales>
<clustering>
<clus scale="   37.503">  1  5  2 -1</clus>
<clus scale="   49.699">  2  6  1 -1</clus>
<clus scale="   73.277">  2  3  1 -1</clus>
<clus scale="   37.503">  1  3  2 -1</clus>
</clustering>
</event>
<event>
 6    0  0.3522959E+002  0.8508436E+02  0.7546771E-02  0.1315212E+00
         21   -1    0    0  505  502  0.00000000000E+00  0.00000000000E+00  0.12012817448E+03  0.12012817448E+03  0.00000000000E+00 0.  1.
          2   -1    0    0  503    0 -0.00000000000E+00 -0.00000000000E+00 -0.70824276857E+03  0.70824276857E+03  0.00000000000E+00 0. -1.
         21    1    1    2  503  502  0.27960442480E+02  0.25199978178E+02  0.62659000811E+00  0.37645954084E+02  0.00000000000E+00 0.  1.
         21    1    1    2  504  501  0.52785342167E+01 -0.11327902017E+03 -0.73353271208E+02  0.13505814204E+03  0.00000000000E+00 0.  1.
         21    1    1    2  505  504  0.52988969303E+01  0.58032699601E+02  0.56811613513E+02  0.81384470027E+02  0.00000000000E+00 0.  1.
          2    1    1    2  501    0 -0.38537873626E+02  0.30046342389E+02 -0.57219952641E+03  0.57428237690E+03  0.00000000000E+00 0. -1.
<scales pt_clust_3="37.64074" pt_clust_4="85.08436" pt_clust_5="14000.00000" pt_clust_6="48.80055"></scales>
<clustering>
<clus scale="   37.641">  1  3  2 -1</clus>
<clus scale="   48.801">  2  6  1 -1</clus>
<clus scale="   85.084">  2  4  1 -1</clus>
<clus scale="   37.641">  1  3  2 -1</clus>
</clustering>
</event>
<event>
 6    0  0.3522959E+002  0.8607713E+02  0.7546771E-02  0.1312640E+00
          2   -1    0    0  505    0 -0.00000000000E+00  0.00000000000E+00  0.45481550934E+03  0.45481550934E+03  0.00000000000E+00 0.  1.
         21   -1    0    0  503  502  0.00000000000E+00 -0.00000000000E+00 -0.63971591942E+03  0.63971591942E+03  0.00000000000E+00 0.  1.
         21    1    1    2  503  504 -0.12688154041E+02  0.36801932544E+02 -0.12100886875E+02  0.40765217467E+02  0.00000000000E+00 0.  1.
         21    1    1    2  504  501  0.35067037393E+02 -0.38110683127E+02 -0.92137094058E+02  0.10569468001E+03  0.00000000000E+00 0. -1.
         21    1    1    2  505  502 -0.32439792464E+02  0.86762645992E+02 -0.50585209201E+03  0.51426300262E+03  0.00000000000E+00 0.  1.
          2    1    1    2  501    0  0.10060909112E+02 -0.85453895409E+02  0.42518966286E+03  0.43380852866E+03  0.00000000000E+00 0.  1.
<scales pt_clust_3="38.92777" pt_clust_4="46.10406" pt_clust_5="14000.00000" pt_clust_6="86.07713"></scales>
<clustering>
<clus scale="   38.928">  2  3  1 -1</clus>
<clus scale="   46.104">  2  4  1 -1</clus>
<clus scale="   86.077">  1  6  2 -1</clus>
<clus scale="   38.928">  2  3  1 -1</clus>
</clustering>
</event>
<event>
 6    0  0.3522959E+002  0.1355997E+03  0.7546771E-02  0.1219376E+00
          1   -1    0    0  505    0 -0.00000000000E+00  0.00000000000E+00  0.16535961821E+04  0.16535961821E+04  0.00000000000E+00 0. -1.
         21   -1    0    0  501  502  0.00000000000E+00 -0.00000000000E+00 -0.12617305141E+03  0.12617305141E+03  0.00000000000E+00 0. -1.
         21    1    1    2  503  504  0.62245591273E+02 -0.65871284687E+02  0.62021300104E+02  0.10981885742E+03  0.00000000000E+00 0.  1.
         21    1    1    2  504  502  0.65914450825E+02 -0.30121869298E+02 -0.82486084501E+02  0.10979979952E+03  0.00000000000E+00 0. -1.
         21    1    1    2  505  503 -0.51773299654E+02  0.42278142812E+02  0.24604767697E+03  0.25496543934E+03  0.00000000000E+00 0.  1.
          1    1    1    2  501    0 -0.76386742444E+02  0.53715011174E+02  0.13018402381E+04  0.13051851372E+04  0.00000000000E+00 0. -1.
<scales pt_clust_3="135.59968" pt_clust_4="71.84178" pt_clust_5="66.84247" pt_clust_6="14000.00000"></scales>
<clustering>
<clus scale="   66.842">  1  5  2 -1</clus>
<clus scale="   71.842">  2  4  1 -1</clus>
<clus scale="  135.600">  2  3  1 -1</clus>
<clus scale="   71.842">  2  3  1 -1</clus>
</clustering>
</event>
<event>
 6    0  0.3522959E+002  0.1344761E+03  0.7546771E-02  0.1220961E+00
          2   -1    0    0  503    0 -0.00000000000E+00  0.00000000000E+00  0.68059442557E+02  0.68059442557E+02  0.00000000000E+00 0. -1.
         21   -1    0    0  501  502  0.00000000000E+00 -0.00000000000E+00 -0.53560866152E+03  0.53560866152E+03  0.00000000000E+00 0. -1.
         21    1    1    2  503  505  0.38040162965E+02 -0.21416266590E+02 -0.31809008248E+02  0.54014104443E+02  0.00000000000E+00 0. -1.
         21    1    1    2  504  502 -0.22807274245E+02 -0.69552836597E+02 -0.14389395580E+03  0.16144113278E+03  0.00000000000E+00 0. -1.
         21    1    1    2  505  504 -0.20465530028E+02 -0.44538197188E+02 -0.23686388475E+03  0.24188217964E+03  0.00000000000E+00 0.  1.
          2    1    1    2  501    0  0.52326413077E+01  0.13550730038E+03 -0.54982370156E+02  0.14633068721E+03  0.00000000000E+00 0. -1.
<scales pt_clust_3="43.65444" pt_clust_4="43.33089" pt_clust_5="43.33089" pt_clust_6="123.61213"></scales>
<clustering>
<clus scale="   43.331">  4  5 -1 -1</clus>
<clus scale="   43.654">  1  3  2 -1</clus>
<clus scale="  123.612">  1  6  2 -1</clus>
<clus scale="  134.476">  2  3  1 -1</clus>
</clustering>
</event>
<event>
 6    0  0.3522959E+002  0.1016615E+03  0.7546771E-02  0.1276840E+00
         21   -1    0    0  503  502  0.00000000000E+00  0.00000000000E+00  0.23255160904E+03  0.23255160904E+03  0.00000000000E+00 0.  1.
          1   -1    0    0  504    0 -0.00000000000E+00 -0.00000000000E+00 -0.16858631909E+04  0.16858631909E+04  0.00000000000E+00 0. -1.
         21    1    1    2  503  501 -0.97590617848E+02 -0.13070704771E+03 -0.10017165093E+03  0.19142262318E+03  0.00000000000E+00 0.  1.
         21    1    1    2  504  505  0.22045777380E+02  0.32073559333E+02  0.38943180469E+02  0.55057250327E+02  0.00000000000E+00 0.  1.
         21    1    1    2  505  502  0.30028467751E+02  0.39235070653E+02  0.13461929480E+03  0.14339963102E+03  0.00000000000E+00 0.  1.
          1    1    1    2  501    0  0.45516372717E+02  0.59398417728E+02 -0.15267024062E+04  0.15285352954E+04  0.00000000000E+00 0. -1.
<scales pt_clust_3="94.18335" pt_clust_4="33.96565" pt_clust_5="33.96565" pt_clust_6="74.83256"></scales>
<clustering>
<clus scale="   33.966">  4  5 -1 -1</clus>
<clus scale="   74.833">  2  6  1 -1</clus>
<clus scale="   94.183">  2  3  1 -1</clus>
<clus scale="  101.661">  1  3  2 -1</clus>
</clustering>
</event>
<event>
 6    0  0.3522959E+002  0.1848570E+03  0.7546771E-02  0.1163184E+00
          1   -1    0    0  505    0 -0.00000000000E+00  0.00000000000E+00  0.32570159274E+04  0.32570159274E+04  0.00000000000E+00 0. -1.
         21   -1    0    0  504  502  0.00000000000E+00 -0.00000000000E+00 -0.39851710076E+02  0.39851710076E+02  0.00000000000E+00 0.  1.
         21    1    1    2  503  502 -0.21148398676E+02 -0.11693624563E+03  0.15380650630E+03  0.19436507322E+03  0.00000000000E+00 0.  1.
         21    1    1    2  504  501 -0.25942051382E+02  0.17716079512E+02  0.22994207828E+02  0.38930490580E+02  0.00000000000E+00 0.  1.
         21    1    1    2  505  503 -0.37130660453E+02 -0.59002548836E+02  0.12846102466E+03  0.14615820734E+03  0.00000000000E+00 0.  1.
          1    1    1    2  501    0  0.84221110511E+02  0.15822271496E+03  0.29119024785E+04  0.29174138663E+04  0.00000000000E+00 0. -1.
<scales pt_clust_3="34.68927" pt_clust_4="31.41416" pt_clust_5="34.68927" pt_clust_6="179.56018"></scales>
<clustering>
<clus scale="   31.414">  2  4  1 -1</clus>
<clus scale="   34.689">  3  5 -1 -1</clus>
<clus scale="  179.560">  1  6  2 -1</clus>
<clus scale="   31.414">  2  3  1 -1</clus>
</clustering>
</event>
<event>
 6    0  0.3522959E+002  0.9047867E+02  0.7546771E-02  0.1301697E+00
         -4   -1    0    0    0  501 -0.00000000000E+00  0.00000000000E+00  0.26317502781E+03  0.26317502781E+03  0.00000000000E+00 0.  1.
         21   -1    0    0  504  502  0.00000000000E+00 -0.00000000000E+00 -0.37664643905E+03  0.37664643905E+03  0.00000000000E+00 0. -1.
         21    1    1    2  503  505 -0.83331805516E+02 -0.19075316098E+02 -0.43521844852E+02  0.95928142243E+02  0.00000000000E+00 0. -1.
         21    1    1    2  504  501  0.52265264035E+02  0.49030373534E+02 -0.12675788249E+03  0.14561317292E+03  0.00000000000E+00 0.  1.
         21    1    1    2  505  502 -0.60357342079E+02 -0.24999036816E+02 -0.15463289114E+03  0.16786688657E+03  0.00000000000E+00 0. -1.
         -4    1    1    2    0  503  0.91423883560E+02 -0.49560206199E+01  0.21144120724E+03  0.23041326513E+03  0.00000000000E+00 0.  1.
<scales pt_clust_3="14000.00000" pt_clust_4="36.09430" pt_clust_5="65.32963" pt_clust_6="90.47867"></scales>
<clustering>
<clus scale="   65.330">  2  5  1 -1</clus>
<clus scale="   36.094">  2  4  1 -1</clus>
<clus scale="   90.479">  1  6  2 -1</clus>
<clus scale="   65.330">  2  3  1 -1</clus>
</clustering>
</event>
<event>
 6    0  0.3522959E+002  0.9416685E+02  0.7546771E-02  0.1293064E+00
          1   -1    0    0  503    0 -0.00000000000E+00  0.00000000000E+00  0.91700554892E+03  0.91700554892E+03  0.00000000000E+00 0.  1.
         21   -1    0    0  505  502  0.00000000000E+00 -0.00000000000E+00 -0.60736046988E+02  0.60736046988E+02  0.00000000000E+00 0.  1.
         21    1    1    2  503  504 -0.32791522986E+02  0.25756009688E+02  0.33972273525E+02  0.53784490174E+02  0.00000000000E+00 0.  1.
         21    1    1    2  504  502 -0.32296166189E+02  0.13530816875E+02 -0.29135236928E+01  0.35137074098E+02  0.00000000000E+00 0.  1.
         21    1    1    2  505  501  0.35220606313E+02 -0.12669695568E+03  0.12139169065E+03  0.17896522636E+03  0.00000000000E+00 0.  1.
          1    1    1    2  501    0  0.29867082863E+02  0.87410129117E+02  0.70381906145E+03  0.70985480528E+03  0.00000000000E+00 0.  1.
<scales pt_clust_3="83.32106" pt_clust_4="31.24522" pt_clust_5="94.16685" pt_clust_6="14000.00000"></scales>
<clustering>
<clus scale="   31.245">  3  4 -1 -1</clus>
<clus scale="   83.321">  2  3  1 -1</clus>
<clus scale="   94.167">  2  5  1 -1</clus>
<clus scale="   83.321">  2  3  1 -1</clus>
</clustering>
</event>
<event>
 6    0  0.3522959E+002  0.8581670E+02  0.7546771E-02  0.1313310E+00
          2   -1    0    0  505    0 -0.00000000000E+00  0.00000000000E+00  0.75927998552E+03  0.75927998552E+03  0.00000000000E+00 0.  1.
         21   -1    0    0  503  502  0.00000000000E+00 -0.00000000000E+00 -0.52656477930E+03  0.52656477930E+03  0.00000000000E+00 0.  1.
         21    1    1    2  503  504  0.50467305091E+02 -0.28139663437E+02 -0.36136542579E+03  0.36595595431E+03  0.00000000000E+00 0.  1.
         21    1    1    2  504  501  0.55706174369E+01  0.60750849119E+02 -0.13391301206E+03  0.14715431440E+03  0.00000000000E+00 0.  1.
         21    1    1    2  505  502 -0.63732431931E+02 -0.11264411351E+03  0.19714698982E+03  0.23583353194E+03  0.00000000000E+00 0.  1.
          2    1    1    2  501    0  0.76945094024E+01  0.80032927831E+02  0.53084665424E+03  0.53690096417E+03  0.00000000000E+00 0.  1.
<scales pt_clust_3="57.78226" pt_clust_4="61.17199" pt_clust_5="85.81670" pt_clust_6="14000.00000"></scales>
<clustering>
<clus scale="   57.782">  2  3  1 -1</clus>
<clus scale="   61.172">  2  4  1 -1</clus>
<clus scale="   85.817">  2  5  1 -1</clus>
<clus scale="   57.782">  2  3  1 -1</clus>
</clustering>
</event>
<event>
 6    0  0.3522959E+002  0.1194402E+03  0.7546771E-02  0.1244023E+00
         21   -1    0    0  501  502  0.00000000000E+00  0.00000000000E+00  0.52326126536E+02  0.52326126536E+02  0.00000000000E+00 0. -1.
          2   -1    0    0  504    0 -0.00000000000E+00 -0.00000000000E+00 -0.21420288550E+04  0.21420288550E+04  0.00000000000E+00 0. -1.
         21    1    1    2  503  505 -0.21350318561E+02 -0.48822326623E+02 -0.66994715696E+02  0.85602264051E+02  0.00000000000E+00 0. -1.
         21    1    1    2  504  503 -0.95146192161E+02  0.89025062035E+02 -0.16831078909E+04  0.16881440791E+04  0.00000000000E+00 0. -1.
         21    1    1    2  505  502  0.11561201678E+02 -0.31219479679E+02  0.24659148483E+02  0.41429348288E+02  0.00000000000E+00 0. -1.
          2    1    1    2  501    0  0.10493530904E+03 -0.89832557331E+01 -0.36425927044E+03  0.37917929014E+03  0.00000000000E+00 0. -1.
<scales pt_clust_3="65.80421" pt_clust_4="14000.00000" pt_clust_5="33.29140" pt_clust_6="119.44018"></scales>
<clustering>
<clus scale="   33.291">  1  5  2 -1</clus>
<clus scale="   65.804">  1  3  2 -1</clus>
<clus scale="  119.440">  1  6  2 -1</clus>
<clus scale="   33.291">  1  3  2 -1</clus>
</clustering>
</event>
<event>
 6    0  0.3522959E+002  0.9315663E+02  0.7546771E-02  0.1295383E+00
         21   -1    0    0  505  502  0.00000000000E+00  0.00000000000E+00  0.28257166508E+03  0.28257166508E+03  0.00000000000E+00 0.  1.
          2   -1    0    0  502    0 -0.00000000000E+00 -0.00000000000E+00 -0.19688825204E+04  0.19688825204E+04  0.00000000000E+00 0.  1.
         21    1    1    2  503  501 -0.12850575731E+03 -0.91164075870E+02 -0.60723592050E+03  0.62734367099E+03  0.00000000000E+00 0.  1.
         21    1    1    2  504  503  0.18249535510E+02  0.48981605555E+02  0.75201123617E+02  0.91583034577E+02  0.00000000000E+00 0.  1.
         21    1    1    2  505  504  0.36940084175E+02  0.29061257826E+02  0.18515485796E+03  0.19102734870E+03  0.00000000000E+00 0.  1.
          2    1    1    2  501    0  0.73316137628E+02  0.13121212489E+02 -0.13394309164E+04  0.13415001312E+04  0.00000000000E+00 0.  1.
<scales pt_clust_3="93.15663" pt_clust_4="14000.00000" pt_clust_5="47.00135" pt_clust_6="74.93566"></scales>
<clustering>
<clus scale="   47.001">  1  5  2 -1</clus>
<clus scale="   74.936">  2  6  1 -1</clus>
<clus scale="   93.157">  2  3  1 -1</clus>
<clus scale="   47.001">  1  3  2 -1</clus>
</clustering>
</event>
<event>
 6    0  0.3522959E+002  0.1582081E+03  0.7546771E-02  0.1190735E+00
          2   -1    0    0  503    0 -0.00000000000E+00  0.00000000000E+00  0.44993817856E+03  0.44993817856E+03  0.00000000000E+00 0.  1.
         21   -1    0    0  504  502  0.00000000000E+00 -0.00000000000E+00 -0.21988486959E+03  0.21988486959E+03  0.00000000000E+00 0. -1.
         21    1    1    2  503  502  0.89290174281E+02 -0.30075899177E+02  0.61097499511E+02  0.11229514407E+03  0.00000000000E+00 0. -1.
         21    1    1    2  504  505 -0.40007273003E+02  0.69275642048E+02 -0.98334195850E+02  0.12676478434E+03  0.00000000000E+00 0. -1.
         21    1    1    2  505  501 -0.35770317038E+02  0.72317520161E+02 -0.49493908009E+02  0.94651921445E+02  0.00000000000E+00 0. -1.
          2    1    1    2  501    0 -0.13512584240E+02 -0.11151726303E+03  0.31678391332E+03  0.33611119830E+03  0.00000000000E+00 0.  1.
<scales pt_clust_3="94.21940" pt_clust_4="37.00891" pt_clust_5="37.00891" pt_clust_6="153.78058"></scales>
<clustering>
<clus scale="   37.009">  4  5 -1 -1</clus>
<clus scale="   94.219">  1  3  2 -1</clus>
<clus scale="  153.781">  1  6  2 -1</clus>
<clus scale="  158.208">  2  3  1 -1</clus>
</clustering>
</event>
<event>
 6    0  0.3522959E+002  0.7120329E+02  0.7546771E-02  0.1356048E+00
          1   -1    0    0  504    0 -0.00000000000E+00  0.00000000000E+00  0.95533635693E+03  0.95533635693E+03  0.00000000000E+00 0. -1.
         21   -1    0    0  503  502  0.00000000000E+00 -0.00000000000E+00 -0.14836136334E+03  0.14836136334E+03  0.00000000000E+00 0. -1.
         21    1    1    2  503  501  0.21250156672E+02  0.38854823943E+02 -0.12678558125E+03  0.13429761768E+03  0.00000000000E+00 0. -1.
         21    1    1    2  504  505 -0.33310318845E+01 -0.10636578978E+03  0.54332920470E+03  0.55365278080E+03  0.00000000000E+00 0. -1.
         21    1    1    2  505  502 -0.41574685175E+02  0.15200253493E+02  0.37028105567E+02  0.57711201300E+02  0.00000000000E+00 0. -1.
          1    1    1    2  501    0  0.23655560387E+02  0.52310712347E+02  0.35340326458E+03  0.35803612049E+03  0.00000000000E+00 0. -1.
<scales pt_clust_3="56.21553" pt_clust_4="71.20329" pt_clust_5="44.26626" pt_clust_6="14000.00000"></scales>
<clustering>
<clus scale="   44.266">  2  5  1 -1</clus>
<clus scale="   56.216">  2  3  1 -1</clus>
<clus scale="   71.203">  2  4  1 -1</clus>
<clus scale="   44.266">  2  3  1 -1</clus>
</clustering>
</event>
<event>
 6    0  0.3522959E+002  0.2259714E+03  0.7546771E-02  0.1129508E+00
         21   -1    0    0  501  502  0.00000000000E+00  0.00000000000E+00  0.46254793449E+02  0.46254793449E+02  0.00000000000E+00 0.  1.
          1   -1    0    0  505    0 -0.00000000000E+00 -0.00000000000E+00 -0.37641174082E+04  0.37641174082E+04  0.00000000000E+00 0.  1.
         21    1    1    2  503  502  0.21096563920E+02  0.34312985146E+02 -0.68553189751E+02  0.79510916131E+02  0.00000000000E+00 0.  1.
         21    1    1    2  504  503  0.18229876283E+03  0.25683544309E+02 -0.23184752691E+03  0.29605026450E+03  0.00000000000E+00 0.  1.
         21    1    1    2  505  504  0.30123865048E+02 -0.90029862124E+02 -0.59280408928E+03  0.60035781962E+03  0.00000000000E+00 0.  1.
          1    1    1    2  501    0 -0.23351919180E+03  0.30033332669E+02 -0.28246578088E+04  0.28344532014E+04  0.00000000000E+00 0.  1.
<scales pt_clust_3="35.73453" pt_clust_4="35.73453" pt_clust_5="94.93589" pt_clust_6="212.66569"></scales>
<clustering>
<clus scale="   35.735">  3  4 -1 -1</clus>
<clus scale="   94.936">  2  5  1 -1</clus>
<clus scale="  212.666">  2  6  1 -1</clus>
<clus scale="  225.971">  1  3  2 -1</clus>
</clustering>
</event>
<event>
 6    0  0.3522959E+002  0.6857691E+02  0.7546771E-02  0.1365000E+00
         21   -1    0    0  504  502  0.00000000000E+00  0.00000000000E+00  0.28318776068E+03  0.28318776068E+03  0.00000000000E+00 0.  1.
         -2   -1    0    0    0  501 -0.00000000000E+00 -0.00000000000E+00 -0.12964177322E+03  0.12964177322E+03  0.00000000000E+00 0. -1.
         21    1    1    2  503  501  0.69903135185E+01 -0.33715917562E+02 -0.12269468585E+01  0.34454796165E+02  0.00000000000E+00 0. -1.
         21    1    1    2  504  503 -0.94912550421E+02  0.23176607422E+01  0.35526138009E+02  0.10136996725E+03  0.00000000000E+00 0. -1.
         21    1    1    2  505  502  0.58611586355E+02 -0.28418074162E+02  0.17714905351E+03  0.18874504537E+03  0.00000000000E+00 0.  1.
         -2    1    1    2    0  505  0.29310650547E+02  0.59816330982E+02 -0.57902257198E+02  0.88259725109E+02  0.00000000000E+00 0. -1.
<scales pt_clust_3="34.43294" pt_clust_4="14000.00000" pt_clust_5="68.57691" pt_clust_6="50.74420"></scales>
<clustering>
<clus scale="   34.433">  2  3  1 -1</clus>
<clus scale="   50.744">  2  6  1 -1</clus>
<clus scale="   68.577">  1  5  2 -1</clus>
<clus scale="   68.577">  1  3  2 -1</clus>
</clustering>
</event>
<event>
 6    0  0.3522959E+002  0.1160962E+03  0.7546771E-02  0.1249680E+00
          3   -1    0    0  503    0 -0.00000000000E+00  0.00000000000E+00  0.20682813588E+04  0.20682813588E+04  0.00000000000E+00 0. -1.
         21   -1    0    0  505  502  0.00000000000E+00 -0.00000000000E+00 -0.83034436735E+02  0.83034436735E+02  0.00000000000E+00 0. -1.
         21    1    1    2  503  502 -0.37250449231E+02  0.37482180736E+01 -0.33848297188E+02  0.50471302035E+02  0.00000000000E+00 0. -1.
         21    1    1    2  504  501  0.16244686469E+03 -0.75819058118E+02  0.29574749513E+03  0.34583824875E+03  0.00000000000E+00 0. -1.
         21    1    1    2  505  504 -0.32308848234E+02  0.10112211890E+02  0.64273691529E+01  0.34459100072E+02  0.00000000000E+00 0. -1.
          3    1    1    2  501    0 -0.92887567230E+02  0.61958628154E+02  0.17169203549E+04  0.17205471447E+04  0.00000000000E+00 0. -1.
<scales pt_clust_3="57.84409" pt_clust_4="116.09622" pt_clust_5="33.85437" pt_clust_6="14000.00000"></scales>
<clustering>
<clus scale="   33.854">  2  5  1 -1</clus>
<clus scale="   57.844">  2  3  1 -1</clus>
<clus scale="  116.096">  2  4  1 -1</clus>
<clus scale="   33.854">  2  3  1 -1</clus>
</clustering>
</event>
<event>
 6    0  0.3522959E+002  0.9962015E+02  0.7546771E-02  0.1281097E+00
          2   -1    0    0  504    0 -0.00000000000E+00  0.00000000000E+00  0.11507760108E+04  0.11507760108E+04  0.00000000000E+00 0.  1.
         21   -1    0    0  505  502  0.00000000000E+00 -0.00000000000E+00 -0.26146763753E+04  0.26146763753E+04  0.00000000000E+00 0. -1.
         21    1    1    2  503  501  0.11474870600E+03 -0.66776654585E+01  0.32526118482E+03  0.34497347014E+03  0.00000000000E+00 0.  1.
         21    1    1    2  504  502 -0.67553516324E+02  0.24543547500E+02 -0.24358278958E+04  0.24368880568E+04  0.00000000000E+00 0. -1.
         21    1    1    2  505  503 -0.18219956097E+02  0.26334170629E+02 -0.16607438752E+03  0.16913354941E+03  0.00000000000E+00 0. -1.
          2    1    1    2  501    0 -0.28975233583E+02 -0.44200052670E+02  0.81274073398E+03  0.81445730980E+03  0.00000000000E+00 0.  1.
<scales pt_clust_3="99.62015" pt_clust_4="14000.00000" pt_clust_5="32.02273" pt_clust_6="52.84660"></scales>
<clustering>
<clus scale="   32.023">  2  5  1 -1</clus>
<clus scale="   52.847">  1  6  2 -1</clus>
<clus scale="   99.620">  1  3  2 -1</clus>
<clus scale="   32.023">  2  3  1 -1</clus>
</clustering>
</event>
<event>
 6    0  0.3522959E+002  0.1681185E+03  0.7546771E-02  0.1179824E+00
         21   -1    0    0  503  502  0.00000000000E+00  0.00000000000E+00  0.12874881675E+03  0.12874881675E+03  0.00000000000E+00 0.  1.
          1   -1    0    0  504    0 -0.00000000000E+00 -0.00000000000E+00 -0.96892794853E+03  0.96892794853E+03  0.00000000000E+00 0.  1.
         21    1    1    2  503  505 -0.23652483394E+01  0.37532073230E+02 -0.41874696012E+02  0.56282689050E+02  0.00000000000E+00 0.  1.
         21    1    1    2  504  502 -0.73052386856E+02 -0.19165739572E+03  0.14206586024E+02  0.20559921120E+03  0.00000000000E+00 0.  1.
         21    1    1    2  505  501  0.39666602762E+02  0.13276908954E+03 -0.44872555931E+03  0.46963357854E+03  0.00000000000E+00 0.  1.
          1    1    1    2  501    0  0.35751032433E+02  0.21356232952E+02 -0.36378546248E+03  0.36616128649E+03  0.00000000000E+00 0.  1.
<scales pt_clust_3="37.60653" pt_clust_4="168.11848" pt_clust_5="14000.00000" pt_clust_6="41.81357"></scales>
<clustering>
<clus scale="   37.607">  1  3  2 -1</clus>
<clus scale="   41.814">  2  6  1 -1</clus>
<clus scale="  168.118">  1  4  2 -1</clus>
<clus scale="   37.607">  1  3  2 -1</clus>
</clustering>
</event>
<event>
 6    0  0.3522959E+002  0.9020009E+02  0.7546771E-02  0.1302368E+00
         21   -1    0    0  501  502  0.00000000000E+00  0.00000000000E+00  0.18124292009E+02  0.18124292009E+02  0.00000000000E+00 0.  1.
          1   -1    0    0  503    0 -0.00000000000E+00 -0.00000000000E+00 -0.14393731622E+04  0.14393731622E+04  0.00000000000E+00 0.  1.
         21    1    1    2  503  504 -0.60110616312E+02 -0.71420999467E+02 -0.99157003671E+03  0.99595450853E+03  0.00000000000E+00 0.  1.
         21    1    1    2  504  505  0.35096860798E+02 -0.19391424664E+02 -0.83127192066E+02  0.92292724790E+02  0.00000000000E+00 0.  1.
         21    1    1    2  505  502  0.43543009885E+02  0.10166895832E+02 -0.11995480720E+03  0.12801763648E+03  0.00000000000E+00 0.  1.
          1    1    1    2  501    0 -0.18529254372E+02  0.80645528298E+02 -0.22659683419E+03  0.24123258438E+03  0.00000000000E+00 0.  1.
<scales pt_clust_3="84.32687" pt_clust_4="30.31837" pt_clust_5="30.31837" pt_clust_6="82.74681"></scales>
<clustering>
<clus scale="   30.318">  4  5 -1 -1</clus>
<clus scale="   82.747">  1  6  2 -1</clus>
<clus scale="   84.327">  2  3  1 -1</clus>
<clus scale="   82.747">  1  3  2 -1</clus>
</clustering>
</event>
<event>
 6    0  0.3522959E+002  0.8127029E+02  0.7546771E-02  0.1325485E+00
         21   -1    0    0  503  502  0.00000000000E+00  0.00000000000E+00  0.10257391473E+03  0.10257391473E+03  0.00000000000E+00 0.  1.
         -4   -1    0    0    0  501 -0.00000000000E+00 -0.00000000000E+00 -0.48657707935E+03  0.48657707935E+03  0.00000000000E+00 0. -1.
         21    1    1    2  503  501 -0.81950383938E+02 -0.66730432063E+02 -0.28070176786E+03  0.29993715754E+03  0.00000000000E+00 0. -1.
         21    1    1    2  504  505  0.29730903276E+02  0.50394364997E+02  0.95554375076E+01  0.59285959712E+02  0.00000000000E+00 0.  1.
         21    1    1    2  505  502 -0.36680255028E+01  0.35522014856E+02  0.47272101343E+02  0.59244573726E+02  0.00000000000E+00 0.  1.
         -4    1    1    2    0  504  0.55887506165E+02 -0.19185947790E+02 -0.16012893561E+03  0.17068330310E+03  0.00000000000E+00 0. -1.
<scales pt_clust_3="14000.00000" pt_clust_4="81.27029" pt_clust_5="35.71089" pt_clust_6="57.58808"></scales>
<clustering>
<clus scale="   35.711">  1  5  2 -1</clus>
<clus scale="   57.588">  2  6  1 -1</clus>
<clus scale="   81.270">  1  4  2 -1</clus>
<clus scale="   35.711">  1  3  2 -1</clus>
</clustering>
</event>
<event>
 6    0  0.3522959E+002  0.1266621E+03  0.7546771E-02  0.1232494E+00
         21   -1    0    0  503  502  0.00000000000E+00  0.00000000000E+00  0.15403434435E+03  0.15403434435E+03  0.00000000000E+00 0.  1.
         -3   -1    0    0    0  501 -0.00000000000E+00 -0.00000000000E+00 -0.14240195384E+04  0.14240195384E+04  0.00000000000E+00 0.  1.
         21    1    1    2  503  501 -0.55058024404E+01 -0.31222825108E+02  0.17586195800E+02  0.36255385130E+02  0.00000000000E+00 0. -1.
         21    1    1    2  504  505  0.75574361601E+02  0.90853916226E+02 -0.10504204209E+03  0.15811308874E+03  0.00000000000E+00 0.  1.
         21    1    1    2  505  502  0.55404959961E+02 -0.25126298526E+02  0.87740077447E+02  0.10676779316E+03  0.00000000000E+00 0.  1.
         -3    1    1    2    0  504 -0.12547351912E+03 -0.34504792591E+02 -0.12702694252E+04  0.12769176157E+04  0.00000000000E+00 0.  1.
<scales pt_clust_3="31.70455" pt_clust_4="14000.00000" pt_clust_5="70.87394" pt_clust_6="126.66209"></scales>
<clustering>
<clus scale="   31.705">  1  3  2 -1</clus>
<clus scale="   70.874">  1  5  2 -1</clus>
<clus scale="  126.662">  2  6  1 -1</clus>
<clus scale="   31.705">  1  3  2 -1</clus>
</clustering>
</event>
<event>
 6    0  0.3522959E+002  0.1067860E+03  0.7546771E-02  0.1266640E+00
         21   -1    0    0  504  502  0.00000000000E+00  0.00000000000E+00  0.33730856092E+02  0.33730856092E+02  0.00000000000E+00 0. -1.
          2   -1    0    0  503    0 -0.00000000000E+00 -0.00000000000E+00 -0.13750253502E+04  0.13750253502E+04  0.00000000000E+00 0. -1.
         21    1    1    2  503  505  0.57434654255E+02  0.19163195293E+02 -0.35162734254E+03  0.35680212385E+03  0.00000000000E+00 0. -1.
         21    1    1    2  504  501  0.10766653053E+03  0.93673491613E+01 -0.12162142769E+03  0.16270095482E+03  0.00000000000E+00 0. -1.
         21    1    1    2  505  502 -0.64236690465E+02 -0.29736604156E+02 -0.17293156271E+03  0.18685808361E+03  0.00000000000E+00 0.  1.
          2    1    1    2  501    0 -0.10086449432E+03  0.12060597017E+01 -0.69511416118E+03  0.70239504402E+03  0.00000000000E+00 0. -1.
<scales pt_clust_3="60.54723" pt_clust_4="106.78597" pt_clust_5="60.19362" pt_clust_6="14000.00000"></scales>
<clustering>
<clus scale="   60.547">  2  3  1 -1</clus>
<clus scale="   60.194">  2  5  1 -1</clus>
<clus scale="  106.786">  1  4  2 -1</clus>
<clus scale="  106.786">  1  3  2 -1</clus>
</clustering>
</event>
<event>
 6    0  0.3522959E+002  0.7565772E+02  0.7546771E-02  0.1341846E+00
         21   -1    0    0  505  502  0.00000000000E+00  0.00000000000E+00  0.12505039752E+04  0.12505039752E+04  0.00000000000E+00 0.  1.
          1   -1    0    0  502    0 -0.00000000000E+00 -0.00000000000E+00 -0.61208548219E+02  0.61208548219E+02  0.00000000000E+00 0.  1.
         21    1    1    2  503  504  0.21500424249E+02  0.58839948348E+02  0.62019412416E+03  0.62334994939E+03  0.00000000000E+00 0.  1.
         21    1    1    2  504  501  0.10562948100E+02 -0.10875013671E+03  0.11828637333E+03  0.16102743314E+03  0.00000000000E+00 0.  1.
         21    1    1    2  505  503 -0.44734535363E+02  0.12586877219E+02  0.47748710098E+03  0.47974320187E+03  0.00000000000E+00 0.  1.
          1    1    1    2  501    0  0.12671163014E+02  0.37323311147E+02 -0.26672171496E+02  0.47591939017E+02  0.00000000000E+00 0.  1.
<scales pt_clust_3="14000.00000" pt_clust_4="75.65772" pt_clust_5="46.41039" pt_clust_6="39.41558"></scales>
<clustering>
<clus scale="   39.416">  2  6  1 -1</clus>
<clus scale="   46.410">  1  5  2 -1</clus>
<clus scale="   75.658">  2  4  1 -1</clus>
<clus scale="   46.410">  1  3  2 -1</clus>
</clustering>
</event>
<event>
 6    0  0.3522959E+002  0.1052098E+03  0.7546771E-02  0.1269707E+00
         21   -1    0    0  501  502  0.00000000000E+00  0.00000000000E+00  0.12337092695E+02  0.12337092695E+02  0.00000000000E+00 0.  1.
          1   -1    0    0  505    0 -0.00000000000E+00 -0.00000000000E+00 -0.20836434235E+04  0.20836434235E+04  0.00000000000E+00 0.  1.
         21    1    1    2  503  502 -0.33861853383E+02  0.72760489423E+01 -0.88974148675E+02  0.95477563517E+02  0.00000000000E+00 0.  1.
         21    1    1    2  504  503 -0.33811847353E+02  0.72521527719E+02 -0.31707741698E+03  0.32701789150E+03  0.00000000000E+00 0.  1.
         21    1    1    2  505  504 -0.84128314180E+01 -0.86498835674E+02 -0.74082206675E+03  0.74590224486E+03  0.00000000000E+00 0.  1.
          1    1    1    2  501    0  0.76086532154E+02  0.67012590124E+01 -0.92443269838E+03  0.92758281629E+03  0.00000000000E+00 0.  1.
<scales pt_clust_3="34.04108" pt_clust_4="34.04108" pt_clust_5="91.60759" pt_clust_6="76.38107"></scales>
<clustering>
<clus scale="   34.041">  3  4 -1 -1</clus>
<clus scale="   76.381">  2  6  1 -1</clus>
<clus scale="   91.608">  2  5  1 -1</clus>
<clus scale="  105.210">  1  3  2 -1</clus>
</clustering>
</event>
<event>
 6    0  0.3522959E+002  0.1162641E+03  0.7546771E-02  0.1249391E+00
         21   -1    0    0  503  502  0.00000000000E+00  0.00000000000E+00  0.68701641809E+02  0.68701641809E+02  0.00000000000E+00 0. -1.
          2   -1    0    0  504    0 -0.00000000000E+00 -0.00000000000E+00 -0.82617790949E+03  0.82617790949E+03  0.00000000000E+00 0.  1.
         21    1    1    2  503  501 -0.71208480738E+02  0.45607138385E+02 -0.12422806123E+03  0.15027731032E+03  0.00000000000E+00 0. -1.
         21    1    1    2  504  505  0.74551499436E+02 -0.74642635725E+01 -0.49408457570E+01  0.75086971278E+02  0.00000000000E+00 0. -1.
         21    1    1    2  505  502  0.82656737449E+02 -0.10075327092E+02 -0.85970635405E+02  0.11968541521E+03  0.00000000000E+00 0. -1.
          2    1    1    2  501    0 -0.85999756146E+02 -0.28067547721E+02 -0.54233672529E+03  0.54982985449E+03  0.00000000000E+00 0.  1.
<scales pt_clust_3="84.56157" pt_clust_4="64.67930" pt_clust_5="64.67930" pt_clust_6="94.17015"></scales>
<clustering>
<clus scale="   64.679">  4  5 -1 -1</clus>
<clus scale="   84.562">  1  3  2 -1</clus>
<clus scale="   94.170">  2  6  1 -1</clus>
<clus scale="   84.562">  1  3  2 -1</clus>
</clustering>
</event>
<event>
 6    0  0.3522959E+002  0.7511102E+02  0.7546771E-02  0.1343528E+00
         21   -1    0    0  505  502  0.00000000000E+00  0.00000000000E+00  0.13279997922E+03  0.13279997922E+03  0.00000000000E+00 0.  1.
          2   -1    0    0  502    0 -0.00000000000E+00 -0.00000000000E+00 -0.25576083468E+04  0.25576083468E+04  0.00000000000E+00 0. -1.
         21    1    1    2  503  501  0.20218688520E+02  0.77431039811E+02 -0.18233221944E+03  0.19912156974E+03  0.00000000000E+00 0. -1.
         21    1    1    2  504  503  0.62512332305E+02  0.24921771964E+02  0.74429083810E+02  0.10034228882E+03  0.00000000000E+00 0.  1.
         21    1    1    2  505  504 -0.22673836932E+02 -0.55946520112E+02  0.11373849528E+02  0.61428661446E+02  0.00000000000E+00 0.  1.
          2    1    1    2  501    0 -0.60057183893E+02 -0.46406291663E+02 -0.23282790815E+04  0.23295158061E+04  0.00000000000E+00 0. -1.
<scales pt_clust_3="75.11102" pt_clust_4="49.25277" pt_clust_5="60.36651" pt_clust_6="14000.00000"></scales>
<clustering>
<clus scale="   60.367">  1  5  2 -1</clus>
<clus scale="   49.253">  1  4  2 -1</clus>
<clus scale="   75.111">  1  3  2 -1</clus>
<clus scale="   60.367">  1  3  2 -1</clus>
</clustering>
</event>
<event>
 6    0  0.3522959E+002  0.9460884E+02  0.7546771E-02  0.1292060E+00
         -1   -1    0    0    0  501 -0.00000000000E+00  0.00000000000E+00  0.27183957434E+03  0.27183957434E+03  0.00000000000E+00 0.  1.
         21   -1    0    0  504  502  0.00000000000E+00 -0.00000000000E+00 -0.21910954118E+03  0.21910954118E+03  0.00000000000E+00 0.  1.
         21    1    1    2  503  505 -0.32941888042E+02  0.11693626462E+03 -0.74335431820E+02  0.14242546962E+03  0.00000000000E+00 0.  1.
         21    1    1    2  504  501  0.74647968227E+01 -0.52460336877E+02  0.12159281152E+03  0.13263718163E+03  0.00000000000E+00 0. -1.
         21    1    1    2  505  502 -0.49054516166E+02 -0.77029866997E+02 -0.65359194523E+02  0.11230213833E+03  0.00000000000E+00 0.  1.
         -1    1    1    2    0  503  0.74531607386E+02  0.12553939250E+02  0.70831847983E+02  0.10358432593E+03  0.00000000000E+00 0.  1.
<scales pt_clust_3="14000.00000" pt_clust_4="52.98877" pt_clust_5="94.60884" pt_clust_6="81.29509"></scales>
<clustering>
<clus scale="   52.989">  1  4  2 -1</clus>
<clus scale="   81.295">  1  6  2 -1</clus>
<clus scale="   94.609">  2  5  1 -1</clus>
<clus scale="   94.609">  2  3  1 -1</clus>
</clustering>
</event>
<event>
 6    0  0.3522959E+002  0.1119979E+03  0.7546771E-02  0.1256914E+00
          2   -1    0    0  505    0 -0.00000000000E+00  0.00000000000E+00  0.22336079709E+04  0.22336079709E+04  0.00000000000E+00 0.  1.
         21   -1    0    0  503  502  0.00000000000E+00 -0.00000000000E+00 -0.50105865168E+02  0.50105865168E+02  0.00000000000E+00 0.  1.
         21    1    1    2  503  504  0.18228850927E+02  0.38817562287E+02 -0.93897280223E+01  0.43900582461E+02  0.00000000000E+00 0.  1.
         21    1    1    2  504  501  0.11532463259E+01  0.66147912782E+02  0.40158585363E+02  0.77392430643E+02  0.00000000000E+00 0.  1.
         21    1    1    2  505  502  0.43004622728E+02 -0.73604116679E+02  0.43529093383E+03  0.44355964722E+03  0.00000000000E+00 0. -1.
          2    1    1    2  501    0 -0.62386719981E+02 -0.31361358389E+02  0.17174423146E+04  0.17188611757E+04  0.00000000000E+00 0.  1.
<scales pt_clust_3="39.21065" pt_clust_4="39.21065" pt_clust_5="100.85468" pt_clust_6="69.82577"></scales>
<clustering>
<clus scale="   39.211">  3  4 -1 -1</clus>
<clus scale="   69.826">  1  6  2 -1</clus>
<clus scale="  100.855">  1  5  2 -1</clus>
<clus scale="  111.998">  2  3  1 -1</clus>
</clustering>
</event>
<event>
 6    0  0.3522959E+002  0.1189421E+03  0.7546771E-02  0.1244853E+00
         21   -1    0    0  505  502  0.00000000000E+00  0.00000000000E+00  0.42665624742E+03  0.42665624742E+03  0.00000000000E+00 0.  1.
         -4   -1    0    0    0  501 -0.00000000000E+00 -0.00000000000E+00 -0.95596868652E+03  0.95596868652E+03  0.00000000000E+00 0.  1.
         21    1    1    2  503  504 -0.70154178278E+02 -0.99853063688E+02 -0.21353375962E+03  0.24594493195E+03  0.00000000000E+00 0.  1.
         21    1    1    2  504  502  0.20954398781E+02 -0.50404539743E+02  0.37131412963E+03  0.37530505901E+03  0.00000000000E+00 0.  1.
         21    1    1    2  505  501  0.32805586338E+02  0.30087001331E+02  0.16449243249E+02  0.47455365846E+02  0.00000000000E+00 0.  1.
         -4    1    1    2    0  503  0.16394193159E+02  0.12017060210E+03 -0.70354205236E+03  0.71391957713E+03  0.00000000000E+00 0.  1.
<scales pt_clust_3="14000.00000" pt_clust_4="56.42551" pt_clust_5="44.51330" pt_clust_6="118.94211"></scales>
<clustering>
<clus scale="   44.513">  1  5  2 -1</clus>
<clus scale="   56.426">  1  4  2 -1</clus>
<clus scale="  118.942">  2  6  1 -1</clus>
<clus scale="   44.513">  1  3  2 -1</clus>
</clustering>
</event>
<event>
 6    0  0.3522959E+002  0.1131862E+03  0.7546771E-02  0.1254781E+00
          1   -1    0    0  503    0 -0.00000000000E+00  0.00000000000E+00  0.78053614360E+03  0.78053614360E+03  0.00000000000E+00 0. -1.
         21   -1    0    0  504  502  0.00000000000E+00 -0.00000000000E+00 -0.32345074627E+03  0.32345074627E+03  0.00000000000E+00 0. -1.
         21    1    1    2  503  502 -0.65770725739E+02 -0.13885063672E+03 -0.20030279549E+03  0.25244107741E+03  0.00000000000E+00 0. -1.
         21    1    1    2  504  505  0.25371144456E+02  0.31505841508E+02 -0.80011133623E+02  0.89655421051E+02  0.00000000000E+00 0. -1.
         21    1    1    2  505  501 -0.32048669351E+02  0.88375274532E+02  0.22207475417E+03  0.24115244721E+03  0.00000000000E+00 0. -1.
          1    1    1    2  501    0  0.72448250633E+02  0.18969520678E+02  0.51532457228E+03  0.52073794420E+03  0.00000000000E+00 0. -1.
<scales pt_clust_3="113.18616" pt_clust_4="40.45137" pt_clust_5="14000.00000" pt_clust_6="75.25995"></scales>
<clustering>
<clus scale="   40.451">  2  4  1 -1</clus>
<clus scale="   75.260">  1  6  2 -1</clus>
<clus scale="  113.186">  2  3  1 -1</clus>
<clus scale="   40.451">  2  3  1 -1</clus>
</clustering>
</event>
<event>
 6    0  0.3522959E+002  0.2256925E+03  0.7546771E-02  0.1129709E+00
          2   -1    0    0  505    0 -0.00000000000E+00  0.00000000000E+00  0.45030859601E+03  0.45030859601E+03  0.00000000000E+00 0.  1.
         21   -1    0    0  503  502  0.00000000000E+00 -0.00000000000E+00 -0.13872382164E+03  0.13872382164E+03  0.00000000000E+00 0.  1.
         21    1    1    2  503  504 -0.85726835052E+02  0.34135904514E+02  0.23627607388E+02  0.95250270635E+02  0.00000000000E+00 0.  1.
         21    1    1    2  504  501 -0.12247562736E+03  0.17890331422E+02  0.62637333780E+02  0.13872194794E+03  0.00000000000E+00 0.  1.
         21    1    1    2  505  502  0.22018685113E+03 -0.86016042753E+02  0.17980051203E+03  0.29700039250E+03  0.00000000000E+00 0.  1.
          2    1    1    2  501    0 -0.11984388712E+02  0.33989806816E+02  0.45519321173E+02  0.58059806581E+02  0.00000000000E+00 0.  1.
<scales pt_clust_3="30.48199" pt_clust_4="30.48199" pt_clust_5="222.91417" pt_clust_6="36.04071"></scales>
<clustering>
<clus scale="   30.482">  3  4 -1 -1</clus>
<clus scale="   36.041">  1  6  2 -1</clus>
<clus scale="  222.914">  1  5  2 -1</clus>
<clus scale="  225.692">  2  3  1 -1</clus>
</clustering>
</event>
<event>
 6    0  0.3522959E+002  0.8352911E+02  0.7546771E-02  0.1319324E+00
          2   -1    0    0  503    0 -0.00000000000E+00  0.00000000000E+00  0.19122182297E+04  0.19122182297E+04  0.00000000000E+00 0.  1.
         21   -1    0    0  504  502  0.00000000000E+00 -0.00000000000E+00 -0.73323900414E+03  0.73323900414E+03  0.00000000000E+00 0. -1.
         21    1    1    2  503  505 -0.98365934125E+02  0.10719079182E+03  0.19986434711E+03  0.24720736253E+03  0.00000000000E+00 0.  1.
         21    1    1    2  504  501  0.23741229507E+02 -0.20890724927E+02 -0.64826238376E+02  0.72128423998E+02  0.00000000000E+00 0.  1.
         21    1    1    2  505  502  0.32361806867E+02 -0.40093120643E+02 -0.63947184535E+03  0.64154421973E+03  0.00000000000E+00 0. -1.
          2    1    1    2  501    0  0.42262897751E+02 -0.46206946252E+02  0.16834129622E+04  0.16845772276E+04  0.00000000000E+00 0.  1.
<scales pt_clust_3="14000.00000" pt_clust_4="31.62386" pt_clust_5="83.52911" pt_clust_6="62.64729"></scales>
<clustering>
<clus scale="   31.624">  2  4  1 -1</clus>
<clus scale="   62.647">  1  6  2 -1</clus>
<clus scale="   83.529">  2  5  1 -1</clus>
<clus scale="   31.624">  2  3  1 -1</clus>
</clustering>
</event>
<event>
 6    0  0.3522959E+002  0.1749482E+03  0.7546771E-02  0.1172784E+00
         21   -1    0    0  505  502  0.00000000000E+00  0.00000000000E+00  0.14847396399E+03  0.14847396399E+03  0.00000000000E+00 0.  1.
          2   -1    0    0  503    0 -0.00000000000E+00 -0.00000000000E+00 -0.79096575349E+03  0.79096575349E+03  0.00000000000E+00 0.  1.
         21    1    1    2  503  504 -0.29319888834E+02 -0.14414248914E+02 -0.23796670700E+03  0.24019904266E+03  0.00000000000E+00 0.  1.
         21    1    1    2  504  502 -0.25709550062E+02  0.81023800517E+02 -0.91690927047E+02  0.12503224911E+03  0.00000000000E+00 0. -1.
         21    1    1    2  505  501  0.94026075561E+02 -0.16373337579E+03  0.51034999307E+02  0.19558653427E+03  0.00000000000E+00 0.  1.
          2    1    1    2  501    0 -0.38996636665E+02  0.97123824184E+02 -0.36386915476E+03  0.37862189145E+03  0.00000000000E+00 0.  1.
<scales pt_clust_3="32.67149" pt_clust_4="84.28745" pt_clust_5="174.94819" pt_clust_6="14000.00000"></scales>
<clustering>
<clus scale="   32.671">  2  3  1 -1</clus>
<clus scale="   84.287">  2  4  1 -1</clus>
<clus scale="  174.948">  1  5  2 -1</clus>
<clus scale="  174.948">  1  3  2 -1</clus>
</clustering>
</event>
<event>
 6    0  0.3522959E+002  0.2031404E+03  0.7546771E-02  0.1147116E+00
          2   -1    0    0  503    0 -0.00000000000E+00  0.00000000000E+00  0.76351923379E+03  0.76351923379E+03  0.00000000000E+00 0. -1.
         21   -1    0    0  505  502  0.00000000000E+00 -0.00000000000E+00 -0.29935608198E+03  0.29935608198E+03  0.00000000000E+00 0. -1.
         21    1    1    2  503  502 -0.20244637890E+03  0.13718637901E+03 -0.81305624282E+02  0.25771155088E+03  0.00000000000E+00 0. -1.
         21    1    1    2  504  501  0.64559406145E+02 -0.78091340393E+01 -0.30290255315E+02  0.71738407170E+02  0.00000000000E+00 0. -1.
         21    1    1    2  505  504  0.48869875556E+02 -0.92931959680E+02 -0.38384796746E+02  0.11179448326E+03  0.00000000000E+00 0. -1.
          2    1    1    2  501    0  0.89017097203E+02 -0.36445285287E+02  0.61414382816E+03  0.62163087446E+03  0.00000000000E+00 0. -1.
<scales pt_clust_3="187.91735" pt_clust_4="60.72076" pt_clust_5="60.72076" pt_clust_6="96.18889"></scales>
<clustering>
<clus scale="   60.721">  4  5 -1 -1</clus>
<clus scale="   96.189">  1  6  2 -1</clus>
<clus scale="  187.917">  1  3  2 -1</clus>
<clus scale="  203.140">  2  3  1 -1</clus>
</clustering>
</event>
<event>
 6    0  0.3522959E+002  0.1126233E+03  0.7546771E-02  0.1255788E+00
          2   -1    0    0  503    0 -0.00000000000E+00  0.00000000000E+00  0.36283520604E+04  0.36283520604E+04  0.00000000000E+00 0.  1.
         21   -1    0    0  505  502  0.00000000000E+00 -0.00000000000E+00 -0.24543341147E+03  0.24543341147E+03  0.00000000000E+00 0.  1.
         21    1    1    2  503  502 -0.12908600062E+02  0.39286744149E+02 -0.22067969432E+03  0.22452084025E+03  0.00000000000E+00 0.  1.
         21    1    1    2  504  501  0.68142858711E+01  0.97896949953E+02  0.45986077659E+03  0.47021503713E+03  0.00000000000E+00 0. -1.
         21    1    1    2  505  504 -0.20921474711E+02 -0.23925747638E+02 -0.13461200441E+01  0.31811342997E+02  0.00000000000E+00 0.  1.
          2    1    1    2  501    0  0.27015788902E+02 -0.11325794646E+03  0.31450836867E+04  0.31472382515E+04  0.00000000000E+00 0.  1.
<scales pt_clust_3="36.91329" pt_clust_4="112.62328" pt_clust_5="31.78285" pt_clust_6="14000.00000"></scales>
<clustering>
<clus scale="   31.783">  2  5  1 -1</clus>
<clus scale="   36.913">  2  3  1 -1</clus>
<clus scale="  112.623">  2  4  1 -1</clus>
<clus scale="   31.783">  2  3  1 -1</clus>
</clustering>
</event>
<event>
 6    0  0.3522959E+002  0.1047239E+03  0.7546771E-02  0.1270665E+00
          2   -1    0    0  503    0 -0.00000000000E+00  0.00000000000E+00  0.16150100727E+04  0.16150100727E+04  0.00000000000E+00 0.  1.
         21   -1    0    0  505  502  0.00000000000E+00 -0.00000000000E+00 -0.84524583140E+03  0.84524583140E+03  0.00000000000E+00 0.  1.
         21    1    1    2  503  504 -0.88933785036E+02  0.12928087579E+03  0.90048228868E+03  0.91405203090E+03  0.00000000000E+00 0.  1.
         21    1    1    2  504  502  0.70423485774E+02 -0.11906384728E+03 -0.77980414658E+03  0.79197864498E+03  0.00000000000E+00 0.  1.
         21    1    1    2  505  501 -0.24218149073E+02  0.26086195286E+02 -0.45281814986E+02  0.57597318491E+02  0.00000000000E+00 0.  1.
          2    1    1    2  501    0  0.42728448335E+02 -0.36303223800E+02  0.69436791417E+03  0.69662790971E+03  0.00000000000E+00 0.  1.
<scales pt_clust_3="14000.00000" pt_clust_4="104.72389" pt_clust_5="35.59506" pt_clust_6="56.01790"></scales>
<clustering>
<clus scale="   35.595">  2  5  1 -1</clus>
<clus scale="   56.018">  1  6  2 -1</clus>
<clus scale="  104.724">  2  4  1 -1</clus>
<clus scale="   35.595">  2  3  1 -1</clus>
</clustering>
</event>
<event>
 6    0  0.3522959E+002  0.1040261E+03  0.7546771E-02  0.1272050E+00
          2   -1    0    0  503    0 -0.00000000000E+00  0.00000000000E+00  0.24413779499E+04  0.24413779499E+04  0.00000000000E+00 0.  1.
         21   -1    0    0  504  502  0.00000000000E+00 -0.00000000000E+00 -0.42915539066E+03  0.42915539066E+03  0.00000000000E+00 0. -1.
         21    1    1    2  503  502  0.23472913475E+02  0.26022084003E+02 -0.79939042378E+02  0.87283314667E+02  0.00000000000E+00 0.  1.
         21    1    1    2  504  505  0.56456843548E+02 -0.78095354503E+00 -0.29413044011E+03  0.29950075270E+03  0.00000000000E+00 0. -1.
         21    1    1    2  505  501 -0.74567485833E+02 -0.12861109450E+03  0.68568418173E+02  0.16371545908E+03  0.00000000000E+00 0.  1.
          2    1    1    2  501    0 -0.53622711906E+01  0.10336996404E+03  0.23177236235E+04  0.23200338141E+04  0.00000000000E+00 0.  1.
<scales pt_clust_3="35.04464" pt_clust_4="79.59833" pt_clust_5="104.02611" pt_clust_6="14000.00000"></scales>
<clustering>
<clus scale="   35.045">  2  3  1 -1</clus>
<clus scale="   79.598">  2  4  1 -1</clus>
<clus scale="  104.026">  2  5  1 -1</clus>
<clus scale="   35.045">  2  3  1 -1</clus>
</clustering>
</event>
<event>
 6    0  0.3522959E+002  0.1078751E+03  0.7546771E-02  0.1264556E+00
         21   -1    0    0  504  502  0.00000000000E+00  0.00000000000E+00  0.22360393909E+03  0.22360393909E+03  0.00000000000E+00 0. -1.
          2   -1    0    0  503    0 -0.00000000000E+00 -0.00000000000E+00 -0.14784872903E+03  0.14784872903E+03  0.00000000000E+00 0.  1.
         21    1    1    2  503  502  0.10805403981E+02  0.30620483843E+02 -0.21244591494E+02  0.38803394873E+02  0.00000000000E+00 0. -1.
         21    1    1    2  504  505 -0.57501652212E+02  0.12300972915E+02  0.67786004700E+02  0.89736817277E+02  0.00000000000E+00 0. -1.
         21    1    1    2  505  501  0.43138331420E+02  0.89319680337E+02  0.46407825280E+02  0.10951076285E+03  0.00000000000E+00 0. -1.
          2    1    1    2  501    0  0.35579168121E+01 -0.13224113709E+03 -0.17194028427E+02  0.13340169311E+03  0.00000000000E+00 0.  1.
<scales pt_clust_3="32.47108" pt_clust_4="58.49206" pt_clust_5="107.87514" pt_clust_6="14000.00000"></scales>
<clustering>
<clus scale="   32.471">  2  3  1 -1</clus>
<clus scale="   58.492">  1  4  2 -1</clus>
<clus scale="  107.875">  1  5  2 -1</clus>
<clus scale="   58.492">  1  3  2 -1</clus>
</clustering>
</event>
<event>
 6    0  0.3522959E+002  0.8920567E+02  0.7546771E-02  0.1304787E+00
         21   -1    0    0  503  502  0.00000000000E+00  0.00000000000E+00  0.15603413953E+03  0.15603413953E+03  0.00000000000E+00 0.  1.
          2   -1    0    0  505    0 -0.00000000000E+00 -0.00000000000E+00 -0.67227963055E+03  0.67227963055E+03  0.00000000000E+00 0.  1.
         21    1    1    2  503  504  0.87656712916E+02 -0.23925526240E+01  0.10952910689E+03  0.14030698088E+03  0.00000000000E+00 0.  1.
         21    1    1    2  504  501 -0.11265919614E+03  0.33267791451E+00 -0.22437276772E+03  0.25106840511E+03  0.00000000000E+00 0. -1.
         21    1    1    2  505  502  0.20855170522E+02 -0.40349427623E+02 -0.14473425950E+02  0.47670688119E+02  0.00000000000E+00 0.  1.
          2    1    1    2  501    0  0.41473127013E+01  0.42409302333E+02 -0.38692840424E+03  0.38926769598E+03  0.00000000000E+00 0.  1.
<scales pt_clust_3="89.20567" pt_clust_4="14000.00000" pt_clust_5="41.58650" pt_clust_6="42.61161"></scales>
<clustering>
<clus scale="   42.612">  2  6  1 -1</clus>
<clus scale="   41.586">  2  5  1 -1</clus>
<clus scale="   89.206">  1  3  2 -1</clus>
<clus scale="   89.206">  1  3  2 -1</clus>
</clustering>
</event>
<event>
 6    0  0.3522959E+002  0.1405743E+03  0.7546771E-02  0.1212558E+00
         21   -1    0    0  504  502  0.00000000000E+00  0.00000000000E+00  0.35573885316E+03  0.35573885316E+03  0.00000000000E+00 0.  1.
         -1   -1    0    0    0  501 -0.00000000000E+00 -0.00000000000E+00 -0.45590281481E+03  0.45590281481E+03  0.00000000000E+00 0.  1.
         21    1    1    2  503  502  0.31681504197E+02  0.80584877928E+01  0.43269623793E+02  0.54230224754E+02  0.00000000000E+00 0.  1.
         21    1    1    2  504  501  0.33862721170E+02  0.25437484261E+01  0.21154902405E+03  0.21425719152E+03  0.00000000000E+00 0.  1.
         21    1    1    2  505  503 -0.16961247744E+03 -0.92452720310E+02 -0.34273385668E+02  0.19619011943E+03  0.00000000000E+00 0.  1.
         -1    1    1    2    0  505  0.10406825207E+03  0.81850484091E+02 -0.32070922382E+03  0.34696413227E+03  0.00000000000E+00 0.  1.
<scales pt_clust_3="32.69032" pt_clust_4="56.42365" pt_clust_5="14000.00000" pt_clust_6="140.57427"></scales>
<clustering>
<clus scale="   32.690">  1  3  2 -1</clus>
<clus scale="   56.424">  1  4  2 -1</clus>
<clus scale="  140.574">  2  6  1 -1</clus>
<clus scale="   32.690">  1  3  2 -1</clus>
</clustering>
</event>
<event>
 6    0  0.3522959E+002  0.2054196E+03  0.7546771E-02  0.1145245E+00
          2   -1    0    0  503    0 -0.00000000000E+00  0.00000000000E+00  0.88359056012E+03  0.88359056012E+03  0.00000000000E+00 0.  1.
         21   -1    0    0  505  502  0.00000000000E+00 -0.00000000000E+00 -0.72650147841E+03  0.72650147841E+03  0.00000000000E+00 0.  1.
         21    1    1    2  503  504 -0.11578214033E+03 -0.55713786511E+02 -0.34814927570E+03  0.37110301561E+03  0.00000000000E+00 0.  1.
         21    1    1    2  504  502 -0.12760112555E+02 -0.68462583201E+02 -0.22372874724E+03  0.23431708882E+03  0.00000000000E+00 0.  1.
         21    1    1    2  505  501  0.17153621521E+03  0.15097678775E+03 -0.41745605351E+02  0.23229584399E+03  0.00000000000E+00 0.  1.
          2    1    1    2  501    0 -0.42993962331E+02 -0.26800418033E+02  0.77071271000E+03  0.77237609010E+03  0.00000000000E+00 0.  1.
<scales pt_clust_3="63.44023" pt_clust_4="63.44023" pt_clust_5="186.14798" pt_clust_6="50.66304"></scales>
<clustering>
<clus scale="   50.663">  1  6  2 -1</clus>
<clus scale="   63.440">  3  4 -1 -1</clus>
<clus scale="  186.148">  1  5  2 -1</clus>
<clus scale="  205.420">  2  3  1 -1</clus>
</clustering>
</event>
<event>
 6    0  0.3522959E+002  0.9974326E+02  0.7546771E-02  0.1280837E+00
          2   -1    0    0  504    0 -0.00000000000E+00  0.00000000000E+00  0.21471916445E+04  0.21471916445E+04  0.00000000000E+00 0.  1.
         21   -1    0    0  505  502  0.00000000000E+00 -0.00000000000E+00 -0.19254760768E+03  0.19254760768E+03  0.00000000000E+00 0.  1.
         21    1    1    2  503  502 -0.71859107284E+02 -0.91995105736E+02 -0.94212848708E+02  0.15000963849E+03  0.00000000000E+00 0.  1.
         21    1    1    2  504  503 -0.25966150486E+02  0.10561013521E+03 -0.10844235538E+02  0.10929473489E+03  0.00000000000E+00 0.  1.
         21    1    1    2  505  501  0.38706248890E+02  0.11590329851E+01  0.27918014713E+02  0.47738167185E+02  0.00000000000E+00 0. -1.
          2    1    1    2  501    0  0.59119008880E+02 -0.14774062457E+02  0.20317831064E+04  0.20326967116E+04  0.00000000000E+00 0.  1.
<scales pt_clust_3="99.74326" pt_clust_4="14000.00000" pt_clust_5="38.72360" pt_clust_6="61.03032"></scales>
<clustering>
<clus scale="   38.724">  2  5  1 -1</clus>
<clus scale="   61.030">  1  6  2 -1</clus>
<clus scale="   99.743">  2  3  1 -1</clus>
<clus scale="   38.724">  2  3  1 -1</clus>
</clustering>
</event>
<event>
 6    0  0.3522959E+002  0.9221717E+02  0.7546771E-02  0.1297570E+00
         21   -1    0    0  505  502  0.00000000000E+00  0.00000000000E+00  0.48418060954E+03  0.48418060954E+03  0.00000000000E+00 0.  1.
         -2   -1    0    0    0  501 -0.00000000000E+00 -0.00000000000E+00 -0.58930870211E+03  0.58930870211E+03  0.00000000000E+00 0. -1.
         21    1    1    2  503  502  0.63830433123E+02  0.37032002608E+02  0.25365346687E+02  0.78032648438E+02  0.00000000000E+00 0. -1.
         21    1    1    2  504  501 -0.58382780662E+02  0.52239291949E+01  0.21735578627E+03  0.22512080388E+03  0.00000000000E+00 0.  1.
         21    1    1    2  505  504 -0.41587428328E+02  0.35395177872E+02  0.20435639252E+03  0.21152746388E+03  0.00000000000E+00 0.  1.
         -2    1    1    2    0  503  0.36139775867E+02 -0.77651109675E+02 -0.55220561805E+03  0.55880839546E+03  0.00000000000E+00 0. -1.
<scales pt_clust_3="73.79494" pt_clust_4="33.10885" pt_clust_5="33.10885" pt_clust_6="85.60031"></scales>
<clustering>
<clus scale="   33.109">  4  5 -1 -1</clus>
<clus scale="   73.795">  1  3  2 -1</clus>
<clus scale="   85.600">  2  6  1 -1</clus>
<clus scale="   73.795">  1  3  2 -1</clus>
</clustering>
</event>
<event>
 6    0  0.3522959E+002  0.1146070E+03  0.7546771E-02  0.1252269E+00
         21   -1    0    0  501  502  0.00000000000E+00  0.00000000000E+00  0.19225183020E+03  0.19225183020E+03  0.00000000000E+00 0. -1.
         -2   -1    0    0    0  501 -0.00000000000E+00 -0.00000000000E+00 -0.61224411104E+03  0.61224411104E+03  0.00000000000E+00 0. -1.
         21    1    1    2  503  502 -0.34087987311E+02  0.37161282930E+02  0.10643585243E+03  0.11777751275E+03  0.00000000000E+00 0. -1.
         21    1    1    2  504  503 -0.39881836026E+02  0.41571660889E+02  0.53117659164E+02  0.78359744442E+02  0.00000000000E+00 0. -1.
         21    1    1    2  505  504  0.53716909533E+02 -0.10994969416E+03 -0.26820719690E+03  0.29480424367E+03  0.00000000000E+00 0. -1.
         -2    1    1    2    0  505  0.20252913804E+02  0.31216750345E+02 -0.31133859553E+03  0.31355444039E+03  0.00000000000E+00 0. -1.
<scales pt_clust_3="34.27529" pt_clust_4="34.27529" pt_clust_5="108.59408" pt_clust_6="37.21110"></scales>
<clustering>
<clus scale="   34.275">  3  4 -1 -1</clus>
<clus scale="   37.211">  2  6  1 -1</clus>
<clus scale="  108.594">  2  5  1 -1</clus>
<clus scale="  114.607">  1  3  2 -1</clus>
</clustering>
</event>
<event>
 6    0  0.3522959E+002  0.1112144E+03  0.7546771E-02  0.1258337E+00
         21   -1    0    0  503  502  0.00000000000E+00  0.00000000000E+00  0.25694543009E+02  0.25694543009E+02  0.00000000000E+00 0.  1.
          2   -1    0    0  505    0 -0.00000000000E+00 -0.00000000000E+00 -0.19993569235E+04  0.19993569235E+04  0.00000000000E+00 0. -1.
         21    1    1    2  503  501 -0.54173720117E+01 -0.89360660880E+02 -0.52435684317E+03  0.53194433413E+03  0.00000000000E+00 0. -1.
         21    1    1    2  504  502  0.49618625200E+02  0.13514002646E+02 -0.77904262171E+02  0.93347256514E+02  0.00000000000E+00 0.  1.
         21    1    1    2  505  504  0.29230704764E+02  0.60552312983E+02 -0.73203641004E+02  0.99397131573E+02  0.00000000000E+00 0.  1.
          2    1    1    2  501    0 -0.73431957952E+02  0.15294345251E+02 -0.12981976341E+04  0.13003627443E+04  0.00000000000E+00 0. -1.
<scales pt_clust_3="98.76676" pt_clust_4="44.71114" pt_clust_5="44.71114" pt_clust_6="75.00780"></scales>
<clustering>
<clus scale="   44.711">  4  5 -1 -1</clus>
<clus scale="   75.008">  2  6  1 -1</clus>
<clus scale="   98.767">  2  3  1 -1</clus>
<clus scale="  111.214">  1  3  2 -1</clus>
</clustering>
</event>
<event>
 6    0  0.3522959E+002  0.1052165E+03  0.7546771E-02  0.1269694E+00
          2   -1    0    0  503    0 -0.00000000000E+00  0.00000000000E+00  0.32190089347E+04  0.32190089347E+04  0.00000000000E+00 0.  1.
         21   -1    0    0  504  502  0.00000000000E+00 -0.00000000000E+00 -0.39135739731E+02  0.39135739731E+02  0.00000000000E+00 0.  1.
         21    1    1    2  503  502  0.65772713990E+02 -0.52541835995E+02  0.16811195363E+03  0.18801149802E+03  0.00000000000E+00 0.  1.
         21    1    1    2  504  505 -0.47852728888E+02  0.18753218343E+02  0.25452810148E+02  0.57353399243E+02  0.00000000000E+00 0.  1.
         21    1    1    2  505  501 -0.62282003243E+02 -0.19257138564E+02  0.70012753439E+02  0.95664366186E+02  0.00000000000E+00 0.  1.
          2    1    1    2  501    0  0.44362018142E+02  0.53045756216E+02  0.29162956778E+04  0.29171154110E+04  0.00000000000E+00 0.  1.
<scales pt_clust_3="94.33804" pt_clust_4="41.37004" pt_clust_5="41.37004" pt_clust_6="69.15086"></scales>
<clustering>
<clus scale="   41.370">  4  5 -1 -1</clus>
<clus scale="   69.151">  1  6  2 -1</clus>
<clus scale="   94.338">  1  3  2 -1</clus>
<clus scale="  105.217">  2  3  1 -1</clus>
</clustering>
</event>
<event>
 6    0  0.3522959E+002  0.1277059E+03  0.7546771E-02  0.1230900E+00
         -3   -1    0    0    0  501 -0.00000000000E+00  0.00000000000E+00  0.55912652338E+03  0.55912652338E+03  0.00000000000E+00 0. -1.
         21   -1    0    0  505  502  0.00000000000E+00 -0.00000000000E+00 -0.83498811472E+03  0.83498811472E+03  0.00000000000E+00 0.  1.
         21    1    1    2  503  502  0.22776671859E+02 -0.17156538249E+03  0.17012591936E+02  0.17390481745E+03  0.00000000000E+00 0.  1.
         21    1    1    2  504  501  0.74028217285E+01  0.41961515775E+02 -0.15236954560E+03  0.15821519839E+03  0.00000000000E+00 0.  1.
         21    1    1    2  505  504  0.27851362428E+02  0.69153658895E+02 -0.59509446747E+03  0.59974607305E+03  0.00000000000E+00 0.  1.
         -3    1    1    2    0  503 -0.58030856015E+02  0.60450207819E+02  0.45458982980E+03  0.46224854919E+03  0.00000000000E+00 0. -1.
<scales pt_clust_3="118.72408" pt_clust_4="35.56763" pt_clust_5="35.56763" pt_clust_6="83.79623"></scales>
<clustering>
<clus scale="   35.568">  4  5 -1 -1</clus>
<clus scale="   83.796">  1  6  2 -1</clus>
<clus scale="  118.724">  1  3  2 -1</clus>
<clus scale="  127.706">  2  3  1 -1</clus>
</clustering>
</event>
<event>
 6    0  0.3522959E+002  0.1261485E+03  0.7546771E-02  0.1233285E+00
         21   -1    0    0  504  502  0.00000000000E+00  0.00000000000E+00  0.30592313893E+03  0.30592313893E+03  0.00000000000E+00 0. -1.
          2   -1    0    0  505    0 -0.00000000000E+00 -0.00000000000E+00 -0.19976994127E+04  0.19976994127E+04  0.00000000000E+00 0. -1.
         21    1    1    2  503  502 -0.20639815515E+02  0.25692834018E+02  0.33153425133E+02  0.46746906876E+02  0.00000000000E+00 0. -1.
         21    1    1    2  504  501  0.20297878561E+02  0.45754477741E+02 -0.11379057775E+02  0.51331852327E+02  0.00000000000E+00 0. -1.
         21    1    1    2  505  503  0.11614510717E+03 -0.20827138482E+02  0.22967469160E+03  0.25821293457E+03  0.00000000000E+00 0. -1.
          2    1    1    2  501    0 -0.11580317021E+03 -0.50620173278E+02 -0.19432253327E+04  0.19473308578E+04  0.00000000000E+00 0. -1.
<scales pt_clust_3="32.95639" pt_clust_4="51.23727" pt_clust_5="14000.00000" pt_clust_6="126.14845"></scales>
<clustering>
<clus scale="   32.956">  1  3  2 -1</clus>
<clus scale="   51.237">  1  4  2 -1</clus>
<clus scale="  126.148">  2  6  1 -1</clus>
<clus scale="   32.956">  1  3  2 -1</clus>
</clustering>
</event>
<event>
 6    0  0.3522959E+002  0.1502356E+03  0.7546771E-02  0.1200184E+00
          2   -1    0    0  504    0 -0.00000000000E+00  0.00000000000E+00  0.85550218038E+03  0.85550218038E+03  0.00000000000E+00 0. -1.
         21   -1    0    0  501  502  0.00000000000E+00 -0.00000000000E+00 -0.30117276475E+03  0.30117276475E+03  0.00000000000E+00 0.  1.
         21    1    1    2  503  502  0.61772436333E+02 -0.34655818296E+02 -0.13526287913E+03  0.15268564472E+03  0.00000000000E+00 0. -1.
         21    1    1    2  504  505 -0.13651675845E+03  0.97513159808E+00  0.57259538137E+01  0.13664026773E+03  0.00000000000E+00 0.  1.
         21    1    1    2  505  503  0.76337352153E+02 -0.47659566529E-01 -0.75420964918E+02  0.10731130208E+03  0.00000000000E+00 0.  1.
          2    1    1    2  501    0 -0.15930300361E+01  0.33728346265E+02  0.75928730587E+03  0.76003773060E+03  0.00000000000E+00 0. -1.
<scales pt_clust_3="51.59567" pt_clust_4="140.13794" pt_clust_5="51.59567" pt_clust_6="33.76595"></scales>
<clustering>
<clus scale="   33.766">  1  6  2 -1</clus>
<clus scale="   51.596">  3  5 -1 -1</clus>
<clus scale="  140.138">  1  4  2 -1</clus>
<clus scale="  150.236">  2  3  1 -1</clus>
</clustering>
</event>
<event>
 6    0  0.3522959E+002  0.1394158E+03  0.7546771E-02  0.1214117E+00
         21   -1    0    0  505  502  0.00000000000E+00  0.00000000000E+00  0.61308107946E+03  0.61308107946E+03  0.00000000000E+00 0.  1.
          2   -1    0    0  503    0 -0.00000000000E+00 -0.00000000000E+00 -0.22209111728E+04  0.22209111728E+04  0.00000000000E+00 0. -1.
         21    1    1    2  503  504  0.30617246992E+02 -0.92454862188E+02 -0.68674788398E+02  0.11917023083E+03  0.00000000000E+00 0.  1.
         21    1    1    2  504  502  0.87377466350E+02 -0.11445307752E+03 -0.68039928684E+02  0.15926004042E+03  0.00000000000E+00 0.  1.
         21    1    1    2  505  501 -0.82186885972E+02  0.83234570694E+02  0.53382565709E+03  0.54649108881E+03  0.00000000000E+00 0.  1.
          2    1    1    2  501    0 -0.35807827370E+02  0.12367336901E+03 -0.20049410333E+04  0.20090708922E+04  0.00000000000E+00 0. -1.
<scales pt_clust_3="37.67746" pt_clust_4="37.67746" pt_clust_5="116.97298" pt_clust_6="131.67354"></scales>
<clustering>
<clus scale="   37.677">  3  4 -1 -1</clus>
<clus scale="  116.973">  1  5  2 -1</clus>
<clus scale="  131.674">  2  6  1 -1</clus>
<clus scale="  116.973">  1  3  2 -1</clus>
</clustering>
</event>
<event>
 6    0  0.3522959E+002  0.3505675E+03  0.7546771E-02  0.1062382E+00
         21   -1    0    0  503  502  0.00000000000E+00  0.00000000000E+00  0.28460418387E+03  0.28460418387E+03  0.00000000000E+00 0. -1.
          2   -1    0    0  502    0 -0.00000000000E+00 -0.00000000000E+00 -0.13495975793E+04  0.13495975793E+04  0.00000000000E+00 0. -1.
         21    1    1    2  503  505  0.49534821905E+02  0.12576867766E+02 -0.14918662812E+02  0.53239484259E+02  0.00000000000E+00 0.  1.
         21    1    1    2  504  501 -0.17255950107E+03  0.23789677429E+02 -0.77674042505E+03  0.79603292525E+03  0.00000000000E+00 0. -1.
         21    1    1    2  505  504  0.26677694196E+03 -0.12246434352E+03  0.14999374846E+03  0.32964462194E+03  0.00000000000E+00 0. -1.
          2    1    1    2  501    0 -0.14375226280E+03  0.86097798325E+02 -0.42332805603E+03  0.45528473174E+03  0.00000000000E+00 0. -1.
<scales pt_clust_3="51.10652" pt_clust_4="113.79864" pt_clust_5="330.74833" pt_clust_6="113.79864"></scales>
<clustering>
<clus scale="   51.107">  1  3  2 -1</clus>
<clus scale="  113.799">  4  6 -1 -1</clus>
<clus scale="  330.748">  1  5  2 -1</clus>
<clus scale="   51.107">  1  3  2 -1</clus>
</clustering>
</event>
<event>
 6    0  0.3522959E+002  0.7035253E+02  0.7546771E-02  0.1358898E+00
         21   -1    0    0  503  502  0.00000000000E+00  0.00000000000E+00  0.14970749198E+03  0.14970749198E+03  0.00000000000E+00 0.  1.
          2   -1    0    0  505    0 -0.00000000000E+00 -0.00000000000E+00 -0.18810653048E+04  0.18810653048E+04  0.00000000000E+00 0.  1.
         21    1    1    2  503  501 -0.21510884383E+02 -0.36052208268E+02  0.65217289286E+02  0.77561425269E+02  0.00000000000E+00 0.  1.
         21    1    1    2  504  502  0.34862669340E+02 -0.33648952814E+02  0.60402487094E+02  0.77434605869E+02  0.00000000000E+00 0.  1.
         21    1    1    2  505  504 -0.12506767937E+00  0.11454397100E+03 -0.35396154698E+03  0.37203375341E+03  0.00000000000E+00 0. -1.
          2    1    1    2  501    0 -0.13226717279E+02 -0.44842809921E+02 -0.15030160422E+04  0.15037430122E+04  0.00000000000E+00 0.  1.
<scales pt_clust_3="41.98190" pt_clust_4="70.35253" pt_clust_5="14000.00000" pt_clust_6="46.94155"></scales>
<clustering>
<clus scale="   41.982">  1  3  2 -1</clus>
<clus scale="   46.942">  2  6  1 -1</clus>
<clus scale="   70.353">  1  4  2 -1</clus>
<clus scale="   41.982">  1  3  2 -1</clus>
</clustering>
</event>
<event>
 6    0  0.3522959E+002  0.2454969E+03  0.7546771E-02  0.1116184E+00
         21   -1    0    0  503  502  0.00000000000E+00  0.00000000000E+00  0.14434244685E+04  0.14434244685E+04  0.00000000000E+00 0. -1.
         -3   -1    0    0    0  501 -0.00000000000E+00 -0.00000000000E+00 -0.17797624854E+04  0.17797624854E+04  0.00000000000E+00 0.  1.
         21    1    1    2  503  501  0.61485322191E+02  0.65660158599E+02  0.42762631355E+02  0.99600923251E+02  0.00000000000E+00 0. -1.
         21    1    1    2  504  505 -0.17185307705E+03 -0.34629641825E+03 -0.53303632819E+03  0.65846975371E+03  0.00000000000E+00 0. -1.
         21    1    1    2  505  502  0.13001182481E+03  0.84172356743E+02  0.12964490929E+04  0.13056677643E+04  0.00000000000E+00 0. -1.
         -3    1    1    2    0  504 -0.19644069960E+02  0.19646390291E+03 -0.11425134129E+04  0.11594485126E+04  0.00000000000E+00 0.  1.
<scales pt_clust_3="89.95388" pt_clust_4="14000.00000" pt_clust_5="245.49685" pt_clust_6="197.80939"></scales>
<clustering>
<clus scale="   89.954">  1  3  2 -1</clus>
<clus scale="  197.809">  2  6  1 -1</clus>
<clus scale="  245.497">  1  5  2 -1</clus>
<clus scale="   89.954">  1  3  2 -1</clus>
</clustering>
</event>
<event>
 6    0  0.3522959E+002  0.1500143E+03  0.7546771E-02  0.1200455E+00
          2   -1    0    0  503    0 -0.00000000000E+00  0.00000000000E+00  0.23781404105E+04  0.23781404105E+04  0.00000000000E+00 0.  1.
         21   -1    0    0  504  502  0.00000000000E+00 -0.00000000000E+00 -0.51320420980E+03  0.51320420980E+03  0.00000000000E+00 0.  1.
         21    1    1    2  503  502 -0.32398501254E+02  0.93815514035E+02 -0.48034040917E+03  0.49048743332E+03  0.00000000000E+00 0.  1.
         21    1    1    2  504  505 -0.25592474266E+02  0.44745734036E+02  0.68008730230E+01  0.51994300913E+02  0.00000000000E+00 0. -1.
         21    1    1    2  505  501  0.31394033084E+02 -0.16254237835E+03  0.14080749345E+04  0.14177731240E+04  0.00000000000E+00 0.  1.
          2    1    1    2  501    0  0.26596942436E+02  0.23981130283E+02  0.93040080231E+03  0.93108976199E+03  0.00000000000E+00 0.  1.
<scales pt_clust_3="150.01433" pt_clust_4="51.70709" pt_clust_5="14000.00000" pt_clust_6="35.81190"></scales>
<clustering>
<clus scale="   35.812">  1  6  2 -1</clus>
<clus scale="   51.707">  2  4  1 -1</clus>
<clus scale="  150.014">  2  3  1 -1</clus>
<clus scale="   51.707">  2  3  1 -1</clus>
</clustering>
</event>
<event>
 6    0  0.3522959E+002  0.7337579E+02  0.7546771E-02  0.1348976E+00
         21   -1    0    0  501  502  0.00000000000E+00  0.00000000000E+00  0.75743240813E+02  0.75743240813E+02  0.00000000000E+00 0.  1.
          2   -1    0    0  503    0 -0.00000000000E+00 -0.00000000000E+00 -0.99684345581E+03  0.99684345581E+03  0.00000000000E+00 0.  1.
         21    1    1    2  503  504 -0.59629824763E+02  0.35969313267E+02 -0.69862390810E+03  0.70208608623E+03  0.00000000000E+00 0.  1.
         21    1    1    2  504  505  0.26857368727E+02  0.73297031774E+02 -0.31869963278E+02  0.84317659367E+02  0.00000000000E+00 0.  1.
         21    1    1    2  505  502  0.41178173327E+02 -0.70947923852E+02  0.92142850644E+01  0.82547882509E+02  0.00000000000E+00 0.  1.
          2    1    1    2  501    0 -0.84057172905E+01 -0.38318421189E+02 -0.19982062867E+03  0.20363506852E+03  0.00000000000E+00 0.  1.
<scales pt_clust_3="67.07043" pt_clust_4="73.37579" pt_clust_5="14000.00000" pt_clust_6="39.22955"></scales>
<clustering>
<clus scale="   39.230">  2  6  1 -1</clus>
<clus scale="   67.070">  2  3  1 -1</clus>
<clus scale="   73.376">  2  4  1 -1</clus>
<clus scale="   73.376">  1  3  2 -1</clus>
</clustering>
</event>
<event>
 6    0  0.3522959E+002  0.1593510E+03  0.7546771E-02  0.1189431E+00
         21   -1    0    0  504  502  0.00000000000E+00  0.00000000000E+00  0.37026885595E+03  0.37026885595E+03  0.00000000000E+00 0. -1.
          2   -1    0    0  503    0 -0.00000000000E+00 -0.00000000000E+00 -0.14197492319E+04  0.14197492319E+04  0.00000000000E+00 0.  1.
         21    1    1    2  503  505  0.44146430064E+02  0.97606431770E+02  0.14127110117E+03  0.17729480206E+03  0.00000000000E+00 0. -1.
         21    1    1    2  504  501 -0.12845049729E+03 -0.18721992610E+03  0.43315554455E+02  0.23114296062E+03  0.00000000000E+00 0. -1.
         21    1    1    2  505  502 -0.16743461168E+02  0.32401250470E+02  0.66497301041E+02  0.75842439107E+02  0.00000000000E+00 0. -1.
          2    1    1    2  501    0  0.10104752840E+03  0.57212243860E+02 -0.13005643326E+04  0.13057378860E+04  0.00000000000E+00 0.  1.
<scales pt_clust_3="33.30393" pt_clust_4="148.77800" pt_clust_5="33.30393" pt_clust_6="116.11995"></scales>
<clustering>
<clus scale="   33.304">  3  5 -1 -1</clus>
<clus scale="  116.120">  2  6  1 -1</clus>
<clus scale="  148.778">  2  4  1 -1</clus>
<clus scale="  159.351">  1  3  2 -1</clus>
</clustering>
</event>
<event>
 6    0  0.3522959E+002  0.3602004E+03  0.7546771E-02  0.1058505E+00
         21   -1    0    0  505  502  0.00000000000E+00  0.00000000000E+00  0.78425828452E+03  0.78425828452E+03  0.00000000000E+00 0. -1.
          2   -1    0    0  503    0 -0.00000000000E+00 -0.00000000000E+00 -0.99525230179E+03  0.99525230179E+03  0.00000000000E+00 0.  1.
         21    1    1    2  503  504  0.26021047912E+03  0.61173394252E+02  0.11713026844E+02  0.26756096989E+03  0.00000000000E+00 0. -1.
         21    1    1    2  504  502  0.19077115920E+02  0.22718680651E+03  0.33992940813E+03  0.40930402382E+03  0.00000000000E+00 0. -1.
         21    1    1    2  505  501 -0.23915513951E+02  0.34252731468E+02  0.21706049345E+03  0.22104402104E+03  0.00000000000E+00 0.  1.
          2    1    1    2  501    0 -0.25537208109E+03 -0.32261293223E+03 -0.77969694569E+03  0.88160157156E+03  0.00000000000E+00 0.  1.
<scales pt_clust_3="360.20042" pt_clust_4="249.91023" pt_clust_5="41.77561" pt_clust_6="14000.00000"></scales>
<clustering>
<clus scale="   41.776">  1  5  2 -1</clus>
<clus scale="  249.910">  1  4  2 -1</clus>
<clus scale="  360.200">  1  3  2 -1</clus>
<clus scale="   41.776">  1  3  2 -1</clus>
</clustering>
</event>
<event>
 6    0  0.3522959E+002  0.8038479E+02  0.7546771E-02  0.1327963E+00
         21   -1    0    0  505  502  0.00000000000E+00  0.00000000000E+00  0.51264056652E+03  0.51264056652E+03  0.00000000000E+00 0. -1.
          2   -1    0    0  503    0 -0.00000000000E+00 -0.00000000000E+00 -0.28918258051E+04  0.28918258051E+04  0.00000000000E+00 0. -1.
         21    1    1    2  503  504 -0.10408166770E+03 -0.66679844970E+02 -0.12301060265E+02  0.12421960941E+03  0.00000000000E+00 0. -1.
         21    1    1    2  504  502  0.10207766204E+03  0.16108290001E+02  0.37898077009E+03  0.39281770606E+03  0.00000000000E+00 0. -1.
         21    1    1    2  505  501 -0.29744611481E+02 -0.79475970379E+01  0.67021456054E+02  0.73754876330E+02  0.00000000000E+00 0. -1.
          2    1    1    2  501    0  0.31748617141E+02  0.58519152007E+02 -0.28128864044E+04  0.28136741798E+04  0.00000000000E+00 0. -1.
<scales pt_clust_3="80.38479" pt_clust_4="14000.00000" pt_clust_5="30.78809" pt_clust_6="66.55791"></scales>
<clustering>
<clus scale="   30.788">  1  5  2 -1</clus>
<clus scale="   66.558">  2  6  1 -1</clus>
<clus scale="   80.385">  2  3  1 -1</clus>
<clus scale="   30.788">  1  3  2 -1</clus>
</clustering>
</event>
<event>
 6    0  0.3522959E+002  0.1252601E+03  0.7546771E-02  0.1234663E+00
         21   -1    0    0  503  502  0.00000000000E+00  0.00000000000E+00  0.45060788679E+03  0.45060788679E+03  0.00000000000E+00 0.  1.
         -2   -1    0    0    0  501 -0.00000000000E+00 -0.00000000000E+00 -0.41959331149E+03  0.41959331149E+03  0.00000000000E+00 0. -1.
         21    1    1    2  503  501  0.64294974782E+02  0.99684862909E+02  0.40316507070E+03  0.42025348292E+03  0.00000000000E+00 0.  1.
         21    1    1    2  504  505 -0.65360886726E+02 -0.10857142778E+03 -0.22851000643E+03  0.26129795920E+03  0.00000000000E+00 0.  1.
         21    1    1    2  505  502  0.27997401924E+02 -0.13901815638E+02  0.85634918205E+01  0.32410621479E+02  0.00000000000E+00 0. -1.
         -2    1    1    2    0  504 -0.26931489980E+02  0.22788380505E+02 -0.15220398079E+03  0.15623913468E+03  0.00000000000E+00 0. -1.
<scales pt_clust_3="14000.00000" pt_clust_4="125.26014" pt_clust_5="31.25884" pt_clust_6="35.13675"></scales>
<clustering>
<clus scale="   31.259">  1  5  2 -1</clus>
<clus scale="   35.137">  2  6  1 -1</clus>
<clus scale="  125.260">  2  4  1 -1</clus>
<clus scale="   31.259">  1  3  2 -1</clus>
</clustering>
</event>
<event>
 6    0  0.4958364E+002  0.1136370E+03  0.7546771E-02  0.1253979E+00
         21   -1    0    0  505  502  0.00000000000E+00  0.00000000000E+00  0.37050135757E+03  0.37050135757E+03  0.00000000000E+00 0. -1.
          1   -1    0    0  504    0 -0.00000000000E+00 -0.00000000000E+00 -0.45345712668E+03  0.45345712668E+03  0.00000000000E+00 0.  1.
         21    1    1    2  503  502  0.36911736773E+02 -0.10921277402E+02  0.49241332127E+02  0.62501675188E+02  0.00000000000E+00 0. -1.
         21    1    1    2  504  503  0.49784103604E+02 -0.12835208949E+02  0.25058768452E+03  0.25580732435E+03  0.00000000000E+00 0. -1.
         21    1    1    2  505  501  0.12736431529E+00 -0.52737058017E+02  0.40715486897E+02  0.66625553531E+02  0.00000000000E+00 0. -1.
          1    1    1    2  501    0 -0.86823204693E+02  0.76493544368E+02 -0.42350027266E+03  0.43902393118E+03  0.00000000000E+00 0.  1.
<scales pt_clust_3="38.49351" pt_clust_4="113.63697" pt_clust_5="54.97664" pt_clust_6="14000.00000"></scales>
<clustering>
<clus scale="   38.494">  1  3  2 -1</clus>
<clus scale="   54.977">  1  5  2 -1</clus>
<clus scale="  113.637">  1  4  2 -1</clus>
<clus scale="   38.494">  1  3  2 -1</clus>
</clustering>
</event>
<event>
 6    0  0.3522959E+002  0.1151672E+03  0.7546771E-02  0.1251289E+00
          2   -1    0    0  502    0 -0.00000000000E+00  0.00000000000E+00  0.28652858914E+04  0.28652858914E+04  0.00000000000E+00 0.  1.
         21   -1    0    0  503  502  0.00000000000E+00 -0.00000000000E+00 -0.16063385585E+03  0.16063385585E+03  0.00000000000E+00 0.  1.
         21    1    1    2  503  504  0.37114028017E+02 -0.18452541648E+02 -0.80726801892E+02  0.90745599963E+02  0.00000000000E+00 0.  1.
         21    1    1    2  504  505  0.42473084861E+02 -0.49556503743E+02 -0.47550350585E+02  0.80751754418E+02  0.00000000000E+00 0.  1.
         21    1    1    2  505  501 -0.84961919203E+02  0.11278763805E+03  0.46277384108E+03  0.48383799665E+03  0.00000000000E+00 0.  1.
          2    1    1    2  501    0  0.53748063245E+01 -0.44778592657E+02  0.23701553470E+04  0.23705843962E+04  0.00000000000E+00 0.  1.
<scales pt_clust_3="35.61159" pt_clust_4="35.61159" pt_clust_5="106.14386" pt_clust_6="45.10001"></scales>
<clustering>
<clus scale="   35.612">  3  4 -1 -1</clus>
<clus scale="   45.100">  1  6  2 -1</clus>
<clus scale="  106.144">  1  5  2 -1</clus>
<clus scale="  115.167">  2  3  1 -1</clus>
</clustering>
</event>
<event>
 6    0  0.3522959E+002  0.2270593E+03  0.7546771E-02  0.1128727E+00
          2   -1    0    0  503    0 -0.00000000000E+00  0.00000000000E+00  0.20986321369E+04  0.20986321369E+04  0.00000000000E+00 0. -1.
         21   -1    0    0  504  502  0.00000000000E+00 -0.00000000000E+00 -0.78501670016E+02  0.78501670016E+02  0.00000000000E+00 0.  1.
         21    1    1    2  503  502  0.19060123900E+03 -0.10260815133E+02  0.15699071638E+03  0.24714409090E+03  0.00000000000E+00 0.  1.
         21    1    1    2  504  505 -0.35080242234E+02 -0.26080184863E+02  0.85231867529E+02  0.95787633232E+02  0.00000000000E+00 0.  1.
         21    1    1    2  505  501  0.39492029113E+02 -0.10166370901E+03  0.13283722397E+03  0.17187454193E+03  0.00000000000E+00 0. -1.
          2    1    1    2  501    0 -0.19501302588E+03  0.13800470900E+03  0.16450706590E+04  0.16623275409E+04  0.00000000000E+00 0. -1.
<scales pt_clust_3="227.05925" pt_clust_4="43.71269" pt_clust_5="112.72021" pt_clust_6="14000.00000"></scales>
<clustering>
<clus scale="   43.713">  2  4  1 -1</clus>
<clus scale="  112.720">  2  5  1 -1</clus>
<clus scale="  227.059">  2  3  1 -1</clus>
<clus scale="   43.713">  2  3  1 -1</clus>
</clustering>
</event>
<event>
 6    0  0.3522959E+002  0.1050138E+03  0.7546771E-02  0.1270092E+00
         21   -1    0    0  503  502  0.00000000000E+00  0.00000000000E+00  0.19116728557E+03  0.19116728557E+03  0.00000000000E+00 0.  1.
          2   -1    0    0  505    0 -0.00000000000E+00 -0.00000000000E+00 -0.18815067769E+04  0.18815067769E+04  0.00000000000E+00 0. -1.
         21    1    1    2  503  501 -0.24677392140E+02 -0.56813249329E+02  0.16972927812E+03  0.18067857325E+03  0.00000000000E+00 0.  1.
         21    1    1    2  504  502 -0.16038294618E+02  0.29654775622E+02 -0.30389992226E+02  0.45389252461E+02  0.00000000000E+00 0.  1.
         21    1    1    2  505  504 -0.33442784666E+02  0.77350205011E+02 -0.23922803911E+03  0.25363660769E+03  0.00000000000E+00 0.  1.
          2    1    1    2  501    0  0.74158471424E+02 -0.50191731304E+02 -0.15904507381E+04  0.15929696291E+04  0.00000000000E+00 0. -1.
<scales pt_clust_3="61.94125" pt_clust_4="33.61328" pt_clust_5="33.61328" pt_clust_6="90.57460"></scales>
<clustering>
<clus scale="   33.613">  4  5 -1 -1</clus>
<clus scale="   61.941">  1  3  2 -1</clus>
<clus scale="   90.575">  2  6  1 -1</clus>
<clus scale="   61.941">  1  3  2 -1</clus>
</clustering>
</event>
<event>
 6    0  0.3522959E+002  0.1554199E+03  0.7546771E-02  0.1193967E+00
         21   -1    0    0  505  502  0.00000000000E+00  0.00000000000E+00  0.17701537643E+02  0.17701537643E+02  0.00000000000E+00 0.  1.
          2   -1    0    0  502    0 -0.00000000000E+00 -0.00000000000E+00 -0.28713562718E+04  0.28713562718E+04  0.00000000000E+00 0.  1.
         21    1    1    2  503  504 -0.43054018754E+02  0.30643809686E+02 -0.21614678282E+03  0.22251319810E+03  0.00000000000E+00 0. -1.
         21    1    1    2  504  501 -0.69549160347E+02  0.17317151488E+02 -0.52980287778E+03  0.53462889815E+03  0.00000000000E+00 0. -1.
         21    1    1    2  505  503  0.16041135723E+03 -0.62533443950E+02 -0.62251146137E+03  0.64588137818E+03  0.00000000000E+00 0.  1.
          2    1    1    2  501    0 -0.47808178134E+02  0.14572482776E+02 -0.14851936122E+04  0.14860343350E+04  0.00000000000E+00 0.  1.
<scales pt_clust_3="36.86836" pt_clust_4="36.86836" pt_clust_5="149.37136" pt_clust_6="49.97979"></scales>
<clustering>
<clus scale="   36.868">  3  4 -1 -1</clus>
<clus scale="   49.980">  2  6  1 -1</clus>
<clus scale="  149.371">  1  5  2 -1</clus>
<clus scale="  149.371">  1  3  2 -1</clus>
</clustering>
</event>
<event>
 6    0  0.3522959E+002  0.9960728E+02  0.7546771E-02  0.1281124E+00
          1   -1    0    0  503    0 -0.00000000000E+00  0.00000000000E+00  0.44195519822E+03  0.44195519822E+03  0.00000000000E+00 0.  1.
         21   -1    0    0  504  502  0.00000000000E+00 -0.00000000000E+00 -0.10852638192E+03  0.10852638192E+03  0.00000000000E+00 0.  1.
         21    1    1    2  503  505  0.45460173803E+02 -0.99879946641E+02  0.16000170576E+03  0.19401849651E+03  0.00000000000E+00 0.  1.
         21    1    1    2  504  501 -0.33945057212E+02  0.52386382427E+02 -0.74195894166E+01  0.62862153002E+02  0.00000000000E+00 0.  1.
         21    1    1    2  505  502  0.96964769792E+02  0.20857834360E+02  0.25757624469E+02  0.10247278201E+03  0.00000000000E+00 0.  1.
          1    1    1    2  501    0 -0.10847988638E+03  0.26635729854E+02  0.15508907549E+03  0.19112814861E+03  0.00000000000E+00 0.  1.
<scales pt_clust_3="99.60728" pt_clust_4="62.42275" pt_clust_5="92.75342" pt_clust_6="14000.00000"></scales>
<clustering>
<clus scale="   62.423">  2  4  1 -1</clus>
<clus scale="   92.753">  2  5  1 -1</clus>
<clus scale="   99.607">  1  3  2 -1</clus>
<clus scale="   62.423">  2  3  1 -1</clus>
</clustering>
</event>
<event>
 6    0  0.3522959E+002  0.8468779E+02  0.7546771E-02  0.1316251E+00
          2   -1    0    0  505    0 -0.00000000000E+00  0.00000000000E+00  0.65507412759E+03  0.65507412759E+03  0.00000000000E+00 0.  1.
         21   -1    0    0  504  502  0.00000000000E+00 -0.00000000000E+00 -0.96072134168E+02  0.96072134168E+02  0.00000000000E+00 0.  1.
         21    1    1    2  503  502 -0.68799338505E+02  0.85367888241E+01  0.25519571471E+02  0.73874720102E+02  0.00000000000E+00 0.  1.
         21    1    1    2  504  501  0.19279932054E+02 -0.77268478868E+02 -0.33919323041E+02  0.86560118312E+02  0.00000000000E+00 0.  1.
         21    1    1    2  505  503 -0.18328134668E+02 -0.25974529664E+02  0.42714856333E+02  0.53246179799E+02  0.00000000000E+00 0. -1.
          2    1    1    2  501    0  0.67847541119E+02  0.94706219708E+02  0.52468688866E+03  0.53746524355E+03  0.00000000000E+00 0.  1.
<scales pt_clust_3="70.59137" pt_clust_4="14000.00000" pt_clust_5="31.78988" pt_clust_6="84.68779"></scales>
<clustering>
<clus scale="   31.790">  1  5  2 -1</clus>
<clus scale="   70.591">  2  3  1 -1</clus>
<clus scale="   84.688">  1  6  2 -1</clus>
<clus scale="   70.591">  2  3  1 -1</clus>
</clustering>
</event>
<event>
 6    0  0.3522959E+002  0.1307617E+03  0.7546771E-02  0.1226330E+00
         -1   -1    0    0    0  501 -0.00000000000E+00  0.00000000000E+00  0.35629527909E+03  0.35629527909E+03  0.00000000000E+00 0. -1.
         21   -1    0    0  504  502  0.00000000000E+00 -0.00000000000E+00 -0.27986840307E+03  0.27986840307E+03  0.00000000000E+00 0. -1.
         21    1    1    2  503  502 -0.28345179418E+02  0.20015911981E+02 -0.83979478373E+02  0.90866048205E+02  0.00000000000E+00 0.  1.
         21    1    1    2  504  501 -0.31761016418E+02 -0.64499315616E+02 -0.38607121619E+01  0.71998812332E+02  0.00000000000E+00 0. -1.
         21    1    1    2  505  503  0.83158032393E+02  0.16757583848E+03 -0.76340494411E+02  0.20205145652E+03  0.00000000000E+00 0. -1.
         -1    1    1    2    0  505 -0.23051836557E+02 -0.12309243485E+03  0.24060756096E+03  0.27124736511E+03  0.00000000000E+00 0. -1.
<scales pt_clust_3="34.69994" pt_clust_4="71.14543" pt_clust_5="130.76174" pt_clust_6="14000.00000"></scales>
<clustering>
<clus scale="   34.700">  2  3  1 -1</clus>
<clus scale="   71.145">  2  4  1 -1</clus>
<clus scale="  130.762">  2  5  1 -1</clus>
<clus scale="   34.700">  2  3  1 -1</clus>
</clustering>
</event>
<event>
 6    0  0.3522959E+002  0.1036042E+03  0.7546771E-02  0.1272894E+00
         21   -1    0    0  505  502  0.00000000000E+00  0.00000000000E+00  0.72842280152E+03  0.72842280152E+03  0.00000000000E+00 0. -1.
          2   -1    0    0  503    0 -0.00000000000E+00 -0.00000000000E+00 -0.27940909275E+04  0.27940909275E+04  0.00000000000E+00 0. -1.
         21    1    1    2  503  504  0.20897556763E+02  0.49748204898E+02  0.65678082621E+02  0.85001190027E+02  0.00000000000E+00 0. -1.
         21    1    1    2  504  502  0.90107372593E+02  0.47163812889E+02  0.56249078147E+03  0.57161144415E+03  0.00000000000E+00 0. -1.
         21    1    1    2  505  501 -0.10945377342E+03 -0.52962795075E+02  0.42802808286E+02  0.12890797716E+03  0.00000000000E+00 0. -1.
          2    1    1    2  501    0 -0.15511559356E+01 -0.43949222711E+02 -0.27366397984E+04  0.27369931177E+04  0.00000000000E+00 0. -1.
<scales pt_clust_3="47.09615" pt_clust_4="103.60421" pt_clust_5="14000.00000" pt_clust_6="43.97659"></scales>
<clustering>
<clus scale="   43.977">  2  6  1 -1</clus>
<clus scale="   47.096">  2  3  1 -1</clus>
<clus scale="  103.604">  1  4  2 -1</clus>
<clus scale="  103.604">  1  3  2 -1</clus>
</clustering>
</event>
<event>
 6    0  0.3522959E+002  0.8809821E+02  0.7546771E-02  0.1307524E+00
         -3   -1    0    0    0  501 -0.00000000000E+00  0.00000000000E+00  0.89906937797E+03  0.89906937797E+03  0.00000000000E+00 0.  1.
         21   -1    0    0  504  502  0.00000000000E+00 -0.00000000000E+00 -0.11280806797E+03  0.11280806797E+03  0.00000000000E+00 0.  1.
         21    1    1    2  503  501 -0.33816100923E+02  0.74364136659E+02  0.32008575923E+03  0.33034595013E+03  0.00000000000E+00 0.  1.
         21    1    1    2  504  503 -0.41672235428E+02  0.18112632063E+02 -0.37131603655E+02  0.58680479172E+02  0.00000000000E+00 0.  1.
         21    1    1    2  505  502  0.12753741838E+03 -0.22210281896E+02  0.19156080584E+02  0.13086651647E+03  0.00000000000E+00 0.  1.
         -3    1    1    2    0  505 -0.52049082028E+02 -0.70266486825E+02  0.48415107384E+03  0.49198450018E+03  0.00000000000E+00 0.  1.
<scales pt_clust_3="84.39290" pt_clust_4="45.43834" pt_clust_5="88.09821" pt_clust_6="14000.00000"></scales>
<clustering>
<clus scale="   45.438">  2  4  1 -1</clus>
<clus scale="   84.393">  1  3  2 -1</clus>
<clus scale="   88.098">  2  5  1 -1</clus>
<clus scale="   45.438">  2  3  1 -1</clus>
</clustering>
</event>
<event>
 6    0  0.3522959E+002  0.1246720E+03  0.7546771E-02  0.1235583E+00
          2   -1    0    0  503    0 -0.00000000000E+00  0.00000000000E+00  0.18402161611E+04  0.18402161611E+04  0.00000000000E+00 0.  1.
         21   -1    0    0  504  502  0.00000000000E+00 -0.00000000000E+00 -0.92715803136E+02  0.92715803136E+02  0.00000000000E+00 0. -1.
         21    1    1    2  503  505 -0.49866244381E+02 -0.73534785102E+02  0.19816352531E+03  0.21716995583E+03  0.00000000000E+00 0. -1.
         21    1    1    2  504  501  0.13901279713E+03  0.11166550514E+03  0.22822354940E+03  0.28961997739E+03  0.00000000000E+00 0. -1.
         21    1    1    2  505  502 -0.12036968796E+01 -0.68428063913E+02 -0.27913606870E+02  0.73912233531E+02  0.00000000000E+00 0. -1.
          2    1    1    2  501    0 -0.87942855871E+02  0.30297343879E+02  0.13490268901E+04  0.13522297975E+04  0.00000000000E+00 0.  1.
<scales pt_clust_3="124.67203" pt_clust_4="14000.00000" pt_clust_5="68.43865" pt_clust_6="92.23889"></scales>
<clustering>
<clus scale="   68.439">  2  5  1 -1</clus>
<clus scale="   92.239">  1  6  2 -1</clus>
<clus scale="  124.672">  1  3  2 -1</clus>
<clus scale="   68.439">  2  3  1 -1</clus>
</clustering>
</event>
<event>
 6    0  0.3522959E+002  0.9126653E+02  0.7546771E-02  0.1299813E+00
         21   -1    0    0  501  502  0.00000000000E+00  0.00000000000E+00  0.67729682677E+03  0.67729682677E+03  0.00000000000E+00 0.  1.
          2   -1    0    0  503    0 -0.00000000000E+00 -0.00000000000E+00 -0.42873525421E+03  0.42873525421E+03  0.00000000000E+00 0. -1.
         21    1    1    2  503  505  0.16912991917E+02 -0.85580967519E+02 -0.10618734562E+03  0.13742599341E+03  0.00000000000E+00 0. -1.
         21    1    1    2  504  502  0.34609270944E+02 -0.27804748780E+02  0.36994867358E+03  0.37260290763E+03  0.00000000000E+00 0.  1.
         21    1    1    2  505  504 -0.80420569303E+02  0.20784322407E+02  0.27644205794E+03  0.28865146358E+03  0.00000000000E+00 0. -1.
          2    1    1    2  501    0  0.28898306442E+02  0.92601393892E+02 -0.29164181334E+03  0.30735171637E+03  0.00000000000E+00 0. -1.
<scales pt_clust_3="14000.00000" pt_clust_4="44.39488" pt_clust_5="48.71193" pt_clust_6="91.26653"></scales>
<clustering>
<clus scale="   44.395">  1  4  2 -1</clus>
<clus scale="   48.712">  1  5  2 -1</clus>
<clus scale="   91.267">  2  6  1 -1</clus>
<clus scale="   44.395">  1  3  2 -1</clus>
</clustering>
</event>
<event>
 6    0  0.3522959E+002  0.2065000E+03  0.7546771E-02  0.1144368E+00
         21   -1    0    0  503  502  0.00000000000E+00  0.00000000000E+00  0.29018700508E+03  0.29018700508E+03  0.00000000000E+00 0. -1.
         -1   -1    0    0    0  501 -0.00000000000E+00 -0.00000000000E+00 -0.69730741703E+03  0.69730741703E+03  0.00000000000E+00 0. -1.
         21    1    1    2  503  505 -0.41983676814E+02  0.10949511345E+03  0.11523883813E+03  0.16441349945E+03  0.00000000000E+00 0. -1.
         21    1    1    2  504  501 -0.14278048640E+03 -0.10707083162E+03 -0.31718431913E+02  0.18126359040E+03  0.00000000000E+00 0. -1.
         21    1    1    2  505  504 -0.41391696831E+02  0.21422949362E+02  0.41951097457E+02  0.62706537967E+02  0.00000000000E+00 0.  1.
         -1    1    1    2    0  502  0.22615586005E+03 -0.23847231185E+02 -0.53259191563E+03  0.57911079429E+03  0.00000000000E+00 0. -1.
<scales pt_clust_3="163.93546" pt_clust_4="14000.00000" pt_clust_5="33.26275" pt_clust_6="206.49999"></scales>
<clustering>
<clus scale="   33.263">  3  5 -1 -1</clus>
<clus scale="  163.935">  1  3  2 -1</clus>
<clus scale="  206.500">  2  6  1 -1</clus>
<clus scale="  163.935">  1  3  2 -1</clus>
</clustering>
</event>
<event>
 6    0  0.3522959E+002  0.1721385E+03  0.7546771E-02  0.1175636E+00
          1   -1    0    0  502    0 -0.00000000000E+00  0.00000000000E+00  0.63751035396E+03  0.63751035396E+03  0.00000000000E+00 0.  1.
         21   -1    0    0  505  502  0.00000000000E+00 -0.00000000000E+00 -0.14326529030E+04  0.14326529030E+04  0.00000000000E+00 0. -1.
         21    1    1    2  503  504 -0.12202179862E+03  0.76647783062E+02 -0.13001949376E+03  0.19408573040E+03  0.00000000000E+00 0.  1.
         21    1    1    2  504  501 -0.30267660788E+02  0.27375305766E+02  0.19388072777E+02  0.45182253390E+02  0.00000000000E+00 0.  1.
         21    1    1    2  505  503  0.16458912327E+03 -0.67803314646E+02 -0.12507561546E+04  0.12633597379E+04  0.00000000000E+00 0. -1.
          1    1    1    2  501    0 -0.12299663858E+02 -0.36219774183E+02  0.56624502654E+03  0.56753553532E+03  0.00000000000E+00 0.  1.
<scales pt_clust_3="172.13852" pt_clust_4="37.48524" pt_clust_5="14000.00000" pt_clust_6="38.25119"></scales>
<clustering>
<clus scale="   38.251">  1  6  2 -1</clus>
<clus scale="   37.485">  1  4  2 -1</clus>
<clus scale="  172.139">  1  3  2 -1</clus>
<clus scale="  172.139">  2  3  1 -1</clus>
</clustering>
</event>
<event>
 6    0  0.3522959E+002  0.1725559E+03  0.7546771E-02  0.1175208E+00
         21   -1    0    0  505  502  0.00000000000E+00  0.00000000000E+00  0.34093597090E+02  0.34093597090E+02  0.00000000000E+00 0. -1.
          2   -1    0    0  503    0 -0.00000000000E+00 -0.00000000000E+00 -0.41403326980E+04  0.41403326980E+04  0.00000000000E+00 0. -1.
         21    1    1    2  503  504 -0.49713601112E+02 -0.39744406119E+02 -0.84452949448E+02  0.10575140956E+03  0.00000000000E+00 0. -1.
         21    1    1    2  504  502 -0.33306374598E+02 -0.93906491637E+02 -0.93619277722E+02  0.13671983368E+03  0.00000000000E+00 0. -1.
         21    1    1    2  505  501  0.40595800487E+02  0.75707133408E+02 -0.13157808835E+04  0.13185821637E+04  0.00000000000E+00 0. -1.
          2    1    1    2  501    0  0.42424175222E+02  0.57943764347E+02 -0.26123859902E+04  0.26133728881E+04  0.00000000000E+00 0. -1.
<scales pt_clust_3="38.56059" pt_clust_4="164.56788" pt_clust_5="64.78551" pt_clust_6="64.78551"></scales>
<clustering>
<clus scale="   38.561">  3  4 -1 -1</clus>
<clus scale="   64.786">  5  6 -1 -1</clus>
<clus scale="  164.568">  1  3  2 -1</clus>
<clus scale="  164.568">  1  3  2 -1</clus>
</clustering>
</event>
<event>
 6    0  0.3522959E+002  0.9183260E+02  0.7546771E-02  0.1298474E+00
         21   -1    0    0  501  502  0.00000000000E+00  0.00000000000E+00  0.73031230765E+02  0.73031230765E+02  0.00000000000E+00 0.  1.
          2   -1    0    0  505    0 -0.00000000000E+00 -0.00000000000E+00 -0.57208309313E+03  0.57208309313E+03  0.00000000000E+00 0.  1.
         21    1    1    2  503  502 -0.99938385040E+01  0.34858117145E+02  0.34583831657E+02  0.50109944632E+02  0.00000000000E+00 0.  1.
         21    1    1    2  504  503  0.44468197392E+02 -0.43150662008E+01 -0.28121317858E+02  0.52790613689E+02  0.00000000000E+00 0.  1.
         21    1    1    2  505  504  0.90916242616E+01  0.67110155286E+02 -0.86981807119E+02  0.11023731376E+03  0.00000000000E+00 0. -1.
          2    1    1    2  501    0 -0.43565983149E+02 -0.97653206231E+02 -0.41853256905E+03  0.43197645182E+03  0.00000000000E+00 0.  1.
<scales pt_clust_3="36.26245" pt_clust_4="41.59697" pt_clust_5="14000.00000" pt_clust_6="91.83260"></scales>
<clustering>
<clus scale="   36.262">  1  3  2 -1</clus>
<clus scale="   41.597">  1  4  2 -1</clus>
<clus scale="   91.833">  2  6  1 -1</clus>
<clus scale="   36.262">  1  3  2 -1</clus>
</clustering>
</event>
<event>
 6    0  0.3522959E+002  0.7180270E+02  0.7546771E-02  0.1354068E+00
         -1   -1    0    0    0  501 -0.00000000000E+00  0.00000000000E+00  0.13133555344E+04  0.13133555344E+04  0.00000000000E+00 0. -1.
         21   -1    0    0  503  502  0.00000000000E+00 -0.00000000000E+00 -0.49164156493E+02  0.49164156493E+02  0.00000000000E+00 0. -1.
         21    1    1    2  503  504  0.47489097527E+02  0.45461438455E+02  0.12119191691E+03  0.13787471666E+03  0.00000000000E+00 0. -1.
         21    1    1    2  504  501 -0.19168106097E+02 -0.38331672654E+02  0.84393717993E+03  0.84502467247E+03  0.00000000000E+00 0. -1.
         21    1    1    2  505  502 -0.12824278238E+02 -0.75952174296E+02  0.49723413950E+01  0.77187557751E+02  0.00000000000E+00 0. -1.
         -1    1    1    2    0  505 -0.15496713192E+02  0.68822408495E+02  0.29408993965E+03  0.30243274399E+03  0.00000000000E+00 0. -1.
<scales pt_clust_3="14000.00000" pt_clust_4="42.85713" pt_clust_5="71.80270" pt_clust_6="52.35972"></scales>
<clustering>
<clus scale="   42.857">  1  4  2 -1</clus>
<clus scale="   52.360">  1  6  2 -1</clus>
<clus scale="   71.803">  2  5  1 -1</clus>
<clus scale="   71.803">  2  3  1 -1</clus>
</clustering>
</event>
<event>
 6    0  0.3522959E+002  0.3745185E+03  0.7546771E-02  0.1052979E+00
         21   -1    0    0  501  502  0.00000000000E+00  0.00000000000E+00  0.84259470037E+03  0.84259470037E+03  0.00000000000E+00 0. -1.
          2   -1    0    0  504    0 -0.00000000000E+00 -0.00000000000E+00 -0.31191508499E+03  0.31191508499E+03  0.00000000000E+00 0.  1.
         21    1    1    2  503  502 -0.14300269223E+02 -0.20670887913E+03  0.27073779682E+03  0.34092816404E+03  0.00000000000E+00 0.  1.
         21    1    1    2  504  505 -0.91527516908E+02  0.99958987411E+02 -0.68013823366E+02  0.15164091033E+03  0.00000000000E+00 0.  1.
         21    1    1    2  505  503  0.55759015224E+02 -0.19306965080E+03  0.29394304017E+03  0.35607228017E+03  0.00000000000E+00 0. -1.
          2    1    1    2  501    0  0.50068770908E+02  0.29981954252E+03  0.34012601755E+02  0.30586843082E+03  0.00000000000E+00 0.  1.
<scales pt_clust_3="72.39246" pt_clust_4="135.53260" pt_clust_5="72.39246" pt_clust_6="367.23372"></scales>
<clustering>
<clus scale="   72.392">  3  5 -1 -1</clus>
<clus scale="  135.533">  2  4  1 -1</clus>
<clus scale="  367.234">  2  6  1 -1</clus>
<clus scale="  374.518">  1  3  2 -1</clus>
</clustering>
</event>
<event>
 6    0  0.3522959E+002  0.1207468E+03  0.7546771E-02  0.1241870E+00
          2   -1    0    0  503    0 -0.00000000000E+00  0.00000000000E+00  0.37367292343E+03  0.37367292343E+03  0.00000000000E+00 0.  1.
         21   -1    0    0  504  502  0.00000000000E+00 -0.00000000000E+00 -0.39003082777E+03  0.39003082777E+03  0.00000000000E+00 0.  1.
         21    1    1    2  503  505 -0.20982294404E+02 -0.47497752879E+02 -0.63967716605E+00  0.51929783303E+02  0.00000000000E+00 0.  1.
         21    1    1    2  504  501 -0.32402585809E+02 -0.12243026949E+03 -0.29903043824E+03  0.32474343943E+03  0.00000000000E+00 0.  1.
         21    1    1    2  505  502  0.85661556046E+02  0.65365184043E+02  0.31177057220E+02  0.11217182519E+03  0.00000000000E+00 0. -1.
          2    1    1    2  501    0 -0.32276675833E+02  0.10456283833E+03  0.25213515385E+03  0.27485870328E+03  0.00000000000E+00 0.  1.
<scales pt_clust_3="51.92584" pt_clust_4="120.74683" pt_clust_5="14000.00000" pt_clust_6="83.82018"></scales>
<clustering>
<clus scale="   51.926">  1  3  2 -1</clus>
<clus scale="   83.820">  1  6  2 -1</clus>
<clus scale="  120.747">  2  4  1 -1</clus>
<clus scale="  120.747">  2  3  1 -1</clus>
</clustering>
</event>
<event>
 6    0  0.3522959E+002  0.9585532E+02  0.7546771E-02  0.1289261E+00
         21   -1    0    0  504  502  0.00000000000E+00  0.00000000000E+00  0.32968350720E+02  0.32968350720E+02  0.00000000000E+00 0.  1.
          2   -1    0    0  503    0 -0.00000000000E+00 -0.00000000000E+00 -0.17264553675E+04  0.17264553675E+04  0.00000000000E+00 0. -1.
         21    1    1    2  503  505  0.88228269428E+02 -0.85145261359E+01 -0.66504274943E+03  0.67092367916E+03  0.00000000000E+00 0. -1.
         21    1    1    2  504  501 -0.44599275849E+02 -0.18137390587E+02 -0.78771480009E+02  0.92320130017E+02  0.00000000000E+00 0.  1.
         21    1    1    2  505  502 -0.49139143634E+02  0.66315353442E+02 -0.51866111402E+02  0.97480639366E+02  0.00000000000E+00 0.  1.
          2    1    1    2  501    0  0.55101500552E+01 -0.39663436719E+02 -0.89780667589E+03  0.89869926963E+03  0.00000000000E+00 0. -1.
<scales pt_clust_3="14000.00000" pt_clust_4="49.32560" pt_clust_5="95.85532" pt_clust_6="40.04435"></scales>
<clustering>
<clus scale="   40.044">  2  6  1 -1</clus>
<clus scale="   49.326">  1  4  2 -1</clus>
<clus scale="   95.855">  1  5  2 -1</clus>
<clus scale="   49.326">  1  3  2 -1</clus>
</clustering>
</event>
<event>
 6    0  0.3522959E+002  0.1497559E+03  0.7546771E-02  0.1200773E+00
         -1   -1    0    0    0  501 -0.00000000000E+00  0.00000000000E+00  0.69174138698E+03  0.69174138698E+03  0.00000000000E+00 0. -1.
         21   -1    0    0  503  502  0.00000000000E+00 -0.00000000000E+00 -0.11549602938E+04  0.11549602938E+04  0.00000000000E+00 0.  1.
         21    1    1    2  503  505  0.13656698557E+03 -0.32547282936E+01 -0.10011689853E+04  0.10104456798E+04  0.00000000000E+00 0.  1.
         21    1    1    2  504  501 -0.28914660022E+02  0.34601442461E+02 -0.42379780380E+02  0.61881848467E+02  0.00000000000E+00 0. -1.
         21    1    1    2  505  504 -0.12351673649E+03  0.29316887376E+02 -0.53275228730E+02  0.13767394116E+03  0.00000000000E+00 0.  1.
         -1    1    1    2    0  502  0.15864410939E+02 -0.60663601544E+02  0.63360508758E+03  0.63670021132E+03  0.00000000000E+00 0. -1.
<scales pt_clust_3="138.11258" pt_clust_4="34.50433" pt_clust_5="34.50433" pt_clust_6="62.70368"></scales>
<clustering>
<clus scale="   34.504">  4  5 -1 -1</clus>
<clus scale="   62.704">  1  6  2 -1</clus>
<clus scale="  138.113">  2  3  1 -1</clus>
<clus scale="  138.113">  2  3  1 -1</clus>
</clustering>
</event>
<event>
 6    0  0.3522959E+002  0.1615503E+03  0.7546771E-02  0.1186957E+00
         -4   -1    0    0    0  501 -0.00000000000E+00  0.00000000000E+00  0.73260598163E+02  0.73260598163E+02  0.00000000000E+00 0.  1.
         21   -1    0    0  503  502  0.00000000000E+00 -0.00000000000E+00 -0.91761188552E+03  0.91761188552E+03  0.00000000000E+00 0.  1.
         21    1    1    2  503  501  0.29022902554E+02 -0.86974137780E+01 -0.45919232984E+02  0.55014087622E+02  0.00000000000E+00 0. -1.
         21    1    1    2  504  505 -0.79532538203E+01  0.89058603061E+02 -0.31974790426E+03  0.33201417335E+03  0.00000000000E+00 0. -1.
         21    1    1    2  505  502 -0.15206748145E+02  0.64025322226E+02 -0.45216129603E+03  0.45692485674E+03  0.00000000000E+00 0.  1.
         -4    1    1    2    0  504 -0.58629005882E+01 -0.14438651151E+03 -0.26522854077E+02  0.14691936597E+03  0.00000000000E+00 0.  1.
<scales pt_clust_3="30.29808" pt_clust_4="43.89237" pt_clust_5="43.89237" pt_clust_6="153.25990"></scales>
<clustering>
<clus scale="   30.298">  1  3  2 -1</clus>
<clus scale="   43.892">  4  5 -1 -1</clus>
<clus scale="  153.260">  1  6  2 -1</clus>
<clus scale="  161.550">  2  3  1 -1</clus>
</clustering>
</event>
<event>
 6    0  0.3522959E+002  0.7237605E+02  0.7546771E-02  0.1352195E+00
         21   -1    0    0  505  502  0.00000000000E+00  0.00000000000E+00  0.49013479023E+03  0.49013479023E+03  0.00000000000E+00 0.  1.
         -4   -1    0    0    0  501 -0.00000000000E+00 -0.00000000000E+00 -0.24092245175E+03  0.24092245175E+03  0.00000000000E+00 0.  1.
         21    1    1    2  503  501 -0.24393133812E+02  0.18923747131E+02 -0.11184018546E+02  0.32836191215E+02  0.00000000000E+00 0.  1.
         21    1    1    2  504  502  0.48893723328E+02  0.53679027806E+02  0.44502287710E+03  0.45090730239E+03  0.00000000000E+00 0.  1.
         21    1    1    2  505  503  0.53267976886E+02 -0.60370946626E+02 -0.62110730030E+02  0.10168515793E+03  0.00000000000E+00 0.  1.
         -4    1    1    2    0  504 -0.77768566401E+02 -0.12231828312E+02 -0.12251579005E+03  0.14562859044E+03  0.00000000000E+00 0.  1.
<scales pt_clust_3="30.87286" pt_clust_4="14000.00000" pt_clust_5="69.19898" pt_clust_6="72.37605"></scales>
<clustering>
<clus scale="   30.873">  2  3  1 -1</clus>
<clus scale="   69.199">  2  5  1 -1</clus>
<clus scale="   72.376">  2  6  1 -1</clus>
<clus scale="   72.376">  1  3  2 -1</clus>
</clustering>
</event>
<event>
 6    0  0.3522959E+002  0.2642472E+03  0.7546771E-02  0.1104618E+00
         21   -1    0    0  505  502  0.00000000000E+00  0.00000000000E+00  0.57966675360E+03  0.57966675360E+03  0.00000000000E+00 0. -1.
          2   -1    0    0  503    0 -0.00000000000E+00 -0.00000000000E+00 -0.27329213627E+04  0.27329213627E+04  0.00000000000E+00 0.  1.
         21    1    1    2  503  504  0.54844107527E+02  0.23982840591E+02 -0.83973721987E+02  0.10312438488E+03  0.00000000000E+00 0.  1.
         21    1    1    2  504  502  0.76680735745E+01  0.25580610613E+03  0.42519794684E+03  0.49627498153E+03  0.00000000000E+00 0. -1.
         21    1    1    2  505  501 -0.14866996608E+02 -0.31863553977E+03 -0.12450777477E+03  0.34242053205E+03  0.00000000000E+00 0.  1.
          2    1    1    2  501    0 -0.47645184493E+02  0.38846593044E+02 -0.23699710592E+04  0.23707682178E+04  0.00000000000E+00 0.  1.
<scales pt_clust_3="59.85861" pt_clust_4="264.24724" pt_clust_5="14000.00000" pt_clust_6="60.40656"></scales>
<clustering>
<clus scale="   59.859">  2  3  1 -1</clus>
<clus scale="   60.407">  2  6  1 -1</clus>
<clus scale="  264.247">  1  4  2 -1</clus>
<clus scale="  264.247">  1  3  2 -1</clus>
</clustering>
</event>
<event>
 6    0  0.3522959E+002  0.7779350E+02  0.7546771E-02  0.1335432E+00
         21   -1    0    0  501  502  0.00000000000E+00  0.00000000000E+00  0.89560923815E+02  0.89560923815E+02  0.00000000000E+00 0.  1.
          4   -1    0    0  504    0 -0.00000000000E+00 -0.00000000000E+00 -0.73954765797E+03  0.73954765797E+03  0.00000000000E+00 0.  1.
         21    1    1    2  503  505 -0.29064222591E+02 -0.11809346754E+03 -0.47399761340E+02  0.13052790309E+03  0.00000000000E+00 0.  1.
         21    1    1    2  504  503 -0.10340869826E+02  0.32487606620E+02 -0.53426408759E+02  0.63377908813E+02  0.00000000000E+00 0. -1.
         21    1    1    2  505  502  0.39627080961E+02  0.53677602633E+02  0.16428589965E+02  0.68713092917E+02  0.00000000000E+00 0.  1.
          4    1    1    2  501    0 -0.22198854358E+00  0.31928258290E+02 -0.56558915402E+03  0.56648967696E+03  0.00000000000E+00 0.  1.
<scales pt_clust_3="77.79350" pt_clust_4="44.47144" pt_clust_5="14000.00000" pt_clust_6="31.92903"></scales>
<clustering>
<clus scale="   31.929">  2  6  1 -1</clus>
<clus scale="   44.471">  2  4  1 -1</clus>
<clus scale="   77.794">  2  3  1 -1</clus>
<clus scale="   77.794">  1  3  2 -1</clus>
</clustering>
</event>
<event>
 6    0  0.6071248E+002  0.8407721E+02  0.7546771E-02  0.1317864E+00
         21   -1    0    0  503  502  0.00000000000E+00  0.00000000000E+00  0.33410087272E+03  0.33410087272E+03  0.00000000000E+00 0.  1.
          1   -1    0    0  504    0 -0.00000000000E+00 -0.00000000000E+00 -0.17680758042E+04  0.17680758042E+04  0.00000000000E+00 0.  1.
         21    1    1    2  503  505  0.30878465725E+02 -0.94121087507E+01  0.37725568663E+01  0.32500763406E+02  0.00000000000E+00 0. -1.
         21    1    1    2  504  502  0.32555021885E+02  0.16005089479E+02  0.28905846329E+03  0.29132591292E+03  0.00000000000E+00 0.  1.
         21    1    1    2  505  501 -0.75870335570E+02  0.76395007681E+02 -0.92659146502E+02  0.14205007022E+03  0.00000000000E+00 0. -1.
          1    1    1    2  501    0  0.12436847960E+02 -0.82987988409E+02 -0.16341468051E+04  0.16362999304E+04  0.00000000000E+00 0.  1.
<scales pt_clust_3="32.28107" pt_clust_4="61.35795" pt_clust_5="14000.00000" pt_clust_6="84.07721"></scales>
<clustering>
<clus scale="   32.281">  1  3  2 -1</clus>
<clus scale="   61.358">  1  4  2 -1</clus>
<clus scale="   84.077">  2  6  1 -1</clus>
<clus scale="   32.281">  1  3  2 -1</clus>
</clustering>
</event>
<event>
 6    0  0.3522959E+002  0.1404281E+03  0.7546771E-02  0.1212754E+00
         -3   -1    0    0    0  501 -0.00000000000E+00  0.00000000000E+00  0.64678916464E+02  0.64678916464E+02  0.00000000000E+00 0. -1.
         21   -1    0    0  503  502  0.00000000000E+00 -0.00000000000E+00 -0.10699714341E+04  0.10699714341E+04  0.00000000000E+00 0. -1.
         21    1    1    2  503  501  0.55713894736E+01  0.66447794028E+02 -0.24333907457E+03  0.25230983913E+03  0.00000000000E+00 0. -1.
         21    1    1    2  504  502 -0.74598185266E+01  0.67147319236E+02 -0.72824291803E+03  0.73137005615E+03  0.00000000000E+00 0. -1.
         21    1    1    2  505  504  0.26620339402E+02 -0.10736958142E+03 -0.20059538676E+02  0.11242443941E+03  0.00000000000E+00 0. -1.
         -3    1    1    2    0  505 -0.24731910349E+02 -0.26225531844E+02 -0.13650986343E+02  0.38546015854E+02  0.00000000000E+00 0. -1.
<scales pt_clust_3="66.68095" pt_clust_4="126.15700" pt_clust_5="35.21019" pt_clust_6="35.21019"></scales>
<clustering>
<clus scale="   35.210">  5  6 -1 -1</clus>
<clus scale="   66.681">  2  3  1 -1</clus>
<clus scale="  126.157">  2  4  1 -1</clus>
<clus scale="   66.681">  2  3  1 -1</clus>
</clustering>
</event>
<event>
 6    0  0.3522959E+002  0.1088073E+03  0.7546771E-02  0.1262795E+00
         21   -1    0    0  501  502  0.00000000000E+00  0.00000000000E+00  0.55867145633E+03  0.55867145633E+03  0.00000000000E+00 0. -1.
          2   -1    0    0  505    0 -0.00000000000E+00 -0.00000000000E+00 -0.60693289518E+03  0.60693289518E+03  0.00000000000E+00 0. -1.
         21    1    1    2  503  504  0.68560333771E+01 -0.49501042848E+02  0.27655444072E+03  0.28103330251E+03  0.00000000000E+00 0. -1.
         21    1    1    2  504  502 -0.27522919793E+02 -0.52024818152E+02  0.25569710617E+03  0.26238350352E+03  0.00000000000E+00 0. -1.
         21    1    1    2  505  503 -0.62612063983E+02  0.89526209484E+02 -0.16262648681E+03  0.19591474409E+03  0.00000000000E+00 0. -1.
          2    1    1    2  501    0  0.83278950398E+02  0.11999651516E+02 -0.41788649893E+03  0.42627280139E+03  0.00000000000E+00 0. -1.
<scales pt_clust_3="32.90882" pt_clust_4="32.90882" pt_clust_5="102.77907" pt_clust_6="84.13902"></scales>
<clustering>
<clus scale="   32.909">  3  4 -1 -1</clus>
<clus scale="   84.139">  2  6  1 -1</clus>
<clus scale="  102.779">  2  5  1 -1</clus>
<clus scale="  108.807">  1  3  2 -1</clus>
</clustering>
</event>
<event>
 6    0  0.3522959E+002  0.1033740E+03  0.7546771E-02  0.1273357E+00
          2   -1    0    0  504    0 -0.00000000000E+00  0.00000000000E+00  0.77769825551E+03  0.77769825551E+03  0.00000000000E+00 0.  1.
         21   -1    0    0  503  502  0.00000000000E+00 -0.00000000000E+00 -0.14932464837E+03  0.14932464837E+03  0.00000000000E+00 0. -1.
         21    1    1    2  503  505  0.76801547962E+02  0.14755138688E+02 -0.97521972144E+02  0.12500690756E+03  0.00000000000E+00 0. -1.
         21    1    1    2  504  502 -0.80560487391E+01  0.70893575960E+02  0.86916623800E+01  0.71877284511E+02  0.00000000000E+00 0. -1.
         21    1    1    2  505  501 -0.73294643413E+02 -0.52603232620E+02  0.35064194958E+03  0.36206212400E+03  0.00000000000E+00 0.  1.
          2    1    1    2  501    0  0.45491441901E+01 -0.33045482028E+02  0.36656196734E+03  0.36807658781E+03  0.00000000000E+00 0.  1.
<scales pt_clust_3="103.37403" pt_clust_4="68.07632" pt_clust_5="14000.00000" pt_clust_6="33.35714"></scales>
<clustering>
<clus scale="   33.357">  1  6  2 -1</clus>
<clus scale="   68.076">  2  4  1 -1</clus>
<clus scale="  103.374">  2  3  1 -1</clus>
<clus scale="   68.076">  2  3  1 -1</clus>
</clustering>
</event>
<event>
 6    0  0.3522959E+002  0.8583968E+02  0.7546771E-02  0.1313251E+00
          2   -1    0    0  504    0 -0.00000000000E+00  0.00000000000E+00  0.20078294094E+04  0.20078294094E+04  0.00000000000E+00 0.  1.
         21   -1    0    0  505  502  0.00000000000E+00 -0.00000000000E+00 -0.26184262451E+02  0.26184262451E+02  0.00000000000E+00 0.  1.
         21    1    1    2  503  501  0.67768613901E+02 -0.49223562381E+02  0.10615373425E+03  0.13521893143E+03  0.00000000000E+00 0.  1.
         21    1    1    2  504  502 -0.23436933943E+02 -0.43305441906E+02  0.12118705946E+03  0.13080884738E+03  0.00000000000E+00 0.  1.
         21    1    1    2  505  503 -0.60757419129E+02  0.40869756118E+01  0.16079420268E+03  0.17193877679E+03  0.00000000000E+00 0.  1.
          2    1    1    2  501    0  0.16425739171E+02  0.88442028675E+02  0.15935101505E+04  0.15960471162E+04  0.00000000000E+00 0.  1.
<scales pt_clust_3="85.83968" pt_clust_4="49.24075" pt_clust_5="67.25456" pt_clust_6="14000.00000"></scales>
<clustering>
<clus scale="   49.241">  2  4  1 -1</clus>
<clus scale="   67.255">  2  5  1 -1</clus>
<clus scale="   85.840">  2  3  1 -1</clus>
<clus scale="   49.241">  2  3  1 -1</clus>
</clustering>
</event>
<event>
 6    0  0.3522959E+002  0.8425830E+02  0.7546771E-02  0.1317384E+00
         21   -1    0    0  503  502  0.00000000000E+00  0.00000000000E+00  0.19520857115E+03  0.19520857115E+03  0.00000000000E+00 0.  1.
          2   -1    0    0  505    0 -0.00000000000E+00 -0.00000000000E+00 -0.12896545975E+04  0.12896545975E+04  0.00000000000E+00 0. -1.
         21    1    1    2  503  501  0.33674882836E+02 -0.97093173625E+02  0.11531125781E+03  0.15445960079E+03  0.00000000000E+00 0.  1.
         21    1    1    2  504  502 -0.27966108633E+02  0.37627878327E+02  0.10555559321E+02  0.48056012028E+02  0.00000000000E+00 0.  1.
         21    1    1    2  505  504  0.47953098804E+02 -0.53282155409E+01  0.99066661895E+01  0.49254762213E+02  0.00000000000E+00 0.  1.
          2    1    1    2  501    0 -0.53661873007E+02  0.64793510839E+02 -0.12302195096E+04  0.12330927936E+04  0.00000000000E+00 0. -1.
<scales pt_clust_3="14000.00000" pt_clust_4="46.88241" pt_clust_5="42.98888" pt_clust_6="84.25830"></scales>
<clustering>
<clus scale="   46.882">  1  4  2 -1</clus>
<clus scale="   42.989">  1  5  2 -1</clus>
<clus scale="   84.258">  2  6  1 -1</clus>
<clus scale="   46.882">  1  3  2 -1</clus>
</clustering>
</event>
<event>
 6    0  0.3522959E+002  0.2487594E+03  0.7546771E-02  0.1114091E+00
          1   -1    0    0  504    0 -0.00000000000E+00  0.00000000000E+00  0.30750967343E+04  0.30750967343E+04  0.00000000000E+00 0.  1.
         21   -1    0    0  505  502  0.00000000000E+00 -0.00000000000E+00 -0.75858000500E+02  0.75858000500E+02  0.00000000000E+00 0. -1.
         21    1    1    2  503  501 -0.56843135573E+02  0.19655446742E+02  0.23790893017E+03  0.24539384203E+03  0.00000000000E+00 0. -1.
         21    1    1    2  504  502  0.19961883835E+03 -0.13219732534E+03  0.27392169366E+03  0.36380888900E+03  0.00000000000E+00 0. -1.
         21    1    1    2  505  503 -0.17110268778E+03 -0.51585140826E+00  0.25971329328E+03  0.31101027406E+03  0.00000000000E+00 0. -1.
          1    1    1    2  501    0  0.28326984999E+02  0.11305773001E+03  0.22276948167E+04  0.22307417297E+04  0.00000000000E+00 0.  1.
<scales pt_clust_3="58.18771" pt_clust_4="228.58084" pt_clust_5="58.18771" pt_clust_6="116.55243"></scales>
<clustering>
<clus scale="   58.188">  3  5 -1 -1</clus>
<clus scale="  116.552">  1  6  2 -1</clus>
<clus scale="  228.581">  2  4  1 -1</clus>
<clus scale="  228.581">  2  3  1 -1</clus>
</clustering>
</event>
<event>
 6    0  0.3522959E+002  0.7645855E+02  0.7546771E-02  0.1339413E+00
         -2   -1    0    0    0  501 -0.00000000000E+00  0.00000000000E+00  0.36205669367E+03  0.36205669367E+03  0.00000000000E+00 0.  1.
         21   -1    0    0  505  502  0.00000000000E+00 -0.00000000000E+00 -0.11252802662E+04  0.11252802662E+04  0.00000000000E+00 0.  1.
         21    1    1    2  503  504 -0.44887211448E+02  0.38185642147E+02  0.36597751133E+02  0.69371466799E+02  0.00000000000E+00 0. -1.
         21    1    1    2  504  502 -0.50545835400E+02  0.82425946656E+01 -0.10899187129E+03  0.12042445702E+03  0.00000000000E+00 0. -1.
         21    1    1    2  505  501  0.53629023549E+02  0.25978782512E+02 -0.98750912960E+03  0.98930543835E+03  0.00000000000E+00 0.  1.
         -2    1    1    2    0  503  0.41804023299E+02 -0.72407019325E+02  0.29667967722E+03  0.30823559769E+03  0.00000000000E+00 0.  1.
<scales pt_clust_3="76.45855" pt_clust_4="51.21349" pt_clust_5="34.29771" pt_clust_6="14000.00000"></scales>
<clustering>
<clus scale="   51.213">  2  4  1 -1</clus>
<clus scale="   34.298">  2  5  1 -1</clus>
<clus scale="   76.459">  2  3  1 -1</clus>
<clus scale="   51.213">  2  3  1 -1</clus>
</clustering>
</event>
<event>
 6    0  0.3522959E+002  0.7562133E+02  0.7546771E-02  0.1341958E+00
         -2   -1    0    0    0  501 -0.00000000000E+00  0.00000000000E+00  0.57132352064E+03  0.57132352064E+03  0.00000000000E+00 0. -1.
         21   -1    0    0  504  502  0.00000000000E+00 -0.00000000000E+00 -0.13534640359E+03  0.13534640359E+03  0.00000000000E+00 0.  1.
         21    1    1    2  503  502  0.27134312712E+01  0.36886034324E+02  0.24225424915E+02  0.44213272325E+02  0.00000000000E+00 0. -1.
         21    1    1    2  504  505 -0.60277581714E+02 -0.49057571994E+02 -0.38862541144E+02  0.86892631054E+02  0.00000000000E+00 0. -1.
         21    1    1    2  505  501  0.10226025259E+03 -0.47281898901E+02 -0.61053391229E+01  0.11282735656E+03  0.00000000000E+00 0.  1.
         -2    1    1    2    0  503 -0.44696102147E+02  0.59453436572E+02  0.45671957240E+03  0.46273666430E+03  0.00000000000E+00 0. -1.
<scales pt_clust_3="36.98570" pt_clust_4="66.36853" pt_clust_5="75.62133" pt_clust_6="14000.00000"></scales>
<clustering>
<clus scale="   36.986">  2  3  1 -1</clus>
<clus scale="   66.369">  2  4  1 -1</clus>
<clus scale="   75.621">  2  5  1 -1</clus>
<clus scale="   36.986">  2  3  1 -1</clus>
</clustering>
</event>
<event>
 6    0  0.3522959E+002  0.8832308E+02  0.7546771E-02  0.1306964E+00
          1   -1    0    0  503    0 -0.00000000000E+00  0.00000000000E+00  0.70658265005E+03  0.70658265005E+03  0.00000000000E+00 0. -1.
         21   -1    0    0  501  502  0.00000000000E+00 -0.00000000000E+00 -0.42128628659E+02  0.42128628659E+02  0.00000000000E+00 0.  1.
         21    1    1    2  503  505  0.36409675134E+02 -0.44737370657E+01  0.24280835543E+03  0.24556379259E+03  0.00000000000E+00 0. -1.
         21    1    1    2  504  502  0.69325457716E+02  0.59677481023E+02  0.63490161325E+02  0.11134819897E+03  0.00000000000E+00 0.  1.
         21    1    1    2  505  504 -0.48411245444E+02 -0.69974466932E+02  0.12475936923E+03  0.15101316140E+03  0.00000000000E+00 0. -1.
          1    1    1    2  501    0 -0.57323887406E+02  0.14770722975E+02  0.23339613541E+03  0.24078612574E+03  0.00000000000E+00 0. -1.
<scales pt_clust_3="36.68349" pt_clust_4="14000.00000" pt_clust_5="88.32308" pt_clust_6="40.61876"></scales>
<clustering>
<clus scale="   36.683">  1  3  2 -1</clus>
<clus scale="   40.619">  1  6  2 -1</clus>
<clus scale="   88.323">  1  5  2 -1</clus>
<clus scale="   88.323">  2  3  1 -1</clus>
</clustering>
</event>
<event>
 6    0  0.3522959E+002  0.2402868E+03  0.7546771E-02  0.1119602E+00
          2   -1    0    0  502    0 -0.00000000000E+00  0.00000000000E+00  0.10190978535E+04  0.10190978535E+04  0.00000000000E+00 0.  1.
         21   -1    0    0  504  502  0.00000000000E+00 -0.00000000000E+00 -0.34893607417E+03  0.34893607417E+03  0.00000000000E+00 0. -1.
         21    1    1    2  503  501 -0.18538303544E+03 -0.13789988105E+03  0.41871906702E+03  0.47823519748E+03  0.00000000000E+00 0.  1.
         21    1    1    2  504  505  0.32111052940E+02  0.39536561052E+02 -0.25036387980E+02  0.56754560203E+02  0.00000000000E+00 0. -1.
         21    1    1    2  505  503  0.17052341150E+03  0.59799693357E+02 -0.24800787483E+03  0.30685850677E+03  0.00000000000E+00 0. -1.
          2    1    1    2  501    0 -0.17251429003E+02  0.38563626639E+02  0.52448697517E+03  0.52618566326E+03  0.00000000000E+00 0.  1.
<scales pt_clust_3="225.84261" pt_clust_4="43.85346" pt_clust_5="43.85346" pt_clust_6="42.24648"></scales>
<clustering>
<clus scale="   42.246">  1  6  2 -1</clus>
<clus scale="   43.853">  4  5 -1 -1</clus>
<clus scale="  225.843">  1  3  2 -1</clus>
<clus scale="  240.287">  2  3  1 -1</clus>
</clustering>
</event>
<event>
 6    0  0.3522959E+002  0.2174770E+03  0.7546771E-02  0.1135778E+00
          2   -1    0    0  505    0 -0.00000000000E+00  0.00000000000E+00  0.19092247339E+04  0.19092247339E+04  0.00000000000E+00 0. -1.
         21   -1    0    0  504  502  0.00000000000E+00 -0.00000000000E+00 -0.60440379289E+02  0.60440379289E+02  0.00000000000E+00 0. -1.
         21    1    1    2  503  501 -0.19188157027E+03 -0.59398034869E+02  0.10796283435E+04  0.10981548268E+04  0.00000000000E+00 0. -1.
         21    1    1    2  504  503  0.19308354895E+03  0.85881228735E+02  0.22985779296E+03  0.31223620435E+03  0.00000000000E+00 0. -1.
         21    1    1    2  505  502  0.33818834528E+02 -0.48461759740E+02  0.87491484884E+02  0.10557942817E+03  0.00000000000E+00 0. -1.
          2    1    1    2  501    0 -0.35020813207E+02  0.21978565873E+02  0.45180673319E+03  0.45369465378E+03  0.00000000000E+00 0. -1.
<scales pt_clust_3="14000.00000" pt_clust_4="217.47700" pt_clust_5="56.58245" pt_clust_6="41.34628"></scales>
<clustering>
<clus scale="   41.346">  1  6  2 -1</clus>
<clus scale="   56.582">  2  5  1 -1</clus>
<clus scale="  217.477">  2  4  1 -1</clus>
<clus scale="   56.582">  2  3  1 -1</clus>
</clustering>
</event>
<event>
 6    0  0.3522959E+002  0.7590489E+02  0.7546771E-02  0.1341092E+00
         21   -1    0    0  503  502  0.00000000000E+00  0.00000000000E+00  0.90803253558E+02  0.90803253558E+02  0.00000000000E+00 0.  1.
          4   -1    0    0  502    0 -0.00000000000E+00 -0.00000000000E+00 -0.73999699771E+03  0.73999699771E+03  0.00000000000E+00 0. -1.
         21    1    1    2  503  504  0.84588728119E+01 -0.41367746785E+02  0.45980593564E+02  0.62426420591E+02  0.00000000000E+00 0.  1.
         21    1    1    2  504  505 -0.94699765266E+02  0.31721161442E+02 -0.51544006394E+02  0.11238799856E+03  0.00000000000E+00 0.  1.
         21    1    1    2  505  501  0.44315014064E+02 -0.30197123982E+02 -0.15647316391E+03  0.16540718785E+03  0.00000000000E+00 0. -1.
          4    1    1    2  501    0  0.41925878390E+02  0.39843709325E+02 -0.48715716742E+03  0.49057864427E+03  0.00000000000E+00 0. -1.
<scales pt_clust_3="42.22373" pt_clust_4="14000.00000" pt_clust_5="75.90489" pt_clust_6="56.81783"></scales>
<clustering>
<clus scale="   42.224">  1  3  2 -1</clus>
<clus scale="   56.818">  2  6  1 -1</clus>
<clus scale="   75.905">  2  5  1 -1</clus>
<clus scale="   42.224">  1  3  2 -1</clus>
</clustering>
</event>
<event>
 6    0  0.3522959E+002  0.9796776E+02  0.7546771E-02  0.1284628E+00
         21   -1    0    0  504  502  0.00000000000E+00  0.00000000000E+00  0.15308365081E+02  0.15308365081E+02  0.00000000000E+00 0.  1.
          2   -1    0    0  505    0 -0.00000000000E+00 -0.00000000000E+00 -0.34741394862E+04  0.34741394862E+04  0.00000000000E+00 0. -1.
         21    1    1    2  503  501  0.39870566473E+02  0.49847106355E+02 -0.17577517477E+03  0.18700617142E+03  0.00000000000E+00 0.  1.
         21    1    1    2  504  503  0.47285396491E+02  0.68650603578E+01 -0.13790869073E+03  0.14595151508E+03  0.00000000000E+00 0.  1.
         21    1    1    2  505  502 -0.46658875414E+01 -0.93296656172E+02 -0.43851946858E+03  0.44835851825E+03  0.00000000000E+00 0.  1.
          2    1    1    2  501    0 -0.82490075423E+02  0.36584489459E+02 -0.27066277870E+04  0.27081316465E+04  0.00000000000E+00 0. -1.
<scales pt_clust_3="35.15301" pt_clust_4="35.15301" pt_clust_5="89.14516" pt_clust_6="90.23878"></scales>
<clustering>
<clus scale="   35.153">  3  4 -1 -1</clus>
<clus scale="   90.239">  2  6  1 -1</clus>
<clus scale="   89.145">  2  5  1 -1</clus>
<clus scale="   97.968">  1  3  2 -1</clus>
</clustering>
</event>
<event>
 6    0  0.3522959E+002  0.1700566E+03  0.7546771E-02  0.1177789E+00
         21   -1    0    0  505  502  0.00000000000E+00  0.00000000000E+00  0.14268335666E+03  0.14268335666E+03  0.00000000000E+00 0. -1.
          2   -1    0    0  503    0 -0.00000000000E+00 -0.00000000000E+00 -0.25799659204E+04  0.25799659204E+04  0.00000000000E+00 0. -1.
         21    1    1    2  503  504  0.21518355750E+02 -0.27761450707E+02  0.76309028530E+01  0.35943962746E+02  0.00000000000E+00 0.  1.
         21    1    1    2  504  502 -0.47226923999E+02 -0.12328718913E+03  0.64221337125E+02  0.14681448667E+03  0.00000000000E+00 0. -1.
         21    1    1    2  505  501  0.70535496779E+01  0.17709179276E+03 -0.49967672932E+03  0.53017741318E+03  0.00000000000E+00 0. -1.
          2    1    1    2  501    0  0.18655018571E+02 -0.26043152925E+02 -0.20094580744E+04  0.20097134145E+04  0.00000000000E+00 0. -1.
<scales pt_clust_3="35.81672" pt_clust_4="35.81672" pt_clust_5="155.42832" pt_clust_6="32.03522"></scales>
<clustering>
<clus scale="   32.035">  2  6  1 -1</clus>
<clus scale="   35.817">  3  4 -1 -1</clus>
<clus scale="  155.428">  2  5  1 -1</clus>
<clus scale="  170.057">  1  3  2 -1</clus>
</clustering>
</event>
<event>
 6    0  0.3522959E+002  0.6188098E+02  0.7546771E-02  0.1390103E+00
         21   -1    0    0  503  502  0.00000000000E+00  0.00000000000E+00  0.23100071044E+03  0.23100071044E+03  0.00000000000E+00 0. -1.
          2   -1    0    0  504    0 -0.00000000000E+00 -0.00000000000E+00 -0.11269860080E+04  0.11269860080E+04  0.00000000000E+00 0. -1.
         21    1    1    2  503  505 -0.49759442498E+02  0.46212001289E+01  0.13443771217E+01  0.49991648884E+02  0.00000000000E+00 0. -1.
         21    1    1    2  504  502  0.48198666397E+02  0.47758987394E+02  0.18813130993E+03  0.19999355514E+03  0.00000000000E+00 0. -1.
         21    1    1    2  505  501 -0.58693021612E+02 -0.62344923177E+02 -0.16849035998E+03  0.18899936941E+03  0.00000000000E+00 0. -1.
          2    1    1    2  501    0  0.60253797713E+02  0.99647356542E+01 -0.91697062464E+03  0.91900214502E+03  0.00000000000E+00 0. -1.
<scales pt_clust_3="49.97357" pt_clust_4="52.13968" pt_clust_5="14000.00000" pt_clust_6="61.88098"></scales>
<clustering>
<clus scale="   49.974">  1  3  2 -1</clus>
<clus scale="   52.140">  1  4  2 -1</clus>
<clus scale="   61.881">  2  6  1 -1</clus>
<clus scale="   49.974">  1  3  2 -1</clus>
</clustering>
</event>
<event>
 6    0  0.3522959E+002  0.1058207E+03  0.7546771E-02  0.1268511E+00
         21   -1    0    0  503  502  0.00000000000E+00  0.00000000000E+00  0.26475073934E+03  0.26475073934E+03  0.00000000000E+00 0. -1.
          2   -1    0    0  504    0 -0.00000000000E+00 -0.00000000000E+00 -0.24616892920E+04  0.24616892920E+04  0.00000000000E+00 0. -1.
         21    1    1    2  503  505  0.83816313297E+02  0.53912635064E+02  0.16585213329E+03  0.19349076647E+03  0.00000000000E+00 0. -1.
         21    1    1    2  504  502 -0.19888147443E+02  0.24814123016E+02 -0.30664477346E+01  0.31948117495E+02  0.00000000000E+00 0. -1.
         21    1    1    2  505  501 -0.97569577161E+02 -0.68470511397E+02  0.20131517471E+02  0.12088552980E+03  0.00000000000E+00 0. -1.
          2    1    1    2  501    0  0.33641411308E+02 -0.10256246683E+02 -0.23798557557E+04  0.23801156176E+04  0.00000000000E+00 0. -1.
<scales pt_clust_3="14000.00000" pt_clust_4="31.80061" pt_clust_5="105.82072" pt_clust_6="35.15646"></scales>
<clustering>
<clus scale="   31.801">  1  4  2 -1</clus>
<clus scale="   35.156">  2  6  1 -1</clus>
<clus scale="  105.821">  2  5  1 -1</clus>
<clus scale="   31.801">  1  3  2 -1</clus>
</clustering>
</event>
<event>
 6    0  0.3522959E+002  0.1285563E+03  0.7546771E-02  0.1229614E+00
          1   -1    0    0  504    0 -0.00000000000E+00  0.00000000000E+00  0.12159335328E+04  0.12159335328E+04  0.00000000000E+00 0. -1.
         21   -1    0    0  505  502  0.00000000000E+00 -0.00000000000E+00 -0.16820826493E+03  0.16820826493E+03  0.00000000000E+00 0.  1.
         21    1    1    2  503  501 -0.25774568553E+02  0.63263949977E+02 -0.19768067572E+02  0.71115625894E+02  0.00000000000E+00 0. -1.
         21    1    1    2  504  502  0.56275941530E+02 -0.85699024460E+02  0.26535899496E+02  0.10590306110E+03  0.00000000000E+00 0.  1.
         21    1    1    2  505  503 -0.21261455776E+02  0.59049866696E+02 -0.70863936724E+02  0.94660624266E+02  0.00000000000E+00 0.  1.
          1    1    1    2  501    0 -0.92399172011E+01 -0.36614792212E+02  0.11118213727E+04  0.11124624865E+04  0.00000000000E+00 0. -1.
<scales pt_clust_3="45.07911" pt_clust_4="120.13403" pt_clust_5="45.07911" pt_clust_6="37.76267"></scales>
<clustering>
<clus scale="   37.763">  1  6  2 -1</clus>
<clus scale="   45.079">  3  5 -1 -1</clus>
<clus scale="  120.134">  1  4  2 -1</clus>
<clus scale="  128.556">  2  3  1 -1</clus>
</clustering>
</event>
<event>
 6    0  0.3522959E+002  0.1141470E+03  0.7546771E-02  0.1253077E+00
         21   -1    0    0  503  502  0.00000000000E+00  0.00000000000E+00  0.34918468016E+03  0.34918468016E+03  0.00000000000E+00 0.  1.
         -3   -1    0    0    0  501 -0.00000000000E+00 -0.00000000000E+00 -0.28845592256E+03  0.28845592256E+03  0.00000000000E+00 0.  1.
         21    1    1    2  503  505  0.29236940375E+02  0.20848991641E+02  0.49731158837E+02  0.61340584397E+02  0.00000000000E+00 0.  1.
         21    1    1    2  504  502  0.11073408732E+03 -0.85968376490E+02  0.65584095161E+02  0.15477038925E+03  0.00000000000E+00 0.  1.
         21    1    1    2  505  501 -0.90311521628E+02  0.60317495185E+02  0.16434441828E+03  0.19698593601E+03  0.00000000000E+00 0.  1.
         -3    1    1    2    0  504 -0.49659506070E+02  0.48018896643E+01 -0.21893091468E+03  0.22454369305E+03  0.00000000000E+00 0.  1.
<scales pt_clust_3="35.90932" pt_clust_4="114.14702" pt_clust_5="14000.00000" pt_clust_6="49.63270"></scales>
<clustering>
<clus scale="   35.909">  1  3  2 -1</clus>
<clus scale="   49.633">  2  6  1 -1</clus>
<clus scale="  114.147">  2  4  1 -1</clus>
<clus scale="   35.909">  1  3  2 -1</clus>
</clustering>
</event>
<event>
 6    0  0.3522959E+002  0.7267600E+02  0.7546771E-02  0.1351223E+00
         -2   -1    0    0    0  501 -0.00000000000E+00  0.00000000000E+00  0.11353803949E+04  0.11353803949E+04  0.00000000000E+00 0. -1.
         21   -1    0    0  504  502  0.00000000000E+00 -0.00000000000E+00 -0.63257087520E+02  0.63257087520E+02  0.00000000000E+00 0.  1.
         21    1    1    2  503  501  0.66593498807E+02  0.18024834621E+02  0.83498404950E+03  0.83782930939E+03  0.00000000000E+00 0.  1.
         21    1    1    2  504  503  0.57797228330E+02  0.26917396529E+02 -0.18249577532E+02  0.66318269870E+02  0.00000000000E+00 0.  1.
         21    1    1    2  505  502 -0.32322178662E+02 -0.83317159084E+01  0.19547772495E+02  0.38681470149E+02  0.00000000000E+00 0. -1.
         -2    1    1    2    0  505 -0.92068548475E+02 -0.36610515241E+02  0.23584106295E+03  0.25580843304E+03  0.00000000000E+00 0. -1.
<scales pt_clust_3="72.67600" pt_clust_4="38.21449" pt_clust_5="33.37875" pt_clust_6="14000.00000"></scales>
<clustering>
<clus scale="   33.379">  2  5  1 -1</clus>
<clus scale="   38.214">  2  4  1 -1</clus>
<clus scale="   72.676">  1  3  2 -1</clus>
<clus scale="   33.379">  2  3  1 -1</clus>
</clustering>
</event>
<event>
 6    0  0.3522959E+002  0.1059106E+03  0.7546771E-02  0.1268336E+00
          2   -1    0    0  503    0 -0.00000000000E+00  0.00000000000E+00  0.12990203357E+03  0.12990203357E+03  0.00000000000E+00 0.  1.
         21   -1    0    0  504  502  0.00000000000E+00 -0.00000000000E+00 -0.23867569530E+04  0.23867569530E+04  0.00000000000E+00 0.  1.
         21    1    1    2  503  502  0.58414240603E+02  0.26889742753E+02 -0.15502619844E+04  0.15515951476E+04  0.00000000000E+00 0.  1.
         21    1    1    2  504  505  0.55128977074E+02 -0.25624056658E+02 -0.68375629817E+03  0.68645354663E+03  0.00000000000E+00 0.  1.
         21    1    1    2  505  501 -0.92102612175E+02 -0.52680373327E+02 -0.12395347776E+03  0.16316426555E+03  0.00000000000E+00 0.  1.
          2    1    1    2  501    0 -0.21440605502E+02  0.51414687232E+02  0.10111684081E+03  0.11544602688E+03  0.00000000000E+00 0.  1.
<scales pt_clust_3="14000.00000" pt_clust_4="58.27568" pt_clust_5="105.91062" pt_clust_6="55.70610"></scales>
<clustering>
<clus scale="   55.706">  1  6  2 -1</clus>
<clus scale="   58.276">  2  4  1 -1</clus>
<clus scale="  105.911">  1  5  2 -1</clus>
<clus scale="   58.276">  2  3  1 -1</clus>
</clustering>
</event>
<event>
 6    0  0.3522959E+002  0.9012511E+02  0.7546771E-02  0.1302549E+00
          4   -1    0    0  504    0 -0.00000000000E+00  0.00000000000E+00  0.32573716977E+03  0.32573716977E+03  0.00000000000E+00 0.  1.
         21   -1    0    0  505  502  0.00000000000E+00 -0.00000000000E+00 -0.12840706402E+04  0.12840706402E+04  0.00000000000E+00 0. -1.
         21    1    1    2  503  502 -0.27840536920E+02  0.17992514667E+02 -0.69867730986E+03  0.69946322948E+03  0.00000000000E+00 0. -1.
         21    1    1    2  504  503  0.18845746603E+02 -0.12148545201E+03  0.10799825156E+03  0.16363831934E+03  0.00000000000E+00 0.  1.
         21    1    1    2  505  501  0.13332841790E+02  0.71013706324E+02 -0.55339772989E+03  0.55809475773E+03  0.00000000000E+00 0. -1.
          4    1    1    2  501    0 -0.43380514739E+01  0.32479231018E+02  0.18574331775E+03  0.18861150343E+03  0.00000000000E+00 0.  1.
<scales pt_clust_3="33.20895" pt_clust_4="14000.00000" pt_clust_5="90.12511" pt_clust_6="32.76765"></scales>
<clustering>
<clus scale="   32.768">  1  6  2 -1</clus>
<clus scale="   33.209">  2  3  1 -1</clus>
<clus scale="   90.125">  2  5  1 -1</clus>
<clus scale="   33.209">  2  3  1 -1</clus>
</clustering>
</event>
<event>
 6    0  0.3522959E+002  0.1064867E+03  0.7546771E-02  0.1267218E+00
         -3   -1    0    0    0  501 -0.00000000000E+00  0.00000000000E+00  0.75567914234E+02  0.75567914234E+02  0.00000000000E+00 0.  1.
         21   -1    0    0  505  502  0.00000000000E+00 -0.00000000000E+00 -0.10286228399E+04  0.10286228399E+04  0.00000000000E+00 0.  1.
         21    1    1    2  503  504 -0.10452467095E+03 -0.12448582405E+02 -0.74343954726E+02  0.12886969250E+03  0.00000000000E+00 0.  1.
         21    1    1    2  504  502  0.82677333507E+02 -0.73862625571E+02 -0.85708238782E+03  0.86422303166E+03  0.00000000000E+00 0.  1.
         21    1    1    2  505  501  0.11221447100E+02  0.30506034346E+02 -0.39863089379E+02  0.51435444018E+02  0.00000000000E+00 0.  1.
         -3    1    1    2    0  503  0.10625890345E+02  0.55805173630E+02  0.18234506228E+02  0.59662585989E+02  0.00000000000E+00 0.  1.
<scales pt_clust_3="106.48666" pt_clust_4="14000.00000" pt_clust_5="32.50445" pt_clust_6="74.76464"></scales>
<clustering>
<clus scale="   32.504">  1  5  2 -1</clus>
<clus scale="   74.765">  1  6  2 -1</clus>
<clus scale="  106.487">  1  3  2 -1</clus>
<clus scale="  106.487">  2  3  1 -1</clus>
</clustering>
</event>
<event>
 6    0  0.3522959E+002  0.1173806E+03  0.7546771E-02  0.1247482E+00
         -2   -1    0    0    0  501 -0.00000000000E+00  0.00000000000E+00  0.22018128278E+03  0.22018128278E+03  0.00000000000E+00 0. -1.
         21   -1    0    0  504  502  0.00000000000E+00 -0.00000000000E+00 -0.66696076416E+03  0.66696076416E+03  0.00000000000E+00 0.  1.
         21    1    1    2  503  502 -0.91184510656E+02 -0.33496586196E+02 -0.35014769963E+03  0.36337315232E+03  0.00000000000E+00 0.  1.
         21    1    1    2  504  501  0.33178622117E+02  0.13872336126E+03 -0.15523526757E+03  0.21081503794E+03  0.00000000000E+00 0.  1.
         21    1    1    2  505  503  0.86159457032E+02 -0.91191240208E+02 -0.94238396036E+02  0.15690815662E+03  0.00000000000E+00 0.  1.
         -2    1    1    2    0  505 -0.28153568493E+02 -0.14035534853E+02  0.15284188185E+03  0.15604570006E+03  0.00000000000E+00 0. -1.
<scales pt_clust_3="100.28816" pt_clust_4="14000.00000" pt_clust_5="117.38058" pt_clust_6="31.45822"></scales>
<clustering>
<clus scale="   31.458">  1  6  2 -1</clus>
<clus scale="  100.288">  2  3  1 -1</clus>
<clus scale="  117.381">  1  5  2 -1</clus>
<clus scale="  100.288">  2  3  1 -1</clus>
</clustering>
</event>
<event>
 6    0  0.3522959E+002  0.9341136E+02  0.7546771E-02  0.1294795E+00
          2   -1    0    0  503    0 -0.00000000000E+00  0.00000000000E+00  0.34584697385E+03  0.34584697385E+03  0.00000000000E+00 0. -1.
         21   -1    0    0  505  502  0.00000000000E+00 -0.00000000000E+00 -0.78062309609E+03  0.78062309609E+03  0.00000000000E+00 0. -1.
         21    1    1    2  503  504 -0.56808004363E+02 -0.45842759484E+02 -0.30605615747E+03  0.31464119165E+03  0.00000000000E+00 0. -1.
         21    1    1    2  504  502 -0.24226655541E+02 -0.28743037959E+02 -0.55604847840E+02  0.67119238473E+02  0.00000000000E+00 0. -1.
         21    1    1    2  505  501  0.41182940122E+02  0.11981809184E+03 -0.39624330426E+03  0.41600620892E+03  0.00000000000E+00 0. -1.
          2    1    1    2  501    0  0.39851719782E+02 -0.45232294400E+02  0.32312818734E+03  0.32870343089E+03  0.00000000000E+00 0. -1.
<scales pt_clust_3="14000.00000" pt_clust_4="37.59113" pt_clust_5="93.41136" pt_clust_6="60.30535"></scales>
<clustering>
<clus scale="   37.591">  2  4  1 -1</clus>
<clus scale="   60.305">  1  6  2 -1</clus>
<clus scale="   93.411">  2  5  1 -1</clus>
<clus scale="   37.591">  2  3  1 -1</clus>
</clustering>
</event>
<event>
 6    0  0.3522959E+002  0.9772956E+02  0.7546771E-02  0.1285144E+00
         21   -1    0    0  505  502  0.00000000000E+00  0.00000000000E+00  0.15573072107E+03  0.15573072107E+03  0.00000000000E+00 0. -1.
          2   -1    0    0  503    0 -0.00000000000E+00 -0.00000000000E+00 -0.80348785124E+03  0.80348785124E+03  0.00000000000E+00 0.  1.
         21    1    1    2  503  504 -0.12289709581E+03 -0.71232210622E+02  0.96922140495E+01  0.14237859039E+03  0.00000000000E+00 0. -1.
         21    1    1    2  504  502 -0.30545662040E+02  0.92174827886E+02 -0.43254514370E+02  0.10630234889E+03  0.00000000000E+00 0. -1.
         21    1    1    2  505  501  0.57689940563E+02 -0.30144290658E+02  0.20772678316E+02  0.68325044207E+02  0.00000000000E+00 0. -1.
          2    1    1    2  501    0  0.95752817288E+02  0.92016733938E+01 -0.63496750817E+03  0.64221258882E+03  0.00000000000E+00 0.  1.
<scales pt_clust_3="97.72956" pt_clust_4="84.82297" pt_clust_5="65.09076" pt_clust_6="14000.00000"></scales>
<clustering>
<clus scale="   65.091">  1  5  2 -1</clus>
<clus scale="   84.823">  1  4  2 -1</clus>
<clus scale="   97.730">  1  3  2 -1</clus>
<clus scale="   65.091">  1  3  2 -1</clus>
</clustering>
</event>
<event>
 6    0  0.3522959E+002  0.7291591E+02  0.7546771E-02  0.1350449E+00
         21   -1    0    0  505  502  0.00000000000E+00  0.00000000000E+00  0.73051976902E+02  0.73051976902E+02  0.00000000000E+00 0.  1.
          2   -1    0    0  504    0 -0.00000000000E+00 -0.00000000000E+00 -0.25666536531E+04  0.25666536531E+04  0.00000000000E+00 0.  1.
         21    1    1    2  503  502 -0.42167254461E+02 -0.37429709423E+01  0.39866932800E+02  0.58150318238E+02  0.00000000000E+00 0.  1.
         21    1    1    2  504  503 -0.27306473619E+02  0.33316570724E+02 -0.23438907281E+01  0.43140829964E+02  0.00000000000E+00 0.  1.
         21    1    1    2  505  501  0.10422209275E+03 -0.77502658018E+02 -0.15101521584E+04  0.15157270362E+04  0.00000000000E+00 0.  1.
          2    1    1    2  501    0 -0.34748364674E+02  0.47929058236E+02 -0.10209725599E+04  0.10226874456E+04  0.00000000000E+00 0.  1.
<scales pt_clust_3="42.33305" pt_clust_4="14000.00000" pt_clust_5="72.91591" pt_clust_6="59.98863"></scales>
<clustering>
<clus scale="   42.333">  1  3  2 -1</clus>
<clus scale="   59.989">  2  6  1 -1</clus>
<clus scale="   72.916">  2  5  1 -1</clus>
<clus scale="   42.333">  1  3  2 -1</clus>
</clustering>
</event>
<event>
 6    0  0.3522959E+002  0.1208994E+03  0.7546771E-02  0.1241621E+00
          2   -1    0    0  505    0 -0.00000000000E+00  0.00000000000E+00  0.10874919047E+03  0.10874919047E+03  0.00000000000E+00 0.  1.
         21   -1    0    0  503  502  0.00000000000E+00 -0.00000000000E+00 -0.54031970482E+03  0.54031970482E+03  0.00000000000E+00 0.  1.
         21    1    1    2  503  501 -0.53285595259E+02  0.98288384738E+02 -0.26412416354E+03  0.28681271764E+03  0.00000000000E+00 0.  1.
         21    1    1    2  504  502  0.10894173288E+02 -0.51442042134E+02 -0.14300096622E+03  0.15236221005E+03  0.00000000000E+00 0.  1.
         21    1    1    2  505  504  0.45365454538E+01 -0.71388262059E+02 -0.99367977711E+02  0.12243716429E+03  0.00000000000E+00 0.  1.
          2    1    1    2  501    0  0.37854876517E+02  0.24541919456E+02  0.74922593121E+02  0.87456803318E+02  0.00000000000E+00 0.  1.
<scales pt_clust_3="114.76088" pt_clust_4="32.60962" pt_clust_5="32.60962" pt_clust_6="45.11427"></scales>
<clustering>
<clus scale="   32.610">  4  5 -1 -1</clus>
<clus scale="   45.114">  1  6  2 -1</clus>
<clus scale="  114.761">  2  3  1 -1</clus>
<clus scale="  114.761">  2  3  1 -1</clus>
</clustering>
</event>
<event>
 6    0  0.3522959E+002  0.2256892E+03  0.7546771E-02  0.1129711E+00
         21   -1    0    0  504  502  0.00000000000E+00  0.00000000000E+00  0.58628714809E+02  0.58628714809E+02  0.00000000000E+00 0. -1.
          2   -1    0    0  503    0 -0.00000000000E+00 -0.00000000000E+00 -0.28916124509E+04  0.28916124509E+04  0.00000000000E+00 0. -1.
         21    1    1    2  503  502  0.89121625838E+02  0.28260990550E+03 -0.12334822348E+04  0.12685777258E+04  0.00000000000E+00 0. -1.
         21    1    1    2  504  505 -0.97277347190E+02 -0.31166661495E+02 -0.17899821134E+03  0.20609367464E+03  0.00000000000E+00 0. -1.
         21    1    1    2  505  501 -0.89856545140E+02 -0.74918562575E+02 -0.15571675093E+03  0.19476831427E+03  0.00000000000E+00 0. -1.
          2    1    1    2  501    0  0.98012266492E+02 -0.17652468143E+03 -0.12647865390E+04  0.12808014510E+04  0.00000000000E+00 0. -1.
<scales pt_clust_3="220.34642" pt_clust_4="45.61479" pt_clust_5="45.61479" pt_clust_6="201.90931"></scales>
<clustering>
<clus scale="   45.615">  4  5 -1 -1</clus>
<clus scale="  201.909">  2  6  1 -1</clus>
<clus scale="  220.346">  2  3  1 -1</clus>
<clus scale="  225.689">  1  3  2 -1</clus>
</clustering>
</event>
<event>
 6    0  0.3522959E+002  0.1162722E+03  0.7546771E-02  0.1249377E+00
         21   -1    0    0  505  502  0.00000000000E+00  0.00000000000E+00  0.18119276021E+04  0.18119276021E+04  0.00000000000E+00 0. -1.
          2   -1    0    0  504    0 -0.00000000000E+00 -0.00000000000E+00 -0.13600627397E+03  0.13600627397E+03  0.00000000000E+00 0.  1.
         21    1    1    2  503  502 -0.43322116109E+02 -0.13955981531E+02  0.10672798133E+03  0.11602774308E+03  0.00000000000E+00 0. -1.
         21    1    1    2  504  503 -0.65205575388E+01  0.13337998566E+03  0.36118974048E+03  0.38508540205E+03  0.00000000000E+00 0. -1.
         21    1    1    2  505  501  0.12476775430E+03 -0.67385668324E+02  0.13055714383E+04  0.13132496340E+04  0.00000000000E+00 0. -1.
          2    1    1    2  501    0 -0.74925080656E+02 -0.52038335810E+02 -0.97567831941E+02  0.13357109693E+03  0.00000000000E+00 0.  1.
<scales pt_clust_3="45.51456" pt_clust_4="14000.00000" pt_clust_5="116.27225" pt_clust_6="91.68470"></scales>
<clustering>
<clus scale="   45.515">  1  3  2 -1</clus>
<clus scale="   91.685">  2  6  1 -1</clus>
<clus scale="  116.272">  1  5  2 -1</clus>
<clus scale="   45.515">  1  3  2 -1</clus>
</clustering>
</event>
<event>
 6    0  0.3522959E+002  0.8110298E+02  0.7546771E-02  0.1325950E+00
          2   -1    0    0  503    0 -0.00000000000E+00  0.00000000000E+00  0.29836073606E+04  0.29836073606E+04  0.00000000000E+00 0.  1.
         21   -1    0    0  504  502  0.00000000000E+00 -0.00000000000E+00 -0.22937282357E+03  0.22937282357E+03  0.00000000000E+00 0.  1.
         21    1    1    2  503  505  0.67258416399E+02  0.62703337142E+01 -0.92963338558E+02  0.11491385459E+03  0.00000000000E+00 0.  1.
         21    1    1    2  504  501  0.11228877532E+02 -0.30376073662E+02 -0.21467515574E+02  0.38854185961E+02  0.00000000000E+00 0.  1.
         21    1    1    2  505  502 -0.16905939009E+02  0.77097702967E+02 -0.78269574233E+02  0.11115751359E+03  0.00000000000E+00 0.  1.
          2    1    1    2  501    0 -0.61581354922E+02 -0.52991963019E+02  0.29469349654E+04  0.29480546300E+04  0.00000000000E+00 0.  1.
<scales pt_clust_3="14000.00000" pt_clust_4="32.38508" pt_clust_5="63.71448" pt_clust_6="81.10298"></scales>
<clustering>
<clus scale="   32.385">  2  4  1 -1</clus>
<clus scale="   63.714">  2  5  1 -1</clus>
<clus scale="   81.103">  1  6  2 -1</clus>
<clus scale="   32.385">  2  3  1 -1</clus>
</clustering>
</event>
<event>
 6    0  0.3522959E+002  0.1064731E+03  0.7546771E-02  0.1267244E+00
         21   -1    0    0  503  502  0.00000000000E+00  0.00000000000E+00  0.22279067707E+02  0.22279067707E+02  0.00000000000E+00 0.  1.
          2   -1    0    0  504    0 -0.00000000000E+00 -0.00000000000E+00 -0.15346173054E+04  0.15346173054E+04  0.00000000000E+00 0. -1.
         21    1    1    2  503  501 -0.46627560176E+02  0.64048470627E+02 -0.13852653529E+03  0.15958050300E+03  0.00000000000E+00 0.  1.
         21    1    1    2  504  505  0.42013045099E+02  0.21962554979E+02 -0.19148146714E+03  0.19726277408E+03  0.00000000000E+00 0. -1.
         21    1    1    2  505  502  0.18688672921E+02  0.33390808188E+02 -0.59096468953E+02  0.70403161930E+02  0.00000000000E+00 0.  1.
          2    1    1    2  501    0 -0.14074157844E+02 -0.11940183379E+03 -0.11232337663E+04  0.11296499341E+04  0.00000000000E+00 0. -1.
<scales pt_clust_3="106.47306" pt_clust_4="53.10132" pt_clust_5="38.26503" pt_clust_6="14000.00000"></scales>
<clustering>
<clus scale="   38.265">  1  5  2 -1</clus>
<clus scale="   53.101">  1  4  2 -1</clus>
<clus scale="  106.473">  1  3  2 -1</clus>
<clus scale="   38.265">  1  3  2 -1</clus>
</clustering>
</event>
<event>
 6    0  0.3522959E+002  0.1308228E+03  0.7546771E-02  0.1226240E+00
         21   -1    0    0  503  502  0.00000000000E+00  0.00000000000E+00  0.13287006118E+02  0.13287006118E+02  0.00000000000E+00 0.  1.
          2   -1    0    0  502    0 -0.00000000000E+00 -0.00000000000E+00 -0.26514009356E+04  0.26514009356E+04  0.00000000000E+00 0. -1.
         21    1    1    2  503  504  0.68121961188E+02 -0.26017058894E+02 -0.29381174940E+03  0.30272567290E+03  0.00000000000E+00 0.  1.
         21    1    1    2  504  505  0.11509486903E+02 -0.55233969260E+02 -0.19659865550E+03  0.20453432718E+03  0.00000000000E+00 0.  1.
         21    1    1    2  505  501 -0.30536361459E+02 -0.43139417393E+02 -0.28011289089E+03  0.28505562676E+03  0.00000000000E+00 0.  1.
          2    1    1    2  501    0 -0.49095086633E+02  0.12439044555E+03 -0.18675906337E+04  0.18723723149E+04  0.00000000000E+00 0. -1.
<scales pt_clust_3="72.92111" pt_clust_4="47.46604" pt_clust_5="47.46604" pt_clust_6="121.28283"></scales>
<clustering>
<clus scale="   47.466">  4  5 -1 -1</clus>
<clus scale="   72.921">  1  3  2 -1</clus>
<clus scale="  121.283">  2  6  1 -1</clus>
<clus scale="   72.921">  1  3  2 -1</clus>
</clustering>
</event>
<event>
 6    0  0.3522959E+002  0.1154002E+03  0.7546771E-02  0.1250884E+00
          2   -1    0    0  505    0 -0.00000000000E+00  0.00000000000E+00  0.85763744773E+03  0.85763744773E+03  0.00000000000E+00 0.  1.
         21   -1    0    0  503  502  0.00000000000E+00 -0.00000000000E+00 -0.16417171994E+04  0.16417171994E+04  0.00000000000E+00 0.  1.
         21    1    1    2  503  504  0.92570419626E+02 -0.14375439676E+02 -0.75715335303E+03  0.76292669101E+03  0.00000000000E+00 0.  1.
         21    1    1    2  504  501 -0.13395316248E+03 -0.13563886393E+02  0.29484339442E+03  0.32412969007E+03  0.00000000000E+00 0. -1.
         21    1    1    2  505  502  0.82526126988E+01 -0.43268526509E+02 -0.86364176452E+03  0.86476434271E+03  0.00000000000E+00 0.  1.
          2    1    1    2  501    0  0.33130130151E+02  0.71207852578E+02  0.54187197144E+03  0.54753392335E+03  0.00000000000E+00 0.  1.
<scales pt_clust_3="14000.00000" pt_clust_4="115.40017" pt_clust_5="44.04851" pt_clust_6="78.40755"></scales>
<clustering>
<clus scale="   44.049">  2  5  1 -1</clus>
<clus scale="   78.408">  1  6  2 -1</clus>
<clus scale="  115.400">  1  4  2 -1</clus>
<clus scale="   44.049">  2  3  1 -1</clus>
</clustering>
</event>
<event>
 6    0  0.3522959E+002  0.1065083E+03  0.7546771E-02  0.1267176E+00
          1   -1    0    0  504    0 -0.00000000000E+00  0.00000000000E+00  0.16772463415E+04  0.16772463415E+04  0.00000000000E+00 0.  1.
         21   -1    0    0  503  502  0.00000000000E+00 -0.00000000000E+00 -0.34537130877E+02  0.34537130877E+02  0.00000000000E+00 0.  1.
         21    1    1    2  503  501 -0.25827784227E+02  0.45720206468E+02  0.60751141480E+02  0.80300142644E+02  0.00000000000E+00 0.  1.
         21    1    1    2  504  505  0.79515956123E+02 -0.50428882863E+02  0.79464724361E+03  0.80020628670E+03  0.00000000000E+00 0.  1.
         21    1    1    2  505  502 -0.92316286699E+02 -0.30710185758E+02  0.91700175501E+02  0.13369493067E+03  0.00000000000E+00 0.  1.
          1    1    1    2  501    0  0.38628114802E+02  0.35418862153E+02  0.69561065004E+03  0.69758211237E+03  0.00000000000E+00 0.  1.
<scales pt_clust_3="53.48866" pt_clust_4="106.50832" pt_clust_5="14000.00000" pt_clust_6="52.40827"></scales>
<clustering>
<clus scale="   52.408">  1  6  2 -1</clus>
<clus scale="   53.489">  2  3  1 -1</clus>
<clus scale="  106.508">  1  4  2 -1</clus>
<clus scale="   53.489">  2  3  1 -1</clus>
</clustering>
</event>
<event>
 6    0  0.3522959E+002  0.2257119E+03  0.7546771E-02  0.1129695E+00
         21   -1    0    0  505  502  0.00000000000E+00  0.00000000000E+00  0.55670856589E+02  0.55670856589E+02  0.00000000000E+00 0.  1.
          2   -1    0    0  502    0 -0.00000000000E+00 -0.00000000000E+00 -0.14775282731E+04  0.14775282731E+04  0.00000000000E+00 0. -1.
         21    1    1    2  503  504  0.94677769715E+02  0.12516351012E+03 -0.32725170071E+03  0.36293726726E+03  0.00000000000E+00 0.  1.
         21    1    1    2  504  501  0.66239836645E+02  0.37892790750E+02 -0.16830939240E+03  0.18480159934E+03  0.00000000000E+00 0. -1.
         21    1    1    2  505  503 -0.18255190066E+03 -0.11823949648E+03 -0.38747117824E+03  0.44434186043E+03  0.00000000000E+00 0.  1.
          2    1    1    2  501    0  0.21634294297E+02 -0.44816804393E+02 -0.53882514520E+03  0.54111840270E+03  0.00000000000E+00 0. -1.
<scales pt_clust_3="30.83414" pt_clust_4="30.83414" pt_clust_5="221.33829" pt_clust_6="49.76534"></scales>
<clustering>
<clus scale="   30.834">  3  4 -1 -1</clus>
<clus scale="   49.765">  2  6  1 -1</clus>
<clus scale="  221.338">  1  5  2 -1</clus>
<clus scale="  221.338">  1  3  2 -1</clus>
</clustering>
</event>
<event>
 6    0  0.3522959E+002  0.3066345E+03  0.7546771E-02  0.1081970E+00
          2   -1    0    0  504    0 -0.00000000000E+00  0.00000000000E+00  0.17384036828E+04  0.17384036828E+04  0.00000000000E+00 0. -1.
         21   -1    0    0  503  502  0.00000000000E+00 -0.00000000000E+00 -0.15201258137E+04  0.15201258137E+04  0.00000000000E+00 0.  1.
         21    1    1    2  503  501  0.40115786489E+02 -0.52433763519E+02 -0.19529045488E+02  0.68847363784E+02  0.00000000000E+00 0. -1.
         21    1    1    2  504  505 -0.24288494975E+03  0.95475679110E+02  0.91498697672E+03  0.95147773052E+03  0.00000000000E+00 0. -1.
         21    1    1    2  505  502  0.22403822211E+03 -0.10922186741E+03 -0.14454572926E+04  0.14667887803E+04  0.00000000000E+00 0.  1.
          2    1    1    2  501    0 -0.21269058853E+02  0.66179951821E+02  0.76827723049E+03  0.77141562195E+03  0.00000000000E+00 0. -1.
<scales pt_clust_3="66.01951" pt_clust_4="14000.00000" pt_clust_5="306.63454" pt_clust_6="69.44761"></scales>
<clustering>
<clus scale="   66.020">  2  3  1 -1</clus>
<clus scale="   69.448">  1  6  2 -1</clus>
<clus scale="  306.635">  2  5  1 -1</clus>
<clus scale="   66.020">  2  3  1 -1</clus>
</clustering>
</event>
<event>
 6    0  0.3522959E+002  0.8441123E+02  0.7546771E-02  0.1316979E+00
         21   -1    0    0  504  502  0.00000000000E+00  0.00000000000E+00  0.81309484989E+03  0.81309484989E+03  0.00000000000E+00 0. -1.
          1   -1    0    0  505    0 -0.00000000000E+00 -0.00000000000E+00 -0.19582443589E+04  0.19582443589E+04  0.00000000000E+00 0.  1.
         21    1    1    2  503  502 -0.64405635292E+02  0.20535338586E+02  0.21811125461E+03  0.22834689701E+03  0.00000000000E+00 0. -1.
         21    1    1    2  504  501  0.10393918423E+03  0.28215330040E+02  0.56984643093E+03  0.57993483575E+03  0.00000000000E+00 0. -1.
         21    1    1    2  505  503 -0.94559522997E+02 -0.52014417484E+02 -0.18571014057E+03  0.21479119937E+03  0.00000000000E+00 0. -1.
          1    1    1    2  501    0  0.55025974060E+02  0.32637488572E+01 -0.17473970540E+04  0.17482662767E+04  0.00000000000E+00 0.  1.
<scales pt_clust_3="84.41123" pt_clust_4="14000.00000" pt_clust_5="64.59185" pt_clust_6="55.12268"></scales>
<clustering>
<clus scale="   55.123">  2  6  1 -1</clus>
<clus scale="   64.592">  2  5  1 -1</clus>
<clus scale="   84.411">  2  3  1 -1</clus>
<clus scale="   84.411">  1  3  2 -1</clus>
</clustering>
</event>
<event>
 6    0  0.3522959E+002  0.1335664E+03  0.7546771E-02  0.1222258E+00
         21   -1    0    0  501  502  0.00000000000E+00  0.00000000000E+00  0.19945741631E+04  0.19945741631E+04  0.00000000000E+00 0. -1.
          1   -1    0    0  503    0 -0.00000000000E+00 -0.00000000000E+00 -0.14608199675E+04  0.14608199675E+04  0.00000000000E+00 0. -1.
         21    1    1    2  503  505 -0.13522547389E+03 -0.17465228086E+02 -0.34088621626E+02  0.14054535604E+03  0.00000000000E+00 0. -1.
         21    1    1    2  504  502  0.81996615753E+01 -0.68687093160E+02  0.15089326232E+04  0.15105173990E+04  0.00000000000E+00 0. -1.
         21    1    1    2  505  504  0.11418710525E+03 -0.25894385056E+01  0.42256649031E+03  0.43773032672E+03  0.00000000000E+00 0. -1.
          1    1    1    2  501    0  0.12838707060E+02  0.88741759752E+02 -0.13636562963E+04  0.13666010488E+04  0.00000000000E+00 0. -1.
<scales pt_clust_3="133.56635" pt_clust_4="69.17479" pt_clust_5="14000.00000" pt_clust_6="89.46281"></scales>
<clustering>
<clus scale="   69.175">  1  4  2 -1</clus>
<clus scale="   89.463">  2  6  1 -1</clus>
<clus scale="  133.566">  2  3  1 -1</clus>
<clus scale="   69.175">  1  3  2 -1</clus>
</clustering>
</event>
<event>
 6    0  0.3522959E+002  0.1155445E+03  0.7546771E-02  0.1250634E+00
         -1   -1    0    0    0  501 -0.00000000000E+00  0.00000000000E+00  0.10567614639E+04  0.10567614639E+04  0.00000000000E+00 0.  1.
         21   -1    0    0  504  502  0.00000000000E+00 -0.00000000000E+00 -0.13452944205E+03  0.13452944205E+03  0.00000000000E+00 0.  1.
         21    1    1    2  503  501 -0.77601557745E+02 -0.14983720768E+03  0.13488065685E+03  0.21602310562E+03  0.00000000000E+00 0.  1.
         21    1    1    2  504  503  0.36647036618E+02 -0.30329976160E+01  0.35123252466E+02  0.50851226448E+02  0.00000000000E+00 0.  1.
         21    1    1    2  505  502  0.38519951440E+02  0.78309927058E+02 -0.61825771022E+02  0.10695165869E+03  0.00000000000E+00 0.  1.
         -1    1    1    2    0  505  0.24345696871E+01  0.74560278233E+02  0.81405388352E+03  0.81746491515E+03  0.00000000000E+00 0.  1.
<scales pt_clust_3="14000.00000" pt_clust_4="36.77233" pt_clust_5="115.54452" pt_clust_6="74.57694"></scales>
<clustering>
<clus scale="   36.772">  2  4  1 -1</clus>
<clus scale="   74.577">  1  6  2 -1</clus>
<clus scale="  115.545">  2  5  1 -1</clus>
<clus scale="   36.772">  2  3  1 -1</clus>
</clustering>
</event>
<event>
 6    0  0.3522959E+002  0.1118556E+03  0.7546771E-02  0.1257172E+00
         21   -1    0    0  503  502  0.00000000000E+00  0.00000000000E+00  0.15910952488E+03  0.15910952488E+03  0.00000000000E+00 0. -1.
          2   -1    0    0  505    0 -0.00000000000E+00 -0.00000000000E+00 -0.28090712830E+03  0.28090712830E+03  0.00000000000E+00 0.  1.
         21    1    1    2  503  504 -0.62805107816E+02  0.21342887589E+02  0.31583053786E+02  0.73467609903E+02  0.00000000000E+00 0. -1.
         21    1    1    2  504  501 -0.25769922569E+02  0.31337556621E+02  0.57609405977E+02  0.70462578871E+02  0.00000000000E+00 0. -1.
         21    1    1    2  505  502 -0.28771204609E+02 -0.74517401129E+02 -0.45141917642E+02  0.91751937385E+02  0.00000000000E+00 0.  1.
          2    1    1    2  501    0  0.11734623499E+03  0.21836956919E+02 -0.16584814554E+03  0.20433452702E+03  0.00000000000E+00 0.  1.
<scales pt_clust_3="36.17791" pt_clust_4="36.17791" pt_clust_5="79.87882" pt_clust_6="101.84218"></scales>
<clustering>
<clus scale="   36.178">  3  4 -1 -1</clus>
<clus scale="   79.879">  2  5  1 -1</clus>
<clus scale="  101.842">  2  6  1 -1</clus>
<clus scale="  111.856">  1  3  2 -1</clus>
</clustering>
</event>
<event>
 6    0  0.3522959E+002  0.9882455E+02  0.7546771E-02  0.1282787E+00
         21   -1    0    0  505  502  0.00000000000E+00  0.00000000000E+00  0.71536194519E+03  0.71536194519E+03  0.00000000000E+00 0. -1.
          4   -1    0    0  504    0 -0.00000000000E+00 -0.00000000000E+00 -0.47431764126E+03  0.47431764126E+03  0.00000000000E+00 0.  1.
         21    1    1    2  503  502  0.90816144484E+02 -0.69066259322E+02  0.64868452027E+03  0.65864203260E+03  0.00000000000E+00 0. -1.
         21    1    1    2  504  503  0.34953850799E+02 -0.33413974374E+02 -0.21135015916E+03  0.21681133537E+03  0.00000000000E+00 0.  1.
         21    1    1    2  505  501 -0.31501919803E+02 -0.68931889962E+01  0.31142087798E+02  0.44829863241E+02  0.00000000000E+00 0. -1.
          4    1    1    2  501    0 -0.94268075480E+02  0.10937342269E+03 -0.22743214498E+03  0.26939635524E+03  0.00000000000E+00 0.  1.
<scales pt_clust_3="14000.00000" pt_clust_4="48.28314" pt_clust_5="32.24728" pt_clust_6="98.82455"></scales>
<clustering>
<clus scale="   32.247">  1  5  2 -1</clus>
<clus scale="   48.283">  2  4  1 -1</clus>
<clus scale="   98.825">  2  6  1 -1</clus>
<clus scale="   32.247">  1  3  2 -1</clus>
</clustering>
</event>
<event>
 6    0  0.3522959E+002  0.2086129E+03  0.7546771E-02  0.1142669E+00
         21   -1    0    0  503  502  0.00000000000E+00  0.00000000000E+00  0.28872706574E+03  0.28872706574E+03  0.00000000000E+00 0.  1.
          1   -1    0    0  505    0 -0.00000000000E+00 -0.00000000000E+00 -0.45119157558E+03  0.45119157558E+03  0.00000000000E+00 0.  1.
         21    1    1    2  503  501  0.14792247785E+03  0.18463080688E+03  0.69708473916E+02  0.24663508598E+03  0.00000000000E+00 0.  1.
         21    1    1    2  504  502 -0.32363316667E+02  0.65997243333E+01  0.63736904865E+02  0.71786723485E+02  0.00000000000E+00 0. -1.
         21    1    1    2  505  504 -0.39003115085E+02 -0.12283487742E+01  0.20871938240E+02  0.44253696263E+02  0.00000000000E+00 0. -1.
          1    1    1    2  501    0 -0.76556046094E+02 -0.19000218244E+03 -0.31678182686E+03  0.37724313560E+03  0.00000000000E+00 0.  1.
<scales pt_clust_3="208.61291" pt_clust_4="31.66634" pt_clust_5="79.41488" pt_clust_6="14000.00000"></scales>
<clustering>
<clus scale="   31.666">  4  5 -1 -1</clus>
<clus scale="   79.415">  1  4  2 -1</clus>
<clus scale="  208.613">  1  3  2 -1</clus>
<clus scale="   79.415">  1  3  2 -1</clus>
</clustering>
</event>
<event>
 6    0  0.3522959E+002  0.9028118E+02  0.7546771E-02  0.1302172E+00
         21   -1    0    0  504  502  0.00000000000E+00  0.00000000000E+00  0.11663066034E+04  0.11663066034E+04  0.00000000000E+00 0.  1.
          2   -1    0    0  505    0 -0.00000000000E+00 -0.00000000000E+00 -0.77927391871E+03  0.77927391871E+03  0.00000000000E+00 0.  1.
         21    1    1    2  503  502  0.30848232801E+02  0.28357498128E+01  0.77691029106E+01  0.31937656520E+02  0.00000000000E+00 0. -1.
         21    1    1    2  504  501 -0.53709156980E+02 -0.89639662415E+02  0.11277516655E+04  0.11325827836E+04  0.00000000000E+00 0.  1.
         21    1    1    2  505  503 -0.25611545099E+02  0.11865765197E+03 -0.68246948673E+03  0.69318121002E+03  0.00000000000E+00 0.  1.
          2    1    1    2  501    0  0.48472469278E+02 -0.31853739365E+02 -0.66018596999E+02  0.87878871973E+02  0.00000000000E+00 0.  1.
<scales pt_clust_3="30.97830" pt_clust_4="90.28118" pt_clust_5="14000.00000" pt_clust_6="58.23330"></scales>
<clustering>
<clus scale="   30.978">  1  3  2 -1</clus>
<clus scale="   58.233">  2  6  1 -1</clus>
<clus scale="   90.281">  1  4  2 -1</clus>
<clus scale="   30.978">  1  3  2 -1</clus>
</clustering>
</event>
<event>
 6    0  0.3522959E+002  0.2794247E+03  0.7546771E-02  0.1096004E+00
         21   -1    0    0  503  502  0.00000000000E+00  0.00000000000E+00  0.98734379888E+03  0.98734379888E+03  0.00000000000E+00 0.  1.
         -4   -1    0    0    0  501 -0.00000000000E+00 -0.00000000000E+00 -0.38333316613E+03  0.38333316613E+03  0.00000000000E+00 0.  1.
         21    1    1    2  503  504 -0.12902521135E+03  0.68544032995E+02  0.92550291467E+02  0.17294896957E+03  0.00000000000E+00 0.  1.
         21    1    1    2  504  501 -0.12294344145E+03  0.10567033745E+03  0.14479231379E+03  0.21736173570E+03  0.00000000000E+00 0.  1.
         21    1    1    2  505  502  0.22902498031E+03 -0.13367585801E+03  0.64540694813E+03  0.69776199761E+03  0.00000000000E+00 0.  1.
         -4    1    1    2    0  505  0.22943672491E+02 -0.40538512442E+02 -0.27873892063E+03  0.28260426213E+03  0.00000000000E+00 0.  1.
<scales pt_clust_3="44.24404" pt_clust_4="44.24404" pt_clust_5="275.51061" pt_clust_6="46.58093"></scales>
<clustering>
<clus scale="   44.244">  3  4 -1 -1</clus>
<clus scale="   46.581">  2  6  1 -1</clus>
<clus scale="  275.511">  1  5  2 -1</clus>
<clus scale="  275.511">  1  3  2 -1</clus>
</clustering>
</event>
<event>
 6    0  0.3522959E+002  0.1477339E+03  0.7546771E-02  0.1203286E+00
          1   -1    0    0  503    0 -0.00000000000E+00  0.00000000000E+00  0.23710530123E+04  0.23710530123E+04  0.00000000000E+00 0. -1.
         21   -1    0    0  501  502  0.00000000000E+00 -0.00000000000E+00 -0.25986805274E+02  0.25986805274E+02  0.00000000000E+00 0. -1.
         21    1    1    2  503  505 -0.61405741234E+02  0.60369636684E+02  0.39740652325E+03  0.40662894980E+03  0.00000000000E+00 0. -1.
         21    1    1    2  504  502  0.85985681396E+02 -0.11857282448E+03  0.29045844556E+03  0.32529857163E+03  0.00000000000E+00 0. -1.
         21    1    1    2  505  504 -0.58134016396E+02  0.10282884080E+02  0.25716468769E+03  0.26385408498E+03  0.00000000000E+00 0. -1.
          1    1    1    2  501    0  0.33554076233E+02  0.47920303714E+02  0.14000365505E+04  0.14012582112E+04  0.00000000000E+00 0. -1.
<scales pt_clust_3="35.15340" pt_clust_4="141.50199" pt_clust_5="35.15340" pt_clust_6="58.49984"></scales>
<clustering>
<clus scale="   35.153">  3  5 -1 -1</clus>
<clus scale="   58.500">  1  6  2 -1</clus>
<clus scale="  141.502">  2  4  1 -1</clus>
<clus scale="  141.502">  2  3  1 -1</clus>
</clustering>
</event>
<event>
 6    0  0.3522959E+002  0.9325051E+02  0.7546771E-02  0.1295166E+00
         21   -1    0    0  503  502  0.00000000000E+00  0.00000000000E+00  0.57736258599E+03  0.57736258599E+03  0.00000000000E+00 0. -1.
         -2   -1    0    0    0  501 -0.00000000000E+00 -0.00000000000E+00 -0.68027917411E+02  0.68027917411E+02  0.00000000000E+00 0.  1.
         21    1    1    2  503  501 -0.27960260128E+02 -0.88059070270E+02  0.28002442711E+03  0.29487260942E+03  0.00000000000E+00 0. -1.
         21    1    1    2  504  502 -0.27902623762E+02  0.13250322393E+02  0.85694024751E+02  0.91091126540E+02  0.00000000000E+00 0. -1.
         21    1    1    2  505  504  0.14018107351E+02  0.97313848802E+02  0.17622785854E+03  0.20179878748E+03  0.00000000000E+00 0. -1.
         -2    1    1    2    0  505  0.41844776539E+02 -0.22505100925E+02 -0.32611641833E+02  0.57627979960E+02  0.00000000000E+00 0.  1.
<scales pt_clust_3="14000.00000" pt_clust_4="30.88895" pt_clust_5="93.25051" pt_clust_6="46.72364"></scales>
<clustering>
<clus scale="   30.889">  1  4  2 -1</clus>
<clus scale="   46.724">  2  6  1 -1</clus>
<clus scale="   93.251">  2  5  1 -1</clus>
<clus scale="   30.889">  1  3  2 -1</clus>
</clustering>
</event>
<event>
 6    0  0.3522959E+002  0.2042511E+03  0.7546771E-02  0.1146201E+00
         21   -1    0    0  503  502  0.00000000000E+00  0.00000000000E+00  0.13363513205E+03  0.13363513205E+03  0.00000000000E+00 0. -1.
          2   -1    0    0  502    0 -0.00000000000E+00 -0.00000000000E+00 -0.34029216291E+04  0.34029216291E+04  0.00000000000E+00 0. -1.
         21    1    1    2  503  505 -0.50612315307E+02 -0.53062902244E+02  0.77418038824E+01  0.73737463902E+02  0.00000000000E+00 0. -1.
         21    1    1    2  504  501  0.56943452401E+02  0.27413944660E+03 -0.29604213392E+03  0.40747507655E+03  0.00000000000E+00 0. -1.
         21    1    1    2  505  504 -0.75965924739E+02 -0.31463387435E+02 -0.16348945753E+02  0.83833492696E+02  0.00000000000E+00 0. -1.
          2    1    1    2  501    0  0.69634787645E+02 -0.18961315692E+03 -0.29646372212E+04  0.29715107280E+04  0.00000000000E+00 0. -1.
<scales pt_clust_3="37.63021" pt_clust_4="14000.00000" pt_clust_5="157.33570" pt_clust_6="204.25106"></scales>
<clustering>
<clus scale="   37.630">  3  5 -1 -1</clus>
<clus scale="  157.336">  1  3  2 -1</clus>
<clus scale="  204.251">  2  6  1 -1</clus>
<clus scale="  157.336">  1  3  2 -1</clus>
</clustering>
</event>
<event>
 6    0  0.3522959E+002  0.1385161E+03  0.7546771E-02  0.1215340E+00
         21   -1    0    0  504  502  0.00000000000E+00  0.00000000000E+00  0.41145141857E+02  0.41145141857E+02  0.00000000000E+00 0. -1.
          2   -1    0    0  503    0 -0.00000000000E+00 -0.00000000000E+00 -0.16109556075E+04  0.16109556075E+04  0.00000000000E+00 0. -1.
         21    1    1    2  503  505 -0.32037137743E+02 -0.24009917696E+02 -0.21565658069E+03  0.21934132109E+03  0.00000000000E+00 0. -1.
         21    1    1    2  504  501  0.77377044407E+02  0.99476985693E+02 -0.92991878772E+02  0.15662173285E+03  0.00000000000E+00 0. -1.
         21    1    1    2  505  502 -0.19487309252E+02 -0.10979033650E+03 -0.44196101731E+03  0.45581050233E+03  0.00000000000E+00 0. -1.
          2    1    1    2  501    0 -0.25852597412E+02  0.34323268499E+02 -0.81920098887E+03  0.82032719309E+03  0.00000000000E+00 0. -1.
<scales pt_clust_3="31.77357" pt_clust_4="127.96453" pt_clust_5="31.77357" pt_clust_6="42.97026"></scales>
<clustering>
<clus scale="   31.774">  3  5 -1 -1</clus>
<clus scale="   42.970">  2  6  1 -1</clus>
<clus scale="  127.965">  1  4  2 -1</clus>
<clus scale="  127.965">  1  3  2 -1</clus>
</clustering>
</event>
<event>
 6    0  0.3522959E+002  0.1081667E+03  0.7546771E-02  0.1264003E+00
          2   -1    0    0  504    0 -0.00000000000E+00  0.00000000000E+00  0.62758767720E+03  0.62758767720E+03  0.00000000000E+00 0.  1.
         21   -1    0    0  505  502  0.00000000000E+00 -0.00000000000E+00 -0.81846598227E+02  0.81846598227E+02  0.00000000000E+00 0. -1.
         21    1    1    2  503  501 -0.13130720899E+02  0.31826964243E+02  0.34032323289E+02  0.48410438055E+02  0.00000000000E+00 0. -1.
         21    1    1    2  504  502  0.77375597920E+02 -0.94038314293E+02  0.34053641719E+02  0.12645093208E+03  0.00000000000E+00 0. -1.
         21    1    1    2  505  503  0.11245890460E+02  0.57951078831E+02  0.88289819600E+01  0.59688763703E+02  0.00000000000E+00 0. -1.
          2    1    1    2  501    0 -0.75490767482E+02  0.42602712189E+01  0.46882613200E+03  0.47488414159E+03  0.00000000000E+00 0.  1.
<scales pt_clust_3="32.26275" pt_clust_4="99.57579" pt_clust_5="32.26275" pt_clust_6="75.61088"></scales>
<clustering>
<clus scale="   32.263">  3  5 -1 -1</clus>
<clus scale="   75.611">  1  6  2 -1</clus>
<clus scale="   99.576">  1  4  2 -1</clus>
<clus scale="  108.167">  2  3  1 -1</clus>
</clustering>
</event>
<event>
 6    0  0.3522959E+002  0.2612913E+03  0.7546771E-02  0.1106370E+00
         21   -1    0    0  505  502  0.00000000000E+00  0.00000000000E+00  0.22610068565E+03  0.22610068565E+03  0.00000000000E+00 0.  1.
          2   -1    0    0  503    0 -0.00000000000E+00 -0.00000000000E+00 -0.14287217705E+04  0.14287217705E+04  0.00000000000E+00 0. -1.
         21    1    1    2  503  502 -0.20466739031E+03  0.10165645109E+03 -0.27017134990E+02  0.23011453732E+03  0.00000000000E+00 0.  1.
         21    1    1    2  504  501  0.14832411624E+03 -0.15245347506E+03 -0.50176668387E+02  0.21854016466E+03  0.00000000000E+00 0.  1.
         21    1    1    2  505  504  0.69613767981E+02 -0.13470399755E+02  0.75370346708E+01  0.71304524778E+02  0.00000000000E+00 0.  1.
          2    1    1    2  501    0 -0.13270493915E+02  0.64267423727E+02 -0.11329643162E+04  0.11348632294E+04  0.00000000000E+00 0. -1.
<scales pt_clust_3="247.20228" pt_clust_4="48.86921" pt_clust_5="48.86921" pt_clust_6="65.62323"></scales>
<clustering>
<clus scale="   48.869">  4  5 -1 -1</clus>
<clus scale="   65.623">  2  6  1 -1</clus>
<clus scale="  247.202">  1  3  2 -1</clus>
<clus scale="  247.202">  1  3  2 -1</clus>
</clustering>
</event>
<event>
 6    0  0.3522959E+002  0.3940725E+03  0.7546771E-02  0.1045852E+00
         21   -1    0    0  503  502  0.00000000000E+00  0.00000000000E+00  0.33709861743E+03  0.33709861743E+03  0.00000000000E+00 0.  1.
          2   -1    0    0  504    0 -0.00000000000E+00 -0.00000000000E+00 -0.28377652020E+04  0.28377652020E+04  0.00000000000E+00 0.  1.
         21    1    1    2  503  501  0.28496682597E+03  0.33747038218E+03 -0.99834043161E+03  0.10916849216E+04  0.00000000000E+00 0.  1.
         21    1    1    2  504  505  0.51066452265E+01 -0.66072210961E+02  0.58369461975E+02  0.88309733201E+02  0.00000000000E+00 0.  1.
         21    1    1    2  505  502  0.59513632020E+02 -0.11000245576E+03  0.17604922480E+03  0.21595310191E+03  0.00000000000E+00 0.  1.
          2    1    1    2  501    0 -0.34958710322E+03 -0.16139571546E+03 -0.17367448398E+04  0.17789160627E+04  0.00000000000E+00 0.  1.
<scales pt_clust_3="394.07251" pt_clust_4="35.99816" pt_clust_5="193.96843" pt_clust_6="14000.00000"></scales>
<clustering>
<clus scale="   35.998">  4  5 -1 -1</clus>
<clus scale="  193.968">  1  4  2 -1</clus>
<clus scale="  394.073">  1  3  2 -1</clus>
<clus scale="  193.968">  1  3  2 -1</clus>
</clustering>
</event>
<event>
 6    0  0.3522959E+002  0.7726139E+02  0.7546771E-02  0.1337008E+00
          2   -1    0    0  505    0 -0.00000000000E+00  0.00000000000E+00  0.10329256319E+04  0.10329256319E+04  0.00000000000E+00 0. -1.
         21   -1    0    0  504  502  0.00000000000E+00 -0.00000000000E+00 -0.74562068688E+02  0.74562068688E+02  0.00000000000E+00 0.  1.
         21    1    1    2  503  502 -0.67560954727E+01  0.38475791647E+02  0.21938495093E+00  0.39065067498E+02  0.00000000000E+00 0.  1.
         21    1    1    2  504  501  0.52763389585E+02 -0.15115714585E+02 -0.29895123262E+02  0.62499428020E+02  0.00000000000E+00 0.  1.
         21    1    1    2  505  503 -0.92992617779E+02  0.33340513480E+02  0.35084266523E+03  0.36448565479E+03  0.00000000000E+00 0. -1.
          2    1    1    2  501    0  0.46985323666E+02 -0.56700590542E+02  0.63719663625E+03  0.64143755024E+03  0.00000000000E+00 0. -1.
<scales pt_clust_3="39.06445" pt_clust_4="50.11782" pt_clust_5="77.26139" pt_clust_6="14000.00000"></scales>
<clustering>
<clus scale="   39.064">  2  3  1 -1</clus>
<clus scale="   50.118">  2  4  1 -1</clus>
<clus scale="   77.261">  2  5  1 -1</clus>
<clus scale="   39.064">  2  3  1 -1</clus>
</clustering>
</event>
<event>
 6    0  0.3522959E+002  0.1118439E+03  0.7546771E-02  0.1257193E+00
          1   -1    0    0  503    0 -0.00000000000E+00  0.00000000000E+00  0.14116247596E+04  0.14116247596E+04  0.00000000000E+00 0.  1.
         21   -1    0    0  505  502  0.00000000000E+00 -0.00000000000E+00 -0.41911898715E+02  0.41911898715E+02  0.00000000000E+00 0. -1.
         21    1    1    2  503  504  0.54233079086E+02  0.28040010247E+02  0.10778331114E+03  0.12387377124E+03  0.00000000000E+00 0. -1.
         21    1    1    2  504  502 -0.17002572244E+02 -0.25004739144E+02  0.21584807603E+02  0.37151424762E+02  0.00000000000E+00 0.  1.
         21    1    1    2  505  501  0.63892655615E+02 -0.58155389549E+02  0.56842176022E+02  0.10341834339E+03  0.00000000000E+00 0. -1.
          1    1    1    2  501    0 -0.10112316246E+03  0.55120118446E+02  0.11835025661E+04  0.11890931189E+04  0.00000000000E+00 0.  1.
<scales pt_clust_3="54.89060" pt_clust_4="30.23780" pt_clust_5="14000.00000" pt_clust_6="111.84394"></scales>
<clustering>
<clus scale="   30.238">  2  4  1 -1</clus>
<clus scale="   54.891">  2  3  1 -1</clus>
<clus scale="  111.844">  1  6  2 -1</clus>
<clus scale="   30.238">  2  3  1 -1</clus>
</clustering>
</event>
<event>
 6    0  0.3522959E+002  0.6646406E+02  0.7546771E-02  0.1372547E+00
         21   -1    0    0  504  502  0.00000000000E+00  0.00000000000E+00  0.58142986651E+03  0.58142986651E+03  0.00000000000E+00 0.  1.
          2   -1    0    0  503    0 -0.00000000000E+00 -0.00000000000E+00 -0.18589421594E+04  0.18589421594E+04  0.00000000000E+00 0.  1.
         21    1    1    2  503  502  0.38754515379E+02 -0.18647239065E+02  0.36257242446E+03  0.36511422181E+03  0.00000000000E+00 0.  1.
         21    1    1    2  504  505  0.16519794219E+02  0.51355078095E+02  0.13156741223E+03  0.14219786077E+03  0.00000000000E+00 0.  1.
         21    1    1    2  505  501 -0.85399689894E+02 -0.71144959077E+02  0.41946963210E+02  0.11880345095E+03  0.00000000000E+00 0. -1.
          2    1    1    2  501    0  0.30125380295E+02  0.38437120047E+02 -0.18135990928E+04  0.18142564924E+04  0.00000000000E+00 0.  1.
<scales pt_clust_3="43.00735" pt_clust_4="66.46406" pt_clust_5="14000.00000" pt_clust_6="48.84994"></scales>
<clustering>
<clus scale="   43.007">  1  3  2 -1</clus>
<clus scale="   48.850">  2  6  1 -1</clus>
<clus scale="   66.464">  1  4  2 -1</clus>
<clus scale="   43.007">  1  3  2 -1</clus>
</clustering>
</event>
<event>
 6    0  0.3522959E+002  0.9911468E+02  0.7546771E-02  0.1282169E+00
         -4   -1    0    0    0  501 -0.00000000000E+00  0.00000000000E+00  0.61251206361E+03  0.61251206361E+03  0.00000000000E+00 0.  1.
         21   -1    0    0  503  502  0.00000000000E+00 -0.00000000000E+00 -0.84891064217E+03  0.84891064217E+03  0.00000000000E+00 0.  1.
         21    1    1    2  503  505  0.71158513866E+02  0.70886111341E+02 -0.78151401003E+03  0.78794195392E+03  0.00000000000E+00 0.  1.
         21    1    1    2  504  502 -0.77183140751E+01 -0.51899388239E+02 -0.42480831512E+02  0.67511035525E+02  0.00000000000E+00 0.  1.
         21    1    1    2  505  501 -0.68869554983E+02  0.21008629248E+02  0.14863495912E+03  0.16515668070E+03  0.00000000000E+00 0.  1.
         -4    1    1    2    0  504  0.54293551920E+01 -0.39995352350E+02  0.43896130386E+03  0.44081303565E+03  0.00000000000E+00 0.  1.
<scales pt_clust_3="99.11468" pt_clust_4="55.28636" pt_clust_5="14000.00000" pt_clust_6="40.36219"></scales>
<clustering>
<clus scale="   40.362">  1  6  2 -1</clus>
<clus scale="   55.286">  1  4  2 -1</clus>
<clus scale="   99.115">  2  3  1 -1</clus>
<clus scale="   99.115">  2  3  1 -1</clus>
</clustering>
</event>
<event>
 6    0  0.3522959E+002  0.1330637E+03  0.7546771E-02  0.1222979E+00
         21   -1    0    0  505  502  0.00000000000E+00  0.00000000000E+00  0.98967300848E+01  0.98967300848E+01  0.00000000000E+00 0.  1.
          2   -1    0    0  503    0 -0.00000000000E+00 -0.00000000000E+00 -0.41644981337E+04  0.41644981337E+04  0.00000000000E+00 0.  1.
         21    1    1    2  503  502  0.10949283748E+03  0.62132939044E+02 -0.64350871181E+03  0.65570774416E+03  0.00000000000E+00 0.  1.
         21    1    1    2  504  501 -0.87414878204E+02  0.47901878461E+01 -0.76786604005E+03  0.77284058013E+03  0.00000000000E+00 0.  1.
         21    1    1    2  505  504 -0.27131270217E+02 -0.31757609547E+02 -0.36938567289E+03  0.37173973009E+03  0.00000000000E+00 0.  1.
          2    1    1    2  501    0  0.50533109432E+01 -0.35165517343E+02 -0.23738409789E+04  0.23741068094E+04  0.00000000000E+00 0.  1.
<scales pt_clust_3="121.78419" pt_clust_4="39.64515" pt_clust_5="39.64515" pt_clust_6="35.52674"></scales>
<clustering>
<clus scale="   35.527">  2  6  1 -1</clus>
<clus scale="   39.645">  4  5 -1 -1</clus>
<clus scale="  121.784">  1  3  2 -1</clus>
<clus scale="  121.784">  1  3  2 -1</clus>
</clustering>
</event>
<event>
 6    0  0.3522959E+002  0.1302903E+03  0.7546771E-02  0.1227026E+00
          1   -1    0    0  505    0 -0.00000000000E+00  0.00000000000E+00  0.46359497853E+03  0.46359497853E+03  0.00000000000E+00 0.  1.
         21   -1    0    0  503  502  0.00000000000E+00 -0.00000000000E+00 -0.37083583115E+03  0.37083583115E+03  0.00000000000E+00 0.  1.
         21    1    1    2  503  501 -0.39463709597E+02  0.10573468592E+03 -0.14097330040E+02  0.11373628663E+03  0.00000000000E+00 0.  1.
         21    1    1    2  504  502 -0.38135620323E+02 -0.72891598974E+02 -0.16640169249E+03  0.18562605960E+03  0.00000000000E+00 0.  1.
         21    1    1    2  505  504 -0.40772154139E+02 -0.74793030016E+02 -0.10575218113E+03  0.13579355546E+03  0.00000000000E+00 0.  1.
          1    1    1    2  501    0  0.11837148406E+03  0.41949943071E+02  0.37901035103E+03  0.39927490799E+03  0.00000000000E+00 0.  1.
<scales pt_clust_3="112.85924" pt_clust_4="34.12230" pt_clust_5="34.12230" pt_clust_6="125.57833"></scales>
<clustering>
<clus scale="   34.122">  4  5 -1 -1</clus>
<clus scale="  112.859">  2  3  1 -1</clus>
<clus scale="  125.578">  1  6  2 -1</clus>
<clus scale="  112.859">  2  3  1 -1</clus>
</clustering>
</event>
<event>
 6    0  0.3522959E+002  0.1116723E+03  0.7546771E-02  0.1257504E+00
         21   -1    0    0  503  502  0.00000000000E+00  0.00000000000E+00  0.18947740272E+03  0.18947740272E+03  0.00000000000E+00 0. -1.
         -1   -1    0    0    0  501 -0.00000000000E+00 -0.00000000000E+00 -0.38430605128E+03  0.38430605128E+03  0.00000000000E+00 0. -1.
         21    1    1    2  503  501  0.12845042763E+03  0.55975736516E+00  0.21915936696E+02  0.13030784307E+03  0.00000000000E+00 0. -1.
         21    1    1    2  504  505 -0.47781938836E+02 -0.47080357667E+02  0.38921476317E+02  0.77553562624E+02  0.00000000000E+00 0. -1.
         21    1    1    2  505  502  0.14366442473E+01 -0.32218795996E+02  0.38678004184E+02  0.50359733615E+02  0.00000000000E+00 0.  1.
         -1    1    1    2    0  504 -0.82105133038E+02  0.78739396298E+02 -0.29434406576E+03  0.31556231469E+03  0.00000000000E+00 0. -1.
<scales pt_clust_3="111.67229" pt_clust_4="101.68644" pt_clust_5="30.25492" pt_clust_6="14000.00000"></scales>
<clustering>
<clus scale="   30.255">  4  5 -1 -1</clus>
<clus scale="  101.686">  1  4  2 -1</clus>
<clus scale="  111.672">  1  3  2 -1</clus>
<clus scale="  101.686">  1  3  2 -1</clus>
</clustering>
</event>
<event>
 6    0  0.3522959E+002  0.1158994E+03  0.7546771E-02  0.1250019E+00
         21   -1    0    0  504  502  0.00000000000E+00  0.00000000000E+00  0.12577989445E+03  0.12577989445E+03  0.00000000000E+00 0. -1.
         -2   -1    0    0    0  501 -0.00000000000E+00 -0.00000000000E+00 -0.18812405800E+03  0.18812405800E+03  0.00000000000E+00 0. -1.
         21    1    1    2  503  502  0.71588738030E+02  0.24891352881E+01  0.20673583394E+02  0.74555618552E+02  0.00000000000E+00 0. -1.
         21    1    1    2  504  501 -0.96975113192E+02  0.66902031310E+02 -0.87366845250E+02  0.14667317417E+03  0.00000000000E+00 0. -1.
         21    1    1    2  505  503  0.32348325691E+02 -0.27688518233E+02  0.20698381998E+02  0.47344389681E+02  0.00000000000E+00 0. -1.
         -2    1    1    2    0  505 -0.69619505288E+01 -0.41702648365E+02 -0.16349283692E+02  0.45330770047E+02  0.00000000000E+00 0. -1.
<scales pt_clust_3="31.88265" pt_clust_4="108.27110" pt_clust_5="31.88265" pt_clust_6="42.27978"></scales>
<clustering>
<clus scale="   31.883">  3  5 -1 -1</clus>
<clus scale="   42.280">  2  6  1 -1</clus>
<clus scale="  108.271">  2  4  1 -1</clus>
<clus scale="  115.899">  1  3  2 -1</clus>
</clustering>
</event>
<event>
 6    0  0.7745110E+002  0.1130924E+03  0.7546771E-02  0.1254948E+00
         21   -1    0    0  505  502  0.00000000000E+00  0.00000000000E+00  0.12052048498E+04  0.12052048498E+04  0.00000000000E+00 0.  1.
          2   -1    0    0  503    0 -0.00000000000E+00 -0.00000000000E+00 -0.25445570105E+04  0.25445570105E+04  0.00000000000E+00 0. -1.
         21    1    1    2  503  504 -0.88503874529E+02 -0.28656710331E+02  0.14756526568E+03  0.17444096563E+03  0.00000000000E+00 0. -1.
         21    1    1    2  504  502 -0.38355746803E+02 -0.27280263731E+02  0.13799880308E+03  0.14580482075E+03  0.00000000000E+00 0. -1.
         21    1    1    2  505  501  0.46815264779E+02  0.92371331077E+02  0.89856003717E+03  0.90450775133E+03  0.00000000000E+00 0.  1.
          2    1    1    2  501    0  0.80044356553E+02 -0.36434357015E+02 -0.25234762666E+04  0.25250083226E+04  0.00000000000E+00 0. -1.
<scales pt_clust_3="30.07918" pt_clust_4="30.07918" pt_clust_5="104.88883" pt_clust_6="87.94636"></scales>
<clustering>
<clus scale="   30.079">  3  4 -1 -1</clus>
<clus scale="   87.946">  2  6  1 -1</clus>
<clus scale="  104.889">  1  5  2 -1</clus>
<clus scale="  104.889">  1  3  2 -1</clus>
</clustering>
</event>
<event>
 6    0  0.3522959E+002  0.1357495E+03  0.7546771E-02  0.1219165E+00
         21   -1    0    0  505  502  0.00000000000E+00  0.00000000000E+00  0.39209168012E+03  0.39209168012E+03  0.00000000000E+00 0. -1.
          2   -1    0    0  503    0 -0.00000000000E+00 -0.00000000000E+00 -0.11543553097E+04  0.11543553097E+04  0.00000000000E+00 0.  1.
         21    1    1    2  503  504 -0.31774884351E+02 -0.31325152140E+02 -0.12534739083E+02  0.46346824228E+02  0.00000000000E+00 0. -1.
         21    1    1    2  504  502  0.13870747515E+03  0.88831372520E+00  0.35749114052E+03  0.38345856141E+03  0.00000000000E+00 0. -1.
         21    1    1    2  505  501 -0.64915512694E+02  0.30957106661E+02 -0.30669884203E+03  0.31501832636E+03  0.00000000000E+00 0.  1.
          2    1    1    2  501    0 -0.42017078105E+02 -0.52026824577E+00 -0.80052118894E+03  0.80162327778E+03  0.00000000000E+00 0.  1.
<scales pt_clust_3="47.20599" pt_clust_4="14000.00000" pt_clust_5="135.74951" pt_clust_6="42.02030"></scales>
<clustering>
<clus scale="   42.020">  2  6  1 -1</clus>
<clus scale="   47.206">  2  3  1 -1</clus>
<clus scale="  135.750">  2  5  1 -1</clus>
<clus scale="  135.750">  1  3  2 -1</clus>
</clustering>
</event>
<event>
 6    0  0.3522959E+002  0.1042323E+03  0.7546771E-02  0.1271640E+00
          1   -1    0    0  503    0 -0.00000000000E+00  0.00000000000E+00  0.29048853653E+03  0.29048853653E+03  0.00000000000E+00 0. -1.
         21   -1    0    0  505  502  0.00000000000E+00 -0.00000000000E+00 -0.31390499355E+03  0.31390499355E+03  0.00000000000E+00 0.  1.
         21    1    1    2  503  502  0.12796704557E+03  0.82609338987E+02  0.10853522271E+03  0.18702877374E+03  0.00000000000E+00 0. -1.
         21    1    1    2  504  501 -0.72405127641E+02 -0.13072297555E+02 -0.12657369529E+03  0.14640453481E+03  0.00000000000E+00 0.  1.
         21    1    1    2  505  504 -0.45079194119E+01 -0.61516039547E+02 -0.12569503139E+03  0.14001351854E+03  0.00000000000E+00 0.  1.
          1    1    1    2  501    0 -0.51053998513E+02 -0.80210018855E+01  0.12031704696E+03  0.13094670299E+03  0.00000000000E+00 0. -1.
<scales pt_clust_3="104.23227" pt_clust_4="14000.00000" pt_clust_5="62.22882" pt_clust_6="51.68024"></scales>
<clustering>
<clus scale="   51.680">  1  6  2 -1</clus>
<clus scale="   62.229">  2  5  1 -1</clus>
<clus scale="  104.232">  1  3  2 -1</clus>
<clus scale="   62.229">  2  3  1 -1</clus>
</clustering>
</event>
<event>
 6    0  0.3522959E+002  0.1071715E+03  0.7546771E-02  0.1265899E+00
          2   -1    0    0  502    0 -0.00000000000E+00  0.00000000000E+00  0.37575974334E+04  0.37575974334E+04  0.00000000000E+00 0.  1.
         21   -1    0    0  503  502  0.00000000000E+00 -0.00000000000E+00 -0.44158303741E+03  0.44158303741E+03  0.00000000000E+00 0. -1.
         21    1    1    2  503  504 -0.24482832640E+02 -0.44791403656E+02 -0.30325039832E+03  0.30751663860E+03  0.00000000000E+00 0. -1.
         21    1    1    2  504  505  0.18989298251E+02 -0.66857350754E+02 -0.11799432296E+03  0.13694217411E+03  0.00000000000E+00 0. -1.
         21    1    1    2  505  501  0.98544366110E+02  0.77204310635E+02  0.48329003433E+03  0.49924017763E+03  0.00000000000E+00 0. -1.
          2    1    1    2  501    0 -0.93050831721E+02  0.34444443774E+02  0.32539690829E+04  0.32554814804E+04  0.00000000000E+00 0.  1.
<scales pt_clust_3="51.04585" pt_clust_4="107.17152" pt_clust_5="14000.00000" pt_clust_6="99.26290"></scales>
<clustering>
<clus scale="   51.046">  2  3  1 -1</clus>
<clus scale="   99.263">  1  6  2 -1</clus>
<clus scale="  107.172">  2  4  1 -1</clus>
<clus scale="   51.046">  2  3  1 -1</clus>
</clustering>
</event>
<event>
 6    0  0.3522959E+002  0.7064690E+02  0.7546771E-02  0.1357907E+00
         21   -1    0    0  505  502  0.00000000000E+00  0.00000000000E+00  0.51004367440E+02  0.51004367440E+02  0.00000000000E+00 0.  1.
          4   -1    0    0  504    0 -0.00000000000E+00 -0.00000000000E+00 -0.43281070201E+04  0.43281070201E+04  0.00000000000E+00 0. -1.
         21    1    1    2  503  501  0.61407172957E+02 -0.14676079042E+02 -0.76469033310E+02  0.99165221938E+02  0.00000000000E+00 0. -1.
         21    1    1    2  504  502 -0.43570481452E+00  0.10060451290E+03 -0.37533294235E+02  0.10737879694E+03  0.00000000000E+00 0.  1.
         21    1    1    2  505  503 -0.65863247461E+01 -0.40749919340E+02 -0.91806417485E+02  0.10065959413E+03  0.00000000000E+00 0.  1.
          4    1    1    2  501    0 -0.54385143396E+02 -0.45178514521E+02 -0.40712939077E+04  0.40719077746E+04  0.00000000000E+00 0. -1.
<scales pt_clust_3="64.66614" pt_clust_4="14000.00000" pt_clust_5="41.27875" pt_clust_6="70.64690"></scales>
<clustering>
<clus scale="   41.279">  1  5  2 -1</clus>
<clus scale="   64.666">  1  3  2 -1</clus>
<clus scale="   70.647">  2  6  1 -1</clus>
<clus scale="   41.279">  1  3  2 -1</clus>
</clustering>
</event>
<event>
 6    0  0.3522959E+002  0.9189621E+02  0.7546771E-02  0.1298324E+00
         21   -1    0    0  505  502  0.00000000000E+00  0.00000000000E+00  0.14386013656E+04  0.14386013656E+04  0.00000000000E+00 0. -1.
          2   -1    0    0  504    0 -0.00000000000E+00 -0.00000000000E+00 -0.22495144699E+03  0.22495144699E+03  0.00000000000E+00 0.  1.
         21    1    1    2  503  501 -0.35371773889E+02 -0.14527674345E+02  0.33359102276E+03  0.33577549967E+03  0.00000000000E+00 0. -1.
         21    1    1    2  504  502  0.70209464252E+02  0.83841437272E+02  0.11954078763E+03  0.16201467644E+03  0.00000000000E+00 0. -1.
         21    1    1    2  505  503 -0.43574329536E+02 -0.90929811990E+01  0.95804323695E+03  0.95907676876E+03  0.00000000000E+00 0. -1.
          2    1    1    2  501    0  0.87366391732E+01 -0.60220781728E+02 -0.19752512876E+03  0.20668586770E+03  0.00000000000E+00 0.  1.
<scales pt_clust_3="36.28845" pt_clust_4="83.13844" pt_clust_5="36.28845" pt_clust_6="60.85122"></scales>
<clustering>
<clus scale="   36.288">  3  5 -1 -1</clus>
<clus scale="   60.851">  2  6  1 -1</clus>
<clus scale="   83.138">  2  4  1 -1</clus>
<clus scale="   91.896">  1  3  2 -1</clus>
</clustering>
</event>
<event>
 6    0  0.3522959E+002  0.8854764E+02  0.7546771E-02  0.1306407E+00
          1   -1    0    0  503    0 -0.00000000000E+00  0.00000000000E+00  0.67562122771E+03  0.67562122771E+03  0.00000000000E+00 0. -1.
         21   -1    0    0  504  502  0.00000000000E+00 -0.00000000000E+00 -0.95450577667E+03  0.95450577667E+03  0.00000000000E+00 0.  1.
         21    1    1    2  503  502 -0.34487357518E+02  0.29209224813E+02  0.48178481095E+01  0.45450723902E+02  0.00000000000E+00 0.  1.
         21    1    1    2  504  505 -0.88715814361E-01  0.71856681656E+02 -0.41621354340E+03  0.42237081372E+03  0.00000000000E+00 0.  1.
         21    1    1    2  505  501  0.83537618686E+02 -0.10038784686E+03 -0.50566275915E+03  0.52225576064E+03  0.00000000000E+00 0.  1.
          1    1    1    2  501    0 -0.48961545354E+02 -0.67805961093E+00  0.63817390547E+03  0.64004970613E+03  0.00000000000E+00 0. -1.
<scales pt_clust_3="45.19465" pt_clust_4="71.99536" pt_clust_5="88.54764" pt_clust_6="14000.00000"></scales>
<clustering>
<clus scale="   45.195">  1  3  2 -1</clus>
<clus scale="   71.995">  2  4  1 -1</clus>
<clus scale="   88.548">  2  5  1 -1</clus>
<clus scale="   71.995">  2  3  1 -1</clus>
</clustering>
</event>
<event>
 6    0  0.3522959E+002  0.8470752E+02  0.7546771E-02  0.1316199E+00
         21   -1    0    0  505  502  0.00000000000E+00  0.00000000000E+00  0.13347509012E+02  0.13347509012E+02  0.00000000000E+00 0.  1.
          2   -1    0    0  504    0 -0.00000000000E+00 -0.00000000000E+00 -0.26863143131E+04  0.26863143131E+04  0.00000000000E+00 0. -1.
         21    1    1    2  503  502  0.11901519783E+02  0.30672030176E+02 -0.87458229278E+02  0.93441754461E+02  0.00000000000E+00 0. -1.
         21    1    1    2  504  503 -0.54594540947E+02  0.60663877133E+02 -0.30728972260E+03  0.31794283056E+03  0.00000000000E+00 0.  1.
         21    1    1    2  505  501  0.76423026571E+02 -0.45420385226E+02 -0.42576630023E+03  0.43494877031E+03  0.00000000000E+00 0. -1.
          2    1    1    2  501    0 -0.33730005408E+02 -0.45915522082E+02 -0.18524525520E+04  0.18533284668E+04  0.00000000000E+00 0. -1.
<scales pt_clust_3="32.90015" pt_clust_4="14000.00000" pt_clust_5="84.70752" pt_clust_6="55.63102"></scales>
<clustering>
<clus scale="   32.900">  1  3  2 -1</clus>
<clus scale="   55.631">  2  6  1 -1</clus>
<clus scale="   84.708">  2  5  1 -1</clus>
<clus scale="   32.900">  1  3  2 -1</clus>
</clustering>
</event>
<event>
 6    0  0.3522959E+002  0.1180563E+03  0.7546771E-02  0.1246338E+00
         21   -1    0    0  504  502  0.00000000000E+00  0.00000000000E+00  0.26780099786E+03  0.26780099786E+03  0.00000000000E+00 0. -1.
          1   -1    0    0  503    0 -0.00000000000E+00 -0.00000000000E+00 -0.35267896113E+03  0.35267896113E+03  0.00000000000E+00 0.  1.
         21    1    1    2  503  505  0.44283959061E+02  0.31647040697E+02 -0.12963889386E+02  0.55952360478E+02  0.00000000000E+00 0.  1.
         21    1    1    2  504  501 -0.48259419662E+02 -0.12503021367E+03  0.12290182202E+03  0.18184164477E+03  0.00000000000E+00 0. -1.
         21    1    1    2  505  502 -0.35731935026E+02  0.10868527977E+03  0.56635595095E+02  0.12765912365E+03  0.00000000000E+00 0. -1.
          1    1    1    2  501    0  0.39707395626E+02 -0.15302106798E+02 -0.25145149100E+03  0.25502683009E+03  0.00000000000E+00 0.  1.
<scales pt_clust_3="63.74227" pt_clust_4="118.05633" pt_clust_5="14000.00000" pt_clust_6="42.55387"></scales>
<clustering>
<clus scale="   42.554">  2  6  1 -1</clus>
<clus scale="   63.742">  2  3  1 -1</clus>
<clus scale="  118.056">  1  4  2 -1</clus>
<clus scale="  118.056">  1  3  2 -1</clus>
</clustering>
</event>
<event>
 6    0  0.3522959E+002  0.1364505E+03  0.7546771E-02  0.1218186E+00
          2   -1    0    0  504    0 -0.00000000000E+00  0.00000000000E+00  0.15939864963E+04  0.15939864963E+04  0.00000000000E+00 0. -1.
         21   -1    0    0  505  502  0.00000000000E+00 -0.00000000000E+00 -0.33569503533E+03  0.33569503533E+03  0.00000000000E+00 0.  1.
         21    1    1    2  503  501 -0.61983844005E+01 -0.17220248859E+03  0.30522427996E+03  0.35050531825E+03  0.00000000000E+00 0.  1.
         21    1    1    2  504  502 -0.23526945386E+02  0.60598132271E+02 -0.16919758458E+02  0.67170894145E+02  0.00000000000E+00 0.  1.
         21    1    1    2  505  503  0.66035023554E+02  0.69533544366E+02 -0.26188041277E+03  0.27888508156E+03  0.00000000000E+00 0.  1.
          2    1    1    2  501    0 -0.36309693767E+02  0.42070811948E+02  0.12318673523E+04  0.12331202377E+04  0.00000000000E+00 0. -1.
<scales pt_clust_3="136.45049" pt_clust_4="68.65650" pt_clust_5="14000.00000" pt_clust_6="55.57290"></scales>
<clustering>
<clus scale="   55.573">  1  6  2 -1</clus>
<clus scale="   68.656">  2  4  1 -1</clus>
<clus scale="  136.450">  1  3  2 -1</clus>
<clus scale="   68.656">  2  3  1 -1</clus>
</clustering>
</event>
<event>
 6    0  0.3522959E+002  0.1301100E+03  0.7546771E-02  0.1227293E+00
         21   -1    0    0  504  502  0.00000000000E+00  0.00000000000E+00  0.83355512242E+02  0.83355512242E+02  0.00000000000E+00 0. -1.
          2   -1    0    0  503    0 -0.00000000000E+00 -0.00000000000E+00 -0.12580137854E+04  0.12580137854E+04  0.00000000000E+00 0. -1.
         21    1    1    2  503  505 -0.48936310894E+02 -0.37229652926E+02 -0.26906705189E+03  0.27600342026E+03  0.00000000000E+00 0.  1.
         21    1    1    2  504  501 -0.92586875833E+02 -0.23476505726E+02 -0.67881656164E+02  0.11718103576E+03  0.00000000000E+00 0. -1.
         21    1    1    2  505  502  0.20477671822E+03  0.19319723855E+02 -0.14570700542E+03  0.25206603794E+03  0.00000000000E+00 0. -1.
          2    1    1    2  501    0 -0.63253531496E+02  0.41386434797E+02 -0.69200255968E+03  0.69611880368E+03  0.00000000000E+00 0. -1.
<scales pt_clust_3="61.48829" pt_clust_4="130.10995" pt_clust_5="14000.00000" pt_clust_6="98.88867"></scales>
<clustering>
<clus scale="   61.488">  2  3  1 -1</clus>
<clus scale="   98.889">  2  6  1 -1</clus>
<clus scale="  130.110">  1  4  2 -1</clus>
<clus scale="  130.110">  1  3  2 -1</clus>
</clustering>
</event>
<event>
 6    0  0.3522959E+002  0.1537482E+03  0.7546771E-02  0.1195941E+00
         21   -1    0    0  505  502  0.00000000000E+00  0.00000000000E+00  0.65765577531E+03  0.65765577531E+03  0.00000000000E+00 0.  1.
          2   -1    0    0  504    0 -0.00000000000E+00 -0.00000000000E+00 -0.10842216037E+03  0.10842216037E+03  0.00000000000E+00 0.  1.
         21    1    1    2  503  501  0.78700162875E+02 -0.87457305938E+02  0.40220316980E+03  0.41905833221E+03  0.00000000000E+00 0.  1.
         21    1    1    2  504  502 -0.85763906699E+02  0.92426410568E+02  0.48175365066E+02  0.13497760874E+03  0.00000000000E+00 0.  1.
         21    1    1    2  505  503 -0.10422890958E+02 -0.38376273891E+02  0.14620258085E+03  0.15151425577E+03  0.00000000000E+00 0.  1.
          2    1    1    2  501    0  0.17486634782E+02  0.33407169261E+02 -0.47347500775E+02  0.60527738960E+02  0.00000000000E+00 0.  1.
<scales pt_clust_3="37.59523" pt_clust_4="139.03303" pt_clust_5="37.59523" pt_clust_6="37.70705"></scales>
<clustering>
<clus scale="   37.707">  2  6  1 -1</clus>
<clus scale="   37.595">  3  5 -1 -1</clus>
<clus scale="  139.033">  2  4  1 -1</clus>
<clus scale="  153.748">  1  3  2 -1</clus>
</clustering>
</event>
<event>
 6    0  0.3522959E+002  0.1692233E+03  0.7546771E-02  0.1178660E+00
          2   -1    0    0  503    0 -0.00000000000E+00  0.00000000000E+00  0.23671519071E+03  0.23671519071E+03  0.00000000000E+00 0.  1.
         21   -1    0    0  501  502  0.00000000000E+00 -0.00000000000E+00 -0.33648253114E+03  0.33648253114E+03  0.00000000000E+00 0.  1.
         21    1    1    2  503  505  0.62046538555E+02  0.19254310747E+03  0.10496070440E+03  0.22790210760E+03  0.00000000000E+00 0.  1.
         21    1    1    2  504  502 -0.18941048657E+02 -0.10300226153E+03 -0.12841955249E+03  0.16571001981E+03  0.00000000000E+00 0.  1.
         21    1    1    2  505  504 -0.31325165930E+02 -0.46305793448E+02 -0.11008710635E+03  0.12346928165E+03  0.00000000000E+00 0.  1.
          2    1    1    2  501    0 -0.11780323969E+02 -0.43235052497E+02  0.33778614009E+02  0.56116312794E+02  0.00000000000E+00 0.  1.
<scales pt_clust_3="163.45295" pt_clust_4="32.01157" pt_clust_5="32.01157" pt_clust_6="44.81122"></scales>
<clustering>
<clus scale="   32.012">  4  5 -1 -1</clus>
<clus scale="   44.811">  1  6  2 -1</clus>
<clus scale="  163.453">  1  3  2 -1</clus>
<clus scale="  169.223">  2  3  1 -1</clus>
</clustering>
</event>
<event>
 6    0  0.3522959E+002  0.8094724E+02  0.7546771E-02  0.1326385E+00
         21   -1    0    0  504  502  0.00000000000E+00  0.00000000000E+00  0.56675680702E+03  0.56675680702E+03  0.00000000000E+00 0. -1.
          1   -1    0    0  502    0 -0.00000000000E+00 -0.00000000000E+00 -0.19018121457E+04  0.19018121457E+04  0.00000000000E+00 0. -1.
         21    1    1    2  503  505  0.25055642187E+02 -0.45010754082E+02  0.45496496537E+02  0.68729065071E+02  0.00000000000E+00 0. -1.
         21    1    1    2  504  503 -0.18719988098E+02  0.90455445036E+02  0.50048519458E+03  0.50893816470E+03  0.00000000000E+00 0. -1.
         21    1    1    2  505  501 -0.54065190791E+02 -0.50172027345E+02 -0.29302028129E+03  0.30216082213E+03  0.00000000000E+00 0. -1.
          1    1    1    2  501    0  0.47729536703E+02  0.47273363904E+01 -0.15880167485E+04  0.15887409008E+04  0.00000000000E+00 0. -1.
<scales pt_clust_3="80.94724" pt_clust_4="14000.00000" pt_clust_5="46.51371" pt_clust_6="47.96307"></scales>
<clustering>
<clus scale="   47.963">  2  6  1 -1</clus>
<clus scale="   46.514">  2  5  1 -1</clus>
<clus scale="   80.947">  2  3  1 -1</clus>
<clus scale="   80.947">  1  3  2 -1</clus>
</clustering>
</event>
<event>
 6    0  0.3522959E+002  0.1646925E+03  0.7546771E-02  0.1183499E+00
          2   -1    0    0  504    0 -0.00000000000E+00  0.00000000000E+00  0.14347221459E+04  0.14347221459E+04  0.00000000000E+00 0.  1.
         21   -1    0    0  503  502  0.00000000000E+00 -0.00000000000E+00 -0.47612120219E+02  0.47612120219E+02  0.00000000000E+00 0.  1.
         21    1    1    2  503  505 -0.56622253308E+02  0.73131188543E+02  0.86365447839E+02  0.12654343479E+03  0.00000000000E+00 0.  1.
         21    1    1    2  504  502  0.95221194359E+02 -0.13676029863E+03  0.30344628947E+03  0.34619374017E+03  0.00000000000E+00 0.  1.
         21    1    1    2  505  501 -0.46642670653E+02  0.29619261998E+02  0.12580748009E+03  0.13740582758E+03  0.00000000000E+00 0. -1.
          2    1    1    2  501    0  0.80437296016E+01  0.34009848092E+02  0.87149080830E+03  0.87219126360E+03  0.00000000000E+00 0.  1.
<scales pt_clust_3="45.51387" pt_clust_4="153.92552" pt_clust_5="45.51387" pt_clust_6="34.94812"></scales>
<clustering>
<clus scale="   34.948">  1  6  2 -1</clus>
<clus scale="   45.514">  3  5 -1 -1</clus>
<clus scale="  153.926">  1  4  2 -1</clus>
<clus scale="  164.693">  2  3  1 -1</clus>
</clustering>
</event>
<event>
 6    0  0.3522959E+002  0.2597939E+03  0.7546771E-02  0.1107267E+00
          2   -1    0    0  503    0 -0.00000000000E+00  0.00000000000E+00  0.47994614521E+03  0.47994614521E+03  0.00000000000E+00 0.  1.
         21   -1    0    0  505  502  0.00000000000E+00 -0.00000000000E+00 -0.14892680760E+03  0.14892680760E+03  0.00000000000E+00 0.  1.
         21    1    1    2  503  502  0.12094350369E+03 -0.20628618224E+03  0.46530785205E+02  0.24361123546E+03  0.00000000000E+00 0.  1.
         21    1    1    2  504  501 -0.39234049171E+02  0.75767456178E+02  0.10358292983E+03  0.13419925999E+03  0.00000000000E+00 0.  1.
         21    1    1    2  505  504 -0.85934197268E+02  0.82506458156E+02  0.94249596303E+02  0.15190453680E+03  0.00000000000E+00 0.  1.
          2    1    1    2  501    0  0.42247427484E+01  0.48012267908E+02  0.86656026274E+02  0.99157920564E+02  0.00000000000E+00 0.  1.
<scales pt_clust_3="239.12616" pt_clust_4="31.14919" pt_clust_5="81.94680" pt_clust_6="81.94680"></scales>
<clustering>
<clus scale="   31.149">  4  6 -1 -1</clus>
<clus scale="   81.947">  4  5 -1 -1</clus>
<clus scale="  239.126">  2  3  1 -1</clus>
<clus scale="  239.126">  2  3  1 -1</clus>
</clustering>
</event>
<event>
 6    0  0.3522959E+002  0.1222980E+03  0.7546771E-02  0.1239354E+00
         21   -1    0    0  505  502  0.00000000000E+00  0.00000000000E+00  0.83977343959E+03  0.83977343959E+03  0.00000000000E+00 0.  1.
          1   -1    0    0  504    0 -0.00000000000E+00 -0.00000000000E+00 -0.64884769980E+03  0.64884769980E+03  0.00000000000E+00 0.  1.
         21    1    1    2  503  502  0.15178144302E+02 -0.37141799499E+02  0.91743422741E+02  0.10013363546E+03  0.00000000000E+00 0.  1.
         21    1    1    2  504  503 -0.46464429861E+02 -0.20839500177E+02 -0.64772101821E+02  0.82393283611E+02  0.00000000000E+00 0.  1.
         21    1    1    2  505  501  0.48653312725E+02 -0.68283984468E+02  0.72546819166E+03  0.73029716176E+03  0.00000000000E+00 0.  1.
          1    1    1    2  501    0 -0.17367027166E+02  0.12626528414E+03 -0.56151377278E+03  0.57579705855E+03  0.00000000000E+00 0.  1.
<scales pt_clust_3="40.12343" pt_clust_4="50.94196" pt_clust_5="14000.00000" pt_clust_6="122.29799"></scales>
<clustering>
<clus scale="   40.123">  1  3  2 -1</clus>
<clus scale="   50.942">  2  4  1 -1</clus>
<clus scale="  122.298">  2  6  1 -1</clus>
<clus scale="   40.123">  1  3  2 -1</clus>
</clustering>
</event>
<event>
 6    0  0.3522959E+002  0.3757385E+03  0.7546771E-02  0.1052520E+00
         21   -1    0    0  504  502  0.00000000000E+00  0.00000000000E+00  0.26704391056E+03  0.26704391056E+03  0.00000000000E+00 0.  1.
          2   -1    0    0  505    0 -0.00000000000E+00 -0.00000000000E+00 -0.13356924418E+04  0.13356924418E+04  0.00000000000E+00 0. -1.
         21    1    1    2  503  502  0.20317775930E+03  0.81743248045E+02  0.72320551348E+02  0.23063699318E+03  0.00000000000E+00 0.  1.
         21    1    1    2  504  501 -0.88245621280E+02  0.11941134997E+02 -0.25155713158E+03  0.26685365058E+03  0.00000000000E+00 0. -1.
         21    1    1    2  505  503  0.11518171671E+03  0.76445446063E+02  0.30740903754E+02  0.14161828008E+03  0.00000000000E+00 0.  1.
          2    1    1    2  501    0 -0.23011385473E+03 -0.17012982910E+03 -0.92015285477E+03  0.96362742854E+03  0.00000000000E+00 0. -1.
<scales pt_clust_3="357.70424" pt_clust_4="67.86952" pt_clust_5="31.53970" pt_clust_6="67.86952"></scales>
<clustering>
<clus scale="   31.540">  3  5 -1 -1</clus>
<clus scale="   67.870">  4  6 -1 -1</clus>
<clus scale="  357.704">  1  3  2 -1</clus>
<clus scale="  357.704">  1  3  2 -1</clus>
</clustering>
</event>
<event>
 6    0  0.3522959E+002  0.1194927E+03  0.7546771E-02  0.1243936E+00
          2   -1    0    0  504    0 -0.00000000000E+00  0.00000000000E+00  0.20335782848E+04  0.20335782848E+04  0.00000000000E+00 0.  1.
         21   -1    0    0  505  502  0.00000000000E+00 -0.00000000000E+00 -0.52626206155E+02  0.52626206155E+02  0.00000000000E+00 0.  1.
         21    1    1    2  503  501 -0.59131137560E+02  0.70637390174E+01  0.63738929520E+03  0.64016521420E+03  0.00000000000E+00 0.  1.
         21    1    1    2  504  502  0.11049984478E+03  0.27070628563E+02  0.32167416159E+02  0.11822765027E+03  0.00000000000E+00 0.  1.
         21    1    1    2  505  503 -0.41255137563E+01 -0.54548334524E+02  0.89921643344E+02  0.10525418094E+03  0.00000000000E+00 0.  1.
          2    1    1    2  501    0 -0.47243193461E+02  0.20413966943E+02  0.12214737239E+04  0.12225574455E+04  0.00000000000E+00 0.  1.
<scales pt_clust_3="44.52000" pt_clust_4="109.47620" pt_clust_5="54.70412" pt_clust_6="44.52000"></scales>
<clustering>
<clus scale="   44.520">  3  6 -1 -1</clus>
<clus scale="   54.704">  2  5  1 -1</clus>
<clus scale="  109.476">  2  4  1 -1</clus>
<clus scale="   54.704">  2  3  1 -1</clus>
</clustering>
</event>
<event>
 6    0  0.3522959E+002  0.1549938E+03  0.7546771E-02  0.1194468E+00
          2   -1    0    0  504    0 -0.00000000000E+00  0.00000000000E+00  0.19184149318E+04  0.19184149318E+04  0.00000000000E+00 0. -1.
         21   -1    0    0  501  502  0.00000000000E+00 -0.00000000000E+00 -0.90565619002E+02  0.90565619002E+02  0.00000000000E+00 0.  1.
         21    1    1    2  503  502 -0.23851274287E+02 -0.68711405971E+02 -0.28057968640E+02  0.77957617972E+02  0.00000000000E+00 0.  1.
         21    1    1    2  504  505  0.35839549451E+02  0.53395460850E+02  0.25994679422E+03  0.26778327873E+03  0.00000000000E+00 0.  1.
         21    1    1    2  505  503 -0.28803149507E+02 -0.73208383558E+02  0.15463437246E+02  0.80176098284E+02  0.00000000000E+00 0.  1.
          2    1    1    2  501    0  0.16814874343E+02  0.88524328679E+02  0.15804970500E+04  0.15830635558E+04  0.00000000000E+00 0. -1.
<scales pt_clust_3="42.28449" pt_clust_4="64.30823" pt_clust_5="42.28449" pt_clust_6="148.62418"></scales>
<clustering>
<clus scale="   42.284">  3  5 -1 -1</clus>
<clus scale="   64.308">  1  4  2 -1</clus>
<clus scale="  148.624">  1  6  2 -1</clus>
<clus scale="  154.994">  2  3  1 -1</clus>
</clustering>
</event>
<event>
 6    0  0.3522959E+002  0.7290552E+02  0.7546771E-02  0.1350482E+00
          2   -1    0    0  505    0 -0.00000000000E+00  0.00000000000E+00  0.81534432680E+03  0.81534432680E+03  0.00000000000E+00 0.  1.
         21   -1    0    0  503  502  0.00000000000E+00 -0.00000000000E+00 -0.11935645892E+03  0.11935645892E+03  0.00000000000E+00 0. -1.
         21    1    1    2  503  504  0.32393180337E+02 -0.51821561481E+02 -0.56317410286E+02  0.83105012291E+02  0.00000000000E+00 0. -1.
         21    1    1    2  504  501 -0.77363643581E+02 -0.68741302229E+01 -0.63724510849E+01  0.77929424143E+02  0.00000000000E+00 0. -1.
         21    1    1    2  505  502  0.25806707616E+02 -0.40574678913E+02  0.31242890754E+03  0.31610775536E+03  0.00000000000E+00 0.  1.
          2    1    1    2  501    0  0.19163755628E+02  0.99270370617E+02  0.44624882170E+03  0.45755859393E+03  0.00000000000E+00 0.  1.
<scales pt_clust_3="62.39826" pt_clust_4="72.90552" pt_clust_5="48.08628" pt_clust_6="14000.00000"></scales>
<clustering>
<clus scale="   48.086">  1  5  2 -1</clus>
<clus scale="   62.398">  2  3  1 -1</clus>
<clus scale="   72.906">  2  4  1 -1</clus>
<clus scale="   62.398">  2  3  1 -1</clus>
</clustering>
</event>
<event>
 6    0  0.3522959E+002  0.1237604E+03  0.7546771E-02  0.1237019E+00
         21   -1    0    0  504  502  0.00000000000E+00  0.00000000000E+00  0.38429396991E+03  0.38429396991E+03  0.00000000000E+00 0. -1.
          2   -1    0    0  505    0 -0.00000000000E+00 -0.00000000000E+00 -0.11310303631E+04  0.11310303631E+04  0.00000000000E+00 0.  1.
         21    1    1    2  503  501 -0.40446450269E+02  0.67213917798E+02 -0.12197298928E+03  0.14502081298E+03  0.00000000000E+00 0. -1.
         21    1    1    2  504  503  0.13514730187E+03 -0.22946558394E+02  0.27094324312E+03  0.30364712865E+03  0.00000000000E+00 0. -1.
         21    1    1    2  505  502 -0.10051883827E+03  0.23731835781E+00  0.55208568219E+02  0.11468251468E+03  0.00000000000E+00 0. -1.
          2    1    1    2  501    0  0.58179866769E+01 -0.44504677761E+02 -0.95091521530E+03  0.95197387675E+03  0.00000000000E+00 0.  1.
<scales pt_clust_3="49.69597" pt_clust_4="123.76037" pt_clust_5="14000.00000" pt_clust_6="44.88335"></scales>
<clustering>
<clus scale="   44.883">  2  6  1 -1</clus>
<clus scale="   49.696">  2  3  1 -1</clus>
<clus scale="  123.760">  1  4  2 -1</clus>
<clus scale="  123.760">  1  3  2 -1</clus>
</clustering>
</event>
<event>
 6    0  0.3522959E+002  0.1075967E+03  0.7546771E-02  0.1265086E+00
          2   -1    0    0  503    0 -0.00000000000E+00  0.00000000000E+00  0.10743594638E+04  0.10743594638E+04  0.00000000000E+00 0. -1.
         21   -1    0    0  504  502  0.00000000000E+00 -0.00000000000E+00 -0.12561943616E+04  0.12561943616E+04  0.00000000000E+00 0. -1.
         21    1    1    2  503  502 -0.22452894242E+02 -0.38662930061E+02 -0.94141268512E+03  0.94247376533E+03  0.00000000000E+00 0. -1.
         21    1    1    2  504  505  0.31726877743E+02 -0.15036165736E+02 -0.26126202838E+03  0.26361056224E+03  0.00000000000E+00 0. -1.
         21    1    1    2  505  501 -0.87886658284E+02 -0.22209116251E+02 -0.69229517140E+01  0.90913347807E+02  0.00000000000E+00 0.  1.
          2    1    1    2  501    0  0.78612674783E+02  0.75908212048E+02  0.10277627674E+04  0.10335561500E+04  0.00000000000E+00 0. -1.
<scales pt_clust_3="53.46091" pt_clust_4="35.10956" pt_clust_5="14000.00000" pt_clust_6="107.59669"></scales>
<clustering>
<clus scale="   35.110">  2  4  1 -1</clus>
<clus scale="   53.461">  2  3  1 -1</clus>
<clus scale="  107.597">  1  6  2 -1</clus>
<clus scale="   35.110">  2  3  1 -1</clus>
</clustering>
</event>
<event>
 6    0  0.3522959E+002  0.7699837E+02  0.7546771E-02  0.1337792E+00
         21   -1    0    0  503  502  0.00000000000E+00  0.00000000000E+00  0.28416145945E+03  0.28416145945E+03  0.00000000000E+00 0. -1.
         -4   -1    0    0    0  501 -0.00000000000E+00 -0.00000000000E+00 -0.65413372211E+03  0.65413372211E+03  0.00000000000E+00 0.  1.
         21    1    1    2  503  501 -0.44651595621E+02 -0.26505214285E+02  0.64539525465E+02  0.82835027151E+02  0.00000000000E+00 0. -1.
         21    1    1    2  504  505 -0.37532425354E+02  0.10695228031E+03 -0.21812908122E+03  0.24582060388E+03  0.00000000000E+00 0. -1.
         21    1    1    2  505  502  0.36624688212E+02 -0.26886543150E+02  0.19095069898E+03  0.19628149029E+03  0.00000000000E+00 0. -1.
         -4    1    1    2    0  504  0.45559332763E+02 -0.53560522879E+02 -0.40733340589E+03  0.41335806025E+03  0.00000000000E+00 0.  1.
<scales pt_clust_3="50.61221" pt_clust_4="14000.00000" pt_clust_5="45.43406" pt_clust_6="76.99837"></scales>
<clustering>
<clus scale="   45.434">  1  5  2 -1</clus>
<clus scale="   50.612">  1  3  2 -1</clus>
<clus scale="   76.998">  2  6  1 -1</clus>
<clus scale="   45.434">  1  3  2 -1</clus>
</clustering>
</event>
<event>
 6    0  0.3522959E+002  0.1643850E+03  0.7546771E-02  0.1183833E+00
         21   -1    0    0  505  502  0.00000000000E+00  0.00000000000E+00  0.54148288889E+03  0.54148288889E+03  0.00000000000E+00 0.  1.
         -3   -1    0    0    0  501 -0.00000000000E+00 -0.00000000000E+00 -0.10545958947E+04  0.10545958947E+04  0.00000000000E+00 0. -1.
         21    1    1    2  503  504 -0.15720590270E+02  0.64046477830E+02  0.22240786119E+02  0.69596988786E+02  0.00000000000E+00 0. -1.
         21    1    1    2  504  502 -0.11977946660E+03  0.13118386963E+03  0.18947954828E+03  0.25972837251E+03  0.00000000000E+00 0.  1.
         21    1    1    2  505  501  0.34771506931E+02 -0.99040259049E+02  0.25568490479E+03  0.27639247665E+03  0.00000000000E+00 0.  1.
         -3    1    1    2    0  503  0.10072854994E+03 -0.96190088413E+02 -0.98051824497E+03  0.99036094562E+03  0.00000000000E+00 0. -1.
<scales pt_clust_3="51.53696" pt_clust_4="51.53696" pt_clust_5="104.96681" pt_clust_6="140.95345"></scales>
<clustering>
<clus scale="   51.537">  3  4 -1 -1</clus>
<clus scale="  104.967">  1  5  2 -1</clus>
<clus scale="  140.953">  2  6  1 -1</clus>
<clus scale="  104.967">  1  3  2 -1</clus>
</clustering>
</event>
<event>
 6    0  0.3522959E+002  0.1003075E+03  0.7546771E-02  0.1279651E+00
         -1   -1    0    0    0  501 -0.00000000000E+00  0.00000000000E+00  0.47451102061E+03  0.47451102061E+03  0.00000000000E+00 0. -1.
         21   -1    0    0  504  502  0.00000000000E+00 -0.00000000000E+00 -0.96839358459E+02  0.96839358459E+02  0.00000000000E+00 0.  1.
         21    1    1    2  503  502 -0.39116305099E+02  0.65083928036E+01  0.15495251060E+02  0.42574021503E+02  0.00000000000E+00 0.  1.
         21    1    1    2  504  501 -0.30295284953E+02  0.28439320191E+02 -0.41311837383E+02  0.58594087853E+02  0.00000000000E+00 0.  1.
         21    1    1    2  505  503  0.71459444530E+02  0.72423244778E+02  0.80283502502E+02  0.12960331543E+03  0.00000000000E+00 0.  1.
         -1    1    1    2    0  505 -0.20478544775E+01 -0.10737095777E+03  0.32320474597E+03  0.34057895428E+03  0.00000000000E+00 0. -1.
<scales pt_clust_3="39.65406" pt_clust_4="62.73228" pt_clust_5="100.30749" pt_clust_6="14000.00000"></scales>
<clustering>
<clus scale="   39.654">  2  3  1 -1</clus>
<clus scale="   62.732">  2  4  1 -1</clus>
<clus scale="  100.307">  2  5  1 -1</clus>
<clus scale="   39.654">  2  3  1 -1</clus>
</clustering>
</event>
<event>
 6    0  0.3522959E+002  0.7067088E+02  0.7546771E-02  0.1357826E+00
         21   -1    0    0  503  502  0.00000000000E+00  0.00000000000E+00  0.54839256992E+03  0.54839256992E+03  0.00000000000E+00 0.  1.
          3   -1    0    0  505    0 -0.00000000000E+00 -0.00000000000E+00 -0.15532697377E+03  0.15532697377E+03  0.00000000000E+00 0. -1.
         21    1    1    2  503  504  0.53894418704E+01 -0.31227338778E+02  0.15861665379E+03  0.16175115341E+03  0.00000000000E+00 0.  1.
         21    1    1    2  504  501 -0.39066361461E+02 -0.40538689798E+02  0.17452150967E+03  0.18337754308E+03  0.00000000000E+00 0.  1.
         21    1    1    2  505  502 -0.17256791701E+02  0.11909444741E+03  0.18195293980E+03  0.21814709846E+03  0.00000000000E+00 0.  1.
          3    1    1    2  501    0  0.50933711291E+02 -0.47328418829E+02 -0.12202550711E+03  0.14044374874E+03  0.00000000000E+00 0. -1.
<scales pt_clust_3="31.68900" pt_clust_4="65.99935" pt_clust_5="70.67088" pt_clust_6="14000.00000"></scales>
<clustering>
<clus scale="   31.689">  1  3  2 -1</clus>
<clus scale="   65.999">  1  4  2 -1</clus>
<clus scale="   70.671">  1  5  2 -1</clus>
<clus scale="   31.689">  1  3  2 -1</clus>
</clustering>
</event>
<event>
 6    0  0.3522959E+002  0.1058208E+03  0.7546771E-02  0.1268511E+00
         21   -1    0    0  501  502  0.00000000000E+00  0.00000000000E+00  0.68022749743E+02  0.68022749743E+02  0.00000000000E+00 0.  1.
          2   -1    0    0  505    0 -0.00000000000E+00 -0.00000000000E+00 -0.13340557274E+04  0.13340557274E+04  0.00000000000E+00 0. -1.
         21    1    1    2  503  502 -0.38451633174E+02  0.10086504172E+03  0.39072620217E+01  0.10801644056E+03  0.00000000000E+00 0.  1.
         21    1    1    2  504  503 -0.34997721535E+02 -0.51211100139E+02 -0.11040683813E+03  0.12663762157E+03  0.00000000000E+00 0.  1.
         21    1    1    2  505  504  0.25446664388E+02  0.21938763794E+02 -0.63225358908E+03  0.63314567281E+03  0.00000000000E+00 0. -1.
          2    1    1    2  501    0  0.48002690321E+02 -0.71592705377E+02 -0.52727981251E+03  0.53427874225E+03  0.00000000000E+00 0. -1.
<scales pt_clust_3="14000.00000" pt_clust_4="56.55912" pt_clust_5="33.59825" pt_clust_6="105.82082"></scales>
<clustering>
<clus scale="   33.598">  2  5  1 -1</clus>
<clus scale="   56.559">  2  4  1 -1</clus>
<clus scale="  105.821">  2  6  1 -1</clus>
<clus scale="  105.821">  1  3  2 -1</clus>
</clustering>
</event>
<event>
 6    0  0.3522959E+002  0.6602442E+02  0.7546771E-02  0.1374159E+00
         -1   -1    0    0    0  501 -0.00000000000E+00  0.00000000000E+00  0.14761545372E+03  0.14761545372E+03  0.00000000000E+00 0. -1.
         21   -1    0    0  504  502  0.00000000000E+00 -0.00000000000E+00 -0.11774362974E+04  0.11774362974E+04  0.00000000000E+00 0. -1.
         21    1    1    2  503  502  0.61390554280E+02 -0.52073418735E+02 -0.85935384068E+03  0.86311613621E+03  0.00000000000E+00 0. -1.
         21    1    1    2  504  505 -0.28959464142E+02  0.26429765244E+02 -0.13181593494E+03  0.13752317535E+03  0.00000000000E+00 0. -1.
         21    1    1    2  505  501 -0.74683055368E+02 -0.24993875791E+02 -0.16447212570E+03  0.18235496352E+03  0.00000000000E+00 0. -1.
         -1    1    1    2    0  503  0.42251965230E+02  0.50637529282E+02  0.12582105767E+03  0.14205747601E+03  0.00000000000E+00 0. -1.
<scales pt_clust_3="48.15532" pt_clust_4="39.20693" pt_clust_5="66.02442" pt_clust_6="14000.00000"></scales>
<clustering>
<clus scale="   39.207">  2  4  1 -1</clus>
<clus scale="   48.155">  2  3  1 -1</clus>
<clus scale="   66.024">  2  5  1 -1</clus>
<clus scale="   39.207">  2  3  1 -1</clus>
</clustering>
</event>
<event>
 6    0  0.3522959E+002  0.8139930E+02  0.7546771E-02  0.1325127E+00
         21   -1    0    0  505  502  0.00000000000E+00  0.00000000000E+00  0.32200326467E+03  0.32200326467E+03  0.00000000000E+00 0. -1.
         -1   -1    0    0    0  501 -0.00000000000E+00 -0.00000000000E+00 -0.64632838094E+03  0.64632838094E+03  0.00000000000E+00 0. -1.
         21    1    1    2  503  502 -0.76241255739E+02 -0.88718863253E+02  0.21054509279E+03  0.24085888373E+03  0.00000000000E+00 0. -1.
         21    1    1    2  504  503  0.68091943866E+02  0.20574039637E+02  0.61045514906E+02  0.93735579246E+02  0.00000000000E+00 0. -1.
         21    1    1    2  505  501  0.26652453976E+02  0.28193423911E+02 -0.27012992390E+01  0.38891123310E+02  0.00000000000E+00 0. -1.
         -1    1    1    2    0  504 -0.18503142103E+02  0.39951399705E+02 -0.59321442472E+03  0.59484605933E+03  0.00000000000E+00 0. -1.
<scales pt_clust_3="14000.00000" pt_clust_4="81.39930" pt_clust_5="38.79720" pt_clust_6="44.06689"></scales>
<clustering>
<clus scale="   38.797">  1  5  2 -1</clus>
<clus scale="   44.067">  2  6  1 -1</clus>
<clus scale="   81.399">  2  4  1 -1</clus>
<clus scale="   38.797">  1  3  2 -1</clus>
</clustering>
</event>
<event>
 6    0  0.3522959E+002  0.2836035E+03  0.7546771E-02  0.1093737E+00
          4   -1    0    0  502    0 -0.00000000000E+00  0.00000000000E+00  0.83669364545E+03  0.83669364545E+03  0.00000000000E+00 0. -1.
         21   -1    0    0  504  502  0.00000000000E+00 -0.00000000000E+00 -0.18663126537E+04  0.18663126537E+04  0.00000000000E+00 0. -1.
         21    1    1    2  503  505 -0.19304826945E+02 -0.87723840848E+02 -0.41091823038E+03  0.42062089898E+03  0.00000000000E+00 0.  1.
         21    1    1    2  504  503 -0.16491994561E+03 -0.85784056225E+02 -0.13312410548E+04  0.13441578176E+04  0.00000000000E+00 0. -1.
         21    1    1    2  505  501  0.21866947936E+03  0.19335834197E+03  0.77588856210E+02  0.30203281316E+03  0.00000000000E+00 0.  1.
          4    1    1    2  501    0 -0.34444706810E+02 -0.19850444902E+02  0.63495142068E+03  0.63619476940E+03  0.00000000000E+00 0. -1.
<scales pt_clust_3="85.94388" pt_clust_4="85.94388" pt_clust_5="255.24455" pt_clust_6="39.75523"></scales>
<clustering>
<clus scale="   39.755">  1  6  2 -1</clus>
<clus scale="   85.944">  3  4 -1 -1</clus>
<clus scale="  255.245">  1  5  2 -1</clus>
<clus scale="  283.604">  2  3  1 -1</clus>
</clustering>
</event>
<event>
 6    0  0.3522959E+002  0.7800792E+02  0.7546771E-02  0.1334802E+00
         21   -1    0    0  503  502  0.00000000000E+00  0.00000000000E+00  0.98822111516E+03  0.98822111516E+03  0.00000000000E+00 0.  1.
          2   -1    0    0  504    0 -0.00000000000E+00 -0.00000000000E+00 -0.26489214928E+03  0.26489214928E+03  0.00000000000E+00 0. -1.
         21    1    1    2  503  501 -0.49034787739E+02  0.64197108421E+02  0.11050449968E+03  0.13688288275E+03  0.00000000000E+00 0. -1.
         21    1    1    2  504  505  0.51346938710E+02 -0.41732756000E+02  0.79608305588E+02  0.10351624683E+03  0.00000000000E+00 0.  1.
         21    1    1    2  505  502 -0.65088408490E+01 -0.80201228052E+02  0.76733609484E+03  0.77154344300E+03  0.00000000000E+00 0.  1.
          2    1    1    2  501    0  0.41966898774E+01  0.57736875630E+02 -0.23411993423E+03  0.24117069187E+03  0.00000000000E+00 0. -1.
<scales pt_clust_3="78.00792" pt_clust_4="55.65970" pt_clust_5="14000.00000" pt_clust_6="57.88920"></scales>
<clustering>
<clus scale="   57.889">  2  6  1 -1</clus>
<clus scale="   55.660">  2  4  1 -1</clus>
<clus scale="   78.008">  2  3  1 -1</clus>
<clus scale="   78.008">  1  3  2 -1</clus>
</clustering>
</event>
<event>
 6    0  0.3522959E+002  0.1139096E+03  0.7546771E-02  0.1253497E+00
         21   -1    0    0  504  502  0.00000000000E+00  0.00000000000E+00  0.56666563126E+02  0.56666563126E+02  0.00000000000E+00 0.  1.
          2   -1    0    0  503    0 -0.00000000000E+00 -0.00000000000E+00 -0.10232868251E+04  0.10232868251E+04  0.00000000000E+00 0.  1.
         21    1    1    2  503  505 -0.22300080375E+02  0.53402991949E+02 -0.16114949366E+03  0.17122596894E+03  0.00000000000E+00 0.  1.
         21    1    1    2  504  501  0.36776361868E+02  0.68149215997E+02 -0.40824411841E+02  0.87541127680E+02  0.00000000000E+00 0.  1.
         21    1    1    2  505  502 -0.23117308023E+02 -0.18637547210E+03 -0.31444020968E+03  0.36625520064E+03  0.00000000000E+00 0.  1.
          2    1    1    2  501    0  0.86410265299E+01  0.64823264157E+02 -0.45020614680E+03  0.45493109098E+03  0.00000000000E+00 0.  1.
<scales pt_clust_3="57.87204" pt_clust_4="80.23609" pt_clust_5="14000.00000" pt_clust_6="113.90958"></scales>
<clustering>
<clus scale="   57.872">  2  3  1 -1</clus>
<clus scale="   80.236">  1  4  2 -1</clus>
<clus scale="  113.910">  2  6  1 -1</clus>
<clus scale="   80.236">  1  3  2 -1</clus>
</clustering>
</event>
<event>
 6    0  0.3522959E+002  0.1379306E+03  0.7546771E-02  0.1216141E+00
         -2   -1    0    0    0  501 -0.00000000000E+00  0.00000000000E+00  0.12314726386E+04  0.12314726386E+04  0.00000000000E+00 0.  1.
         21   -1    0    0  503  502  0.00000000000E+00 -0.00000000000E+00 -0.91224180945E+02  0.91224180945E+02  0.00000000000E+00 0. -1.
         21    1    1    2  503  501  0.32979707733E+02  0.29455298320E+02 -0.25792248115E+02  0.51190973658E+02  0.00000000000E+00 0. -1.
         21    1    1    2  504  502  0.33750588510E+02 -0.27041748675E+02 -0.12585589581E+02  0.45041708019E+02  0.00000000000E+00 0. -1.
         21    1    1    2  505  504  0.71377937331E+02 -0.63548591034E+02  0.10386482347E+03  0.14114225064E+03  0.00000000000E+00 0. -1.
         -2    1    1    2    0  505 -0.13810823357E+03  0.61135041389E+02  0.10747614719E+04  0.10853218872E+04  0.00000000000E+00 0.  1.
<scales pt_clust_3="55.29194" pt_clust_4="43.24764" pt_clust_5="137.93064" pt_clust_6="14000.00000"></scales>
<clustering>
<clus scale="   43.248">  2  4  1 -1</clus>
<clus scale="   55.292">  2  3  1 -1</clus>
<clus scale="  137.931">  2  5  1 -1</clus>
<clus scale="   43.248">  2  3  1 -1</clus>
</clustering>
</event>
<event>
 6    0  0.3522959E+002  0.9622300E+02  0.7546771E-02  0.1288445E+00
          1   -1    0    0  504    0 -0.00000000000E+00  0.00000000000E+00  0.13703229056E+04  0.13703229056E+04  0.00000000000E+00 0.  1.
         21   -1    0    0  505  502  0.00000000000E+00 -0.00000000000E+00 -0.45997500719E+03  0.45997500719E+03  0.00000000000E+00 0. -1.
         21    1    1    2  503  501 -0.57791512064E+02  0.45161656784E+02  0.10330311007E+03  0.12669240964E+03  0.00000000000E+00 0. -1.
         21    1    1    2  504  502 -0.65193625057E+02  0.47580499658E+01 -0.40992492815E+02  0.77157191853E+02  0.00000000000E+00 0. -1.
         21    1    1    2  505  503  0.11559225307E+03 -0.91975812338E+02 -0.37480297117E+03  0.40286273869E+03  0.00000000000E+00 0. -1.
          1    1    1    2  501    0  0.73928840479E+01  0.42056105588E+02  0.12228402524E+04  0.12235855726E+04  0.00000000000E+00 0.  1.
<scales pt_clust_3="14000.00000" pt_clust_4="65.04694" pt_clust_5="96.22300" pt_clust_6="42.70095"></scales>
<clustering>
<clus scale="   42.701">  1  6  2 -1</clus>
<clus scale="   65.047">  2  4  1 -1</clus>
<clus scale="   96.223">  2  5  1 -1</clus>
<clus scale="   65.047">  2  3  1 -1</clus>
</clustering>
</event>
<event>
 6    0  0.3522959E+002  0.1502807E+03  0.7546771E-02  0.1200128E+00
          2   -1    0    0  505    0 -0.00000000000E+00  0.00000000000E+00  0.22808892766E+04  0.22808892766E+04  0.00000000000E+00 0.  1.
         21   -1    0    0  504  502  0.00000000000E+00 -0.00000000000E+00 -0.81176161761E+02  0.81176161761E+02  0.00000000000E+00 0. -1.
         21    1    1    2  503  501  0.39523944444E+02 -0.53733667546E+02  0.26240191135E+02  0.71679821729E+02  0.00000000000E+00 0. -1.
         21    1    1    2  504  503  0.11497807758E+02 -0.74843455188E+02 -0.56153447979E+01  0.75929404482E+02  0.00000000000E+00 0. -1.
         21    1    1    2  505  502 -0.90080904308E+02  0.13885436807E+03  0.37484281253E+03  0.40975875703E+03  0.00000000000E+00 0. -1.
          2    1    1    2  501    0  0.39059152106E+02 -0.10277245341E+02  0.18042454560E+04  0.18046974552E+04  0.00000000000E+00 0.  1.
<scales pt_clust_3="45.00975" pt_clust_4="45.00975" pt_clust_5="142.67620" pt_clust_6="40.38860"></scales>
<clustering>
<clus scale="   40.389">  1  6  2 -1</clus>
<clus scale="   45.010">  3  4 -1 -1</clus>
<clus scale="  142.676">  1  5  2 -1</clus>
<clus scale="  150.281">  2  3  1 -1</clus>
</clustering>
</event>
<event>
 6    0  0.3522959E+002  0.8117244E+02  0.7546771E-02  0.1325757E+00
         21   -1    0    0  503  502  0.00000000000E+00  0.00000000000E+00  0.11026313138E+04  0.11026313138E+04  0.00000000000E+00 0.  1.
         -3   -1    0    0    0  501 -0.00000000000E+00 -0.00000000000E+00 -0.25609868531E+04  0.25609868531E+04  0.00000000000E+00 0. -1.
         21    1    1    2  503  501  0.52113899426E+02 -0.50683394370E+02  0.50160482700E+03  0.50684521054E+03  0.00000000000E+00 0.  1.
         21    1    1    2  504  505  0.73183509101E+02  0.36916246441E+02 -0.11320602874E+01  0.81975098756E+02  0.00000000000E+00 0.  1.
         21    1    1    2  505  502 -0.83909871112E+02 -0.28838573561E+02  0.55410438777E+03  0.56116325818E+03  0.00000000000E+00 0.  1.
         -3    1    1    2    0  504 -0.41387537415E+02  0.42605721491E+02 -0.25129326938E+04  0.25136345994E+04  0.00000000000E+00 0. -1.
<scales pt_clust_3="69.43450" pt_clust_4="81.17244" pt_clust_5="14000.00000" pt_clust_6="59.39845"></scales>
<clustering>
<clus scale="   59.398">  2  6  1 -1</clus>
<clus scale="   69.435">  1  3  2 -1</clus>
<clus scale="   81.172">  2  4  1 -1</clus>
<clus scale="   69.435">  1  3  2 -1</clus>
</clustering>
</event>
<event>
 6    0  0.3522959E+002  0.2193251E+03  0.7546771E-02  0.1134387E+00
         21   -1    0    0  503  502  0.00000000000E+00  0.00000000000E+00  0.68375756519E+03  0.68375756519E+03  0.00000000000E+00 0. -1.
          1   -1    0    0  505    0 -0.00000000000E+00 -0.00000000000E+00 -0.29533198136E+03  0.29533198136E+03  0.00000000000E+00 0. -1.
         21    1    1    2  503  501  0.45759577396E+02 -0.26537497244E+03  0.23750493203E+03  0.35906323630E+03  0.00000000000E+00 0. -1.
         21    1    1    2  504  502  0.44495065518E+01  0.19844991033E+03  0.33746460630E+03  0.39151567724E+03  0.00000000000E+00 0. -1.
         21    1    1    2  505  504 -0.31461717504E+02  0.23650258608E+02 -0.35296614487E+01  0.39517501319E+02  0.00000000000E+00 0.  1.
          1    1    1    2  501    0 -0.18747366444E+02  0.43274803504E+02 -0.18301429305E+03  0.18899313169E+03  0.00000000000E+00 0. -1.
<scales pt_clust_3="219.32512" pt_clust_4="14000.00000" pt_clust_5="39.35955" pt_clust_6="71.63069"></scales>
<clustering>
<clus scale="   39.360">  2  5  1 -1</clus>
<clus scale="   71.631">  2  6  1 -1</clus>
<clus scale="  219.325">  2  3  1 -1</clus>
<clus scale="  219.325">  1  3  2 -1</clus>
</clustering>
</event>
<event>
 6    0  0.3522959E+002  0.1440480E+03  0.7546771E-02  0.1207984E+00
         21   -1    0    0  503  502  0.00000000000E+00  0.00000000000E+00  0.35381762314E+03  0.35381762314E+03  0.00000000000E+00 0. -1.
          1   -1    0    0  504    0 -0.00000000000E+00 -0.00000000000E+00 -0.11515144195E+04  0.11515144195E+04  0.00000000000E+00 0. -1.
         21    1    1    2  503  501 -0.36466113961E+02  0.16571913748E+03 -0.59568579815E+02  0.17983610787E+03  0.00000000000E+00 0. -1.
         21    1    1    2  504  505  0.83301219616E+02 -0.95380378394E+02  0.77729765340E+01  0.12687367314E+03  0.00000000000E+00 0. -1.
         21    1    1    2  505  502 -0.41553281552E+02 -0.10299588066E+03  0.21243494292E+03  0.23971531368E+03  0.00000000000E+00 0. -1.
          1    1    1    2  501    0 -0.52818241038E+01  0.32657121572E+02 -0.95833613604E+03  0.95890694799E+03  0.00000000000E+00 0. -1.
<scales pt_clust_3="144.04803" pt_clust_4="14000.00000" pt_clust_5="109.06714" pt_clust_6="33.08149"></scales>
<clustering>
<clus scale="   33.081">  2  6  1 -1</clus>
<clus scale="  109.067">  1  5  2 -1</clus>
<clus scale="  144.048">  1  3  2 -1</clus>
<clus scale="  109.067">  1  3  2 -1</clus>
</clustering>
</event>
<event>
 6    0  0.3522959E+002  0.1309031E+03  0.7546771E-02  0.1226122E+00
          2   -1    0    0  505    0 -0.00000000000E+00  0.00000000000E+00  0.13214996008E+03  0.13214996008E+03  0.00000000000E+00 0.  1.
         21   -1    0    0  503  502  0.00000000000E+00 -0.00000000000E+00 -0.40994052010E+03  0.40994052010E+03  0.00000000000E+00 0. -1.
         21    1    1    2  503  504 -0.96745523397E+02  0.27977936575E+02 -0.95326951757E+02  0.13867115404E+03  0.00000000000E+00 0. -1.
         21    1    1    2  504  501 -0.17735360579E+01 -0.53428333688E+02  0.63504618844E+01  0.53833638527E+02  0.00000000000E+00 0.  1.
         21    1    1    2  505  502  0.45989111534E+02  0.91202175793E+02 -0.23309249079E+03  0.25448957643E+03  0.00000000000E+00 0. -1.
          2    1    1    2  501    0  0.52529947921E+02 -0.65751778680E+02  0.44278420640E+02  0.95096111185E+02  0.00000000000E+00 0.  1.
<scales pt_clust_3="100.70979" pt_clust_4="42.44832" pt_clust_5="119.57819" pt_clust_6="42.44832"></scales>
<clustering>
<clus scale="   42.448">  4  6 -1 -1</clus>
<clus scale="  100.710">  2  3  1 -1</clus>
<clus scale="  119.578">  2  5  1 -1</clus>
<clus scale="  100.710">  2  3  1 -1</clus>
</clustering>
</event>
<event>
 6    0  0.3522959E+002  0.6238402E+02  0.7546771E-02  0.1388091E+00
          2   -1    0    0  505    0 -0.00000000000E+00  0.00000000000E+00  0.23724250697E+04  0.23724250697E+04  0.00000000000E+00 0. -1.
         21   -1    0    0  503  502  0.00000000000E+00 -0.00000000000E+00 -0.27056620849E+02  0.27056620849E+02  0.00000000000E+00 0. -1.
         21    1    1    2  503  501 -0.12741737873E+02  0.80635549695E+02  0.15888908477E+03  0.17863422129E+03  0.00000000000E+00 0. -1.
         21    1    1    2  504  502 -0.40637568123E+02 -0.47560915033E+02  0.51890688996E+02  0.81277894819E+02  0.00000000000E+00 0. -1.
         21    1    1    2  505  504 -0.17683698030E+02 -0.32430718164E+02  0.18317862267E+03  0.18686592108E+03  0.00000000000E+00 0. -1.
          2    1    1    2  501    0  0.71063004026E+02 -0.64391649885E+00  0.19514100525E+04  0.19527036534E+04  0.00000000000E+00 0. -1.
<scales pt_clust_3="62.38402" pt_clust_4="14000.00000" pt_clust_5="36.93866" pt_clust_6="62.70076"></scales>
<clustering>
<clus scale="   36.939">  1  5  2 -1</clus>
<clus scale="   62.701">  1  6  2 -1</clus>
<clus scale="   62.384">  1  3  2 -1</clus>
<clus scale="   62.384">  2  3  1 -1</clus>
</clustering>
</event>
<event>
 6    0  0.3522959E+002  0.1062046E+03  0.7546771E-02  0.1267764E+00
         21   -1    0    0  503  502  0.00000000000E+00  0.00000000000E+00  0.81206523414E+02  0.81206523414E+02  0.00000000000E+00 0.  1.
         -4   -1    0    0    0  501 -0.00000000000E+00 -0.00000000000E+00 -0.16485554261E+04  0.16485554261E+04  0.00000000000E+00 0. -1.
         21    1    1    2  503  501  0.53977174819E+02 -0.99219998810E+02 -0.27749039174E+02  0.11631058740E+03  0.00000000000E+00 0.  1.
         21    1    1    2  504  502  0.32308468964E+02 -0.34635558873E+02 -0.70684956720E+02  0.85087144809E+02  0.00000000000E+00 0.  1.
         21    1    1    2  505  504 -0.82519161281E+02  0.61860539513E+02 -0.63524633169E+02  0.12112603909E+03  0.00000000000E+00 0.  1.
         -4    1    1    2    0  505 -0.37664825023E+01  0.71995018170E+02 -0.14053902736E+04  0.14072381782E+04  0.00000000000E+00 0. -1.
<scales pt_clust_3="106.20459" pt_clust_4="47.36517" pt_clust_5="14000.00000" pt_clust_6="71.64158"></scales>
<clustering>
<clus scale="   47.365">  1  4  2 -1</clus>
<clus scale="   71.642">  2  6  1 -1</clus>
<clus scale="  106.205">  2  3  1 -1</clus>
<clus scale="   47.365">  1  3  2 -1</clus>
</clustering>
</event>
<event>
 6    0  0.3522959E+002  0.1204372E+03  0.7546771E-02  0.1242377E+00
         21   -1    0    0  505  502  0.00000000000E+00  0.00000000000E+00  0.23046906166E+03  0.23046906166E+03  0.00000000000E+00 0.  1.
          2   -1    0    0  503    0 -0.00000000000E+00 -0.00000000000E+00 -0.83244085213E+02  0.83244085213E+02  0.00000000000E+00 0.  1.
         21    1    1    2  503  504  0.18605916513E+02 -0.34377543631E+02  0.24121585943E+00  0.39090328989E+02  0.00000000000E+00 0.  1.
         21    1    1    2  504  502  0.95598000227E+02  0.41657586577E+02  0.52330054153E+02  0.11667376198E+03  0.00000000000E+00 0.  1.
         21    1    1    2  505  501 -0.52997028317E+02 -0.11847398028E+02  0.76740387517E+02  0.94011344670E+02  0.00000000000E+00 0.  1.
          2    1    1    2  501    0 -0.61206888423E+02  0.45673550821E+01  0.17913318915E+02  0.63937711231E+02  0.00000000000E+00 0.  1.
<scales pt_clust_3="39.08958" pt_clust_4="107.75937" pt_clust_5="52.82597" pt_clust_6="52.82597"></scales>
<clustering>
<clus scale="   39.090">  2  3  1 -1</clus>
<clus scale="   52.826">  5  6 -1 -1</clus>
<clus scale="  107.759">  2  4  1 -1</clus>
<clus scale="  120.437">  1  3  2 -1</clus>
</clustering>
</event>
<event>
 6    0  0.3522959E+002  0.1368585E+03  0.7546771E-02  0.1217620E+00
         21   -1    0    0  503  502  0.00000000000E+00  0.00000000000E+00  0.18041070056E+03  0.18041070056E+03  0.00000000000E+00 0.  1.
         -3   -1    0    0    0  501 -0.00000000000E+00 -0.00000000000E+00 -0.94079389626E+03  0.94079389626E+03  0.00000000000E+00 0.  1.
         21    1    1    2  503  504 -0.64332402116E+02 -0.41154504143E+02  0.72116857324E+02  0.10503900363E+03  0.00000000000E+00 0.  1.
         21    1    1    2  504  501 -0.60650101862E+02  0.26455815977E+02  0.69580790588E+02  0.96019953519E+02  0.00000000000E+00 0.  1.
         21    1    1    2  505  502  0.74911437115E+02 -0.27901986185E+02 -0.20599050279E+03  0.22095775950E+03  0.00000000000E+00 0. -1.
         -3    1    1    2    0  505  0.50071066863E+02  0.42600674352E+02 -0.69609034083E+03  0.69918788018E+03  0.00000000000E+00 0.  1.
<scales pt_clust_3="62.50941" pt_clust_4="62.50941" pt_clust_5="119.24949" pt_clust_6="65.74138"></scales>
<clustering>
<clus scale="   62.509">  3  4 -1 -1</clus>
<clus scale="   65.741">  2  6  1 -1</clus>
<clus scale="  119.249">  2  5  1 -1</clus>
<clus scale="  136.858">  1  3  2 -1</clus>
</clustering>
</event>
<event>
 6    0  0.3522959E+002  0.1245978E+03  0.7546771E-02  0.1235699E+00
          1   -1    0    0  503    0 -0.00000000000E+00  0.00000000000E+00  0.18168676461E+04  0.18168676461E+04  0.00000000000E+00 0. -1.
         21   -1    0    0  504  502  0.00000000000E+00 -0.00000000000E+00 -0.96007373423E+03  0.96007373423E+03  0.00000000000E+00 0. -1.
         21    1    1    2  503  502  0.32308016296E+02 -0.34755754875E+01 -0.95118226096E+02  0.10051549372E+03  0.00000000000E+00 0.  1.
         21    1    1    2  504  505  0.40555767694E+02 -0.10075071452E+02 -0.84006763765E+03  0.84110636259E+03  0.00000000000E+00 0. -1.
         21    1    1    2  505  501 -0.16877699377E+03 -0.56110998264E+02  0.39355181582E+03  0.43187631272E+03  0.00000000000E+00 0.  1.
          1    1    1    2  501    0  0.95913209780E+02  0.69661645204E+02  0.13984279598E+04  0.14034432113E+04  0.00000000000E+00 0. -1.
<scales pt_clust_3="32.49442" pt_clust_4="73.29889" pt_clust_5="14000.00000" pt_clust_6="124.59778"></scales>
<clustering>
<clus scale="   32.494">  2  3  1 -1</clus>
<clus scale="   73.299">  2  4  1 -1</clus>
<clus scale="  124.598">  1  6  2 -1</clus>
<clus scale="   32.494">  2  3  1 -1</clus>
</clustering>
</event>
<event>
 6    0  0.3522959E+002  0.1417612E+03  0.7546771E-02  0.1210979E+00
         21   -1    0    0  505  502  0.00000000000E+00  0.00000000000E+00  0.51280321289E+02  0.51280321289E+02  0.00000000000E+00 0. -1.
          2   -1    0    0  503    0 -0.00000000000E+00 -0.00000000000E+00 -0.16490141277E+04  0.16490141277E+04  0.00000000000E+00 0. -1.
         21    1    1    2  503  502 -0.43853869616E+01  0.14184891071E+03 -0.49391630411E+03  0.51390043836E+03  0.00000000000E+00 0. -1.
         21    1    1    2  504  501 -0.55734008267E+02 -0.11198942585E+03 -0.90051898517E+02  0.15413388857E+03  0.00000000000E+00 0. -1.
         21    1    1    2  505  504 -0.55082115373E+02 -0.23847716258E+02 -0.16282804031E+03  0.17353882480E+03  0.00000000000E+00 0. -1.
          2    1    1    2  501    0  0.11520151060E+03 -0.60117686069E+01 -0.85093756345E+03  0.85872129722E+03  0.00000000000E+00 0. -1.
<scales pt_clust_3="141.76123" pt_clust_4="14000.00000" pt_clust_5="60.02294" pt_clust_6="110.82512"></scales>
<clustering>
<clus scale="   60.023">  1  5  2 -1</clus>
<clus scale="  110.825">  2  6  1 -1</clus>
<clus scale="  141.761">  2  3  1 -1</clus>
<clus scale="   60.023">  1  3  2 -1</clus>
</clustering>
</event>
<event>
 6    0  0.3522959E+002  0.1270760E+03  0.7546771E-02  0.1231860E+00
          4   -1    0    0  503    0 -0.00000000000E+00  0.00000000000E+00  0.16759468440E+04  0.16759468440E+04  0.00000000000E+00 0. -1.
         21   -1    0    0  501  502  0.00000000000E+00 -0.00000000000E+00 -0.31204117586E+03  0.31204117586E+03  0.00000000000E+00 0.  1.
         21    1    1    2  503  505 -0.11201537969E+03  0.61278055349E+02 -0.62540469944E+02  0.14217508831E+03  0.00000000000E+00 0.  1.
         21    1    1    2  504  502  0.44500910331E+02 -0.28445747829E+02 -0.10960607122E+03  0.12166750773E+03  0.00000000000E+00 0.  1.
         21    1    1    2  505  504  0.32395820360E+02 -0.61562680283E+02 -0.80820157567E+02  0.10663653525E+03  0.00000000000E+00 0.  1.
          4    1    1    2  501    0  0.35118648998E+02  0.28730372763E+02  0.16168723669E+04  0.16175088886E+04  0.00000000000E+00 0. -1.
<scales pt_clust_3="119.59246" pt_clust_4="37.43637" pt_clust_5="37.43637" pt_clust_6="45.37349"></scales>
<clustering>
<clus scale="   37.436">  4  5 -1 -1</clus>
<clus scale="   45.373">  1  6  2 -1</clus>
<clus scale="  119.592">  1  3  2 -1</clus>
<clus scale="  127.076">  2  3  1 -1</clus>
</clustering>
</event>
<event>
 6    0  0.3522959E+002  0.1377033E+03  0.7546771E-02  0.1216453E+00
          3   -1    0    0  504    0 -0.00000000000E+00  0.00000000000E+00  0.20679255912E+03  0.20679255912E+03  0.00000000000E+00 0. -1.
         21   -1    0    0  501  502  0.00000000000E+00 -0.00000000000E+00 -0.72964482152E+03  0.72964482152E+03  0.00000000000E+00 0.  1.
         21    1    1    2  503  505  0.22871156367E+02  0.62483850328E+02 -0.19251340881E+03  0.20368783448E+03  0.00000000000E+00 0.  1.
         21    1    1    2  504  503 -0.32422460890E+02 -0.15764500152E+03 -0.24096649667E+03  0.28977235029E+03  0.00000000000E+00 0.  1.
         21    1    1    2  505  502  0.60271836816E+02  0.18569929775E+02 -0.25005670307E+03  0.25788736176E+03  0.00000000000E+00 0.  1.
          3    1    1    2  501    0 -0.50720532293E+02  0.76591221413E+02  0.16068434615E+03  0.18508983411E+03  0.00000000000E+00 0. -1.
<scales pt_clust_3="59.22719" pt_clust_4="123.53672" pt_clust_5="59.22719" pt_clust_6="91.86287"></scales>
<clustering>
<clus scale="   59.227">  3  5 -1 -1</clus>
<clus scale="   91.863">  1  6  2 -1</clus>
<clus scale="  123.537">  1  4  2 -1</clus>
<clus scale="  137.703">  2  3  1 -1</clus>
</clustering>
</event>
<event>
 6    0  0.3522959E+002  0.1118194E+03  0.7546771E-02  0.1257237E+00
          3   -1    0    0  505    0 -0.00000000000E+00  0.00000000000E+00  0.30264761323E+04  0.30264761323E+04  0.00000000000E+00 0. -1.
         21   -1    0    0  504  502  0.00000000000E+00 -0.00000000000E+00 -0.62398604340E+03  0.62398604340E+03  0.00000000000E+00 0.  1.
         21    1    1    2  503  501  0.51369278679E+02 -0.12031612842E+03  0.15221881629E+04  0.15277995866E+04  0.00000000000E+00 0. -1.
         21    1    1    2  504  503 -0.52812166047E+02  0.38646833543E+02 -0.60065716331E+03  0.60421166031E+03  0.00000000000E+00 0.  1.
         21    1    1    2  505  502 -0.32141211708E+02  0.34255313240E+02  0.12184830049E+02  0.48527868886E+02  0.00000000000E+00 0.  1.
          3    1    1    2  501    0  0.33584099075E+02  0.47413981633E+02  0.14687742592E+04  0.14699230599E+04  0.00000000000E+00 0. -1.
<scales pt_clust_3="111.81943" pt_clust_4="14000.00000" pt_clust_5="46.97323" pt_clust_6="58.11207"></scales>
<clustering>
<clus scale="   46.973">  2  5  1 -1</clus>
<clus scale="   58.112">  1  6  2 -1</clus>
<clus scale="  111.819">  1  3  2 -1</clus>
<clus scale="   46.973">  2  3  1 -1</clus>
</clustering>
</event>
<event>
 6    0  0.3522959E+002  0.1076830E+03  0.7546771E-02  0.1264922E+00
         21   -1    0    0  501  502  0.00000000000E+00  0.00000000000E+00  0.25139633389E+03  0.25139633389E+03  0.00000000000E+00 0. -1.
          2   -1    0    0  503    0 -0.00000000000E+00 -0.00000000000E+00 -0.33308044369E+03  0.33308044369E+03  0.00000000000E+00 0. -1.
         21    1    1    2  503  504  0.62345248705E+02 -0.51817008821E+02 -0.35771954085E+02  0.88609057880E+02  0.00000000000E+00 0. -1.
         21    1    1    2  504  505 -0.10167594338E+03  0.11989258525E+03  0.11958433835E+03  0.19751618525E+03  0.00000000000E+00 0. -1.
         21    1    1    2  505  502  0.30563243128E+02 -0.37447181202E+02  0.56343237605E+02  0.74235864879E+02  0.00000000000E+00 0. -1.
          2    1    1    2  501    0  0.87674515428E+01 -0.30628395222E+02 -0.22183973167E+03  0.22411566957E+03  0.00000000000E+00 0. -1.
<scales pt_clust_3="107.68304" pt_clust_4="14000.00000" pt_clust_5="50.72513" pt_clust_6="31.85854"></scales>
<clustering>
<clus scale="   31.859">  2  6  1 -1</clus>
<clus scale="   50.725">  1  5  2 -1</clus>
<clus scale="  107.683">  2  3  1 -1</clus>
<clus scale="   50.725">  1  3  2 -1</clus>
</clustering>
</event>
<event>
 6    0  0.3522959E+002  0.1275162E+03  0.7546771E-02  0.1231189E+00
          1   -1    0    0  502    0 -0.00000000000E+00  0.00000000000E+00  0.31211755547E+03  0.31211755547E+03  0.00000000000E+00 0.  1.
         21   -1    0    0  503  502  0.00000000000E+00 -0.00000000000E+00 -0.24203904499E+03  0.24203904499E+03  0.00000000000E+00 0.  1.
         21    1    1    2  503  505  0.34815638121E+02 -0.55744439540E+02 -0.13124731887E+03  0.14678361594E+03  0.00000000000E+00 0.  1.
         21    1    1    2  504  501 -0.71370302535E+02  0.44409489661E+02  0.86578980889E+02  0.12067246077E+03  0.00000000000E+00 0.  1.
         21    1    1    2  505  504  0.51804936739E+02 -0.39101404158E+02 -0.69484051183E+02  0.95082620107E+02  0.00000000000E+00 0.  1.
          1    1    1    2  501    0 -0.15250272325E+02  0.50436354037E+02  0.18423089964E+03  0.19161790365E+03  0.00000000000E+00 0.  1.
<scales pt_clust_3="41.06186" pt_clust_4="120.63596" pt_clust_5="41.06186" pt_clust_6="52.69152"></scales>
<clustering>
<clus scale="   41.062">  3  5 -1 -1</clus>
<clus scale="   52.692">  1  6  2 -1</clus>
<clus scale="  120.636">  1  4  2 -1</clus>
<clus scale="  127.516">  2  3  1 -1</clus>
</clustering>
</event>
<event>
 6    0  0.3522959E+002  0.1018440E+03  0.7546771E-02  0.1276465E+00
          2   -1    0    0  504    0 -0.00000000000E+00  0.00000000000E+00  0.17536035212E+04  0.17536035212E+04  0.00000000000E+00 0.  1.
         21   -1    0    0  503  502  0.00000000000E+00 -0.00000000000E+00 -0.24475938477E+03  0.24475938477E+03  0.00000000000E+00 0. -1.
         21    1    1    2  503  505 -0.25564025005E+02  0.35874441729E+02  0.58768408952E+01  0.44441334394E+02  0.00000000000E+00 0. -1.
         21    1    1    2  504  502  0.10612815543E+03  0.13730539000E+02 -0.18125707103E+03  0.21048952201E+03  0.00000000000E+00 0. -1.
         21    1    1    2  505  501 -0.15019483433E+03 -0.68112907164E+01  0.16977270222E+03  0.22677665744E+03  0.00000000000E+00 0.  1.
          2    1    1    2  501    0  0.69630703901E+02 -0.42793690013E+02  0.15144516643E+04  0.15166553921E+04  0.00000000000E+00 0.  1.
<scales pt_clust_3="44.05105" pt_clust_4="14000.00000" pt_clust_5="101.84396" pt_clust_6="81.53146"></scales>
<clustering>
<clus scale="   44.051">  2  3  1 -1</clus>
<clus scale="   81.531">  1  6  2 -1</clus>
<clus scale="  101.844">  1  5  2 -1</clus>
<clus scale="   44.051">  2  3  1 -1</clus>
</clustering>
</event>
<event>
 6    0  0.3522959E+002  0.1326621E+03  0.7546771E-02  0.1223558E+00
         -2   -1    0    0    0  501 -0.00000000000E+00  0.00000000000E+00  0.41935756679E+03  0.41935756679E+03  0.00000000000E+00 0.  1.
         21   -1    0    0  505  502  0.00000000000E+00 -0.00000000000E+00 -0.16397767045E+03  0.16397767045E+03  0.00000000000E+00 0.  1.
         21    1    1    2  503  504 -0.12497474506E+03  0.36653610834E+02  0.24804805733E+03  0.28016069109E+03  0.00000000000E+00 0.  1.
         21    1    1    2  504  502  0.10255954937E+03  0.50023365359E+02 -0.18659994017E+02  0.11562436433E+03  0.00000000000E+00 0.  1.
         21    1    1    2  505  501  0.49487793461E+02 -0.25241937829E+02 -0.57807752160E+02  0.80174393273E+02  0.00000000000E+00 0.  1.
         -2    1    1    2    0  503 -0.27072597775E+02 -0.61435038364E+02  0.83799585187E+02  0.10737578855E+03  0.00000000000E+00 0.  1.
<scales pt_clust_3="132.66207" pt_clust_4="14000.00000" pt_clust_5="55.55355" pt_clust_6="67.87553"></scales>
<clustering>
<clus scale="   55.554">  2  5  1 -1</clus>
<clus scale="   67.876">  1  6  2 -1</clus>
<clus scale="  132.662">  1  3  2 -1</clus>
<clus scale="   55.554">  2  3  1 -1</clus>
</clustering>
</event>
<event>
 6    0  0.3522959E+002  0.1402776E+03  0.7546771E-02  0.1212956E+00
          2   -1    0    0  505    0 -0.00000000000E+00  0.00000000000E+00  0.24396215007E+04  0.24396215007E+04  0.00000000000E+00 0. -1.
         21   -1    0    0  501  502  0.00000000000E+00 -0.00000000000E+00 -0.22023145104E+03  0.22023145104E+03  0.00000000000E+00 0.  1.
         21    1    1    2  503  502  0.44639014262E+02  0.43583071063E+01 -0.82388637395E+02  0.93805778111E+02  0.00000000000E+00 0.  1.
         21    1    1    2  504  503  0.26104048698E+02 -0.23833562023E+02 -0.10708094694E+03  0.11276430833E+03  0.00000000000E+00 0.  1.
         21    1    1    2  505  504 -0.19806290054E+03  0.56608529914E+02  0.51333308076E+03  0.55312231020E+03  0.00000000000E+00 0.  1.
          2    1    1    2  501    0  0.12731983758E+03 -0.37133274998E+02  0.18955265532E+04  0.19001605551E+04  0.00000000000E+00 0. -1.
<scales pt_clust_3="82.29506" pt_clust_4="33.08137" pt_clust_5="14000.00000" pt_clust_6="140.27762"></scales>
<clustering>
<clus scale="   33.081">  3  4 -1 -1</clus>
<clus scale="   82.295">  2  3  1 -1</clus>
<clus scale="  140.278">  1  6  2 -1</clus>
<clus scale="   82.295">  2  3  1 -1</clus>
</clustering>
</event>
<event>
 6    0  0.3522959E+002  0.1072827E+03  0.7546771E-02  0.1265686E+00
          1   -1    0    0  503    0 -0.00000000000E+00  0.00000000000E+00  0.15170869284E+03  0.15170869284E+03  0.00000000000E+00 0.  1.
         21   -1    0    0  504  502  0.00000000000E+00 -0.00000000000E+00 -0.61062773200E+03  0.61062773200E+03  0.00000000000E+00 0.  1.
         21    1    1    2  503  502 -0.70307498830E+02  0.45721485430E+02 -0.14971651491E+03  0.17160604144E+03  0.00000000000E+00 0.  1.
         21    1    1    2  504  505  0.53227243269E+02 -0.13342308587E+03 -0.41518379401E+03  0.43933181318E+03  0.00000000000E+00 0.  1.
         21    1    1    2  505  501 -0.19105178777E+01  0.62963691896E+02  0.31035747339E+02  0.70223174157E+02  0.00000000000E+00 0.  1.
          1    1    1    2  501    0  0.18990773439E+02  0.24737908546E+02  0.74945522422E+02  0.81175396064E+02  0.00000000000E+00 0.  1.
<scales pt_clust_3="107.28272" pt_clust_4="14000.00000" pt_clust_5="80.74260" pt_clust_6="31.18675"></scales>
<clustering>
<clus scale="   31.187">  1  6  2 -1</clus>
<clus scale="   80.743">  1  5  2 -1</clus>
<clus scale="  107.283">  2  3  1 -1</clus>
<clus scale="  107.283">  2  3  1 -1</clus>
</clustering>
</event>
<event>
 6    0  0.3522959E+002  0.8689835E+02  0.7546771E-02  0.1310541E+00
         21   -1    0    0  503  502  0.00000000000E+00  0.00000000000E+00  0.12017172608E+03  0.12017172608E+03  0.00000000000E+00 0. -1.
          2   -1    0    0  504    0 -0.00000000000E+00 -0.00000000000E+00 -0.17880456811E+04  0.17880456811E+04  0.00000000000E+00 0.  1.
         21    1    1    2  503  501 -0.34879234265E+02 -0.18496195264E+02 -0.17088863071E+02  0.43019756662E+02  0.00000000000E+00 0. -1.
         21    1    1    2  504  505 -0.24990206337E+02 -0.68349897934E+02 -0.19198006360E+03  0.20531089543E+03  0.00000000000E+00 0. -1.
         21    1    1    2  505  502 -0.42483393158E+02  0.62316825605E+02  0.84347455424E+02  0.11314909935E+03  0.00000000000E+00 0. -1.
          2    1    1    2  501    0  0.10235283376E+03  0.24529267593E+02 -0.15431524838E+04  0.15467376557E+04  0.00000000000E+00 0.  1.
<scales pt_clust_3="39.48000" pt_clust_4="74.61791" pt_clust_5="14000.00000" pt_clust_6="86.89835"></scales>
<clustering>
<clus scale="   39.480">  1  3  2 -1</clus>
<clus scale="   74.618">  2  4  1 -1</clus>
<clus scale="   86.898">  2  6  1 -1</clus>
<clus scale="   39.480">  1  3  2 -1</clus>
</clustering>
</event>
<event>
 6    0  0.3522959E+002  0.9346316E+02  0.7546771E-02  0.1294675E+00
         21   -1    0    0  504  502  0.00000000000E+00  0.00000000000E+00  0.20795417417E+03  0.20795417417E+03  0.00000000000E+00 0.  1.
          2   -1    0    0  502    0 -0.00000000000E+00 -0.00000000000E+00 -0.32917969587E+04  0.32917969587E+04  0.00000000000E+00 0.  1.
         21    1    1    2  503  501 -0.10210469634E+02  0.43964218473E+02 -0.43487329207E+02  0.62675784779E+02  0.00000000000E+00 0. -1.
         21    1    1    2  504  505  0.77933672866E+02 -0.21768739565E+02  0.15956764833E+03  0.17891162562E+03  0.00000000000E+00 0.  1.
         21    1    1    2  505  503 -0.47294865957E+02  0.53320343137E+02 -0.15702660366E+02  0.72982442277E+02  0.00000000000E+00 0. -1.
          2    1    1    2  501    0 -0.20428337275E+02 -0.75515822045E+02 -0.31842204433E+04  0.31851812802E+04  0.00000000000E+00 0.  1.
<scales pt_clust_3="36.71405" pt_clust_4="81.28230" pt_clust_5="36.71405" pt_clust_6="78.23015"></scales>
<clustering>
<clus scale="   36.714">  3  5 -1 -1</clus>
<clus scale="   78.230">  2  6  1 -1</clus>
<clus scale="   81.282">  1  4  2 -1</clus>
<clus scale="   81.282">  1  3  2 -1</clus>
</clustering>
</event>
<event>
 6    0  0.3522959E+002  0.1968379E+03  0.7546771E-02  0.1152435E+00
         -1   -1    0    0    0  501 -0.00000000000E+00  0.00000000000E+00  0.66146278210E+03  0.66146278210E+03  0.00000000000E+00 0. -1.
         21   -1    0    0  505  502  0.00000000000E+00 -0.00000000000E+00 -0.18913922353E+03  0.18913922353E+03  0.00000000000E+00 0.  1.
         21    1    1    2  503  501  0.86149108995E+02  0.68106058003E+02  0.31271490424E+00  0.10981895059E+03  0.00000000000E+00 0. -1.
         21    1    1    2  504  502 -0.14240033731E+03 -0.96290299372E+02  0.10648639747E+03  0.20221036240E+03  0.00000000000E+00 0. -1.
         21    1    1    2  505  503  0.46460281340E+02  0.59886620471E+02 -0.69170396207E+02  0.10261339467E+03  0.00000000000E+00 0.  1.
         -1    1    1    2    0  504  0.97909469718E+01 -0.31702379102E+02  0.43469484240E+03  0.43595929798E+03  0.00000000000E+00 0. -1.
<scales pt_clust_3="66.76114" pt_clust_4="179.79552" pt_clust_5="66.76114" pt_clust_6="33.17987"></scales>
<clustering>
<clus scale="   33.180">  1  6  2 -1</clus>
<clus scale="   66.761">  3  5 -1 -1</clus>
<clus scale="  179.796">  1  4  2 -1</clus>
<clus scale="  196.838">  2  3  1 -1</clus>
</clustering>
</event>
<event>
 6    0  0.3522959E+002  0.1006941E+03  0.7546771E-02  0.1278843E+00
         21   -1    0    0  503  502  0.00000000000E+00  0.00000000000E+00  0.18256066110E+03  0.18256066110E+03  0.00000000000E+00 0.  1.
          1   -1    0    0  505    0 -0.00000000000E+00 -0.00000000000E+00 -0.11347636532E+04  0.11347636532E+04  0.00000000000E+00 0.  1.
         21    1    1    2  503  501  0.30004185084E+02  0.43505218654E+01  0.12361909536E+02  0.32741334280E+02  0.00000000000E+00 0.  1.
         21    1    1    2  504  502  0.34713282886E+02  0.21315347113E+02  0.97721403589E+02  0.10587175615E+03  0.00000000000E+00 0.  1.
         21    1    1    2  505  504 -0.10259375654E+03  0.67562798153E+02 -0.11790555954E+02  0.12340675745E+03  0.00000000000E+00 0.  1.
          1    1    1    2  501    0  0.37876288572E+02 -0.93228667131E+02 -0.10504957493E+04  0.10553044664E+04  0.00000000000E+00 0.  1.
<scales pt_clust_3="30.31795" pt_clust_4="58.94593" pt_clust_5="100.69407" pt_clust_6="14000.00000"></scales>
<clustering>
<clus scale="   30.318">  1  3  2 -1</clus>
<clus scale="   58.946">  1  4  2 -1</clus>
<clus scale="  100.694">  1  5  2 -1</clus>
<clus scale="   30.318">  1  3  2 -1</clus>
</clustering>
</event>
<event>
 6    0  0.3522959E+002  0.1374066E+03  0.7546771E-02  0.1216862E+00
         21   -1    0    0  504  502  0.00000000000E+00  0.00000000000E+00  0.92335572288E+03  0.92335572288E+03  0.00000000000E+00 0. -1.
          2   -1    0    0  505    0 -0.00000000000E+00 -0.00000000000E+00 -0.18185966282E+04  0.18185966282E+04  0.00000000000E+00 0.  1.
         21    1    1    2  503  501  0.40145242339E+02  0.50268906695E+02 -0.50601671070E+01  0.64530680718E+02  0.00000000000E+00 0. -1.
         21    1    1    2  504  503  0.19410058044E+01  0.11807435401E+03 -0.86407832739E+02  0.14632714764E+03  0.00000000000E+00 0. -1.
         21    1    1    2  505  502  0.30665492792E+01 -0.13829654295E+03  0.85767644455E+03  0.86876016313E+03  0.00000000000E+00 0. -1.
          2    1    1    2  501    0 -0.45152797423E+02 -0.30046717760E+02 -0.16614493500E+04  0.16623343596E+04  0.00000000000E+00 0.  1.
<scales pt_clust_3="52.98952" pt_clust_4="137.40660" pt_clust_5="14000.00000" pt_clust_6="54.23634"></scales>
<clustering>
<clus scale="   54.236">  2  6  1 -1</clus>
<clus scale="   52.990">  2  3  1 -1</clus>
<clus scale="  137.407">  2  4  1 -1</clus>
<clus scale="  137.407">  1  3  2 -1</clus>
</clustering>
</event>
<event>
 6    0  0.3522959E+002  0.1098947E+03  0.7546771E-02  0.1260765E+00
          2   -1    0    0  504    0 -0.00000000000E+00  0.00000000000E+00  0.96211715636E+03  0.96211715636E+03  0.00000000000E+00 0. -1.
         21   -1    0    0  501  502  0.00000000000E+00 -0.00000000000E+00 -0.16971436620E+03  0.16971436620E+03  0.00000000000E+00 0.  1.
         21    1    1    2  503  502  0.21772817403E+02  0.44975292405E+02 -0.96496417055E+02  0.10866642080E+03  0.00000000000E+00 0.  1.
         21    1    1    2  504  505 -0.92801258062E+02 -0.72489658370E+02  0.75229454786E+03  0.76145512725E+03  0.00000000000E+00 0. -1.
         21    1    1    2  505  503 -0.22502105945E+02  0.76454762451E+02 -0.10778682257E+02  0.80422978462E+02  0.00000000000E+00 0. -1.
          2    1    1    2  501    0  0.93530546604E+02 -0.48940396486E+02  0.14738334161E+03  0.18128699606E+03  0.00000000000E+00 0. -1.
<scales pt_clust_3="49.96832" pt_clust_4="109.89470" pt_clust_5="14000.00000" pt_clust_6="105.92053"></scales>
<clustering>
<clus scale="   49.968">  2  3  1 -1</clus>
<clus scale="  105.921">  2  6  1 -1</clus>
<clus scale="  109.895">  1  4  2 -1</clus>
<clus scale="   49.968">  2  3  1 -1</clus>
</clustering>
</event>
<event>
 6    0  0.3522959E+002  0.1743225E+03  0.7546771E-02  0.1173414E+00
         21   -1    0    0  503  502  0.00000000000E+00  0.00000000000E+00  0.97020349073E+02  0.97020349073E+02  0.00000000000E+00 0. -1.
          2   -1    0    0  504    0 -0.00000000000E+00 -0.00000000000E+00 -0.18114997586E+04  0.18114997586E+04  0.00000000000E+00 0.  1.
         21    1    1    2  503  505  0.14317912207E+02  0.35715624940E+02  0.12110283261E+01  0.38497728042E+02  0.00000000000E+00 0. -1.
         21    1    1    2  504  502  0.32373847494E+02 -0.18194991244E+03 -0.13650734116E+03  0.22975659039E+03  0.00000000000E+00 0. -1.
         21    1    1    2  505  501 -0.15299183659E+02  0.11525603388E+03 -0.81625593598E+02  0.14205898738E+03  0.00000000000E+00 0. -1.
          2    1    1    2  501    0 -0.31392576042E+02  0.30978253624E+02 -0.14975575031E+04  0.14982068018E+04  0.00000000000E+00 0.  1.
<scales pt_clust_3="33.25128" pt_clust_4="164.46128" pt_clust_5="33.25128" pt_clust_6="44.10381"></scales>
<clustering>
<clus scale="   33.251">  3  5 -1 -1</clus>
<clus scale="   44.104">  2  6  1 -1</clus>
<clus scale="  164.461">  2  4  1 -1</clus>
<clus scale="  174.322">  1  3  2 -1</clus>
</clustering>
</event>
<event>
 6    0  0.3522959E+002  0.1431740E+03  0.7546771E-02  0.1209121E+00
         21   -1    0    0  503  502  0.00000000000E+00  0.00000000000E+00  0.13975937769E+03  0.13975937769E+03  0.00000000000E+00 0.  1.
          2   -1    0    0  504    0 -0.00000000000E+00 -0.00000000000E+00 -0.13702990088E+04  0.13702990088E+04  0.00000000000E+00 0.  1.
         21    1    1    2  503  501 -0.10762718519E+03  0.94954637097E+02  0.30638547085E+02  0.14676073953E+03  0.00000000000E+00 0.  1.
         21    1    1    2  504  505  0.86140638928E+02 -0.30390274982E+01 -0.20345872171E+02  0.88562971255E+02  0.00000000000E+00 0. -1.
         21    1    1    2  505  502  0.58834903974E+02  0.22603665714E+02 -0.57587526374E+02  0.85374438933E+02  0.00000000000E+00 0.  1.
          2    1    1    2  501    0 -0.37348357707E+02 -0.11451927531E+03 -0.11832447797E+04  0.11893602368E+04  0.00000000000E+00 0.  1.
<scales pt_clust_3="133.11227" pt_clust_4="45.08610" pt_clust_5="45.08610" pt_clust_6="120.45565"></scales>
<clustering>
<clus scale="   45.086">  4  5 -1 -1</clus>
<clus scale="  120.456">  2  6  1 -1</clus>
<clus scale="  133.112">  1  3  2 -1</clus>
<clus scale="  133.112">  1  3  2 -1</clus>
</clustering>
</event>
<event>
 6    0  0.3522959E+002  0.1095751E+03  0.7546771E-02  0.1261359E+00
          2   -1    0    0  503    0 -0.00000000000E+00  0.00000000000E+00  0.18966447550E+04  0.18966447550E+04  0.00000000000E+00 0. -1.
         21   -1    0    0  504  502  0.00000000000E+00 -0.00000000000E+00 -0.43129791910E+02  0.43129791910E+02  0.00000000000E+00 0. -1.
         21    1    1    2  503  502 -0.12357844108E+03  0.24680996662E+01  0.18493570048E+03  0.22243861160E+03  0.00000000000E+00 0. -1.
         21    1    1    2  504  505  0.40295529379E+02 -0.25047410196E+00  0.23019441465E+02  0.46407834582E+02  0.00000000000E+00 0. -1.
         21    1    1    2  505  501  0.11543315608E+03  0.74655824714E+01  0.25552828453E+03  0.28049109191E+03  0.00000000000E+00 0. -1.
          2    1    1    2  501    0 -0.32150244385E+02 -0.96832080357E+01  0.13900315367E+04  0.13904370089E+04  0.00000000000E+00 0. -1.
<scales pt_clust_3="109.57509" pt_clust_4="38.10265" pt_clust_5="14000.00000" pt_clust_6="33.57682"></scales>
<clustering>
<clus scale="   33.577">  1  6  2 -1</clus>
<clus scale="   38.103">  2  4  1 -1</clus>
<clus scale="  109.575">  2  3  1 -1</clus>
<clus scale="   38.103">  2  3  1 -1</clus>
</clustering>
</event>
<event>
 6    0  0.3522959E+002  0.1134560E+03  0.7546771E-02  0.1254301E+00
          2   -1    0    0  505    0 -0.00000000000E+00  0.00000000000E+00  0.20208445924E+03  0.20208445924E+03  0.00000000000E+00 0. -1.
         21   -1    0    0  504  502  0.00000000000E+00 -0.00000000000E+00 -0.57843674299E+03  0.57843674299E+03  0.00000000000E+00 0. -1.
         21    1    1    2  503  502  0.32368141272E+02 -0.54300036471E+02 -0.11486609960E+03  0.13111220907E+03  0.00000000000E+00 0. -1.
         21    1    1    2  504  501 -0.70397444550E+01 -0.68018246779E+02 -0.35160955597E+03  0.35819731957E+03  0.00000000000E+00 0. -1.
         21    1    1    2  505  503 -0.95194311573E+02  0.11036476057E+03 -0.32729655599E+02  0.14937726630E+03  0.00000000000E+00 0. -1.
          2    1    1    2  501    0  0.69865914756E+02  0.11953522684E+02  0.12285302741E+03  0.14183440730E+03  0.00000000000E+00 0. -1.
<scales pt_clust_3="63.21543" pt_clust_4="113.45601" pt_clust_5="14000.00000" pt_clust_6="71.36571"></scales>
<clustering>
<clus scale="   63.215">  2  3  1 -1</clus>
<clus scale="   71.366">  1  6  2 -1</clus>
<clus scale="  113.456">  2  4  1 -1</clus>
<clus scale="   63.215">  2  3  1 -1</clus>
</clustering>
</event>
<event>
 6    0  0.3522959E+002  0.8699224E+02  0.7546771E-02  0.1310303E+00
         21   -1    0    0  504  502  0.00000000000E+00  0.00000000000E+00  0.14396497377E+03  0.14396497377E+03  0.00000000000E+00 0. -1.
          1   -1    0    0  503    0 -0.00000000000E+00 -0.00000000000E+00 -0.36021089269E+04  0.36021089269E+04  0.00000000000E+00 0. -1.
         21    1    1    2  503  505 -0.91616275988E+02 -0.16323811928E+02 -0.17501590556E+04  0.17526313728E+04  0.00000000000E+00 0. -1.
         21    1    1    2  504  501  0.25804568109E+00 -0.38433793110E+02  0.13171757771E+03  0.13721058020E+03  0.00000000000E+00 0. -1.
         21    1    1    2  505  502  0.33094261887E+02 -0.17280755390E+02 -0.42204765895E+02  0.56347998553E+02  0.00000000000E+00 0. -1.
          1    1    1    2  501    0  0.58263968420E+02  0.72038360428E+02 -0.17974977093E+04  0.17998839491E+04  0.00000000000E+00 0. -1.
<scales pt_clust_3="86.99224" pt_clust_4="64.37065" pt_clust_5="37.33436" pt_clust_6="14000.00000"></scales>
<clustering>
<clus scale="   37.334">  1  5  2 -1</clus>
<clus scale="   64.371">  1  4  2 -1</clus>
<clus scale="   86.992">  1  3  2 -1</clus>
<clus scale="   37.334">  1  3  2 -1</clus>
</clustering>
</event>
<event>
 6    0  0.3522959E+002  0.7163685E+02  0.7546771E-02  0.1354614E+00
         -3   -1    0    0    0  501 -0.00000000000E+00  0.00000000000E+00  0.38050744677E+03  0.38050744677E+03  0.00000000000E+00 0. -1.
         21   -1    0    0  505  502  0.00000000000E+00 -0.00000000000E+00 -0.37604464806E+03  0.37604464806E+03  0.00000000000E+00 0. -1.
         21    1    1    2  503  502 -0.66880699688E+02  0.85366814538E+02 -0.19466001262E+03  0.22282962444E+03  0.00000000000E+00 0. -1.
         21    1    1    2  504  501  0.44403229350E+02 -0.83350672082E+02  0.31364263566E+01  0.94492425535E+02  0.00000000000E+00 0. -1.
         21    1    1    2  505  504  0.61222778173E+02 -0.30191878823E+02 -0.11003075626E+03  0.12948569588E+03  0.00000000000E+00 0. -1.
         -3    1    1    2    0  503 -0.38745307835E+02  0.28175736367E+02  0.30601714123E+03  0.30974434898E+03  0.00000000000E+00 0. -1.
<scales pt_clust_3="71.63685" pt_clust_4="14000.00000" pt_clust_5="61.94874" pt_clust_6="47.90690"></scales>
<clustering>
<clus scale="   47.907">  1  6  2 -1</clus>
<clus scale="   61.949">  2  5  1 -1</clus>
<clus scale="   71.637">  2  3  1 -1</clus>
<clus scale="   61.949">  2  3  1 -1</clus>
</clustering>
</event>
<event>
 6    0  0.3522959E+002  0.1200553E+03  0.7546771E-02  0.1243006E+00
         -3   -1    0    0    0  501 -0.00000000000E+00  0.00000000000E+00  0.68068690016E+03  0.68068690016E+03  0.00000000000E+00 0. -1.
         21   -1    0    0  504  502  0.00000000000E+00 -0.00000000000E+00 -0.81876932293E+03  0.81876932293E+03  0.00000000000E+00 0. -1.
         21    1    1    2  503  505 -0.71649372699E+02  0.71864819405E+02 -0.37760917519E+03  0.39100751152E+03  0.00000000000E+00 0. -1.
         21    1    1    2  504  501  0.10947275394E+00 -0.38582350182E+02 -0.17469371213E+03  0.17890361312E+03  0.00000000000E+00 0.  1.
         21    1    1    2  505  502  0.80978796113E+01  0.68993291677E+02 -0.24745097440E+03  0.25701679844E+03  0.00000000000E+00 0. -1.
         -3    1    1    2    0  503  0.63442020334E+02 -0.10227576090E+03  0.66167143894E+03  0.67252830001E+03  0.00000000000E+00 0. -1.
<scales pt_clust_3="14000.00000" pt_clust_4="38.58251" pt_clust_5="54.44613" pt_clust_6="120.05530"></scales>
<clustering>
<clus scale="   38.583">  2  4  1 -1</clus>
<clus scale="   54.446">  2  5  1 -1</clus>
<clus scale="  120.055">  1  6  2 -1</clus>
<clus scale="   38.583">  2  3  1 -1</clus>
</clustering>
</event>
<event>
 6    0  0.3522959E+002  0.8001081E+02  0.7546771E-02  0.1329021E+00
         21   -1    0    0  505  502  0.00000000000E+00  0.00000000000E+00  0.14064413230E+04  0.14064413230E+04  0.00000000000E+00 0. -1.
         -1   -1    0    0    0  501 -0.00000000000E+00 -0.00000000000E+00 -0.18819928172E+03  0.18819928172E+03  0.00000000000E+00 0.  1.
         21    1    1    2  503  502 -0.15949538751E+02  0.34872681132E+02  0.22057153902E+03  0.22388009179E+03  0.00000000000E+00 0.  1.
         21    1    1    2  504  501  0.10828926889E+03  0.28755636382E+02  0.29112929265E+02  0.11576275321E+03  0.00000000000E+00 0.  1.
         21    1    1    2  505  504 -0.59242299448E+02 -0.55527190404E+02  0.11082444547E+04  0.11112149613E+04  0.00000000000E+00 0. -1.
         -1    1    1    2    0  503 -0.33097430689E+02 -0.81011271094E+01 -0.13968688173E+03  0.14378279837E+03  0.00000000000E+00 0.  1.
<scales pt_clust_3="38.59321" pt_clust_4="14000.00000" pt_clust_5="80.01081" pt_clust_6="34.07445"></scales>
<clustering>
<clus scale="   34.074">  2  6  1 -1</clus>
<clus scale="   38.593">  1  3  2 -1</clus>
<clus scale="   80.011">  1  5  2 -1</clus>
<clus scale="   38.593">  1  3  2 -1</clus>
</clustering>
</event>
<event>
 6    0  0.3522959E+002  0.6524607E+02  0.7546771E-02  0.1377048E+00
          1   -1    0    0  505    0 -0.00000000000E+00  0.00000000000E+00  0.18673858370E+04  0.18673858370E+04  0.00000000000E+00 0. -1.
         21   -1    0    0  503  502  0.00000000000E+00 -0.00000000000E+00 -0.36111853105E+04  0.36111853105E+04  0.00000000000E+00 0.  1.
         21    1    1    2  503  501 -0.27860902670E+02 -0.72016353573E+02  0.16749793992E+03  0.18444008500E+03  0.00000000000E+00 0.  1.
         21    1    1    2  504  502  0.43874155835E+02 -0.27465828328E+02 -0.10038571614E+04  0.10051907848E+04  0.00000000000E+00 0.  1.
         21    1    1    2  505  504 -0.54573781216E+02  0.91702190609E+02 -0.25968654866E+04  0.25990571261E+04  0.00000000000E+00 0.  1.
          1    1    1    2  501    0  0.38560528051E+02  0.77799912919E+01  0.16894252347E+04  0.16898831516E+04  0.00000000000E+00 0. -1.
<scales pt_clust_3="65.24607" pt_clust_4="51.86932" pt_clust_5="14000.00000" pt_clust_6="39.33755"></scales>
<clustering>
<clus scale="   39.338">  1  6  2 -1</clus>
<clus scale="   51.869">  2  4  1 -1</clus>
<clus scale="   65.246">  1  3  2 -1</clus>
<clus scale="   51.869">  2  3  1 -1</clus>
</clustering>
</event>
<event>
 6    0  0.3522959E+002  0.2387230E+03  0.7546771E-02  0.1120646E+00
         -2   -1    0    0    0  501 -0.00000000000E+00  0.00000000000E+00  0.30352712748E+03  0.30352712748E+03  0.00000000000E+00 0.  1.
         21   -1    0    0  505  502  0.00000000000E+00 -0.00000000000E+00 -0.12219126880E+04  0.12219126880E+04  0.00000000000E+00 0. -1.
         21    1    1    2  503  504  0.10889365954E+03 -0.37223007345E+02 -0.68902745403E+03  0.69857155236E+03  0.00000000000E+00 0. -1.
         21    1    1    2  504  502  0.11643380260E+03  0.59382494622E+01 -0.44374865311E+03  0.45880819558E+03  0.00000000000E+00 0. -1.
         21    1    1    2  505  501 -0.25014599390E+03  0.62206972816E+02  0.17125002983E+03  0.30946615073E+03  0.00000000000E+00 0.  1.
         -2    1    1    2    0  503  0.24818531765E+02 -0.30922214934E+02  0.43140516803E+02  0.58593916795E+02  0.00000000000E+00 0.  1.
<scales pt_clust_3="67.33163" pt_clust_4="67.33163" pt_clust_5="228.89670" pt_clust_6="39.65026"></scales>
<clustering>
<clus scale="   39.650">  1  6  2 -1</clus>
<clus scale="   67.332">  3  4 -1 -1</clus>
<clus scale="  228.897">  1  5  2 -1</clus>
<clus scale="  238.723">  2  3  1 -1</clus>
</clustering>
</event>
<event>
 6    0  0.3522959E+002  0.1358625E+03  0.7546771E-02  0.1219007E+00
         21   -1    0    0  503  502  0.00000000000E+00  0.00000000000E+00  0.57441445303E+02  0.57441445303E+02  0.00000000000E+00 0.  1.
          2   -1    0    0  505    0 -0.00000000000E+00 -0.00000000000E+00 -0.90462727789E+03  0.90462727789E+03  0.00000000000E+00 0.  1.
         21    1    1    2  503  504 -0.10912335355E+03 -0.78608101049E+01 -0.13170414989E+03  0.17121822836E+03  0.00000000000E+00 0.  1.
         21    1    1    2  504  501 -0.69482056250E+02 -0.35581646710E+02 -0.17612768790E+03  0.19265194566E+03  0.00000000000E+00 0.  1.
         21    1    1    2  505  502  0.70180126473E+02  0.46301629961E+02 -0.51862430589E+02  0.98786652921E+02  0.00000000000E+00 0.  1.
          2    1    1    2  501    0  0.10842528333E+03 -0.28591731458E+01 -0.48749156421E+03  0.49941189625E+03  0.00000000000E+00 0.  1.
<scales pt_clust_3="52.43883" pt_clust_4="52.43883" pt_clust_5="84.07789" pt_clust_6="120.84990"></scales>
<clustering>
<clus scale="   52.439">  3  4 -1 -1</clus>
<clus scale="   84.078">  1  5  2 -1</clus>
<clus scale="  120.850">  2  6  1 -1</clus>
<clus scale="   84.078">  1  3  2 -1</clus>
</clustering>
</event>
<event>
 6    0  0.3522959E+002  0.1947495E+03  0.7546771E-02  0.1154246E+00
         21   -1    0    0  503  502  0.00000000000E+00  0.00000000000E+00  0.12273568155E+04  0.12273568155E+04  0.00000000000E+00 0.  1.
          1   -1    0    0  504    0 -0.00000000000E+00 -0.00000000000E+00 -0.88720317612E+03  0.88720317612E+03  0.00000000000E+00 0.  1.
         21    1    1    2  503  505  0.79190784892E+00  0.11498142380E+03  0.44834711295E+03  0.46285687704E+03  0.00000000000E+00 0.  1.
         21    1    1    2  504  502 -0.11557333295E+03 -0.26452124340E+03  0.71198048067E+03  0.76827396699E+03  0.00000000000E+00 0.  1.
         21    1    1    2  505  501  0.16133503129E+03  0.19409701675E+03 -0.54194702703E+03  0.59783712192E+03  0.00000000000E+00 0.  1.
          1    1    1    2  501    0 -0.46553606191E+02 -0.44557197148E+02 -0.27822692724E+03  0.28559202564E+03  0.00000000000E+00 0.  1.
<scales pt_clust_3="114.44761" pt_clust_4="194.74946" pt_clust_5="14000.00000" pt_clust_6="64.44053"></scales>
<clustering>
<clus scale="   64.441">  2  6  1 -1</clus>
<clus scale="  114.448">  1  3  2 -1</clus>
<clus scale="  194.749">  1  4  2 -1</clus>
<clus scale="  114.448">  1  3  2 -1</clus>
</clustering>
</event>
<event>
 6    0  0.3522959E+002  0.8292188E+02  0.7546771E-02  0.1320958E+00
         21   -1    0    0  503  502  0.00000000000E+00  0.00000000000E+00  0.61239729856E+02  0.61239729856E+02  0.00000000000E+00 0. -1.
          2   -1    0    0  504    0 -0.00000000000E+00 -0.00000000000E+00 -0.15484275262E+04  0.15484275262E+04  0.00000000000E+00 0. -1.
         21    1    1    2  503  501  0.39714094861E+02 -0.69204833259E+02  0.93065759964E+01  0.80331380131E+02  0.00000000000E+00 0. -1.
         21    1    1    2  504  505 -0.20625658335E+01  0.10486651485E+03 -0.83794867011E+03  0.84448754512E+03  0.00000000000E+00 0. -1.
         21    1    1    2  505  502 -0.54549776094E+02  0.31995938883E+02 -0.79344503293E+02  0.10146412361E+03  0.00000000000E+00 0. -1.
          2    1    1    2  501    0  0.16898247067E+02 -0.67657620476E+02 -0.57920119897E+03  0.58338420724E+03  0.00000000000E+00 0. -1.
<scales pt_clust_3="41.61380" pt_clust_4="82.92188" pt_clust_5="63.24095" pt_clust_6="14000.00000"></scales>
<clustering>
<clus scale="   63.241">  1  5  2 -1</clus>
<clus scale="   41.614">  1  3  2 -1</clus>
<clus scale="   82.922">  1  4  2 -1</clus>
<clus scale="   63.241">  1  3  2 -1</clus>
</clustering>
</event>
<event>
 6    0  0.3522959E+002  0.1017374E+03  0.7546771E-02  0.1276684E+00
          2   -1    0    0  504    0 -0.00000000000E+00  0.00000000000E+00  0.10852209280E+04  0.10852209280E+04  0.00000000000E+00 0.  1.
         21   -1    0    0  505  502  0.00000000000E+00 -0.00000000000E+00 -0.21625516354E+03  0.21625516354E+03  0.00000000000E+00 0.  1.
         21    1    1    2  503  502 -0.51075491067E+02  0.66449240162E+02 -0.26742848619E+02  0.87973787335E+02  0.00000000000E+00 0. -1.
         21    1    1    2  504  503  0.83463192316E+02  0.41979055297E+02  0.17263622010E+03  0.19629470203E+03  0.00000000000E+00 0. -1.
         21    1    1    2  505  501  0.10908802007E+02 -0.12409800088E+03 -0.11994489692E+03  0.17293378525E+03  0.00000000000E+00 0.  1.
          2    1    1    2  501    0 -0.43296503256E+02  0.15669705425E+02  0.84301728993E+03  0.84427381695E+03  0.00000000000E+00 0.  1.
<scales pt_clust_3="101.73743" pt_clust_4="73.82668" pt_clust_5="14000.00000" pt_clust_6="46.04484"></scales>
<clustering>
<clus scale="   46.045">  1  6  2 -1</clus>
<clus scale="   73.827">  1  4  2 -1</clus>
<clus scale="  101.737">  1  3  2 -1</clus>
<clus scale="  101.737">  2  3  1 -1</clus>
</clustering>
</event>
<event>
 6    0  0.3522959E+002  0.9778223E+02  0.7546771E-02  0.1285030E+00
         21   -1    0    0  505  502  0.00000000000E+00  0.00000000000E+00  0.26017074915E+03  0.26017074915E+03  0.00000000000E+00 0.  1.
          2   -1    0    0  503    0 -0.00000000000E+00 -0.00000000000E+00 -0.14486695424E+04  0.14486695424E+04  0.00000000000E+00 0. -1.
         21    1    1    2  503  504 -0.50422986636E+02  0.45746285459E+02 -0.54294031478E+02  0.87080664150E+02  0.00000000000E+00 0.  1.
         21    1    1    2  504  502  0.14823127980E+02 -0.58773633067E+02  0.22285202236E+02  0.64580920602E+02  0.00000000000E+00 0.  1.
         21    1    1    2  505  501  0.17575954921E+02 -0.83253885980E+02  0.18944894294E+03  0.20768010425E+03  0.00000000000E+00 0.  1.
          2    1    1    2  501    0  0.18023903736E+02  0.96281233588E+02 -0.13459389070E+04  0.13494986026E+04  0.00000000000E+00 0. -1.
<scales pt_clust_3="64.31507" pt_clust_4="60.61407" pt_clust_5="14000.00000" pt_clust_6="97.78223"></scales>
<clustering>
<clus scale="   60.614">  1  4  2 -1</clus>
<clus scale="   64.315">  1  3  2 -1</clus>
<clus scale="   97.782">  2  6  1 -1</clus>
<clus scale="   60.614">  1  3  2 -1</clus>
</clustering>
</event>
<event>
 6    0  0.3522959E+002  0.1575288E+03  0.7546771E-02  0.1191515E+00
          1   -1    0    0  503    0 -0.00000000000E+00  0.00000000000E+00  0.15881871318E+04  0.15881871318E+04  0.00000000000E+00 0.  1.
         21   -1    0    0  504  502  0.00000000000E+00 -0.00000000000E+00 -0.71776846888E+02  0.71776846888E+02  0.00000000000E+00 0.  1.
         21    1    1    2  503  505  0.58180309873E+02  0.10502674309E+02  0.15943598703E+03  0.17004437240E+03  0.00000000000E+00 0. -1.
         21    1    1    2  504  501  0.14777116126E+03  0.22395390923E+01  0.59704760166E+02  0.15939256577E+03  0.00000000000E+00 0.  1.
         21    1    1    2  505  502  0.29367486695E+01 -0.31660274158E+02  0.23330922882E+02  0.39437664929E+02  0.00000000000E+00 0.  1.
          1    1    1    2  501    0 -0.20888821981E+03  0.18918060756E+02  0.12739386149E+04  0.12910893756E+04  0.00000000000E+00 0.  1.
<scales pt_clust_3="58.95208" pt_clust_4="157.52882" pt_clust_5="31.79619" pt_clust_6="14000.00000"></scales>
<clustering>
<clus scale="   31.796">  2  5  1 -1</clus>
<clus scale="   58.952">  1  3  2 -1</clus>
<clus scale="  157.529">  2  4  1 -1</clus>
<clus scale="   31.796">  2  3  1 -1</clus>
</clustering>
</event>
<event>
 6    0  0.3522959E+002  0.8960251E+02  0.7546771E-02  0.1303817E+00
         21   -1    0    0  505  502  0.00000000000E+00  0.00000000000E+00  0.60330447809E+02  0.60330447809E+02  0.00000000000E+00 0.  1.
          1   -1    0    0  503    0 -0.00000000000E+00 -0.00000000000E+00 -0.94158648905E+03  0.94158648905E+03  0.00000000000E+00 0.  1.
         21    1    1    2  503  504  0.23020493376E+02  0.58886145913E+02 -0.55505481011E+03  0.55864421909E+03  0.00000000000E+00 0.  1.
         21    1    1    2  504  502 -0.64887651891E+00  0.55757750481E+02 -0.10539570786E+01  0.55771485590E+02  0.00000000000E+00 0.  1.
         21    1    1    2  505  501 -0.83638460109E+02 -0.92883532008E+02 -0.12382720561E+03  0.17594294353E+03  0.00000000000E+00 0.  1.
          1    1    1    2  501    0  0.61266843252E+02 -0.21760364386E+02 -0.20132006844E+03  0.21155828865E+03  0.00000000000E+00 0.  1.
<scales pt_clust_3="89.60251" pt_clust_4="55.76153" pt_clust_5="14000.00000" pt_clust_6="62.55393"></scales>
<clustering>
<clus scale="   55.762">  1  4  2 -1</clus>
<clus scale="   62.554">  2  6  1 -1</clus>
<clus scale="   89.603">  2  3  1 -1</clus>
<clus scale="   55.762">  1  3  2 -1</clus>
</clustering>
</event>
<event>
 6    0  0.3522959E+002  0.6740915E+02  0.7546771E-02  0.1369132E+00
         21   -1    0    0  505  502  0.00000000000E+00  0.00000000000E+00  0.34107201814E+02  0.34107201814E+02  0.00000000000E+00 0.  1.
          2   -1    0    0  503    0 -0.00000000000E+00 -0.00000000000E+00 -0.16876494953E+04  0.16876494953E+04  0.00000000000E+00 0. -1.
         21    1    1    2  503  504 -0.91632471507E+02  0.16079089964E+02 -0.10579401443E+03  0.14088087328E+03  0.00000000000E+00 0.  1.
         21    1    1    2  504  502 -0.12510067820E+02  0.40480925774E+02 -0.12957537808E+03  0.13632676096E+03  0.00000000000E+00 0. -1.
         21    1    1    2  505  501  0.37883705913E+02 -0.58627266518E+02 -0.86156247259E+02  0.11088386039E+03  0.00000000000E+00 0.  1.
          2    1    1    2  501    0  0.66258833415E+02  0.20672507797E+01 -0.13320166537E+04  0.13336652025E+04  0.00000000000E+00 0. -1.
<scales pt_clust_3="67.40915" pt_clust_4="42.36988" pt_clust_5="53.59046" pt_clust_6="14000.00000"></scales>
<clustering>
<clus scale="   42.370">  1  4  2 -1</clus>
<clus scale="   53.590">  1  5  2 -1</clus>
<clus scale="   67.409">  1  3  2 -1</clus>
<clus scale="   42.370">  1  3  2 -1</clus>
</clustering>
</event>
<event>
 6    0  0.3522959E+002  0.9322902E+02  0.7546771E-02  0.1295215E+00
         21   -1    0    0  503  502  0.00000000000E+00  0.00000000000E+00  0.31739587434E+03  0.31739587434E+03  0.00000000000E+00 0. -1.
          2   -1    0    0  505    0 -0.00000000000E+00 -0.00000000000E+00 -0.20524459406E+04  0.20524459406E+04  0.00000000000E+00 0. -1.
         21    1    1    2  503  501 -0.48384145818E+02  0.91356353348E+02  0.27103428157E+03  0.29008031758E+03  0.00000000000E+00 0. -1.
         21    1    1    2  504  502 -0.36171466848E+02 -0.53196895389E+02 -0.31744393095E+01  0.64407777154E+02  0.00000000000E+00 0. -1.
         21    1    1    2  505  504 -0.38019588215E+02 -0.96603285937E+01 -0.88406828277E+02  0.96719069075E+02  0.00000000000E+00 0.  1.
          2    1    1    2  501    0  0.12257520088E+03 -0.28499129365E+02 -0.19145030802E+04  0.19186346511E+04  0.00000000000E+00 0. -1.
<scales pt_clust_3="14000.00000" pt_clust_4="64.83737" pt_clust_5="39.22768" pt_clust_6="93.22902"></scales>
<clustering>
<clus scale="   39.228">  2  5  1 -1</clus>
<clus scale="   64.837">  1  4  2 -1</clus>
<clus scale="   93.229">  2  6  1 -1</clus>
<clus scale="   64.837">  1  3  2 -1</clus>
</clustering>
</event>
<event>
 6    0  0.3522959E+002  0.1480357E+03  0.7546771E-02  0.1202908E+00
          2   -1    0    0  505    0 -0.00000000000E+00  0.00000000000E+00  0.78303481759E+03  0.78303481759E+03  0.00000000000E+00 0.  1.
         21   -1    0    0  504  502  0.00000000000E+00 -0.00000000000E+00 -0.29349123641E+03  0.29349123641E+03  0.00000000000E+00 0.  1.
         21    1    1    2  503  501 -0.21300904776E+02 -0.72620735524E+02 -0.10853940539E+03  0.13231894156E+03  0.00000000000E+00 0.  1.
         21    1    1    2  504  503 -0.58344393759E+02  0.16615422238E+02 -0.11997773043E+03  0.13444253917E+03  0.00000000000E+00 0.  1.
         21    1    1    2  505  502 -0.63722974505E+02 -0.23699940974E+01 -0.10775486488E+02  0.64671055820E+02  0.00000000000E+00 0.  1.
          2    1    1    2  501    0  0.14336827304E+03  0.58375307383E+02  0.72883620349E+03  0.74509351745E+03  0.00000000000E+00 0.  1.
<scales pt_clust_3="148.03571" pt_clust_4="60.66416" pt_clust_5="76.97197" pt_clust_6="14000.00000"></scales>
<clustering>
<clus scale="   60.664">  2  4  1 -1</clus>
<clus scale="   76.972">  2  5  1 -1</clus>
<clus scale="  148.036">  2  3  1 -1</clus>
<clus scale="   60.664">  2  3  1 -1</clus>
</clustering>
</event>
<event>
 6    0  0.3522959E+002  0.1513074E+03  0.7546771E-02  0.1198876E+00
         21   -1    0    0  504  502  0.00000000000E+00  0.00000000000E+00  0.14373992261E+03  0.14373992261E+03  0.00000000000E+00 0. -1.
         -3   -1    0    0    0  501 -0.00000000000E+00 -0.00000000000E+00 -0.75795194769E+03  0.75795194769E+03  0.00000000000E+00 0. -1.
         21    1    1    2  503  501  0.11344965235E+03 -0.78312524330E+02 -0.10289795793E+03  0.17202228004E+03  0.00000000000E+00 0. -1.
         21    1    1    2  504  503 -0.10440959370E+03  0.12361959276E+03 -0.31765105174E+02  0.16490054238E+03  0.00000000000E+00 0. -1.
         21    1    1    2  505  502 -0.49312882487E+02 -0.42051542223E+02  0.16662088087E+02  0.66915751225E+02  0.00000000000E+00 0.  1.
         -3    1    1    2    0  505  0.40272823838E+02 -0.32555262050E+01 -0.49621105006E+03  0.49785329665E+03  0.00000000000E+00 0. -1.
<scales pt_clust_3="14000.00000" pt_clust_4="151.30739" pt_clust_5="62.12164" pt_clust_6="40.40419"></scales>
<clustering>
<clus scale="   40.404">  2  6  1 -1</clus>
<clus scale="   62.122">  1  5  2 -1</clus>
<clus scale="  151.307">  1  4  2 -1</clus>
<clus scale="   62.122">  1  3  2 -1</clus>
</clustering>
</event>
<event>
 6    0  0.3522959E+002  0.8678629E+02  0.7546771E-02  0.1310826E+00
          4   -1    0    0  503    0 -0.00000000000E+00  0.00000000000E+00  0.18266632138E+04  0.18266632138E+04  0.00000000000E+00 0. -1.
         21   -1    0    0  504  502  0.00000000000E+00 -0.00000000000E+00 -0.46638893973E+02  0.46638893973E+02  0.00000000000E+00 0. -1.
         21    1    1    2  503  502  0.85993012321E+02 -0.76901495439E+02  0.11209426404E+04  0.11268633641E+04  0.00000000000E+00 0. -1.
         21    1    1    2  504  505 -0.30548681593E+02  0.18932735991E+02  0.45847237984E+02  0.58254954038E+02  0.00000000000E+00 0. -1.
         21    1    1    2  505  501  0.17449074384E+02  0.49280772159E+02 -0.16007270165E+02  0.54674467529E+02  0.00000000000E+00 0. -1.
          4    1    1    2  501    0 -0.72893405112E+02  0.86879872895E+01  0.62924171156E+03  0.63350932211E+03  0.00000000000E+00 0. -1.
<scales pt_clust_3="86.78629" pt_clust_4="35.93982" pt_clust_5="66.47514" pt_clust_6="14000.00000"></scales>
<clustering>
<clus scale="   35.940">  2  4  1 -1</clus>
<clus scale="   66.475">  2  5  1 -1</clus>
<clus scale="   86.786">  2  3  1 -1</clus>
<clus scale="   35.940">  2  3  1 -1</clus>
</clustering>
</event>
<event>
 6    0  0.3522959E+002  0.1536301E+03  0.7546771E-02  0.1196082E+00
         21   -1    0    0  504  502  0.00000000000E+00  0.00000000000E+00  0.48460879163E+03  0.48460879163E+03  0.00000000000E+00 0. -1.
          2   -1    0    0  505    0 -0.00000000000E+00 -0.00000000000E+00 -0.48167078028E+03  0.48167078028E+03  0.00000000000E+00 0. -1.
         21    1    1    2  503  502 -0.98864429257E+02 -0.29782253793E+02  0.39004663351E+03  0.40348176455E+03  0.00000000000E+00 0. -1.
         21    1    1    2  504  501  0.84505026979E+02  0.34885043439E+02 -0.21009767850E+03  0.22912682155E+03  0.00000000000E+00 0. -1.
         21    1    1    2  505  503 -0.31647013750E+02 -0.27317674122E+02  0.69944519816E+02  0.81486346408E+02  0.00000000000E+00 0. -1.
          2    1    1    2  501    0  0.46006416028E+02  0.22214884476E+02 -0.24695546347E+03  0.25218463940E+03  0.00000000000E+00 0. -1.
<scales pt_clust_3="36.60086" pt_clust_4="37.14863" pt_clust_5="36.60086" pt_clust_6="150.87461"></scales>
<clustering>
<clus scale="   36.601">  3  5 -1 -1</clus>
<clus scale="   37.149">  4  6 -1 -1</clus>
<clus scale="  150.875">  2  4  1 -1</clus>
<clus scale="  153.630">  1  3  2 -1</clus>
</clustering>
</event>
<event>
 6    0  0.3522959E+002  0.1067392E+03  0.7546771E-02  0.1266730E+00
         21   -1    0    0  504  502  0.00000000000E+00  0.00000000000E+00  0.95571525955E+03  0.95571525955E+03  0.00000000000E+00 0.  1.
          1   -1    0    0  505    0 -0.00000000000E+00 -0.00000000000E+00 -0.63789567894E+02  0.63789567894E+02  0.00000000000E+00 0.  1.
         21    1    1    2  503  501 -0.14690025880E+03 -0.44886465289E+01  0.18783100606E+03  0.23849595556E+03  0.00000000000E+00 0.  1.
         21    1    1    2  504  503 -0.30246949503E+02 -0.36033033620E+02  0.13025287208E+03  0.13848851271E+03  0.00000000000E+00 0.  1.
         21    1    1    2  505  502  0.10745719787E+03 -0.19643920477E+02  0.52891018098E+03  0.54007306221E+03  0.00000000000E+00 0.  1.
          1    1    1    2  501    0  0.69690010428E+02  0.60165600626E+02  0.44931632541E+02  0.10244729696E+03  0.00000000000E+00 0.  1.
<scales pt_clust_3="106.73922" pt_clust_4="47.04527" pt_clust_5="14000.00000" pt_clust_6="87.90431"></scales>
<clustering>
<clus scale="   47.045">  1  4  2 -1</clus>
<clus scale="   87.904">  2  6  1 -1</clus>
<clus scale="  106.739">  2  3  1 -1</clus>
<clus scale="   47.045">  1  3  2 -1</clus>
</clustering>
</event>
<event>
 6    0  0.3522959E+002  0.1128152E+03  0.7546771E-02  0.1255444E+00
         -1   -1    0    0    0  501 -0.00000000000E+00  0.00000000000E+00  0.12729969497E+03  0.12729969497E+03  0.00000000000E+00 0.  1.
         21   -1    0    0  503  502  0.00000000000E+00 -0.00000000000E+00 -0.45182033022E+03  0.45182033022E+03  0.00000000000E+00 0. -1.
         21    1    1    2  503  501 -0.29396592946E+02  0.18306928336E+02 -0.44884493328E+02  0.56691454764E+02  0.00000000000E+00 0.  1.
         21    1    1    2  504  502  0.15159298553E+03  0.44010411202E+02 -0.31575044947E+03  0.35300948414E+03  0.00000000000E+00 0. -1.
         21    1    1    2  505  504 -0.67921626429E+02 -0.16387140248E+02 -0.26451595108E+02  0.74709922942E+02  0.00000000000E+00 0. -1.
         -1    1    1    2    0  505 -0.54274766152E+02 -0.45930199289E+02  0.62565902649E+02  0.94709163347E+02  0.00000000000E+00 0.  1.
<scales pt_clust_3="34.63096" pt_clust_4="14000.00000" pt_clust_5="112.81518" pt_clust_6="71.53842"></scales>
<clustering>
<clus scale="   34.631">  2  3  1 -1</clus>
<clus scale="   71.538">  1  6  2 -1</clus>
<clus scale="  112.815">  1  5  2 -1</clus>
<clus scale="   34.631">  2  3  1 -1</clus>
</clustering>
</event>
<event>
 6    0  0.3522959E+002  0.8159043E+02  0.7546771E-02  0.1324598E+00
         21   -1    0    0  504  502  0.00000000000E+00  0.00000000000E+00  0.51742977143E+02  0.51742977143E+02  0.00000000000E+00 0. -1.
          2   -1    0    0  505    0 -0.00000000000E+00 -0.00000000000E+00 -0.73619606061E+03  0.73619606061E+03  0.00000000000E+00 0.  1.
         21    1    1    2  503  501  0.70134206615E+02  0.15400809176E+02 -0.14533879933E+03  0.16210909429E+03  0.00000000000E+00 0.  1.
         21    1    1    2  504  503 -0.44696315124E+02 -0.96580925764E+02 -0.41038330882E+02  0.11406042438E+03  0.00000000000E+00 0. -1.
         21    1    1    2  505  502 -0.21158524282E+02  0.31012873150E+02 -0.59781358783E+02  0.70592438042E+02  0.00000000000E+00 0. -1.
          2    1    1    2  501    0 -0.42793672094E+01  0.50167243437E+02 -0.43829459447E+03  0.44117708105E+03  0.00000000000E+00 0.  1.
<scales pt_clust_3="81.59043" pt_clust_4="14000.00000" pt_clust_5="37.54306" pt_clust_6="51.36968"></scales>
<clustering>
<clus scale="   37.543">  1  5  2 -1</clus>
<clus scale="   51.370">  2  6  1 -1</clus>
<clus scale="   81.590">  2  3  1 -1</clus>
<clus scale="   37.543">  1  3  2 -1</clus>
</clustering>
</event>
<event>
 6    0  0.3522959E+002  0.1199694E+03  0.7546771E-02  0.1243148E+00
          3   -1    0    0  503    0 -0.00000000000E+00  0.00000000000E+00  0.16714287799E+03  0.16714287799E+03  0.00000000000E+00 0.  1.
         21   -1    0    0  505  502  0.00000000000E+00 -0.00000000000E+00 -0.58478125463E+03  0.58478125463E+03  0.00000000000E+00 0. -1.
         21    1    1    2  503  504  0.21768401387E+02 -0.22450997018E+02 -0.92131087723E+01  0.32600489863E+02  0.00000000000E+00 0.  1.
         21    1    1    2  504  502 -0.56624396254E+00 -0.41675928602E+02 -0.70863146515E+02  0.82211855538E+02  0.00000000000E+00 0. -1.
         21    1    1    2  505  501  0.34014608476E+02 -0.75702567283E+02 -0.44478108547E+03  0.45245782818E+03  0.00000000000E+00 0. -1.
          3    1    1    2  501    0 -0.55216765900E+02  0.13982949290E+03  0.10721896412E+03  0.18465395904E+03  0.00000000000E+00 0.  1.
<scales pt_clust_3="31.27156" pt_clust_4="42.49607" pt_clust_5="119.96939" pt_clust_6="14000.00000"></scales>
<clustering>
<clus scale="   31.272">  1  3  2 -1</clus>
<clus scale="   42.496">  2  4  1 -1</clus>
<clus scale="  119.969">  2  5  1 -1</clus>
<clus scale="   42.496">  2  3  1 -1</clus>
</clustering>
</event>
<event>
 6    0  0.3522959E+002  0.1012678E+03  0.7546771E-02  0.1277652E+00
          1   -1    0    0  504    0 -0.00000000000E+00  0.00000000000E+00  0.30779220188E+04  0.30779220188E+04  0.00000000000E+00 0.  1.
         21   -1    0    0  505  502  0.00000000000E+00 -0.00000000000E+00 -0.18079382730E+02  0.18079382730E+02  0.00000000000E+00 0. -1.
         21    1    1    2  503  502 -0.23360008900E+02  0.25835205129E+02  0.36606456461E+02  0.50529006466E+02  0.00000000000E+00 0. -1.
         21    1    1    2  504  503 -0.64068053550E+02  0.59238635221E+02  0.32071428054E+03  0.33237265400E+03  0.00000000000E+00 0. -1.
         21    1    1    2  505  501  0.31996326105E+02 -0.11544705933E+03  0.74606774556E+03  0.75562482050E+03  0.00000000000E+00 0. -1.
          1    1    1    2  501    0  0.55431736344E+02  0.30373218979E+02  0.19564541535E+04  0.19574749205E+04  0.00000000000E+00 0.  1.
<scales pt_clust_3="34.83027" pt_clust_4="14000.00000" pt_clust_5="101.26781" pt_clust_6="62.85639"></scales>
<clustering>
<clus scale="   34.830">  2  3  1 -1</clus>
<clus scale="   62.856">  1  6  2 -1</clus>
<clus scale="  101.268">  1  5  2 -1</clus>
<clus scale="   34.830">  2  3  1 -1</clus>
</clustering>
</event>
<event>
 6    0  0.3522959E+002  0.1262883E+03  0.7546771E-02  0.1233069E+00
         21   -1    0    0  505  502  0.00000000000E+00  0.00000000000E+00  0.54719143024E+03  0.54719143024E+03  0.00000000000E+00 0.  1.
          2   -1    0    0  502    0 -0.00000000000E+00 -0.00000000000E+00 -0.15627632889E+04  0.15627632889E+04  0.00000000000E+00 0.  1.
         21    1    1    2  503  501  0.14887326933E+02 -0.80374600378E+02 -0.29434578219E+03  0.30548510337E+03  0.00000000000E+00 0.  1.
         21    1    1    2  504  503 -0.67649678143E+02  0.77575132121E+02  0.42809375474E+03  0.44029381431E+03  0.00000000000E+00 0.  1.
         21    1    1    2  505  504  0.15354727797E+02  0.40417419167E+02  0.10249308835E+03  0.11123924037E+03  0.00000000000E+00 0.  1.
          2    1    1    2  501    0  0.37407623413E+02 -0.37617950909E+02 -0.12518129195E+04  0.12529365611E+04  0.00000000000E+00 0.  1.
<scales pt_clust_3="14000.00000" pt_clust_4="126.28835" pt_clust_5="43.23581" pt_clust_6="53.02857"></scales>
<clustering>
<clus scale="   43.236">  1  5  2 -1</clus>
<clus scale="   53.029">  2  6  1 -1</clus>
<clus scale="  126.288">  1  4  2 -1</clus>
<clus scale="   43.236">  1  3  2 -1</clus>
</clustering>
</event>
<event>
 6    0  0.3522959E+002  0.8212650E+02  0.7546771E-02  0.1323123E+00
         21   -1    0    0  504  502  0.00000000000E+00  0.00000000000E+00  0.44586266178E+02  0.44586266178E+02  0.00000000000E+00 0. -1.
          2   -1    0    0  503    0 -0.00000000000E+00 -0.00000000000E+00 -0.16912490552E+04  0.16912490552E+04  0.00000000000E+00 0. -1.
         21    1    1    2  503  505 -0.43670072898E+02 -0.10551120702E+03 -0.14679297967E+04  0.14723646213E+04  0.00000000000E+00 0. -1.
         21    1    1    2  504  501  0.63426129229E+02  0.40328996515E+02 -0.13407381492E+02  0.76348279008E+02  0.00000000000E+00 0. -1.
         21    1    1    2  505  502 -0.30196032749E+02  0.34475087193E+02 -0.52315518670E+02  0.69550309305E+02  0.00000000000E+00 0. -1.
          2    1    1    2  501    0  0.10439976417E+02  0.30707123317E+02 -0.11301009215E+03  0.11757211173E+03  0.00000000000E+00 0. -1.
<scales pt_clust_3="82.12650" pt_clust_4="14000.00000" pt_clust_5="46.46923" pt_clust_6="32.43332"></scales>
<clustering>
<clus scale="   32.433">  2  6  1 -1</clus>
<clus scale="   46.469">  1  5  2 -1</clus>
<clus scale="   82.127">  2  3  1 -1</clus>
<clus scale="   46.469">  1  3  2 -1</clus>
</clustering>
</event>
<event>
 6    0  0.3522959E+002  0.1785010E+03  0.7546771E-02  0.1169262E+00
          2   -1    0    0  505    0 -0.00000000000E+00  0.00000000000E+00  0.50266565268E+03  0.50266565268E+03  0.00000000000E+00 0.  1.
         21   -1    0    0  501  502  0.00000000000E+00 -0.00000000000E+00 -0.15016191279E+04  0.15016191279E+04  0.00000000000E+00 0. -1.
         21    1    1    2  503  502  0.83767449212E+02  0.16572031755E+03 -0.13781938341E+04  0.13906467752E+04  0.00000000000E+00 0. -1.
         21    1    1    2  504  503 -0.30733520871E+02 -0.55455921906E+02 -0.56629661069E+02  0.85010746923E+02  0.00000000000E+00 0.  1.
         21    1    1    2  505  504 -0.43756846929E+02 -0.40264769992E+02 -0.23443318307E+02  0.63917935894E+02  0.00000000000E+00 0.  1.
          2    1    1    2  501    0 -0.92770814113E+01 -0.69999625652E+02  0.45931333819E+03  0.46470932256E+03  0.00000000000E+00 0.  1.
<scales pt_clust_3="175.51577" pt_clust_4="31.48247" pt_clust_5="31.48247" pt_clust_6="70.61170"></scales>
<clustering>
<clus scale="   31.482">  4  5 -1 -1</clus>
<clus scale="   70.612">  1  6  2 -1</clus>
<clus scale="  175.516">  2  3  1 -1</clus>
<clus scale="  175.516">  2  3  1 -1</clus>
</clustering>
</event>
<event>
 6    0  0.3522959E+002  0.1620648E+03  0.7546771E-02  0.1186385E+00
         21   -1    0    0  501  502  0.00000000000E+00  0.00000000000E+00  0.57639250005E+03  0.57639250005E+03  0.00000000000E+00 0. -1.
          1   -1    0    0  503    0 -0.00000000000E+00 -0.00000000000E+00 -0.72407969294E+03  0.72407969294E+03  0.00000000000E+00 0. -1.
         21    1    1    2  503  504 -0.64264760691E+02 -0.33511647977E+02 -0.22229275030E+02  0.75809832378E+02  0.00000000000E+00 0. -1.
         21    1    1    2  504  505  0.20551558740E+03 -0.26086010207E+02  0.28641870057E+03  0.35348664562E+03  0.00000000000E+00 0. -1.
         21    1    1    2  505  502 -0.13552262487E+03 -0.15966721205E-01  0.20808626781E+03  0.24832695576E+03  0.00000000000E+00 0. -1.
          1    1    1    2  501    0 -0.57282018462E+01  0.59613624905E+02 -0.61996288623E+03  0.62284875923E+03  0.00000000000E+00 0. -1.
<scales pt_clust_3="67.18965" pt_clust_4="162.06485" pt_clust_5="14000.00000" pt_clust_6="59.88820"></scales>
<clustering>
<clus scale="   59.888">  2  6  1 -1</clus>
<clus scale="   67.190">  2  3  1 -1</clus>
<clus scale="  162.065">  2  4  1 -1</clus>
<clus scale="  162.065">  1  3  2 -1</clus>
</clustering>
</event>
<event>
 6    0  0.3522959E+002  0.1028912E+03  0.7546771E-02  0.1274331E+00
          1   -1    0    0  504    0 -0.00000000000E+00  0.00000000000E+00  0.19694056527E+03  0.19694056527E+03  0.00000000000E+00 0. -1.
         21   -1    0    0  503  502  0.00000000000E+00 -0.00000000000E+00 -0.98406146620E+02  0.98406146620E+02  0.00000000000E+00 0. -1.
         21    1    1    2  503  505 -0.48201132333E+02  0.61764155176E+01 -0.95136322801E+01  0.49517738903E+02  0.00000000000E+00 0. -1.
         21    1    1    2  504  502  0.10743940251E+03 -0.24307356040E+02  0.29017143614E+02  0.11391254273E+03  0.00000000000E+00 0. -1.
         21    1    1    2  505  501 -0.32386342510E+02 -0.30455235555E+02  0.14428489544E+02  0.46739467952E+02  0.00000000000E+00 0. -1.
          1    1    1    2  501    0 -0.26851927662E+02  0.48586176078E+02  0.64602417769E+02  0.85176962300E+02  0.00000000000E+00 0. -1.
<scales pt_clust_3="44.42692" pt_clust_4="91.81016" pt_clust_5="44.42692" pt_clust_6="55.51254"></scales>
<clustering>
<clus scale="   44.427">  3  5 -1 -1</clus>
<clus scale="   55.513">  1  6  2 -1</clus>
<clus scale="   91.810">  1  4  2 -1</clus>
<clus scale="  102.891">  2  3  1 -1</clus>
</clustering>
</event>
<event>
 6    0  0.3522959E+002  0.1904509E+03  0.7546771E-02  0.1158055E+00
          2   -1    0    0  503    0 -0.00000000000E+00  0.00000000000E+00  0.75617130878E+03  0.75617130878E+03  0.00000000000E+00 0.  1.
         21   -1    0    0  504  502  0.00000000000E+00 -0.00000000000E+00 -0.39863911094E+03  0.39863911094E+03  0.00000000000E+00 0.  1.
         21    1    1    2  503  502  0.35807537940E+02  0.28490169315E+02  0.15541100718E+02  0.48325928159E+02  0.00000000000E+00 0. -1.
         21    1    1    2  504  505  0.18433866929E+03 -0.24203497387E+02 -0.29651838361E+03  0.34998529412E+03  0.00000000000E+00 0.  1.
         21    1    1    2  505  501 -0.22761163449E+03  0.93895889379E+02  0.23223283248E+03  0.33846060727E+03  0.00000000000E+00 0.  1.
          2    1    1    2  501    0  0.74654272563E+01 -0.98182561307E+02  0.40627664826E+03  0.41803859017E+03  0.00000000000E+00 0.  1.
<scales pt_clust_3="45.75882" pt_clust_4="190.45094" pt_clust_5="14000.00000" pt_clust_6="86.56886"></scales>
<clustering>
<clus scale="   45.759">  1  3  2 -1</clus>
<clus scale="   86.569">  1  6  2 -1</clus>
<clus scale="  190.451">  2  4  1 -1</clus>
<clus scale="  190.451">  2  3  1 -1</clus>
</clustering>
</event>
<event>
 6    0  0.3522959E+002  0.8204461E+02  0.7546771E-02  0.1323347E+00
         21   -1    0    0  503  502  0.00000000000E+00  0.00000000000E+00  0.38074223290E+02  0.38074223290E+02  0.00000000000E+00 0. -1.
          1   -1    0    0  504    0 -0.00000000000E+00 -0.00000000000E+00 -0.11939319433E+04  0.11939319433E+04  0.00000000000E+00 0.  1.
         21    1    1    2  503  501 -0.11216773809E+03  0.73964947803E+01 -0.11509286874E+03  0.16088094368E+03  0.00000000000E+00 0.  1.
         21    1    1    2  504  505  0.36221517764E+02 -0.75741299309E+01 -0.14847742931E+03  0.15301932168E+03  0.00000000000E+00 0. -1.
         21    1    1    2  505  502  0.34803230154E+02 -0.43185917486E+02 -0.53075525881E+02  0.76767830149E+02  0.00000000000E+00 0. -1.
          1    1    1    2  501    0  0.41142990170E+02  0.43363552636E+02 -0.83921189607E+03  0.84133807108E+03  0.00000000000E+00 0.  1.
<scales pt_clust_3="14000.00000" pt_clust_4="37.00494" pt_clust_5="57.26441" pt_clust_6="82.04461"></scales>
<clustering>
<clus scale="   37.005">  2  4  1 -1</clus>
<clus scale="   57.264">  1  5  2 -1</clus>
<clus scale="   82.045">  2  6  1 -1</clus>
<clus scale="   57.264">  1  3  2 -1</clus>
</clustering>
</event>
<event>
 6    0  0.3522959E+002  0.9036964E+02  0.7546771E-02  0.1301959E+00
         -1   -1    0    0    0  501 -0.00000000000E+00  0.00000000000E+00  0.64603582578E+03  0.64603582578E+03  0.00000000000E+00 0.  1.
         21   -1    0    0  503  502  0.00000000000E+00 -0.00000000000E+00 -0.23952984412E+03  0.23952984412E+03  0.00000000000E+00 0. -1.
         21    1    1    2  503  504  0.50809354391E+02 -0.28557815475E+02 -0.12167413123E+02  0.59541458333E+02  0.00000000000E+00 0. -1.
         21    1    1    2  504  501 -0.97185752076E+00 -0.52609946226E+02  0.54820808654E+03  0.55072757067E+03  0.00000000000E+00 0.  1.
         21    1    1    2  505  502 -0.10720402834E+03  0.43545656504E+02 -0.16225705617E+03  0.19928943818E+03  0.00000000000E+00 0. -1.
         -1    1    1    2    0  505  0.57366531470E+02  0.37622105196E+02  0.32722364407E+02  0.76007202716E+02  0.00000000000E+00 0.  1.
<scales pt_clust_3="90.36964" pt_clust_4="52.61892" pt_clust_5="14000.00000" pt_clust_6="57.38044"></scales>
<clustering>
<clus scale="   52.619">  1  4  2 -1</clus>
<clus scale="   57.380">  1  6  2 -1</clus>
<clus scale="   90.370">  1  3  2 -1</clus>
<clus scale="   90.370">  2  3  1 -1</clus>
</clustering>
</event>
<event>
 6    0  0.3522959E+002  0.1182558E+03  0.7546771E-02  0.1246002E+00
          4   -1    0    0  503    0 -0.00000000000E+00  0.00000000000E+00  0.25814528165E+03  0.25814528165E+03  0.00000000000E+00 0. -1.
         21   -1    0    0  504  502  0.00000000000E+00 -0.00000000000E+00 -0.30688999316E+03  0.30688999316E+03  0.00000000000E+00 0. -1.
         21    1    1    2  503  505  0.17496034473E+02 -0.52669817988E+02  0.19528442407E+02  0.58835202150E+02  0.00000000000E+00 0. -1.
         21    1    1    2  504  501 -0.11922884955E+03 -0.34948752910E+02 -0.15626542280E+03  0.19963921523E+03  0.00000000000E+00 0. -1.
         21    1    1    2  505  502  0.10008611415E+03  0.48432784872E+02 -0.78115291136E+02  0.13588584770E+03  0.00000000000E+00 0.  1.
          4    1    1    2  501    0  0.16467009295E+01  0.39185786026E+02  0.16610756002E+03  0.17067500973E+03  0.00000000000E+00 0. -1.
<scales pt_clust_3="39.95669" pt_clust_4="118.25579" pt_clust_5="14000.00000" pt_clust_6="39.22037"></scales>
<clustering>
<clus scale="   39.220">  1  6  2 -1</clus>
<clus scale="   39.957">  1  3  2 -1</clus>
<clus scale="  118.256">  2  4  1 -1</clus>
<clus scale="  118.256">  2  3  1 -1</clus>
</clustering>
</event>
<event>
 6    0  0.3522959E+002  0.3770031E+03  0.7546771E-02  0.1052047E+00
         21   -1    0    0  504  502  0.00000000000E+00  0.00000000000E+00  0.65144874861E+03  0.65144874861E+03  0.00000000000E+00 0. -1.
          2   -1    0    0  503    0 -0.00000000000E+00 -0.00000000000E+00 -0.14387442153E+04  0.14387442153E+04  0.00000000000E+00 0.  1.
         21    1    1    2  503  505 -0.33043078077E+03 -0.24915048196E+03 -0.71132693812E+03  0.82294986265E+03  0.00000000000E+00 0.  1.
         21    1    1    2  504  501  0.17279140686E+03 -0.56291297047E+01  0.42296621102E+03  0.45693432029E+03  0.00000000000E+00 0. -1.
         21    1    1    2  505  502  0.34595079660E+00 -0.73632557551E+02  0.90989418597E+02  0.11705104660E+03  0.00000000000E+00 0.  1.
          2    1    1    2  501    0  0.15729342310E+03  0.32841216922E+03 -0.58992415818E+03  0.69325773436E+03  0.00000000000E+00 0.  1.
<scales pt_clust_3="14000.00000" pt_clust_4="184.80461" pt_clust_5="73.63337" pt_clust_6="377.00311"></scales>
<clustering>
<clus scale="   73.633">  1  5  2 -1</clus>
<clus scale="  184.805">  1  4  2 -1</clus>
<clus scale="  377.003">  2  6  1 -1</clus>
<clus scale="   73.633">  1  3  2 -1</clus>
</clustering>
</event>
<event>
 6    0  0.3522959E+002  0.1411466E+03  0.7546771E-02  0.1211794E+00
         21   -1    0    0  504  502  0.00000000000E+00  0.00000000000E+00  0.76844314954E+03  0.76844314954E+03  0.00000000000E+00 0.  1.
         -3   -1    0    0    0  501 -0.00000000000E+00 -0.00000000000E+00 -0.68334415169E+03  0.68334415169E+03  0.00000000000E+00 0.  1.
         21    1    1    2  503  501  0.17221085478E+03 -0.13370532750E+03  0.36718171919E+02  0.22109255359E+03  0.00000000000E+00 0.  1.
         21    1    1    2  504  503 -0.14368198611E+03  0.32936193056E+02  0.60665834132E+03  0.62431053895E+03  0.00000000000E+00 0.  1.
         21    1    1    2  505  502  0.32793016406E+02  0.13314504016E+02  0.25417887450E+01  0.35484061665E+02  0.00000000000E+00 0.  1.
         -3    1    1    2    0  505 -0.61321885076E+02  0.87454630428E+02 -0.56081930414E+03  0.57090014702E+03  0.00000000000E+00 0.  1.
<scales pt_clust_3="141.14660" pt_clust_4="14000.00000" pt_clust_5="35.39291" pt_clust_6="106.75840"></scales>
<clustering>
<clus scale="   35.393">  1  5  2 -1</clus>
<clus scale="  106.758">  2  6  1 -1</clus>
<clus scale="  141.147">  2  3  1 -1</clus>
<clus scale="   35.393">  1  3  2 -1</clus>
</clustering>
</event>
<event>
 6    0  0.3522959E+002  0.1319257E+03  0.7546771E-02  0.1224626E+00
          2   -1    0    0  505    0 -0.00000000000E+00  0.00000000000E+00  0.58359562361E+03  0.58359562361E+03  0.00000000000E+00 0.  1.
         21   -1    0    0  503  502  0.00000000000E+00 -0.00000000000E+00 -0.89429606573E+03  0.89429606573E+03  0.00000000000E+00 0. -1.
         21    1    1    2  503  504  0.27431038666E+02 -0.13078547473E+03 -0.81361548172E+03  0.82451649734E+03  0.00000000000E+00 0. -1.
         21    1    1    2  504  501  0.48558708415E+02  0.14969885363E+02 -0.30730627354E+02  0.59383643273E+02  0.00000000000E+00 0. -1.
         21    1    1    2  505  502 -0.57221938118E+02  0.91249043342E+02  0.68119954060E+02  0.12744044199E+03  0.00000000000E+00 0. -1.
          2    1    1    2  501    0 -0.18767808963E+02  0.24566546026E+02  0.46552571290E+03  0.46655110674E+03  0.00000000000E+00 0.  1.
<scales pt_clust_3="131.92574" pt_clust_4="49.63617" pt_clust_5="14000.00000" pt_clust_6="30.91514"></scales>
<clustering>
<clus scale="   30.915">  1  6  2 -1</clus>
<clus scale="   49.636">  1  4  2 -1</clus>
<clus scale="  131.926">  2  3  1 -1</clus>
<clus scale="  131.926">  2  3  1 -1</clus>
</clustering>
</event>
<event>
 6    0  0.5623702E+002  0.1300439E+03  0.7546771E-02  0.1227391E+00
         -3   -1    0    0    0  501 -0.00000000000E+00  0.00000000000E+00  0.39004137309E+03  0.39004137309E+03  0.00000000000E+00 0.  1.
         21   -1    0    0  505  502  0.00000000000E+00 -0.00000000000E+00 -0.97085017160E+03  0.97085017160E+03  0.00000000000E+00 0. -1.
         21    1    1    2  503  501  0.47228951711E+02  0.20616340939E+02 -0.75469010981E+02  0.91384785450E+02  0.00000000000E+00 0.  1.
         21    1    1    2  504  502 -0.28649908915E+02  0.19905127211E+02 -0.66166298083E+03  0.66258201875E+03  0.00000000000E+00 0. -1.
         21    1    1    2  505  503  0.48197991443E+02  0.61101154399E+02 -0.20840440167E+03  0.22246076527E+03  0.00000000000E+00 0.  1.
         -3    1    1    2    0  504 -0.66777034238E+02 -0.10162262255E+03  0.36472759496E+03  0.38446397522E+03  0.00000000000E+00 0.  1.
<scales pt_clust_3="35.45889" pt_clust_4="34.88598" pt_clust_5="35.45889" pt_clust_6="121.57534"></scales>
<clustering>
<clus scale="   34.886">  2  4  1 -1</clus>
<clus scale="   35.459">  3  5 -1 -1</clus>
<clus scale="  121.575">  1  6  2 -1</clus>
<clus scale="   34.886">  2  3  1 -1</clus>
</clustering>
</event>
<event>
 6    0  0.3522959E+002  0.2202009E+03  0.7546771E-02  0.1133733E+00
         21   -1    0    0  503  502  0.00000000000E+00  0.00000000000E+00  0.50204341864E+03  0.50204341864E+03  0.00000000000E+00 0. -1.
         -1   -1    0    0    0  501 -0.00000000000E+00 -0.00000000000E+00 -0.32052359402E+03  0.32052359402E+03  0.00000000000E+00 0. -1.
         21    1    1    2  503  505  0.59957633740E+02 -0.10884247875E+03  0.22979830863E+03  0.26124483856E+03  0.00000000000E+00 0. -1.
         21    1    1    2  504  501 -0.18011490278E+03  0.16752807700E+03 -0.17112593749E+03  0.29965166656E+03  0.00000000000E+00 0. -1.
         21    1    1    2  505  504  0.80973207569E+02 -0.44108033903E+02  0.17320516745E+03  0.19621979775E+03  0.00000000000E+00 0. -1.
         -1    1    1    2    0  502  0.39184061473E+02 -0.14577564344E+02 -0.50357713963E+02  0.65450709785E+02  0.00000000000E+00 0. -1.
<scales pt_clust_3="51.84286" pt_clust_4="211.85305" pt_clust_5="51.84286" pt_clust_6="41.80785"></scales>
<clustering>
<clus scale="   41.808">  2  6  1 -1</clus>
<clus scale="   51.843">  3  5 -1 -1</clus>
<clus scale="  211.853">  2  4  1 -1</clus>
<clus scale="  220.201">  1  3  2 -1</clus>
</clustering>
</event>
<event>
 6    0  0.3522959E+002  0.1112759E+03  0.7546771E-02  0.1258225E+00
         21   -1    0    0  503  502  0.00000000000E+00  0.00000000000E+00  0.10550103800E+04  0.10550103800E+04  0.00000000000E+00 0. -1.
         -1   -1    0    0    0  501 -0.00000000000E+00 -0.00000000000E+00 -0.55514412622E+03  0.55514412622E+03  0.00000000000E+00 0. -1.
         21    1    1    2  503  505  0.10454451128E+02 -0.47617236103E+02  0.28915651016E+03  0.29323741933E+03  0.00000000000E+00 0. -1.
         21    1    1    2  504  501 -0.11332605725E+03  0.10384469183E+03  0.21822459657E+03  0.26692412746E+03  0.00000000000E+00 0. -1.
         21    1    1    2  505  504  0.38781765922E+02 -0.37330515122E+02  0.51772713227E+03  0.52051798837E+03  0.00000000000E+00 0. -1.
         -1    1    1    2    0  502  0.64089840200E+02 -0.18896940607E+02 -0.52524198520E+03  0.52947497108E+03  0.00000000000E+00 0. -1.
<scales pt_clust_3="36.81266" pt_clust_4="104.33601" pt_clust_5="36.81266" pt_clust_6="66.81768"></scales>
<clustering>
<clus scale="   36.813">  3  5 -1 -1</clus>
<clus scale="   66.818">  2  6  1 -1</clus>
<clus scale="  104.336">  2  4  1 -1</clus>
<clus scale="  111.276">  1  3  2 -1</clus>
</clustering>
</event>
<event>
 6    0  0.3522959E+002  0.1641102E+03  0.7546771E-02  0.1184133E+00
         -3   -1    0    0    0  501 -0.00000000000E+00  0.00000000000E+00  0.71576690103E+03  0.71576690103E+03  0.00000000000E+00 0. -1.
         21   -1    0    0  505  502  0.00000000000E+00 -0.00000000000E+00 -0.15087198083E+03  0.15087198083E+03  0.00000000000E+00 0. -1.
         21    1    1    2  503  501 -0.51342873713E+02  0.36721340959E+01  0.12563640087E+03  0.13577216384E+03  0.00000000000E+00 0. -1.
         21    1    1    2  504  503  0.32248601429E+02  0.76974381214E+02 -0.18511187961E+02  0.85485038089E+02  0.00000000000E+00 0. -1.
         21    1    1    2  505  504  0.52401812649E+02  0.54732222683E+02 -0.67773780420E+02  0.10166047158E+03  0.00000000000E+00 0. -1.
         -3    1    1    2    0  502 -0.33307540365E+02 -0.13537873799E+03  0.52554348771E+03  0.54372120836E+03  0.00000000000E+00 0. -1.
<scales pt_clust_3="51.47403" pt_clust_4="52.71524" pt_clust_5="52.71524" pt_clust_6="154.48667"></scales>
<clustering>
<clus scale="   51.474">  1  3  2 -1</clus>
<clus scale="   52.715">  4  5 -1 -1</clus>
<clus scale="  154.487">  1  6  2 -1</clus>
<clus scale="  164.110">  2  3  1 -1</clus>
</clustering>
</event>
<event>
 6    0  0.3522959E+002  0.1957074E+03  0.7546771E-02  0.1153412E+00
         -4   -1    0    0    0  501 -0.00000000000E+00  0.00000000000E+00  0.13848872236E+04  0.13848872236E+04  0.00000000000E+00 0. -1.
         21   -1    0    0  503  502  0.00000000000E+00 -0.00000000000E+00 -0.82114693703E+03  0.82114693703E+03  0.00000000000E+00 0. -1.
         21    1    1    2  503  504  0.26729064314E+01  0.36192816766E+02 -0.54201903436E+02  0.65229676915E+02  0.00000000000E+00 0.  1.
         21    1    1    2  504  505  0.47207450755E+02 -0.22802255046E+03 -0.73162048381E+03  0.76778340647E+03  0.00000000000E+00 0. -1.
         21    1    1    2  505  501 -0.12070501017E+02  0.67238479147E+02  0.95688339894E+03  0.95931879437E+03  0.00000000000E+00 0. -1.
         -4    1    1    2    0  502 -0.37809856169E+02  0.12459125455E+03  0.39267927488E+03  0.41370228288E+03  0.00000000000E+00 0. -1.
<scales pt_clust_3="36.29138" pt_clust_4="14000.00000" pt_clust_5="68.36954" pt_clust_6="195.70744"></scales>
<clustering>
<clus scale="   36.291">  2  3  1 -1</clus>
<clus scale="   68.370">  1  5  2 -1</clus>
<clus scale="  195.707">  1  6  2 -1</clus>
<clus scale="   36.291">  2  3  1 -1</clus>
</clustering>
</event>
<event>
 6    0  0.3522959E+002  0.6831848E+02  0.7546771E-02  0.1365906E+00
         21   -1    0    0  503  502  0.00000000000E+00  0.00000000000E+00  0.11059707098E+04  0.11059707098E+04  0.00000000000E+00 0.  1.
          1   -1    0    0  504    0 -0.00000000000E+00 -0.00000000000E+00 -0.66347629614E+03  0.66347629614E+03  0.00000000000E+00 0. -1.
         21    1    1    2  503  501 -0.33393404131E+02 -0.28300264177E+02  0.13542355937E+03  0.14232204616E+03  0.00000000000E+00 0. -1.
         21    1    1    2  504  505  0.10507720796E+03 -0.39164347811E+02 -0.39041483358E+03  0.40620045304E+03  0.00000000000E+00 0. -1.
         21    1    1    2  505  502 -0.29191337890E+02  0.54779031120E+02  0.95631320981E+03  0.95832553535E+03  0.00000000000E+00 0.  1.
          1    1    1    2  501    0 -0.42492465939E+02  0.12685580868E+02 -0.25882752197E+03  0.26259897135E+03  0.00000000000E+00 0. -1.
<scales pt_clust_3="43.77242" pt_clust_4="14000.00000" pt_clust_5="68.31848" pt_clust_6="44.39228"></scales>
<clustering>
<clus scale="   43.772">  1  3  2 -1</clus>
<clus scale="   44.392">  2  6  1 -1</clus>
<clus scale="   68.318">  1  5  2 -1</clus>
<clus scale="   43.772">  1  3  2 -1</clus>
</clustering>
</event>
<event>
 6    0  0.3522959E+002  0.1335214E+03  0.7546771E-02  0.1222322E+00
         21   -1    0    0  505  502  0.00000000000E+00  0.00000000000E+00  0.47371755869E+02  0.47371755869E+02  0.00000000000E+00 0.  1.
          1   -1    0    0  504    0 -0.00000000000E+00 -0.00000000000E+00 -0.33541562698E+04  0.33541562698E+04  0.00000000000E+00 0.  1.
         21    1    1    2  503  502 -0.35104577969E+02 -0.33501733464E+02 -0.83842797198E+02  0.96872659617E+02  0.00000000000E+00 0. -1.
         21    1    1    2  504  503  0.77349523548E+02 -0.70174133560E+02 -0.15869324358E+04  0.15903653396E+04  0.00000000000E+00 0.  1.
         21    1    1    2  505  501 -0.53736571386E+02  0.13841584152E+03 -0.10268488178E+03  0.18052908141E+03  0.00000000000E+00 0.  1.
          1    1    1    2  501    0  0.11491625806E+02 -0.34739974499E+02 -0.15333243992E+04  0.15337609450E+04  0.00000000000E+00 0.  1.
<scales pt_clust_3="49.33029" pt_clust_4="14000.00000" pt_clust_5="133.52139" pt_clust_6="36.59130"></scales>
<clustering>
<clus scale="   36.591">  2  6  1 -1</clus>
<clus scale="   49.330">  1  3  2 -1</clus>
<clus scale="  133.521">  1  5  2 -1</clus>
<clus scale="   49.330">  1  3  2 -1</clus>
</clustering>
</event>
<event>
 6    0  0.3522959E+002  0.1075642E+03  0.7546771E-02  0.1265148E+00
         21   -1    0    0  503  502  0.00000000000E+00  0.00000000000E+00  0.35545122726E+03  0.35545122726E+03  0.00000000000E+00 0.  1.
          1   -1    0    0  504    0 -0.00000000000E+00 -0.00000000000E+00 -0.16507590300E+03  0.16507590300E+03  0.00000000000E+00 0. -1.
         21    1    1    2  503  505 -0.34429458583E+02  0.11782872220E+02  0.16207282637E+02  0.39835909762E+02  0.00000000000E+00 0. -1.
         21    1    1    2  504  502  0.13136238859E+03  0.19522104644E+02  0.13246752815E+03  0.18757621310E+03  0.00000000000E+00 0. -1.
         21    1    1    2  505  501 -0.68818816000E+02 -0.61671100207E+02  0.15055902288E+03  0.17665608794E+03  0.00000000000E+00 0.  1.
          1    1    1    2  501    0 -0.28114114009E+02  0.30366123343E+02 -0.10885850940E+03  0.11645891946E+03  0.00000000000E+00 0. -1.
<scales pt_clust_3="36.38988" pt_clust_4="107.56420" pt_clust_5="14000.00000" pt_clust_6="41.75473"></scales>
<clustering>
<clus scale="   36.390">  1  3  2 -1</clus>
<clus scale="   41.755">  2  6  1 -1</clus>
<clus scale="  107.564">  2  4  1 -1</clus>
<clus scale="   36.390">  1  3  2 -1</clus>
</clustering>
</event>
<event>
 6    0  0.3522959E+002  0.2711744E+03  0.7546771E-02  0.1100609E+00
          1   -1    0    0  503    0 -0.00000000000E+00  0.00000000000E+00  0.88266169684E+03  0.88266169684E+03  0.00000000000E+00 0. -1.
         21   -1    0    0  504  502  0.00000000000E+00 -0.00000000000E+00 -0.51893511963E+03  0.51893511963E+03  0.00000000000E+00 0. -1.
         21    1    1    2  503  505 -0.60588478016E+02 -0.34579830067E+03  0.20666042803E+03  0.40737692734E+03  0.00000000000E+00 0. -1.
         21    1    1    2  504  501 -0.71785481380E+01  0.40734364113E+02  0.16430364865E+01  0.41394680116E+02  0.00000000000E+00 0. -1.
         21    1    1    2  505  502  0.16995228594E+02  0.22444558658E+03 -0.36223504325E+03  0.42647260837E+03  0.00000000000E+00 0. -1.
          1    1    1    2  501    0  0.50771797560E+02  0.80618349981E+02  0.51765815595E+03  0.52635260064E+03  0.00000000000E+00 0. -1.
<scales pt_clust_3="271.17438" pt_clust_4="41.36206" pt_clust_5="14000.00000" pt_clust_6="95.54102"></scales>
<clustering>
<clus scale="   41.362">  2  4  1 -1</clus>
<clus scale="   95.541">  1  6  2 -1</clus>
<clus scale="  271.174">  1  3  2 -1</clus>
<clus scale="   41.362">  2  3  1 -1</clus>
</clustering>
</event>
<event>
 6    0  0.3522959E+002  0.7023160E+02  0.7546771E-02  0.1359307E+00
          1   -1    0    0  503    0 -0.00000000000E+00  0.00000000000E+00  0.24282281872E+03  0.24282281872E+03  0.00000000000E+00 0.  1.
         21   -1    0    0  504  502  0.00000000000E+00 -0.00000000000E+00 -0.69934132317E+03  0.69934132317E+03  0.00000000000E+00 0.  1.
         21    1    1    2  503  505  0.40422243344E+02 -0.19523709588E+02 -0.73787747122E+01  0.45492629176E+02  0.00000000000E+00 0.  1.
         21    1    1    2  504  501  0.40656702507E+02  0.68046478900E+02 -0.59861791683E+03  0.60384327528E+03  0.00000000000E+00 0.  1.
         21    1    1    2  505  502  0.21933767930E+02 -0.38851720225E+02 -0.50673444994E+02  0.67515512052E+02  0.00000000000E+00 0.  1.
          1    1    1    2  501    0 -0.10301271378E+03 -0.96710490870E+01  0.20015163209E+03  0.22531272538E+03  0.00000000000E+00 0.  1.
<scales pt_clust_3="46.41532" pt_clust_4="14000.00000" pt_clust_5="44.61554" pt_clust_6="70.23160"></scales>
<clustering>
<clus scale="   44.616">  2  5  1 -1</clus>
<clus scale="   46.415">  1  3  2 -1</clus>
<clus scale="   70.232">  1  6  2 -1</clus>
<clus scale="   44.616">  2  3  1 -1</clus>
</clustering>
</event>
<event>
 6    0  0.3522959E+002  0.1244865E+03  0.7546771E-02  0.1235874E+00
          2   -1    0    0  505    0 -0.00000000000E+00  0.00000000000E+00  0.31280062566E+03  0.31280062566E+03  0.00000000000E+00 0. -1.
         21   -1    0    0  504  502  0.00000000000E+00 -0.00000000000E+00 -0.57634842868E+03  0.57634842868E+03  0.00000000000E+00 0.  1.
         21    1    1    2  503  502  0.12132298939E+01 -0.43596402570E+02 -0.63378249086E+02  0.76934522167E+02  0.00000000000E+00 0. -1.
         21    1    1    2  504  501  0.56421286550E+02 -0.70517312072E+02 -0.44515345310E+03  0.45422202686E+03  0.00000000000E+00 0.  1.
         21    1    1    2  505  503  0.71469140714E+02  0.21338473793E+02  0.11420344979E+02  0.75455899820E+02  0.00000000000E+00 0.  1.
          2    1    1    2  501    0 -0.12910365716E+03  0.92775240849E+02  0.23356355418E+03  0.28253660550E+03  0.00000000000E+00 0. -1.
<scales pt_clust_3="43.61328" pt_clust_4="124.48654" pt_clust_5="73.91930" pt_clust_6="14000.00000"></scales>
<clustering>
<clus scale="   43.613">  2  3  1 -1</clus>
<clus scale="   73.919">  1  5  2 -1</clus>
<clus scale="  124.487">  2  4  1 -1</clus>
<clus scale="   43.613">  2  3  1 -1</clus>
</clustering>
</event>
<event>
 6    0  0.3522959E+002  0.1048057E+03  0.7546771E-02  0.1270503E+00
         21   -1    0    0  505  502  0.00000000000E+00  0.00000000000E+00  0.85285933729E+03  0.85285933729E+03  0.00000000000E+00 0.  1.
         -3   -1    0    0    0  501 -0.00000000000E+00 -0.00000000000E+00 -0.14983655951E+03  0.14983655951E+03  0.00000000000E+00 0.  1.
         21    1    1    2  503  501 -0.12649928432E+02  0.65238477127E+02  0.14894993288E+03  0.16310169249E+03  0.00000000000E+00 0.  1.
         21    1    1    2  504  502  0.49909728099E+02 -0.80687269886E+00  0.17814092642E+03  0.18500222071E+03  0.00000000000E+00 0.  1.
         21    1    1    2  505  503 -0.29666168649E+02  0.45855547950E+02  0.49158102910E+03  0.49460562169E+03  0.00000000000E+00 0.  1.
         -3    1    1    2    0  504 -0.75936310179E+01 -0.11028715238E+03 -0.11564911061E+03  0.15998636191E+03  0.00000000000E+00 0.  1.
<scales pt_clust_3="104.80574" pt_clust_4="49.91625" pt_clust_5="45.80017" pt_clust_6="14000.00000"></scales>
<clustering>
<clus scale="   49.916">  1  4  2 -1</clus>
<clus scale="   45.800">  1  5  2 -1</clus>
<clus scale="  104.806">  1  3  2 -1</clus>
<clus scale="   49.916">  1  3  2 -1</clus>
</clustering>
</event>
<event>
 6    0  0.3522959E+002  0.1364102E+03  0.7546771E-02  0.1218243E+00
         21   -1    0    0  505  502  0.00000000000E+00  0.00000000000E+00  0.37482079893E+03  0.37482079893E+03  0.00000000000E+00 0. -1.
          2   -1    0    0  504    0 -0.00000000000E+00 -0.00000000000E+00 -0.75067635222E+03  0.75067635222E+03  0.00000000000E+00 0. -1.
         21    1    1    2  503  502  0.31755370416E+02 -0.91327867342E+02  0.26292893177E+03  0.28014425938E+03  0.00000000000E+00 0. -1.
         21    1    1    2  504  503 -0.63946121556E+02  0.17198956986E+03 -0.31594999304E+03  0.36536819334E+03  0.00000000000E+00 0. -1.
         21    1    1    2  505  501 -0.11818980284E+02  0.30281637796E+02  0.65823908311E+02  0.73412892518E+02  0.00000000000E+00 0. -1.
          2    1    1    2  501    0  0.44009731424E+02 -0.11094334031E+03 -0.38865840033E+03  0.40657180592E+03  0.00000000000E+00 0. -1.
<scales pt_clust_3="67.79942" pt_clust_4="136.41024" pt_clust_5="32.50640" pt_clust_6="14000.00000"></scales>
<clustering>
<clus scale="   32.506">  1  5  2 -1</clus>
<clus scale="   67.799">  1  3  2 -1</clus>
<clus scale="  136.410">  1  4  2 -1</clus>
<clus scale="   32.506">  1  3  2 -1</clus>
</clustering>
</event>
<event>
 6    0  0.3522959E+002  0.2372794E+03  0.7546771E-02  0.1121619E+00
         -3   -1    0    0    0  501 -0.00000000000E+00  0.00000000000E+00  0.20364515919E+03  0.20364515919E+03  0.00000000000E+00 0. -1.
         21   -1    0    0  505  502  0.00000000000E+00 -0.00000000000E+00 -0.87751642389E+03  0.87751642389E+03  0.00000000000E+00 0. -1.
         21    1    1    2  503  502  0.74450402609E+02  0.25045636408E+02 -0.13129031159E+03  0.15299441908E+03  0.00000000000E+00 0. -1.
         21    1    1    2  504  503  0.86495968002E+02  0.61954032603E+02 -0.98071612096E+02  0.14469932873E+03  0.00000000000E+00 0. -1.
         21    1    1    2  505  501 -0.28209839911E+03 -0.55933334989E+02 -0.54947539792E+03  0.62018647007E+03  0.00000000000E+00 0. -1.
         -3    1    1    2    0  504  0.12115202850E+03 -0.31066334021E+02  0.10496605690E+03  0.16328136520E+03  0.00000000000E+00 0. -1.
<scales pt_clust_3="43.32128" pt_clust_4="43.32128" pt_clust_5="231.86100" pt_clust_6="125.07170"></scales>
<clustering>
<clus scale="   43.321">  3  4 -1 -1</clus>
<clus scale="  125.072">  1  6  2 -1</clus>
<clus scale="  231.861">  1  5  2 -1</clus>
<clus scale="  237.279">  2  3  1 -1</clus>
</clustering>
</event>
<event>
 6    0  0.3522959E+002  0.1100787E+03  0.7546771E-02  0.1260424E+00
          1   -1    0    0  504    0 -0.00000000000E+00  0.00000000000E+00  0.17833781373E+04  0.17833781373E+04  0.00000000000E+00 0.  1.
         21   -1    0    0  505  502  0.00000000000E+00 -0.00000000000E+00 -0.15753388745E+03  0.15753388745E+03  0.00000000000E+00 0. -1.
         21    1    1    2  503  502  0.27456541544E+02 -0.16468347582E+02  0.14447902113E+02  0.35125631968E+02  0.00000000000E+00 0. -1.
         21    1    1    2  504  503  0.59420689967E+02  0.82712072712E+02  0.10751308806E+04  0.10799437558E+04  0.00000000000E+00 0.  1.
         21    1    1    2  505  501 -0.17054974705E+02  0.46334237289E+02 -0.13389835009E+03  0.14271125346E+03  0.00000000000E+00 0. -1.
          1    1    1    2  501    0 -0.69822256806E+02 -0.11257796242E+03  0.67016381724E+03  0.68313138349E+03  0.00000000000E+00 0.  1.
<scales pt_clust_3="32.01669" pt_clust_4="110.07866" pt_clust_5="32.07518" pt_clust_6="14000.00000"></scales>
<clustering>
<clus scale="   32.017">  2  3  1 -1</clus>
<clus scale="   32.075">  2  5  1 -1</clus>
<clus scale="  110.079">  1  4  2 -1</clus>
<clus scale="   32.017">  2  3  1 -1</clus>
</clustering>
</event>
<event>
 6    0  0.3522959E+002  0.1047018E+03  0.7546771E-02  0.1270708E+00
          1   -1    0    0  504    0 -0.00000000000E+00  0.00000000000E+00  0.21758423311E+04  0.21758423311E+04  0.00000000000E+00 0.  1.
         21   -1    0    0  503  502  0.00000000000E+00 -0.00000000000E+00 -0.25598831186E+03  0.25598831186E+03  0.00000000000E+00 0.  1.
         21    1    1    2  503  501 -0.31299815262E+01  0.10131213575E+03  0.95237362670E+02  0.13908307188E+03  0.00000000000E+00 0.  1.
         21    1    1    2  504  505  0.10339412373E+02 -0.71324123238E+02 -0.11631089745E+03  0.13682930560E+03  0.00000000000E+00 0.  1.
         21    1    1    2  505  502 -0.54290206807E+02 -0.38701396719E+02 -0.96848846961E+02  0.11757943622E+03  0.00000000000E+00 0. -1.
          1    1    1    2  501    0  0.47080775961E+02  0.87133842031E+01  0.20377764009E+04  0.20383388292E+04  0.00000000000E+00 0.  1.
<scales pt_clust_3="14000.00000" pt_clust_4="104.70179" pt_clust_5="63.42627" pt_clust_6="47.88029"></scales>
<clustering>
<clus scale="   47.880">  1  6  2 -1</clus>
<clus scale="   63.426">  2  5  1 -1</clus>
<clus scale="  104.702">  2  4  1 -1</clus>
<clus scale="   63.426">  2  3  1 -1</clus>
</clustering>
</event>
<event>
 6    0  0.3522959E+002  0.1419399E+03  0.7546771E-02  0.1210742E+00
          1   -1    0    0  504    0 -0.00000000000E+00  0.00000000000E+00  0.50050974111E+03  0.50050974111E+03  0.00000000000E+00 0. -1.
         21   -1    0    0  501  502  0.00000000000E+00 -0.00000000000E+00 -0.11272567790E+03  0.11272567790E+03  0.00000000000E+00 0. -1.
         21    1    1    2  503  502 -0.29531191801E+02 -0.80914101323E+02  0.53929315342E+01  0.86303341724E+02  0.00000000000E+00 0. -1.
         21    1    1    2  504  505  0.13361734650E+03 -0.44890691362E+02  0.16446116268E+03  0.21660157776E+03  0.00000000000E+00 0. -1.
         21    1    1    2  505  503 -0.83075177380E+02  0.14949471714E+03  0.12411727138E+03  0.21131789466E+03  0.00000000000E+00 0. -1.
          1    1    1    2  501    0 -0.21010977320E+02 -0.23689924454E+02  0.93812697615E+02  0.99012604866E+02  0.00000000000E+00 0. -1.
<scales pt_clust_3="89.48660" pt_clust_4="141.93989" pt_clust_5="14000.00000" pt_clust_6="31.66502"></scales>
<clustering>
<clus scale="   31.665">  1  6  2 -1</clus>
<clus scale="   89.487">  2  3  1 -1</clus>
<clus scale="  141.940">  1  4  2 -1</clus>
<clus scale="   89.487">  2  3  1 -1</clus>
</clustering>
</event>
<event>
 6    0  0.3522959E+002  0.1366453E+03  0.7546771E-02  0.1217916E+00
         -1   -1    0    0    0  501 -0.00000000000E+00  0.00000000000E+00  0.18399428950E+03  0.18399428950E+03  0.00000000000E+00 0. -1.
         21   -1    0    0  505  502  0.00000000000E+00 -0.00000000000E+00 -0.65451053578E+03  0.65451053578E+03  0.00000000000E+00 0. -1.
         21    1    1    2  503  502  0.89153482155E+02 -0.22587483323E+02 -0.44953874438E+03  0.45885032471E+03  0.00000000000E+00 0. -1.
         21    1    1    2  504  503  0.30789235971E+02 -0.33301463605E+02 -0.15248719302E+03  0.15908899574E+03  0.00000000000E+00 0.  1.
         21    1    1    2  505  501 -0.33078623490E+02  0.56154256979E+02  0.27321319467E+01  0.65230057901E+02  0.00000000000E+00 0. -1.
         -1    1    1    2    0  504 -0.86864094636E+02 -0.26531005090E+00  0.12877755918E+03  0.15533544693E+03  0.00000000000E+00 0. -1.
<scales pt_clust_3="30.64150" pt_clust_4="30.64150" pt_clust_5="65.17282" pt_clust_6="129.49124"></scales>
<clustering>
<clus scale="   30.641">  3  4 -1 -1</clus>
<clus scale="   65.173">  1  5  2 -1</clus>
<clus scale="  129.491">  1  6  2 -1</clus>
<clus scale="  136.645">  2  3  1 -1</clus>
</clustering>
</event>
<event>
 6    0  0.3522959E+002  0.1261731E+03  0.7546771E-02  0.1233247E+00
         21   -1    0    0  503  502  0.00000000000E+00  0.00000000000E+00  0.43773129161E+03  0.43773129161E+03  0.00000000000E+00 0. -1.
          1   -1    0    0  505    0 -0.00000000000E+00 -0.00000000000E+00 -0.11621640676E+03  0.11621640676E+03  0.00000000000E+00 0.  1.
         21    1    1    2  503  504 -0.34054831421E+02 -0.27765306331E+02  0.14573586935E+03  0.15221559510E+03  0.00000000000E+00 0. -1.
         21    1    1    2  504  501 -0.12150150605E+02 -0.49513084979E+02  0.10364093755E+03  0.11550158302E+03  0.00000000000E+00 0. -1.
         21    1    1    2  505  502 -0.67441990333E+02  0.19495690182E+02  0.12881819319E+03  0.14670593339E+03  0.00000000000E+00 0. -1.
          1    1    1    2  501    0  0.11364697236E+03  0.57782701129E+02 -0.56680115230E+02  0.13952458686E+03  0.00000000000E+00 0.  1.
<scales pt_clust_3="34.44763" pt_clust_4="34.44763" pt_clust_5="70.20330" pt_clust_6="120.59350"></scales>
<clustering>
<clus scale="   34.448">  3  4 -1 -1</clus>
<clus scale="   70.203">  1  5  2 -1</clus>
<clus scale="  120.594">  2  6  1 -1</clus>
<clus scale="   70.203">  1  3  2 -1</clus>
</clustering>
</event>
<event>
 6    0  0.3522959E+002  0.1231035E+03  0.7546771E-02  0.1238063E+00
          2   -1    0    0  505    0 -0.00000000000E+00  0.00000000000E+00  0.54433044067E+03  0.54433044067E+03  0.00000000000E+00 0. -1.
         21   -1    0    0  504  502  0.00000000000E+00 -0.00000000000E+00 -0.83826909824E+02  0.83826909824E+02  0.00000000000E+00 0.  1.
         21    1    1    2  503  502  0.11477224383E+02  0.46907047665E+02  0.91787873095E+02  0.10371601346E+03  0.00000000000E+00 0. -1.
         21    1    1    2  504  501 -0.87101272155E+02 -0.86058892057E+02 -0.17965335651E+02  0.12375587985E+03  0.00000000000E+00 0.  1.
         21    1    1    2  505  503  0.22350989850E+02  0.45937406135E+02  0.20143181371E+03  0.20780901713E+03  0.00000000000E+00 0. -1.
          2    1    1    2  501    0  0.53273057922E+02 -0.67855617433E+01  0.18524917969E+03  0.19287644005E+03  0.00000000000E+00 0. -1.
<scales pt_clust_3="35.13080" pt_clust_4="117.68117" pt_clust_5="35.13080" pt_clust_6="53.70347"></scales>
<clustering>
<clus scale="   35.131">  3  5 -1 -1</clus>
<clus scale="   53.703">  1  6  2 -1</clus>
<clus scale="  117.681">  2  4  1 -1</clus>
<clus scale="  117.681">  2  3  1 -1</clus>
</clustering>
</event>
<event>
 6    0  0.3522959E+002  0.1534341E+03  0.7546771E-02  0.1196316E+00
          2   -1    0    0  503    0 -0.00000000000E+00  0.00000000000E+00  0.81051471756E+03  0.81051471756E+03  0.00000000000E+00 0.  1.
         21   -1    0    0  504  502  0.00000000000E+00 -0.00000000000E+00 -0.10249192907E+03  0.10249192907E+03  0.00000000000E+00 0.  1.
         21    1    1    2  503  505 -0.51695733281E+02  0.79796531592E+01  0.35153823396E+02  0.63023130701E+02  0.00000000000E+00 0. -1.
         21    1    1    2  504  501  0.34896973640E+02 -0.14171255842E+03  0.73351448656E+02  0.16334222664E+03  0.00000000000E+00 0.  1.
         21    1    1    2  505  502 -0.47367224461E+02  0.87078066503E+02  0.19254585470E+02  0.10098011032E+03  0.00000000000E+00 0.  1.
          2    1    1    2  501    0  0.64165984102E+02  0.46654838757E+02  0.58026293097E+03  0.58566117897E+03  0.00000000000E+00 0.  1.
<scales pt_clust_3="51.81229" pt_clust_4="135.84797" pt_clust_5="51.81229" pt_clust_6="79.33440"></scales>
<clustering>
<clus scale="   51.812">  3  5 -1 -1</clus>
<clus scale="   79.334">  1  6  2 -1</clus>
<clus scale="  135.848">  1  4  2 -1</clus>
<clus scale="  153.434">  2  3  1 -1</clus>
</clustering>
</event>
<event>
 6    0  0.3522959E+002  0.6216794E+02  0.7546771E-02  0.1388953E+00
         21   -1    0    0  505  502  0.00000000000E+00  0.00000000000E+00  0.57754051782E+03  0.57754051782E+03  0.00000000000E+00 0. -1.
         -1   -1    0    0    0  501 -0.00000000000E+00 -0.00000000000E+00 -0.16503614514E+03  0.16503614514E+03  0.00000000000E+00 0. -1.
         21    1    1    2  503  501  0.82892789958E+02 -0.19025143373E+02 -0.60728941568E+02  0.10450442599E+03  0.00000000000E+00 0. -1.
         21    1    1    2  504  502 -0.42477116201E+02 -0.70716024182E+02  0.25500689895E+03  0.26801787251E+03  0.00000000000E+00 0. -1.
         21    1    1    2  505  503 -0.78930084030E+01  0.57587455379E+02  0.28403124342E+03  0.28991785360E+03  0.00000000000E+00 0. -1.
         -1    1    1    2    0  504 -0.32522665353E+02  0.32153712176E+02 -0.65804828122E+02  0.80136510858E+02  0.00000000000E+00 0. -1.
<scales pt_clust_3="54.59988" pt_clust_4="14000.00000" pt_clust_5="62.16794" pt_clust_6="45.73385"></scales>
<clustering>
<clus scale="   45.734">  2  6  1 -1</clus>
<clus scale="   54.600">  2  3  1 -1</clus>
<clus scale="   62.168">  1  5  2 -1</clus>
<clus scale="   62.168">  1  3  2 -1</clus>
</clustering>
</event>
<event>
 6    0  0.3522959E+002  0.1040320E+03  0.7546771E-02  0.1272039E+00
         21   -1    0    0  503  502  0.00000000000E+00  0.00000000000E+00  0.68407973683E+02  0.68407973683E+02  0.00000000000E+00 0. -1.
          2   -1    0    0  505    0 -0.00000000000E+00 -0.00000000000E+00 -0.16889347998E+04  0.16889347998E+04  0.00000000000E+00 0.  1.
         21    1    1    2  503  501  0.40355205764E+02 -0.49145953618E+02 -0.74638623807E+02  0.98055043486E+02  0.00000000000E+00 0. -1.
         21    1    1    2  504  502  0.73937324658E+02  0.39005655857E+02  0.41662513193E+01  0.83699025182E+02  0.00000000000E+00 0. -1.
         21    1    1    2  505  504 -0.99485814495E+02  0.95269863167E+02 -0.41526607349E+03  0.43751535505E+03  0.00000000000E+00 0. -1.
          2    1    1    2  501    0 -0.14806715928E+02 -0.85129565406E+02 -0.11347883801E+04  0.11380733498E+04  0.00000000000E+00 0.  1.
<scales pt_clust_3="63.59141" pt_clust_4="104.03197" pt_clust_5="14000.00000" pt_clust_6="87.62105"></scales>
<clustering>
<clus scale="   63.591">  1  3  2 -1</clus>
<clus scale="   87.621">  2  6  1 -1</clus>
<clus scale="  104.032">  1  4  2 -1</clus>
<clus scale="   63.591">  1  3  2 -1</clus>
</clustering>
</event>
<event>
 6    0  0.3522959E+002  0.1031178E+03  0.7546771E-02  0.1273873E+00
         -4   -1    0    0    0  501 -0.00000000000E+00  0.00000000000E+00  0.22442442783E+03  0.22442442783E+03  0.00000000000E+00 0. -1.
         21   -1    0    0  505  502  0.00000000000E+00 -0.00000000000E+00 -0.58660811574E+03  0.58660811574E+03  0.00000000000E+00 0.  1.
         21    1    1    2  503  502  0.20592083679E+02 -0.88821306191E+02 -0.13902530251E+03  0.16625670838E+03  0.00000000000E+00 0. -1.
         21    1    1    2  504  501  0.35679259695E+02  0.17930687266E+02 -0.83714829216E+02  0.92750696757E+02  0.00000000000E+00 0. -1.
         21    1    1    2  505  504 -0.35947342163E+02  0.10523667989E+03 -0.33472111715E+03  0.35271120831E+03  0.00000000000E+00 0.  1.
         -4    1    1    2    0  503 -0.20324001212E+02 -0.34346060968E+02  0.19527756095E+03  0.19931393012E+03  0.00000000000E+00 0. -1.
<scales pt_clust_3="14000.00000" pt_clust_4="34.52596" pt_clust_5="103.11779" pt_clust_6="39.90886"></scales>
<clustering>
<clus scale="   39.909">  1  6  2 -1</clus>
<clus scale="   34.526">  1  4  2 -1</clus>
<clus scale="  103.118">  2  5  1 -1</clus>
<clus scale="  103.118">  2  3  1 -1</clus>
</clustering>
</event>
<event>
 6    0  0.3522959E+002  0.1750410E+03  0.7546771E-02  0.1172691E+00
         21   -1    0    0  505  502  0.00000000000E+00  0.00000000000E+00  0.16538092907E+03  0.16538092907E+03  0.00000000000E+00 0.  1.
          2   -1    0    0  503    0 -0.00000000000E+00 -0.00000000000E+00 -0.13031476882E+04  0.13031476882E+04  0.00000000000E+00 0. -1.
         21    1    1    2  503  504  0.28868587009E+02  0.40552291541E+02 -0.64051796749E+02  0.81120381729E+02  0.00000000000E+00 0. -1.
         21    1    1    2  504  502  0.72090806761E+02  0.59621599020E+02 -0.27525058531E+02  0.97516400345E+02  0.00000000000E+00 0. -1.
         21    1    1    2  505  501 -0.19670267476E+03 -0.32369432245E+01  0.35284674466E+02  0.19986852756E+03  0.00000000000E+00 0.  1.
          2    1    1    2  501    0  0.95743280989E+02 -0.96936947336E+02 -0.10814745784E+04  0.10900233077E+04  0.00000000000E+00 0. -1.
<scales pt_clust_3="41.88576" pt_clust_4="41.88576" pt_clust_5="165.35468" pt_clust_6="136.24811"></scales>
<clustering>
<clus scale="   41.886">  3  4 -1 -1</clus>
<clus scale="  136.248">  2  6  1 -1</clus>
<clus scale="  165.355">  1  5  2 -1</clus>
<clus scale="  165.355">  1  3  2 -1</clus>
</clustering>
</event>
<event>
 6    0  0.3522959E+002  0.1081585E+03  0.7546771E-02  0.1264019E+00
          1   -1    0    0  504    0 -0.00000000000E+00  0.00000000000E+00  0.69395611098E+03  0.69395611098E+03  0.00000000000E+00 0.  1.
         21   -1    0    0  505  502  0.00000000000E+00 -0.00000000000E+00 -0.17064805885E+03  0.17064805885E+03  0.00000000000E+00 0. -1.
         21    1    1    2  503  501  0.47651966589E+02  0.34475095464E+02  0.24747990828E+03  0.25437285062E+03  0.00000000000E+00 0.  1.
         21    1    1    2  504  502 -0.11962107746E+03 -0.26000420106E+02 -0.12672963671E+03  0.17619768682E+03  0.00000000000E+00 0. -1.
         21    1    1    2  505  503  0.33984096558E+02 -0.24209093295E+02  0.15058750123E+02  0.44359496979E+02  0.00000000000E+00 0. -1.
          1    1    1    2  501    0  0.37985014310E+02  0.15734417938E+02  0.38749903044E+03  0.38967413541E+03  0.00000000000E+00 0.  1.
<scales pt_clust_3="34.91204" pt_clust_4="99.77311" pt_clust_5="41.72528" pt_clust_6="34.91204"></scales>
<clustering>
<clus scale="   34.912">  3  6 -1 -1</clus>
<clus scale="   41.725">  2  5  1 -1</clus>
<clus scale="   99.773">  2  4  1 -1</clus>
<clus scale="   41.725">  2  3  1 -1</clus>
</clustering>
</event>
<event>
 6    0  0.3522959E+002  0.1343263E+03  0.7546771E-02  0.1221174E+00
         21   -1    0    0  504  502  0.00000000000E+00  0.00000000000E+00  0.12889816017E+04  0.12889816017E+04  0.00000000000E+00 0. -1.
          1   -1    0    0  503    0 -0.00000000000E+00 -0.00000000000E+00 -0.38999982489E+02  0.38999982489E+02  0.00000000000E+00 0. -1.
         21    1    1    2  503  502 -0.14437897286E+03  0.99122933834E+01  0.23539156477E+03  0.27631997780E+03  0.00000000000E+00 0. -1.
         21    1    1    2  504  505 -0.69174268345E+01  0.32537966159E+02  0.23018667024E+03  0.23257788629E+03  0.00000000000E+00 0.  1.
         21    1    1    2  505  501  0.27446135425E+02 -0.63574373567E+02  0.53859148331E+03  0.54302465618E+03  0.00000000000E+00 0. -1.
          1    1    1    2  501    0  0.12385026427E+03  0.21124114025E+02  0.24581190091E+03  0.27605906394E+03  0.00000000000E+00 0. -1.
<scales pt_clust_3="14000.00000" pt_clust_4="33.26515" pt_clust_5="52.67463" pt_clust_6="134.32625"></scales>
<clustering>
<clus scale="   33.265">  1  4  2 -1</clus>
<clus scale="   52.675">  1  5  2 -1</clus>
<clus scale="  134.326">  1  6  2 -1</clus>
<clus scale="   33.265">  1  3  2 -1</clus>
</clustering>
</event>
<event>
 6    0  0.3522959E+002  0.1109297E+03  0.7546771E-02  0.1258858E+00
         21   -1    0    0  503  502  0.00000000000E+00  0.00000000000E+00  0.14901156521E+03  0.14901156521E+03  0.00000000000E+00 0. -1.
          2   -1    0    0  505    0 -0.00000000000E+00 -0.00000000000E+00 -0.10570960104E+04  0.10570960104E+04  0.00000000000E+00 0.  1.
         21    1    1    2  503  504  0.50664538076E+02 -0.17811952640E+02  0.88680617683E+02  0.10367455343E+03  0.00000000000E+00 0. -1.
         21    1    1    2  504  501  0.35579140466E+02 -0.36830885091E+02  0.30883421242E+02  0.59801129090E+02  0.00000000000E+00 0. -1.
         21    1    1    2  505  502  0.91688614589E+01  0.59822896273E+02 -0.18651742761E+03  0.19609078954E+03  0.00000000000E+00 0. -1.
          2    1    1    2  501    0 -0.95412540001E+02 -0.51800585427E+01 -0.84113105647E+03  0.84654110353E+03  0.00000000000E+00 0.  1.
<scales pt_clust_3="43.72389" pt_clust_4="43.72389" pt_clust_5="60.52146" pt_clust_6="101.49128"></scales>
<clustering>
<clus scale="   43.724">  3  4 -1 -1</clus>
<clus scale="   60.521">  2  5  1 -1</clus>
<clus scale="  101.491">  2  6  1 -1</clus>
<clus scale="  110.930">  1  3  2 -1</clus>
</clustering>
</event>
<event>
 6    0  0.3522959E+002  0.9534573E+02  0.7546771E-02  0.1290399E+00
          2   -1    0    0  504    0 -0.00000000000E+00  0.00000000000E+00  0.12685621960E+04  0.12685621960E+04  0.00000000000E+00 0.  1.
         21   -1    0    0  503  502  0.00000000000E+00 -0.00000000000E+00 -0.11186497664E+04  0.11186497664E+04  0.00000000000E+00 0.  1.
         21    1    1    2  503  501 -0.46665413442E+02 -0.26243917014E+02 -0.20352141515E+02  0.57276641454E+02  0.00000000000E+00 0.  1.
         21    1    1    2  504  505  0.11670884853E+03  0.94828695121E+02  0.14863925307E+03  0.21144045095E+03  0.00000000000E+00 0.  1.
         21    1    1    2  505  502 -0.38904173439E+02 -0.38660713931E+02 -0.10472811339E+04  0.10487163386E+04  0.00000000000E+00 0.  1.
          2    1    1    2  501    0 -0.31139261648E+02 -0.29924064175E+02  0.10689064519E+04  0.10697785314E+04  0.00000000000E+00 0.  1.
<scales pt_clust_3="14000.00000" pt_clust_4="95.34573" pt_clust_5="55.00247" pt_clust_6="43.18684"></scales>
<clustering>
<clus scale="   43.187">  1  6  2 -1</clus>
<clus scale="   55.002">  2  5  1 -1</clus>
<clus scale="   95.346">  1  4  2 -1</clus>
<clus scale="   55.002">  2  3  1 -1</clus>
</clustering>
</event>
<event>
 6    0  0.3522959E+002  0.1290341E+03  0.7546771E-02  0.1228896E+00
         21   -1    0    0  503  502  0.00000000000E+00  0.00000000000E+00  0.32936832716E+03  0.32936832716E+03  0.00000000000E+00 0. -1.
         -3   -1    0    0    0  501 -0.00000000000E+00 -0.00000000000E+00 -0.43476030314E+03  0.43476030314E+03  0.00000000000E+00 0. -1.
         21    1    1    2  503  501  0.31588944304E+02 -0.12030020144E+02  0.12879303943E+02  0.36172631325E+02  0.00000000000E+00 0.  1.
         21    1    1    2  504  505 -0.64733721437E+02 -0.73104806659E+02  0.52008265226E+02  0.11063284819E+03  0.00000000000E+00 0. -1.
         21    1    1    2  505  502 -0.67651607329E+02 -0.25108339731E+01  0.20663407935E+03  0.21744122657E+03  0.00000000000E+00 0. -1.
         -3    1    1    2    0  504  0.10079638446E+03  0.87645660776E+02 -0.37691362450E+03  0.39988192421E+03  0.00000000000E+00 0. -1.
<scales pt_clust_3="33.80211" pt_clust_4="129.03406" pt_clust_5="46.95693" pt_clust_6="14000.00000"></scales>
<clustering>
<clus scale="   33.802">  1  3  2 -1</clus>
<clus scale="   46.957">  1  5  2 -1</clus>
<clus scale="  129.034">  1  4  2 -1</clus>
<clus scale="   33.802">  1  3  2 -1</clus>
</clustering>
</event>
<event>
 6    0  0.3522959E+002  0.9412787E+02  0.7546771E-02  0.1293153E+00
          3   -1    0    0  504    0 -0.00000000000E+00  0.00000000000E+00  0.19347742723E+04  0.19347742723E+04  0.00000000000E+00 0. -1.
         21   -1    0    0  503  502  0.00000000000E+00 -0.00000000000E+00 -0.22619574592E+02  0.22619574592E+02  0.00000000000E+00 0. -1.
         21    1    1    2  503  501 -0.25967365287E+02  0.46009929971E+02  0.18303303646E+03  0.19050540715E+03  0.00000000000E+00 0.  1.
         21    1    1    2  504  505 -0.80288906243E+02 -0.82013939773E+02  0.26044146512E+03  0.28460912062E+03  0.00000000000E+00 0. -1.
         21    1    1    2  505  502  0.59605514356E+02 -0.42790693841E+02  0.26057092740E+03  0.27070476359E+03  0.00000000000E+00 0. -1.
          3    1    1    2  501    0  0.46650757174E+02  0.78794703643E+02  0.12081092687E+04  0.12115745555E+04  0.00000000000E+00 0. -1.
<scales pt_clust_3="52.83198" pt_clust_4="14000.00000" pt_clust_5="60.80817" pt_clust_6="94.12787"></scales>
<clustering>
<clus scale="   52.832">  2  3  1 -1</clus>
<clus scale="   60.808">  2  5  1 -1</clus>
<clus scale="   94.128">  1  6  2 -1</clus>
<clus scale="   52.832">  2  3  1 -1</clus>
</clustering>
</event>
<event>
 6    0  0.3522959E+002  0.7182820E+02  0.7546771E-02  0.1353984E+00
         21   -1    0    0  505  502  0.00000000000E+00  0.00000000000E+00  0.15019676457E+03  0.15019676457E+03  0.00000000000E+00 0.  1.
          1   -1    0    0  503    0 -0.00000000000E+00 -0.00000000000E+00 -0.71844436679E+03  0.71844436679E+03  0.00000000000E+00 0. -1.
         21    1    1    2  503  502 -0.11080366570E+02  0.10092986848E+03 -0.24996151954E+03  0.26979691274E+03  0.00000000000E+00 0. -1.
         21    1    1    2  504  501 -0.56511119907E+02 -0.38126548986E+02  0.88201599507E+02  0.11147494143E+03  0.00000000000E+00 0.  1.
         21    1    1    2  505  504  0.36462446615E+02 -0.30228059845E+02  0.24985938029E+02  0.53549441774E+02  0.00000000000E+00 0.  1.
          1    1    1    2  501    0  0.31129039862E+02 -0.32575259646E+02 -0.43147362021E+03  0.43381983541E+03  0.00000000000E+00 0. -1.
<scales pt_clust_3="71.82820" pt_clust_4="14000.00000" pt_clust_5="49.60007" pt_clust_6="45.05735"></scales>
<clustering>
<clus scale="   45.057">  2  6  1 -1</clus>
<clus scale="   49.600">  1  5  2 -1</clus>
<clus scale="   71.828">  2  3  1 -1</clus>
<clus scale="   49.600">  1  3  2 -1</clus>
</clustering>
</event>
<event>
 6    0  0.3522959E+002  0.1137225E+03  0.7546771E-02  0.1253828E+00
          2   -1    0    0  505    0 -0.00000000000E+00  0.00000000000E+00  0.24681535142E+04  0.24681535142E+04  0.00000000000E+00 0.  1.
         21   -1    0    0  504  502  0.00000000000E+00 -0.00000000000E+00 -0.21982346129E+02  0.21982346129E+02  0.00000000000E+00 0.  1.
         21    1    1    2  503  501  0.97645241210E+01  0.50729087713E+02  0.48698882322E+03  0.48972124746E+03  0.00000000000E+00 0. -1.
         21    1    1    2  504  503 -0.93112701648E+02 -0.52167965082E+02  0.16272170061E+03  0.19460170512E+03  0.00000000000E+00 0.  1.
         21    1    1    2  505  502  0.82585829376E+02 -0.51698749775E+02  0.57498316568E+03  0.58317992143E+03  0.00000000000E+00 0.  1.
          2    1    1    2  501    0  0.76234815065E+00  0.53137627144E+02  0.12214774786E+04  0.12226329863E+04  0.00000000000E+00 0.  1.
<scales pt_clust_3="48.30963" pt_clust_4="102.62548" pt_clust_5="97.43295" pt_clust_6="48.30963"></scales>
<clustering>
<clus scale="   48.310">  3  6 -1 -1</clus>
<clus scale="   97.433">  1  5  2 -1</clus>
<clus scale="  102.625">  2  4  1 -1</clus>
<clus scale="  102.625">  2  3  1 -1</clus>
</clustering>
</event>
<event>
 6    0  0.3522959E+002  0.1717792E+03  0.7546771E-02  0.1176005E+00
         21   -1    0    0  503  502  0.00000000000E+00  0.00000000000E+00  0.39678847881E+03  0.39678847881E+03  0.00000000000E+00 0. -1.
          1   -1    0    0  505    0 -0.00000000000E+00 -0.00000000000E+00 -0.12447994670E+04  0.12447994670E+04  0.00000000000E+00 0.  1.
         21    1    1    2  503  501  0.56359551571E+01  0.10775774173E+03 -0.31826757722E+02  0.11250083289E+03  0.00000000000E+00 0.  1.
         21    1    1    2  504  502 -0.73784948112E+02 -0.18482292491E+03  0.31711450324E+03  0.37438661876E+03  0.00000000000E+00 0. -1.
         21    1    1    2  505  504  0.45366713281E+02  0.19974170399E+02 -0.52678713968E+02  0.72333623318E+02  0.00000000000E+00 0.  1.
          1    1    1    2  501    0  0.22782279674E+02  0.57091012782E+02 -0.10806200198E+04  0.10823668709E+04  0.00000000000E+00 0.  1.
<scales pt_clust_3="14000.00000" pt_clust_4="171.77921" pt_clust_5="49.56921" pt_clust_6="99.05316"></scales>
<clustering>
<clus scale="   49.569">  2  5  1 -1</clus>
<clus scale="   99.053">  2  6  1 -1</clus>
<clus scale="  171.779">  1  4  2 -1</clus>
<clus scale="  171.779">  1  3  2 -1</clus>
</clustering>
</event>
<event>
 6    0  0.3522959E+002  0.7967339E+02  0.7546771E-02  0.1329981E+00
         21   -1    0    0  504  502  0.00000000000E+00  0.00000000000E+00  0.79259744690E+02  0.79259744690E+02  0.00000000000E+00 0.  1.
          2   -1    0    0  503    0 -0.00000000000E+00 -0.00000000000E+00 -0.14358726373E+04  0.14358726373E+04  0.00000000000E+00 0. -1.
         21    1    1    2  503  502  0.67064187220E+02 -0.99748705720E+02  0.55141299391E+01  0.12032379286E+03  0.00000000000E+00 0.  1.
         21    1    1    2  504  505 -0.14399178056E+01  0.43547063303E+02 -0.31290408771E+02  0.53642425063E+02  0.00000000000E+00 0.  1.
         21    1    1    2  505  501 -0.18611691119E+02  0.55193872561E+02 -0.17631263211E+03  0.18568495592E+03  0.00000000000E+00 0. -1.
          2    1    1    2  501    0 -0.47012578295E+02  0.10077698553E+01 -0.11545239817E+04  0.11554812081E+04  0.00000000000E+00 0. -1.
<scales pt_clust_3="79.67339" pt_clust_4="43.57086" pt_clust_5="14000.00000" pt_clust_6="47.04105"></scales>
<clustering>
<clus scale="   43.571">  1  4  2 -1</clus>
<clus scale="   47.041">  2  6  1 -1</clus>
<clus scale="   79.673">  1  3  2 -1</clus>
<clus scale="   43.571">  1  3  2 -1</clus>
</clustering>
</event>
<event>
 6    0  0.3522959E+002  0.9742811E+02  0.7546771E-02  0.1285799E+00
          2   -1    0    0  504    0 -0.00000000000E+00  0.00000000000E+00  0.70122773965E+03  0.70122773965E+03  0.00000000000E+00 0. -1.
         21   -1    0    0  503  502  0.00000000000E+00 -0.00000000000E+00 -0.48204000189E+03  0.48204000189E+03  0.00000000000E+00 0.  1.
         21    1    1    2  503  505  0.13500341619E+03  0.26664166911E+02 -0.41932125661E+03  0.44132438911E+03  0.00000000000E+00 0.  1.
         21    1    1    2  504  502 -0.37835705969E+02  0.11765951705E+02 -0.20943855905E+02  0.44817668010E+02  0.00000000000E+00 0.  1.
         21    1    1    2  505  501 -0.68169852552E+02 -0.28293901853E+00  0.47002401834E+02  0.82803590681E+02  0.00000000000E+00 0. -1.
          2    1    1    2  501    0 -0.28997857673E+02 -0.38147179597E+02  0.61245044844E+03  0.61432209374E+03  0.00000000000E+00 0. -1.
<scales pt_clust_3="97.42811" pt_clust_4="39.62295" pt_clust_5="14000.00000" pt_clust_6="47.94571"></scales>
<clustering>
<clus scale="   39.623">  2  4  1 -1</clus>
<clus scale="   47.946">  1  6  2 -1</clus>
<clus scale="   97.428">  2  3  1 -1</clus>
<clus scale="   39.623">  2  3  1 -1</clus>
</clustering>
</event>
<event>
 6    0  0.3522959E+002  0.1287521E+03  0.7546771E-02  0.1229319E+00
         21   -1    0    0  505  502  0.00000000000E+00  0.00000000000E+00  0.90495230920E+03  0.90495230920E+03  0.00000000000E+00 0.  1.
         -3   -1    0    0    0  501 -0.00000000000E+00 -0.00000000000E+00 -0.19027896001E+03  0.19027896001E+03  0.00000000000E+00 0.  1.
         21    1    1    2  503  504 -0.29142903972E+02  0.10298464851E+03  0.45663401386E+03  0.46900934883E+03  0.00000000000E+00 0.  1.
         21    1    1    2  504  502 -0.10486634049E+03 -0.95057291934E+02  0.28389927525E+03  0.31722489909E+03  0.00000000000E+00 0.  1.
         21    1    1    2  505  501  0.18408632365E+02  0.55440512387E+02  0.10695219678E+03  0.12186591219E+03  0.00000000000E+00 0.  1.
         -3    1    1    2    0  503  0.11560061210E+03 -0.63367868966E+02 -0.13281213669E+03  0.18713110909E+03  0.00000000000E+00 0.  1.
<scales pt_clust_3="14000.00000" pt_clust_4="122.68221" pt_clust_5="58.41685" pt_clust_6="128.75205"></scales>
<clustering>
<clus scale="   58.417">  1  5  2 -1</clus>
<clus scale="  122.682">  1  4  2 -1</clus>
<clus scale="  128.752">  2  6  1 -1</clus>
<clus scale="   58.417">  1  3  2 -1</clus>
</clustering>
</event>
<event>
 6    0  0.3522959E+002  0.3148266E+03  0.7546771E-02  0.1078055E+00
          2   -1    0    0  505    0 -0.00000000000E+00  0.00000000000E+00  0.27068549563E+04  0.27068549563E+04  0.00000000000E+00 0. -1.
         21   -1    0    0  504  502  0.00000000000E+00 -0.00000000000E+00 -0.55581469424E+03  0.55581469424E+03  0.00000000000E+00 0.  1.
         21    1    1    2  503  501  0.57870598755E+02 -0.29927715649E+03 -0.15777750663E+02  0.30522902878E+03  0.00000000000E+00 0.  1.
         21    1    1    2  504  503 -0.26258957342E+02  0.31994926627E+02  0.29843240366E+00  0.41391994787E+02  0.00000000000E+00 0. -1.
         21    1    1    2  505  502  0.76692057305E+01  0.30603767518E+03 -0.31188829666E+03  0.43702652659E+03  0.00000000000E+00 0.  1.
          2    1    1    2  501    0 -0.39280847143E+02 -0.38755445316E+02  0.24784078770E+04  0.24790221004E+04  0.00000000000E+00 0. -1.
<scales pt_clust_3="14000.00000" pt_clust_4="41.39092" pt_clust_5="314.82657" pt_clust_6="55.17908"></scales>
<clustering>
<clus scale="   41.391">  2  4  1 -1</clus>
<clus scale="   55.179">  1  6  2 -1</clus>
<clus scale="  314.827">  2  5  1 -1</clus>
<clus scale="   41.391">  2  3  1 -1</clus>
</clustering>
</event>
<event>
 6    0  0.3522959E+002  0.1256935E+03  0.7546771E-02  0.1233989E+00
          2   -1    0    0  503    0 -0.00000000000E+00  0.00000000000E+00  0.22493856409E+04  0.22493856409E+04  0.00000000000E+00 0.  1.
         21   -1    0    0  505  502  0.00000000000E+00 -0.00000000000E+00 -0.16111176436E+03  0.16111176436E+03  0.00000000000E+00 0.  1.
         21    1    1    2  503  504 -0.12364012104E+03  0.53485643569E+02  0.16594624118E+04  0.16649213464E+04  0.00000000000E+00 0.  1.
         21    1    1    2  504  502  0.33295784768E+02  0.45989161584E+00 -0.10982903106E+03  0.11476600911E+03  0.00000000000E+00 0.  1.
         21    1    1    2  505  501  0.95496218310E+02  0.19413944931E+01  0.65202540610E+01  0.95738239159E+02  0.00000000000E+00 0.  1.
          2    1    1    2  501    0 -0.51518820389E+01 -0.55886929678E+02  0.53212024175E+03  0.53507181058E+03  0.00000000000E+00 0.  1.
<scales pt_clust_3="125.69352" pt_clust_4="33.29896" pt_clust_5="14000.00000" pt_clust_6="56.02658"></scales>
<clustering>
<clus scale="   33.299">  2  4  1 -1</clus>
<clus scale="   56.027">  1  6  2 -1</clus>
<clus scale="  125.694">  1  3  2 -1</clus>
<clus scale="   33.299">  2  3  1 -1</clus>
</clustering>
</event>
<event>
 6    0  0.3522959E+002  0.1339373E+03  0.7546771E-02  0.1221728E+00
          2   -1    0    0  505    0 -0.00000000000E+00  0.00000000000E+00  0.14773185466E+04  0.14773185466E+04  0.00000000000E+00 0.  1.
         21   -1    0    0  504  502  0.00000000000E+00 -0.00000000000E+00 -0.18748357456E+03  0.18748357456E+03  0.00000000000E+00 0. -1.
         21    1    1    2  503  502  0.24776005531E+02  0.86996034570E+02 -0.97354029351E+02  0.13289081049E+03  0.00000000000E+00 0. -1.
         21    1    1    2  504  501 -0.21569948507E+02 -0.10199014397E+03  0.28437294859E+03  0.30287823632E+03  0.00000000000E+00 0.  1.
         21    1    1    2  505  503 -0.20354674565E+02  0.40403507237E+02 -0.54771363236E+02  0.71039836743E+02  0.00000000000E+00 0. -1.
          2    1    1    2  501    0  0.17148617542E+02 -0.25409397841E+02  0.11575874160E+04  0.11579932376E+04  0.00000000000E+00 0.  1.
<scales pt_clust_3="33.05109" pt_clust_4="125.47438" pt_clust_5="33.05109" pt_clust_6="30.65473"></scales>
<clustering>
<clus scale="   30.655">  1  6  2 -1</clus>
<clus scale="   33.051">  3  5 -1 -1</clus>
<clus scale="  125.474">  1  4  2 -1</clus>
<clus scale="  133.937">  2  3  1 -1</clus>
</clustering>
</event>
<event>
 6    0  0.3522959E+002  0.1161271E+03  0.7546771E-02  0.1249626E+00
         21   -1    0    0  501  502  0.00000000000E+00  0.00000000000E+00  0.94307847963E+02  0.94307847963E+02  0.00000000000E+00 0. -1.
          1   -1    0    0  505    0 -0.00000000000E+00 -0.00000000000E+00 -0.79649433784E+03  0.79649433784E+03  0.00000000000E+00 0. -1.
         21    1    1    2  503  502 -0.35111394614E+02 -0.28326919296E+02 -0.24376403446E+02  0.51278001458E+02  0.00000000000E+00 0. -1.
         21    1    1    2  504  503 -0.57101428763E+02 -0.56521434209E+02  0.49024738892E+02  0.94120511660E+02  0.00000000000E+00 0. -1.
         21    1    1    2  505  504  0.34513747500E+02  0.17972984329E+02 -0.52713396171E+02  0.65520447710E+02  0.00000000000E+00 0. -1.
          1    1    1    2  501    0  0.57699075877E+02  0.66875369176E+02 -0.67412142915E+03  0.67988322498E+03  0.00000000000E+00 0. -1.
<scales pt_clust_3="43.15833" pt_clust_4="116.12707" pt_clust_5="38.91307" pt_clust_6="14000.00000"></scales>
<clustering>
<clus scale="   38.913">  2  5  1 -1</clus>
<clus scale="   43.158">  1  3  2 -1</clus>
<clus scale="  116.127">  1  4  2 -1</clus>
<clus scale="   43.158">  1  3  2 -1</clus>
</clustering>
</event>
<event>
 6    0  0.3522959E+002  0.1075919E+03  0.7546771E-02  0.1265095E+00
          3   -1    0    0  502    0 -0.00000000000E+00  0.00000000000E+00  0.76179051758E+03  0.76179051758E+03  0.00000000000E+00 0.  1.
         21   -1    0    0  505  502  0.00000000000E+00 -0.00000000000E+00 -0.79857508014E+02  0.79857508014E+02  0.00000000000E+00 0. -1.
         21    1    1    2  503  501  0.57363970321E+02 -0.14765581285E+03  0.19096734175E+03  0.24811567821E+03  0.00000000000E+00 0. -1.
         21    1    1    2  504  503 -0.36694288283E+02  0.36436103215E+02 -0.26076447216E+00  0.51711975482E+02  0.00000000000E+00 0. -1.
         21    1    1    2  505  504 -0.17272085544E+01  0.44425867154E+02 -0.12471958208E+01  0.44476920073E+02  0.00000000000E+00 0. -1.
          3    1    1    2  501    0 -0.18942473483E+02  0.66793842478E+02  0.49247362812E+03  0.49734345184E+03  0.00000000000E+00 0.  1.
<scales pt_clust_3="101.69003" pt_clust_4="32.58748" pt_clust_5="32.58748" pt_clust_6="69.42791"></scales>
<clustering>
<clus scale="   32.587">  4  5 -1 -1</clus>
<clus scale="   69.428">  1  6  2 -1</clus>
<clus scale="  101.690">  1  3  2 -1</clus>
<clus scale="  107.592">  2  3  1 -1</clus>
</clustering>
</event>
<event>
 6    0  0.3522959E+002  0.1016769E+03  0.7546771E-02  0.1276809E+00
          2   -1    0    0  503    0 -0.00000000000E+00  0.00000000000E+00  0.98773820246E+03  0.98773820246E+03  0.00000000000E+00 0.  1.
         21   -1    0    0  505  502  0.00000000000E+00 -0.00000000000E+00 -0.67550999123E+02  0.67550999123E+02  0.00000000000E+00 0.  1.
         21    1    1    2  503  504  0.31193821351E+02 -0.22465349148E+02  0.77431292760E+01  0.39213549365E+02  0.00000000000E+00 0. -1.
         21    1    1    2  504  502  0.10202587342E+02 -0.55010951306E+02 -0.33814164764E+01  0.56051151009E+02  0.00000000000E+00 0.  1.
         21    1    1    2  505  501 -0.11247996856E+03  0.81631833384E+02  0.21772168569E+03  0.25829872622E+03  0.00000000000E+00 0. -1.
          2    1    1    2  501    0  0.71083559864E+02 -0.41555329299E+01  0.69810380485E+03  0.70172577499E+03  0.00000000000E+00 0.  1.
<scales pt_clust_3="30.34394" pt_clust_4="30.34394" pt_clust_5="94.85826" pt_clust_6="71.20492"></scales>
<clustering>
<clus scale="   30.344">  3  4 -1 -1</clus>
<clus scale="   71.205">  1  6  2 -1</clus>
<clus scale="   94.858">  1  5  2 -1</clus>
<clus scale="  101.677">  2  3  1 -1</clus>
</clustering>
</event>
<event>
 6    0  0.3522959E+002  0.8014185E+02  0.7546771E-02  0.1328649E+00
         -2   -1    0    0    0  501 -0.00000000000E+00  0.00000000000E+00  0.41431905183E+03  0.41431905183E+03  0.00000000000E+00 0. -1.
         21   -1    0    0  505  502  0.00000000000E+00 -0.00000000000E+00 -0.61290655218E+03  0.61290655218E+03  0.00000000000E+00 0. -1.
         21    1    1    2  503  502  0.48910871469E+02 -0.51506419866E+02 -0.14977557278E+03  0.16576461274E+03  0.00000000000E+00 0. -1.
         21    1    1    2  504  501 -0.25395150956E+02  0.18874389270E+02  0.24821210218E+02  0.40215031258E+02  0.00000000000E+00 0.  1.
         21    1    1    2  505  504 -0.10244905403E+03 -0.81148912289E+01 -0.43610378318E+03  0.44804929398E+03  0.00000000000E+00 0. -1.
         -2    1    1    2    0  503  0.78933333521E+02  0.40746921825E+02  0.36247064539E+03  0.37319666604E+03  0.00000000000E+00 0. -1.
<scales pt_clust_3="70.37681" pt_clust_4="31.64105" pt_clust_5="14000.00000" pt_clust_6="80.14185"></scales>
<clustering>
<clus scale="   31.641">  1  4  2 -1</clus>
<clus scale="   70.377">  2  3  1 -1</clus>
<clus scale="   80.142">  1  6  2 -1</clus>
<clus scale="   70.377">  2  3  1 -1</clus>
</clustering>
</event>
<event>
 6    0  0.3522959E+002  0.6580419E+02  0.7546771E-02  0.1374972E+00
         21   -1    0    0  505  502  0.00000000000E+00  0.00000000000E+00  0.14972629627E+03  0.14972629627E+03  0.00000000000E+00 0.  1.
          2   -1    0    0  504    0 -0.00000000000E+00 -0.00000000000E+00 -0.16126648178E+04  0.16126648178E+04  0.00000000000E+00 0. -1.
         21    1    1    2  503  502 -0.97823451817E+02  0.11994750009E+02  0.58039269076E+02  0.11437595249E+03  0.00000000000E+00 0.  1.
         21    1    1    2  504  503  0.44912285567E+01  0.47846725787E+02 -0.11296777642E+04  0.11306994876E+04  0.00000000000E+00 0. -1.
         21    1    1    2  505  501  0.33187007104E+02 -0.13828547989E+02  0.54411551073E+02  0.65216739186E+02  0.00000000000E+00 0.  1.
          2    1    1    2  501    0  0.60145216156E+02 -0.46012927806E+02 -0.44571157746E+03  0.45209893479E+03  0.00000000000E+00 0. -1.
<scales pt_clust_3="65.80419" pt_clust_4="47.99684" pt_clust_5="35.95283" pt_clust_6="14000.00000"></scales>
<clustering>
<clus scale="   35.953">  1  5  2 -1</clus>
<clus scale="   47.997">  2  4  1 -1</clus>
<clus scale="   65.804">  1  3  2 -1</clus>
<clus scale="   35.953">  1  3  2 -1</clus>
</clustering>
</event>
<event>
 6    0  0.3522959E+002  0.9046289E+02  0.7546771E-02  0.1301735E+00
         21   -1    0    0  504  502  0.00000000000E+00  0.00000000000E+00  0.18155527452E+02  0.18155527452E+02  0.00000000000E+00 0. -1.
          1   -1    0    0  505    0 -0.00000000000E+00 -0.00000000000E+00 -0.10939338863E+04  0.10939338863E+04  0.00000000000E+00 0. -1.
         21    1    1    2  503  501  0.10345342813E+03  0.21461508516E+02 -0.44524130789E+03  0.45760575869E+03  0.00000000000E+00 0. -1.
         21    1    1    2  504  503 -0.17482546298E+02 -0.35864241678E+02 -0.77023918916E+02  0.86744264025E+02  0.00000000000E+00 0. -1.
         21    1    1    2  505  502 -0.63583308509E+01  0.33597399091E+02 -0.77148095804E+02  0.84386268332E+02  0.00000000000E+00 0. -1.
          1    1    1    2  501    0 -0.79612550977E+02 -0.19194665929E+02 -0.47636503628E+03  0.48335312274E+03  0.00000000000E+00 0. -1.
<scales pt_clust_3="90.46289" pt_clust_4="31.48307" pt_clust_5="34.19377" pt_clust_6="14000.00000"></scales>
<clustering>
<clus scale="   34.194">  1  5  2 -1</clus>
<clus scale="   31.483">  1  4  2 -1</clus>
<clus scale="   90.463">  1  3  2 -1</clus>
<clus scale="   34.194">  1  3  2 -1</clus>
</clustering>
</event>
<event>
 6    0  0.3522959E+002  0.6837476E+02  0.7546771E-02  0.1365709E+00
          2   -1    0    0  503    0 -0.00000000000E+00  0.00000000000E+00  0.42522271289E+04  0.42522271289E+04  0.00000000000E+00 0.  1.
         21   -1    0    0  505  502  0.00000000000E+00 -0.00000000000E+00 -0.28960325913E+03  0.28960325913E+03  0.00000000000E+00 0.  1.
         21    1    1    2  503  502 -0.25239788762E+02  0.42952523771E+02 -0.47900414209E+02  0.69111619257E+02  0.00000000000E+00 0. -1.
         21    1    1    2  504  501  0.77193889560E+01  0.74642066503E+02  0.38121988452E+03  0.38853523317E+03  0.00000000000E+00 0. -1.
         21    1    1    2  505  504 -0.32771291531E+02 -0.80735511451E+02 -0.21883245534E+03  0.23554155444E+03  0.00000000000E+00 0.  1.
          2    1    1    2  501    0  0.50291691337E+02 -0.36859078823E+02  0.38481368548E+04  0.38486419812E+04  0.00000000000E+00 0.  1.
<scales pt_clust_3="49.81934" pt_clust_4="68.37476" pt_clust_5="14000.00000" pt_clust_6="62.30260"></scales>
<clustering>
<clus scale="   49.819">  2  3  1 -1</clus>
<clus scale="   62.303">  1  6  2 -1</clus>
<clus scale="   68.375">  1  4  2 -1</clus>
<clus scale="   49.819">  2  3  1 -1</clus>
</clustering>
</event>
<event>
 6    0  0.3522959E+002  0.3311711E+03  0.7546771E-02  0.1070620E+00
         21   -1    0    0  501  502  0.00000000000E+00  0.00000000000E+00  0.35459156907E+03  0.35459156907E+03  0.00000000000E+00 0.  1.
          2   -1    0    0  504    0 -0.00000000000E+00 -0.00000000000E+00 -0.65200612280E+03  0.65200612280E+03  0.00000000000E+00 0.  1.
         21    1    1    2  503  505  0.54986205479E+02 -0.11870862395E+02 -0.49269680570E+02  0.74779018384E+02  0.00000000000E+00 0.  1.
         21    1    1    2  504  503  0.27394925102E+03  0.67679186985E+02 -0.27956912019E+02  0.28356701751E+03  0.00000000000E+00 0.  1.
         21    1    1    2  505  502 -0.30245133023E+03 -0.33126154593E+02  0.10449333727E+03  0.32170329002E+03  0.00000000000E+00 0.  1.
          2    1    1    2  501    0 -0.26484126279E+02 -0.22682169997E+02 -0.32468129841E+03  0.32654836597E+03  0.00000000000E+00 0.  1.
<scales pt_clust_3="46.75819" pt_clust_4="46.75819" pt_clust_5="313.90998" pt_clust_6="34.86961"></scales>
<clustering>
<clus scale="   34.870">  2  6  1 -1</clus>
<clus scale="   46.758">  3  4 -1 -1</clus>
<clus scale="  313.910">  1  5  2 -1</clus>
<clus scale="  313.910">  1  3  2 -1</clus>
</clustering>
</event>
<event>
 6    0  0.3522959E+002  0.1261563E+03  0.7546771E-02  0.1233273E+00
          2   -1    0    0  503    0 -0.00000000000E+00  0.00000000000E+00  0.14856698755E+04  0.14856698755E+04  0.00000000000E+00 0.  1.
         21   -1    0    0  505  502  0.00000000000E+00 -0.00000000000E+00 -0.93556755561E+03  0.93556755561E+03  0.00000000000E+00 0. -1.
         21    1    1    2  503  504  0.90282827429E+02 -0.46767635000E+02  0.10755553717E+03  0.14800808825E+03  0.00000000000E+00 0. -1.
         21    1    1    2  504  502  0.41464343967E+02 -0.22256658153E+02 -0.84544270209E+03  0.84675144711E+03  0.00000000000E+00 0. -1.
         21    1    1    2  505  501 -0.32573606825E+02 -0.15522595662E+02 -0.61180481919E+02  0.71028460532E+02  0.00000000000E+00 0. -1.
          2    1    1    2  501    0 -0.99173564571E+02  0.84546888815E+02  0.13491699667E+04  0.13554494352E+04  0.00000000000E+00 0.  1.
<scales pt_clust_3="14000.00000" pt_clust_4="38.61740" pt_clust_5="36.08311" pt_clust_6="126.15630"></scales>
<clustering>
<clus scale="   36.083">  2  5  1 -1</clus>
<clus scale="   38.617">  2  4  1 -1</clus>
<clus scale="  126.156">  1  6  2 -1</clus>
<clus scale="   36.083">  2  3  1 -1</clus>
</clustering>
</event>
<event>
 6    0  0.3522959E+002  0.1403905E+03  0.7546771E-02  0.1212804E+00
         -2   -1    0    0    0  501 -0.00000000000E+00  0.00000000000E+00  0.18751588833E+04  0.18751588833E+04  0.00000000000E+00 0. -1.
         21   -1    0    0  505  502  0.00000000000E+00 -0.00000000000E+00 -0.55251318782E+03  0.55251318782E+03  0.00000000000E+00 0.  1.
         21    1    1    2  503  502  0.48448233411E+02 -0.55231596297E+02 -0.19876634815E+03  0.21190993773E+03  0.00000000000E+00 0.  1.
         21    1    1    2  504  503  0.71425749994E+02 -0.24471918104E+02 -0.19410592903E+03  0.20827295605E+03  0.00000000000E+00 0. -1.
         21    1    1    2  505  501 -0.45601364669E+02 -0.33054798188E+02 -0.13800474623E+03  0.14905507078E+03  0.00000000000E+00 0.  1.
         -2    1    1    2    0  504 -0.74272618736E+02  0.11275831259E+03  0.18535227189E+04  0.18584341066E+04  0.00000000000E+00 0. -1.
<scales pt_clust_3="37.98300" pt_clust_4="37.98300" pt_clust_5="56.32144" pt_clust_6="135.00699"></scales>
<clustering>
<clus scale="   37.983">  3  4 -1 -1</clus>
<clus scale="   56.321">  2  5  1 -1</clus>
<clus scale="  135.007">  1  6  2 -1</clus>
<clus scale="   56.321">  2  3  1 -1</clus>
</clustering>
</event>
<event>
 6    0  0.3522959E+002  0.9080707E+02  0.7546771E-02  0.1300909E+00
         21   -1    0    0  501  502  0.00000000000E+00  0.00000000000E+00  0.50051138181E+02  0.50051138181E+02  0.00000000000E+00 0.  1.
          2   -1    0    0  503    0 -0.00000000000E+00 -0.00000000000E+00 -0.11361437741E+04  0.11361437741E+04  0.00000000000E+00 0.  1.
         21    1    1    2  503  504 -0.62596050155E+01 -0.34745319957E+02 -0.10046673347E+03  0.10648936307E+03  0.00000000000E+00 0.  1.
         21    1    1    2  504  505 -0.78456560494E+02 -0.20338343827E+02 -0.11489354040E+03  0.14060443002E+03  0.00000000000E+00 0. -1.
         21    1    1    2  505  502  0.54819955999E+02  0.94187788598E+02 -0.55342141930E+02  0.12222651010E+03  0.00000000000E+00 0.  1.
          2    1    1    2  501    0  0.29896209510E+02 -0.39104124814E+02 -0.81539022017E+03  0.81687460914E+03  0.00000000000E+00 0.  1.
<scales pt_clust_3="35.30467" pt_clust_4="14000.00000" pt_clust_5="90.80707" pt_clust_6="71.08596"></scales>
<clustering>
<clus scale="   35.305">  2  3  1 -1</clus>
<clus scale="   71.086">  2  6  1 -1</clus>
<clus scale="   90.807">  1  5  2 -1</clus>
<clus scale="   90.807">  1  3  2 -1</clus>
</clustering>
</event>
<event>
 6    0  0.3522959E+002  0.8654785E+02  0.7546771E-02  0.1311434E+00
          2   -1    0    0  505    0 -0.00000000000E+00  0.00000000000E+00  0.33600471917E+03  0.33600471917E+03  0.00000000000E+00 0.  1.
         21   -1    0    0  501  502  0.00000000000E+00 -0.00000000000E+00 -0.18149202559E+03  0.18149202559E+03  0.00000000000E+00 0. -1.
         21    1    1    2  503  502  0.19931511260E+02  0.31803890206E+02 -0.62685773502E+02  0.73063388731E+02  0.00000000000E+00 0. -1.
         21    1    1    2  504  503  0.69985675778E+02  0.10203159121E+02 -0.56856666557E+02  0.90745687513E+02  0.00000000000E+00 0. -1.
         21    1    1    2  505  504 -0.65365957704E+02 -0.79347456753E+02  0.32186267930E+02  0.10772503499E+03  0.00000000000E+00 0.  1.
          2    1    1    2  501    0 -0.24551229334E+02  0.37340407426E+02  0.24186886571E+03  0.24596263352E+03  0.00000000000E+00 0.  1.
<scales pt_clust_3="37.53335" pt_clust_4="14000.00000" pt_clust_5="86.54785" pt_clust_6="44.97426"></scales>
<clustering>
<clus scale="   37.533">  2  3  1 -1</clus>
<clus scale="   44.974">  1  6  2 -1</clus>
<clus scale="   86.548">  1  5  2 -1</clus>
<clus scale="   37.533">  2  3  1 -1</clus>
</clustering>
</event>
<event>
 6    0  0.3522959E+002  0.8277329E+02  0.7546771E-02  0.1321360E+00
          1   -1    0    0  504    0 -0.00000000000E+00  0.00000000000E+00  0.24279312547E+03  0.24279312547E+03  0.00000000000E+00 0. -1.
         21   -1    0    0  505  502  0.00000000000E+00 -0.00000000000E+00 -0.78155585558E+03  0.78155585558E+03  0.00000000000E+00 0.  1.
         21    1    1    2  503  502  0.20819253140E+02  0.55085118085E+02 -0.65050000730E+03  0.65316006540E+03  0.00000000000E+00 0.  1.
         21    1    1    2  504  503  0.23714538585E+02 -0.13791643861E+03 -0.29092418160E+02  0.14293247418E+03  0.00000000000E+00 0. -1.
         21    1    1    2  505  501 -0.31262585368E+02  0.67913272264E+01 -0.28066000933E+02  0.42557863877E+02  0.00000000000E+00 0. -1.
          1    1    1    2  501    0 -0.13271206358E+02  0.76039993303E+02  0.16889569628E+03  0.18569857760E+03  0.00000000000E+00 0. -1.
<scales pt_clust_3="61.36118" pt_clust_4="82.77329" pt_clust_5="31.99174" pt_clust_6="14000.00000"></scales>
<clustering>
<clus scale="   31.992">  2  5  1 -1</clus>
<clus scale="   61.361">  2  3  1 -1</clus>
<clus scale="   82.773">  2  4  1 -1</clus>
<clus scale="   31.992">  2  3  1 -1</clus>
</clustering>
</event>
<event>
 6    0  0.3522959E+002  0.1072425E+03  0.7546771E-02  0.1265763E+00
         21   -1    0    0  504  502  0.00000000000E+00  0.00000000000E+00  0.12069894454E+03  0.12069894454E+03  0.00000000000E+00 0. -1.
          1   -1    0    0  503    0 -0.00000000000E+00 -0.00000000000E+00 -0.11924450581E+04  0.11924450581E+04  0.00000000000E+00 0. -1.
         21    1    1    2  503  505 -0.32017577227E+02 -0.68072088665E+01  0.36806233815E+02  0.49256087864E+02  0.00000000000E+00 0.  1.
         21    1    1    2  504  501  0.28132773274E+01 -0.77625727024E+02  0.18266348810E+02  0.79795535741E+02  0.00000000000E+00 0. -1.
         21    1    1    2  505  502 -0.43014999228E+02  0.11341991956E+02  0.75140703948E+01  0.45115321056E+02  0.00000000000E+00 0.  1.
          1    1    1    2  501    0  0.72219299127E+02  0.73090943935E+02 -0.11343327666E+04  0.11389770580E+04  0.00000000000E+00 0. -1.
<scales pt_clust_3="30.82386" pt_clust_4="77.67669" pt_clust_5="30.82386" pt_clust_6="101.04326"></scales>
<clustering>
<clus scale="   30.824">  3  5 -1 -1</clus>
<clus scale="   77.677">  1  4  2 -1</clus>
<clus scale="  101.043">  2  6  1 -1</clus>
<clus scale="   77.677">  1  3  2 -1</clus>
</clustering>
</event>
<event>
 6    0  0.3522959E+002  0.9924203E+02  0.7546771E-02  0.1281898E+00
         21   -1    0    0  501  502  0.00000000000E+00  0.00000000000E+00  0.28259750517E+03  0.28259750517E+03  0.00000000000E+00 0. -1.
          2   -1    0    0  503    0 -0.00000000000E+00 -0.00000000000E+00 -0.54302426215E+03  0.54302426215E+03  0.00000000000E+00 0.  1.
         21    1    1    2  503  504  0.61824970650E+02  0.74725973375E+01 -0.19080744513E+01  0.62304152791E+02  0.00000000000E+00 0. -1.
         21    1    1    2  504  505 -0.27122754332E+02 -0.70281172106E+02 -0.50408036909E+02  0.90642468745E+02  0.00000000000E+00 0. -1.
         21    1    1    2  505  502 -0.84678587763E+02  0.74417585113E+02  0.21697042795E+03  0.24450890946E+03  0.00000000000E+00 0. -1.
          2    1    1    2  501    0  0.49976371444E+02 -0.11609010345E+02 -0.42508107357E+03  0.42816623633E+03  0.00000000000E+00 0.  1.
<scales pt_clust_3="75.73017" pt_clust_4="99.24203" pt_clust_5="14000.00000" pt_clust_6="51.30699"></scales>
<clustering>
<clus scale="   51.307">  2  6  1 -1</clus>
<clus scale="   75.730">  2  3  1 -1</clus>
<clus scale="   99.242">  2  4  1 -1</clus>
<clus scale="   99.242">  1  3  2 -1</clus>
</clustering>
</event>
<event>
 6    0  0.3522959E+002  0.9243558E+02  0.7546771E-02  0.1297059E+00
         21   -1    0    0  504  502  0.00000000000E+00  0.00000000000E+00  0.22926672456E+03  0.22926672456E+03  0.00000000000E+00 0.  1.
         -2   -1    0    0    0  501 -0.00000000000E+00 -0.00000000000E+00 -0.29561760391E+03  0.29561760391E+03  0.00000000000E+00 0. -1.
         21    1    1    2  503  502 -0.48497812148E+02 -0.64441315693E+02  0.10868301726E+03  0.13533927439E+03  0.00000000000E+00 0.  1.
         21    1    1    2  504  505  0.39272941751E+02 -0.13396124087E+02  0.76055130726E+00  0.41501789511E+02  0.00000000000E+00 0.  1.
         21    1    1    2  505  501 -0.30215880201E+02  0.13961158315E+03  0.15025697630E+02  0.14363204780E+03  0.00000000000E+00 0.  1.
         -2    1    1    2    0  503  0.39440750598E+02 -0.61774143366E+02 -0.19082014555E+03  0.20441121678E+03  0.00000000000E+00 0. -1.
<scales pt_clust_3="92.43558" pt_clust_4="41.49482" pt_clust_5="14000.00000" pt_clust_6="74.35480"></scales>
<clustering>
<clus scale="   41.495">  1  4  2 -1</clus>
<clus scale="   74.355">  2  6  1 -1</clus>
<clus scale="   92.436">  1  3  2 -1</clus>
<clus scale="   41.495">  1  3  2 -1</clus>
</clustering>
</event>
<event>
 6    0  0.3522959E+002  0.1577992E+03  0.7546771E-02  0.1191204E+00
          1   -1    0    0  502    0 -0.00000000000E+00  0.00000000000E+00  0.66533583385E+03  0.66533583385E+03  0.00000000000E+00 0.  1.
         21   -1    0    0  503  502  0.00000000000E+00 -0.00000000000E+00 -0.11103823091E+03  0.11103823091E+03  0.00000000000E+00 0. -1.
         21    1    1    2  503  505  0.92975789300E+02  0.97139787748E+00  0.36014478444E+02  0.99712003627E+02  0.00000000000E+00 0. -1.
         21    1    1    2  504  501 -0.13177170328E+03  0.33360097718E+01  0.96829962851E+02  0.16355718404E+03  0.00000000000E+00 0. -1.
         21    1    1    2  505  504  0.60814265697E+02  0.20329724915E+02 -0.22476272166E+02  0.67947446146E+02  0.00000000000E+00 0.  1.
          1    1    1    2  501    0 -0.22018351716E+02 -0.24637132564E+02  0.44392943381E+03  0.44515743094E+03  0.00000000000E+00 0.  1.
<scales pt_clust_3="52.00433" pt_clust_4="145.18715" pt_clust_5="52.00433" pt_clust_6="33.04234"></scales>
<clustering>
<clus scale="   33.042">  1  6  2 -1</clus>
<clus scale="   52.004">  3  5 -1 -1</clus>
<clus scale="  145.187">  1  4  2 -1</clus>
<clus scale="  157.799">  2  3  1 -1</clus>
</clustering>
</event>
<event>
 6    0  0.3522959E+002  0.7792219E+02  0.7546771E-02  0.1335054E+00
         -1   -1    0    0    0  501 -0.00000000000E+00  0.00000000000E+00  0.47016110606E+03  0.47016110606E+03  0.00000000000E+00 0. -1.
         21   -1    0    0  505  502  0.00000000000E+00 -0.00000000000E+00 -0.21983662789E+03  0.21983662789E+03  0.00000000000E+00 0. -1.
         21    1    1    2  503  501 -0.43137369979E+02 -0.43254452562E+02  0.12158076985E+01  0.61100397245E+02  0.00000000000E+00 0. -1.
         21    1    1    2  504  502 -0.30387741955E+01  0.62297902741E+02 -0.52381285035E+02  0.81449750500E+02  0.00000000000E+00 0. -1.
         21    1    1    2  505  503 -0.33881783360E+02 -0.34000640979E+02 -0.11418784867E+03  0.12386639421E+03  0.00000000000E+00 0. -1.
         -1    1    1    2    0  504  0.80057927535E+02  0.14957190800E+02  0.41567780418E+03  0.42358119199E+03  0.00000000000E+00 0. -1.
<scales pt_clust_3="77.92219" pt_clust_4="47.22403" pt_clust_5="48.00020" pt_clust_6="14000.00000"></scales>
<clustering>
<clus scale="   48.000">  2  5  1 -1</clus>
<clus scale="   47.224">  2  4  1 -1</clus>
<clus scale="   77.922">  2  3  1 -1</clus>
<clus scale="   48.000">  2  3  1 -1</clus>
</clustering>
</event>
<event>
 6    0  0.3522959E+002  0.8009919E+02  0.7546771E-02  0.1328770E+00
         21   -1    0    0  505  502  0.00000000000E+00  0.00000000000E+00  0.39291542507E+03  0.39291542507E+03  0.00000000000E+00 0.  1.
          2   -1    0    0  504    0 -0.00000000000E+00 -0.00000000000E+00 -0.33772367586E+03  0.33772367586E+03  0.00000000000E+00 0.  1.
         21    1    1    2  503  502  0.78655131282E+01 -0.30089701303E+02  0.11638494925E+03  0.12046872139E+03  0.00000000000E+00 0.  1.
         21    1    1    2  504  503 -0.80792164655E+02  0.27606817568E+02 -0.13579410674E+03  0.16040433183E+03  0.00000000000E+00 0. -1.
         21    1    1    2  505  501  0.70013101754E+02  0.51058337191E+02  0.25164990488E+03  0.26615120297E+03  0.00000000000E+00 0.  1.
          2    1    1    2  501    0  0.29135497720E+01 -0.48575453456E+02 -0.17704899818E+03  0.18361484474E+03  0.00000000000E+00 0.  1.
<scales pt_clust_3="31.10075" pt_clust_4="14000.00000" pt_clust_5="80.09919" pt_clust_6="49.02767"></scales>
<clustering>
<clus scale="   31.101">  1  3  2 -1</clus>
<clus scale="   49.028">  2  6  1 -1</clus>
<clus scale="   80.099">  1  5  2 -1</clus>
<clus scale="   31.101">  1  3  2 -1</clus>
</clustering>
</event>
<event>
 6    0  0.3522959E+002  0.2113489E+03  0.7546771E-02  0.1140502E+00
          2   -1    0    0  505    0 -0.00000000000E+00  0.00000000000E+00  0.12512914312E+04  0.12512914312E+04  0.00000000000E+00 0.  1.
         21   -1    0    0  504  502  0.00000000000E+00 -0.00000000000E+00 -0.31258945493E+03  0.31258945493E+03  0.00000000000E+00 0. -1.
         21    1    1    2  503  502  0.15778253074E+03  0.16399883936E+03 -0.20172240211E+03  0.30410996996E+03  0.00000000000E+00 0. -1.
         21    1    1    2  504  501 -0.33433327113E+02 -0.40855415227E+01  0.10910250082E+02  0.35404979427E+02  0.00000000000E+00 0. -1.
         21    1    1    2  505  503 -0.10554094288E+03 -0.21221982510E+03  0.25519780765E+03  0.34828446107E+03  0.00000000000E+00 0. -1.
          2    1    1    2  501    0 -0.18808260738E+02  0.52306527259E+02  0.87431632067E+03  0.87608147570E+03  0.00000000000E+00 0.  1.
<scales pt_clust_3="14000.00000" pt_clust_4="33.68203" pt_clust_5="211.34890" pt_clust_6="55.60731"></scales>
<clustering>
<clus scale="   33.682">  2  4  1 -1</clus>
<clus scale="   55.607">  1  6  2 -1</clus>
<clus scale="  211.349">  1  5  2 -1</clus>
<clus scale="   33.682">  2  3  1 -1</clus>
</clustering>
</event>
<event>
 6    0  0.3522959E+002  0.1400991E+03  0.7546771E-02  0.1213196E+00
         21   -1    0    0  504  502  0.00000000000E+00  0.00000000000E+00  0.45155958176E+02  0.45155958176E+02  0.00000000000E+00 0. -1.
          1   -1    0    0  505    0 -0.00000000000E+00 -0.00000000000E+00 -0.27292108954E+04  0.27292108954E+04  0.00000000000E+00 0.  1.
         21    1    1    2  503  502  0.67907691251E+02 -0.50086567113E+02 -0.12114164911E+03  0.14763271279E+03  0.00000000000E+00 0. -1.
         21    1    1    2  504  501  0.83267761419E+02  0.19995730484E+02 -0.55037937320E+02  0.10179648262E+03  0.00000000000E+00 0. -1.
         21    1    1    2  505  503 -0.17426104513E+03 -0.13475835551E+02 -0.92935777495E+03  0.94565024394E+03  0.00000000000E+00 0. -1.
          1    1    1    2  501    0  0.23085592462E+02  0.43566672180E+02 -0.15785175758E+04  0.15792874142E+04  0.00000000000E+00 0.  1.
<scales pt_clust_3="83.72418" pt_clust_4="140.09911" pt_clust_5="14000.00000" pt_clust_6="49.30517"></scales>
<clustering>
<clus scale="   49.305">  2  6  1 -1</clus>
<clus scale="   83.724">  1  3  2 -1</clus>
<clus scale="  140.099">  1  4  2 -1</clus>
<clus scale="   83.724">  1  3  2 -1</clus>
</clustering>
</event>
<event>
 6    0  0.3522959E+002  0.1240180E+03  0.7546771E-02  0.1236612E+00
          2   -1    0    0  505    0 -0.00000000000E+00  0.00000000000E+00  0.68576418959E+03  0.68576418959E+03  0.00000000000E+00 0. -1.
         21   -1    0    0  503  502  0.00000000000E+00 -0.00000000000E+00 -0.20207613744E+03  0.20207613744E+03  0.00000000000E+00 0.  1.
         21    1    1    2  503  504  0.16653238609E+02 -0.44005014347E+02 -0.82632769329E+02  0.95089148754E+02  0.00000000000E+00 0.  1.
         21    1    1    2  504  501  0.71691454972E+02  0.45633328386E+02  0.41442005899E+02  0.94548956782E+02  0.00000000000E+00 0. -1.
         21    1    1    2  505  502 -0.56627280599E+02  0.12008570562E+03 -0.24153484510E+02  0.13494671695E+03  0.00000000000E+00 0.  1.
          2    1    1    2  501    0 -0.31717412982E+02 -0.12171401966E+03  0.54903230009E+03  0.56325550455E+03  0.00000000000E+00 0. -1.
<scales pt_clust_3="47.05073" pt_clust_4="83.43811" pt_clust_5="14000.00000" pt_clust_6="124.01799"></scales>
<clustering>
<clus scale="   47.051">  2  3  1 -1</clus>
<clus scale="   83.438">  2  4  1 -1</clus>
<clus scale="  124.018">  1  6  2 -1</clus>
<clus scale="   47.051">  2  3  1 -1</clus>
</clustering>
</event>
<event>
 6    0  0.3522959E+002  0.7635138E+02  0.7546771E-02  0.1339737E+00
          1   -1    0    0  504    0 -0.00000000000E+00  0.00000000000E+00  0.19550517393E+04  0.19550517393E+04  0.00000000000E+00 0. -1.
         21   -1    0    0  503  502  0.00000000000E+00 -0.00000000000E+00 -0.15841944780E+04  0.15841944780E+04  0.00000000000E+00 0. -1.
         21    1    1    2  503  501  0.37485481911E+02 -0.28748102242E+01 -0.13655572646E+03  0.14163647947E+03  0.00000000000E+00 0. -1.
         21    1    1    2  504  505 -0.10030708697E+03 -0.74435028782E+02  0.56480219616E+03  0.57844931152E+03  0.00000000000E+00 0. -1.
         21    1    1    2  505  502  0.24380862200E+02  0.47317352669E+02 -0.14373516406E+04  0.14383369205E+04  0.00000000000E+00 0. -1.
          1    1    1    2  501    0  0.38440742864E+02  0.29992486337E+02  0.13799624322E+04  0.13808235058E+04  0.00000000000E+00 0. -1.
<scales pt_clust_3="37.59556" pt_clust_4="76.35138" pt_clust_5="14000.00000" pt_clust_6="48.76523"></scales>
<clustering>
<clus scale="   37.596">  2  3  1 -1</clus>
<clus scale="   48.765">  1  6  2 -1</clus>
<clus scale="   76.351">  1  4  2 -1</clus>
<clus scale="   37.596">  2  3  1 -1</clus>
</clustering>
</event>
<event>
 6    0  0.3522959E+002  0.1790473E+03  0.7546771E-02  0.1168728E+00
          1   -1    0    0  503    0 -0.00000000000E+00  0.00000000000E+00  0.15392485344E+04  0.15392485344E+04  0.00000000000E+00 0. -1.
         21   -1    0    0  501  502  0.00000000000E+00 -0.00000000000E+00 -0.13166128849E+03  0.13166128849E+03  0.00000000000E+00 0. -1.
         21    1    1    2  503  505  0.98783940670E+02  0.79160210477E+02  0.65063717001E+02  0.14233022563E+03  0.00000000000E+00 0. -1.
         21    1    1    2  504  502 -0.13915034424E+03 -0.66302648924E+02  0.55989070660E+01  0.15424074467E+03  0.00000000000E+00 0. -1.
         21    1    1    2  505  504  0.83710031111E+02  0.32376793547E+02  0.94478587126E+02  0.13031434877E+03  0.00000000000E+00 0. -1.
          1    1    1    2  501    0 -0.43343627538E+02 -0.45234355101E+02  0.12424460347E+04  0.12440245039E+04  0.00000000000E+00 0. -1.
<scales pt_clust_3="47.15947" pt_clust_4="170.06222" pt_clust_5="47.15947" pt_clust_6="62.64836"></scales>
<clustering>
<clus scale="   47.159">  3  5 -1 -1</clus>
<clus scale="   62.648">  1  6  2 -1</clus>
<clus scale="  170.062">  2  4  1 -1</clus>
<clus scale="  170.062">  2  3  1 -1</clus>
</clustering>
</event>
<event>
 6    0  0.3522959E+002  0.9884145E+02  0.7546771E-02  0.1282751E+00
         21   -1    0    0  504  502  0.00000000000E+00  0.00000000000E+00  0.16168163756E+03  0.16168163756E+03  0.00000000000E+00 0.  1.
          2   -1    0    0  503    0 -0.00000000000E+00 -0.00000000000E+00 -0.11482769840E+04  0.11482769840E+04  0.00000000000E+00 0. -1.
         21    1    1    2  503  502  0.39596302902E+02  0.17070165491E+02 -0.11173528624E+02  0.44543299107E+02  0.00000000000E+00 0. -1.
         21    1    1    2  504  505  0.23134778825E+02  0.65706125023E+02  0.12928480153E+03  0.14685732111E+03  0.00000000000E+00 0.  1.
         21    1    1    2  505  501  0.92333500975E+01 -0.92584420062E+02 -0.42986994707E+03  0.43982417053E+03  0.00000000000E+00 0. -1.
          2    1    1    2  501    0 -0.71964431824E+02  0.98081295480E+01 -0.67483667228E+03  0.67873383083E+03  0.00000000000E+00 0. -1.
<scales pt_clust_3="43.11911" pt_clust_4="14000.00000" pt_clust_5="98.84145" pt_clust_6="72.13409"></scales>
<clustering>
<clus scale="   43.119">  1  3  2 -1</clus>
<clus scale="   72.134">  2  6  1 -1</clus>
<clus scale="   98.841">  2  5  1 -1</clus>
<clus scale="   43.119">  1  3  2 -1</clus>
</clustering>
</event>
<event>
 6    0  0.3522959E+002  0.1334920E+03  0.7546771E-02  0.1222364E+00
         -2   -1    0    0    0  501 -0.00000000000E+00  0.00000000000E+00  0.13738078013E+04  0.13738078013E+04  0.00000000000E+00 0. -1.
         21   -1    0    0  505  502  0.00000000000E+00 -0.00000000000E+00 -0.79794977894E+02  0.79794977894E+02  0.00000000000E+00 0. -1.
         21    1    1    2  503  501 -0.52351506569E+02  0.11283487521E+03  0.63377192866E+03  0.64586317968E+03  0.00000000000E+00 0. -1.
         21    1    1    2  504  502  0.18409331273E+02 -0.11081927163E+03  0.63380118895E+01  0.11251659805E+03  0.00000000000E+00 0. -1.
         21    1    1    2  505  503 -0.40747373320E+02 -0.31913099021E+02  0.18832093066E+02  0.55076692446E+02  0.00000000000E+00 0. -1.
         -2    1    1    2    0  504  0.74689548616E+02  0.29897495444E+02  0.63507078976E+03  0.64014630899E+03  0.00000000000E+00 0. -1.
<scales pt_clust_3="14000.00000" pt_clust_4="133.49200" pt_clust_5="51.75707" pt_clust_6="78.40879"></scales>
<clustering>
<clus scale="   51.757">  2  5  1 -1</clus>
<clus scale="   78.409">  1  6  2 -1</clus>
<clus scale="  133.492">  2  4  1 -1</clus>
<clus scale="   51.757">  2  3  1 -1</clus>
</clustering>
</event>
<event>
 6    0  0.3522959E+002  0.1340131E+03  0.7546771E-02  0.1221620E+00
          2   -1    0    0  503    0 -0.00000000000E+00  0.00000000000E+00  0.62066730018E+02  0.62066730018E+02  0.00000000000E+00 0. -1.
         21   -1    0    0  505  502  0.00000000000E+00 -0.00000000000E+00 -0.97906826745E+03  0.97906826745E+03  0.00000000000E+00 0.  1.
         21    1    1    2  503  504 -0.44692892055E+02  0.97988921236E+02 -0.21492111875E+03  0.24039627820E+03  0.00000000000E+00 0. -1.
         21    1    1    2  504  502 -0.73318254008E+01 -0.17731409565E+03 -0.49975370916E+03  0.53032802491E+03  0.00000000000E+00 0.  1.
         21    1    1    2  505  501  0.51137617454E+02  0.41927230403E+02 -0.21950275807E+03  0.22924748498E+03  0.00000000000E+00 0.  1.
          2    1    1    2  501    0  0.88710000213E+00  0.37397944015E+02  0.17176048554E+02  0.41163209385E+02  0.00000000000E+00 0. -1.
<scales pt_clust_3="134.01314" pt_clust_4="14000.00000" pt_clust_5="69.86810" pt_clust_6="37.40846"></scales>
<clustering>
<clus scale="   37.408">  1  6  2 -1</clus>
<clus scale="   69.868">  2  5  1 -1</clus>
<clus scale="  134.013">  1  3  2 -1</clus>
<clus scale="   69.868">  2  3  1 -1</clus>
</clustering>
</event>
<event>
 6    0  0.3522959E+002  0.9705227E+02  0.7546771E-02  0.1286620E+00
         21   -1    0    0  505  502  0.00000000000E+00  0.00000000000E+00  0.19660159545E+03  0.19660159545E+03  0.00000000000E+00 0.  1.
          2   -1    0    0  503    0 -0.00000000000E+00 -0.00000000000E+00 -0.32996346172E+03  0.32996346172E+03  0.00000000000E+00 0.  1.
         21    1    1    2  503  504  0.96563700973E+02 -0.24394488728E+02 -0.13332076377E+03  0.16641534027E+03  0.00000000000E+00 0.  1.
         21    1    1    2  504  502 -0.99087506148E+02 -0.23352236142E+02  0.33735214197E+02  0.10724609776E+03  0.00000000000E+00 0.  1.
         21    1    1    2  505  501  0.11784369432E+02  0.77250775758E+02  0.93539627012E+02  0.12188607607E+03  0.00000000000E+00 0.  1.
          2    1    1    2  501    0 -0.92605642580E+01 -0.29504050888E+02 -0.12731594371E+03  0.13101754307E+03  0.00000000000E+00 0.  1.
<scales pt_clust_3="97.05227" pt_clust_4="14000.00000" pt_clust_5="75.98787" pt_clust_6="30.92324"></scales>
<clustering>
<clus scale="   30.923">  2  6  1 -1</clus>
<clus scale="   75.988">  1  5  2 -1</clus>
<clus scale="   97.052">  2  3  1 -1</clus>
<clus scale="   75.988">  1  3  2 -1</clus>
</clustering>
</event>
<event>
 6    0  0.3522959E+002  0.2187357E+03  0.7546771E-02  0.1134829E+00
         21   -1    0    0  503  502  0.00000000000E+00  0.00000000000E+00  0.41616117231E+03  0.41616117231E+03  0.00000000000E+00 0. -1.
          1   -1    0    0  504    0 -0.00000000000E+00 -0.00000000000E+00 -0.40165092280E+03  0.40165092280E+03  0.00000000000E+00 0. -1.
         21    1    1    2  503  501 -0.82222970699E+01 -0.30901263257E+02  0.93641621896E+02  0.98950733152E+02  0.00000000000E+00 0. -1.
         21    1    1    2  504  505  0.42077918453E+01  0.53963928315E+02 -0.17243321062E+02  0.56807950083E+02  0.00000000000E+00 0.  1.
         21    1    1    2  505  502  0.21199196594E+03 -0.55774540630E+02  0.21977170563E+03  0.31040456763E+03  0.00000000000E+00 0. -1.
          1    1    1    2  501    0 -0.20797746072E+03  0.32711875573E+02 -0.28165975696E+03  0.35164884425E+03  0.00000000000E+00 0. -1.
<scales pt_clust_3="31.97646" pt_clust_4="52.18410" pt_clust_5="14000.00000" pt_clust_6="218.73572"></scales>
<clustering>
<clus scale="   31.976">  1  3  2 -1</clus>
<clus scale="   52.184">  2  4  1 -1</clus>
<clus scale="  218.736">  2  6  1 -1</clus>
<clus scale="   31.976">  1  3  2 -1</clus>
</clustering>
</event>
<event>
 6    0  0.3522959E+002  0.1979770E+03  0.7546771E-02  0.1151457E+00
          2   -1    0    0  504    0 -0.00000000000E+00  0.00000000000E+00  0.26917470320E+04  0.26917470320E+04  0.00000000000E+00 0.  1.
         21   -1    0    0  503  502  0.00000000000E+00 -0.00000000000E+00 -0.50476330750E+03  0.50476330750E+03  0.00000000000E+00 0. -1.
         21    1    1    2  503  501 -0.10114101775E+03 -0.10541435645E+03 -0.37065432063E+03  0.39840471561E+03  0.00000000000E+00 0. -1.
         21    1    1    2  504  505  0.16398007057E+03  0.19481057879E+03  0.81968002942E+02  0.26750584789E+03  0.00000000000E+00 0.  1.
         21    1    1    2  505  502 -0.46199914387E+02 -0.23014659896E+02 -0.23179140656E+01  0.51667004801E+02  0.00000000000E+00 0.  1.
          2    1    1    2  501    0 -0.16639138430E+02 -0.66381562441E+02  0.24779879562E+04  0.24789327712E+04  0.00000000000E+00 0.  1.
<scales pt_clust_3="197.97702" pt_clust_4="14000.00000" pt_clust_5="51.61498" pt_clust_6="68.46836"></scales>
<clustering>
<clus scale="   51.615">  2  5  1 -1</clus>
<clus scale="   68.468">  1  6  2 -1</clus>
<clus scale="  197.977">  2  3  1 -1</clus>
<clus scale="   51.615">  2  3  1 -1</clus>
</clustering>
</event>
<event>
 6    0  0.3522959E+002  0.1186566E+03  0.7546771E-02  0.1245330E+00
          1   -1    0    0  503    0 -0.00000000000E+00  0.00000000000E+00  0.11810614041E+04  0.11810614041E+04  0.00000000000E+00 0.  1.
         21   -1    0    0  504  502  0.00000000000E+00 -0.00000000000E+00 -0.10795274421E+03  0.10795274421E+03  0.00000000000E+00 0. -1.
         21    1    1    2  503  502 -0.97261988327E+02 -0.46822404010E+02 -0.21243789129E+02  0.11001604641E+03  0.00000000000E+00 0. -1.
         21    1    1    2  504  505  0.40933807440E+02  0.20599413945E+02 -0.42667284755E+01  0.46023009662E+02  0.00000000000E+00 0. -1.
         21    1    1    2  505  501 -0.54131090022E+02 -0.18623410437E+02  0.45487426665E+02  0.73117113645E+02  0.00000000000E+00 0. -1.
          1    1    1    2  501    0  0.11045927091E+03  0.44846400502E+02  0.10531317508E+04  0.10598579786E+04  0.00000000000E+00 0.  1.
<scales pt_clust_3="14000.00000" pt_clust_4="45.82480" pt_clust_5="49.68026" pt_clust_6="118.65662"></scales>
<clustering>
<clus scale="   45.825">  2  4  1 -1</clus>
<clus scale="   49.680">  2  5  1 -1</clus>
<clus scale="  118.657">  1  6  2 -1</clus>
<clus scale="   45.825">  2  3  1 -1</clus>
</clustering>
</event>
<event>
 6    0  0.3522959E+002  0.9378723E+02  0.7546771E-02  0.1293931E+00
          1   -1    0    0  505    0 -0.00000000000E+00  0.00000000000E+00  0.65511479946E+03  0.65511479946E+03  0.00000000000E+00 0.  1.
         21   -1    0    0  503  502  0.00000000000E+00 -0.00000000000E+00 -0.13226596160E+03  0.13226596160E+03  0.00000000000E+00 0.  1.
         21    1    1    2  503  501  0.17256201976E+02 -0.44930623737E+02  0.18407946444E+02  0.51530475918E+02  0.00000000000E+00 0.  1.
         21    1    1    2  504  502  0.52795661421E+02  0.42268545243E+02 -0.26010934844E+02  0.72460889543E+02  0.00000000000E+00 0.  1.
         21    1    1    2  505  504 -0.58019204747E+02  0.95965071027E+02 -0.12054507602E+02  0.11278667532E+03  0.00000000000E+00 0.  1.
          1    1    1    2  501    0 -0.12032658650E+02 -0.93302992533E+02  0.54250633387E+03  0.55060272028E+03  0.00000000000E+00 0.  1.
<scales pt_clust_3="48.13042" pt_clust_4="64.44027" pt_clust_5="93.78723" pt_clust_6="14000.00000"></scales>
<clustering>
<clus scale="   48.130">  2  3  1 -1</clus>
<clus scale="   64.440">  2  4  1 -1</clus>
<clus scale="   93.787">  2  5  1 -1</clus>
<clus scale="   48.130">  2  3  1 -1</clus>
</clustering>
</event>
<event>
 6    0  0.3522959E+002  0.1099228E+03  0.7546771E-02  0.1260713E+00
          1   -1    0    0  503    0 -0.00000000000E+00  0.00000000000E+00  0.49875177162E+03  0.49875177162E+03  0.00000000000E+00 0.  1.
         21   -1    0    0  505  502  0.00000000000E+00 -0.00000000000E+00 -0.75952066743E+03  0.75952066743E+03  0.00000000000E+00 0. -1.
         21    1    1    2  503  504  0.63265488657E+02  0.20868665440E+02  0.78517031942E+02  0.10297061502E+03  0.00000000000E+00 0. -1.
         21    1    1    2  504  502  0.77875582297E+02  0.54964553558E+01 -0.19168880031E+03  0.20697684291E+03  0.00000000000E+00 0. -1.
         21    1    1    2  505  501 -0.16600142856E+03  0.59698189405E+02 -0.52842976078E+03  0.55709816027E+03  0.00000000000E+00 0. -1.
          1    1    1    2  501    0  0.24860357609E+02 -0.86063310200E+02  0.38083263333E+03  0.39122682085E+03  0.00000000000E+00 0.  1.
<scales pt_clust_3="66.61849" pt_clust_4="79.27977" pt_clust_5="14000.00000" pt_clust_6="109.92279"></scales>
<clustering>
<clus scale="   66.618">  1  3  2 -1</clus>
<clus scale="   79.280">  2  4  1 -1</clus>
<clus scale="  109.923">  1  6  2 -1</clus>
<clus scale="   79.280">  2  3  1 -1</clus>
</clustering>
</event>
<event>
 6    0  0.3522959E+002  0.8602838E+02  0.7546771E-02  0.1312765E+00
         -1   -1    0    0    0  501 -0.00000000000E+00  0.00000000000E+00  0.75939844245E+02  0.75939844245E+02  0.00000000000E+00 0. -1.
         21   -1    0    0  503  502  0.00000000000E+00 -0.00000000000E+00 -0.64281476658E+03  0.64281476658E+03  0.00000000000E+00 0. -1.
         21    1    1    2  503  504 -0.39331897880E+02 -0.11580314000E+02 -0.92621431827E+02  0.10129082632E+03  0.00000000000E+00 0.  1.
         21    1    1    2  504  505 -0.10678571584E+02 -0.58902112710E+02 -0.44157053377E+03  0.44560972506E+03  0.00000000000E+00 0. -1.
         21    1    1    2  505  501  0.48185969510E+01 -0.34883024724E+02  0.25316483588E+02  0.43370135252E+02  0.00000000000E+00 0. -1.
         -1    1    1    2    0  502  0.45191872513E+02  0.10536545143E+03 -0.57999440321E+02  0.12848392419E+03  0.00000000000E+00 0. -1.
<scales pt_clust_3="41.70442" pt_clust_4="86.02838" pt_clust_5="35.21426" pt_clust_6="14000.00000"></scales>
<clustering>
<clus scale="   35.214">  1  5  2 -1</clus>
<clus scale="   41.704">  2  3  1 -1</clus>
<clus scale="   86.028">  2  4  1 -1</clus>
<clus scale="   41.704">  2  3  1 -1</clus>
</clustering>
</event>
<event>
 6    0  0.3522959E+002  0.8218759E+02  0.7546771E-02  0.1322956E+00
          2   -1    0    0  504    0 -0.00000000000E+00  0.00000000000E+00  0.38861107535E+03  0.38861107535E+03  0.00000000000E+00 0. -1.
         21   -1    0    0  503  502  0.00000000000E+00 -0.00000000000E+00 -0.79923954149E+03  0.79923954149E+03  0.00000000000E+00 0.  1.
         21    1    1    2  503  501 -0.81036011263E+02 -0.13078579547E+02 -0.76680310302E+03  0.77118407865E+03  0.00000000000E+00 0.  1.
         21    1    1    2  504  505  0.14006913655E+02 -0.48576305917E+02  0.22159366505E+02  0.55198629064E+02  0.00000000000E+00 0.  1.
         21    1    1    2  505  502  0.88259207812E+02  0.26014194640E+02  0.18260635029E+03  0.20447861808E+03  0.00000000000E+00 0. -1.
          2    1    1    2  501    0 -0.21230110204E+02  0.35640690824E+02  0.15140892008E+03  0.15698929104E+03  0.00000000000E+00 0. -1.
<scales pt_clust_3="82.18759" pt_clust_4="43.96853" pt_clust_5="14000.00000" pt_clust_6="41.48465"></scales>
<clustering>
<clus scale="   41.485">  1  6  2 -1</clus>
<clus scale="   43.969">  1  4  2 -1</clus>
<clus scale="   82.188">  2  3  1 -1</clus>
<clus scale="   82.188">  2  3  1 -1</clus>
</clustering>
</event>
<event>
 6    0  0.3522959E+002  0.7875891E+02  0.7546771E-02  0.1332611E+00
         -4   -1    0    0    0  501 -0.00000000000E+00  0.00000000000E+00  0.56634041407E+03  0.56634041407E+03  0.00000000000E+00 0.  1.
         21   -1    0    0  505  502  0.00000000000E+00 -0.00000000000E+00 -0.10662286421E+03  0.10662286421E+03  0.00000000000E+00 0. -1.
         21    1    1    2  503  502 -0.11736193748E+02 -0.55117496247E+02  0.78013753003E+02  0.96238361862E+02  0.00000000000E+00 0. -1.
         21    1    1    2  504  501  0.15387145715E+02  0.11570575889E+03  0.12658772732E+03  0.17218896480E+03  0.00000000000E+00 0. -1.
         21    1    1    2  505  504  0.29234933441E+02 -0.51102864344E+02 -0.62045694725E+02  0.85532755780E+02  0.00000000000E+00 0. -1.
         -4    1    1    2    0  503 -0.32885885408E+02 -0.94853982953E+01  0.31716176427E+03  0.31900319584E+03  0.00000000000E+00 0.  1.
<scales pt_clust_3="14000.00000" pt_clust_4="78.75891" pt_clust_5="58.51245" pt_clust_6="34.22651"></scales>
<clustering>
<clus scale="   34.227">  1  6  2 -1</clus>
<clus scale="   58.512">  2  5  1 -1</clus>
<clus scale="   78.759">  2  4  1 -1</clus>
<clus scale="   58.512">  2  3  1 -1</clus>
</clustering>
</event>
<event>
 6    0  0.3522959E+002  0.2174494E+03  0.7546771E-02  0.1135799E+00
          1   -1    0    0  505    0 -0.00000000000E+00  0.00000000000E+00  0.24728957990E+04  0.24728957990E+04  0.00000000000E+00 0. -1.
         21   -1    0    0  504  502  0.00000000000E+00 -0.00000000000E+00 -0.67808105401E+02  0.67808105401E+02  0.00000000000E+00 0.  1.
         21    1    1    2  503  501  0.81947426286E+02  0.24022745167E+01  0.22827431221E+03  0.24254960980E+03  0.00000000000E+00 0. -1.
         21    1    1    2  504  503  0.94802432009E+02 -0.10055423243E+03  0.34413053983E+03  0.37084293604E+03  0.00000000000E+00 0. -1.
         21    1    1    2  505  502 -0.19306381997E+03  0.49928140565E+02  0.16493210492E+03  0.25878380365E+03  0.00000000000E+00 0.  1.
          1    1    1    2  501    0  0.16313961671E+02  0.48223817344E+02  0.16677507366E+04  0.16685275549E+04  0.00000000000E+00 0. -1.
<scales pt_clust_3="72.68697" pt_clust_4="72.68697" pt_clust_5="198.88551" pt_clust_6="50.90856"></scales>
<clustering>
<clus scale="   50.909">  1  6  2 -1</clus>
<clus scale="   72.687">  3  4 -1 -1</clus>
<clus scale="  198.886">  2  5  1 -1</clus>
<clus scale="  198.886">  2  3  1 -1</clus>
</clustering>
</event>
<event>
 6    0  0.3522959E+002  0.2742291E+03  0.7546771E-02  0.1098883E+00
         21   -1    0    0  503  502  0.00000000000E+00  0.00000000000E+00  0.24252509750E+03  0.24252509750E+03  0.00000000000E+00 0.  1.
         -2   -1    0    0    0  501 -0.00000000000E+00 -0.00000000000E+00 -0.12076818918E+04  0.12076818918E+04  0.00000000000E+00 0.  1.
         21    1    1    2  503  501 -0.68224362468E+02  0.26216651307E+03  0.11783643441E+03  0.29541711102E+03  0.00000000000E+00 0.  1.
         21    1    1    2  504  505  0.19548010259E+02 -0.13393591681E+03 -0.28386243551E+03  0.31448185450E+03  0.00000000000E+00 0.  1.
         21    1    1    2  505  502  0.36069769486E+02 -0.10009587959E+03 -0.11959177868E+03  0.16007000628E+03  0.00000000000E+00 0. -1.
         -2    1    1    2    0  504  0.12606582723E+02 -0.28134716667E+02 -0.67953901448E+03  0.68023801746E+03  0.00000000000E+00 0.  1.
<scales pt_clust_3="265.78497" pt_clust_4="58.57286" pt_clust_5="58.57286" pt_clust_6="30.82999"></scales>
<clustering>
<clus scale="   30.830">  2  6  1 -1</clus>
<clus scale="   58.573">  4  5 -1 -1</clus>
<clus scale="  265.785">  1  3  2 -1</clus>
<clus scale="  265.785">  1  3  2 -1</clus>
</clustering>
</event>
<event>
 6    0  0.3522959E+002  0.9716307E+02  0.7546771E-02  0.1286377E+00
         21   -1    0    0  505  502  0.00000000000E+00  0.00000000000E+00  0.14906171301E+04  0.14906171301E+04  0.00000000000E+00 0.  1.
          1   -1    0    0  504    0 -0.00000000000E+00 -0.00000000000E+00 -0.43316273200E+03  0.43316273200E+03  0.00000000000E+00 0. -1.
         21    1    1    2  503  502 -0.75294278654E+02 -0.59401261400E+02  0.10693956068E+04  0.10736874322E+04  0.00000000000E+00 0.  1.
         21    1    1    2  504  503  0.10781985514E+03 -0.30556244064E+02  0.35540495859E+03  0.37265465220E+03  0.00000000000E+00 0.  1.
         21    1    1    2  505  501 -0.21900611673E+02  0.13180449602E+03 -0.29481270412E+02  0.13682546279E+03  0.00000000000E+00 0. -1.
          1    1    1    2  501    0 -0.10624964817E+02 -0.41846990556E+02 -0.33786489689E+03  0.34061231488E+03  0.00000000000E+00 0. -1.
<scales pt_clust_3="96.68947" pt_clust_4="14000.00000" pt_clust_5="97.16307" pt_clust_6="43.17477"></scales>
<clustering>
<clus scale="   43.175">  2  6  1 -1</clus>
<clus scale="   96.689">  1  3  2 -1</clus>
<clus scale="   97.163">  2  5  1 -1</clus>
<clus scale="   96.689">  1  3  2 -1</clus>
</clustering>
</event>
<event>
 6    0  0.3522959E+002  0.8171014E+02  0.7546771E-02  0.1324267E+00
          2   -1    0    0  504    0 -0.00000000000E+00  0.00000000000E+00  0.10930423084E+04  0.10930423084E+04  0.00000000000E+00 0.  1.
         21   -1    0    0  501  502  0.00000000000E+00 -0.00000000000E+00 -0.38842886857E+02  0.38842886857E+02  0.00000000000E+00 0. -1.
         21    1    1    2  503  502 -0.98832168032E+01  0.48017220012E+02  0.55279657246E+02  0.73886209115E+02  0.00000000000E+00 0. -1.
         21    1    1    2  504  505  0.84850733356E+02 -0.63701430291E+02  0.75424394860E+03  0.76167017348E+03  0.00000000000E+00 0. -1.
         21    1    1    2  505  503 -0.68853848580E+02 -0.21555439382E+02  0.29629224304E+02  0.77996027874E+02  0.00000000000E+00 0. -1.
          2    1    1    2  501    0 -0.61136679723E+01  0.37239649661E+02  0.21504659138E+03  0.21833278477E+03  0.00000000000E+00 0.  1.
<scales pt_clust_3="51.80277" pt_clust_4="81.71014" pt_clust_5="14000.00000" pt_clust_6="37.73816"></scales>
<clustering>
<clus scale="   37.738">  1  6  2 -1</clus>
<clus scale="   51.803">  2  3  1 -1</clus>
<clus scale="   81.710">  1  4  2 -1</clus>
<clus scale="   51.803">  2  3  1 -1</clus>
</clustering>
</event>
<event>
 6    0  0.3522959E+002  0.1641741E+03  0.7546771E-02  0.1184063E+00
         -3   -1    0    0    0  501 -0.00000000000E+00  0.00000000000E+00  0.13647865004E+04  0.13647865004E+04  0.00000000000E+00 0. -1.
         21   -1    0    0  503  502  0.00000000000E+00 -0.00000000000E+00 -0.10035608041E+03  0.10035608041E+03  0.00000000000E+00 0.  1.
         21    1    1    2  503  504  0.22809818862E+02 -0.40548835514E+02 -0.23488983190E+02  0.52117446497E+02  0.00000000000E+00 0.  1.
         21    1    1    2  504  501  0.13791704816E+03  0.17575328160E+03  0.55883030247E+03  0.60183189939E+03  0.00000000000E+00 0.  1.
         21    1    1    2  505  502 -0.27878394204E+02 -0.69093192640E+02  0.79307370319E+01  0.74926435404E+02  0.00000000000E+00 0.  1.
         -3    1    1    2    0  505 -0.13284847281E+03 -0.66111253447E+02  0.72115836365E+03  0.73626679949E+03  0.00000000000E+00 0. -1.
<scales pt_clust_3="46.52414" pt_clust_4="164.17409" pt_clust_5="92.14860" pt_clust_6="14000.00000"></scales>
<clustering>
<clus scale="   46.524">  2  3  1 -1</clus>
<clus scale="   92.149">  2  5  1 -1</clus>
<clus scale="  164.174">  2  4  1 -1</clus>
<clus scale="   46.524">  2  3  1 -1</clus>
</clustering>
</event>
<event>
 6    0  0.3522959E+002  0.9486753E+02  0.7546771E-02  0.1291475E+00
         21   -1    0    0  505  502  0.00000000000E+00  0.00000000000E+00  0.20170053251E+03  0.20170053251E+03  0.00000000000E+00 0. -1.
          2   -1    0    0  503    0 -0.00000000000E+00 -0.00000000000E+00 -0.16310578930E+03  0.16310578930E+03  0.00000000000E+00 0. -1.
         21    1    1    2  503  504  0.62381450561E+02  0.96716671250E+02  0.19099054267E+02  0.11666333505E+03  0.00000000000E+00 0. -1.
         21    1    1    2  504  502  0.29953330573E+02  0.54927934220E+01  0.30451068776E+02  0.43065535891E+02  0.00000000000E+00 0. -1.
         21    1    1    2  505  501 -0.46273132817E+02 -0.26149238242E+02  0.67900034278E+02  0.86228766293E+02  0.00000000000E+00 0. -1.
          2    1    1    2  501    0 -0.46061648317E+02 -0.76060226429E+02 -0.78855414113E+02  0.11884868457E+03  0.00000000000E+00 0. -1.
<scales pt_clust_3="14000.00000" pt_clust_4="30.45280" pt_clust_5="39.97553" pt_clust_6="94.86753"></scales>
<clustering>
<clus scale="   30.453">  1  4  2 -1</clus>
<clus scale="   39.976">  1  5  2 -1</clus>
<clus scale="   94.868">  2  6  1 -1</clus>
<clus scale="   30.453">  1  3  2 -1</clus>
</clustering>
</event>
<event>
 6    0  0.3522959E+002  0.9185468E+02  0.7546771E-02  0.1298421E+00
         21   -1    0    0  503  502  0.00000000000E+00  0.00000000000E+00  0.32025759968E+03  0.32025759968E+03  0.00000000000E+00 0.  1.
          1   -1    0    0  504    0 -0.00000000000E+00 -0.00000000000E+00 -0.14215548686E+04  0.14215548686E+04  0.00000000000E+00 0. -1.
         21    1    1    2  503  501  0.34981838546E+02  0.69315845551E+00 -0.17840348304E+02  0.39274514947E+02  0.00000000000E+00 0. -1.
         21    1    1    2  504  505 -0.12621758671E+03  0.22878569660E+02 -0.70483960655E+02  0.14636357762E+03  0.00000000000E+00 0.  1.
         21    1    1    2  505  502  0.51526287350E+02  0.76120371302E+01  0.26860188843E+03  0.27360532865E+03  0.00000000000E+00 0.  1.
          1    1    1    2  501    0  0.39709460809E+02 -0.31183765246E+02 -0.12815748483E+04  0.12825690470E+04  0.00000000000E+00 0. -1.
<scales pt_clust_3="34.98871" pt_clust_4="14000.00000" pt_clust_5="91.85468" pt_clust_6="50.53379"></scales>
<clustering>
<clus scale="   34.989">  1  3  2 -1</clus>
<clus scale="   50.534">  2  6  1 -1</clus>
<clus scale="   91.855">  1  5  2 -1</clus>
<clus scale="   34.989">  1  3  2 -1</clus>
</clustering>
</event>
<event>
 6    0  0.3522959E+002  0.1271407E+03  0.7546771E-02  0.1231761E+00
          2   -1    0    0  504    0 -0.00000000000E+00  0.00000000000E+00  0.20970927752E+04  0.20970927752E+04  0.00000000000E+00 0.  1.
         21   -1    0    0  503  502  0.00000000000E+00 -0.00000000000E+00 -0.95193977196E+02  0.95193977196E+02  0.00000000000E+00 0.  1.
         21    1    1    2  503  505  0.86415528839E+02  0.13400198268E+03  0.15582430533E+02  0.16020919801E+03  0.00000000000E+00 0.  1.
         21    1    1    2  504  502 -0.63589568928E+01 -0.31121618541E+02  0.29695237746E+01  0.31903127508E+02  0.00000000000E+00 0. -1.
         21    1    1    2  505  501  0.33018449905E+02 -0.11574228123E+03  0.58786437006E+03  0.60005917315E+03  0.00000000000E+00 0.  1.
          2    1    1    2  501    0 -0.11307502185E+03  0.12861917090E+02  0.13954824736E+04  0.14001152537E+04  0.00000000000E+00 0.  1.
<scales pt_clust_3="127.14068" pt_clust_4="31.76463" pt_clust_5="14000.00000" pt_clust_6="113.88816"></scales>
<clustering>
<clus scale="   31.765">  2  4  1 -1</clus>
<clus scale="  113.888">  1  6  2 -1</clus>
<clus scale="  127.141">  2  3  1 -1</clus>
<clus scale="   31.765">  2  3  1 -1</clus>
</clustering>
</event>
<event>
 6    0  0.3522959E+002  0.1582700E+03  0.7546771E-02  0.1190664E+00
         -3   -1    0    0    0  501 -0.00000000000E+00  0.00000000000E+00  0.18939812888E+04  0.18939812888E+04  0.00000000000E+00 0. -1.
         21   -1    0    0  501  502  0.00000000000E+00 -0.00000000000E+00 -0.63821937000E+02  0.63821937000E+02  0.00000000000E+00 0. -1.
         21    1    1    2  503  505  0.68248193895E+02  0.41863691719E+02  0.50410449415E+02  0.94612885298E+02  0.00000000000E+00 0. -1.
         21    1    1    2  504  503 -0.71893307012E+02 -0.70793014492E+02  0.47863506936E+03  0.48915419667E+03  0.00000000000E+00 0. -1.
         21    1    1    2  505  502  0.59426275691E+02  0.65886668419E+02  0.19714748222E+02  0.90891180074E+02  0.00000000000E+00 0. -1.
         -3    1    1    2    0  504 -0.55781162574E+02 -0.36957345646E+02  0.12813990848E+04  0.12831449638E+04  0.00000000000E+00 0. -1.
<scales pt_clust_3="37.79850" pt_clust_4="153.18649" pt_clust_5="37.79850" pt_clust_6="66.91325"></scales>
<clustering>
<clus scale="   37.799">  3  5 -1 -1</clus>
<clus scale="   66.913">  1  6  2 -1</clus>
<clus scale="  153.186">  1  4  2 -1</clus>
<clus scale="  158.270">  2  3  1 -1</clus>
</clustering>
</event>
<event>
 6    0  0.3522959E+002  0.1379380E+03  0.7546771E-02  0.1216131E+00
          1   -1    0    0  503    0 -0.00000000000E+00  0.00000000000E+00  0.20886734924E+04  0.20886734924E+04  0.00000000000E+00 0.  1.
         21   -1    0    0  504  502  0.00000000000E+00 -0.00000000000E+00 -0.32478134887E+02  0.32478134887E+02  0.00000000000E+00 0.  1.
         21    1    1    2  503  502  0.18349538733E+02  0.41022887809E+02  0.10761556575E+03  0.11662200859E+03  0.00000000000E+00 0.  1.
         21    1    1    2  504  505 -0.25786308828E+02 -0.19894126808E+02 -0.35516052672E+01  0.32761622432E+02  0.00000000000E+00 0.  1.
         21    1    1    2  505  501  0.14187619499E+03 -0.71990370497E+01  0.94979540697E+03  0.96036034692E+03  0.00000000000E+00 0.  1.
          1    1    1    2  501    0 -0.13443942490E+03 -0.13929723952E+02  0.10023359901E+04  0.10114076494E+04  0.00000000000E+00 0.  1.
<scales pt_clust_3="36.24444" pt_clust_4="32.56854" pt_clust_5="137.93805" pt_clust_6="14000.00000"></scales>
<clustering>
<clus scale="   32.569">  2  4  1 -1</clus>
<clus scale="   36.244">  2  3  1 -1</clus>
<clus scale="  137.938">  2  5  1 -1</clus>
<clus scale="   32.569">  2  3  1 -1</clus>
</clustering>
</event>
<event>
 6    0  0.3522959E+002  0.9424641E+02  0.7546771E-02  0.1292882E+00
         21   -1    0    0  503  502  0.00000000000E+00  0.00000000000E+00  0.18028917098E+03  0.18028917098E+03  0.00000000000E+00 0. -1.
          1   -1    0    0  505    0 -0.00000000000E+00 -0.00000000000E+00 -0.30046380618E+03  0.30046380618E+03  0.00000000000E+00 0. -1.
         21    1    1    2  503  501  0.31088157640E+02  0.67763658190E+00  0.10139428252E+03  0.10605533114E+03  0.00000000000E+00 0. -1.
         21    1    1    2  504  502 -0.19516851970E+02  0.31216096087E+02  0.37383286887E+02  0.52467726311E+02  0.00000000000E+00 0. -1.
         21    1    1    2  505  504 -0.17067265914E+02  0.78409821073E+02 -0.92310744912E+02  0.12231379821E+03  0.00000000000E+00 0. -1.
          1    1    1    2  501    0  0.54959602447E+01 -0.11030355374E+03 -0.16664145970E+03  0.19991612150E+03  0.00000000000E+00 0. -1.
<scales pt_clust_3="31.09554" pt_clust_4="31.63942" pt_clust_5="14000.00000" pt_clust_6="94.24641"></scales>
<clustering>
<clus scale="   31.096">  1  3  2 -1</clus>
<clus scale="   31.639">  1  4  2 -1</clus>
<clus scale="   94.246">  1  6  2 -1</clus>
<clus scale="   31.096">  1  3  2 -1</clus>
</clustering>
</event>
<event>
 6    0  0.3522959E+002  0.1138358E+03  0.7546771E-02  0.1253627E+00
          2   -1    0    0  504    0 -0.00000000000E+00  0.00000000000E+00  0.13954232823E+03  0.13954232823E+03  0.00000000000E+00 0.  1.
         21   -1    0    0  505  502  0.00000000000E+00 -0.00000000000E+00 -0.43312314515E+03  0.43312314515E+03  0.00000000000E+00 0. -1.
         21    1    1    2  503  502  0.25178215273E+02 -0.40038360561E+02 -0.16107246659E+03  0.16787302444E+03  0.00000000000E+00 0. -1.
         21    1    1    2  504  503  0.25103211582E+02 -0.72595161688E+02 -0.52627724190E+02  0.93112330471E+02  0.00000000000E+00 0. -1.
         21    1    1    2  505  501 -0.99649500978E+02  0.14026591568E+03 -0.14529070225E+03  0.22519755395E+03  0.00000000000E+00 0. -1.
          2    1    1    2  501    0  0.49368074123E+02 -0.27632393433E+02  0.65410076101E+02  0.86482564514E+02  0.00000000000E+00 0.  1.
<scales pt_clust_3="47.29707" pt_clust_4="14000.00000" pt_clust_5="113.83578" pt_clust_6="58.21062"></scales>
<clustering>
<clus scale="   47.297">  2  3  1 -1</clus>
<clus scale="   58.211">  1  6  2 -1</clus>
<clus scale="  113.836">  2  5  1 -1</clus>
<clus scale="   47.297">  2  3  1 -1</clus>
</clustering>
</event>
<event>
 6    0  0.3522959E+002  0.1464603E+03  0.7546771E-02  0.1204891E+00
         21   -1    0    0  505  502  0.00000000000E+00  0.00000000000E+00  0.15897760975E+04  0.15897760975E+04  0.00000000000E+00 0.  1.
          4   -1    0    0  503    0 -0.00000000000E+00 -0.00000000000E+00 -0.20948738568E+03  0.20948738568E+03  0.00000000000E+00 0.  1.
         21    1    1    2  503  502 -0.33203048991E+01  0.48495081848E+02  0.28904864955E+03  0.29310735097E+03  0.00000000000E+00 0.  1.
         21    1    1    2  504  501  0.37880225219E+02 -0.72153102227E+02  0.40608637381E+03  0.41418247744E+03  0.00000000000E+00 0.  1.
         21    1    1    2  505  504  0.20183896814E+02 -0.99776977501E+02  0.86282762288E+03  0.86881202900E+03  0.00000000000E+00 0.  1.
          4    1    1    2  501    0 -0.54743817133E+02  0.12343499788E+03 -0.17767393445E+03  0.22316162573E+03  0.00000000000E+00 0.  1.
<scales pt_clust_3="48.60861" pt_clust_4="53.96071" pt_clust_5="53.96071" pt_clust_6="135.83018"></scales>
<clustering>
<clus scale="   48.609">  1  3  2 -1</clus>
<clus scale="   53.961">  4  5 -1 -1</clus>
<clus scale="  135.830">  2  6  1 -1</clus>
<clus scale="   48.609">  1  3  2 -1</clus>
</clustering>
</event>
<event>
 6    0  0.3522959E+002  0.1307446E+03  0.7546771E-02  0.1226355E+00
         21   -1    0    0  503  502  0.00000000000E+00  0.00000000000E+00  0.31203106785E+03  0.31203106785E+03  0.00000000000E+00 0.  1.
          2   -1    0    0  504    0 -0.00000000000E+00 -0.00000000000E+00 -0.26508331008E+03  0.26508331008E+03  0.00000000000E+00 0. -1.
         21    1    1    2  503  501  0.11226028761E+02 -0.50823387353E+02  0.10542210679E+03  0.11757066396E+03  0.00000000000E+00 0.  1.
         21    1    1    2  504  505  0.29639536957E+02  0.99403785814E+02 -0.24574302920E+02  0.10659977087E+03  0.00000000000E+00 0. -1.
         21    1    1    2  505  502  0.10179270299E+03 -0.46289011990E+02  0.10530960180E+03  0.15360514068E+03  0.00000000000E+00 0.  1.
          2    1    1    2  501    0 -0.14265826870E+03 -0.22913864701E+01 -0.13920964791E+03  0.19933880242E+03  0.00000000000E+00 0. -1.
<scales pt_clust_3="52.04844" pt_clust_4="94.56517" pt_clust_5="130.74456" pt_clust_6="14000.00000"></scales>
<clustering>
<clus scale="   52.048">  1  3  2 -1</clus>
<clus scale="   94.565">  2  4  1 -1</clus>
<clus scale="  130.745">  1  5  2 -1</clus>
<clus scale="   52.048">  1  3  2 -1</clus>
</clustering>
</event>
<event>
 6    0  0.3522959E+002  0.1080976E+03  0.7546771E-02  0.1264134E+00
          3   -1    0    0  503    0 -0.00000000000E+00  0.00000000000E+00  0.41090872562E+04  0.41090872562E+04  0.00000000000E+00 0.  1.
         21   -1    0    0  504  502  0.00000000000E+00 -0.00000000000E+00 -0.51243374769E+02  0.51243374769E+02  0.00000000000E+00 0. -1.
         21    1    1    2  503  502  0.35176238585E+02  0.90302989143E+02  0.40710992435E+02  0.10511604309E+03  0.00000000000E+00 0. -1.
         21    1    1    2  504  505 -0.68973601023E+02  0.82422366498E+01  0.47636475649E+02  0.84229008751E+02  0.00000000000E+00 0. -1.
         21    1    1    2  505  501  0.31298389297E+02 -0.44334269619E+02  0.18632065831E+04  0.18639967511E+04  0.00000000000E+00 0.  1.
          3    1    1    2  501    0  0.24989731416E+01 -0.54210956173E+02  0.21062898302E+04  0.21069888281E+04  0.00000000000E+00 0.  1.
<scales pt_clust_3="103.50755" pt_clust_4="69.46432" pt_clust_5="31.16510" pt_clust_6="31.16510"></scales>
<clustering>
<clus scale="   31.165">  5  6 -1 -1</clus>
<clus scale="   69.464">  2  4  1 -1</clus>
<clus scale="  103.508">  2  3  1 -1</clus>
<clus scale="   69.464">  2  3  1 -1</clus>
</clustering>
</event>
<event>
 6    0  0.3522959E+002  0.2950820E+03  0.7546771E-02  0.1087725E+00
         21   -1    0    0  503  502  0.00000000000E+00  0.00000000000E+00  0.12076274984E+04  0.12076274984E+04  0.00000000000E+00 0. -1.
          4   -1    0    0  504    0 -0.00000000000E+00 -0.00000000000E+00 -0.24803988885E+03  0.24803988885E+03  0.00000000000E+00 0. -1.
         21    1    1    2  503  505  0.22403693973E+03 -0.28997787051E+02  0.78177229768E+03  0.81375754831E+03  0.00000000000E+00 0. -1.
         21    1    1    2  504  502 -0.18405062879E+03  0.11238884727E+03 -0.84414851344E+02  0.23158530626E+03  0.00000000000E+00 0. -1.
         21    1    1    2  505  501  0.74637887702E+02  0.33709819547E+02  0.22889413084E+03  0.24310427670E+03  0.00000000000E+00 0. -1.
          4    1    1    2  501    0 -0.11462419865E+03 -0.11710087977E+03  0.33336032384E+02  0.16722025599E+03  0.00000000000E+00 0. -1.
<scales pt_clust_3="47.72000" pt_clust_4="284.23926" pt_clust_5="47.72000" pt_clust_6="163.86373"></scales>
<clustering>
<clus scale="   47.720">  3  5 -1 -1</clus>
<clus scale="  163.864">  2  6  1 -1</clus>
<clus scale="  284.239">  2  4  1 -1</clus>
<clus scale="  295.082">  1  3  2 -1</clus>
</clustering>
</event>
<event>
 6    0  0.3522959E+002  0.9860963E+02  0.7546771E-02  0.1283247E+00
         21   -1    0    0  503  502  0.00000000000E+00  0.00000000000E+00  0.39218264036E+03  0.39218264036E+03  0.00000000000E+00 0. -1.
         -2   -1    0    0    0  501 -0.00000000000E+00 -0.00000000000E+00 -0.42062756172E+03  0.42062756172E+03  0.00000000000E+00 0. -1.
         21    1    1    2  503  504  0.50784306135E+02 -0.58128076701E+02  0.90603247714E+02  0.11902465101E+03  0.00000000000E+00 0. -1.
         21    1    1    2  504  501  0.21156327433E+02 -0.81272187240E+02 -0.11464087502E+02  0.84759565310E+02  0.00000000000E+00 0. -1.
         21    1    1    2  505  502 -0.13148619188E+03  0.49662438337E+02  0.22174357788E+03  0.26253607518E+03  0.00000000000E+00 0. -1.
         -2    1    1    2    0  505  0.59545558317E+02  0.89737825604E+02 -0.32932765945E+03  0.34648991059E+03  0.00000000000E+00 0. -1.
<scales pt_clust_3="77.18756" pt_clust_4="14000.00000" pt_clust_5="88.69744" pt_clust_6="98.60963"></scales>
<clustering>
<clus scale="   77.188">  1  3  2 -1</clus>
<clus scale="   88.697">  1  5  2 -1</clus>
<clus scale="   98.610">  2  6  1 -1</clus>
<clus scale="   77.188">  1  3  2 -1</clus>
</clustering>
</event>
<event>
 6    0  0.3522959E+002  0.2914528E+03  0.7546771E-02  0.1089593E+00
          2   -1    0    0  503    0 -0.00000000000E+00  0.00000000000E+00  0.74702814456E+03  0.74702814456E+03  0.00000000000E+00 0.  1.
         21   -1    0    0  504  502  0.00000000000E+00 -0.00000000000E+00 -0.22366385003E+03  0.22366385003E+03  0.00000000000E+00 0.  1.
         21    1    1    2  503  505 -0.54292109020E+02  0.62596992603E+02 -0.22219648552E+02  0.85788865050E+02  0.00000000000E+00 0. -1.
         21    1    1    2  504  501  0.18217634385E+03 -0.23437865442E+03  0.21933651785E+03  0.36909359513E+03  0.00000000000E+00 0.  1.
         21    1    1    2  505  502 -0.14943844634E+03  0.13544221794E+03  0.15582950648E+02  0.20228512549E+03  0.00000000000E+00 0.  1.
          2    1    1    2  501    0  0.21554211503E+02  0.36339443878E+02  0.31066447458E+03  0.31352440891E+03  0.00000000000E+00 0.  1.
<scales pt_clust_3="30.17967" pt_clust_4="287.62448" pt_clust_5="30.17967" pt_clust_6="42.25091"></scales>
<clustering>
<clus scale="   30.180">  3  5 -1 -1</clus>
<clus scale="   42.251">  1  6  2 -1</clus>
<clus scale="  287.624">  1  4  2 -1</clus>
<clus scale="  291.453">  2  3  1 -1</clus>
</clustering>
</event>
<event>
 6    0  0.3522959E+002  0.1298044E+03  0.7546771E-02  0.1227746E+00
          2   -1    0    0  502    0 -0.00000000000E+00  0.00000000000E+00  0.29228912894E+03  0.29228912894E+03  0.00000000000E+00 0. -1.
         21   -1    0    0  504  502  0.00000000000E+00 -0.00000000000E+00 -0.49229598396E+03  0.49229598396E+03  0.00000000000E+00 0. -1.
         21    1    1    2  503  505  0.10964251928E+03  0.21967165275E+02 -0.35815345193E+03  0.37520385594E+03  0.00000000000E+00 0. -1.
         21    1    1    2  504  503  0.42226687770E+01  0.37437692192E+02 -0.63457048927E+02  0.73798433498E+02  0.00000000000E+00 0. -1.
         21    1    1    2  505  501 -0.14660477856E+03 -0.68816604110E+02  0.63672914145E+02  0.17401990143E+03  0.00000000000E+00 0. -1.
          2    1    1    2  501    0  0.32739590501E+02  0.94117466430E+01  0.15793073169E+03  0.16156292203E+03  0.00000000000E+00 0. -1.
<scales pt_clust_3="14000.00000" pt_clust_4="38.20283" pt_clust_5="129.80438" pt_clust_6="34.06555"></scales>
<clustering>
<clus scale="   34.066">  1  6  2 -1</clus>
<clus scale="   38.203">  2  4  1 -1</clus>
<clus scale="  129.804">  1  5  2 -1</clus>
<clus scale="   38.203">  2  3  1 -1</clus>
</clustering>
</event>
