<event>
 4    0  0.2225052E-002  0.1641099E+03  0.7546771E-02  0.1184133E+00
         21   -1    0    0  502  501  0.00000000000E+00  0.00000000000E+00  0.15764058302E+03  0.15764058302E+03  0.00000000000E+00 0. -1.
         21   -1    0    0  501  502 -0.00000000000E+00 -0.00000000000E+00 -0.17084461364E+03  0.17084461364E+03  0.00000000000E+00 0. -1.
         25    1    1    2    0    0 -0.15941007077E+02  0.18800361778E+02  0.96919920215E+02  0.16008135508E+03  0.12500000000E+03 0.  0.
         25    1    1    2    0    0  0.15941007077E+02 -0.18800361778E+02 -0.11012395084E+03  0.16840384158E+03  0.12500000000E+03 0.  0.
</event>
<event>
 4    0  0.2225052E-002  0.2065259E+03  0.7546771E-02  0.1144347E+00
         21   -1    0    0  502  501  0.00000000000E+00  0.00000000000E+00  0.43648997204E+03  0.43648997204E+03  0.00000000000E+00 0.  1.
         21   -1    0    0  501  502 -0.00000000000E+00 -0.00000000000E+00 -0.97718018361E+02  0.97718018361E+02  0.00000000000E+00 0.  1.
         25    1    1    2    0    0 -0.26430316693E+02  0.13546549416E+03  0.53863678001E+02  0.19384467379E+03  0.12500000000E+03 0.  0.
         25    1    1    2    0    0  0.26430316693E+02 -0.13546549416E+03  0.28490827568E+03  0.34036331662E+03  0.12500000000E+03 0.  0.
</event>
<event>
 4    0  0.2225052E-002  0.2073571E+03  0.7546771E-02  0.1143676E+00
         21   -1    0    0  502  501  0.00000000000E+00  0.00000000000E+00  0.41929429312E+03  0.41929429312E+03  0.00000000000E+00 0. -1.
         21   -1    0    0  501  502 -0.00000000000E+00 -0.00000000000E+00 -0.10254598662E+03  0.10254598662E+03  0.00000000000E+00 0. -1.
         25    1    1    2    0    0 -0.80215908655E+01 -0.13273014653E+03  0.34506585017E+02  0.18573460132E+03  0.12500000000E+03 0.  0.
         25    1    1    2    0    0  0.80215908655E+01  0.13273014653E+03  0.28224172149E+03  0.33610567842E+03  0.12500000000E+03 0.  0.
</event>
<event>
 4    0  0.2225052E-002  0.2438630E+03  0.7546771E-02  0.1117246E+00
         21   -1    0    0  502  501  0.00000000000E+00  0.00000000000E+00  0.18289748250E+03  0.18289748250E+03  0.00000000000E+00 0. -1.
         21   -1    0    0  501  502 -0.00000000000E+00 -0.00000000000E+00 -0.32515029299E+03  0.32515029299E+03  0.00000000000E+00 0. -1.
         25    1    1    2    0    0  0.45325479338E+02 -0.19922300827E+03 -0.23391668007E+02  0.24065821456E+03  0.12500000000E+03 0.  0.
         25    1    1    2    0    0 -0.45325479338E+02  0.19922300827E+03 -0.11886114248E+03  0.26738956093E+03  0.12500000000E+03 0.  0.
</event>
<event>
 4    0  0.2225052E-002  0.1817640E+03  0.7546771E-02  0.1166107E+00
         21   -1    0    0  502  501  0.00000000000E+00  0.00000000000E+00  0.16496479449E+03  0.16496479449E+03  0.00000000000E+00 0. -1.
         21   -1    0    0  501  502 -0.00000000000E+00 -0.00000000000E+00 -0.20027397505E+03  0.20027397505E+03  0.00000000000E+00 0. -1.
         25    1    1    2    0    0 -0.14229718740E+02 -0.89145269973E+02 -0.11435612293E+03  0.19196793197E+03  0.12500000000E+03 0.  0.
         25    1    1    2    0    0  0.14229718740E+02  0.89145269973E+02  0.79046942366E+02  0.17327083757E+03  0.12500000000E+03 0.  0.
</event>
<event>
 4    0  0.2225052E-002  0.2060546E+03  0.7546771E-02  0.1144729E+00
         21   -1    0    0  502  501  0.00000000000E+00  0.00000000000E+00  0.31745830297E+03  0.31745830297E+03  0.00000000000E+00 0. -1.
         21   -1    0    0  501  502 -0.00000000000E+00 -0.00000000000E+00 -0.13374516641E+03  0.13374516641E+03  0.00000000000E+00 0. -1.
         25    1    1    2    0    0  0.15541622717E+03  0.41595299821E+02  0.12558727119E+03  0.23933561231E+03  0.12500000000E+03 0.  0.
         25    1    1    2    0    0 -0.15541622717E+03 -0.41595299821E+02  0.58125865367E+02  0.21186785707E+03  0.12500000000E+03 0.  0.
</event>
<event>
 4    0  0.2225052E-002  0.2023917E+03  0.7546771E-02  0.1147737E+00
         21   -1    0    0  502  501  0.00000000000E+00  0.00000000000E+00  0.18331433914E+03  0.18331433914E+03  0.00000000000E+00 0. -1.
         21   -1    0    0  501  502 -0.00000000000E+00 -0.00000000000E+00 -0.22345438451E+03  0.22345438451E+03  0.00000000000E+00 0. -1.
         25    1    1    2    0    0  0.81094505932E+02 -0.12462151275E+03  0.37046702527E+02  0.19774806826E+03  0.12500000000E+03 0.  0.
         25    1    1    2    0    0 -0.81094505932E+02  0.12462151275E+03 -0.77186747896E+02  0.20902065540E+03  0.12500000000E+03 0.  0.
</event>
<event>
 4    0  0.2225052E-002  0.2384349E+03  0.7546771E-02  0.1120840E+00
         21   -1    0    0  502  501  0.00000000000E+00  0.00000000000E+00  0.33883129757E+03  0.33883129757E+03  0.00000000000E+00 0. -1.
         21   -1    0    0  501  502 -0.00000000000E+00 -0.00000000000E+00 -0.16778614253E+03  0.16778614253E+03  0.00000000000E+00 0. -1.
         25    1    1    2    0    0  0.68750934624E+02 -0.33361373882E+02  0.28537033943E+03  0.32078170600E+03  0.12500000000E+03 0.  0.
         25    1    1    2    0    0 -0.68750934624E+02  0.33361373882E+02 -0.11432518439E+03  0.18583573409E+03  0.12500000000E+03 0.  0.
</event>
<event>
 4    0  0.2225052E-002  0.2596761E+03  0.7546771E-02  0.1107338E+00
         21   -1    0    0  502  501  0.00000000000E+00  0.00000000000E+00  0.18022901772E+03  0.18022901772E+03  0.00000000000E+00 0.  1.
         21   -1    0    0  501  502 -0.00000000000E+00 -0.00000000000E+00 -0.37414447617E+03  0.37414447617E+03  0.00000000000E+00 0.  1.
         25    1    1    2    0    0  0.12888442480E+02 -0.21999536777E+03 -0.36173865140E+02  0.25592503260E+03  0.12500000000E+03 0.  0.
         25    1    1    2    0    0 -0.12888442480E+02  0.21999536777E+03 -0.15774159330E+03  0.29844846129E+03  0.12500000000E+03 0.  0.
</event>
<event>
 4    0  0.2225052E-002  0.1565782E+03  0.7546771E-02  0.1192615E+00
         21   -1    0    0  502  501  0.00000000000E+00  0.00000000000E+00  0.17056751246E+03  0.17056751246E+03  0.00000000000E+00 0. -1.
         21   -1    0    0  501  502 -0.00000000000E+00 -0.00000000000E+00 -0.14373621577E+03  0.14373621577E+03  0.00000000000E+00 0. -1.
         25    1    1    2    0    0 -0.68393993684E+02  0.21520166652E+02  0.74884407399E+02  0.16239929315E+03  0.12500000000E+03 0.  0.
         25    1    1    2    0    0  0.68393993684E+02 -0.21520166652E+02 -0.48053110711E+02  0.15190443507E+03  0.12500000000E+03 0.  0.
</event>
<event>
 4    0  0.2225052E-002  0.1881626E+03  0.7546771E-02  0.1160129E+00
         21   -1    0    0  502  501  0.00000000000E+00  0.00000000000E+00  0.56555984146E+03  0.56555984146E+03  0.00000000000E+00 0.  1.
         21   -1    0    0  501  502 -0.00000000000E+00 -0.00000000000E+00 -0.62601950849E+02  0.62601950849E+02  0.00000000000E+00 0.  1.
         25    1    1    2    0    0 -0.13017224935E+03  0.20295154323E+02  0.16930680754E+03  0.24828713795E+03  0.12500000000E+03 0.  0.
         25    1    1    2    0    0  0.13017224935E+03 -0.20295154323E+02  0.33365108307E+03  0.37987465436E+03  0.12500000000E+03 0.  0.
</event>
<event>
 4    0  0.2225052E-002  0.1773497E+03  0.7546771E-02  0.1170393E+00
         21   -1    0    0  502  501  0.00000000000E+00  0.00000000000E+00  0.94867600913E+02  0.94867600913E+02  0.00000000000E+00 0. -1.
         21   -1    0    0  501  502 -0.00000000000E+00 -0.00000000000E+00 -0.33154553235E+03  0.33154553235E+03  0.00000000000E+00 0. -1.
         25    1    1    2    0    0  0.40208130448E+02  0.54912276555E+02  0.88645439716E+01  0.14260305751E+03  0.12500000000E+03 0.  0.
         25    1    1    2    0    0 -0.40208130448E+02 -0.54912276555E+02 -0.24554247541E+03  0.28381007576E+03  0.12500000000E+03 0.  0.
</event>
<event>
 4    0  0.2225052E-002  0.2361370E+03  0.7546771E-02  0.1122393E+00
         21   -1    0    0  502  501  0.00000000000E+00  0.00000000000E+00  0.28435753446E+03  0.28435753446E+03  0.00000000000E+00 0.  1.
         21   -1    0    0  501  502 -0.00000000000E+00 -0.00000000000E+00 -0.19609357625E+03  0.19609357625E+03  0.00000000000E+00 0.  1.
         25    1    1    2    0    0 -0.13305045075E+03  0.13128873338E+03 -0.29203131564E+02  0.22675311872E+03  0.12500000000E+03 0.  0.
         25    1    1    2    0    0  0.13305045075E+03 -0.13128873338E+03  0.11746708978E+03  0.25369799199E+03  0.12500000000E+03 0.  0.
</event>
<event>
 4    0  0.2225052E-002  0.2047464E+03  0.7546771E-02  0.1145795E+00
         21   -1    0    0  502  501  0.00000000000E+00  0.00000000000E+00  0.19960463458E+03  0.19960463458E+03  0.00000000000E+00 0.  1.
         21   -1    0    0  501  502 -0.00000000000E+00 -0.00000000000E+00 -0.21002067494E+03  0.21002067494E+03  0.00000000000E+00 0.  1.
         25    1    1    2    0    0  0.96055492507E+02 -0.97111753646E+02  0.82220190975E+02  0.20258951143E+03  0.12500000000E+03 0.  0.
         25    1    1    2    0    0 -0.96055492507E+02  0.97111753646E+02 -0.92636231331E+02  0.20703579809E+03  0.12500000000E+03 0.  0.
</event>
<event>
 4    0  0.2225052E-002  0.2630729E+03  0.7546771E-02  0.1105311E+00
         21   -1    0    0  502  501  0.00000000000E+00  0.00000000000E+00  0.60407374423E+03  0.60407374423E+03  0.00000000000E+00 0. -1.
         21   -1    0    0  501  502 -0.00000000000E+00 -0.00000000000E+00 -0.11456769407E+03  0.11456769407E+03  0.00000000000E+00 0. -1.
         25    1    1    2    0    0  0.18209656115E+03  0.14268943218E+03  0.23392008580E+03  0.35194181078E+03  0.12500000000E+03 0.  0.
         25    1    1    2    0    0 -0.18209656115E+03 -0.14268943218E+03  0.25558596436E+03  0.36669962751E+03  0.12500000000E+03 0.  0.
</event>
<event>
 4    0  0.2225052E-002  0.1983869E+03  0.7546771E-02  0.1151107E+00
         21   -1    0    0  502  501  0.00000000000E+00  0.00000000000E+00  0.36086907591E+03  0.36086907591E+03  0.00000000000E+00 0. -1.
         21   -1    0    0  501  502 -0.00000000000E+00 -0.00000000000E+00 -0.10906272215E+03  0.10906272215E+03  0.00000000000E+00 0. -1.
         25    1    1    2    0    0 -0.46487061244E+02  0.14528462255E+03  0.15140717133E+03  0.24863185626E+03  0.12500000000E+03 0.  0.
         25    1    1    2    0    0  0.46487061244E+02 -0.14528462255E+03  0.10039918242E+03  0.22129994181E+03  0.12500000000E+03 0.  0.
</event>
<event>
 4    0  0.2225052E-002  0.2044834E+03  0.7546771E-02  0.1146011E+00
         21   -1    0    0  502  501  0.00000000000E+00  0.00000000000E+00  0.50325050025E+03  0.50325050025E+03  0.00000000000E+00 0. -1.
         21   -1    0    0  501  502 -0.00000000000E+00 -0.00000000000E+00 -0.83086807227E+02  0.83086807227E+02  0.00000000000E+00 0. -1.
         25    1    1    2    0    0  0.77312555267E+02 -0.10801906456E+03  0.34259770094E+03  0.38812824453E+03  0.12500000000E+03 0.  0.
         25    1    1    2    0    0 -0.77312555267E+02  0.10801906456E+03  0.77565992087E+02  0.19820906296E+03  0.12500000000E+03 0.  0.
</event>
<event>
 4    0  0.2225052E-002  0.1916187E+03  0.7546771E-02  0.1157009E+00
         21   -1    0    0  502  501  0.00000000000E+00  0.00000000000E+00  0.20965306285E+02  0.20965306285E+02  0.00000000000E+00 0. -1.
         21   -1    0    0  501  502 -0.00000000000E+00 -0.00000000000E+00 -0.17513570119E+04  0.17513570119E+04  0.00000000000E+00 0. -1.
         25    1    1    2    0    0  0.40090661982E+02  0.12393606618E+03 -0.11622283218E+04  0.11761662645E+04  0.12500000000E+03 0.  0.
         25    1    1    2    0    0 -0.40090661982E+02 -0.12393606618E+03 -0.56816338387E+03  0.59615605377E+03  0.12500000000E+03 0.  0.
</event>
<event>
 4    0  0.2225052E-002  0.2107158E+03  0.7546771E-02  0.1141000E+00
         21   -1    0    0  502  501  0.00000000000E+00  0.00000000000E+00  0.34194459234E+02  0.34194459234E+02  0.00000000000E+00 0. -1.
         21   -1    0    0  501  502 -0.00000000000E+00 -0.00000000000E+00 -0.12984894502E+04  0.12984894502E+04  0.00000000000E+00 0. -1.
         25    1    1    2    0    0  0.86135729099E+02  0.13436130056E+02 -0.10923241848E+04  0.11029039025E+04  0.12500000000E+03 0.  0.
         25    1    1    2    0    0 -0.86135729099E+02 -0.13436130056E+02 -0.17197080615E+03  0.22978000694E+03  0.12500000000E+03 0.  0.
</event>
<event>
 4    0  0.2225052E-002  0.5106017E+03  0.7546771E-02  0.1011048E+00
         21   -1    0    0  502  501  0.00000000000E+00  0.00000000000E+00  0.46587469105E+03  0.46587469105E+03  0.00000000000E+00 0.  1.
         21   -1    0    0  501  502 -0.00000000000E+00 -0.00000000000E+00 -0.55962287409E+03  0.55962287409E+03  0.00000000000E+00 0.  1.
         25    1    1    2    0    0  0.86737694663E+02 -0.34847082446E+03  0.29534296430E+03  0.48146423516E+03  0.12500000000E+03 0.  0.
         25    1    1    2    0    0 -0.86737694663E+02  0.34847082446E+03 -0.38909114735E+03  0.54403332998E+03  0.12500000000E+03 0.  0.
</event>
<event>
 4    0  0.2225052E-002  0.1920989E+03  0.7546771E-02  0.1156582E+00
         21   -1    0    0  502  501  0.00000000000E+00  0.00000000000E+00  0.36319064797E+03  0.36319064797E+03  0.00000000000E+00 0. -1.
         21   -1    0    0  501  502 -0.00000000000E+00 -0.00000000000E+00 -0.10160502339E+03  0.10160502339E+03  0.00000000000E+00 0. -1.
         25    1    1    2    0    0  0.46453621857E+02  0.13818460769E+03  0.12485754005E+03  0.22905748208E+03  0.12500000000E+03 0.  0.
         25    1    1    2    0    0 -0.46453621857E+02 -0.13818460769E+03  0.13672808453E+03  0.23573818928E+03  0.12500000000E+03 0.  0.
</event>
<event>
 4    0  0.2225052E-002  0.3167605E+03  0.7546771E-02  0.1077150E+00
         21   -1    0    0  502  501  0.00000000000E+00  0.00000000000E+00  0.33094219817E+03  0.33094219817E+03  0.00000000000E+00 0. -1.
         21   -1    0    0  501  502 -0.00000000000E+00 -0.00000000000E+00 -0.30318657791E+03  0.30318657791E+03  0.00000000000E+00 0. -1.
         25    1    1    2    0    0 -0.20746593088E+03  0.12377208937E+02 -0.19007467202E+03  0.30813745102E+03  0.12500000000E+03 0.  0.
         25    1    1    2    0    0  0.20746593088E+03 -0.12377208937E+02  0.21783029228E+03  0.32599132506E+03  0.12500000000E+03 0.  0.
</event>
<event>
 4    0  0.2225052E-002  0.2036844E+03  0.7546771E-02  0.1146667E+00
         21   -1    0    0  502  501  0.00000000000E+00  0.00000000000E+00  0.27268216176E+02  0.27268216176E+02  0.00000000000E+00 0.  1.
         21   -1    0    0  501  502 -0.00000000000E+00 -0.00000000000E+00 -0.15214540379E+04  0.15214540379E+04  0.00000000000E+00 0.  1.
         25    1    1    2    0    0 -0.14291527584E+03  0.73471301027E+02 -0.77099557055E+03  0.79742208268E+03  0.12500000000E+03 0.  0.
         25    1    1    2    0    0  0.14291527584E+03 -0.73471301027E+02 -0.72319025120E+03  0.75130017142E+03  0.12500000000E+03 0.  0.
</event>
<event>
 4    0  0.2225052E-002  0.1981525E+03  0.7546771E-02  0.1151307E+00
         21   -1    0    0  502  501  0.00000000000E+00  0.00000000000E+00  0.62719168539E+03  0.62719168539E+03  0.00000000000E+00 0.  1.
         21   -1    0    0  501  502 -0.00000000000E+00 -0.00000000000E+00 -0.62603534012E+02  0.62603534012E+02  0.00000000000E+00 0.  1.
         25    1    1    2    0    0  0.66048570750E+02  0.72831990888E+01  0.52362446312E+03  0.54242330063E+03  0.12500000000E+03 0.  0.
         25    1    1    2    0    0 -0.66048570750E+02 -0.72831990888E+01  0.40963688258E+02  0.14737191877E+03  0.12500000000E+03 0.  0.
</event>
<event>
 4    0  0.2225052E-002  0.2277936E+03  0.7546771E-02  0.1128202E+00
         21   -1    0    0  502  501  0.00000000000E+00  0.00000000000E+00  0.29803528322E+03  0.29803528322E+03  0.00000000000E+00 0. -1.
         21   -1    0    0  501  502 -0.00000000000E+00 -0.00000000000E+00 -0.17410672314E+03  0.17410672314E+03  0.00000000000E+00 0. -1.
         25    1    1    2    0    0 -0.16929521746E+03 -0.32270274617E+02 -0.21989930875E+02  0.21403457276E+03  0.12500000000E+03 0.  0.
         25    1    1    2    0    0  0.16929521746E+03  0.32270274617E+02  0.14591849095E+03  0.25810743360E+03  0.12500000000E+03 0.  0.
</event>
<event>
 4    0  0.2225052E-002  0.2238977E+03  0.7546771E-02  0.1131010E+00
         21   -1    0    0  502  501  0.00000000000E+00  0.00000000000E+00  0.44048939981E+03  0.44048939981E+03  0.00000000000E+00 0. -1.
         21   -1    0    0  501  502 -0.00000000000E+00 -0.00000000000E+00 -0.11380564360E+03  0.11380564360E+03  0.00000000000E+00 0. -1.
         25    1    1    2    0    0  0.21735223748E+02  0.94805511930E+02  0.35923494503E+03  0.39260062503E+03  0.12500000000E+03 0.  0.
         25    1    1    2    0    0 -0.21735223748E+02 -0.94805511930E+02 -0.32551188813E+02  0.16169441838E+03  0.12500000000E+03 0.  0.
</event>
<event>
 4    0  0.2225052E-002  0.2745600E+03  0.7546771E-02  0.1098698E+00
         21   -1    0    0  502  501  0.00000000000E+00  0.00000000000E+00  0.14825610391E+03  0.14825610391E+03  0.00000000000E+00 0. -1.
         21   -1    0    0  501  502 -0.00000000000E+00 -0.00000000000E+00 -0.50846588275E+03  0.50846588275E+03  0.00000000000E+00 0. -1.
         25    1    1    2    0    0  0.31575859052E+02  0.24057654113E+03 -0.14454534829E+03  0.30885670582E+03  0.12500000000E+03 0.  0.
         25    1    1    2    0    0 -0.31575859052E+02 -0.24057654113E+03 -0.21566443054E+03  0.34786528085E+03  0.12500000000E+03 0.  0.
</event>
<event>
 4    0  0.2225052E-002  0.2020430E+03  0.7546771E-02  0.1148027E+00
         21   -1    0    0  502  501  0.00000000000E+00  0.00000000000E+00  0.72660004048E+03  0.72660004048E+03  0.00000000000E+00 0.  1.
         21   -1    0    0  501  502 -0.00000000000E+00 -0.00000000000E+00 -0.56181327855E+02  0.56181327855E+02  0.00000000000E+00 0.  1.
         25    1    1    2    0    0  0.44840806492E+02  0.15211382620E+03  0.32192301951E+03  0.38001150580E+03  0.12500000000E+03 0.  0.
         25    1    1    2    0    0 -0.44840806492E+02 -0.15211382620E+03  0.34849569312E+03  0.40276986254E+03  0.12500000000E+03 0.  0.
</event>
<event>
 4    0  0.2225052E-002  0.2568434E+03  0.7546771E-02  0.1109055E+00
         21   -1    0    0  502  501  0.00000000000E+00  0.00000000000E+00  0.52350275046E+03  0.52350275046E+03  0.00000000000E+00 0.  1.
         21   -1    0    0  501  502 -0.00000000000E+00 -0.00000000000E+00 -0.12601371781E+03  0.12601371781E+03  0.00000000000E+00 0.  1.
         25    1    1    2    0    0  0.32752830331E+02 -0.11365683731E+03  0.43982459561E+03  0.47229365808E+03  0.12500000000E+03 0.  0.
         25    1    1    2    0    0 -0.32752830331E+02  0.11365683731E+03 -0.42335562956E+02  0.17722281019E+03  0.12500000000E+03 0.  0.
</event>
<event>
 4    0  0.2225052E-002  0.2689389E+03  0.7546771E-02  0.1101888E+00
         21   -1    0    0  502  501  0.00000000000E+00  0.00000000000E+00  0.10798325689E+03  0.10798325689E+03  0.00000000000E+00 0. -1.
         21   -1    0    0  501  502 -0.00000000000E+00 -0.00000000000E+00 -0.66980895722E+03  0.66980895722E+03  0.00000000000E+00 0. -1.
         25    1    1    2    0    0 -0.69330088219E+02 -0.10072650264E+03  0.14555929628E+02  0.17546898459E+03  0.12500000000E+03 0.  0.
         25    1    1    2    0    0  0.69330088219E+02  0.10072650264E+03 -0.57638162996E+03  0.60232322952E+03  0.12500000000E+03 0.  0.
</event>
<event>
 4    0  0.2225052E-002  0.1607327E+03  0.7546771E-02  0.1187872E+00
         21   -1    0    0  502  501  0.00000000000E+00  0.00000000000E+00  0.22103256803E+03  0.22103256803E+03  0.00000000000E+00 0.  1.
         21   -1    0    0  501  502 -0.00000000000E+00 -0.00000000000E+00 -0.11688326986E+03  0.11688326986E+03  0.00000000000E+00 0.  1.
         25    1    1    2    0    0 -0.87466161481E+02  0.37064377138E+02  0.88273971632E+02  0.18011493976E+03  0.12500000000E+03 0.  0.
         25    1    1    2    0    0  0.87466161481E+02 -0.37064377138E+02  0.15875326535E+02  0.15780089813E+03  0.12500000000E+03 0.  0.
</event>
<event>
 4    0  0.2225052E-002  0.2695296E+03  0.7546771E-02  0.1101549E+00
         21   -1    0    0  502  501  0.00000000000E+00  0.00000000000E+00  0.60854861218E+02  0.60854861218E+02  0.00000000000E+00 0.  1.
         21   -1    0    0  501  502 -0.00000000000E+00 -0.00000000000E+00 -0.11937617122E+04  0.11937617122E+04  0.00000000000E+00 0.  1.
         25    1    1    2    0    0  0.90689901820E+02  0.20818014420E+03 -0.73839239679E+03  0.78256754492E+03  0.12500000000E+03 0.  0.
         25    1    1    2    0    0 -0.90689901820E+02 -0.20818014420E+03 -0.39451445418E+03  0.47204902848E+03  0.12500000000E+03 0.  0.
</event>
<event>
 4    0  0.2225052E-002  0.1888215E+03  0.7546771E-02  0.1159529E+00
         21   -1    0    0  502  501  0.00000000000E+00  0.00000000000E+00  0.38466674677E+03  0.38466674677E+03  0.00000000000E+00 0.  1.
         21   -1    0    0  501  502 -0.00000000000E+00 -0.00000000000E+00 -0.92686873047E+02  0.92686873047E+02  0.00000000000E+00 0.  1.
         25    1    1    2    0    0 -0.24072961353E+02 -0.60466121314E+02  0.30484084821E+03  0.33584014357E+03  0.12500000000E+03 0.  0.
         25    1    1    2    0    0  0.24072961353E+02  0.60466121314E+02 -0.12860974486E+02  0.14151347625E+03  0.12500000000E+03 0.  0.
</event>
<event>
 4    0  0.2225052E-002  0.2485162E+03  0.7546771E-02  0.1114246E+00
         21   -1    0    0  502  501  0.00000000000E+00  0.00000000000E+00  0.88356313776E+03  0.88356313776E+03  0.00000000000E+00 0. -1.
         21   -1    0    0  501  502 -0.00000000000E+00 -0.00000000000E+00 -0.69899120175E+02  0.69899120175E+02  0.00000000000E+00 0. -1.
         25    1    1    2    0    0  0.14672762408E+03 -0.12971605187E+03  0.23762838118E+03  0.33233642190E+03  0.12500000000E+03 0.  0.
         25    1    1    2    0    0 -0.14672762408E+03  0.12971605187E+03  0.57603563641E+03  0.62112583604E+03  0.12500000000E+03 0.  0.
</event>
<event>
 4    0  0.2225052E-002  0.1864573E+03  0.7546771E-02  0.1161696E+00
         21   -1    0    0  502  501  0.00000000000E+00  0.00000000000E+00  0.69932474723E+02  0.69932474723E+02  0.00000000000E+00 0. -1.
         21   -1    0    0  501  502 -0.00000000000E+00 -0.00000000000E+00 -0.49714108331E+03  0.49714108331E+03  0.00000000000E+00 0. -1.
         25    1    1    2    0    0  0.45466762156E+02 -0.11401517160E+03 -0.31067177308E+03  0.35666319743E+03  0.12500000000E+03 0.  0.
         25    1    1    2    0    0 -0.45466762156E+02  0.11401517160E+03 -0.11653683551E+03  0.21041036060E+03  0.12500000000E+03 0.  0.
</event>
<event>
 4    0  0.2225052E-002  0.1956565E+03  0.7546771E-02  0.1153456E+00
         21   -1    0    0  502  501  0.00000000000E+00  0.00000000000E+00  0.13527775822E+04  0.13527775822E+04  0.00000000000E+00 0. -1.
         21   -1    0    0  501  502 -0.00000000000E+00 -0.00000000000E+00 -0.28298431910E+02  0.28298431910E+02  0.00000000000E+00 0. -1.
         25    1    1    2    0    0  0.13124658366E+03  0.63670749113E+02  0.79319913079E+03  0.81613080514E+03  0.12500000000E+03 0.  0.
         25    1    1    2    0    0 -0.13124658366E+03 -0.63670749113E+02  0.53128001950E+03  0.56494520897E+03  0.12500000000E+03 0.  0.
</event>
<event>
 4    0  0.2225052E-002  0.1788210E+03  0.7546771E-02  0.1168949E+00
         21   -1    0    0  502  501  0.00000000000E+00  0.00000000000E+00  0.20232631452E+03  0.20232631452E+03  0.00000000000E+00 0.  1.
         21   -1    0    0  501  502 -0.00000000000E+00 -0.00000000000E+00 -0.15804642477E+03  0.15804642477E+03  0.00000000000E+00 0.  1.
         25    1    1    2    0    0  0.31108375039E+01 -0.73211543750E+02  0.12773678379E+03  0.19316131440E+03  0.12500000000E+03 0.  0.
         25    1    1    2    0    0 -0.31108375039E+01  0.73211543750E+02 -0.83456894046E+02  0.16721142488E+03  0.12500000000E+03 0.  0.
</event>
<event>
 4    0  0.2225052E-002  0.2640553E+03  0.7546771E-02  0.1104731E+00
         21   -1    0    0  502  501  0.00000000000E+00  0.00000000000E+00  0.39630384411E+03  0.39630384411E+03  0.00000000000E+00 0. -1.
         21   -1    0    0  501  502 -0.00000000000E+00 -0.00000000000E+00 -0.17593875563E+03  0.17593875563E+03  0.00000000000E+00 0. -1.
         25    1    1    2    0    0 -0.42334495381E+02  0.22866829319E+03  0.10548339358E+03  0.28431170242E+03  0.12500000000E+03 0.  0.
         25    1    1    2    0    0  0.42334495381E+02 -0.22866829319E+03  0.11488169490E+03  0.28793089732E+03  0.12500000000E+03 0.  0.
</event>
<event>
 4    0  0.2225052E-002  0.1714894E+03  0.7546771E-02  0.1176303E+00
         21   -1    0    0  502  501  0.00000000000E+00  0.00000000000E+00  0.86437408667E+03  0.86437408667E+03  0.00000000000E+00 0. -1.
         21   -1    0    0  501  502 -0.00000000000E+00 -0.00000000000E+00 -0.34023030989E+02  0.34023030989E+02  0.00000000000E+00 0. -1.
         25    1    1    2    0    0  0.84860089616E+02  0.81004705862E+02  0.40327841145E+03  0.43820254943E+03  0.12500000000E+03 0.  0.
         25    1    1    2    0    0 -0.84860089616E+02 -0.81004705862E+02  0.42707264424E+03  0.46019456824E+03  0.12500000000E+03 0.  0.
</event>
<event>
 4    0  0.2225052E-002  0.1654053E+03  0.7546771E-02  0.1182726E+00
         21   -1    0    0  502  501  0.00000000000E+00  0.00000000000E+00  0.55209311581E+03  0.55209311581E+03  0.00000000000E+00 0.  1.
         21   -1    0    0  501  502 -0.00000000000E+00 -0.00000000000E+00 -0.49554918602E+02  0.49554918602E+02  0.00000000000E+00 0.  1.
         25    1    1    2    0    0 -0.64949739886E+02 -0.64644811557E+01  0.40849712043E+03  0.43215177384E+03  0.12500000000E+03 0.  0.
         25    1    1    2    0    0  0.64949739886E+02  0.64644811557E+01  0.94041076775E+02  0.16949626057E+03  0.12500000000E+03 0.  0.
</event>
<event>
 4    0  0.2225052E-002  0.3171961E+03  0.7546771E-02  0.1076947E+00
         21   -1    0    0  502  501  0.00000000000E+00  0.00000000000E+00  0.10729909369E+04  0.10729909369E+04  0.00000000000E+00 0. -1.
         21   -1    0    0  501  502 -0.00000000000E+00 -0.00000000000E+00 -0.93769078495E+02  0.93769078495E+02  0.00000000000E+00 0. -1.
         25    1    1    2    0    0 -0.99780374035E+02 -0.25950031582E+03  0.65091252154E+03  0.71875492879E+03  0.12500000000E+03 0.  0.
         25    1    1    2    0    0  0.99780374035E+02  0.25950031582E+03  0.32830933684E+03  0.44800508659E+03  0.12500000000E+03 0.  0.
</event>
<event>
 4    0  0.2225052E-002  0.2429450E+03  0.7546771E-02  0.1117846E+00
         21   -1    0    0  502  501  0.00000000000E+00  0.00000000000E+00  0.70972914144E+03  0.70972914144E+03  0.00000000000E+00 0. -1.
         21   -1    0    0  501  502 -0.00000000000E+00 -0.00000000000E+00 -0.83161699922E+02  0.83161699922E+02  0.00000000000E+00 0. -1.
         25    1    1    2    0    0 -0.11411859812E+02  0.81107487755E+02  0.71815178015E+00  0.14944621392E+03  0.12500000000E+03 0.  0.
         25    1    1    2    0    0  0.11411859812E+02 -0.81107487755E+02  0.62584928974E+03  0.64344462744E+03  0.12500000000E+03 0.  0.
</event>
<event>
 4    0  0.2225052E-002  0.3149633E+03  0.7546771E-02  0.1077991E+00
         21   -1    0    0  502  501  0.00000000000E+00  0.00000000000E+00  0.32284820534E+03  0.32284820534E+03  0.00000000000E+00 0.  1.
         21   -1    0    0  501  502 -0.00000000000E+00 -0.00000000000E+00 -0.30727096913E+03  0.30727096913E+03  0.00000000000E+00 0.  1.
         25    1    1    2    0    0 -0.26660971724E+03  0.10533074233E+03  0.45237668841E+02  0.31598536879E+03  0.12500000000E+03 0.  0.
         25    1    1    2    0    0  0.26660971724E+03 -0.10533074233E+03 -0.29660432627E+02  0.31413380568E+03  0.12500000000E+03 0.  0.
</event>
<event>
 4    0  0.2225052E-002  0.2273031E+03  0.7546771E-02  0.1128552E+00
         21   -1    0    0  502  501  0.00000000000E+00  0.00000000000E+00  0.21963322548E+03  0.21963322548E+03  0.00000000000E+00 0. -1.
         21   -1    0    0  501  502 -0.00000000000E+00 -0.00000000000E+00 -0.23524077710E+03  0.23524077710E+03  0.00000000000E+00 0. -1.
         25    1    1    2    0    0 -0.44818386024E+02 -0.17908772841E+03  0.36500844350E+02  0.22591682946E+03  0.12500000000E+03 0.  0.
         25    1    1    2    0    0  0.44818386024E+02  0.17908772841E+03 -0.52108395970E+02  0.22895717312E+03  0.12500000000E+03 0.  0.
</event>
<event>
 4    0  0.2225052E-002  0.2235602E+03  0.7546771E-02  0.1131256E+00
         21   -1    0    0  502  501  0.00000000000E+00  0.00000000000E+00  0.52318863729E+02  0.52318863729E+02  0.00000000000E+00 0.  1.
         21   -1    0    0  501  502 -0.00000000000E+00 -0.00000000000E+00 -0.95528037312E+03  0.95528037312E+03  0.00000000000E+00 0.  1.
         25    1    1    2    0    0  0.88053900297E+02  0.12553695332E+03 -0.21684116772E+03  0.29352701413E+03  0.12500000000E+03 0.  0.
         25    1    1    2    0    0 -0.88053900297E+02 -0.12553695332E+03 -0.68612034167E+03  0.71407222272E+03  0.12500000000E+03 0.  0.
</event>
<event>
 4    0  0.2225052E-002  0.1889413E+03  0.7546771E-02  0.1159420E+00
         21   -1    0    0  502  501  0.00000000000E+00  0.00000000000E+00  0.11779337161E+03  0.11779337161E+03  0.00000000000E+00 0. -1.
         21   -1    0    0  501  502 -0.00000000000E+00 -0.00000000000E+00 -0.30306308304E+03  0.30306308304E+03  0.00000000000E+00 0. -1.
         25    1    1    2    0    0 -0.36527421830E+02  0.33630589462E+02 -0.24042275961E+03  0.27548751774E+03  0.12500000000E+03 0.  0.
         25    1    1    2    0    0  0.36527421830E+02 -0.33630589462E+02  0.55153048189E+02  0.14536893691E+03  0.12500000000E+03 0.  0.
</event>
<event>
 4    0  0.2225052E-002  0.2214896E+03  0.7546771E-02  0.1132777E+00
         21   -1    0    0  502  501  0.00000000000E+00  0.00000000000E+00  0.38991185937E+03  0.38991185937E+03  0.00000000000E+00 0. -1.
         21   -1    0    0  501  502 -0.00000000000E+00 -0.00000000000E+00 -0.12581724111E+03  0.12581724111E+03  0.00000000000E+00 0. -1.
         25    1    1    2    0    0  0.14006087250E+03  0.11005558501E+03  0.18009703092E+03  0.28246985741E+03  0.12500000000E+03 0.  0.
         25    1    1    2    0    0 -0.14006087250E+03 -0.11005558501E+03  0.83997587342E+02  0.23325924307E+03  0.12500000000E+03 0.  0.
</event>
<event>
 4    0  0.2225052E-002  0.1833953E+03  0.7546771E-02  0.1164557E+00
         21   -1    0    0  502  501  0.00000000000E+00  0.00000000000E+00  0.51858881522E+02  0.51858881522E+02  0.00000000000E+00 0.  1.
         21   -1    0    0  501  502 -0.00000000000E+00 -0.00000000000E+00 -0.64856491125E+03  0.64856491125E+03  0.00000000000E+00 0.  1.
         25    1    1    2    0    0 -0.86167263375E+02 -0.58502179140E+02 -0.13675126072E+03  0.21253990108E+03  0.12500000000E+03 0.  0.
         25    1    1    2    0    0  0.86167263375E+02  0.58502179140E+02 -0.45995476901E+03  0.48788389169E+03  0.12500000000E+03 0.  0.
</event>
<event>
 4    0  0.2225052E-002  0.2234723E+03  0.7546771E-02  0.1131321E+00
         21   -1    0    0  502  501  0.00000000000E+00  0.00000000000E+00  0.21164636425E+03  0.21164636425E+03  0.00000000000E+00 0.  1.
         21   -1    0    0  501  502 -0.00000000000E+00 -0.00000000000E+00 -0.23595892265E+03  0.23595892265E+03  0.00000000000E+00 0.  1.
         25    1    1    2    0    0 -0.58670886465E+02 -0.17495618360E+03 -0.28394719910E+02  0.22468466618E+03  0.12500000000E+03 0.  0.
         25    1    1    2    0    0  0.58670886465E+02  0.17495618360E+03  0.40821615082E+01  0.22292062072E+03  0.12500000000E+03 0.  0.
</event>
<event>
 4    0  0.2225052E-002  0.1832461E+03  0.7546771E-02  0.1164698E+00
         21   -1    0    0  502  501  0.00000000000E+00  0.00000000000E+00  0.15643460967E+03  0.15643460967E+03  0.00000000000E+00 0.  1.
         21   -1    0    0  501  502 -0.00000000000E+00 -0.00000000000E+00 -0.21465295547E+03  0.21465295547E+03  0.00000000000E+00 0.  1.
         25    1    1    2    0    0 -0.10034934571E+03  0.11502376195E+02 -0.11825774297E+03  0.19952992160E+03  0.12500000000E+03 0.  0.
         25    1    1    2    0    0  0.10034934571E+03 -0.11502376195E+02  0.60039397178E+02  0.17155764353E+03  0.12500000000E+03 0.  0.
</event>
<event>
 4    0  0.2225052E-002  0.2717701E+03  0.7546771E-02  0.1100271E+00
         21   -1    0    0  502  501  0.00000000000E+00  0.00000000000E+00  0.23281776464E+03  0.23281776464E+03  0.00000000000E+00 0.  1.
         21   -1    0    0  501  502 -0.00000000000E+00 -0.00000000000E+00 -0.31723941221E+03  0.31723941221E+03  0.00000000000E+00 0.  1.
         25    1    1    2    0    0  0.76829630006E+02  0.17950661820E+03 -0.18571568788E+03  0.29705342070E+03  0.12500000000E+03 0.  0.
         25    1    1    2    0    0 -0.76829630006E+02 -0.17950661820E+03  0.10129404031E+03  0.25300375615E+03  0.12500000000E+03 0.  0.
</event>
<event>
 4    0  0.2225052E-002  0.2892498E+03  0.7546771E-02  0.1090741E+00
         21   -1    0    0  502  501  0.00000000000E+00  0.00000000000E+00  0.15556841821E+04  0.15556841821E+04  0.00000000000E+00 0.  1.
         21   -1    0    0  501  502 -0.00000000000E+00 -0.00000000000E+00 -0.53780492639E+02  0.53780492639E+02  0.00000000000E+00 0.  1.
         25    1    1    2    0    0  0.58439653209E+02 -0.55934468456E+02  0.14408800720E+04  0.14485524636E+04  0.12500000000E+03 0.  0.
         25    1    1    2    0    0 -0.58439653209E+02  0.55934468456E+02  0.61023617528E+02  0.16091221124E+03  0.12500000000E+03 0.  0.
</event>
<event>
 4    0  0.2225052E-002  0.2033929E+03  0.7546771E-02  0.1146908E+00
         21   -1    0    0  502  501  0.00000000000E+00  0.00000000000E+00  0.50426219037E+03  0.50426219037E+03  0.00000000000E+00 0.  1.
         21   -1    0    0  501  502 -0.00000000000E+00 -0.00000000000E+00 -0.82038055255E+02  0.82038055255E+02  0.00000000000E+00 0.  1.
         25    1    1    2    0    0  0.45557659742E+02 -0.15303537177E+03  0.23382632675E+03  0.30950779709E+03  0.12500000000E+03 0.  0.
         25    1    1    2    0    0 -0.45557659742E+02  0.15303537177E+03  0.18839780836E+03  0.27679244854E+03  0.12500000000E+03 0.  0.
</event>
<event>
 4    0  0.2225052E-002  0.1862394E+03  0.7546771E-02  0.1161898E+00
         21   -1    0    0  502  501  0.00000000000E+00  0.00000000000E+00  0.51766305927E+03  0.51766305927E+03  0.00000000000E+00 0. -1.
         21   -1    0    0  501  502 -0.00000000000E+00 -0.00000000000E+00 -0.67003248502E+02  0.67003248502E+02  0.00000000000E+00 0. -1.
         25    1    1    2    0    0  0.33034466515E+02  0.10311719048E+03  0.35976932086E+03  0.39595883016E+03  0.12500000000E+03 0.  0.
         25    1    1    2    0    0 -0.33034466515E+02 -0.10311719048E+03  0.90890489910E+02  0.18870747761E+03  0.12500000000E+03 0.  0.
</event>
<event>
 4    0  0.2225052E-002  0.1806461E+03  0.7546771E-02  0.1167179E+00
         21   -1    0    0  502  501  0.00000000000E+00  0.00000000000E+00  0.46716220408E+03  0.46716220408E+03  0.00000000000E+00 0.  1.
         21   -1    0    0  501  502 -0.00000000000E+00 -0.00000000000E+00 -0.69853707001E+02  0.69853707001E+02  0.00000000000E+00 0.  1.
         25    1    1    2    0    0 -0.11886586359E+03  0.11744232297E+02  0.27647266705E+03  0.32608151763E+03  0.12500000000E+03 0.  0.
         25    1    1    2    0    0  0.11886586359E+03 -0.11744232297E+02  0.12083583003E+03  0.21093439344E+03  0.12500000000E+03 0.  0.
</event>
<event>
 4    0  0.2225052E-002  0.2620618E+03  0.7546771E-02  0.1105911E+00
         21   -1    0    0  502  501  0.00000000000E+00  0.00000000000E+00  0.30085367118E+03  0.30085367118E+03  0.00000000000E+00 0.  1.
         21   -1    0    0  501  502 -0.00000000000E+00 -0.00000000000E+00 -0.22827165745E+03  0.22827165745E+03  0.00000000000E+00 0.  1.
         25    1    1    2    0    0 -0.12465409644E+02  0.48585143656E+02 -0.19065525236E+03  0.23343163426E+03  0.12500000000E+03 0.  0.
         25    1    1    2    0    0  0.12465409644E+02 -0.48585143656E+02  0.26323726609E+03  0.29569369436E+03  0.12500000000E+03 0.  0.
</event>
<event>
 4    0  0.2225052E-002  0.2000999E+03  0.7546771E-02  0.1149655E+00
         21   -1    0    0  502  501  0.00000000000E+00  0.00000000000E+00  0.43556674893E+02  0.43556674893E+02  0.00000000000E+00 0. -1.
         21   -1    0    0  501  502 -0.00000000000E+00 -0.00000000000E+00 -0.91926135115E+03  0.91926135115E+03  0.00000000000E+00 0. -1.
         25    1    1    2    0    0  0.14273557758E+03  0.51341147754E+02 -0.52805090990E+03  0.56344664522E+03  0.12500000000E+03 0.  0.
         25    1    1    2    0    0 -0.14273557758E+03 -0.51341147754E+02 -0.34765376636E+03  0.39937138083E+03  0.12500000000E+03 0.  0.
</event>
<event>
 4    0  0.2225052E-002  0.2333535E+03  0.7546771E-02  0.1124301E+00
         21   -1    0    0  502  501  0.00000000000E+00  0.00000000000E+00  0.42295329371E+02  0.42295329371E+02  0.00000000000E+00 0. -1.
         21   -1    0    0  501  502 -0.00000000000E+00 -0.00000000000E+00 -0.12874675104E+04  0.12874675104E+04  0.00000000000E+00 0. -1.
         25    1    1    2    0    0  0.51643150584E+02 -0.20047748566E+02 -0.83785313446E+02  0.16035556110E+03  0.12500000000E+03 0.  0.
         25    1    1    2    0    0 -0.51643150584E+02  0.20047748566E+02 -0.11613868676E+04  0.11694072787E+04  0.12500000000E+03 0.  0.
</event>
<event>
 4    0  0.2225052E-002  0.2742116E+03  0.7546771E-02  0.1098893E+00
         21   -1    0    0  502  501  0.00000000000E+00  0.00000000000E+00  0.65175400834E+03  0.65175400834E+03  0.00000000000E+00 0.  1.
         21   -1    0    0  501  502 -0.00000000000E+00 -0.00000000000E+00 -0.11536872252E+03  0.11536872252E+03  0.00000000000E+00 0. -1.
         25    1    1    2    0    0  0.13409077614E+03 -0.18551998857E+03  0.38662735380E+03  0.46637293351E+03  0.12500000000E+03 0.  0.
         25    1    1    2    0    0 -0.13409077614E+03  0.18551998857E+03  0.14975793201E+03  0.30074979735E+03  0.12500000000E+03 0.  0.
</event>
<event>
 4    0  0.2225052E-002  0.3125853E+03  0.7546771E-02  0.1079113E+00
         21   -1    0    0  502  501  0.00000000000E+00  0.00000000000E+00  0.13441731154E+04  0.13441731154E+04  0.00000000000E+00 0. -1.
         21   -1    0    0  501  502 -0.00000000000E+00 -0.00000000000E+00 -0.72691196142E+02  0.72691196142E+02  0.00000000000E+00 0. -1.
         25    1    1    2    0    0 -0.15699741978E+00  0.26062730080E+03  0.36607275524E+03  0.46643421476E+03  0.12500000000E+03 0.  0.
         25    1    1    2    0    0  0.15699741978E+00 -0.26062730080E+03  0.90540916399E+03  0.95043009675E+03  0.12500000000E+03 0.  0.
</event>
<event>
 4    0  0.2225052E-002  0.3781634E+03  0.7546771E-02  0.1051615E+00
         21   -1    0    0  502  501  0.00000000000E+00  0.00000000000E+00  0.43000780068E+03  0.43000780068E+03  0.00000000000E+00 0. -1.
         21   -1    0    0  501  502 -0.00000000000E+00 -0.00000000000E+00 -0.33256969857E+03  0.33256969857E+03  0.00000000000E+00 0. -1.
         25    1    1    2    0    0 -0.10835597396E+03 -0.69927871709E+02  0.38426312199E+03  0.42416278863E+03  0.12500000000E+03 0.  0.
         25    1    1    2    0    0  0.10835597396E+03  0.69927871709E+02 -0.28682501988E+03  0.33841471062E+03  0.12500000000E+03 0.  0.
</event>
<event>
 4    0  0.2225052E-002  0.2141619E+03  0.7546771E-02  0.1138312E+00
         21   -1    0    0  502  501  0.00000000000E+00  0.00000000000E+00  0.31812050000E+03  0.31812050000E+03  0.00000000000E+00 0. -1.
         21   -1    0    0  501  502 -0.00000000000E+00 -0.00000000000E+00 -0.14417587711E+03  0.14417587711E+03  0.00000000000E+00 0. -1.
         25    1    1    2    0    0 -0.76388060120E+01  0.15199108132E+03 -0.38484827854E+01  0.19697576242E+03  0.12500000000E+03 0.  0.
         25    1    1    2    0    0  0.76388060120E+01 -0.15199108132E+03  0.17779310568E+03  0.26532061470E+03  0.12500000000E+03 0.  0.
</event>
<event>
 4    0  0.2225052E-002  0.1914517E+03  0.7546771E-02  0.1157158E+00
         21   -1    0    0  502  501  0.00000000000E+00  0.00000000000E+00  0.23716554858E+02  0.23716554858E+02  0.00000000000E+00 0.  1.
         21   -1    0    0  501  502 -0.00000000000E+00 -0.00000000000E+00 -0.15454924814E+04  0.15454924814E+04  0.00000000000E+00 0.  1.
         25    1    1    2    0    0 -0.72983567179E+02 -0.29703328267E+02 -0.26198770447E+03  0.30078471717E+03  0.12500000000E+03 0.  0.
         25    1    1    2    0    0  0.72983567179E+02  0.29703328267E+02 -0.12597882220E+04  0.12684243190E+04  0.12500000000E+03 0.  0.
</event>
<event>
 4    0  0.2225052E-002  0.2227924E+03  0.7546771E-02  0.1131818E+00
         21   -1    0    0  502  501  0.00000000000E+00  0.00000000000E+00  0.10250312039E+04  0.10250312039E+04  0.00000000000E+00 0.  1.
         21   -1    0    0  501  502 -0.00000000000E+00 -0.00000000000E+00 -0.48424314342E+02  0.48424314342E+02  0.00000000000E+00 0.  1.
         25    1    1    2    0    0  0.11589126017E+03 -0.13828445028E+03  0.58029362094E+03  0.62041845546E+03  0.12500000000E+03 0.  0.
         25    1    1    2    0    0 -0.11589126017E+03  0.13828445028E+03  0.39631326865E+03  0.45303706281E+03  0.12500000000E+03 0.  0.
</event>
<event>
 4    0  0.2225052E-002  0.2772267E+03  0.7546771E-02  0.1097213E+00
         21   -1    0    0  502  501  0.00000000000E+00  0.00000000000E+00  0.21317997084E+03  0.21317997084E+03  0.00000000000E+00 0. -1.
         21   -1    0    0  501  502 -0.00000000000E+00 -0.00000000000E+00 -0.36051529121E+03  0.36051529121E+03  0.00000000000E+00 0. -1.
         25    1    1    2    0    0  0.16219372043E+03  0.52052229691E+02  0.11204200948E+03  0.23915402872E+03  0.12500000000E+03 0.  0.
         25    1    1    2    0    0 -0.16219372043E+03 -0.52052229691E+02 -0.25937732985E+03  0.33454123334E+03  0.12500000000E+03 0.  0.
</event>
<event>
 4    0  0.2225052E-002  0.2506451E+03  0.7546771E-02  0.1112898E+00
         21   -1    0    0  502  501  0.00000000000E+00  0.00000000000E+00  0.30725320112E+03  0.30725320112E+03  0.00000000000E+00 0.  1.
         21   -1    0    0  501  502 -0.00000000000E+00 -0.00000000000E+00 -0.20446646216E+03  0.20446646216E+03  0.00000000000E+00 0.  1.
         25    1    1    2    0    0  0.32315825172E+01 -0.13569984845E+03  0.22454877740E+03  0.29064074977E+03  0.12500000000E+03 0.  0.
         25    1    1    2    0    0 -0.32315825172E+01  0.13569984845E+03 -0.12176203845E+03  0.22107891351E+03  0.12500000000E+03 0.  0.
</event>
<event>
 4    0  0.2225052E-002  0.2502740E+03  0.7546771E-02  0.1113132E+00
         21   -1    0    0  502  501  0.00000000000E+00  0.00000000000E+00  0.71746375697E+03  0.71746375697E+03  0.00000000000E+00 0. -1.
         21   -1    0    0  501  502 -0.00000000000E+00 -0.00000000000E+00 -0.87303485188E+02  0.87303485188E+02  0.00000000000E+00 0. -1.
         25    1    1    2    0    0  0.71315470242E+02 -0.20042399072E+03  0.24769905383E+03  0.34962192955E+03  0.12500000000E+03 0.  0.
         25    1    1    2    0    0 -0.71315470242E+02  0.20042399072E+03  0.38246121796E+03  0.45514531262E+03  0.12500000000E+03 0.  0.
</event>
<event>
 4    0  0.2225052E-002  0.2953594E+03  0.7546771E-02  0.1087584E+00
         21   -1    0    0  502  501  0.00000000000E+00  0.00000000000E+00  0.43379542797E+03  0.43379542797E+03  0.00000000000E+00 0. -1.
         21   -1    0    0  501  502 -0.00000000000E+00 -0.00000000000E+00 -0.20110210690E+03  0.20110210690E+03  0.00000000000E+00 0. -1.
         25    1    1    2    0    0  0.40249283313E+02  0.22927458820E+03 -0.25530795236E+02  0.26544992580E+03  0.12500000000E+03 0.  0.
         25    1    1    2    0    0 -0.40249283313E+02 -0.22927458820E+03  0.25822411632E+03  0.36944760907E+03  0.12500000000E+03 0.  0.
</event>
<event>
 4    0  0.2225052E-002  0.1943732E+03  0.7546771E-02  0.1154575E+00
         21   -1    0    0  502  501  0.00000000000E+00  0.00000000000E+00  0.10401430310E+04  0.10401430310E+04  0.00000000000E+00 0. -1.
         21   -1    0    0  501  502 -0.00000000000E+00 -0.00000000000E+00 -0.36322848522E+02  0.36322848522E+02  0.00000000000E+00 0. -1.
         25    1    1    2    0    0  0.13457366322E+03  0.48188467407E+02  0.61687677555E+03  0.64544105496E+03  0.12500000000E+03 0.  0.
         25    1    1    2    0    0 -0.13457366322E+03 -0.48188467407E+02  0.38694340698E+03  0.43102482460E+03  0.12500000000E+03 0.  0.
</event>
<event>
 4    0  0.2225052E-002  0.2108644E+03  0.7546771E-02  0.1140883E+00
         21   -1    0    0  502  501  0.00000000000E+00  0.00000000000E+00  0.23112456590E+03  0.23112456590E+03  0.00000000000E+00 0. -1.
         21   -1    0    0  501  502 -0.00000000000E+00 -0.00000000000E+00 -0.19238023645E+03  0.19238023645E+03  0.00000000000E+00 0. -1.
         25    1    1    2    0    0 -0.25710698631E+02 -0.16777717788E+03  0.24740440990E+02  0.21224351783E+03  0.12500000000E+03 0.  0.
         25    1    1    2    0    0  0.25710698631E+02  0.16777717788E+03  0.14003888462E+02  0.21126128451E+03  0.12500000000E+03 0.  0.
</event>
<event>
 4    0  0.2225052E-002  0.1618220E+03  0.7546771E-02  0.1186655E+00
         21   -1    0    0  502  501  0.00000000000E+00  0.00000000000E+00  0.41718843907E+03  0.41718843907E+03  0.00000000000E+00 0. -1.
         21   -1    0    0  501  502 -0.00000000000E+00 -0.00000000000E+00 -0.62768676407E+02  0.62768676407E+02  0.00000000000E+00 0. -1.
         25    1    1    2    0    0  0.33759120361E+02  0.66657997531E+02  0.28184553314E+03  0.31724575867E+03  0.12500000000E+03 0.  0.
         25    1    1    2    0    0 -0.33759120361E+02 -0.66657997531E+02  0.72574229517E+02  0.16271135680E+03  0.12500000000E+03 0.  0.
</event>
<event>
 4    0  0.2225052E-002  0.2391353E+03  0.7546771E-02  0.1120370E+00
         21   -1    0    0  502  501  0.00000000000E+00  0.00000000000E+00  0.56033510442E+03  0.56033510442E+03  0.00000000000E+00 0. -1.
         21   -1    0    0  501  502 -0.00000000000E+00 -0.00000000000E+00 -0.10205627725E+03  0.10205627725E+03  0.00000000000E+00 0. -1.
         25    1    1    2    0    0 -0.13180771969E+03 -0.14031910424E+03  0.32202537587E+03  0.39545931357E+03  0.12500000000E+03 0.  0.
         25    1    1    2    0    0  0.13180771969E+03  0.14031910424E+03  0.13625345130E+03  0.26693206809E+03  0.12500000000E+03 0.  0.
</event>
<event>
 4    0  0.2225052E-002  0.2568660E+03  0.7546771E-02  0.1109041E+00
         21   -1    0    0  502  501  0.00000000000E+00  0.00000000000E+00  0.45192732420E+02  0.45192732420E+02  0.00000000000E+00 0. -1.
         21   -1    0    0  501  502 -0.00000000000E+00 -0.00000000000E+00 -0.14599727921E+04  0.14599727921E+04  0.00000000000E+00 0. -1.
         25    1    1    2    0    0 -0.21945752244E+02 -0.22103969520E+03 -0.61404742210E+03  0.66484539517E+03  0.12500000000E+03 0.  0.
         25    1    1    2    0    0  0.21945752244E+02  0.22103969520E+03 -0.80073263754E+03  0.84032012930E+03  0.12500000000E+03 0.  0.
</event>
<event>
 4    0  0.2225052E-002  0.2342245E+03  0.7546771E-02  0.1123701E+00
         21   -1    0    0  502  501  0.00000000000E+00  0.00000000000E+00  0.77696563135E+03  0.77696563135E+03  0.00000000000E+00 0. -1.
         21   -1    0    0  501  502 -0.00000000000E+00 -0.00000000000E+00 -0.70609453026E+02  0.70609453026E+02  0.00000000000E+00 0. -1.
         25    1    1    2    0    0 -0.24856311573E+02 -0.17492650426E+02 -0.97000518245E+00  0.12864590920E+03  0.12500000000E+03 0.  0.
         25    1    1    2    0    0  0.24856311573E+02  0.17492650426E+02  0.70732618351E+03  0.71892917518E+03  0.12500000000E+03 0.  0.
</event>
<event>
 4    0  0.2225052E-002  0.1947653E+03  0.7546771E-02  0.1154232E+00
         21   -1    0    0  502  501  0.00000000000E+00  0.00000000000E+00  0.18739030796E+02  0.18739030796E+02  0.00000000000E+00 0.  1.
         21   -1    0    0  501  502 -0.00000000000E+00 -0.00000000000E+00 -0.20243045175E+04  0.20243045175E+04  0.00000000000E+00 0.  1.
         25    1    1    2    0    0  0.12548753680E+03  0.55486832914E+02 -0.13123019319E+04  0.13253630714E+04  0.12500000000E+03 0.  0.
         25    1    1    2    0    0 -0.12548753680E+03 -0.55486832914E+02 -0.69326355473E+03  0.71768047684E+03  0.12500000000E+03 0.  0.
</event>
<event>
 4    0  0.2225052E-002  0.2840592E+03  0.7546771E-02  0.1093492E+00
         21   -1    0    0  502  501  0.00000000000E+00  0.00000000000E+00  0.47977448048E+02  0.47977448048E+02  0.00000000000E+00 0. -1.
         21   -1    0    0  501  502 -0.00000000000E+00 -0.00000000000E+00 -0.16818242525E+04  0.16818242525E+04  0.00000000000E+00 0. -1.
         25    1    1    2    0    0  0.22565763909E+03  0.87408580447E+02 -0.57138777707E+03  0.63298548309E+03  0.12500000000E+03 0.  0.
         25    1    1    2    0    0 -0.22565763909E+03 -0.87408580447E+02 -0.10624590274E+04  0.10968162175E+04  0.12500000000E+03 0.  0.
</event>
<event>
 4    0  0.2225052E-002  0.1486693E+03  0.7546771E-02  0.1202118E+00
         21   -1    0    0  502  501  0.00000000000E+00  0.00000000000E+00  0.11605490312E+03  0.11605490312E+03  0.00000000000E+00 0. -1.
         21   -1    0    0  501  502 -0.00000000000E+00 -0.00000000000E+00 -0.19044905884E+03  0.19044905884E+03  0.00000000000E+00 0. -1.
         25    1    1    2    0    0 -0.48551300841E+02  0.61771000452E+02 -0.19204478484E+02  0.14888484578E+03  0.12500000000E+03 0.  0.
         25    1    1    2    0    0  0.48551300841E+02 -0.61771000452E+02 -0.55189677237E+02  0.15761911617E+03  0.12500000000E+03 0.  0.
</event>
<event>
 4    0  0.2225052E-002  0.1850284E+03  0.7546771E-02  0.1163023E+00
         21   -1    0    0  502  501  0.00000000000E+00  0.00000000000E+00  0.34892922193E+03  0.34892922193E+03  0.00000000000E+00 0.  1.
         21   -1    0    0  501  502 -0.00000000000E+00 -0.00000000000E+00 -0.98115929149E+02  0.98115929149E+02  0.00000000000E+00 0.  1.
         25    1    1    2    0    0  0.13416398552E+03 -0.70469765528E+01  0.96796642919E+02  0.20747102200E+03  0.12500000000E+03 0.  0.
         25    1    1    2    0    0 -0.13416398552E+03  0.70469765528E+01  0.15401664986E+03  0.23957412908E+03  0.12500000000E+03 0.  0.
</event>
<event>
 4    0  0.2225052E-002  0.2084155E+03  0.7546771E-02  0.1142827E+00
         21   -1    0    0  502  501  0.00000000000E+00  0.00000000000E+00  0.36804211015E+03  0.36804211015E+03  0.00000000000E+00 0.  1.
         21   -1    0    0  501  502 -0.00000000000E+00 -0.00000000000E+00 -0.11802192184E+03  0.11802192184E+03  0.00000000000E+00 0.  1.
         25    1    1    2    0    0 -0.43949790156E+01 -0.15845077997E+03  0.18544560375E+03  0.27411865581E+03  0.12500000000E+03 0.  0.
         25    1    1    2    0    0  0.43949790156E+01  0.15845077997E+03  0.64574584559E+02  0.21194537618E+03  0.12500000000E+03 0.  0.
</event>
<event>
 4    0  0.2225052E-002  0.1907734E+03  0.7546771E-02  0.1157766E+00
         21   -1    0    0  502  501  0.00000000000E+00  0.00000000000E+00  0.79291324486E+03  0.79291324486E+03  0.00000000000E+00 0.  1.
         21   -1    0    0  501  502 -0.00000000000E+00 -0.00000000000E+00 -0.45899702408E+02  0.45899702408E+02  0.00000000000E+00 0.  1.
         25    1    1    2    0    0 -0.94764065412E+02  0.15013254693E+02  0.60991832494E+03  0.62994522699E+03  0.12500000000E+03 0.  0.
         25    1    1    2    0    0  0.94764065412E+02 -0.15013254693E+02  0.13709521751E+03  0.20886772028E+03  0.12500000000E+03 0.  0.
</event>
<event>
 4    0  0.2225052E-002  0.3216550E+03  0.7546771E-02  0.1074890E+00
         21   -1    0    0  502  501  0.00000000000E+00  0.00000000000E+00  0.80261490401E+03  0.80261490401E+03  0.00000000000E+00 0. -1.
         21   -1    0    0  501  502 -0.00000000000E+00 -0.00000000000E+00 -0.12890605852E+03  0.12890605852E+03  0.00000000000E+00 0. -1.
         25    1    1    2    0    0 -0.20657391276E+03 -0.32643956675E+02  0.32776883638E+02  0.24584087016E+03  0.12500000000E+03 0.  0.
         25    1    1    2    0    0  0.20657391276E+03  0.32643956675E+02  0.64093196185E+03  0.68568009236E+03  0.12500000000E+03 0.  0.
</event>
<event>
 4    0  0.2225052E-002  0.2621578E+03  0.7546771E-02  0.1105854E+00
         21   -1    0    0  502  501  0.00000000000E+00  0.00000000000E+00  0.16354037437E+03  0.16354037437E+03  0.00000000000E+00 0.  1.
         21   -1    0    0  501  502 -0.00000000000E+00 -0.00000000000E+00 -0.42024297561E+03  0.42024297561E+03  0.00000000000E+00 0.  1.
         25    1    1    2    0    0  0.18122110980E+03  0.13802657834E+03 -0.16706993322E+03  0.30891712408E+03  0.12500000000E+03 0.  0.
         25    1    1    2    0    0 -0.18122110980E+03 -0.13802657834E+03 -0.89632668021E+02  0.27486622590E+03  0.12500000000E+03 0.  0.
</event>
<event>
 4    0  0.2225052E-002  0.2921275E+03  0.7546771E-02  0.1089244E+00
         21   -1    0    0  502  501  0.00000000000E+00  0.00000000000E+00  0.20224497832E+03  0.20224497832E+03  0.00000000000E+00 0. -1.
         21   -1    0    0  501  502 -0.00000000000E+00 -0.00000000000E+00 -0.42195582991E+03  0.42195582991E+03  0.00000000000E+00 0. -1.
         25    1    1    2    0    0 -0.36529613346E+01 -0.25564525521E+03 -0.18028372283E+03  0.33689028089E+03  0.12500000000E+03 0.  0.
         25    1    1    2    0    0  0.36529613346E+01  0.25564525521E+03 -0.39427128770E+02  0.28731052734E+03  0.12500000000E+03 0.  0.
</event>
<event>
 4    0  0.2225052E-002  0.1676016E+03  0.7546771E-02  0.1180372E+00
         21   -1    0    0  502  501  0.00000000000E+00  0.00000000000E+00  0.10047183288E+03  0.10047183288E+03  0.00000000000E+00 0. -1.
         21   -1    0    0  501  502 -0.00000000000E+00 -0.00000000000E+00 -0.27958381276E+03  0.27958381276E+03  0.00000000000E+00 0. -1.
         25    1    1    2    0    0 -0.63490784641E+02  0.68003226392E+02 -0.15953840782E+03  0.22300901799E+03  0.12500000000E+03 0.  0.
         25    1    1    2    0    0  0.63490784641E+02 -0.68003226392E+02 -0.19573572052E+02  0.15704662765E+03  0.12500000000E+03 0.  0.
</event>
<event>
 4    0  0.2225052E-002  0.3801654E+03  0.7546771E-02  0.1050873E+00
         21   -1    0    0  502  501  0.00000000000E+00  0.00000000000E+00  0.74637655956E+03  0.74637655956E+03  0.00000000000E+00 0.  1.
         21   -1    0    0  501  502 -0.00000000000E+00 -0.00000000000E+00 -0.19363643501E+03  0.19363643501E+03  0.00000000000E+00 0.  1.
         25    1    1    2    0    0 -0.35017656649E+03  0.14467769988E+02  0.37267426508E+03  0.52663464749E+03  0.12500000000E+03 0.  0.
         25    1    1    2    0    0  0.35017656649E+03 -0.14467769988E+02  0.18006585947E+03  0.41337834708E+03  0.12500000000E+03 0.  0.
</event>
<event>
 4    0  0.2225052E-002  0.2396256E+03  0.7546771E-02  0.1120042E+00
         21   -1    0    0  502  501  0.00000000000E+00  0.00000000000E+00  0.18866772764E+03  0.18866772764E+03  0.00000000000E+00 0.  1.
         21   -1    0    0  501  502 -0.00000000000E+00 -0.00000000000E+00 -0.30434695119E+03  0.30434695119E+03  0.00000000000E+00 0.  1.
         25    1    1    2    0    0  0.36565038291E+02 -0.18795394945E+03 -0.13153319516E+03  0.26379854163E+03  0.12500000000E+03 0.  0.
         25    1    1    2    0    0 -0.36565038291E+02  0.18795394945E+03  0.15853971604E+02  0.22921613720E+03  0.12500000000E+03 0.  0.
</event>
<event>
 4    0  0.2225052E-002  0.2001681E+03  0.7546771E-02  0.1149597E+00
         21   -1    0    0  502  501  0.00000000000E+00  0.00000000000E+00  0.12794546213E+04  0.12794546213E+04  0.00000000000E+00 0. -1.
         21   -1    0    0  501  502 -0.00000000000E+00 -0.00000000000E+00 -0.31315894836E+02  0.31315894836E+02  0.00000000000E+00 0.  1.
         25    1    1    2    0    0  0.66475031204E+02 -0.13465088291E+03  0.48163425844E+03  0.51975604753E+03  0.12500000000E+03 0.  0.
         25    1    1    2    0    0 -0.66475031204E+02  0.13465088291E+03  0.76650446802E+03  0.79101446860E+03  0.12500000000E+03 0.  0.
</event>
<event>
 4    0  0.2225052E-002  0.2503537E+03  0.7546771E-02  0.1113082E+00
         21   -1    0    0  502  501  0.00000000000E+00  0.00000000000E+00  0.20895550248E+03  0.20895550248E+03  0.00000000000E+00 0. -1.
         21   -1    0    0  501  502 -0.00000000000E+00 -0.00000000000E+00 -0.29995359826E+03  0.29995359826E+03  0.00000000000E+00 0. -1.
         25    1    1    2    0    0  0.13357348834E+03  0.13188413761E+03 -0.15598409524E+03  0.27421039460E+03  0.12500000000E+03 0.  0.
         25    1    1    2    0    0 -0.13357348834E+03 -0.13188413761E+03  0.64985999457E+02  0.23469870614E+03  0.12500000000E+03 0.  0.
</event>
<event>
 4    0  0.2225052E-002  0.1992042E+03  0.7546771E-02  0.1150412E+00
         21   -1    0    0  502  501  0.00000000000E+00  0.00000000000E+00  0.98856571336E+02  0.98856571336E+02  0.00000000000E+00 0. -1.
         21   -1    0    0  501  502 -0.00000000000E+00 -0.00000000000E+00 -0.40141284522E+03  0.40141284522E+03  0.00000000000E+00 0. -1.
         25    1    1    2    0    0  0.33261493201E+02 -0.50251180052E+02 -0.33073702792E+03  0.35866905312E+03  0.12500000000E+03 0.  0.
         25    1    1    2    0    0 -0.33261493201E+02  0.50251180052E+02  0.28180754041E+02  0.14160036343E+03  0.12500000000E+03 0.  0.
</event>
<event>
 4    0  0.2225052E-002  0.2480629E+03  0.7546771E-02  0.1114535E+00
         21   -1    0    0  502  501  0.00000000000E+00  0.00000000000E+00  0.92220607891E+03  0.92220607891E+03  0.00000000000E+00 0. -1.
         21   -1    0    0  501  502 -0.00000000000E+00 -0.00000000000E+00 -0.66726097489E+02  0.66726097489E+02  0.00000000000E+00 0. -1.
         25    1    1    2    0    0  0.14960710586E+03 -0.12161302672E+03  0.24140877922E+03  0.33327948193E+03  0.12500000000E+03 0.  0.
         25    1    1    2    0    0 -0.14960710586E+03  0.12161302672E+03  0.61407120220E+03  0.65565269446E+03  0.12500000000E+03 0.  0.
</event>
<event>
 4    0  0.2225052E-002  0.1854052E+03  0.7546771E-02  0.1162672E+00
         21   -1    0    0  502  501  0.00000000000E+00  0.00000000000E+00  0.98628569454E+02  0.98628569454E+02  0.00000000000E+00 0. -1.
         21   -1    0    0  501  502 -0.00000000000E+00 -0.00000000000E+00 -0.34853068935E+03  0.34853068935E+03  0.00000000000E+00 0. -1.
         25    1    1    2    0    0 -0.68024700652E+02 -0.76024064113E+02 -0.14803934439E+02  0.16202214262E+03  0.12500000000E+03 0.  0.
         25    1    1    2    0    0  0.68024700652E+02  0.76024064113E+02 -0.23509818545E+03  0.28513711619E+03  0.12500000000E+03 0.  0.
</event>
<event>
 4    0  0.2225052E-002  0.2465698E+03  0.7546771E-02  0.1115492E+00
         21   -1    0    0  502  501  0.00000000000E+00  0.00000000000E+00  0.63476247966E+02  0.63476247966E+02  0.00000000000E+00 0.  1.
         21   -1    0    0  501  502 -0.00000000000E+00 -0.00000000000E+00 -0.95778636853E+03  0.95778636853E+03  0.00000000000E+00 0.  1.
         25    1    1    2    0    0  0.82548353232E+02 -0.19379490868E+03 -0.38854388462E+03  0.45930604996E+03  0.12500000000E+03 0.  0.
         25    1    1    2    0    0 -0.82548353232E+02  0.19379490868E+03 -0.50576623594E+03  0.56195656654E+03  0.12500000000E+03 0.  0.
</event>
<event>
 4    0  0.2225052E-002  0.2447824E+03  0.7546771E-02  0.1116647E+00
         21   -1    0    0  502  501  0.00000000000E+00  0.00000000000E+00  0.24571907939E+03  0.24571907939E+03  0.00000000000E+00 0. -1.
         21   -1    0    0  501  502 -0.00000000000E+00 -0.00000000000E+00 -0.24384939056E+03  0.24384939056E+03  0.00000000000E+00 0. -1.
         25    1    1    2    0    0  0.77273638608E+02 -0.15647720328E+03  0.11856697951E+03  0.24523347855E+03  0.12500000000E+03 0.  0.
         25    1    1    2    0    0 -0.77273638608E+02  0.15647720328E+03 -0.11669729069E+03  0.24433499140E+03  0.12500000000E+03 0.  0.
</event>
<event>
 4    0  0.2225052E-002  0.1548792E+03  0.7546771E-02  0.1194602E+00
         21   -1    0    0  502  501  0.00000000000E+00  0.00000000000E+00  0.23631302005E+02  0.23631302005E+02  0.00000000000E+00 0.  1.
         21   -1    0    0  501  502 -0.00000000000E+00 -0.00000000000E+00 -0.10150758003E+04  0.10150758003E+04  0.00000000000E+00 0.  1.
         25    1    1    2    0    0 -0.35325984860E+02 -0.81419060546E+02 -0.42183017954E+03  0.44882367250E+03  0.12500000000E+03 0.  0.
         25    1    1    2    0    0  0.35325984860E+02  0.81419060546E+02 -0.56961431874E+03  0.58988342979E+03  0.12500000000E+03 0.  0.
</event>
<event>
 4    0  0.2225052E-002  0.2215290E+03  0.7546771E-02  0.1132748E+00
         21   -1    0    0  502  501  0.00000000000E+00  0.00000000000E+00  0.21260148658E+03  0.21260148658E+03  0.00000000000E+00 0.  1.
         21   -1    0    0  501  502 -0.00000000000E+00 -0.00000000000E+00 -0.23083136457E+03  0.23083136457E+03  0.00000000000E+00 0.  1.
         25    1    1    2    0    0 -0.28547985869E+02  0.96918454412E+02  0.14346705393E+03  0.21544365822E+03  0.12500000000E+03 0.  0.
         25    1    1    2    0    0  0.28547985869E+02 -0.96918454412E+02 -0.16169693192E+03  0.22798919294E+03  0.12500000000E+03 0.  0.
</event>
<event>
 4    0  0.2225052E-002  0.2067741E+03  0.7546771E-02  0.1144146E+00
         21   -1    0    0  502  501  0.00000000000E+00  0.00000000000E+00  0.47770864066E+03  0.47770864066E+03  0.00000000000E+00 0.  1.
         21   -1    0    0  501  502 -0.00000000000E+00 -0.00000000000E+00 -0.89501262980E+02  0.89501262980E+02  0.00000000000E+00 0.  1.
         25    1    1    2    0    0  0.60740031106E+02  0.10539808221E+03  0.34641839078E+03  0.38785152904E+03  0.12500000000E+03 0.  0.
         25    1    1    2    0    0 -0.60740031106E+02 -0.10539808221E+03  0.41788986899E+02  0.17935837460E+03  0.12500000000E+03 0.  0.
</event>
<event>
 4    0  0.2225052E-002  0.1611148E+03  0.7546771E-02  0.1187444E+00
         21   -1    0    0  502  501  0.00000000000E+00  0.00000000000E+00  0.24043039003E+02  0.24043039003E+02  0.00000000000E+00 0. -1.
         21   -1    0    0  501  502 -0.00000000000E+00 -0.00000000000E+00 -0.10796457704E+04  0.10796457704E+04  0.00000000000E+00 0. -1.
         25    1    1    2    0    0  0.74385974130E+02  0.29604711593E+01 -0.29072343194E+03  0.32509560350E+03  0.12500000000E+03 0.  0.
         25    1    1    2    0    0 -0.74385974130E+02 -0.29604711593E+01 -0.76487929943E+03  0.77859320587E+03  0.12500000000E+03 0.  0.
</event>
<event>
 4    0  0.2225052E-002  0.3289377E+03  0.7546771E-02  0.1071608E+00
         21   -1    0    0  502  501  0.00000000000E+00  0.00000000000E+00  0.16158148996E+03  0.16158148996E+03  0.00000000000E+00 0.  1.
         21   -1    0    0  501  502 -0.00000000000E+00 -0.00000000000E+00 -0.66963142320E+03  0.66963142320E+03  0.00000000000E+00 0.  1.
         25    1    1    2    0    0 -0.20918257366E+03  0.19023828530E+03 -0.11204725047E+03  0.32882752417E+03  0.12500000000E+03 0.  0.
         25    1    1    2    0    0  0.20918257366E+03 -0.19023828530E+03 -0.39600268277E+03  0.50238538899E+03  0.12500000000E+03 0.  0.
</event>
<event>
 4    0  0.2225052E-002  0.1961248E+03  0.7546771E-02  0.1153050E+00
         21   -1    0    0  502  501  0.00000000000E+00  0.00000000000E+00  0.78967222689E+03  0.78967222689E+03  0.00000000000E+00 0. -1.
         21   -1    0    0  501  502 -0.00000000000E+00 -0.00000000000E+00 -0.48709999480E+02  0.48709999480E+02  0.00000000000E+00 0. -1.
         25    1    1    2    0    0 -0.80671851195E+02  0.12521063964E+03  0.42515274445E+03  0.46750990147E+03  0.12500000000E+03 0.  0.
         25    1    1    2    0    0  0.80671851195E+02 -0.12521063964E+03  0.31580948296E+03  0.37087232491E+03  0.12500000000E+03 0.  0.
</event>
<event>
 4    0  0.2225052E-002  0.2949611E+03  0.7546771E-02  0.1087787E+00
         21   -1    0    0  502  501  0.00000000000E+00  0.00000000000E+00  0.31268928781E+03  0.31268928781E+03  0.00000000000E+00 0.  1.
         21   -1    0    0  501  502 -0.00000000000E+00 -0.00000000000E+00 -0.27823807181E+03  0.27823807181E+03  0.00000000000E+00 0.  1.
         25    1    1    2    0    0 -0.17286160817E+03 -0.15551095375E+03  0.14902589597E+03  0.30314767026E+03  0.12500000000E+03 0.  0.
         25    1    1    2    0    0  0.17286160817E+03  0.15551095375E+03 -0.11457467997E+03  0.28777968936E+03  0.12500000000E+03 0.  0.
</event>
<event>
 4    0  0.2225052E-002  0.2156665E+03  0.7546771E-02  0.1137156E+00
         21   -1    0    0  502  501  0.00000000000E+00  0.00000000000E+00  0.13517811118E+03  0.13517811118E+03  0.00000000000E+00 0.  1.
         21   -1    0    0  501  502 -0.00000000000E+00 -0.00000000000E+00 -0.34407977934E+03  0.34407977934E+03  0.00000000000E+00 0.  1.
         25    1    1    2    0    0  0.12097150471E+03 -0.42081345438E+02  0.29261797411E+02  0.18134551931E+03  0.12500000000E+03 0.  0.
         25    1    1    2    0    0 -0.12097150471E+03  0.42081345438E+02 -0.23816346557E+03  0.29791237121E+03  0.12500000000E+03 0.  0.
</event>
<event>
 4    0  0.2225052E-002  0.4375930E+03  0.7546771E-02  0.1031488E+00
         21   -1    0    0  502  501  0.00000000000E+00  0.00000000000E+00  0.29199621767E+03  0.29199621767E+03  0.00000000000E+00 0.  1.
         21   -1    0    0  501  502 -0.00000000000E+00 -0.00000000000E+00 -0.65578811197E+03  0.65578811197E+03  0.00000000000E+00 0.  1.
         25    1    1    2    0    0 -0.12551551056E+03 -0.23897712445E+03 -0.52945168815E+03  0.60729589121E+03  0.12500000000E+03 0.  0.
         25    1    1    2    0    0  0.12551551056E+03  0.23897712445E+03  0.16565979384E+03  0.34048843842E+03  0.12500000000E+03 0.  0.
</event>
<event>
 4    0  0.2225052E-002  0.1901559E+03  0.7546771E-02  0.1158321E+00
         21   -1    0    0  502  501  0.00000000000E+00  0.00000000000E+00  0.19874764357E+03  0.19874764357E+03  0.00000000000E+00 0. -1.
         21   -1    0    0  501  502 -0.00000000000E+00 -0.00000000000E+00 -0.18193548998E+03  0.18193548998E+03  0.00000000000E+00 0. -1.
         25    1    1    2    0    0  0.11122818712E+03  0.55727932462E+02 -0.62775522489E+02  0.18719796551E+03  0.12500000000E+03 0.  0.
         25    1    1    2    0    0 -0.11122818712E+03 -0.55727932462E+02  0.79587676079E+02  0.19348516803E+03  0.12500000000E+03 0.  0.
</event>
<event>
 4    0  0.2225052E-002  0.3495206E+03  0.7546771E-02  0.1062812E+00
         21   -1    0    0  502  501  0.00000000000E+00  0.00000000000E+00  0.32233916747E+03  0.32233916747E+03  0.00000000000E+00 0.  1.
         21   -1    0    0  501  502 -0.00000000000E+00 -0.00000000000E+00 -0.37899414195E+03  0.37899414195E+03  0.00000000000E+00 0.  1.
         25    1    1    2    0    0 -0.26052974577E+03 -0.14004763142E+03  0.11014887753E+03  0.33948028326E+03  0.12500000000E+03 0.  0.
         25    1    1    2    0    0  0.26052974577E+03  0.14004763142E+03 -0.16680385200E+03  0.36185302616E+03  0.12500000000E+03 0.  0.
</event>
<event>
 4    0  0.2225052E-002  0.3942563E+03  0.7546771E-02  0.1045787E+00
         21   -1    0    0  502  501  0.00000000000E+00  0.00000000000E+00  0.74117127045E+02  0.74117127045E+02  0.00000000000E+00 0. -1.
         21   -1    0    0  501  502 -0.00000000000E+00 -0.00000000000E+00 -0.20971944993E+04  0.20971944993E+04  0.00000000000E+00 0. -1.
         25    1    1    2    0    0  0.31842845171E+03 -0.17205471302E+03 -0.75302209930E+03  0.84478801197E+03  0.12500000000E+03 0.  0.
         25    1    1    2    0    0 -0.31842845171E+03  0.17205471302E+03 -0.12700552729E+04  0.13265236143E+04  0.12500000000E+03 0.  0.
</event>
<event>
 4    0  0.2225052E-002  0.1990848E+03  0.7546771E-02  0.1150513E+00
         21   -1    0    0  502  501  0.00000000000E+00  0.00000000000E+00  0.43089403328E+03  0.43089403328E+03  0.00000000000E+00 0. -1.
         21   -1    0    0  501  502 -0.00000000000E+00 -0.00000000000E+00 -0.91982652877E+02  0.91982652877E+02  0.00000000000E+00 0. -1.
         25    1    1    2    0    0  0.64638525620E+02 -0.10027634756E+03  0.29929857209E+03  0.34559820620E+03  0.12500000000E+03 0.  0.
         25    1    1    2    0    0 -0.64638525620E+02  0.10027634756E+03  0.39612808317E+02  0.17727847996E+03  0.12500000000E+03 0.  0.
</event>
<event>
 4    0  0.2225052E-002  0.1948458E+03  0.7546771E-02  0.1154162E+00
         21   -1    0    0  502  501  0.00000000000E+00  0.00000000000E+00  0.13017869174E+02  0.13017869174E+02  0.00000000000E+00 0. -1.
         21   -1    0    0  501  502 -0.00000000000E+00 -0.00000000000E+00 -0.29163681173E+04  0.29163681173E+04  0.00000000000E+00 0. -1.
         25    1    1    2    0    0  0.31533801455E+02 -0.25201125896E+02 -0.25334825241E+04  0.25368855270E+04  0.12500000000E+03 0.  0.
         25    1    1    2    0    0 -0.31533801455E+02  0.25201125896E+02 -0.36986772402E+03  0.39250045943E+03  0.12500000000E+03 0.  0.
</event>
<event>
 4    0  0.2225052E-002  0.3100234E+03  0.7546771E-02  0.1080335E+00
         21   -1    0    0  502  501  0.00000000000E+00  0.00000000000E+00  0.57356868323E+03  0.57356868323E+03  0.00000000000E+00 0. -1.
         21   -1    0    0  501  502 -0.00000000000E+00 -0.00000000000E+00 -0.16757283182E+03  0.16757283182E+03  0.00000000000E+00 0. -1.
         25    1    1    2    0    0  0.10321035104E+03  0.26282177772E+03  0.17000539257E+03  0.35249751333E+03  0.12500000000E+03 0.  0.
         25    1    1    2    0    0 -0.10321035104E+03 -0.26282177772E+03  0.23599045885E+03  0.38864400172E+03  0.12500000000E+03 0.  0.
</event>
<event>
 4    0  0.2225052E-002  0.2579813E+03  0.7546771E-02  0.1108362E+00
         21   -1    0    0  502  501  0.00000000000E+00  0.00000000000E+00  0.26081407462E+03  0.26081407462E+03  0.00000000000E+00 0. -1.
         21   -1    0    0  501  502 -0.00000000000E+00 -0.00000000000E+00 -0.25517935614E+03  0.25517935614E+03  0.00000000000E+00 0. -1.
         25    1    1    2    0    0  0.19604158078E+03 -0.10489211491E+03 -0.35846431763E+02  0.25757450152E+03  0.12500000000E+03 0.  0.
         25    1    1    2    0    0 -0.19604158078E+03  0.10489211491E+03  0.41481150251E+02  0.25841892924E+03  0.12500000000E+03 0.  0.
</event>
<event>
 4    0  0.2225052E-002  0.2006286E+03  0.7546771E-02  0.1149210E+00
         21   -1    0    0  502  501  0.00000000000E+00  0.00000000000E+00  0.24714973008E+03  0.24714973008E+03  0.00000000000E+00 0.  1.
         21   -1    0    0  501  502 -0.00000000000E+00 -0.00000000000E+00 -0.16286420709E+03  0.16286420709E+03  0.00000000000E+00 0.  1.
         25    1    1    2    0    0 -0.14302739793E+03  0.18283295523E+02  0.10542760462E+03  0.21801627295E+03  0.12500000000E+03 0.  0.
         25    1    1    2    0    0  0.14302739793E+03 -0.18283295523E+02 -0.21142081636E+02  0.19199766423E+03  0.12500000000E+03 0.  0.
</event>
<event>
 4    0  0.2225052E-002  0.1525064E+03  0.7546771E-02  0.1197426E+00
         21   -1    0    0  502  501  0.00000000000E+00  0.00000000000E+00  0.20855152611E+02  0.20855152611E+02  0.00000000000E+00 0.  1.
         21   -1    0    0  501  502 -0.00000000000E+00 -0.00000000000E+00 -0.11152263267E+04  0.11152263267E+04  0.00000000000E+00 0.  1.
         25    1    1    2    0    0  0.13604513374E+02 -0.86262873163E+02 -0.53743770605E+03  0.55865074416E+03  0.12500000000E+03 0.  0.
         25    1    1    2    0    0 -0.13604513374E+02  0.86262873163E+02 -0.55693346802E+03  0.57743073513E+03  0.12500000000E+03 0.  0.
</event>
<event>
 4    0  0.2225052E-002  0.2092535E+03  0.7546771E-02  0.1142158E+00
         21   -1    0    0  502  501  0.00000000000E+00  0.00000000000E+00  0.14762623015E+03  0.14762623015E+03  0.00000000000E+00 0. -1.
         21   -1    0    0  501  502 -0.00000000000E+00 -0.00000000000E+00 -0.29660749565E+03  0.29660749565E+03  0.00000000000E+00 0. -1.
         25    1    1    2    0    0  0.76639921357E+02 -0.54809420544E+02  0.72913820084E+02  0.17268229581E+03  0.12500000000E+03 0.  0.
         25    1    1    2    0    0 -0.76639921357E+02  0.54809420544E+02 -0.22189508558E+03  0.27155142999E+03  0.12500000000E+03 0.  0.
</event>
<event>
 4    0  0.2225052E-002  0.2370487E+03  0.7546771E-02  0.1121775E+00
         21   -1    0    0  502  501  0.00000000000E+00  0.00000000000E+00  0.73016523601E+03  0.73016523601E+03  0.00000000000E+00 0. -1.
         21   -1    0    0  501  502 -0.00000000000E+00 -0.00000000000E+00 -0.76958043876E+02  0.76958043876E+02  0.00000000000E+00 0. -1.
         25    1    1    2    0    0  0.65671994241E+02 -0.13787970523E+03  0.10304851065E+03  0.22263786625E+03  0.12500000000E+03 0.  0.
         25    1    1    2    0    0 -0.65671994241E+02  0.13787970523E+03  0.55015868149E+03  0.58448541364E+03  0.12500000000E+03 0.  0.
</event>
<event>
 4    0  0.2225052E-002  0.2078969E+03  0.7546771E-02  0.1143242E+00
         21   -1    0    0  502  501  0.00000000000E+00  0.00000000000E+00  0.40294322024E+03  0.40294322024E+03  0.00000000000E+00 0. -1.
         21   -1    0    0  501  502 -0.00000000000E+00 -0.00000000000E+00 -0.10726359916E+03  0.10726359916E+03  0.00000000000E+00 0. -1.
         25    1    1    2    0    0  0.66003873029E+02 -0.13932012986E+03  0.71905001548E+02  0.21109698976E+03  0.12500000000E+03 0.  0.
         25    1    1    2    0    0 -0.66003873029E+02  0.13932012986E+03  0.22377461953E+03  0.29910982964E+03  0.12500000000E+03 0.  0.
</event>
<event>
 4    0  0.2225052E-002  0.2336806E+03  0.7546771E-02  0.1124076E+00
         21   -1    0    0  502  501  0.00000000000E+00  0.00000000000E+00  0.20102731259E+03  0.20102731259E+03  0.00000000000E+00 0.  1.
         21   -1    0    0  501  502 -0.00000000000E+00 -0.00000000000E+00 -0.27163776930E+03  0.27163776930E+03  0.00000000000E+00 0.  1.
         25    1    1    2    0    0  0.16866374095E+03  0.67302370889E+02 -0.11367361994E+03  0.24803983250E+03  0.12500000000E+03 0.  0.
         25    1    1    2    0    0 -0.16866374095E+03 -0.67302370889E+02  0.43063163226E+02  0.22462524939E+03  0.12500000000E+03 0.  0.
</event>
<event>
 4    0  0.2225052E-002  0.2342338E+03  0.7546771E-02  0.1123695E+00
         21   -1    0    0  502  501  0.00000000000E+00  0.00000000000E+00  0.33089805681E+03  0.33089805681E+03  0.00000000000E+00 0. -1.
         21   -1    0    0  501  502 -0.00000000000E+00 -0.00000000000E+00 -0.16580778653E+03  0.16580778653E+03  0.00000000000E+00 0. -1.
         25    1    1    2    0    0  0.95376102445E+00 -0.19577950509E+03  0.50561450754E+02  0.23772249489E+03  0.12500000000E+03 0.  0.
         25    1    1    2    0    0 -0.95376102445E+00  0.19577950509E+03  0.11452881953E+03  0.25898334845E+03  0.12500000000E+03 0.  0.
</event>
<event>
 4    0  0.2225052E-002  0.1836497E+03  0.7546771E-02  0.1164317E+00
         21   -1    0    0  502  501  0.00000000000E+00  0.00000000000E+00  0.27095175526E+02  0.27095175526E+02  0.00000000000E+00 0. -1.
         21   -1    0    0  501  502 -0.00000000000E+00 -0.00000000000E+00 -0.12447676891E+04  0.12447676891E+04  0.00000000000E+00 0. -1.
         25    1    1    2    0    0 -0.11122260893E+01  0.76907448937E+01 -0.14372134925E+03  0.19063370855E+03  0.12500000000E+03 0.  0.
         25    1    1    2    0    0  0.11122260893E+01 -0.76907448937E+01 -0.10739511643E+04  0.10812291561E+04  0.12500000000E+03 0.  0.
</event>
<event>
 4    0  0.2225052E-002  0.2021873E+03  0.7546771E-02  0.1147907E+00
         21   -1    0    0  502  501  0.00000000000E+00  0.00000000000E+00  0.98729777685E+02  0.98729777685E+02  0.00000000000E+00 0. -1.
         21   -1    0    0  501  502 -0.00000000000E+00 -0.00000000000E+00 -0.41405655932E+03  0.41405655932E+03  0.00000000000E+00 0. -1.
         25    1    1    2    0    0 -0.58256132100E+02 -0.31637278466E+02 -0.34081463448E+03  0.36901803397E+03  0.12500000000E+03 0.  0.
         25    1    1    2    0    0  0.58256132100E+02  0.31637278466E+02  0.25487852845E+02  0.14376830304E+03  0.12500000000E+03 0.  0.
</event>
<event>
 4    0  0.2225052E-002  0.2296350E+03  0.7546771E-02  0.1126897E+00
         21   -1    0    0  502  501  0.00000000000E+00  0.00000000000E+00  0.59280659097E+03  0.59280659097E+03  0.00000000000E+00 0. -1.
         21   -1    0    0  501  502 -0.00000000000E+00 -0.00000000000E+00 -0.88953555987E+02  0.88953555987E+02  0.00000000000E+00 0. -1.
         25    1    1    2    0    0 -0.82319214856E+00 -0.12202322381E+03  0.47318772023E+03  0.50440258065E+03  0.12500000000E+03 0.  0.
         25    1    1    2    0    0  0.82319214856E+00  0.12202322381E+03  0.30665314751E+02  0.17735756630E+03  0.12500000000E+03 0.  0.
</event>
<event>
 4    0  0.2225052E-002  0.3270197E+03  0.7546771E-02  0.1072463E+00
         21   -1    0    0  502  501  0.00000000000E+00  0.00000000000E+00  0.21047094639E+03  0.21047094639E+03  0.00000000000E+00 0. -1.
         21   -1    0    0  501  502 -0.00000000000E+00 -0.00000000000E+00 -0.50810758893E+03  0.50810758893E+03  0.00000000000E+00 0. -1.
         25    1    1    2    0    0  0.35934908455E+02  0.84233777967E+02  0.16757461801E+03  0.22823868996E+03  0.12500000000E+03 0.  0.
         25    1    1    2    0    0 -0.35934908455E+02 -0.84233777967E+02 -0.46521126055E+03  0.49033984535E+03  0.12500000000E+03 0.  0.
</event>
<event>
 4    0  0.2225052E-002  0.2459897E+03  0.7546771E-02  0.1115866E+00
         21   -1    0    0  502  501  0.00000000000E+00  0.00000000000E+00  0.10937534140E+04  0.10937534140E+04  0.00000000000E+00 0.  1.
         21   -1    0    0  501  502 -0.00000000000E+00 -0.00000000000E+00 -0.55324120340E+02  0.55324120340E+02  0.00000000000E+00 0.  1.
         25    1    1    2    0    0 -0.11789735652E+03 -0.27666490782E+02  0.92524154165E+03  0.94146807263E+03  0.12500000000E+03 0.  0.
         25    1    1    2    0    0  0.11789735652E+03  0.27666490782E+02  0.11318775200E+03  0.20760946170E+03  0.12500000000E+03 0.  0.
</event>
<event>
 4    0  0.2225052E-002  0.2702698E+03  0.7546771E-02  0.1101125E+00
         21   -1    0    0  502  501  0.00000000000E+00  0.00000000000E+00  0.67689976329E+02  0.67689976329E+02  0.00000000000E+00 0. -1.
         21   -1    0    0  501  502 -0.00000000000E+00 -0.00000000000E+00 -0.10791226643E+04  0.10791226643E+04  0.00000000000E+00 0. -1.
         25    1    1    2    0    0  0.14549980988E+03 -0.28706997937E+02 -0.10638902830E+03  0.22121914869E+03  0.12500000000E+03 0.  0.
         25    1    1    2    0    0 -0.14549980988E+03  0.28706997937E+02 -0.90504365966E+03  0.92559349193E+03  0.12500000000E+03 0.  0.
</event>
<event>
 4    0  0.2225052E-002  0.2945064E+03  0.7546771E-02  0.1088019E+00
         21   -1    0    0  502  501  0.00000000000E+00  0.00000000000E+00  0.19473612848E+03  0.19473612848E+03  0.00000000000E+00 0.  1.
         21   -1    0    0  501  502 -0.00000000000E+00 -0.00000000000E+00 -0.44539259965E+03  0.44539259965E+03  0.00000000000E+00 0.  1.
         25    1    1    2    0    0  0.62314903328E+02  0.23891440771E+03 -0.23479580469E+03  0.36292879644E+03  0.12500000000E+03 0.  0.
         25    1    1    2    0    0 -0.62314903328E+02 -0.23891440771E+03 -0.15860666485E+02  0.27719993169E+03  0.12500000000E+03 0.  0.
</event>
<event>
 4    0  0.2225052E-002  0.2952620E+03  0.7546771E-02  0.1087633E+00
         21   -1    0    0  502  501  0.00000000000E+00  0.00000000000E+00  0.24719921825E+03  0.24719921825E+03  0.00000000000E+00 0. -1.
         21   -1    0    0  501  502 -0.00000000000E+00 -0.00000000000E+00 -0.35266965810E+03  0.35266965810E+03  0.00000000000E+00 0. -1.
         25    1    1    2    0    0 -0.13204141384E+03 -0.10386049782E+03  0.15872405728E+03  0.26275514141E+03  0.12500000000E+03 0.  0.
         25    1    1    2    0    0  0.13204141384E+03  0.10386049782E+03 -0.26419449712E+03  0.33711373494E+03  0.12500000000E+03 0.  0.
</event>
<event>
 4    0  0.2225052E-002  0.1737803E+03  0.7546771E-02  0.1173962E+00
         21   -1    0    0  502  501  0.00000000000E+00  0.00000000000E+00  0.29072243452E+02  0.29072243452E+02  0.00000000000E+00 0.  1.
         21   -1    0    0  501  502 -0.00000000000E+00 -0.00000000000E+00 -0.10387777277E+04  0.10387777277E+04  0.00000000000E+00 0.  1.
         25    1    1    2    0    0 -0.95109641822E+02  0.57051568158E+02 -0.65136124009E+03  0.67245608815E+03  0.12500000000E+03 0.  0.
         25    1    1    2    0    0  0.95109641822E+02 -0.57051568158E+02 -0.35834424419E+03  0.39539388303E+03  0.12500000000E+03 0.  0.
</event>
<event>
 4    0  0.2225052E-002  0.1786554E+03  0.7546771E-02  0.1169111E+00
         21   -1    0    0  502  501  0.00000000000E+00  0.00000000000E+00  0.10065605449E+03  0.10065605449E+03  0.00000000000E+00 0.  1.
         21   -1    0    0  501  502 -0.00000000000E+00 -0.00000000000E+00 -0.31709735802E+03  0.31709735802E+03  0.00000000000E+00 0.  1.
         25    1    1    2    0    0 -0.69474895292E+02  0.96303623808E+02 -0.16295454819E+03  0.23723476518E+03  0.12500000000E+03 0.  0.
         25    1    1    2    0    0  0.69474895292E+02 -0.96303623808E+02 -0.53486755344E+02  0.18051864732E+03  0.12500000000E+03 0.  0.
</event>
<event>
 4    0  0.2225052E-002  0.1991623E+03  0.7546771E-02  0.1150448E+00
         21   -1    0    0  502  501  0.00000000000E+00  0.00000000000E+00  0.64143489006E+02  0.64143489006E+02  0.00000000000E+00 0.  1.
         21   -1    0    0  501  502 -0.00000000000E+00 -0.00000000000E+00 -0.61838865510E+03  0.61838865510E+03  0.00000000000E+00 0.  1.
         25    1    1    2    0    0 -0.12067367706E+03  0.96219137693E+02 -0.25168711444E+03  0.32061138840E+03  0.12500000000E+03 0.  0.
         25    1    1    2    0    0  0.12067367706E+03 -0.96219137693E+02 -0.30255805165E+03  0.36192075571E+03  0.12500000000E+03 0.  0.
</event>
<event>
 4    0  0.2225052E-002  0.2252543E+03  0.7546771E-02  0.1130025E+00
         21   -1    0    0  502  501  0.00000000000E+00  0.00000000000E+00  0.10745808907E+03  0.10745808907E+03  0.00000000000E+00 0.  1.
         21   -1    0    0  501  502 -0.00000000000E+00 -0.00000000000E+00 -0.47217947074E+03  0.47217947074E+03  0.00000000000E+00 0.  1.
         25    1    1    2    0    0 -0.10592356227E+03 -0.73961647444E+02 -0.77182366014E+01  0.17992970158E+03  0.12500000000E+03 0.  0.
         25    1    1    2    0    0  0.10592356227E+03  0.73961647444E+02 -0.35700314507E+03  0.39970785822E+03  0.12500000000E+03 0.  0.
</event>
<event>
 4    0  0.2225052E-002  0.4110384E+03  0.7546771E-02  0.1040023E+00
         21   -1    0    0  502  501  0.00000000000E+00  0.00000000000E+00  0.29038859689E+03  0.29038859689E+03  0.00000000000E+00 0. -1.
         21   -1    0    0  501  502 -0.00000000000E+00 -0.00000000000E+00 -0.58181542452E+03  0.58181542452E+03  0.00000000000E+00 0. -1.
         25    1    1    2    0    0  0.12189570255E+03  0.24934101122E+03  0.14735057050E+03  0.33818144952E+03  0.12500000000E+03 0.  0.
         25    1    1    2    0    0 -0.12189570255E+03 -0.24934101122E+03 -0.43877739813E+03  0.53402257189E+03  0.12500000000E+03 0.  0.
</event>
<event>
 4    0  0.2225052E-002  0.2305910E+03  0.7546771E-02  0.1126224E+00
         21   -1    0    0  502  501  0.00000000000E+00  0.00000000000E+00  0.29997898344E+02  0.29997898344E+02  0.00000000000E+00 0.  1.
         21   -1    0    0  501  502 -0.00000000000E+00 -0.00000000000E+00 -0.17725309009E+04  0.17725309009E+04  0.00000000000E+00 0.  1.
         25    1    1    2    0    0 -0.14377760539E+03 -0.51805980654E+02 -0.13368757868E+04  0.13513762351E+04  0.12500000000E+03 0.  0.
         25    1    1    2    0    0  0.14377760539E+03  0.51805980654E+02 -0.40565721575E+03  0.45115256414E+03  0.12500000000E+03 0.  0.
</event>
<event>
 4    0  0.2225052E-002  0.2222036E+03  0.7546771E-02  0.1132251E+00
         21   -1    0    0  502  501  0.00000000000E+00  0.00000000000E+00  0.47893933639E+03  0.47893933639E+03  0.00000000000E+00 0.  1.
         21   -1    0    0  501  502 -0.00000000000E+00 -0.00000000000E+00 -0.10309124426E+03  0.10309124426E+03  0.00000000000E+00 0.  1.
         25    1    1    2    0    0 -0.62111211488E+01  0.14223817762E+02 -0.51817072241E+02  0.13620170334E+03  0.12500000000E+03 0.  0.
         25    1    1    2    0    0  0.62111211488E+01 -0.14223817762E+02  0.42766516437E+03  0.44582887730E+03  0.12500000000E+03 0.  0.
</event>
<event>
 4    0  0.2225052E-002  0.2693457E+03  0.7546771E-02  0.1101655E+00
         21   -1    0    0  502  501  0.00000000000E+00  0.00000000000E+00  0.68383051886E+02  0.68383051886E+02  0.00000000000E+00 0.  1.
         21   -1    0    0  501  502 -0.00000000000E+00 -0.00000000000E+00 -0.10608927656E+04  0.10608927656E+04  0.00000000000E+00 0.  1.
         25    1    1    2    0    0 -0.21631790426E+03  0.92841757380E+02 -0.41481951360E+03  0.49306516454E+03  0.12500000000E+03 0.  0.
         25    1    1    2    0    0  0.21631790426E+03 -0.92841757380E+02 -0.57769020014E+03  0.63621065297E+03  0.12500000000E+03 0.  0.
</event>
<event>
 4    0  0.2225052E-002  0.1976783E+03  0.7546771E-02  0.1151713E+00
         21   -1    0    0  502  501  0.00000000000E+00  0.00000000000E+00  0.27473140579E+02  0.27473140579E+02  0.00000000000E+00 0. -1.
         21   -1    0    0  501  502 -0.00000000000E+00 -0.00000000000E+00 -0.14223607220E+04  0.14223607220E+04  0.00000000000E+00 0. -1.
         25    1    1    2    0    0  0.58551600802E+02 -0.10653875655E+03 -0.35592714954E+03  0.39634320025E+03  0.12500000000E+03 0.  0.
         25    1    1    2    0    0 -0.58551600802E+02  0.10653875655E+03 -0.10389604319E+04  0.10534906624E+04  0.12500000000E+03 0.  0.
</event>
<event>
 4    0  0.2225052E-002  0.1772777E+03  0.7546771E-02  0.1170464E+00
         21   -1    0    0  502  501  0.00000000000E+00  0.00000000000E+00  0.11177921704E+04  0.11177921704E+04  0.00000000000E+00 0.  1.
         21   -1    0    0  501  502 -0.00000000000E+00 -0.00000000000E+00 -0.28115599046E+02  0.28115599046E+02  0.00000000000E+00 0.  1.
         25    1    1    2    0    0 -0.15405559152E+01 -0.12139706611E+03  0.65020082653E+03  0.67314614742E+03  0.12500000000E+03 0.  0.
         25    1    1    2    0    0  0.15405559152E+01  0.12139706611E+03  0.43947574487E+03  0.47276162207E+03  0.12500000000E+03 0.  0.
</event>
<event>
 4    0  0.2225052E-002  0.1716903E+03  0.7546771E-02  0.1176096E+00
         21   -1    0    0  502  501  0.00000000000E+00  0.00000000000E+00  0.76497633258E+02  0.76497633258E+02  0.00000000000E+00 0.  1.
         21   -1    0    0  501  502 -0.00000000000E+00 -0.00000000000E+00 -0.38533970767E+03  0.38533970767E+03  0.00000000000E+00 0.  1.
         25    1    1    2    0    0 -0.57302090505E+02  0.46862648180E+02 -0.27749101202E+03  0.31321861235E+03  0.12500000000E+03 0.  0.
         25    1    1    2    0    0  0.57302090505E+02 -0.46862648180E+02 -0.31351062392E+02  0.14861872858E+03  0.12500000000E+03 0.  0.
</event>
<event>
 4    0  0.2225052E-002  0.1935158E+03  0.7546771E-02  0.1155328E+00
         21   -1    0    0  502  501  0.00000000000E+00  0.00000000000E+00  0.29716733371E+03  0.29716733371E+03  0.00000000000E+00 0.  1.
         21   -1    0    0  501  502 -0.00000000000E+00 -0.00000000000E+00 -0.12601772648E+03  0.12601772648E+03  0.00000000000E+00 0.  1.
         25    1    1    2    0    0  0.10662001323E+03 -0.64337552089E+02  0.17247325764E+03  0.24673705120E+03  0.12500000000E+03 0.  0.
         25    1    1    2    0    0 -0.10662001323E+03  0.64337552089E+02 -0.13236504155E+01  0.17644800900E+03  0.12500000000E+03 0.  0.
</event>
<event>
 4    0  0.2225052E-002  0.1547577E+03  0.7546771E-02  0.1194746E+00
         21   -1    0    0  502  501  0.00000000000E+00  0.00000000000E+00  0.11605068150E+04  0.11605068150E+04  0.00000000000E+00 0. -1.
         21   -1    0    0  501  502 -0.00000000000E+00 -0.00000000000E+00 -0.20637486458E+02  0.20637486458E+02  0.00000000000E+00 0. -1.
         25    1    1    2    0    0  0.71921746529E+02  0.26670655454E+02  0.38139873555E+03  0.40862459173E+03  0.12500000000E+03 0.  0.
         25    1    1    2    0    0 -0.71921746529E+02 -0.26670655454E+02  0.75847059302E+03  0.77251970976E+03  0.12500000000E+03 0.  0.
</event>
<event>
 4    0  0.2225052E-002  0.2371656E+03  0.7546771E-02  0.1121696E+00
         21   -1    0    0  502  501  0.00000000000E+00  0.00000000000E+00  0.19723833414E+03  0.19723833414E+03  0.00000000000E+00 0.  1.
         21   -1    0    0  501  502 -0.00000000000E+00 -0.00000000000E+00 -0.28517535058E+03  0.28517535058E+03  0.00000000000E+00 0.  1.
         25    1    1    2    0    0 -0.10712902839E+03 -0.17057257603E+03 -0.51222980911E+02  0.24252922750E+03  0.12500000000E+03 0.  0.
         25    1    1    2    0    0  0.10712902839E+03  0.17057257603E+03 -0.36714035529E+02  0.23988445723E+03  0.12500000000E+03 0.  0.
</event>
<event>
 4    0  0.2225052E-002  0.2185764E+03  0.7546771E-02  0.1134949E+00
         21   -1    0    0  502  501  0.00000000000E+00  0.00000000000E+00  0.27239257766E+03  0.27239257766E+03  0.00000000000E+00 0. -1.
         21   -1    0    0  501  502 -0.00000000000E+00 -0.00000000000E+00 -0.17539255280E+03  0.17539255280E+03  0.00000000000E+00 0. -1.
         25    1    1    2    0    0  0.25137137533E+02 -0.11485715342E+03  0.18716833863E+03  0.25393114886E+03  0.12500000000E+03 0.  0.
         25    1    1    2    0    0 -0.25137137533E+02  0.11485715342E+03 -0.90168313767E+02  0.19385398160E+03  0.12500000000E+03 0.  0.
</event>
<event>
 4    0  0.2225052E-002  0.2952761E+03  0.7546771E-02  0.1087626E+00
         21   -1    0    0  502  501  0.00000000000E+00  0.00000000000E+00  0.63910513475E+03  0.63910513475E+03  0.00000000000E+00 0. -1.
         21   -1    0    0  501  502 -0.00000000000E+00 -0.00000000000E+00 -0.13642197979E+03  0.13642197979E+03  0.00000000000E+00 0. -1.
         25    1    1    2    0    0 -0.91890373264E+02 -0.94785541811E+01  0.58103472417E+03  0.60146490702E+03  0.12500000000E+03 0.  0.
         25    1    1    2    0    0  0.91890373264E+02  0.94785541811E+01 -0.78351569209E+02  0.17406220752E+03  0.12500000000E+03 0.  0.
</event>
<event>
 4    0  0.2225052E-002  0.1876946E+03  0.7546771E-02  0.1160557E+00
         21   -1    0    0  502  501  0.00000000000E+00  0.00000000000E+00  0.41915987153E+03  0.41915987153E+03  0.00000000000E+00 0.  1.
         21   -1    0    0  501  502 -0.00000000000E+00 -0.00000000000E+00 -0.84047294331E+02  0.84047294331E+02  0.00000000000E+00 0.  1.
         25    1    1    2    0    0 -0.82674662458E+02  0.81501310947E+02  0.27248106258E+03  0.32147860420E+03  0.12500000000E+03 0.  0.
         25    1    1    2    0    0  0.82674662458E+02 -0.81501310947E+02  0.62631514627E+02  0.18172856166E+03  0.12500000000E+03 0.  0.
</event>
<event>
 4    0  0.2225052E-002  0.5443876E+03  0.7546771E-02  0.1002801E+00
         21   -1    0    0  502  501  0.00000000000E+00  0.00000000000E+00  0.13922171525E+04  0.13922171525E+04  0.00000000000E+00 0. -1.
         21   -1    0    0  501  502 -0.00000000000E+00 -0.00000000000E+00 -0.21286757156E+03  0.21286757156E+03  0.00000000000E+00 0. -1.
         25    1    1    2    0    0 -0.43012677802E+01  0.33310282001E+03 -0.17723316590E+02  0.35625146393E+03  0.12500000000E+03 0.  0.
         25    1    1    2    0    0  0.43012677802E+01 -0.33310282001E+03  0.11970728975E+04  0.12488332601E+04  0.12500000000E+03 0.  0.
</event>
<event>
 4    0  0.2225052E-002  0.2682957E+03  0.7546771E-02  0.1102259E+00
         21   -1    0    0  502  501  0.00000000000E+00  0.00000000000E+00  0.34483342188E+04  0.34483342188E+04  0.00000000000E+00 0.  1.
         21   -1    0    0  501  502 -0.00000000000E+00 -0.00000000000E+00 -0.20874594287E+02  0.20874594287E+02  0.00000000000E+00 0.  1.
         25    1    1    2    0    0  0.11331064175E+03  0.36897100657E+02  0.38627123007E+03  0.42312074016E+03  0.12500000000E+03 0.  0.
         25    1    1    2    0    0 -0.11331064175E+03 -0.36897100657E+02  0.30411883944E+04  0.30460880729E+04  0.12500000000E+03 0.  0.
</event>
<event>
 4    0  0.2225052E-002  0.2309158E+03  0.7546771E-02  0.1125997E+00
         21   -1    0    0  502  501  0.00000000000E+00  0.00000000000E+00  0.76057476114E+02  0.76057476114E+02  0.00000000000E+00 0.  1.
         21   -1    0    0  501  502 -0.00000000000E+00 -0.00000000000E+00 -0.70107659992E+03  0.70107659992E+03  0.00000000000E+00 0.  1.
         25    1    1    2    0    0  0.49869981078E+02 -0.62676713410E+02 -0.14892615156E+02  0.14920514536E+03  0.12500000000E+03 0.  0.
         25    1    1    2    0    0 -0.49869981078E+02  0.62676713410E+02 -0.61012650865E+03  0.62792893067E+03  0.12500000000E+03 0.  0.
</event>
<event>
 4    0  0.2225052E-002  0.2626427E+03  0.7546771E-02  0.1105566E+00
         21   -1    0    0  502  501  0.00000000000E+00  0.00000000000E+00  0.20197555789E+03  0.20197555789E+03  0.00000000000E+00 0.  1.
         21   -1    0    0  501  502 -0.00000000000E+00 -0.00000000000E+00 -0.34153238877E+03  0.34153238877E+03  0.00000000000E+00 0.  1.
         25    1    1    2    0    0  0.21974096031E+03  0.71023557712E+02 -0.64526978287E+02  0.27040555896E+03  0.12500000000E+03 0.  0.
         25    1    1    2    0    0 -0.21974096031E+03 -0.71023557712E+02 -0.75029852585E+02  0.27310238770E+03  0.12500000000E+03 0.  0.
</event>
<event>
 4    0  0.2225052E-002  0.2700347E+03  0.7546771E-02  0.1101260E+00
         21   -1    0    0  502  501  0.00000000000E+00  0.00000000000E+00  0.44667270857E+03  0.44667270857E+03  0.00000000000E+00 0. -1.
         21   -1    0    0  501  502 -0.00000000000E+00 -0.00000000000E+00 -0.16324866006E+03  0.16324866006E+03  0.00000000000E+00 0. -1.
         25    1    1    2    0    0  0.20956295268E+03 -0.78616237231E+02  0.45907211124E+02  0.26044119475E+03  0.12500000000E+03 0.  0.
         25    1    1    2    0    0 -0.20956295268E+03  0.78616237231E+02  0.23751683738E+03  0.34948017387E+03  0.12500000000E+03 0.  0.
</event>
<event>
 4    0  0.2225052E-002  0.1940051E+03  0.7546771E-02  0.1154898E+00
         21   -1    0    0  502  501  0.00000000000E+00  0.00000000000E+00  0.63231592494E+03  0.63231592494E+03  0.00000000000E+00 0. -1.
         21   -1    0    0  501  502 -0.00000000000E+00 -0.00000000000E+00 -0.59524028285E+02  0.59524028285E+02  0.00000000000E+00 0. -1.
         25    1    1    2    0    0 -0.94034495763E+02 -0.69525096693E+02  0.44919850457E+03  0.48070835438E+03  0.12500000000E+03 0.  0.
         25    1    1    2    0    0  0.94034495763E+02  0.69525096693E+02  0.12359339209E+03  0.21113159885E+03  0.12500000000E+03 0.  0.
</event>
<event>
 4    0  0.2225052E-002  0.2036843E+03  0.7546771E-02  0.1146667E+00
         21   -1    0    0  502  501  0.00000000000E+00  0.00000000000E+00  0.15824057289E+03  0.15824057289E+03  0.00000000000E+00 0.  1.
         21   -1    0    0  501  502 -0.00000000000E+00 -0.00000000000E+00 -0.26217863103E+03  0.26217863103E+03  0.00000000000E+00 0.  1.
         25    1    1    2    0    0 -0.10130866191E+03 -0.10373292816E+02 -0.18042022866E+03  0.24196592548E+03  0.12500000000E+03 0.  0.
         25    1    1    2    0    0  0.10130866191E+03  0.10373292816E+02  0.76482170519E+02  0.17845327845E+03  0.12500000000E+03 0.  0.
</event>
<event>
 4    0  0.2225052E-002  0.1900782E+03  0.7546771E-02  0.1158391E+00
         21   -1    0    0  502  501  0.00000000000E+00  0.00000000000E+00  0.51244122775E+02  0.51244122775E+02  0.00000000000E+00 0. -1.
         21   -1    0    0  501  502 -0.00000000000E+00 -0.00000000000E+00 -0.70505096547E+03  0.70505096547E+03  0.00000000000E+00 0. -1.
         25    1    1    2    0    0  0.78148767971E+02  0.11998907798E+03 -0.32624520247E+03  0.37757852283E+03  0.12500000000E+03 0.  0.
         25    1    1    2    0    0 -0.78148767971E+02 -0.11998907798E+03 -0.32756164022E+03  0.37871656541E+03  0.12500000000E+03 0.  0.
</event>
<event>
 4    0  0.2225052E-002  0.2242771E+03  0.7546771E-02  0.1130734E+00
         21   -1    0    0  502  501  0.00000000000E+00  0.00000000000E+00  0.37645643024E+03  0.37645643024E+03  0.00000000000E+00 0. -1.
         21   -1    0    0  501  502 -0.00000000000E+00 -0.00000000000E+00 -0.13361498924E+03  0.13361498924E+03  0.00000000000E+00 0. -1.
         25    1    1    2    0    0 -0.10315055874E+03  0.74351390141E+02  0.27611872092E+03  0.32868634749E+03  0.12500000000E+03 0.  0.
         25    1    1    2    0    0  0.10315055874E+03 -0.74351390141E+02 -0.33277279926E+02  0.18138507199E+03  0.12500000000E+03 0.  0.
</event>
<event>
 4    0  0.2225052E-002  0.1910355E+03  0.7546771E-02  0.1157531E+00
         21   -1    0    0  502  501  0.00000000000E+00  0.00000000000E+00  0.25411784055E+03  0.25411784055E+03  0.00000000000E+00 0. -1.
         21   -1    0    0  501  502 -0.00000000000E+00 -0.00000000000E+00 -0.14361275500E+03  0.14361275500E+03  0.00000000000E+00 0. -1.
         25    1    1    2    0    0 -0.13231478256E+03  0.12680500847E+02 -0.36489329932E+01  0.18250016848E+03  0.12500000000E+03 0.  0.
         25    1    1    2    0    0  0.13231478256E+03 -0.12680500847E+02  0.11415401855E+03  0.21523042707E+03  0.12500000000E+03 0.  0.
</event>
<event>
 4    0  0.2225052E-002  0.1547541E+03  0.7546771E-02  0.1194750E+00
         21   -1    0    0  502  501  0.00000000000E+00  0.00000000000E+00  0.75362798678E+03  0.75362798678E+03  0.00000000000E+00 0.  1.
         21   -1    0    0  501  502 -0.00000000000E+00 -0.00000000000E+00 -0.31778053713E+02  0.31778053713E+02  0.00000000000E+00 0.  1.
         25    1    1    2    0    0 -0.57100685314E+02  0.47088400270E+02  0.22554904195E+03  0.26828189657E+03  0.12500000000E+03 0.  0.
         25    1    1    2    0    0  0.57100685314E+02 -0.47088400270E+02  0.49630089112E+03  0.51712414392E+03  0.12500000000E+03 0.  0.
</event>
<event>
 4    0  0.2225052E-002  0.1852058E+03  0.7546771E-02  0.1162858E+00
         21   -1    0    0  502  501  0.00000000000E+00  0.00000000000E+00  0.37507037917E+02  0.37507037917E+02  0.00000000000E+00 0. -1.
         21   -1    0    0  501  502 -0.00000000000E+00 -0.00000000000E+00 -0.91452623720E+03  0.91452623720E+03  0.00000000000E+00 0. -1.
         25    1    1    2    0    0 -0.51546439656E+02  0.85535818263E+02 -0.19873888790E+03  0.25513830996E+03  0.12500000000E+03 0.  0.
         25    1    1    2    0    0  0.51546439656E+02 -0.85535818263E+02 -0.67828031138E+03  0.69689496515E+03  0.12500000000E+03 0.  0.
</event>
<event>
 4    0  0.2225052E-002  0.2700436E+03  0.7546771E-02  0.1101255E+00
         21   -1    0    0  502  501  0.00000000000E+00  0.00000000000E+00  0.64663331831E+02  0.64663331831E+02  0.00000000000E+00 0. -1.
         21   -1    0    0  501  502 -0.00000000000E+00 -0.00000000000E+00 -0.11277418822E+04  0.11277418822E+04  0.00000000000E+00 0. -1.
         25    1    1    2    0    0  0.22843645753E+03  0.30848487669E+02 -0.67400154532E+03  0.72321361119E+03  0.12500000000E+03 0.  0.
         25    1    1    2    0    0 -0.22843645753E+03 -0.30848487669E+02 -0.38907700507E+03  0.46919160286E+03  0.12500000000E+03 0.  0.
</event>
<event>
 4    0  0.2225052E-002  0.2705799E+03  0.7546771E-02  0.1100948E+00
         21   -1    0    0  502  501  0.00000000000E+00  0.00000000000E+00  0.13150125954E+04  0.13150125954E+04  0.00000000000E+00 0. -1.
         21   -1    0    0  501  502 -0.00000000000E+00 -0.00000000000E+00 -0.55675106024E+02  0.55675106024E+02  0.00000000000E+00 0. -1.
         25    1    1    2    0    0 -0.12425881260E+03 -0.19982043499E+02  0.11213852043E+03  0.20985609911E+03  0.12500000000E+03 0.  0.
         25    1    1    2    0    0  0.12425881260E+03  0.19982043499E+02  0.11471989690E+04  0.11608316023E+04  0.12500000000E+03 0.  0.
</event>
<event>
 4    0  0.2225052E-002  0.2532234E+03  0.7546771E-02  0.1111284E+00
         21   -1    0    0  502  501  0.00000000000E+00  0.00000000000E+00  0.18023826265E+03  0.18023826265E+03  0.00000000000E+00 0.  1.
         21   -1    0    0  501  502 -0.00000000000E+00 -0.00000000000E+00 -0.35576305747E+03  0.35576305747E+03  0.00000000000E+00 0.  1.
         25    1    1    2    0    0 -0.15799620994E+03 -0.13481036147E+03 -0.16525027432E+03  0.29337567908E+03  0.12500000000E+03 0.  0.
         25    1    1    2    0    0  0.15799620994E+03  0.13481036147E+03 -0.10274520497E+02  0.24262564103E+03  0.12500000000E+03 0.  0.
</event>
<event>
 4    0  0.2225052E-002  0.2198018E+03  0.7546771E-02  0.1134031E+00
         21   -1    0    0  502  501  0.00000000000E+00  0.00000000000E+00  0.32479911585E+03  0.32479911585E+03  0.00000000000E+00 0. -1.
         21   -1    0    0  501  502 -0.00000000000E+00 -0.00000000000E+00 -0.14874682110E+03  0.14874682110E+03  0.00000000000E+00 0. -1.
         25    1    1    2    0    0 -0.11241598949E+03 -0.12439232288E+03  0.16090353461E+03  0.26386692126E+03  0.12500000000E+03 0.  0.
         25    1    1    2    0    0  0.11241598949E+03  0.12439232288E+03  0.15148760134E+02  0.20967901569E+03  0.12500000000E+03 0.  0.
</event>
<event>
 4    0  0.2225052E-002  0.2164330E+03  0.7546771E-02  0.1136571E+00
         21   -1    0    0  502  501  0.00000000000E+00  0.00000000000E+00  0.25164728444E+02  0.25164728444E+02  0.00000000000E+00 0. -1.
         21   -1    0    0  501  502 -0.00000000000E+00 -0.00000000000E+00 -0.18614635564E+04  0.18614635564E+04  0.00000000000E+00 0. -1.
         25    1    1    2    0    0 -0.10645829966E+03 -0.88780173574E+02 -0.44064575946E+03  0.47854882104E+03  0.12500000000E+03 0.  0.
         25    1    1    2    0    0  0.10645829966E+03  0.88780173574E+02 -0.13956530685E+04  0.14080794638E+04  0.12500000000E+03 0.  0.
</event>
<event>
 4    0  0.2225052E-002  0.2258801E+03  0.7546771E-02  0.1129574E+00
         21   -1    0    0  502  501  0.00000000000E+00  0.00000000000E+00  0.26566466068E+02  0.26566466068E+02  0.00000000000E+00 0.  1.
         21   -1    0    0  501  502 -0.00000000000E+00 -0.00000000000E+00 -0.19205353630E+04  0.19205353630E+04  0.00000000000E+00 0.  1.
         25    1    1    2    0    0 -0.16139467505E+03 -0.50928575660E+02 -0.13012177044E+04  0.13181177775E+04  0.12500000000E+03 0.  0.
         25    1    1    2    0    0  0.16139467505E+03  0.50928575660E+02 -0.59275119248E+03  0.62898405158E+03  0.12500000000E+03 0.  0.
</event>
<event>
 4    0  0.2225052E-002  0.2484445E+03  0.7546771E-02  0.1114292E+00
         21   -1    0    0  502  501  0.00000000000E+00  0.00000000000E+00  0.14063295236E+03  0.14063295236E+03  0.00000000000E+00 0.  1.
         21   -1    0    0  501  502 -0.00000000000E+00 -0.00000000000E+00 -0.43890630391E+03  0.43890630391E+03  0.00000000000E+00 0.  1.
         25    1    1    2    0    0 -0.20119487989E+03  0.36787600803E+02 -0.22532419202E+03  0.32898130460E+03  0.12500000000E+03 0.  0.
         25    1    1    2    0    0  0.20119487989E+03 -0.36787600803E+02 -0.72949159529E+02  0.25055795167E+03  0.12500000000E+03 0.  0.
</event>
<event>
 4    0  0.2225052E-002  0.2644147E+03  0.7546771E-02  0.1104519E+00
         21   -1    0    0  502  501  0.00000000000E+00  0.00000000000E+00  0.14632394401E+04  0.14632394401E+04  0.00000000000E+00 0. -1.
         21   -1    0    0  501  502 -0.00000000000E+00 -0.00000000000E+00 -0.47781058631E+02  0.47781058631E+02  0.00000000000E+00 0. -1.
         25    1    1    2    0    0  0.19317660723E+03 -0.75813314911E+02  0.40500079505E+03  0.47192743540E+03  0.12500000000E+03 0.  0.
         25    1    1    2    0    0 -0.19317660723E+03  0.75813314911E+02  0.10104575864E+04  0.10390930633E+04  0.12500000000E+03 0.  0.
</event>
<event>
 4    0  0.2225052E-002  0.2238827E+03  0.7546771E-02  0.1131021E+00
         21   -1    0    0  502  501  0.00000000000E+00  0.00000000000E+00  0.52748258355E+03  0.52748258355E+03  0.00000000000E+00 0.  1.
         21   -1    0    0  501  502 -0.00000000000E+00 -0.00000000000E+00 -0.95023880031E+02  0.95023880031E+02  0.00000000000E+00 0.  1.
         25    1    1    2    0    0  0.39038350233E+02 -0.48715891085E+02 -0.26970179399E+02  0.14230116447E+03  0.12500000000E+03 0.  0.
         25    1    1    2    0    0 -0.39038350233E+02  0.48715891085E+02  0.45942888292E+03  0.48020529911E+03  0.12500000000E+03 0.  0.
</event>
<event>
 4    0  0.2225052E-002  0.3072402E+03  0.7546771E-02  0.1081676E+00
         21   -1    0    0  502  501  0.00000000000E+00  0.00000000000E+00  0.29583080742E+03  0.29583080742E+03  0.00000000000E+00 0. -1.
         21   -1    0    0  501  502 -0.00000000000E+00 -0.00000000000E+00 -0.31908957260E+03  0.31908957260E+03  0.00000000000E+00 0. -1.
         25    1    1    2    0    0 -0.10481241044E+03 -0.18563257046E+03 -0.19431539822E+03  0.31437011083E+03  0.12500000000E+03 0.  0.
         25    1    1    2    0    0  0.10481241044E+03  0.18563257046E+03  0.17105663305E+03  0.30055026918E+03  0.12500000000E+03 0.  0.
</event>
<event>
 4    0  0.2225052E-002  0.1839263E+03  0.7546771E-02  0.1164056E+00
         21   -1    0    0  502  501  0.00000000000E+00  0.00000000000E+00  0.64604101401E+02  0.64604101401E+02  0.00000000000E+00 0.  1.
         21   -1    0    0  501  502 -0.00000000000E+00 -0.00000000000E+00 -0.52363378199E+03  0.52363378199E+03  0.00000000000E+00 0.  1.
         25    1    1    2    0    0 -0.12936633875E+03  0.28584430958E+02 -0.18870860487E+03  0.26227591740E+03  0.12500000000E+03 0.  0.
         25    1    1    2    0    0  0.12936633875E+03 -0.28584430958E+02 -0.27032107572E+03  0.32596196599E+03  0.12500000000E+03 0.  0.
</event>
<event>
 4    0  0.2225052E-002  0.2181613E+03  0.7546771E-02  0.1135261E+00
         21   -1    0    0  502  501  0.00000000000E+00  0.00000000000E+00  0.11585513496E+03  0.11585513496E+03  0.00000000000E+00 0.  1.
         21   -1    0    0  501  502 -0.00000000000E+00 -0.00000000000E+00 -0.41080929712E+03  0.41080929712E+03  0.00000000000E+00 0.  1.
         25    1    1    2    0    0 -0.73002901916E+02 -0.14540027931E+03 -0.23698393586E+03  0.31345980725E+03  0.12500000000E+03 0.  0.
         25    1    1    2    0    0  0.73002901916E+02  0.14540027931E+03 -0.57970226299E+02  0.21320462483E+03  0.12500000000E+03 0.  0.
</event>
<event>
 4    0  0.2225052E-002  0.2196810E+03  0.7546771E-02  0.1134121E+00
         21   -1    0    0  502  501  0.00000000000E+00  0.00000000000E+00  0.25915250285E+03  0.25915250285E+03  0.00000000000E+00 0.  1.
         21   -1    0    0  501  502 -0.00000000000E+00 -0.00000000000E+00 -0.18622135205E+03  0.18622135205E+03  0.00000000000E+00 0.  1.
         25    1    1    2    0    0 -0.17277795218E+03  0.86039358048E+01  0.89220763750E+02  0.23132572956E+03  0.12500000000E+03 0.  0.
         25    1    1    2    0    0  0.17277795218E+03 -0.86039358048E+01 -0.16289612946E+02  0.21404812534E+03  0.12500000000E+03 0.  0.
</event>
<event>
 4    0  0.2225052E-002  0.2475339E+03  0.7546771E-02  0.1114873E+00
         21   -1    0    0  502  501  0.00000000000E+00  0.00000000000E+00  0.38415976940E+02  0.38415976940E+02  0.00000000000E+00 0.  1.
         21   -1    0    0  501  502 -0.00000000000E+00 -0.00000000000E+00 -0.15949881882E+04  0.15949881882E+04  0.00000000000E+00 0.  1.
         25    1    1    2    0    0  0.19497213109E+03  0.44880074259E+02 -0.10256205742E+04  0.10524024493E+04  0.12500000000E+03 0.  0.
         25    1    1    2    0    0 -0.19497213109E+03 -0.44880074259E+02 -0.53095163706E+03  0.58100171589E+03  0.12500000000E+03 0.  0.
</event>
<event>
 4    0  0.2225052E-002  0.4188640E+03  0.7546771E-02  0.1037437E+00
         21   -1    0    0  502  501  0.00000000000E+00  0.00000000000E+00  0.61545626998E+03  0.61545626998E+03  0.00000000000E+00 0.  1.
         21   -1    0    0  501  502 -0.00000000000E+00 -0.00000000000E+00 -0.28506828804E+03  0.28506828804E+03  0.00000000000E+00 0.  1.
         25    1    1    2    0    0 -0.12170718594E+03 -0.21209467102E+03 -0.17478132950E+03  0.32553079996E+03  0.12500000000E+03 0.  0.
         25    1    1    2    0    0  0.12170718594E+03  0.21209467102E+03  0.50516931144E+03  0.57499375805E+03  0.12500000000E+03 0.  0.
</event>
<event>
 4    0  0.2225052E-002  0.2205226E+03  0.7546771E-02  0.1133494E+00
         21   -1    0    0  502  501  0.00000000000E+00  0.00000000000E+00  0.20909814570E+03  0.20909814570E+03  0.00000000000E+00 0.  1.
         21   -1    0    0  501  502 -0.00000000000E+00 -0.00000000000E+00 -0.23257115241E+03  0.23257115241E+03  0.00000000000E+00 0.  1.
         25    1    1    2    0    0  0.37617580529E+02 -0.13066088496E+03  0.10892405123E+03  0.21442200950E+03  0.12500000000E+03 0.  0.
         25    1    1    2    0    0 -0.37617580529E+02  0.13066088496E+03 -0.13239705794E+03  0.22724728860E+03  0.12500000000E+03 0.  0.
</event>
<event>
 4    0  0.2225052E-002  0.1936386E+03  0.7546771E-02  0.1155220E+00
         21   -1    0    0  502  501  0.00000000000E+00  0.00000000000E+00  0.38670001918E+02  0.38670001918E+02  0.00000000000E+00 0.  1.
         21   -1    0    0  501  502 -0.00000000000E+00 -0.00000000000E+00 -0.96963838763E+03  0.96963838763E+03  0.00000000000E+00 0.  1.
         25    1    1    2    0    0  0.48697653374E+02 -0.10718884571E+03 -0.23246705219E+03  0.28901010439E+03  0.12500000000E+03 0.  0.
         25    1    1    2    0    0 -0.48697653374E+02  0.10718884571E+03 -0.69850133353E+03  0.71929828516E+03  0.12500000000E+03 0.  0.
</event>
<event>
 4    0  0.2225052E-002  0.1822963E+03  0.7546771E-02  0.1165599E+00
         21   -1    0    0  502  501  0.00000000000E+00  0.00000000000E+00  0.12346086072E+02  0.12346086072E+02  0.00000000000E+00 0.  1.
         21   -1    0    0  501  502 -0.00000000000E+00 -0.00000000000E+00 -0.26916987943E+04  0.26916987943E+04  0.00000000000E+00 0.  1.
         25    1    1    2    0    0  0.96726306432E+02  0.56271319255E+02 -0.18685237504E+04  0.18760406300E+04  0.12500000000E+03 0.  0.
         25    1    1    2    0    0 -0.96726306432E+02 -0.56271319255E+02 -0.81082895780E+03  0.82800425032E+03  0.12500000000E+03 0.  0.
</event>
<event>
 4    0  0.2225052E-002  0.2334320E+03  0.7546771E-02  0.1124247E+00
         21   -1    0    0  502  501  0.00000000000E+00  0.00000000000E+00  0.35293946322E+03  0.35293946322E+03  0.00000000000E+00 0.  1.
         21   -1    0    0  501  502 -0.00000000000E+00 -0.00000000000E+00 -0.15439048249E+03  0.15439048249E+03  0.00000000000E+00 0.  1.
         25    1    1    2    0    0 -0.69514307495E+01  0.14431345109E+03 -0.46481146974E+02  0.19662195091E+03  0.12500000000E+03 0.  0.
         25    1    1    2    0    0  0.69514307495E+01 -0.14431345109E+03  0.24503012771E+03  0.31070799481E+03  0.12500000000E+03 0.  0.
</event>
<event>
 4    0  0.2225052E-002  0.2477297E+03  0.7546771E-02  0.1114748E+00
         21   -1    0    0  502  501  0.00000000000E+00  0.00000000000E+00  0.67502908153E+02  0.67502908153E+02  0.00000000000E+00 0.  1.
         21   -1    0    0  501  502 -0.00000000000E+00 -0.00000000000E+00 -0.90914576118E+03  0.90914576118E+03  0.00000000000E+00 0.  1.
         25    1    1    2    0    0  0.16678974106E+03 -0.10862340904E+03 -0.57511881044E+03  0.62129261129E+03  0.12500000000E+03 0.  0.
         25    1    1    2    0    0 -0.16678974106E+03  0.10862340904E+03 -0.26652404259E+03  0.35535605805E+03  0.12500000000E+03 0.  0.
</event>
<event>
 4    0  0.2225052E-002  0.1802206E+03  0.7546771E-02  0.1167590E+00
         21   -1    0    0  502  501  0.00000000000E+00  0.00000000000E+00  0.44942794908E+03  0.44942794908E+03  0.00000000000E+00 0.  1.
         21   -1    0    0  501  502 -0.00000000000E+00 -0.00000000000E+00 -0.72268474816E+02  0.72268474816E+02  0.00000000000E+00 0.  1.
         25    1    1    2    0    0  0.11784755802E+03 -0.52359889366E+02  0.21028408302E+03  0.27653932906E+03  0.12500000000E+03 0.  0.
         25    1    1    2    0    0 -0.11784755802E+03  0.52359889366E+02  0.16687539125E+03  0.24515709484E+03  0.12500000000E+03 0.  0.
</event>
<event>
 4    0  0.2225052E-002  0.3676541E+03  0.7546771E-02  0.1055594E+00
         21   -1    0    0  502  501  0.00000000000E+00  0.00000000000E+00  0.24129467334E+04  0.24129467334E+04  0.00000000000E+00 0. -1.
         21   -1    0    0  501  502 -0.00000000000E+00 -0.00000000000E+00 -0.56018464820E+02  0.56018464820E+02  0.00000000000E+00 0. -1.
         25    1    1    2    0    0  0.18750782986E+03  0.25860985727E+03  0.73419818919E+03  0.81037659489E+03  0.12500000000E+03 0.  0.
         25    1    1    2    0    0 -0.18750782986E+03 -0.25860985727E+03  0.16227300794E+04  0.16585886033E+04  0.12500000000E+03 0.  0.
</event>
<event>
 4    0  0.2225052E-002  0.1857384E+03  0.7546771E-02  0.1162362E+00
         21   -1    0    0  502  501  0.00000000000E+00  0.00000000000E+00  0.30906388491E+03  0.30906388491E+03  0.00000000000E+00 0. -1.
         21   -1    0    0  501  502 -0.00000000000E+00 -0.00000000000E+00 -0.11162337693E+03  0.11162337693E+03  0.00000000000E+00 0. -1.
         25    1    1    2    0    0 -0.25343615166E+02 -0.68396758478E+02  0.23056135182E+03  0.27222041134E+03  0.12500000000E+03 0.  0.
         25    1    1    2    0    0  0.25343615166E+02  0.68396758478E+02 -0.33120843835E+02  0.14846685050E+03  0.12500000000E+03 0.  0.
</event>
<event>
 4    0  0.2225052E-002  0.1683210E+03  0.7546771E-02  0.1179610E+00
         21   -1    0    0  502  501  0.00000000000E+00  0.00000000000E+00  0.16069481250E+03  0.16069481250E+03  0.00000000000E+00 0.  1.
         21   -1    0    0  501  502 -0.00000000000E+00 -0.00000000000E+00 -0.17630914538E+03  0.17630914538E+03  0.00000000000E+00 0.  1.
         25    1    1    2    0    0 -0.50720500180E+02  0.72668259615E+02  0.61936378016E+02  0.16527056609E+03  0.12500000000E+03 0.  0.
         25    1    1    2    0    0  0.50720500180E+02 -0.72668259615E+02 -0.77550710900E+02  0.17173339179E+03  0.12500000000E+03 0.  0.
</event>
<event>
 4    0  0.2225052E-002  0.1817486E+03  0.7546771E-02  0.1166121E+00
         21   -1    0    0  502  501  0.00000000000E+00  0.00000000000E+00  0.21304724238E+03  0.21304724238E+03  0.00000000000E+00 0. -1.
         21   -1    0    0  501  502 -0.00000000000E+00 -0.00000000000E+00 -0.15504804170E+03  0.15504804170E+03  0.00000000000E+00 0. -1.
         25    1    1    2    0    0  0.77162479358E+02 -0.36263566635E+02 -0.72964014030E+02  0.16798167111E+03  0.12500000000E+03 0.  0.
         25    1    1    2    0    0 -0.77162479358E+02  0.36263566635E+02  0.13096321471E+03  0.20011361296E+03  0.12500000000E+03 0.  0.
</event>
<event>
 4    0  0.2225052E-002  0.2021143E+03  0.7546771E-02  0.1147967E+00
         21   -1    0    0  502  501  0.00000000000E+00  0.00000000000E+00  0.32314346598E+03  0.32314346598E+03  0.00000000000E+00 0. -1.
         21   -1    0    0  501  502 -0.00000000000E+00 -0.00000000000E+00 -0.12641496552E+03  0.12641496552E+03  0.00000000000E+00 0. -1.
         25    1    1    2    0    0 -0.69680214382E+02 -0.94092937913E+01  0.25674673202E+03  0.29408799957E+03  0.12500000000E+03 0.  0.
         25    1    1    2    0    0  0.69680214382E+02  0.94092937913E+01 -0.60018231567E+02  0.15547043194E+03  0.12500000000E+03 0.  0.
</event>
<event>
 4    0  0.2225052E-002  0.1729913E+03  0.7546771E-02  0.1174764E+00
         21   -1    0    0  502  501  0.00000000000E+00  0.00000000000E+00  0.36603980474E+02  0.36603980474E+02  0.00000000000E+00 0. -1.
         21   -1    0    0  501  502 -0.00000000000E+00 -0.00000000000E+00 -0.81756075558E+03  0.81756075558E+03  0.00000000000E+00 0. -1.
         25    1    1    2    0    0  0.67144913398E+02  0.94690893680E+02 -0.31951685020E+03  0.36220273646E+03  0.12500000000E+03 0.  0.
         25    1    1    2    0    0 -0.67144913398E+02 -0.94690893680E+02 -0.46143992491E+03  0.49196199959E+03  0.12500000000E+03 0.  0.
</event>
<event>
 4    0  0.2225052E-002  0.2342384E+03  0.7546771E-02  0.1123692E+00
         21   -1    0    0  502  501  0.00000000000E+00  0.00000000000E+00  0.36470883437E+03  0.36470883437E+03  0.00000000000E+00 0.  1.
         21   -1    0    0  501  502 -0.00000000000E+00 -0.00000000000E+00 -0.15044229708E+03  0.15044229708E+03  0.00000000000E+00 0.  1.
         25    1    1    2    0    0  0.73863737473E+02  0.17475407755E+03  0.44465983750E+02  0.23151039511E+03  0.12500000000E+03 0.  0.
         25    1    1    2    0    0 -0.73863737473E+02 -0.17475407755E+03  0.16980055354E+03  0.28364073634E+03  0.12500000000E+03 0.  0.
</event>
<event>
 4    0  0.2225052E-002  0.1905558E+03  0.7546771E-02  0.1157961E+00
         21   -1    0    0  502  501  0.00000000000E+00  0.00000000000E+00  0.15201169491E+03  0.15201169491E+03  0.00000000000E+00 0.  1.
         21   -1    0    0  501  502 -0.00000000000E+00 -0.00000000000E+00 -0.23887310979E+03  0.23887310979E+03  0.00000000000E+00 0.  1.
         25    1    1    2    0    0 -0.59143610953E+02  0.11509913023E+03  0.20954335310E+02  0.18113492392E+03  0.12500000000E+03 0.  0.
         25    1    1    2    0    0  0.59143610953E+02 -0.11509913023E+03 -0.10781575019E+03  0.20974988078E+03  0.12500000000E+03 0.  0.
</event>
<event>
 4    0  0.2225052E-002  0.1439673E+03  0.7546771E-02  0.1208088E+00
         21   -1    0    0  502  501  0.00000000000E+00  0.00000000000E+00  0.19222506965E+03  0.19222506965E+03  0.00000000000E+00 0.  1.
         21   -1    0    0  501  502 -0.00000000000E+00 -0.00000000000E+00 -0.10782449698E+03  0.10782449698E+03  0.00000000000E+00 0.  1.
         25    1    1    2    0    0 -0.39487978880E+02 -0.49592651974E+02  0.76491383942E+02  0.15967048388E+03  0.12500000000E+03 0.  0.
         25    1    1    2    0    0  0.39487978880E+02  0.49592651974E+02  0.79091887228E+01  0.14037908274E+03  0.12500000000E+03 0.  0.
</event>
<event>
 4    0  0.2225052E-002  0.1551141E+03  0.7546771E-02  0.1194326E+00
         21   -1    0    0  502  501  0.00000000000E+00  0.00000000000E+00  0.10965547417E+03  0.10965547417E+03  0.00000000000E+00 0.  1.
         21   -1    0    0  501  502 -0.00000000000E+00 -0.00000000000E+00 -0.21941790540E+03  0.21941790540E+03  0.00000000000E+00 0.  1.
         25    1    1    2    0    0  0.81091358040E+02 -0.36818062708E+02 -0.78694827325E+02  0.17247972037E+03  0.12500000000E+03 0.  0.
         25    1    1    2    0    0 -0.81091358040E+02  0.36818062708E+02 -0.31067603897E+02  0.15659365920E+03  0.12500000000E+03 0.  0.
</event>
<event>
 4    0  0.2225052E-002  0.1910483E+03  0.7546771E-02  0.1157519E+00
         21   -1    0    0  502  501  0.00000000000E+00  0.00000000000E+00  0.72308466648E+03  0.72308466648E+03  0.00000000000E+00 0.  1.
         21   -1    0    0  501  502 -0.00000000000E+00 -0.00000000000E+00 -0.50477448405E+02  0.50477448405E+02  0.00000000000E+00 0.  1.
         25    1    1    2    0    0 -0.10591895414E+03  0.38941500846E+02  0.15365646739E+03  0.22797055798E+03  0.12500000000E+03 0.  0.
         25    1    1    2    0    0  0.10591895414E+03 -0.38941500846E+02  0.51895075068E+03  0.54559155691E+03  0.12500000000E+03 0.  0.
</event>
<event>
 4    0  0.2225052E-002  0.2448709E+03  0.7546771E-02  0.1116590E+00
         21   -1    0    0  502  501  0.00000000000E+00  0.00000000000E+00  0.14879175904E+03  0.14879175904E+03  0.00000000000E+00 0.  1.
         21   -1    0    0  501  502 -0.00000000000E+00 -0.00000000000E+00 -0.40299095857E+03  0.40299095857E+03  0.00000000000E+00 0.  1.
         25    1    1    2    0    0  0.66964657196E+02  0.19834680815E+03 -0.15256887296E+03  0.28762472531E+03  0.12500000000E+03 0.  0.
         25    1    1    2    0    0 -0.66964657196E+02 -0.19834680815E+03 -0.10163032658E+03  0.26415799230E+03  0.12500000000E+03 0.  0.
</event>
<event>
 4    0  0.2225052E-002  0.2169587E+03  0.7546771E-02  0.1136171E+00
         21   -1    0    0  502  501  0.00000000000E+00  0.00000000000E+00  0.11022484189E+03  0.11022484189E+03  0.00000000000E+00 0.  1.
         21   -1    0    0  501  502 -0.00000000000E+00 -0.00000000000E+00 -0.42704580629E+03  0.42704580629E+03  0.00000000000E+00 0.  1.
         25    1    1    2    0    0  0.52965605264E+01  0.71607722441E+02 -0.35917373482E+03  0.38702259785E+03  0.12500000000E+03 0.  0.
         25    1    1    2    0    0 -0.52965605264E+01 -0.71607722441E+02  0.42352770418E+02  0.15024805033E+03  0.12500000000E+03 0.  0.
</event>
<event>
 4    0  0.2225052E-002  0.1932249E+03  0.7546771E-02  0.1155584E+00
         21   -1    0    0  502  501  0.00000000000E+00  0.00000000000E+00  0.72684950814E+03  0.72684950814E+03  0.00000000000E+00 0. -1.
         21   -1    0    0  501  502 -0.00000000000E+00 -0.00000000000E+00 -0.51366691991E+02  0.51366691991E+02  0.00000000000E+00 0. -1.
         25    1    1    2    0    0 -0.61312756209E+02 -0.41256924064E+02  0.81040868482E+02  0.16629494948E+03  0.12500000000E+03 0.  0.
         25    1    1    2    0    0  0.61312756209E+02  0.41256924064E+02  0.59444194766E+03  0.61192125065E+03  0.12500000000E+03 0.  0.
</event>
<event>
 4    0  0.2225052E-002  0.1811701E+03  0.7546771E-02  0.1166675E+00
         21   -1    0    0  502  501  0.00000000000E+00  0.00000000000E+00  0.28514784674E+03  0.28514784674E+03  0.00000000000E+00 0. -1.
         21   -1    0    0  501  502 -0.00000000000E+00 -0.00000000000E+00 -0.11510726733E+03  0.11510726733E+03  0.00000000000E+00 0. -1.
         25    1    1    2    0    0 -0.10162027795E+03 -0.81826311983E+02  0.99648449821E+02  0.20634204558E+03  0.12500000000E+03 0.  0.
         25    1    1    2    0    0  0.10162027795E+03  0.81826311983E+02  0.70392129581E+02  0.19391306849E+03  0.12500000000E+03 0.  0.
</event>
<event>
 4    0  0.2225052E-002  0.3296872E+03  0.7546771E-02  0.1071275E+00
         21   -1    0    0  502  501  0.00000000000E+00  0.00000000000E+00  0.16354532801E+03  0.16354532801E+03  0.00000000000E+00 0.  1.
         21   -1    0    0  501  502 -0.00000000000E+00 -0.00000000000E+00 -0.66460888490E+03  0.66460888490E+03  0.00000000000E+00 0.  1.
         25    1    1    2    0    0 -0.14816298300E+03  0.13520521106E+02  0.83975129231E+02  0.21168820551E+03  0.12500000000E+03 0.  0.
         25    1    1    2    0    0  0.14816298300E+03 -0.13520521106E+02 -0.58503868612E+03  0.61646600740E+03  0.12500000000E+03 0.  0.
</event>
<event>
 4    0  0.2225052E-002  0.2164827E+03  0.7546771E-02  0.1136533E+00
         21   -1    0    0  502  501  0.00000000000E+00  0.00000000000E+00  0.11493142903E+03  0.11493142903E+03  0.00000000000E+00 0.  1.
         21   -1    0    0  501  502 -0.00000000000E+00 -0.00000000000E+00 -0.40776272442E+03  0.40776272442E+03  0.00000000000E+00 0.  1.
         25    1    1    2    0    0  0.15622037762E+03  0.81678634563E+02 -0.16185452204E+03  0.26999646670E+03  0.12500000000E+03 0.  0.
         25    1    1    2    0    0 -0.15622037762E+03 -0.81678634563E+02 -0.13097677336E+03  0.25269768675E+03  0.12500000000E+03 0.  0.
</event>
<event>
 4    0  0.2225052E-002  0.2638412E+03  0.7546771E-02  0.1104857E+00
         21   -1    0    0  502  501  0.00000000000E+00  0.00000000000E+00  0.17415885530E+04  0.17415885530E+04  0.00000000000E+00 0.  1.
         21   -1    0    0  501  502 -0.00000000000E+00 -0.00000000000E+00 -0.39970514869E+02  0.39970514869E+02  0.00000000000E+00 0.  1.
         25    1    1    2    0    0  0.79610580481E+02  0.17678765718E+03  0.12831132895E+04  0.13036857113E+04  0.12500000000E+03 0.  0.
         25    1    1    2    0    0 -0.79610580481E+02 -0.17678765718E+03  0.41850474861E+03  0.47787335651E+03  0.12500000000E+03 0.  0.
</event>
<event>
 4    0  0.2225052E-002  0.2021152E+03  0.7546771E-02  0.1147967E+00
         21   -1    0    0  502  501  0.00000000000E+00  0.00000000000E+00  0.22444970721E+03  0.22444970721E+03  0.00000000000E+00 0.  1.
         21   -1    0    0  501  502 -0.00000000000E+00 -0.00000000000E+00 -0.18200322863E+03  0.18200322863E+03  0.00000000000E+00 0.  1.
         25    1    1    2    0    0  0.36333728632E+02 -0.14422079433E+03  0.77259290886E+02  0.20907839530E+03  0.12500000000E+03 0.  0.
         25    1    1    2    0    0 -0.36333728632E+02  0.14422079433E+03 -0.34812812306E+02  0.19737454054E+03  0.12500000000E+03 0.  0.
</event>
<event>
 4    0  0.2225052E-002  0.1924554E+03  0.7546771E-02  0.1156265E+00
         21   -1    0    0  502  501  0.00000000000E+00  0.00000000000E+00  0.29388911951E+02  0.29388911951E+02  0.00000000000E+00 0. -1.
         21   -1    0    0  501  502 -0.00000000000E+00 -0.00000000000E+00 -0.12603086122E+04  0.12603086122E+04  0.00000000000E+00 0. -1.
         25    1    1    2    0    0 -0.80972730308E+02 -0.68251769113E+02 -0.27707495416E+03  0.32188572081E+03  0.12500000000E+03 0.  0.
         25    1    1    2    0    0  0.80972730308E+02  0.68251769113E+02 -0.95384474614E+03  0.96781180339E+03  0.12500000000E+03 0.  0.
</event>
<event>
 4    0  0.2225052E-002  0.1958863E+03  0.7546771E-02  0.1153257E+00
         21   -1    0    0  502  501  0.00000000000E+00  0.00000000000E+00  0.11152255481E+03  0.11152255481E+03  0.00000000000E+00 0. -1.
         21   -1    0    0  501  502 -0.00000000000E+00 -0.00000000000E+00 -0.34406883060E+03  0.34406883060E+03  0.00000000000E+00 0. -1.
         25    1    1    2    0    0 -0.12426308685E+03  0.79819877447E+02 -0.80735103556E+02  0.20965611018E+03  0.12500000000E+03 0.  0.
         25    1    1    2    0    0  0.12426308685E+03 -0.79819877447E+02 -0.15181117223E+03  0.24593527523E+03  0.12500000000E+03 0.  0.
</event>
<event>
 4    0  0.2225052E-002  0.1905419E+03  0.7546771E-02  0.1157973E+00
         21   -1    0    0  502  501  0.00000000000E+00  0.00000000000E+00  0.51212297476E+02  0.51212297476E+02  0.00000000000E+00 0. -1.
         21   -1    0    0  501  502 -0.00000000000E+00 -0.00000000000E+00 -0.70893572590E+03  0.70893572590E+03  0.00000000000E+00 0. -1.
         25    1    1    2    0    0 -0.50932861479E+02 -0.72961459726E+02 -0.55421601191E+03  0.57506340420E+03  0.12500000000E+03 0.  0.
         25    1    1    2    0    0  0.50932861479E+02  0.72961459726E+02 -0.10350741651E+03  0.18508461918E+03  0.12500000000E+03 0.  0.
</event>
<event>
 4    0  0.2225052E-002  0.2646401E+03  0.7546771E-02  0.1104387E+00
         21   -1    0    0  502  501  0.00000000000E+00  0.00000000000E+00  0.41731849767E+03  0.41731849767E+03  0.00000000000E+00 0.  1.
         21   -1    0    0  501  502 -0.00000000000E+00 -0.00000000000E+00 -0.16781997587E+03  0.16781997587E+03  0.00000000000E+00 0.  1.
         25    1    1    2    0    0 -0.19133747284E+03  0.16575013423E+02 -0.21602289140E+02  0.23016606718E+03  0.12500000000E+03 0.  0.
         25    1    1    2    0    0  0.19133747284E+03 -0.16575013423E+02  0.27110081094E+03  0.35497240636E+03  0.12500000000E+03 0.  0.
</event>
<event>
 4    0  0.2225052E-002  0.3793652E+03  0.7546771E-02  0.1051169E+00
         21   -1    0    0  502  501  0.00000000000E+00  0.00000000000E+00  0.81872721733E+03  0.81872721733E+03  0.00000000000E+00 0. -1.
         21   -1    0    0  501  502 -0.00000000000E+00 -0.00000000000E+00 -0.17578252999E+03  0.17578252999E+03  0.00000000000E+00 0. -1.
         25    1    1    2    0    0 -0.24669002634E+03 -0.39250393001E+01  0.66181861629E+03  0.71728673200E+03  0.12500000000E+03 0.  0.
         25    1    1    2    0    0  0.24669002634E+03  0.39250393001E+01 -0.18873928957E+02  0.27722301532E+03  0.12500000000E+03 0.  0.
</event>
<event>
 4    0  0.2225052E-002  0.1928842E+03  0.7546771E-02  0.1155885E+00
         21   -1    0    0  502  501  0.00000000000E+00  0.00000000000E+00  0.81820703497E+02  0.81820703497E+02  0.00000000000E+00 0. -1.
         21   -1    0    0  501  502 -0.00000000000E+00 -0.00000000000E+00 -0.45470528778E+03  0.45470528778E+03  0.00000000000E+00 0. -1.
         25    1    1    2    0    0 -0.39091854095E+02 -0.11959537582E+03 -0.80997399687E+02  0.19497898792E+03  0.12500000000E+03 0.  0.
         25    1    1    2    0    0  0.39091854095E+02  0.11959537582E+03 -0.29188718460E+03  0.34154700336E+03  0.12500000000E+03 0.  0.
</event>
<event>
 4    0  0.2225052E-002  0.2434880E+03  0.7546771E-02  0.1117491E+00
         21   -1    0    0  502  501  0.00000000000E+00  0.00000000000E+00  0.53399300814E+02  0.53399300814E+02  0.00000000000E+00 0. -1.
         21   -1    0    0  501  502 -0.00000000000E+00 -0.00000000000E+00 -0.11102466489E+04  0.11102466489E+04  0.00000000000E+00 0. -1.
         25    1    1    2    0    0 -0.54934999809E+02  0.18558093045E+03 -0.34022208026E+03  0.41089439014E+03  0.12500000000E+03 0.  0.
         25    1    1    2    0    0  0.54934999809E+02 -0.18558093045E+03 -0.71662526782E+03  0.75275155957E+03  0.12500000000E+03 0.  0.
</event>
<event>
 4    0  0.2225052E-002  0.2382721E+03  0.7546771E-02  0.1120949E+00
         21   -1    0    0  502  501  0.00000000000E+00  0.00000000000E+00  0.11014205221E+03  0.11014205221E+03  0.00000000000E+00 0.  1.
         21   -1    0    0  501  502 -0.00000000000E+00 -0.00000000000E+00 -0.51545777468E+03  0.51545777468E+03  0.00000000000E+00 0.  1.
         25    1    1    2    0    0 -0.96320753214E+02  0.12735805037E+03 -0.38424267339E+02  0.20639569960E+03  0.12500000000E+03 0.  0.
         25    1    1    2    0    0  0.96320753214E+02 -0.12735805037E+03 -0.36689145513E+03  0.41920412729E+03  0.12500000000E+03 0.  0.
</event>
<event>
 4    0  0.2225052E-002  0.2752434E+03  0.7546771E-02  0.1098316E+00
         21   -1    0    0  502  501  0.00000000000E+00  0.00000000000E+00  0.38806988678E+03  0.38806988678E+03  0.00000000000E+00 0. -1.
         21   -1    0    0  501  502 -0.00000000000E+00 -0.00000000000E+00 -0.19521980257E+03  0.19521980257E+03  0.00000000000E+00 0. -1.
         25    1    1    2    0    0 -0.22496511887E+02  0.67901472717E+02  0.34495957035E+03  0.37381654354E+03  0.12500000000E+03 0.  0.
         25    1    1    2    0    0  0.22496511887E+02 -0.67901472717E+02 -0.15210948614E+03  0.20947314581E+03  0.12500000000E+03 0.  0.
</event>
<event>
 4    0  0.2225052E-002  0.1897218E+03  0.7546771E-02  0.1158712E+00
         21   -1    0    0  502  501  0.00000000000E+00  0.00000000000E+00  0.26744674838E+02  0.26744674838E+02  0.00000000000E+00 0. -1.
         21   -1    0    0  501  502 -0.00000000000E+00 -0.00000000000E+00 -0.13458518750E+04  0.13458518750E+04  0.00000000000E+00 0. -1.
         25    1    1    2    0    0 -0.59833575574E+01 -0.14246704173E+03 -0.68147160414E+03  0.70736214615E+03  0.12500000000E+03 0.  0.
         25    1    1    2    0    0  0.59833575574E+01  0.14246704173E+03 -0.63763559605E+03  0.66523440372E+03  0.12500000000E+03 0.  0.
</event>
<event>
 4    0  0.2225052E-002  0.2014337E+03  0.7546771E-02  0.1148535E+00
         21   -1    0    0  502  501  0.00000000000E+00  0.00000000000E+00  0.97816576443E+03  0.97816576443E+03  0.00000000000E+00 0.  1.
         21   -1    0    0  501  502 -0.00000000000E+00 -0.00000000000E+00 -0.41481264236E+02  0.41481264236E+02  0.00000000000E+00 0.  1.
         25    1    1    2    0    0  0.12680504106E+03 -0.94183295103E+02  0.46648060680E+03  0.50811334172E+03  0.12500000000E+03 0.  0.
         25    1    1    2    0    0 -0.12680504106E+03  0.94183295103E+02  0.47020389340E+03  0.51153368695E+03  0.12500000000E+03 0.  0.
</event>
<event>
 4    0  0.2225052E-002  0.2918524E+03  0.7546771E-02  0.1089386E+00
         21   -1    0    0  502  501  0.00000000000E+00  0.00000000000E+00  0.10572525894E+03  0.10572525894E+03  0.00000000000E+00 0.  1.
         21   -1    0    0  501  502 -0.00000000000E+00 -0.00000000000E+00 -0.80565276338E+03  0.80565276338E+03  0.00000000000E+00 0.  1.
         25    1    1    2    0    0 -0.50707159411E+02 -0.25842609073E+03 -0.32801630482E+03  0.43883363204E+03  0.12500000000E+03 0.  0.
         25    1    1    2    0    0  0.50707159411E+02  0.25842609073E+03 -0.37191119962E+03  0.47254439028E+03  0.12500000000E+03 0.  0.
</event>
<event>
 4    0  0.2225052E-002  0.1916632E+03  0.7546771E-02  0.1156970E+00
         21   -1    0    0  502  501  0.00000000000E+00  0.00000000000E+00  0.83799395147E+02  0.83799395147E+02  0.00000000000E+00 0.  1.
         21   -1    0    0  501  502 -0.00000000000E+00 -0.00000000000E+00 -0.43836583414E+03  0.43836583414E+03  0.00000000000E+00 0.  1.
         25    1    1    2    0    0  0.81690287669E+02 -0.68461895500E+02 -0.31178541947E+03  0.35241379375E+03  0.12500000000E+03 0.  0.
         25    1    1    2    0    0 -0.81690287669E+02  0.68461895500E+02 -0.42781019529E+02  0.16975143554E+03  0.12500000000E+03 0.  0.
</event>
<event>
 4    0  0.2225052E-002  0.2218850E+03  0.7546771E-02  0.1132485E+00
         21   -1    0    0  502  501  0.00000000000E+00  0.00000000000E+00  0.40780174715E+02  0.40780174715E+02  0.00000000000E+00 0. -1.
         21   -1    0    0  501  502 -0.00000000000E+00 -0.00000000000E+00 -0.12072770369E+04  0.12072770369E+04  0.00000000000E+00 0. -1.
         25    1    1    2    0    0 -0.10976267012E+03  0.66595452367E+02 -0.95128751326E+03  0.96801638980E+03  0.12500000000E+03 0.  0.
         25    1    1    2    0    0  0.10976267012E+03 -0.66595452367E+02 -0.21520934897E+03  0.28004082186E+03  0.12500000000E+03 0.  0.
</event>
<event>
 4    0  0.2225052E-002  0.4889252E+03  0.7546771E-02  0.1016711E+00
         21   -1    0    0  502  501  0.00000000000E+00  0.00000000000E+00  0.17013642132E+03  0.17013642132E+03  0.00000000000E+00 0. -1.
         21   -1    0    0  501  502 -0.00000000000E+00 -0.00000000000E+00 -0.14050362752E+04  0.14050362752E+04  0.00000000000E+00 0. -1.
         25    1    1    2    0    0  0.23046913855E+03 -0.29973828727E+03 -0.16051329404E+03  0.42935833781E+03  0.12500000000E+03 0.  0.
         25    1    1    2    0    0 -0.23046913855E+03  0.29973828727E+03 -0.10743865598E+04  0.11458143587E+04  0.12500000000E+03 0.  0.
</event>
<event>
 4    0  0.2225052E-002  0.2808968E+03  0.7546771E-02  0.1095200E+00
         21   -1    0    0  502  501  0.00000000000E+00  0.00000000000E+00  0.31406560566E+03  0.31406560566E+03  0.00000000000E+00 0.  1.
         21   -1    0    0  501  502 -0.00000000000E+00 -0.00000000000E+00 -0.25123102527E+03  0.25123102527E+03  0.00000000000E+00 0.  1.
         25    1    1    2    0    0 -0.24433378186E+03  0.58975373667E+02  0.41526448377E+02  0.28377198166E+03  0.12500000000E+03 0.  0.
         25    1    1    2    0    0  0.24433378186E+03 -0.58975373667E+02  0.21308132021E+02  0.28152464927E+03  0.12500000000E+03 0.  0.
</event>
<event>
 4    0  0.2225052E-002  0.3734619E+03  0.7546771E-02  0.1053377E+00
         21   -1    0    0  502  501  0.00000000000E+00  0.00000000000E+00  0.13728786132E+03  0.13728786132E+03  0.00000000000E+00 0.  1.
         21   -1    0    0  501  502 -0.00000000000E+00 -0.00000000000E+00 -0.10159220348E+04  0.10159220348E+04  0.00000000000E+00 0.  1.
         25    1    1    2    0    0  0.27492189036E+03  0.97420589460E+02 -0.74334489462E+03  0.80824467174E+03  0.12500000000E+03 0.  0.
         25    1    1    2    0    0 -0.27492189036E+03 -0.97420589460E+02 -0.13528927885E+03  0.34496522437E+03  0.12500000000E+03 0.  0.
</event>
<event>
 4    0  0.2225052E-002  0.1619759E+03  0.7546771E-02  0.1186484E+00
         21   -1    0    0  502  501  0.00000000000E+00  0.00000000000E+00  0.88045179992E+02  0.88045179992E+02  0.00000000000E+00 0. -1.
         21   -1    0    0  501  502 -0.00000000000E+00 -0.00000000000E+00 -0.29798548597E+03  0.29798548597E+03  0.00000000000E+00 0. -1.
         25    1    1    2    0    0 -0.32429519390E+02  0.69320801055E+02 -0.22806946525E+02  0.14833139923E+03  0.12500000000E+03 0.  0.
         25    1    1    2    0    0  0.32429519390E+02 -0.69320801055E+02 -0.18713335946E+03  0.23769926674E+03  0.12500000000E+03 0.  0.
</event>
<event>
 4    0  0.2225052E-002  0.1725291E+03  0.7546771E-02  0.1175236E+00
         21   -1    0    0  502  501  0.00000000000E+00  0.00000000000E+00  0.29828210654E+02  0.29828210654E+02  0.00000000000E+00 0.  1.
         21   -1    0    0  501  502 -0.00000000000E+00 -0.00000000000E+00 -0.99792462121E+03  0.99792462121E+03  0.00000000000E+00 0.  1.
         25    1    1    2    0    0 -0.36455570070E+02  0.38643744135E+02 -0.16716483670E+03  0.21538669917E+03  0.12500000000E+03 0.  0.
         25    1    1    2    0    0  0.36455570070E+02 -0.38643744135E+02 -0.80093157386E+03  0.81236613270E+03  0.12500000000E+03 0.  0.
</event>
<event>
 4    0  0.2225052E-002  0.1495892E+03  0.7546771E-02  0.1200979E+00
         21   -1    0    0  502  501  0.00000000000E+00  0.00000000000E+00  0.15959581857E+03  0.15959581857E+03  0.00000000000E+00 0. -1.
         21   -1    0    0  501  502 -0.00000000000E+00 -0.00000000000E+00 -0.14021002621E+03  0.14021002621E+03  0.00000000000E+00 0. -1.
         25    1    1    2    0    0 -0.81052941060E+02 -0.13116553736E+02  0.12910652932E+02  0.15011098626E+03  0.12500000000E+03 0.  0.
         25    1    1    2    0    0  0.81052941060E+02  0.13116553736E+02  0.64751394330E+01  0.14969485852E+03  0.12500000000E+03 0.  0.
</event>
<event>
 4    0  0.2225052E-002  0.2140030E+03  0.7546771E-02  0.1138435E+00
         21   -1    0    0  502  501  0.00000000000E+00  0.00000000000E+00  0.19190238024E+03  0.19190238024E+03  0.00000000000E+00 0.  1.
         21   -1    0    0  501  502 -0.00000000000E+00 -0.00000000000E+00 -0.23864896201E+03  0.23864896201E+03  0.00000000000E+00 0.  1.
         25    1    1    2    0    0 -0.12512969917E+03  0.10956480204E+03 -0.73775303327E+02  0.22074800756E+03  0.12500000000E+03 0.  0.
         25    1    1    2    0    0  0.12512969917E+03 -0.10956480204E+03  0.27028721549E+02  0.20980333469E+03  0.12500000000E+03 0.  0.
</event>
<event>
 4    0  0.2225052E-002  0.2200680E+03  0.7546771E-02  0.1133832E+00
         21   -1    0    0  502  501  0.00000000000E+00  0.00000000000E+00  0.86308477668E+02  0.86308477668E+02  0.00000000000E+00 0.  1.
         21   -1    0    0  501  502 -0.00000000000E+00 -0.00000000000E+00 -0.56112609406E+03  0.56112609406E+03  0.00000000000E+00 0.  1.
         25    1    1    2    0    0  0.13887850978E+03  0.62523238060E+02 -0.38159965846E+03  0.42946442823E+03  0.12500000000E+03 0.  0.
         25    1    1    2    0    0 -0.13887850978E+03 -0.62523238060E+02 -0.93217957926E+02  0.21797014350E+03  0.12500000000E+03 0.  0.
</event>
<event>
 4    0  0.2225052E-002  0.1880934E+03  0.7546771E-02  0.1160192E+00
         21   -1    0    0  502  501  0.00000000000E+00  0.00000000000E+00  0.44171764706E+03  0.44171764706E+03  0.00000000000E+00 0. -1.
         21   -1    0    0  501  502 -0.00000000000E+00 -0.00000000000E+00 -0.80094398293E+02  0.80094398293E+02  0.00000000000E+00 0. -1.
         25    1    1    2    0    0 -0.33092944354E+02 -0.11402569420E+03  0.28514130167E+03  0.33320798883E+03  0.12500000000E+03 0.  0.
         25    1    1    2    0    0  0.33092944354E+02  0.11402569420E+03  0.76481947103E+02  0.18860405652E+03  0.12500000000E+03 0.  0.
</event>
<event>
 4    0  0.2225052E-002  0.2348136E+03  0.7546771E-02  0.1123297E+00
         21   -1    0    0  502  501  0.00000000000E+00  0.00000000000E+00  0.30468309895E+02  0.30468309895E+02  0.00000000000E+00 0.  1.
         21   -1    0    0  501  502 -0.00000000000E+00 -0.00000000000E+00 -0.18096651136E+04  0.18096651136E+04  0.00000000000E+00 0.  1.
         25    1    1    2    0    0  0.12152602833E+03  0.12651446875E+03 -0.52332883532E+03  0.56592628163E+03  0.12500000000E+03 0.  0.
         25    1    1    2    0    0 -0.12152602833E+03 -0.12651446875E+03 -0.12558679684E+04  0.12742071419E+04  0.12500000000E+03 0.  0.
</event>
<event>
 4    0  0.2225052E-002  0.1814460E+03  0.7546771E-02  0.1166411E+00
         21   -1    0    0  502  501  0.00000000000E+00  0.00000000000E+00  0.59766611918E+02  0.59766611918E+02  0.00000000000E+00 0. -1.
         21   -1    0    0  501  502 -0.00000000000E+00 -0.00000000000E+00 -0.55085373125E+03  0.55085373125E+03  0.00000000000E+00 0. -1.
         25    1    1    2    0    0  0.14088040282E+01  0.55208377525E+02 -0.44696090637E+02  0.14378000625E+03  0.12500000000E+03 0.  0.
         25    1    1    2    0    0 -0.14088040282E+01 -0.55208377525E+02 -0.44639102870E+03  0.46684033693E+03  0.12500000000E+03 0.  0.
</event>
<event>
 4    0  0.2225052E-002  0.3160214E+03  0.7546771E-02  0.1077495E+00
         21   -1    0    0  502  501  0.00000000000E+00  0.00000000000E+00  0.31551033996E+03  0.31551033996E+03  0.00000000000E+00 0.  1.
         21   -1    0    0  501  502 -0.00000000000E+00 -0.00000000000E+00 -0.31653334554E+03  0.31653334554E+03  0.00000000000E+00 0.  1.
         25    1    1    2    0    0 -0.40395548162E+02 -0.21024894568E+03  0.19546866103E+03  0.31570463556E+03  0.12500000000E+03 0.  0.
         25    1    1    2    0    0  0.40395548162E+02  0.21024894568E+03 -0.19649166661E+03  0.31633904994E+03  0.12500000000E+03 0.  0.
</event>
<event>
 4    0  0.2225052E-002  0.1866354E+03  0.7546771E-02  0.1161531E+00
         21   -1    0    0  502  501  0.00000000000E+00  0.00000000000E+00  0.17817305269E+03  0.17817305269E+03  0.00000000000E+00 0.  1.
         21   -1    0    0  501  502 -0.00000000000E+00 -0.00000000000E+00 -0.19549962866E+03  0.19549962866E+03  0.00000000000E+00 0.  1.
         25    1    1    2    0    0 -0.67034023964E+02 -0.59468573787E+02 -0.11450174066E+03  0.19174389234E+03  0.12500000000E+03 0.  0.
         25    1    1    2    0    0  0.67034023964E+02  0.59468573787E+02  0.97175164684E+02  0.18192878900E+03  0.12500000000E+03 0.  0.
</event>
<event>
 4    0  0.2225052E-002  0.4365501E+03  0.7546771E-02  0.1031811E+00
         21   -1    0    0  502  501  0.00000000000E+00  0.00000000000E+00  0.55027696441E+03  0.55027696441E+03  0.00000000000E+00 0. -1.
         21   -1    0    0  501  502 -0.00000000000E+00 -0.00000000000E+00 -0.34632735580E+03  0.34632735580E+03  0.00000000000E+00 0. -1.
         25    1    1    2    0    0  0.29874239752E+03 -0.14139935740E+03 -0.16126590618E+03  0.38842308228E+03  0.12500000000E+03 0.  0.
         25    1    1    2    0    0 -0.29874239752E+03  0.14139935740E+03  0.36521551478E+03  0.50818123793E+03  0.12500000000E+03 0.  0.
</event>
<event>
 4    0  0.2225052E-002  0.4671600E+03  0.7546771E-02  0.1022725E+00
         21   -1    0    0  502  501  0.00000000000E+00  0.00000000000E+00  0.13393240312E+04  0.13393240312E+04  0.00000000000E+00 0.  1.
         21   -1    0    0  501  502 -0.00000000000E+00 -0.00000000000E+00 -0.16294672734E+03  0.16294672734E+03  0.00000000000E+00 0.  1.
         25    1    1    2    0    0 -0.32220452619E+03 -0.13759342696E+03  0.10425829577E+04  0.11069561561E+04  0.12500000000E+03 0.  0.
         25    1    1    2    0    0  0.32220452619E+03  0.13759342696E+03  0.13379434616E+03  0.39531460244E+03  0.12500000000E+03 0.  0.
</event>
<event>
 4    0  0.2225052E-002  0.3301784E+03  0.7546771E-02  0.1071058E+00
         21   -1    0    0  502  501  0.00000000000E+00  0.00000000000E+00  0.10414148380E+03  0.10414148380E+03  0.00000000000E+00 0.  1.
         21   -1    0    0  501  502 -0.00000000000E+00 -0.00000000000E+00 -0.10468238396E+04  0.10468238396E+04  0.00000000000E+00 0.  1.
         25    1    1    2    0    0 -0.24524841345E+03  0.70106069904E+01 -0.15377661625E+03  0.31538576476E+03  0.12500000000E+03 0.  0.
         25    1    1    2    0    0  0.24524841345E+03 -0.70106069904E+01 -0.78890573957E+03  0.83557955866E+03  0.12500000000E+03 0.  0.
</event>
<event>
 4    0  0.2225052E-002  0.1994747E+03  0.7546771E-02  0.1150183E+00
         21   -1    0    0  502  501  0.00000000000E+00  0.00000000000E+00  0.88633936155E+03  0.88633936155E+03  0.00000000000E+00 0.  1.
         21   -1    0    0  501  502 -0.00000000000E+00 -0.00000000000E+00 -0.44892666346E+02  0.44892666346E+02  0.00000000000E+00 0.  1.
         25    1    1    2    0    0 -0.71798250626E+02 -0.88311464899E+02  0.17356977587E+03  0.24229191221E+03  0.12500000000E+03 0.  0.
         25    1    1    2    0    0  0.71798250626E+02  0.88311464899E+02  0.66787691933E+03  0.68894011569E+03  0.12500000000E+03 0.  0.
</event>
<event>
 4    0  0.2225052E-002  0.2318623E+03  0.7546771E-02  0.1125336E+00
         21   -1    0    0  502  501  0.00000000000E+00  0.00000000000E+00  0.14551101672E+04  0.14551101672E+04  0.00000000000E+00 0. -1.
         21   -1    0    0  501  502 -0.00000000000E+00 -0.00000000000E+00 -0.36945730530E+02  0.36945730530E+02  0.00000000000E+00 0. -1.
         25    1    1    2    0    0 -0.16927575361E+03 -0.63744466498E+02  0.47225953196E+03  0.52093349220E+03  0.12500000000E+03 0.  0.
         25    1    1    2    0    0  0.16927575361E+03  0.63744466498E+02  0.94590490473E+03  0.97112240555E+03  0.12500000000E+03 0.  0.
</event>
<event>
 4    0  0.2225052E-002  0.1584804E+03  0.7546771E-02  0.1190423E+00
         21   -1    0    0  502  501  0.00000000000E+00  0.00000000000E+00  0.63712893865E+02  0.63712893865E+02  0.00000000000E+00 0.  1.
         21   -1    0    0  501  502 -0.00000000000E+00 -0.00000000000E+00 -0.39420651813E+03  0.39420651813E+03  0.00000000000E+00 0.  1.
         25    1    1    2    0    0 -0.53130431506E+02  0.63814633234E+02 -0.91638567967E+02  0.17583451682E+03  0.12500000000E+03 0.  0.
         25    1    1    2    0    0  0.53130431506E+02 -0.63814633234E+02 -0.23885505630E+03  0.28208489518E+03  0.12500000000E+03 0.  0.
</event>
<event>
 4    0  0.2225052E-002  0.2259896E+03  0.7546771E-02  0.1129495E+00
         21   -1    0    0  502  501  0.00000000000E+00  0.00000000000E+00  0.17975984022E+04  0.17975984022E+04  0.00000000000E+00 0. -1.
         21   -1    0    0  501  502 -0.00000000000E+00 -0.00000000000E+00 -0.28410851519E+02  0.28410851519E+02  0.00000000000E+00 0. -1.
         25    1    1    2    0    0 -0.14872423454E+03 -0.18603613110E+02  0.13448967265E+04  0.13589838841E+04  0.12500000000E+03 0.  0.
         25    1    1    2    0    0  0.14872423454E+03  0.18603613110E+02  0.42429082420E+03  0.46702536961E+03  0.12500000000E+03 0.  0.
</event>
<event>
 4    0  0.2225052E-002  0.1614644E+03  0.7546771E-02  0.1187053E+00
         21   -1    0    0  502  501  0.00000000000E+00  0.00000000000E+00  0.58050358423E+02  0.58050358423E+02  0.00000000000E+00 0.  1.
         21   -1    0    0  501  502 -0.00000000000E+00 -0.00000000000E+00 -0.44910555642E+03  0.44910555642E+03  0.00000000000E+00 0.  1.
         25    1    1    2    0    0  0.80826437081E+02 -0.52462704242E+02 -0.24902782059E+03  0.29483063562E+03  0.12500000000E+03 0.  0.
         25    1    1    2    0    0 -0.80826437081E+02  0.52462704242E+02 -0.14202737741E+03  0.21232527923E+03  0.12500000000E+03 0.  0.
</event>
<event>
 4    0  0.2225052E-002  0.1710143E+03  0.7546771E-02  0.1176794E+00
         21   -1    0    0  502  501  0.00000000000E+00  0.00000000000E+00  0.56760697248E+03  0.56760697248E+03  0.00000000000E+00 0.  1.
         21   -1    0    0  501  502 -0.00000000000E+00 -0.00000000000E+00 -0.51524894645E+02  0.51524894645E+02  0.00000000000E+00 0.  1.
         25    1    1    2    0    0  0.11217359480E+03 -0.22464477937E+02  0.29984478653E+03  0.34441176540E+03  0.12500000000E+03 0.  0.
         25    1    1    2    0    0 -0.11217359480E+03  0.22464477937E+02  0.21623729131E+03  0.27472010172E+03  0.12500000000E+03 0.  0.
</event>
<event>
 4    0  0.2225052E-002  0.1491835E+03  0.7546771E-02  0.1201480E+00
         21   -1    0    0  502  501  0.00000000000E+00  0.00000000000E+00  0.73384560838E+02  0.73384560838E+02  0.00000000000E+00 0.  1.
         21   -1    0    0  501  502 -0.00000000000E+00 -0.00000000000E+00 -0.30327535235E+03  0.30327535235E+03  0.00000000000E+00 0.  1.
         25    1    1    2    0    0 -0.63039586970E+02 -0.39422657376E+02 -0.15686393448E+03  0.21391453756E+03  0.12500000000E+03 0.  0.
         25    1    1    2    0    0  0.63039586970E+02  0.39422657376E+02 -0.73026857036E+02  0.16274537563E+03  0.12500000000E+03 0.  0.
</event>
<event>
 4    0  0.2225052E-002  0.1953371E+03  0.7546771E-02  0.1153734E+00
         21   -1    0    0  502  501  0.00000000000E+00  0.00000000000E+00  0.61612075113E+03  0.61612075113E+03  0.00000000000E+00 0.  1.
         21   -1    0    0  501  502 -0.00000000000E+00 -0.00000000000E+00 -0.61930338540E+02  0.61930338540E+02  0.00000000000E+00 0.  1.
         25    1    1    2    0    0 -0.81597659640E+02  0.11300921757E+03  0.37376483506E+03  0.41803637789E+03  0.12500000000E+03 0.  0.
         25    1    1    2    0    0  0.81597659640E+02 -0.11300921757E+03  0.18042557752E+03  0.26001471177E+03  0.12500000000E+03 0.  0.
</event>
<event>
 4    0  0.2225052E-002  0.1777356E+03  0.7546771E-02  0.1170013E+00
         21   -1    0    0  502  501  0.00000000000E+00  0.00000000000E+00  0.23648944471E+03  0.23648944471E+03  0.00000000000E+00 0. -1.
         21   -1    0    0  501  502 -0.00000000000E+00 -0.00000000000E+00 -0.13357863807E+03  0.13357863807E+03  0.00000000000E+00 0.  1.
         25    1    1    2    0    0 -0.42013325700E+02  0.10293501164E+03 -0.11044852770E+02  0.16765358609E+03  0.12500000000E+03 0.  0.
         25    1    1    2    0    0  0.42013325700E+02 -0.10293501164E+03  0.11395565940E+03  0.20241449668E+03  0.12500000000E+03 0.  0.
</event>
<event>
 4    0  0.2225052E-002  0.2074881E+03  0.7546771E-02  0.1143571E+00
         21   -1    0    0  502  501  0.00000000000E+00  0.00000000000E+00  0.18286342012E+03  0.18286342012E+03  0.00000000000E+00 0.  1.
         21   -1    0    0  501  502 -0.00000000000E+00 -0.00000000000E+00 -0.23542878951E+03  0.23542878951E+03  0.00000000000E+00 0.  1.
         25    1    1    2    0    0 -0.38460174567E+02  0.27522311350E+02  0.13369803709E+03  0.18904186777E+03  0.12500000000E+03 0.  0.
         25    1    1    2    0    0  0.38460174567E+02 -0.27522311350E+02 -0.18626340648E+03  0.22925034186E+03  0.12500000000E+03 0.  0.
</event>
<event>
 4    0  0.2225052E-002  0.2650097E+03  0.7546771E-02  0.1104170E+00
         21   -1    0    0  502  501  0.00000000000E+00  0.00000000000E+00  0.80364363662E+03  0.80364363662E+03  0.00000000000E+00 0.  1.
         21   -1    0    0  501  502 -0.00000000000E+00 -0.00000000000E+00 -0.87389687180E+02  0.87389687180E+02  0.00000000000E+00 0.  1.
         25    1    1    2    0    0  0.16976692514E+03 -0.47902738072E+02  0.10047071493E+03  0.23840059930E+03  0.12500000000E+03 0.  0.
         25    1    1    2    0    0 -0.16976692514E+03  0.47902738072E+02  0.61578323451E+03  0.65263272450E+03  0.12500000000E+03 0.  0.
</event>
<event>
 4    0  0.2225052E-002  0.3616971E+03  0.7546771E-02  0.1057914E+00
         21   -1    0    0  502  501  0.00000000000E+00  0.00000000000E+00  0.23505747011E+03  0.23505747011E+03  0.00000000000E+00 0.  1.
         21   -1    0    0  501  502 -0.00000000000E+00 -0.00000000000E+00 -0.55656507465E+03  0.55656507465E+03  0.00000000000E+00 0.  1.
         25    1    1    2    0    0  0.28883229470E+03 -0.20461467827E+02  0.33026885282E+02  0.31710966759E+03  0.12500000000E+03 0.  0.
         25    1    1    2    0    0 -0.28883229470E+03  0.20461467827E+02 -0.35453448982E+03  0.47451287717E+03  0.12500000000E+03 0.  0.
</event>
<event>
 4    0  0.2225052E-002  0.2095685E+03  0.7546771E-02  0.1141908E+00
         21   -1    0    0  502  501  0.00000000000E+00  0.00000000000E+00  0.45315613399E+03  0.45315613399E+03  0.00000000000E+00 0.  1.
         21   -1    0    0  501  502 -0.00000000000E+00 -0.00000000000E+00 -0.96917948482E+02  0.96917948482E+02  0.00000000000E+00 0.  1.
         25    1    1    2    0    0 -0.13107946806E+03  0.96347487139E+02  0.12198750402E+03  0.23868518253E+03  0.12500000000E+03 0.  0.
         25    1    1    2    0    0  0.13107946806E+03 -0.96347487139E+02  0.23425068149E+03  0.31138889994E+03  0.12500000000E+03 0.  0.
</event>
<event>
 4    0  0.2225052E-002  0.2512440E+03  0.7546771E-02  0.1112521E+00
         21   -1    0    0  502  501  0.00000000000E+00  0.00000000000E+00  0.11346956094E+03  0.11346956094E+03  0.00000000000E+00 0. -1.
         21   -1    0    0  501  502 -0.00000000000E+00 -0.00000000000E+00 -0.55630370134E+03  0.55630370134E+03  0.00000000000E+00 0. -1.
         25    1    1    2    0    0 -0.11285972351E+03  0.18643468109E+03 -0.22384913186E+03  0.33649463790E+03  0.12500000000E+03 0.  0.
         25    1    1    2    0    0  0.11285972351E+03 -0.18643468109E+03 -0.21898500854E+03  0.33327862438E+03  0.12500000000E+03 0.  0.
</event>
<event>
 4    0  0.2225052E-002  0.1686850E+03  0.7546771E-02  0.1179226E+00
         21   -1    0    0  502  501  0.00000000000E+00  0.00000000000E+00  0.28930585627E+03  0.28930585627E+03  0.00000000000E+00 0. -1.
         21   -1    0    0  501  502 -0.00000000000E+00 -0.00000000000E+00 -0.98354800317E+02  0.98354800317E+02  0.00000000000E+00 0. -1.
         25    1    1    2    0    0 -0.25938837762E+02  0.78359790384E+02  0.63465902084E+01  0.14992784685E+03  0.12500000000E+03 0.  0.
         25    1    1    2    0    0  0.25938837762E+02 -0.78359790384E+02  0.18460446575E+03  0.23773280974E+03  0.12500000000E+03 0.  0.
</event>
<event>
 4    0  0.2225052E-002  0.2271588E+03  0.7546771E-02  0.1128656E+00
         21   -1    0    0  502  501  0.00000000000E+00  0.00000000000E+00  0.29521925702E+03  0.29521925702E+03  0.00000000000E+00 0.  1.
         21   -1    0    0  501  502 -0.00000000000E+00 -0.00000000000E+00 -0.17478909396E+03  0.17478909396E+03  0.00000000000E+00 0.  1.
         25    1    1    2    0    0  0.27936464438E+01 -0.98036359767E+02 -0.10774090757E+03  0.19196883982E+03  0.12500000000E+03 0.  0.
         25    1    1    2    0    0 -0.27936464438E+01  0.98036359767E+02  0.22817107063E+03  0.27803951116E+03  0.12500000000E+03 0.  0.
</event>
<event>
 4    0  0.2225052E-002  0.2316695E+03  0.7546771E-02  0.1125470E+00
         21   -1    0    0  502  501  0.00000000000E+00  0.00000000000E+00  0.18928896600E+04  0.18928896600E+04  0.00000000000E+00 0. -1.
         21   -1    0    0  501  502 -0.00000000000E+00 -0.00000000000E+00 -0.28353882434E+02  0.28353882434E+02  0.00000000000E+00 0. -1.
         25    1    1    2    0    0  0.66147711232E+02 -0.16708088087E+03  0.61772698298E+03  0.65536491053E+03  0.12500000000E+03 0.  0.
         25    1    1    2    0    0 -0.66147711232E+02  0.16708088087E+03  0.12468087946E+04  0.12658786319E+04  0.12500000000E+03 0.  0.
</event>
<event>
 4    0  0.2225052E-002  0.4186164E+03  0.7546771E-02  0.1037518E+00
         21   -1    0    0  502  501  0.00000000000E+00  0.00000000000E+00  0.19220872073E+03  0.19220872073E+03  0.00000000000E+00 0. -1.
         21   -1    0    0  501  502 -0.00000000000E+00 -0.00000000000E+00 -0.91171550854E+03  0.91171550854E+03  0.00000000000E+00 0. -1.
         25    1    1    2    0    0  0.30160416604E+03  0.50497745919E+02 -0.20759096764E+02  0.33101515889E+03  0.12500000000E+03 0.  0.
         25    1    1    2    0    0 -0.30160416604E+03 -0.50497745919E+02 -0.69874769105E+03  0.77290907038E+03  0.12500000000E+03 0.  0.
</event>
<event>
 4    0  0.2225052E-002  0.2560519E+03  0.7546771E-02  0.1109539E+00
         21   -1    0    0  502  501  0.00000000000E+00  0.00000000000E+00  0.10573222280E+03  0.10573222280E+03  0.00000000000E+00 0.  1.
         21   -1    0    0  501  502 -0.00000000000E+00 -0.00000000000E+00 -0.62008116508E+03  0.62008116508E+03  0.00000000000E+00 0.  1.
         25    1    1    2    0    0  0.12870848250E+03  0.15491554448E+03 -0.39438994975E+03  0.46014468578E+03  0.12500000000E+03 0.  0.
         25    1    1    2    0    0 -0.12870848250E+03 -0.15491554448E+03 -0.11995899253E+03  0.26566870211E+03  0.12500000000E+03 0.  0.
</event>
<event>
 4    0  0.2225052E-002  0.1956482E+03  0.7546771E-02  0.1153463E+00
         21   -1    0    0  502  501  0.00000000000E+00  0.00000000000E+00  0.16832020728E+03  0.16832020728E+03  0.00000000000E+00 0. -1.
         21   -1    0    0  501  502 -0.00000000000E+00 -0.00000000000E+00 -0.22741309543E+03  0.22741309543E+03  0.00000000000E+00 0. -1.
         25    1    1    2    0    0 -0.72959395306E+01 -0.81821457193E+01 -0.18135863399E+03  0.22053601149E+03  0.12500000000E+03 0.  0.
         25    1    1    2    0    0  0.72959395306E+01  0.81821457193E+01  0.12226574584E+03  0.17519729121E+03  0.12500000000E+03 0.  0.
</event>
<event>
 4    0  0.2225052E-002  0.2207286E+03  0.7546771E-02  0.1133341E+00
         21   -1    0    0  502  501  0.00000000000E+00  0.00000000000E+00  0.24152780274E+03  0.24152780274E+03  0.00000000000E+00 0. -1.
         21   -1    0    0  501  502 -0.00000000000E+00 -0.00000000000E+00 -0.20172057789E+03  0.20172057789E+03  0.00000000000E+00 0. -1.
         25    1    1    2    0    0  0.47968306980E+02  0.13512691486E+03 -0.92514429863E+02  0.21152815729E+03  0.12500000000E+03 0.  0.
         25    1    1    2    0    0 -0.47968306980E+02 -0.13512691486E+03  0.13232165471E+03  0.23172022333E+03  0.12500000000E+03 0.  0.
</event>
<event>
 4    0  0.2225052E-002  0.2010252E+03  0.7546771E-02  0.1148877E+00
         21   -1    0    0  502  501  0.00000000000E+00  0.00000000000E+00  0.32000020040E+03  0.32000020040E+03  0.00000000000E+00 0.  1.
         21   -1    0    0  501  502 -0.00000000000E+00 -0.00000000000E+00 -0.12628471034E+03  0.12628471034E+03  0.00000000000E+00 0.  1.
         25    1    1    2    0    0 -0.69367565920E+02 -0.77915799815E+02 -0.34027963785E+02  0.16632989323E+03  0.12500000000E+03 0.  0.
         25    1    1    2    0    0  0.69367565920E+02  0.77915799815E+02  0.22774345384E+03  0.27995501751E+03  0.12500000000E+03 0.  0.
</event>
<event>
 4    0  0.2225052E-002  0.2554117E+03  0.7546771E-02  0.1109932E+00
         21   -1    0    0  502  501  0.00000000000E+00  0.00000000000E+00  0.79187929174E+02  0.79187929174E+02  0.00000000000E+00 0.  1.
         21   -1    0    0  501  502 -0.00000000000E+00 -0.00000000000E+00 -0.82380178554E+03  0.82380178554E+03  0.00000000000E+00 0.  1.
         25    1    1    2    0    0 -0.12873376326E+03  0.65832933093E+02 -0.67179646381E+03  0.69845676006E+03  0.12500000000E+03 0.  0.
         25    1    1    2    0    0  0.12873376326E+03 -0.65832933093E+02 -0.72817392554E+02  0.20453295466E+03  0.12500000000E+03 0.  0.
</event>
<event>
 4    0  0.2225052E-002  0.1863318E+03  0.7546771E-02  0.1161812E+00
         21   -1    0    0  502  501  0.00000000000E+00  0.00000000000E+00  0.36724804751E+03  0.36724804751E+03  0.00000000000E+00 0.  1.
         21   -1    0    0  501  502 -0.00000000000E+00 -0.00000000000E+00 -0.94539774566E+02  0.94539774566E+02  0.00000000000E+00 0.  1.
         25    1    1    2    0    0  0.42627543553E+02 -0.11236846448E+03  0.22086018699E+03  0.28079886303E+03  0.12500000000E+03 0.  0.
         25    1    1    2    0    0 -0.42627543553E+02  0.11236846448E+03  0.51848085951E+02  0.18098895905E+03  0.12500000000E+03 0.  0.
</event>
<event>
 4    0  0.2225052E-002  0.2016634E+03  0.7546771E-02  0.1148343E+00
         21   -1    0    0  502  501  0.00000000000E+00  0.00000000000E+00  0.49966288204E+02  0.49966288204E+02  0.00000000000E+00 0.  1.
         21   -1    0    0  501  502 -0.00000000000E+00 -0.00000000000E+00 -0.81391135910E+03  0.81391135910E+03  0.00000000000E+00 0.  1.
         25    1    1    2    0    0 -0.46085438062E+02 -0.11110845161E+03 -0.60222377777E+03  0.62671160364E+03  0.12500000000E+03 0.  0.
         25    1    1    2    0    0  0.46085438062E+02  0.11110845161E+03 -0.16172129313E+03  0.23716604367E+03  0.12500000000E+03 0.  0.
</event>
<event>
 4    0  0.2225052E-002  0.2501414E+03  0.7546771E-02  0.1113216E+00
         21   -1    0    0  502  501  0.00000000000E+00  0.00000000000E+00  0.55934133991E+03  0.55934133991E+03  0.00000000000E+00 0. -1.
         21   -1    0    0  501  502 -0.00000000000E+00 -0.00000000000E+00 -0.11186497755E+03  0.11186497755E+03  0.00000000000E+00 0. -1.
         25    1    1    2    0    0 -0.19253663637E+03 -0.67526966089E+01  0.35675659750E+03  0.42428318976E+03  0.12500000000E+03 0.  0.
         25    1    1    2    0    0  0.19253663637E+03  0.67526966089E+01  0.90719764863E+02  0.24692312770E+03  0.12500000000E+03 0.  0.
</event>
<event>
 4    0  0.2225052E-002  0.2404013E+03  0.7546771E-02  0.1119526E+00
         21   -1    0    0  502  501  0.00000000000E+00  0.00000000000E+00  0.70614536431E+02  0.70614536431E+02  0.00000000000E+00 0.  1.
         21   -1    0    0  501  502 -0.00000000000E+00 -0.00000000000E+00 -0.81842612137E+03  0.81842612137E+03  0.00000000000E+00 0.  1.
         25    1    1    2    0    0  0.12181212633E+03  0.99231606287E+02 -0.12941710094E+03  0.23887003124E+03  0.12500000000E+03 0.  0.
         25    1    1    2    0    0 -0.12181212633E+03 -0.99231606287E+02 -0.61839448399E+03  0.65017062656E+03  0.12500000000E+03 0.  0.
</event>
<event>
 4    0  0.2225052E-002  0.2869240E+03  0.7546771E-02  0.1091966E+00
         21   -1    0    0  502  501  0.00000000000E+00  0.00000000000E+00  0.23628500206E+03  0.23628500206E+03  0.00000000000E+00 0.  1.
         21   -1    0    0  501  502 -0.00000000000E+00 -0.00000000000E+00 -0.34841567414E+03  0.34841567414E+03  0.00000000000E+00 0. -1.
         25    1    1    2    0    0 -0.15318025137E+03  0.17466323905E+03  0.58891068427E+02  0.27030463263E+03  0.12500000000E+03 0.  0.
         25    1    1    2    0    0  0.15318025137E+03 -0.17466323905E+03 -0.17102174050E+03  0.31439604356E+03  0.12500000000E+03 0.  0.
</event>
<event>
 4    0  0.2225052E-002  0.2508988E+03  0.7546771E-02  0.1112738E+00
         21   -1    0    0  502  501  0.00000000000E+00  0.00000000000E+00  0.15720452950E+04  0.15720452950E+04  0.00000000000E+00 0.  1.
         21   -1    0    0  501  502 -0.00000000000E+00 -0.00000000000E+00 -0.40043511969E+02  0.40043511969E+02  0.00000000000E+00 0.  1.
         25    1    1    2    0    0  0.41131456259E+02 -0.39613049124E+02  0.91622845264E+02  0.16516881101E+03  0.12500000000E+03 0.  0.
         25    1    1    2    0    0 -0.41131456259E+02  0.39613049124E+02  0.14403789378E+04  0.14469199960E+04  0.12500000000E+03 0.  0.
</event>
<event>
 4    0  0.2225052E-002  0.3246353E+03  0.7546771E-02  0.1073536E+00
         21   -1    0    0  502  501  0.00000000000E+00  0.00000000000E+00  0.76036388749E+03  0.76036388749E+03  0.00000000000E+00 0.  1.
         21   -1    0    0  501  502 -0.00000000000E+00 -0.00000000000E+00 -0.13860218792E+03  0.13860218792E+03  0.00000000000E+00 0.  1.
         25    1    1    2    0    0 -0.27165073111E+03 -0.11232234515E+03  0.23071066326E+03  0.39403405827E+03  0.12500000000E+03 0.  0.
         25    1    1    2    0    0  0.27165073111E+03  0.11232234515E+03  0.39105103631E+03  0.50493201714E+03  0.12500000000E+03 0.  0.
</event>
<event>
 4    0  0.2225052E-002  0.2140448E+03  0.7546771E-02  0.1138402E+00
         21   -1    0    0  502  501  0.00000000000E+00  0.00000000000E+00  0.78824687283E+02  0.78824687283E+02  0.00000000000E+00 0. -1.
         21   -1    0    0  501  502 -0.00000000000E+00 -0.00000000000E+00 -0.58122867202E+03  0.58122867202E+03  0.00000000000E+00 0. -1.
         25    1    1    2    0    0 -0.17322026332E+03 -0.11787069372E+02 -0.24074759397E+03  0.32206924509E+03  0.12500000000E+03 0.  0.
         25    1    1    2    0    0  0.17322026332E+03  0.11787069372E+02 -0.26165639076E+03  0.33798411421E+03  0.12500000000E+03 0.  0.
</event>
<event>
 4    0  0.2225052E-002  0.2790253E+03  0.7546771E-02  0.1096222E+00
         21   -1    0    0  502  501  0.00000000000E+00  0.00000000000E+00  0.51703598597E+03  0.51703598597E+03  0.00000000000E+00 0. -1.
         21   -1    0    0  501  502 -0.00000000000E+00 -0.00000000000E+00 -0.15057971227E+03  0.15057971227E+03  0.00000000000E+00 0. -1.
         25    1    1    2    0    0 -0.24313291852E+03  0.19100457398E+02  0.24598372449E+03  0.36825458077E+03  0.12500000000E+03 0.  0.
         25    1    1    2    0    0  0.24313291852E+03 -0.19100457398E+02  0.12047254921E+03  0.29936111747E+03  0.12500000000E+03 0.  0.
</event>
<event>
 4    0  0.2225052E-002  0.1854893E+03  0.7546771E-02  0.1162594E+00
         21   -1    0    0  502  501  0.00000000000E+00  0.00000000000E+00  0.17513811723E+02  0.17513811723E+02  0.00000000000E+00 0.  1.
         21   -1    0    0  501  502 -0.00000000000E+00 -0.00000000000E+00 -0.19645230187E+04  0.19645230187E+04  0.00000000000E+00 0.  1.
         25    1    1    2    0    0 -0.56225978881E+02  0.97725226254E+02 -0.55726189061E+03  0.58213176796E+03  0.12500000000E+03 0.  0.
         25    1    1    2    0    0  0.56225978881E+02 -0.97725226254E+02 -0.13897473164E+04  0.13999050625E+04  0.12500000000E+03 0.  0.
</event>
<event>
 4    0  0.2225052E-002  0.1466217E+03  0.7546771E-02  0.1204687E+00
         21   -1    0    0  502  501  0.00000000000E+00  0.00000000000E+00  0.42414387957E+04  0.42414387957E+04  0.00000000000E+00 0.  1.
         21   -1    0    0  501  502 -0.00000000000E+00 -0.00000000000E+00 -0.50685433971E+01  0.50685433971E+01  0.00000000000E+00 0.  1.
         25    1    1    2    0    0  0.32835033687E+02 -0.68556563566E+02  0.19772075509E+04  0.19826126302E+04  0.12500000000E+03 0.  0.
         25    1    1    2    0    0 -0.32835033687E+02  0.68556563566E+02  0.22591627014E+04  0.22638947090E+04  0.12500000000E+03 0.  0.
</event>
<event>
 4    0  0.2225052E-002  0.2953349E+03  0.7546771E-02  0.1087596E+00
         21   -1    0    0  502  501  0.00000000000E+00  0.00000000000E+00  0.19663821093E+03  0.19663821093E+03  0.00000000000E+00 0.  1.
         21   -1    0    0  501  502 -0.00000000000E+00 -0.00000000000E+00 -0.44356951389E+03  0.44356951389E+03  0.00000000000E+00 0. -1.
         25    1    1    2    0    0  0.17868339710E+03  0.13448110214E+03 -0.28270487471E+03  0.38152322265E+03  0.12500000000E+03 0.  0.
         25    1    1    2    0    0 -0.17868339710E+03 -0.13448110214E+03  0.35773571755E+02  0.25868450218E+03  0.12500000000E+03 0.  0.
</event>
<event>
 4    0  0.2225052E-002  0.2103625E+03  0.7546771E-02  0.1141279E+00
         21   -1    0    0  502  501  0.00000000000E+00  0.00000000000E+00  0.55587260602E+02  0.55587260602E+02  0.00000000000E+00 0.  1.
         21   -1    0    0  501  502 -0.00000000000E+00 -0.00000000000E+00 -0.79608836228E+03  0.79608836228E+03  0.00000000000E+00 0.  1.
         25    1    1    2    0    0 -0.95248733956E+02  0.13273113930E+03 -0.28114675663E+03  0.34836529021E+03  0.12500000000E+03 0.  0.
         25    1    1    2    0    0  0.95248733956E+02 -0.13273113930E+03 -0.45935434505E+03  0.50331033267E+03  0.12500000000E+03 0.  0.
</event>
<event>
 4    0  0.2225052E-002  0.2000535E+03  0.7546771E-02  0.1149694E+00
         21   -1    0    0  502  501  0.00000000000E+00  0.00000000000E+00  0.38718182429E+03  0.38718182429E+03  0.00000000000E+00 0. -1.
         21   -1    0    0  501  502 -0.00000000000E+00 -0.00000000000E+00 -0.10336589474E+03  0.10336589474E+03  0.00000000000E+00 0. -1.
         25    1    1    2    0    0  0.20850293930E+02 -0.46939698736E+02  0.32275770359E+03  0.34990799548E+03  0.12500000000E+03 0.  0.
         25    1    1    2    0    0 -0.20850293930E+02  0.46939698736E+02 -0.38941774045E+02  0.14063972355E+03  0.12500000000E+03 0.  0.
</event>
<event>
 4    0  0.2225052E-002  0.1799661E+03  0.7546771E-02  0.1167836E+00
         21   -1    0    0  502  501  0.00000000000E+00  0.00000000000E+00  0.15527319389E+03  0.15527319389E+03  0.00000000000E+00 0.  1.
         21   -1    0    0  501  502 -0.00000000000E+00 -0.00000000000E+00 -0.20858592642E+03  0.20858592642E+03  0.00000000000E+00 0.  1.
         25    1    1    2    0    0 -0.54831298326E+02 -0.10085770419E+03 -0.87176498956E+02  0.19079698567E+03  0.12500000000E+03 0.  0.
         25    1    1    2    0    0  0.54831298326E+02  0.10085770419E+03  0.33863766428E+02  0.17306213464E+03  0.12500000000E+03 0.  0.
</event>
<event>
 4    0  0.2225052E-002  0.1543796E+03  0.7546771E-02  0.1195192E+00
         21   -1    0    0  502  501  0.00000000000E+00  0.00000000000E+00  0.17688622071E+03  0.17688622071E+03  0.00000000000E+00 0.  1.
         21   -1    0    0  501  502 -0.00000000000E+00 -0.00000000000E+00 -0.13473666958E+03  0.13473666958E+03  0.00000000000E+00 0.  1.
         25    1    1    2    0    0 -0.79014825557E+02  0.44243756422E+02  0.18365171913E+02  0.15544494903E+03  0.12500000000E+03 0.  0.
         25    1    1    2    0    0  0.79014825557E+02 -0.44243756422E+02  0.23784379219E+02  0.15617794126E+03  0.12500000000E+03 0.  0.
</event>
<event>
 4    0  0.2225052E-002  0.2191583E+03  0.7546771E-02  0.1134512E+00
         21   -1    0    0  502  501  0.00000000000E+00  0.00000000000E+00  0.10666337829E+04  0.10666337829E+04  0.00000000000E+00 0.  1.
         21   -1    0    0  501  502 -0.00000000000E+00 -0.00000000000E+00 -0.45029852353E+02  0.45029852353E+02  0.00000000000E+00 0.  1.
         25    1    1    2    0    0  0.24228016430E+02 -0.17591216728E+03  0.43585382957E+03  0.48695548885E+03  0.12500000000E+03 0.  0.
         25    1    1    2    0    0 -0.24228016430E+02  0.17591216728E+03  0.58575010093E+03  0.62470814635E+03  0.12500000000E+03 0.  0.
</event>
<event>
 4    0  0.2225052E-002  0.4337803E+03  0.7546771E-02  0.1032672E+00
         21   -1    0    0  502  501  0.00000000000E+00  0.00000000000E+00  0.51926566713E+03  0.51926566713E+03  0.00000000000E+00 0.  1.
         21   -1    0    0  501  502 -0.00000000000E+00 -0.00000000000E+00 -0.36236813042E+03  0.36236813042E+03  0.00000000000E+00 0.  1.
         25    1    1    2    0    0  0.43452134413E+01 -0.40064751708E+03 -0.32886717926E+02  0.42100338483E+03  0.12500000000E+03 0.  0.
         25    1    1    2    0    0 -0.43452134413E+01  0.40064751708E+03  0.18978425463E+03  0.46063041273E+03  0.12500000000E+03 0.  0.
</event>
<event>
 4    0  0.2225052E-002  0.2177293E+03  0.7546771E-02  0.1135587E+00
         21   -1    0    0  502  501  0.00000000000E+00  0.00000000000E+00  0.92761053377E+03  0.92761053377E+03  0.00000000000E+00 0. -1.
         21   -1    0    0  501  502 -0.00000000000E+00 -0.00000000000E+00 -0.51105565694E+02  0.51105565694E+02  0.00000000000E+00 0. -1.
         25    1    1    2    0    0 -0.89387928375E+01 -0.13281028106E+02  0.39194699399E+02  0.13197542266E+03  0.12500000000E+03 0.  0.
         25    1    1    2    0    0  0.89387928375E+01  0.13281028106E+02  0.83731026867E+03  0.84674067680E+03  0.12500000000E+03 0.  0.
</event>
<event>
 4    0  0.2225052E-002  0.2214000E+03  0.7546771E-02  0.1132844E+00
         21   -1    0    0  502  501  0.00000000000E+00  0.00000000000E+00  0.50964743362E+03  0.50964743362E+03  0.00000000000E+00 0.  1.
         21   -1    0    0  501  502 -0.00000000000E+00 -0.00000000000E+00 -0.96180133241E+02  0.96180133241E+02  0.00000000000E+00 0.  1.
         25    1    1    2    0    0  0.13423362477E+03 -0.20173630440E+02  0.37411744178E+03  0.41715045443E+03  0.12500000000E+03 0.  0.
         25    1    1    2    0    0 -0.13423362477E+03  0.20173630440E+02  0.39349858592E+02  0.18867711243E+03  0.12500000000E+03 0.  0.
</event>
<event>
 4    0  0.2225052E-002  0.1610453E+03  0.7546771E-02  0.1187522E+00
         21   -1    0    0  502  501  0.00000000000E+00  0.00000000000E+00  0.27723689984E+02  0.27723689984E+02  0.00000000000E+00 0. -1.
         21   -1    0    0  501  502 -0.00000000000E+00 -0.00000000000E+00 -0.93550262901E+03  0.93550262901E+03  0.00000000000E+00 0. -1.
         25    1    1    2    0    0 -0.47294763266E+02  0.23924015895E+01 -0.18527150088E+03  0.22845797700E+03  0.12500000000E+03 0.  0.
         25    1    1    2    0    0  0.47294763266E+02 -0.23924015895E+01 -0.72250743814E+03  0.73476834199E+03  0.12500000000E+03 0.  0.
</event>
<event>
 4    0  0.2225052E-002  0.2458448E+03  0.7546771E-02  0.1115959E+00
         21   -1    0    0  502  501  0.00000000000E+00  0.00000000000E+00  0.15784893460E+03  0.15784893460E+03  0.00000000000E+00 0.  1.
         21   -1    0    0  501  502 -0.00000000000E+00 -0.00000000000E+00 -0.38289562196E+03  0.38289562196E+03  0.00000000000E+00 0.  1.
         25    1    1    2    0    0  0.16664192322E+03 -0.70840194605E+02  0.80846846501E+01  0.22017771429E+03  0.12500000000E+03 0.  0.
         25    1    1    2    0    0 -0.16664192322E+03  0.70840194605E+02 -0.23313137202E+03  0.32056684227E+03  0.12500000000E+03 0.  0.
</event>
<event>
 4    0  0.2225052E-002  0.1842257E+03  0.7546771E-02  0.1163775E+00
         21   -1    0    0  502  501  0.00000000000E+00  0.00000000000E+00  0.29557261387E+03  0.29557261387E+03  0.00000000000E+00 0.  1.
         21   -1    0    0  501  502 -0.00000000000E+00 -0.00000000000E+00 -0.11482499341E+03  0.11482499341E+03  0.00000000000E+00 0.  1.
         25    1    1    2    0    0 -0.24893892826E+02  0.32303991404E+02 -0.53354716712E+02  0.14189777855E+03  0.12500000000E+03 0.  0.
         25    1    1    2    0    0  0.24893892826E+02 -0.32303991404E+02  0.23410233718E+03  0.26849982874E+03  0.12500000000E+03 0.  0.
</event>
<event>
 4    0  0.2225052E-002  0.2876899E+03  0.7546771E-02  0.1091561E+00
         21   -1    0    0  502  501  0.00000000000E+00  0.00000000000E+00  0.25301632721E+03  0.25301632721E+03  0.00000000000E+00 0. -1.
         21   -1    0    0  501  502 -0.00000000000E+00 -0.00000000000E+00 -0.32711513988E+03  0.32711513988E+03  0.00000000000E+00 0. -1.
         25    1    1    2    0    0 -0.25082997634E+02  0.13790115034E+03 -0.25678170037E+03  0.31813161691E+03  0.12500000000E+03 0.  0.
         25    1    1    2    0    0  0.25082997634E+02 -0.13790115034E+03  0.18268288769E+03  0.26199985017E+03  0.12500000000E+03 0.  0.
</event>
<event>
 4    0  0.2225052E-002  0.3066240E+03  0.7546771E-02  0.1081975E+00
         21   -1    0    0  502  501  0.00000000000E+00  0.00000000000E+00  0.64395170988E+02  0.64395170988E+02  0.00000000000E+00 0. -1.
         21   -1    0    0  501  502 -0.00000000000E+00 -0.00000000000E+00 -0.14600202837E+04  0.14600202837E+04  0.00000000000E+00 0. -1.
         25    1    1    2    0    0 -0.62069395872E+02  0.25118285731E+03 -0.43184503103E+03  0.51871048624E+03  0.12500000000E+03 0.  0.
         25    1    1    2    0    0  0.62069395872E+02 -0.25118285731E+03 -0.96378008167E+03  0.10057049684E+04  0.12500000000E+03 0.  0.
</event>
<event>
 4    0  0.2225052E-002  0.1930455E+03  0.7546771E-02  0.1155743E+00
         21   -1    0    0  502  501  0.00000000000E+00  0.00000000000E+00  0.21126721329E+03  0.21126721329E+03  0.00000000000E+00 0.  1.
         21   -1    0    0  501  502 -0.00000000000E+00 -0.00000000000E+00 -0.17639548477E+03  0.17639548477E+03  0.00000000000E+00 0.  1.
         25    1    1    2    0    0  0.22595099916E+02 -0.43860544861E+02  0.15659039638E+03  0.20634882644E+03  0.12500000000E+03 0.  0.
         25    1    1    2    0    0 -0.22595099916E+02  0.43860544861E+02 -0.12171866786E+03  0.18131387162E+03  0.12500000000E+03 0.  0.
</event>
<event>
 4    0  0.2225052E-002  0.2134938E+03  0.7546771E-02  0.1138829E+00
         21   -1    0    0  502  501  0.00000000000E+00  0.00000000000E+00  0.69520176878E+02  0.69520176878E+02  0.00000000000E+00 0.  1.
         21   -1    0    0  501  502 -0.00000000000E+00 -0.00000000000E+00 -0.65563118215E+03  0.65563118215E+03  0.00000000000E+00 0.  1.
         25    1    1    2    0    0 -0.75280147706E+02 -0.23038939800E+02 -0.31293554997E+02  0.15100390714E+03  0.12500000000E+03 0.  0.
         25    1    1    2    0    0  0.75280147706E+02  0.23038939800E+02 -0.55481745028E+03  0.57414745190E+03  0.12500000000E+03 0.  0.
</event>
<event>
 4    0  0.2225052E-002  0.3791207E+03  0.7546771E-02  0.1051259E+00
         21   -1    0    0  502  501  0.00000000000E+00  0.00000000000E+00  0.13066620548E+03  0.13066620548E+03  0.00000000000E+00 0. -1.
         21   -1    0    0  501  502 -0.00000000000E+00 -0.00000000000E+00 -0.10999974848E+04  0.10999974848E+04  0.00000000000E+00 0.  1.
         25    1    1    2    0    0  0.33418394555E+02  0.35355728552E+03 -0.41229955334E+03  0.55833275466E+03  0.12500000000E+03 0.  0.
         25    1    1    2    0    0 -0.33418394555E+02 -0.35355728552E+03 -0.55703172598E+03  0.67233093562E+03  0.12500000000E+03 0.  0.
</event>
<event>
 4    0  0.2225052E-002  0.1774665E+03  0.7546771E-02  0.1170278E+00
         21   -1    0    0  502  501  0.00000000000E+00  0.00000000000E+00  0.48370684912E+03  0.48370684912E+03  0.00000000000E+00 0.  1.
         21   -1    0    0  501  502 -0.00000000000E+00 -0.00000000000E+00 -0.65110389560E+02  0.65110389560E+02  0.00000000000E+00 0.  1.
         25    1    1    2    0    0  0.15108793873E+02  0.25355478540E+01  0.40263986203E+03  0.42187505633E+03  0.12500000000E+03 0.  0.
         25    1    1    2    0    0 -0.15108793873E+02 -0.25355478540E+01  0.15956597528E+02  0.12694218235E+03  0.12500000000E+03 0.  0.
</event>
<event>
 4    0  0.2225052E-002  0.2543576E+03  0.7546771E-02  0.1110581E+00
         21   -1    0    0  502  501  0.00000000000E+00  0.00000000000E+00  0.59669332344E+03  0.59669332344E+03  0.00000000000E+00 0.  1.
         21   -1    0    0  501  502 -0.00000000000E+00 -0.00000000000E+00 -0.10842717448E+03  0.10842717448E+03  0.00000000000E+00 0.  1.
         25    1    1    2    0    0 -0.12518349279E+03 -0.18128063274E+03  0.21194743193E+03  0.33027305155E+03  0.12500000000E+03 0.  0.
         25    1    1    2    0    0  0.12518349279E+03  0.18128063274E+03  0.27631871703E+03  0.37484744638E+03  0.12500000000E+03 0.  0.
</event>
<event>
 4    0  0.2225052E-002  0.2534046E+03  0.7546771E-02  0.1111172E+00
         21   -1    0    0  502  501  0.00000000000E+00  0.00000000000E+00  0.63292206902E+03  0.63292206902E+03  0.00000000000E+00 0.  1.
         21   -1    0    0  501  502 -0.00000000000E+00 -0.00000000000E+00 -0.10145626719E+03  0.10145626719E+03  0.00000000000E+00 0.  1.
         25    1    1    2    0    0 -0.42708145472E+02  0.21566001735E+03  0.24256294619E+03  0.35042119176E+03  0.12500000000E+03 0.  0.
         25    1    1    2    0    0  0.42708145472E+02 -0.21566001735E+03  0.28890285564E+03  0.38395714444E+03  0.12500000000E+03 0.  0.
</event>
<event>
 4    0  0.2225052E-002  0.2538748E+03  0.7546771E-02  0.1110880E+00
         21   -1    0    0  502  501  0.00000000000E+00  0.00000000000E+00  0.59917189190E+02  0.59917189190E+02  0.00000000000E+00 0.  1.
         21   -1    0    0  501  502 -0.00000000000E+00 -0.00000000000E+00 -0.10756919242E+04  0.10756919242E+04  0.00000000000E+00 0.  1.
         25    1    1    2    0    0  0.87798962437E+02  0.19245370698E+03 -0.65075303680E+03  0.69559442353E+03  0.12500000000E+03 0.  0.
         25    1    1    2    0    0 -0.87798962437E+02 -0.19245370698E+03 -0.36502169824E+03  0.44001468989E+03  0.12500000000E+03 0.  0.
</event>
<event>
 4    0  0.2225052E-002  0.2671138E+03  0.7546771E-02  0.1102943E+00
         21   -1    0    0  502  501  0.00000000000E+00  0.00000000000E+00  0.42288530472E+02  0.42288530472E+02  0.00000000000E+00 0. -1.
         21   -1    0    0  501  502 -0.00000000000E+00 -0.00000000000E+00 -0.16872135879E+04  0.16872135879E+04  0.00000000000E+00 0.  1.
         25    1    1    2    0    0 -0.15233471529E+03 -0.17935010521E+03 -0.88324077363E+03  0.92255709304E+03  0.12500000000E+03 0.  0.
         25    1    1    2    0    0  0.15233471529E+03  0.17935010521E+03 -0.76168428380E+03  0.80694502534E+03  0.12500000000E+03 0.  0.
</event>
<event>
 4    0  0.2225052E-002  0.2430784E+03  0.7546771E-02  0.1117759E+00
         21   -1    0    0  502  501  0.00000000000E+00  0.00000000000E+00  0.13637780380E+03  0.13637780380E+03  0.00000000000E+00 0.  1.
         21   -1    0    0  501  502 -0.00000000000E+00 -0.00000000000E+00 -0.43326028348E+03  0.43326028348E+03  0.00000000000E+00 0.  1.
         25    1    1    2    0    0 -0.17317134933E+03 -0.10968039134E+03 -0.10391627893E+03  0.26161364165E+03  0.12500000000E+03 0.  0.
         25    1    1    2    0    0  0.17317134933E+03  0.10968039134E+03 -0.19296620075E+03  0.30802444563E+03  0.12500000000E+03 0.  0.
</event>
<event>
 4    0  0.2225052E-002  0.2638929E+03  0.7546771E-02  0.1104827E+00
         21   -1    0    0  502  501  0.00000000000E+00  0.00000000000E+00  0.75346782267E+02  0.75346782267E+02  0.00000000000E+00 0.  1.
         21   -1    0    0  501  502 -0.00000000000E+00 -0.00000000000E+00 -0.92425229643E+03  0.92425229643E+03  0.00000000000E+00 0.  1.
         25    1    1    2    0    0  0.48894429353E+02  0.17118050890E+03 -0.14149272464E+03  0.25949686506E+03  0.12500000000E+03 0.  0.
         25    1    1    2    0    0 -0.48894429353E+02 -0.17118050890E+03 -0.70741278952E+03  0.74010221363E+03  0.12500000000E+03 0.  0.
</event>
<event>
 4    0  0.2225052E-002  0.6983211E+03  0.7546771E-02  0.9720108E-01
         21   -1    0    0  502  501  0.00000000000E+00  0.00000000000E+00  0.11319410849E+04  0.11319410849E+04  0.00000000000E+00 0. -1.
         21   -1    0    0  501  502 -0.00000000000E+00 -0.00000000000E+00 -0.43081070522E+03  0.43081070522E+03  0.00000000000E+00 0. -1.
         25    1    1    2    0    0 -0.25724299717E+03 -0.26662319722E+03  0.99796887632E+03  0.10718343002E+04  0.12500000000E+03 0.  0.
         25    1    1    2    0    0  0.25724299717E+03  0.26662319722E+03 -0.29683849662E+03  0.49091748998E+03  0.12500000000E+03 0.  0.
</event>
<event>
 4    0  0.2225052E-002  0.1857949E+03  0.7546771E-02  0.1162310E+00
         21   -1    0    0  502  501  0.00000000000E+00  0.00000000000E+00  0.25229179653E+03  0.25229179653E+03  0.00000000000E+00 0. -1.
         21   -1    0    0  501  502 -0.00000000000E+00 -0.00000000000E+00 -0.13682465528E+03  0.13682465528E+03  0.00000000000E+00 0. -1.
         25    1    1    2    0    0  0.12014413686E+03 -0.11664551474E+02  0.12659275008E+03  0.21499162717E+03  0.12500000000E+03 0.  0.
         25    1    1    2    0    0 -0.12014413686E+03  0.11664551474E+02 -0.11125608830E+02  0.17412482464E+03  0.12500000000E+03 0.  0.
</event>
<event>
 4    0  0.2225052E-002  0.1438047E+03  0.7546771E-02  0.1208299E+00
         21   -1    0    0  502  501  0.00000000000E+00  0.00000000000E+00  0.12211306016E+03  0.12211306016E+03  0.00000000000E+00 0. -1.
         21   -1    0    0  501  502 -0.00000000000E+00 -0.00000000000E+00 -0.16934955496E+03  0.16934955496E+03  0.00000000000E+00 0. -1.
         25    1    1    2    0    0 -0.34297543879E+02 -0.52607086882E+02 -0.57395943097E+02  0.15120556005E+03  0.12500000000E+03 0.  0.
         25    1    1    2    0    0  0.34297543879E+02  0.52607086882E+02  0.10159448295E+02  0.14025705507E+03  0.12500000000E+03 0.  0.
</event>
<event>
 4    0  0.2225052E-002  0.4253137E+03  0.7546771E-02  0.1035351E+00
         21   -1    0    0  502  501  0.00000000000E+00  0.00000000000E+00  0.53342460805E+03  0.53342460805E+03  0.00000000000E+00 0.  1.
         21   -1    0    0  501  502 -0.00000000000E+00 -0.00000000000E+00 -0.33911404519E+03  0.33911404519E+03  0.00000000000E+00 0.  1.
         25    1    1    2    0    0  0.60546066379E+02 -0.39552436610E+02 -0.31319512203E+03  0.34488607664E+03  0.12500000000E+03 0.  0.
         25    1    1    2    0    0 -0.60546066379E+02  0.39552436610E+02  0.50750568489E+03  0.52765257660E+03  0.12500000000E+03 0.  0.
</event>
<event>
 4    0  0.2225052E-002  0.2169383E+03  0.7546771E-02  0.1136186E+00
         21   -1    0    0  502  501  0.00000000000E+00  0.00000000000E+00  0.78911635404E+03  0.78911635404E+03  0.00000000000E+00 0.  1.
         21   -1    0    0  501  502 -0.00000000000E+00 -0.00000000000E+00 -0.59639158784E+02  0.59639158784E+02  0.00000000000E+00 0.  1.
         25    1    1    2    0    0 -0.90834007674E+02 -0.59440639047E+02  0.90497023287E+02  0.18867622464E+03  0.12500000000E+03 0.  0.
         25    1    1    2    0    0  0.90834007674E+02  0.59440639047E+02  0.63898017197E+03  0.66007928819E+03  0.12500000000E+03 0.  0.
</event>
<event>
 4    0  0.2225052E-002  0.1866112E+03  0.7546771E-02  0.1161554E+00
         21   -1    0    0  502  501  0.00000000000E+00  0.00000000000E+00  0.89265512521E+02  0.89265512521E+02  0.00000000000E+00 0. -1.
         21   -1    0    0  501  502 -0.00000000000E+00 -0.00000000000E+00 -0.39011397952E+03  0.39011397952E+03  0.00000000000E+00 0. -1.
         25    1    1    2    0    0 -0.20700675024E+02  0.52890665116E+02  0.11907024938E+02  0.13781406911E+03  0.12500000000E+03 0.  0.
         25    1    1    2    0    0  0.20700675024E+02 -0.52890665116E+02 -0.31275549193E+03  0.34156542292E+03  0.12500000000E+03 0.  0.
</event>
<event>
 4    0  0.2225052E-002  0.2101307E+03  0.7546771E-02  0.1141463E+00
         21   -1    0    0  502  501  0.00000000000E+00  0.00000000000E+00  0.82867109658E+02  0.82867109658E+02  0.00000000000E+00 0. -1.
         21   -1    0    0  501  502 -0.00000000000E+00 -0.00000000000E+00 -0.53284016033E+03  0.53284016033E+03  0.00000000000E+00 0. -1.
         25    1    1    2    0    0 -0.58017279505E+02  0.81054080403E+02 -0.42476235474E+03  0.45385441132E+03  0.12500000000E+03 0.  0.
         25    1    1    2    0    0  0.58017279505E+02 -0.81054080403E+02 -0.25210695939E+02  0.16185285867E+03  0.12500000000E+03 0.  0.
</event>
<event>
 4    0  0.2225052E-002  0.2848274E+03  0.7546771E-02  0.1093081E+00
         21   -1    0    0  502  501  0.00000000000E+00  0.00000000000E+00  0.32501427993E+03  0.32501427993E+03  0.00000000000E+00 0.  1.
         21   -1    0    0  501  502 -0.00000000000E+00 -0.00000000000E+00 -0.24960946363E+03  0.24960946363E+03  0.00000000000E+00 0.  1.
         25    1    1    2    0    0 -0.20504053048E+03 -0.11027690579E+03 -0.69521667585E+02  0.27324142686E+03  0.12500000000E+03 0.  0.
         25    1    1    2    0    0  0.20504053048E+03  0.11027690579E+03  0.14492648388E+03  0.30138231670E+03  0.12500000000E+03 0.  0.
</event>
<event>
 4    0  0.2225052E-002  0.1710807E+03  0.7546771E-02  0.1176726E+00
         21   -1    0    0  502  501  0.00000000000E+00  0.00000000000E+00  0.18061291639E+03  0.18061291639E+03  0.00000000000E+00 0. -1.
         21   -1    0    0  501  502 -0.00000000000E+00 -0.00000000000E+00 -0.16205150816E+03  0.16205150816E+03  0.00000000000E+00 0. -1.
         25    1    1    2    0    0  0.60690851497E+02  0.92555567564E+02 -0.28106249149E+02  0.16930703997E+03  0.12500000000E+03 0.  0.
         25    1    1    2    0    0 -0.60690851497E+02 -0.92555567564E+02  0.46667657385E+02  0.17335738458E+03  0.12500000000E+03 0.  0.
</event>
<event>
 4    0  0.2225052E-002  0.2945690E+03  0.7546771E-02  0.1087987E+00
         21   -1    0    0  502  501  0.00000000000E+00  0.00000000000E+00  0.28895056284E+03  0.28895056284E+03  0.00000000000E+00 0.  1.
         21   -1    0    0  501  502 -0.00000000000E+00 -0.00000000000E+00 -0.30029666610E+03  0.30029666610E+03  0.00000000000E+00 0.  1.
         25    1    1    2    0    0  0.49476280444E+01  0.62120061700E+02 -0.26507131186E+03  0.29961839306E+03  0.12500000000E+03 0.  0.
         25    1    1    2    0    0 -0.49476280444E+01 -0.62120061700E+02  0.25372520861E+03  0.28962883588E+03  0.12500000000E+03 0.  0.
</event>
<event>
 4    0  0.2225052E-002  0.2135911E+03  0.7546771E-02  0.1138753E+00
         21   -1    0    0  502  501  0.00000000000E+00  0.00000000000E+00  0.10636963202E+03  0.10636963202E+03  0.00000000000E+00 0. -1.
         21   -1    0    0  501  502 -0.00000000000E+00 -0.00000000000E+00 -0.42889252932E+03  0.42889252932E+03  0.00000000000E+00 0. -1.
         25    1    1    2    0    0 -0.66884191508E+02 -0.51865425748E+02 -0.35059665707E+03  0.38171525174E+03  0.12500000000E+03 0.  0.
         25    1    1    2    0    0  0.66884191508E+02  0.51865425748E+02  0.28073759764E+02  0.15354690960E+03  0.12500000000E+03 0.  0.
</event>
<event>
 4    0  0.2225052E-002  0.3267352E+03  0.7546771E-02  0.1072591E+00
         21   -1    0    0  502  501  0.00000000000E+00  0.00000000000E+00  0.20296324780E+03  0.20296324780E+03  0.00000000000E+00 0. -1.
         21   -1    0    0  501  502 -0.00000000000E+00 -0.00000000000E+00 -0.52598639495E+03  0.52598639495E+03  0.00000000000E+00 0. -1.
         25    1    1    2    0    0  0.22487057568E+02  0.21790834422E+03  0.70183952914E+02  0.26180240924E+03  0.12500000000E+03 0.  0.
         25    1    1    2    0    0 -0.22487057568E+02 -0.21790834422E+03 -0.39320710006E+03  0.46714723351E+03  0.12500000000E+03 0.  0.
</event>
<event>
 4    0  0.2225052E-002  0.1796790E+03  0.7546771E-02  0.1168114E+00
         21   -1    0    0  502  501  0.00000000000E+00  0.00000000000E+00  0.26323811037E+02  0.26323811037E+02  0.00000000000E+00 0. -1.
         21   -1    0    0  501  502 -0.00000000000E+00 -0.00000000000E+00 -0.12264383780E+04  0.12264383780E+04  0.00000000000E+00 0. -1.
         25    1    1    2    0    0 -0.20559099320E+00 -0.12546921078E+03 -0.70562186827E+03  0.72750930310E+03  0.12500000000E+03 0.  0.
         25    1    1    2    0    0  0.20559099320E+00  0.12546921078E+03 -0.49449269872E+03  0.52525288596E+03  0.12500000000E+03 0.  0.
</event>
<event>
 4    0  0.2225052E-002  0.2193866E+03  0.7546771E-02  0.1134341E+00
         21   -1    0    0  502  501  0.00000000000E+00  0.00000000000E+00  0.63616501405E+03  0.63616501405E+03  0.00000000000E+00 0. -1.
         21   -1    0    0  501  502 -0.00000000000E+00 -0.00000000000E+00 -0.75657233783E+02  0.75657233783E+02  0.00000000000E+00 0. -1.
         25    1    1    2    0    0  0.12337528499E+03 -0.98689451303E+01  0.67573825953E+02  0.18844118175E+03  0.12500000000E+03 0.  0.
         25    1    1    2    0    0 -0.12337528499E+03  0.98689451303E+01  0.49293395431E+03  0.52338106609E+03  0.12500000000E+03 0.  0.
</event>
<event>
 4    0  0.2225052E-002  0.1929597E+03  0.7546771E-02  0.1155819E+00
         21   -1    0    0  502  501  0.00000000000E+00  0.00000000000E+00  0.88171076758E+02  0.88171076758E+02  0.00000000000E+00 0. -1.
         21   -1    0    0  501  502 -0.00000000000E+00 -0.00000000000E+00 -0.42228652961E+03  0.42228652961E+03  0.00000000000E+00 0. -1.
         25    1    1    2    0    0  0.82395286943E+02  0.80943915404E+02 -0.28732614586E+03  0.33394941959E+03  0.12500000000E+03 0.  0.
         25    1    1    2    0    0 -0.82395286943E+02 -0.80943915404E+02 -0.46789306998E+02  0.17650818678E+03  0.12500000000E+03 0.  0.
</event>
<event>
 4    0  0.2225052E-002  0.1829096E+03  0.7546771E-02  0.1165016E+00
         21   -1    0    0  502  501  0.00000000000E+00  0.00000000000E+00  0.64124650523E+03  0.64124650523E+03  0.00000000000E+00 0. -1.
         21   -1    0    0  501  502 -0.00000000000E+00 -0.00000000000E+00 -0.52173246179E+02  0.52173246179E+02  0.00000000000E+00 0. -1.
         25    1    1    2    0    0  0.47119681089E+02  0.85050396948E+02  0.12104599256E+03  0.19932628196E+03  0.12500000000E+03 0.  0.
         25    1    1    2    0    0 -0.47119681089E+02 -0.85050396948E+02  0.46802726649E+03  0.49409346945E+03  0.12500000000E+03 0.  0.
</event>
<event>
 4    0  0.2225052E-002  0.2434924E+03  0.7546771E-02  0.1117488E+00
         21   -1    0    0  502  501  0.00000000000E+00  0.00000000000E+00  0.23358856068E+03  0.23358856068E+03  0.00000000000E+00 0. -1.
         21   -1    0    0  501  502 -0.00000000000E+00 -0.00000000000E+00 -0.25381608760E+03  0.25381608760E+03  0.00000000000E+00 0. -1.
         25    1    1    2    0    0  0.15886497313E+03  0.12526487768E+03  0.42220570045E+02  0.24153042417E+03  0.12500000000E+03 0.  0.
         25    1    1    2    0    0 -0.15886497313E+03 -0.12526487768E+03 -0.62448096967E+02  0.24587422411E+03  0.12500000000E+03 0.  0.
</event>
<event>
 4    0  0.2225052E-002  0.1830620E+03  0.7546771E-02  0.1164872E+00
         21   -1    0    0  502  501  0.00000000000E+00  0.00000000000E+00  0.29059480751E+03  0.29059480751E+03  0.00000000000E+00 0.  1.
         21   -1    0    0  501  502 -0.00000000000E+00 -0.00000000000E+00 -0.11532101813E+03  0.11532101813E+03  0.00000000000E+00 0.  1.
         25    1    1    2    0    0  0.11781984188E+03  0.60208899493E+02  0.66022889467E+02  0.19362502073E+03  0.12500000000E+03 0.  0.
         25    1    1    2    0    0 -0.11781984188E+03 -0.60208899493E+02  0.10925089991E+03  0.21229080491E+03  0.12500000000E+03 0.  0.
</event>
<event>
 4    0  0.2225052E-002  0.2440263E+03  0.7546771E-02  0.1117139E+00
         21   -1    0    0  502  501  0.00000000000E+00  0.00000000000E+00  0.59498597291E+03  0.59498597291E+03  0.00000000000E+00 0. -1.
         21   -1    0    0  501  502 -0.00000000000E+00 -0.00000000000E+00 -0.10008440641E+03  0.10008440641E+03  0.00000000000E+00 0. -1.
         25    1    1    2    0    0  0.10771405705E+03  0.13120840898E+03  0.42248979141E+03  0.47216584853E+03  0.12500000000E+03 0.  0.
         25    1    1    2    0    0 -0.10771405705E+03 -0.13120840898E+03  0.72411775096E+02  0.22290453079E+03  0.12500000000E+03 0.  0.
</event>
<event>
 4    0  0.2225052E-002  0.1731732E+03  0.7546771E-02  0.1174578E+00
         21   -1    0    0  502  501  0.00000000000E+00  0.00000000000E+00  0.75396362336E+02  0.75396362336E+02  0.00000000000E+00 0.  1.
         21   -1    0    0  501  502 -0.00000000000E+00 -0.00000000000E+00 -0.39775093462E+03  0.39775093462E+03  0.00000000000E+00 0.  1.
         25    1    1    2    0    0 -0.85791725922E+02  0.80390711005E+02 -0.12939983278E+03  0.21492371525E+03  0.12500000000E+03 0.  0.
         25    1    1    2    0    0  0.85791725922E+02 -0.80390711005E+02 -0.19295473951E+03  0.25822358171E+03  0.12500000000E+03 0.  0.
</event>
<event>
 4    0  0.2225052E-002  0.2423144E+03  0.7546771E-02  0.1118261E+00
         21   -1    0    0  502  501  0.00000000000E+00  0.00000000000E+00  0.87121683676E+02  0.87121683676E+02  0.00000000000E+00 0. -1.
         21   -1    0    0  501  502 -0.00000000000E+00 -0.00000000000E+00 -0.67395717790E+03  0.67395717790E+03  0.00000000000E+00 0.  1.
         25    1    1    2    0    0  0.15946544525E+03 -0.12246125162E+03 -0.21234157352E+03  0.31802504654E+03  0.12500000000E+03 0.  0.
         25    1    1    2    0    0 -0.15946544525E+03  0.12246125162E+03 -0.37449392070E+03  0.44305381504E+03  0.12500000000E+03 0.  0.
</event>
<event>
 4    0  0.2225052E-002  0.3000076E+03  0.7546771E-02  0.1085237E+00
         21   -1    0    0  502  501  0.00000000000E+00  0.00000000000E+00  0.58458098214E+03  0.58458098214E+03  0.00000000000E+00 0. -1.
         21   -1    0    0  501  502 -0.00000000000E+00 -0.00000000000E+00 -0.15396425909E+03  0.15396425909E+03  0.00000000000E+00 0. -1.
         25    1    1    2    0    0 -0.78328586914E+02  0.11830320638E+01  0.53685447292E+03  0.55675352912E+03  0.12500000000E+03 0.  0.
         25    1    1    2    0    0  0.78328586914E+02 -0.11830320638E+01 -0.10623774987E+03  0.18179171211E+03  0.12500000000E+03 0.  0.
</event>
<event>
 4    0  0.2225052E-002  0.2322261E+03  0.7546771E-02  0.1125083E+00
         21   -1    0    0  502  501  0.00000000000E+00  0.00000000000E+00  0.28346808020E+03  0.28346808020E+03  0.00000000000E+00 0.  1.
         21   -1    0    0  501  502 -0.00000000000E+00 -0.00000000000E+00 -0.19024706473E+03  0.19024706473E+03  0.00000000000E+00 0.  1.
         25    1    1    2    0    0 -0.56850060048E+02 -0.40558123777E+02  0.23308757362E+03  0.27355384791E+03  0.12500000000E+03 0.  0.
         25    1    1    2    0    0  0.56850060048E+02  0.40558123777E+02 -0.13986655816E+03  0.20016129701E+03  0.12500000000E+03 0.  0.
</event>
<event>
 4    0  0.2225052E-002  0.2527681E+03  0.7546771E-02  0.1111568E+00
         21   -1    0    0  502  501  0.00000000000E+00  0.00000000000E+00  0.59206098223E+03  0.59206098223E+03  0.00000000000E+00 0. -1.
         21   -1    0    0  501  502 -0.00000000000E+00 -0.00000000000E+00 -0.10791405944E+03  0.10791405944E+03  0.00000000000E+00 0. -1.
         25    1    1    2    0    0  0.64441202144E+02 -0.20992987356E+03  0.25120393898E+03  0.35630273547E+03  0.12500000000E+03 0.  0.
         25    1    1    2    0    0 -0.64441202144E+02  0.20992987356E+03  0.23294298380E+03  0.34367230620E+03  0.12500000000E+03 0.  0.
</event>
<event>
 4    0  0.2225052E-002  0.2017577E+03  0.7546771E-02  0.1148264E+00
         21   -1    0    0  502  501  0.00000000000E+00  0.00000000000E+00  0.11362957833E+03  0.11362957833E+03  0.00000000000E+00 0. -1.
         21   -1    0    0  501  502 -0.00000000000E+00 -0.00000000000E+00 -0.35823557315E+03  0.35823557315E+03  0.00000000000E+00 0. -1.
         25    1    1    2    0    0  0.13069707064E+03  0.81584279828E+02 -0.79441563891E+02  0.21371401700E+03  0.12500000000E+03 0.  0.
         25    1    1    2    0    0 -0.13069707064E+03 -0.81584279828E+02 -0.16516443093E+03  0.25815113448E+03  0.12500000000E+03 0.  0.
</event>
<event>
 4    0  0.2225052E-002  0.1437799E+03  0.7546771E-02  0.1208331E+00
         21   -1    0    0  502  501  0.00000000000E+00  0.00000000000E+00  0.12732178699E+02  0.12732178699E+02  0.00000000000E+00 0.  1.
         21   -1    0    0  501  502 -0.00000000000E+00 -0.00000000000E+00 -0.16236553375E+04  0.16236553375E+04  0.00000000000E+00 0.  1.
         25    1    1    2    0    0 -0.18600930977E+02 -0.20663841621E+02 -0.43340436662E+03  0.45192624839E+03  0.12500000000E+03 0.  0.
         25    1    1    2    0    0  0.18600930977E+02  0.20663841621E+02 -0.11775187922E+04  0.11844612678E+04  0.12500000000E+03 0.  0.
</event>
<event>
 4    0  0.2225052E-002  0.2375462E+03  0.7546771E-02  0.1121438E+00
         21   -1    0    0  502  501  0.00000000000E+00  0.00000000000E+00  0.53107570995E+03  0.53107570995E+03  0.00000000000E+00 0.  1.
         21   -1    0    0  501  502 -0.00000000000E+00 -0.00000000000E+00 -0.10625259759E+03  0.10625259759E+03  0.00000000000E+00 0.  1.
         25    1    1    2    0    0  0.37339118786E+02  0.18918773648E+03  0.29308996516E+03  0.37244185735E+03  0.12500000000E+03 0.  0.
         25    1    1    2    0    0 -0.37339118786E+02 -0.18918773648E+03  0.13173314720E+03  0.26488645020E+03  0.12500000000E+03 0.  0.
</event>
<event>
 4    0  0.2225052E-002  0.1986192E+03  0.7546771E-02  0.1150909E+00
         21   -1    0    0  502  501  0.00000000000E+00  0.00000000000E+00  0.35312637320E+03  0.35312637320E+03  0.00000000000E+00 0. -1.
         21   -1    0    0  501  502 -0.00000000000E+00 -0.00000000000E+00 -0.11171524783E+03  0.11171524783E+03  0.00000000000E+00 0. -1.
         25    1    1    2    0    0 -0.12417054178E+03 -0.47441029343E+02  0.21251552428E+03  0.28010145086E+03  0.12500000000E+03 0.  0.
         25    1    1    2    0    0  0.12417054178E+03  0.47441029343E+02  0.28895601093E+02  0.18474017017E+03  0.12500000000E+03 0.  0.
</event>
<event>
 4    0  0.2225052E-002  0.2934523E+03  0.7546771E-02  0.1088560E+00
         21   -1    0    0  502  501  0.00000000000E+00  0.00000000000E+00  0.31529460287E+02  0.31529460287E+02  0.00000000000E+00 0.  1.
         21   -1    0    0  501  502 -0.00000000000E+00 -0.00000000000E+00 -0.27312305962E+04  0.27312305962E+04  0.00000000000E+00 0. -1.
         25    1    1    2    0    0 -0.19893904155E+03  0.17542310235E+03 -0.14053931164E+04  0.14356548397E+04  0.12500000000E+03 0.  0.
         25    1    1    2    0    0  0.19893904155E+03 -0.17542310235E+03 -0.12943080196E+04  0.13271052169E+04  0.12500000000E+03 0.  0.
</event>
<event>
 4    0  0.2225052E-002  0.1950466E+03  0.7546771E-02  0.1153987E+00
         21   -1    0    0  502  501  0.00000000000E+00  0.00000000000E+00  0.17902328034E+02  0.17902328034E+02  0.00000000000E+00 0.  1.
         21   -1    0    0  501  502 -0.00000000000E+00 -0.00000000000E+00 -0.21250402933E+04  0.21250402933E+04  0.00000000000E+00 0.  1.
         25    1    1    2    0    0 -0.19678150438E+02 -0.55889870690E+02 -0.18089333927E+04  0.18142149615E+04  0.12500000000E+03 0.  0.
         25    1    1    2    0    0  0.19678150438E+02  0.55889870690E+02 -0.29820457257E+03  0.32872765985E+03  0.12500000000E+03 0.  0.
</event>
<event>
 4    0  0.2225052E-002  0.4267687E+03  0.7546771E-02  0.1034886E+00
         21   -1    0    0  502  501  0.00000000000E+00  0.00000000000E+00  0.12471895960E+04  0.12471895960E+04  0.00000000000E+00 0.  1.
         21   -1    0    0  501  502 -0.00000000000E+00 -0.00000000000E+00 -0.14603353965E+03  0.14603353965E+03  0.00000000000E+00 0.  1.
         25    1    1    2    0    0 -0.19662743297E+03  0.25141284315E+03  0.96556505466E+03  0.10246031621E+04  0.12500000000E+03 0.  0.
         25    1    1    2    0    0  0.19662743297E+03 -0.25141284315E+03  0.13559100165E+03  0.36861997345E+03  0.12500000000E+03 0.  0.
</event>
<event>
 4    0  0.2225052E-002  0.1974706E+03  0.7546771E-02  0.1151891E+00
         21   -1    0    0  502  501  0.00000000000E+00  0.00000000000E+00  0.82988509415E+03  0.82988509415E+03  0.00000000000E+00 0. -1.
         21   -1    0    0  501  502 -0.00000000000E+00 -0.00000000000E+00 -0.46988003070E+02  0.46988003070E+02  0.00000000000E+00 0. -1.
         25    1    1    2    0    0 -0.96900232267E+02 -0.10332931397E+03  0.51905165876E+03  0.55236421553E+03  0.12500000000E+03 0.  0.
         25    1    1    2    0    0  0.96900232267E+02  0.10332931397E+03  0.26384543233E+03  0.32450888169E+03  0.12500000000E+03 0.  0.
</event>
<event>
 4    0  0.2225052E-002  0.2746428E+03  0.7546771E-02  0.1098651E+00
         21   -1    0    0  502  501  0.00000000000E+00  0.00000000000E+00  0.12995556042E+03  0.12995556042E+03  0.00000000000E+00 0.  1.
         21   -1    0    0  501  502 -0.00000000000E+00 -0.00000000000E+00 -0.58041907353E+03  0.58041907353E+03  0.00000000000E+00 0.  1.
         25    1    1    2    0    0 -0.16889585545E+03 -0.17685362517E+03 -0.22629133608E+03  0.35585921866E+03  0.12500000000E+03 0.  0.
         25    1    1    2    0    0  0.16889585545E+03  0.17685362517E+03 -0.22417217703E+03  0.35451541529E+03  0.12500000000E+03 0.  0.
</event>
<event>
 4    0  0.2225052E-002  0.1952638E+03  0.7546771E-02  0.1153798E+00
         21   -1    0    0  502  501  0.00000000000E+00  0.00000000000E+00  0.14424915318E+03  0.14424915318E+03  0.00000000000E+00 0.  1.
         21   -1    0    0  501  502 -0.00000000000E+00 -0.00000000000E+00 -0.26432000795E+03  0.26432000795E+03  0.00000000000E+00 0.  1.
         25    1    1    2    0    0  0.11107443151E+03  0.77473209431E+02 -0.12754001620E+03  0.22412291995E+03  0.12500000000E+03 0.  0.
         25    1    1    2    0    0 -0.11107443151E+03 -0.77473209431E+02  0.74691614274E+01  0.18444624118E+03  0.12500000000E+03 0.  0.
</event>
<event>
 4    0  0.2225052E-002  0.2153270E+03  0.7546771E-02  0.1137416E+00
         21   -1    0    0  502  501  0.00000000000E+00  0.00000000000E+00  0.28042245944E+02  0.28042245944E+02  0.00000000000E+00 0. -1.
         21   -1    0    0  501  502 -0.00000000000E+00 -0.00000000000E+00 -0.16534231505E+04  0.16534231505E+04  0.00000000000E+00 0. -1.
         25    1    1    2    0    0  0.16107118955E+03  0.49635188356E+02 -0.10012844832E+04  0.10230362635E+04  0.12500000000E+03 0.  0.
         25    1    1    2    0    0 -0.16107118955E+03 -0.49635188356E+02 -0.62409642129E+03  0.65842913294E+03  0.12500000000E+03 0.  0.
</event>
<event>
 4    0  0.2225052E-002  0.2462539E+03  0.7546771E-02  0.1115695E+00
         21   -1    0    0  502  501  0.00000000000E+00  0.00000000000E+00  0.12820602568E+03  0.12820602568E+03  0.00000000000E+00 0.  1.
         21   -1    0    0  501  502 -0.00000000000E+00 -0.00000000000E+00 -0.47299621248E+03  0.47299621248E+03  0.00000000000E+00 0.  1.
         25    1    1    2    0    0  0.13759563244E+03  0.44004617187E+02 -0.36208277794E+03  0.40938722803E+03  0.12500000000E+03 0.  0.
         25    1    1    2    0    0 -0.13759563244E+03 -0.44004617187E+02  0.17292591141E+02  0.19181501012E+03  0.12500000000E+03 0.  0.
</event>
<event>
 4    0  0.2225052E-002  0.1883496E+03  0.7546771E-02  0.1159958E+00
         21   -1    0    0  502  501  0.00000000000E+00  0.00000000000E+00  0.88901451172E+02  0.88901451172E+02  0.00000000000E+00 0.  1.
         21   -1    0    0  501  502 -0.00000000000E+00 -0.00000000000E+00 -0.39904399829E+03  0.39904399829E+03  0.00000000000E+00 0.  1.
         25    1    1    2    0    0 -0.13488105604E+03 -0.40335995943E+02 -0.16224816427E+03  0.24853442147E+03  0.12500000000E+03 0.  0.
         25    1    1    2    0    0  0.13488105604E+03  0.40335995943E+02 -0.14789438285E+03  0.23941102799E+03  0.12500000000E+03 0.  0.
</event>
<event>
 4    0  0.2225052E-002  0.2249979E+03  0.7546771E-02  0.1130211E+00
         21   -1    0    0  502  501  0.00000000000E+00  0.00000000000E+00  0.11562341639E+03  0.11562341639E+03  0.00000000000E+00 0.  1.
         21   -1    0    0  501  502 -0.00000000000E+00 -0.00000000000E+00 -0.43783559862E+03  0.43783559862E+03  0.00000000000E+00 0.  1.
         25    1    1    2    0    0  0.83287784218E+02  0.10915527564E+03 -0.31739467026E+03  0.36771742672E+03  0.12500000000E+03 0.  0.
         25    1    1    2    0    0 -0.83287784218E+02 -0.10915527564E+03 -0.48175119646E+01  0.18574158830E+03  0.12500000000E+03 0.  0.
</event>
<event>
 4    0  0.2225052E-002  0.1611747E+03  0.7546771E-02  0.1187377E+00
         21   -1    0    0  502  501  0.00000000000E+00  0.00000000000E+00  0.33497533636E+02  0.33497533636E+02  0.00000000000E+00 0.  1.
         21   -1    0    0  501  502 -0.00000000000E+00 -0.00000000000E+00 -0.77549829809E+03  0.77549829809E+03  0.00000000000E+00 0.  1.
         25    1    1    2    0    0 -0.80440292541E+02  0.32324656661E+02 -0.50466930764E+03  0.52709736688E+03  0.12500000000E+03 0.  0.
         25    1    1    2    0    0  0.80440292541E+02 -0.32324656661E+02 -0.23733145681E+03  0.28189846485E+03  0.12500000000E+03 0.  0.
</event>
<event>
 4    0  0.2225052E-002  0.1743459E+03  0.7546771E-02  0.1173390E+00
         21   -1    0    0  502  501  0.00000000000E+00  0.00000000000E+00  0.36430362038E+03  0.36430362038E+03  0.00000000000E+00 0. -1.
         21   -1    0    0  501  502 -0.00000000000E+00 -0.00000000000E+00 -0.83437208889E+02  0.83437208889E+02  0.00000000000E+00 0. -1.
         25    1    1    2    0    0 -0.46374629710E+01  0.11795853036E+03  0.10331175744E+03  0.20058424707E+03  0.12500000000E+03 0.  0.
         25    1    1    2    0    0  0.46374629710E+01 -0.11795853036E+03  0.17755465406E+03  0.24715658220E+03  0.12500000000E+03 0.  0.
</event>
<event>
 4    0  0.2225052E-002  0.2554472E+03  0.7546771E-02  0.1109910E+00
         21   -1    0    0  502  501  0.00000000000E+00  0.00000000000E+00  0.74792778910E+03  0.74792778910E+03  0.00000000000E+00 0. -1.
         21   -1    0    0  501  502 -0.00000000000E+00 -0.00000000000E+00 -0.87245440542E+02  0.87245440542E+02  0.00000000000E+00 0. -1.
         25    1    1    2    0    0 -0.13794556940E+03 -0.16001719469E+03  0.21482009698E+03  0.32620109868E+03  0.12500000000E+03 0.  0.
         25    1    1    2    0    0  0.13794556940E+03  0.16001719469E+03  0.44586225158E+03  0.50897213096E+03  0.12500000000E+03 0.  0.
</event>
<event>
 4    0  0.2225052E-002  0.1963321E+03  0.7546771E-02  0.1152871E+00
         21   -1    0    0  502  501  0.00000000000E+00  0.00000000000E+00  0.27058810066E+03  0.27058810066E+03  0.00000000000E+00 0.  1.
         21   -1    0    0  501  502 -0.00000000000E+00 -0.00000000000E+00 -0.14245382301E+03  0.14245382301E+03  0.00000000000E+00 0.  1.
         25    1    1    2    0    0  0.72864181873E+02 -0.10288603400E+03 -0.24107739964E+02  0.17916726297E+03  0.12500000000E+03 0.  0.
         25    1    1    2    0    0 -0.72864181873E+02  0.10288603400E+03  0.15224201762E+03  0.23387466071E+03  0.12500000000E+03 0.  0.
</event>
<event>
 4    0  0.2225052E-002  0.2069043E+03  0.7546771E-02  0.1144041E+00
         21   -1    0    0  502  501  0.00000000000E+00  0.00000000000E+00  0.23924119939E+03  0.23924119939E+03  0.00000000000E+00 0.  1.
         21   -1    0    0  501  502 -0.00000000000E+00 -0.00000000000E+00 -0.17893822772E+03  0.17893822772E+03  0.00000000000E+00 0.  1.
         25    1    1    2    0    0  0.88372427297E+02  0.37893793262E+02  0.16550185859E+03  0.22860772225E+03  0.12500000000E+03 0.  0.
         25    1    1    2    0    0 -0.88372427297E+02 -0.37893793262E+02 -0.10519888692E+03  0.18957170486E+03  0.12500000000E+03 0.  0.
</event>
<event>
 4    0  0.2225052E-002  0.2045504E+03  0.7546771E-02  0.1145956E+00
         21   -1    0    0  502  501  0.00000000000E+00  0.00000000000E+00  0.15348312781E+03  0.15348312781E+03  0.00000000000E+00 0. -1.
         21   -1    0    0  501  502 -0.00000000000E+00 -0.00000000000E+00 -0.27260891849E+03  0.27260891849E+03  0.00000000000E+00 0. -1.
         25    1    1    2    0    0 -0.36220149769E+01 -0.50013753816E+00  0.10903201088E+03  0.16591066429E+03  0.12500000000E+03 0.  0.
         25    1    1    2    0    0  0.36220149769E+01  0.50013753816E+00 -0.22815780156E+03  0.26018138200E+03  0.12500000000E+03 0.  0.
</event>
<event>
 4    0  0.2225052E-002  0.2235155E+03  0.7546771E-02  0.1131289E+00
         21   -1    0    0  502  501  0.00000000000E+00  0.00000000000E+00  0.46427730594E+02  0.46427730594E+02  0.00000000000E+00 0.  1.
         21   -1    0    0  501  502 -0.00000000000E+00 -0.00000000000E+00 -0.10760631115E+04  0.10760631115E+04  0.00000000000E+00 0.  1.
         25    1    1    2    0    0 -0.39055357613E+02 -0.13208049457E+03 -0.20358044075E+03  0.27575455365E+03  0.12500000000E+03 0.  0.
         25    1    1    2    0    0  0.39055357613E+02  0.13208049457E+03 -0.82605494014E+03  0.84673628842E+03  0.12500000000E+03 0.  0.
</event>
<event>
 4    0  0.2225052E-002  0.2438172E+03  0.7546771E-02  0.1117276E+00
         21   -1    0    0  502  501  0.00000000000E+00  0.00000000000E+00  0.10472733493E+04  0.10472733493E+04  0.00000000000E+00 0. -1.
         21   -1    0    0  501  502 -0.00000000000E+00 -0.00000000000E+00 -0.56763442880E+02  0.56763442880E+02  0.00000000000E+00 0. -1.
         25    1    1    2    0    0  0.20678348730E+03  0.16493660538E+02  0.43160329279E+03  0.49491196571E+03  0.12500000000E+03 0.  0.
         25    1    1    2    0    0 -0.20678348730E+03 -0.16493660538E+02  0.55890661361E+03  0.60912482645E+03  0.12500000000E+03 0.  0.
</event>
<event>
 4    0  0.2225052E-002  0.1809555E+03  0.7546771E-02  0.1166882E+00
         21   -1    0    0  502  501  0.00000000000E+00  0.00000000000E+00  0.45783817576E+03  0.45783817576E+03  0.00000000000E+00 0. -1.
         21   -1    0    0  501  502 -0.00000000000E+00 -0.00000000000E+00 -0.71520646689E+02  0.71520646689E+02  0.00000000000E+00 0. -1.
         25    1    1    2    0    0  0.12153687231E+03 -0.34173211231E+01  0.12244936526E+03  0.21307683231E+03  0.12500000000E+03 0.  0.
         25    1    1    2    0    0 -0.12153687231E+03  0.34173211231E+01  0.26386816381E+03  0.31628199014E+03  0.12500000000E+03 0.  0.
</event>
<event>
 4    0  0.2225052E-002  0.1814192E+03  0.7546771E-02  0.1166437E+00
         21   -1    0    0  502  501  0.00000000000E+00  0.00000000000E+00  0.32464862553E+04  0.32464862553E+04  0.00000000000E+00 0.  1.
         21   -1    0    0  501  502 -0.00000000000E+00 -0.00000000000E+00 -0.10138010795E+02  0.10138010795E+02  0.00000000000E+00 0.  1.
         25    1    1    2    0    0  0.12719296957E+03  0.28697007052E+02  0.17700531368E+04  0.17792455359E+04  0.12500000000E+03 0.  0.
         25    1    1    2    0    0 -0.12719296957E+03 -0.28697007052E+02  0.14662951076E+04  0.14773787302E+04  0.12500000000E+03 0.  0.
</event>
<event>
 4    0  0.2225052E-002  0.2261365E+03  0.7546771E-02  0.1129389E+00
         21   -1    0    0  502  501  0.00000000000E+00  0.00000000000E+00  0.32938554141E+03  0.32938554141E+03  0.00000000000E+00 0.  1.
         21   -1    0    0  501  502 -0.00000000000E+00 -0.00000000000E+00 -0.15525182667E+03  0.15525182667E+03  0.00000000000E+00 0.  1.
         25    1    1    2    0    0  0.13207315581E+03 -0.44657734733E+02  0.22292722443E+03  0.29113429744E+03  0.12500000000E+03 0.  0.
         25    1    1    2    0    0 -0.13207315581E+03  0.44657734733E+02 -0.48793509696E+02  0.19350307063E+03  0.12500000000E+03 0.  0.
</event>
<event>
 4    0  0.2225052E-002  0.3268200E+03  0.7546771E-02  0.1072553E+00
         21   -1    0    0  502  501  0.00000000000E+00  0.00000000000E+00  0.20049913927E+03  0.20049913927E+03  0.00000000000E+00 0. -1.
         21   -1    0    0  501  502 -0.00000000000E+00 -0.00000000000E+00 -0.53272690179E+03  0.53272690179E+03  0.00000000000E+00 0. -1.
         25    1    1    2    0    0  0.15537323784E+03 -0.21669811743E+03 -0.71271669242E+01  0.29457548038E+03  0.12500000000E+03 0.  0.
         25    1    1    2    0    0 -0.15537323784E+03  0.21669811743E+03 -0.32510059559E+03  0.43865056068E+03  0.12500000000E+03 0.  0.
</event>
<event>
 4    0  0.2225052E-002  0.1873502E+03  0.7546771E-02  0.1160873E+00
         21   -1    0    0  502  501  0.00000000000E+00  0.00000000000E+00  0.17790788349E+03  0.17790788349E+03  0.00000000000E+00 0. -1.
         21   -1    0    0  501  502 -0.00000000000E+00 -0.00000000000E+00 -0.19729371087E+03  0.19729371087E+03  0.00000000000E+00 0. -1.
         25    1    1    2    0    0 -0.17327499731E+01  0.35514916247E+02 -0.14482077805E+03  0.19458255177E+03  0.12500000000E+03 0.  0.
         25    1    1    2    0    0  0.17327499731E+01 -0.35514916247E+02  0.12543495067E+03  0.18061904259E+03  0.12500000000E+03 0.  0.
</event>
<event>
 4    0  0.2225052E-002  0.2099581E+03  0.7546771E-02  0.1141599E+00
         21   -1    0    0  502  501  0.00000000000E+00  0.00000000000E+00  0.13404065618E+03  0.13404065618E+03  0.00000000000E+00 0.  1.
         21   -1    0    0  501  502 -0.00000000000E+00 -0.00000000000E+00 -0.32887325500E+03  0.32887325500E+03  0.00000000000E+00 0.  1.
         25    1    1    2    0    0  0.30363549163E+02  0.16401578897E+03 -0.69652922539E+02  0.21977182205E+03  0.12500000000E+03 0.  0.
         25    1    1    2    0    0 -0.30363549163E+02 -0.16401578897E+03 -0.12517967629E+03  0.24314208913E+03  0.12500000000E+03 0.  0.
</event>
<event>
 4    0  0.2225052E-002  0.2022076E+03  0.7546771E-02  0.1147890E+00
         21   -1    0    0  502  501  0.00000000000E+00  0.00000000000E+00  0.41028259587E+03  0.41028259587E+03  0.00000000000E+00 0. -1.
         21   -1    0    0  501  502 -0.00000000000E+00 -0.00000000000E+00 -0.99657900268E+02  0.99657900268E+02  0.00000000000E+00 0. -1.
         25    1    1    2    0    0 -0.39943868720E+02  0.10994284500E+03  0.19623040202E+02  0.17231658516E+03  0.12500000000E+03 0.  0.
         25    1    1    2    0    0  0.39943868720E+02 -0.10994284500E+03  0.29100165541E+03  0.33762391098E+03  0.12500000000E+03 0.  0.
</event>
<event>
 4    0  0.2225052E-002  0.3406614E+03  0.7546771E-02  0.1066515E+00
         21   -1    0    0  502  501  0.00000000000E+00  0.00000000000E+00  0.12634239439E+04  0.12634239439E+04  0.00000000000E+00 0.  1.
         21   -1    0    0  501  502 -0.00000000000E+00 -0.00000000000E+00 -0.91853742799E+02  0.91853742799E+02  0.00000000000E+00 0.  1.
         25    1    1    2    0    0  0.27216309613E+03 -0.16231509298E+03  0.59076906572E+03  0.68194723353E+03  0.12500000000E+03 0.  0.
         25    1    1    2    0    0 -0.27216309613E+03  0.16231509298E+03  0.58080113537E+03  0.67333045316E+03  0.12500000000E+03 0.  0.
</event>
<event>
 4    0  0.2225052E-002  0.3020624E+03  0.7546771E-02  0.1084214E+00
         21   -1    0    0  502  501  0.00000000000E+00  0.00000000000E+00  0.16929956237E+03  0.16929956237E+03  0.00000000000E+00 0.  1.
         21   -1    0    0  501  502 -0.00000000000E+00 -0.00000000000E+00 -0.53893634541E+03  0.53893634541E+03  0.00000000000E+00 0.  1.
         25    1    1    2    0    0  0.33890601635E+02  0.16220727313E+03 -0.44208334125E+03  0.48838760524E+03  0.12500000000E+03 0.  0.
         25    1    1    2    0    0 -0.33890601635E+02 -0.16220727313E+03  0.72446558208E+02  0.21984830254E+03  0.12500000000E+03 0.  0.
</event>
<event>
 4    0  0.2225052E-002  0.2277254E+03  0.7546771E-02  0.1128251E+00
         21   -1    0    0  502  501  0.00000000000E+00  0.00000000000E+00  0.60283096419E+03  0.60283096419E+03  0.00000000000E+00 0. -1.
         21   -1    0    0  501  502 -0.00000000000E+00 -0.00000000000E+00 -0.86025531900E+02  0.86025531900E+02  0.00000000000E+00 0. -1.
         25    1    1    2    0    0  0.43896981267E+02 -0.43200798608E+02  0.53081817253E+03  0.54880432420E+03  0.12500000000E+03 0.  0.
         25    1    1    2    0    0 -0.43896981267E+02  0.43200798608E+02 -0.14012740239E+02  0.14005217190E+03  0.12500000000E+03 0.  0.
</event>
<event>
 4    0  0.2225052E-002  0.2110100E+03  0.7546771E-02  0.1140769E+00
         21   -1    0    0  502  501  0.00000000000E+00  0.00000000000E+00  0.59896166498E+03  0.59896166498E+03  0.00000000000E+00 0.  1.
         21   -1    0    0  501  502 -0.00000000000E+00 -0.00000000000E+00 -0.74337363334E+02  0.74337363334E+02  0.00000000000E+00 0.  1.
         25    1    1    2    0    0 -0.99661271900E+02  0.13615605357E+03  0.29537203337E+03  0.36240926883E+03  0.12500000000E+03 0.  0.
         25    1    1    2    0    0  0.99661271900E+02 -0.13615605357E+03  0.22925226828E+03  0.31088975948E+03  0.12500000000E+03 0.  0.
</event>
<event>
 4    0  0.2225052E-002  0.2809946E+03  0.7546771E-02  0.1095147E+00
         21   -1    0    0  502  501  0.00000000000E+00  0.00000000000E+00  0.30905336036E+03  0.30905336036E+03  0.00000000000E+00 0. -1.
         21   -1    0    0  501  502 -0.00000000000E+00 -0.00000000000E+00 -0.25548330011E+03  0.25548330011E+03  0.00000000000E+00 0. -1.
         25    1    1    2    0    0  0.19870240420E+03  0.10787303598E+03  0.13780175437E+03  0.29280293857E+03  0.12500000000E+03 0.  0.
         25    1    1    2    0    0 -0.19870240420E+03 -0.10787303598E+03 -0.84231694121E+02  0.27173372190E+03  0.12500000000E+03 0.  0.
</event>
<event>
 4    0  0.2225052E-002  0.2208602E+03  0.7546771E-02  0.1133243E+00
         21   -1    0    0  502  501  0.00000000000E+00  0.00000000000E+00  0.49083688414E+02  0.49083688414E+02  0.00000000000E+00 0. -1.
         21   -1    0    0  501  502 -0.00000000000E+00 -0.00000000000E+00 -0.99379748221E+03  0.99379748221E+03  0.00000000000E+00 0. -1.
         25    1    1    2    0    0  0.12019509243E+03 -0.81349271046E+02 -0.21276285240E+03  0.28628237023E+03  0.12500000000E+03 0.  0.
         25    1    1    2    0    0 -0.12019509243E+03  0.81349271046E+02 -0.73195094140E+03  0.75659880040E+03  0.12500000000E+03 0.  0.
</event>
<event>
 4    0  0.2225052E-002  0.2429295E+03  0.7546771E-02  0.1117857E+00
         21   -1    0    0  502  501  0.00000000000E+00  0.00000000000E+00  0.91737796824E+02  0.91737796824E+02  0.00000000000E+00 0. -1.
         21   -1    0    0  501  502 -0.00000000000E+00 -0.00000000000E+00 -0.64329780886E+03  0.64329780886E+03  0.00000000000E+00 0. -1.
         25    1    1    2    0    0  0.79007026282E+01  0.37598025804E+02  0.33944911762E+02  0.13510473597E+03  0.12500000000E+03 0.  0.
         25    1    1    2    0    0 -0.79007026282E+01 -0.37598025804E+02 -0.58550492380E+03  0.59993086972E+03  0.12500000000E+03 0.  0.
</event>
<event>
 4    0  0.2225052E-002  0.2574458E+03  0.7546771E-02  0.1108688E+00
         21   -1    0    0  502  501  0.00000000000E+00  0.00000000000E+00  0.12245903404E+04  0.12245903404E+04  0.00000000000E+00 0. -1.
         21   -1    0    0  501  502 -0.00000000000E+00 -0.00000000000E+00 -0.54122875691E+02  0.54122875691E+02  0.00000000000E+00 0. -1.
         25    1    1    2    0    0 -0.22173133492E+03  0.37014298555E+02  0.55819848293E+03  0.61460994910E+03  0.12500000000E+03 0.  0.
         25    1    1    2    0    0  0.22173133492E+03 -0.37014298555E+02  0.61226898179E+03  0.66410326700E+03  0.12500000000E+03 0.  0.
</event>
<event>
 4    0  0.2225052E-002  0.1692673E+03  0.7546771E-02  0.1178614E+00
         21   -1    0    0  502  501  0.00000000000E+00  0.00000000000E+00  0.56187989065E+03  0.56187989065E+03  0.00000000000E+00 0. -1.
         21   -1    0    0  501  502 -0.00000000000E+00 -0.00000000000E+00 -0.50992076682E+02  0.50992076682E+02  0.00000000000E+00 0. -1.
         25    1    1    2    0    0 -0.16010863559E+02  0.20300336516E+02  0.45669592979E+03  0.47419892840E+03  0.12500000000E+03 0.  0.
         25    1    1    2    0    0  0.16010863559E+02 -0.20300336516E+02  0.54191884179E+02  0.13867303893E+03  0.12500000000E+03 0.  0.
</event>
<event>
 4    0  0.2225052E-002  0.1825320E+03  0.7546771E-02  0.1165375E+00
         21   -1    0    0  502  501  0.00000000000E+00  0.00000000000E+00  0.31775789046E+03  0.31775789046E+03  0.00000000000E+00 0.  1.
         21   -1    0    0  501  502 -0.00000000000E+00 -0.00000000000E+00 -0.10485321731E+03  0.10485321731E+03  0.00000000000E+00 0.  1.
         25    1    1    2    0    0  0.43345343526E+02 -0.78890675147E+01  0.25174312156E+03  0.28450071256E+03  0.12500000000E+03 0.  0.
         25    1    1    2    0    0 -0.43345343526E+02  0.78890675147E+01 -0.38838448417E+02  0.13811039522E+03  0.12500000000E+03 0.  0.
</event>
<event>
 4    0  0.2225052E-002  0.2190944E+03  0.7546771E-02  0.1134560E+00
         21   -1    0    0  502  501  0.00000000000E+00  0.00000000000E+00  0.67956291191E+02  0.67956291191E+02  0.00000000000E+00 0. -1.
         21   -1    0    0  501  502 -0.00000000000E+00 -0.00000000000E+00 -0.70637119366E+03  0.70637119366E+03  0.00000000000E+00 0. -1.
         25    1    1    2    0    0 -0.12314715098E+03 -0.95972433532E+01 -0.87992600356E+02  0.19653250518E+03  0.12500000000E+03 0.  0.
         25    1    1    2    0    0  0.12314715098E+03  0.95972433532E+01 -0.55042230211E+03  0.57779497967E+03  0.12500000000E+03 0.  0.
</event>
<event>
 4    0  0.2225052E-002  0.2166273E+03  0.7546771E-02  0.1136423E+00
         21   -1    0    0  502  501  0.00000000000E+00  0.00000000000E+00  0.37475418853E+02  0.37475418853E+02  0.00000000000E+00 0.  1.
         21   -1    0    0  501  502 -0.00000000000E+00 -0.00000000000E+00 -0.12522181024E+04  0.12522181024E+04  0.00000000000E+00 0.  1.
         25    1    1    2    0    0  0.84838366403E+02  0.99024779408E+02 -0.25141622008E+03  0.30957805328E+03  0.12500000000E+03 0.  0.
         25    1    1    2    0    0 -0.84838366403E+02 -0.99024779408E+02 -0.96332646342E+03  0.98011546793E+03  0.12500000000E+03 0.  0.
</event>
<event>
 4    0  0.2225052E-002  0.2029627E+03  0.7546771E-02  0.1147263E+00
         21   -1    0    0  502  501  0.00000000000E+00  0.00000000000E+00  0.18926806087E+03  0.18926806087E+03  0.00000000000E+00 0. -1.
         21   -1    0    0  501  502 -0.00000000000E+00 -0.00000000000E+00 -0.21764823364E+03  0.21764823364E+03  0.00000000000E+00 0. -1.
         25    1    1    2    0    0 -0.10612181962E+03  0.59485080401E+02 -0.11821499283E+03  0.21071331216E+03  0.12500000000E+03 0.  0.
         25    1    1    2    0    0  0.10612181962E+03 -0.59485080401E+02  0.89834820057E+02  0.19620298236E+03  0.12500000000E+03 0.  0.
</event>
<event>
 4    0  0.2225052E-002  0.2118799E+03  0.7546771E-02  0.1140086E+00
         21   -1    0    0  502  501  0.00000000000E+00  0.00000000000E+00  0.91006569538E+03  0.91006569538E+03  0.00000000000E+00 0.  1.
         21   -1    0    0  501  502 -0.00000000000E+00 -0.00000000000E+00 -0.49329495689E+02  0.49329495689E+02  0.00000000000E+00 0.  1.
         25    1    1    2    0    0  0.14740296942E+03 -0.72935735308E+02  0.32367532934E+03  0.38397653014E+03  0.12500000000E+03 0.  0.
         25    1    1    2    0    0 -0.14740296942E+03  0.72935735308E+02  0.53706087035E+03  0.57541866092E+03  0.12500000000E+03 0.  0.
</event>
<event>
 4    0  0.2225052E-002  0.2381298E+03  0.7546771E-02  0.1121045E+00
         21   -1    0    0  502  501  0.00000000000E+00  0.00000000000E+00  0.15976690313E+03  0.15976690313E+03  0.00000000000E+00 0.  1.
         21   -1    0    0  501  502 -0.00000000000E+00 -0.00000000000E+00 -0.35492838115E+03  0.35492838115E+03  0.00000000000E+00 0.  1.
         25    1    1    2    0    0 -0.13942135560E+03  0.10320782318E+03 -0.21087760457E+03  0.30030739797E+03  0.12500000000E+03 0.  0.
         25    1    1    2    0    0  0.13942135560E+03 -0.10320782318E+03  0.15716126556E+02  0.21438788631E+03  0.12500000000E+03 0.  0.
</event>
<event>
 4    0  0.2225052E-002  0.1870076E+03  0.7546771E-02  0.1161188E+00
         21   -1    0    0  502  501  0.00000000000E+00  0.00000000000E+00  0.48882616497E+02  0.48882616497E+02  0.00000000000E+00 0. -1.
         21   -1    0    0  501  502 -0.00000000000E+00 -0.00000000000E+00 -0.71542488513E+03  0.71542488513E+03  0.00000000000E+00 0.  1.
         25    1    1    2    0    0  0.13442667153E+03 -0.18526451374E+02 -0.39569325612E+03  0.43659124173E+03  0.12500000000E+03 0.  0.
         25    1    1    2    0    0 -0.13442667153E+03  0.18526451374E+02 -0.27084901251E+03  0.32771625989E+03  0.12500000000E+03 0.  0.
</event>
<event>
 4    0  0.2225052E-002  0.1781394E+03  0.7546771E-02  0.1169616E+00
         21   -1    0    0  502  501  0.00000000000E+00  0.00000000000E+00  0.25409645741E+03  0.25409645741E+03  0.00000000000E+00 0. -1.
         21   -1    0    0  501  502 -0.00000000000E+00 -0.00000000000E+00 -0.12488813174E+03  0.12488813174E+03  0.00000000000E+00 0. -1.
         25    1    1    2    0    0  0.92332376318E+02  0.36254359991E+02 -0.19618757952E+02  0.16077792758E+03  0.12500000000E+03 0.  0.
         25    1    1    2    0    0 -0.92332376318E+02 -0.36254359991E+02  0.14882708361E+03  0.21820666157E+03  0.12500000000E+03 0.  0.
</event>
<event>
 4    0  0.2225052E-002  0.1535642E+03  0.7546771E-02  0.1196160E+00
         21   -1    0    0  502  501  0.00000000000E+00  0.00000000000E+00  0.19865582683E+03  0.19865582683E+03  0.00000000000E+00 0.  1.
         21   -1    0    0  501  502 -0.00000000000E+00 -0.00000000000E+00 -0.11870769331E+03  0.11870769331E+03  0.00000000000E+00 0.  1.
         25    1    1    2    0    0  0.49971967864E+02 -0.49299443987E+02 -0.16899581853E+02  0.14435452406E+03  0.12500000000E+03 0.  0.
         25    1    1    2    0    0 -0.49971967864E+02  0.49299443987E+02  0.96847715375E+02  0.17300899608E+03  0.12500000000E+03 0.  0.
</event>
<event>
 4    0  0.2225052E-002  0.1881473E+03  0.7546771E-02  0.1160143E+00
         21   -1    0    0  502  501  0.00000000000E+00  0.00000000000E+00  0.11666070473E+04  0.11666070473E+04  0.00000000000E+00 0.  1.
         21   -1    0    0  501  502 -0.00000000000E+00 -0.00000000000E+00 -0.30343910738E+02  0.30343910738E+02  0.00000000000E+00 0.  1.
         25    1    1    2    0    0 -0.10686671755E+02  0.12038489614E+03  0.79679493593E+03  0.81554515393E+03  0.12500000000E+03 0.  0.
         25    1    1    2    0    0  0.10686671755E+02 -0.12038489614E+03  0.33946820067E+03  0.38140580415E+03  0.12500000000E+03 0.  0.
</event>
<event>
 4    0  0.2225052E-002  0.2508348E+03  0.7546771E-02  0.1112778E+00
         21   -1    0    0  502  501  0.00000000000E+00  0.00000000000E+00  0.88643505576E+02  0.88643505576E+02  0.00000000000E+00 0. -1.
         21   -1    0    0  501  502 -0.00000000000E+00 -0.00000000000E+00 -0.70978790447E+03  0.70978790447E+03  0.00000000000E+00 0. -1.
         25    1    1    2    0    0 -0.14012628234E+03  0.50312774123E+02 -0.56285314890E+03  0.59547914948E+03  0.12500000000E+03 0.  0.
         25    1    1    2    0    0  0.14012628234E+03 -0.50312774123E+02 -0.58291250000E+02  0.20295226057E+03  0.12500000000E+03 0.  0.
</event>
<event>
 4    0  0.2225052E-002  0.2286234E+03  0.7546771E-02  0.1127612E+00
         21   -1    0    0  502  501  0.00000000000E+00  0.00000000000E+00  0.13856067549E+03  0.13856067549E+03  0.00000000000E+00 0. -1.
         21   -1    0    0  501  502 -0.00000000000E+00 -0.00000000000E+00 -0.37722592453E+03  0.37722592453E+03  0.00000000000E+00 0. -1.
         25    1    1    2    0    0 -0.63129516272E+02  0.17952105150E+03 -0.14273843102E+03  0.26872365628E+03  0.12500000000E+03 0.  0.
         25    1    1    2    0    0  0.63129516272E+02 -0.17952105150E+03 -0.95926818023E+02  0.24706294374E+03  0.12500000000E+03 0.  0.
</event>
<event>
 4    0  0.2225052E-002  0.1705800E+03  0.7546771E-02  0.1177244E+00
         21   -1    0    0  502  501  0.00000000000E+00  0.00000000000E+00  0.95634183048E+02  0.95634183048E+02  0.00000000000E+00 0. -1.
         21   -1    0    0  501  502 -0.00000000000E+00 -0.00000000000E+00 -0.30425889938E+03  0.30425889938E+03  0.00000000000E+00 0. -1.
         25    1    1    2    0    0  0.27391958161E+02 -0.50809001701E+02  0.13724911456E+02  0.13836635147E+03  0.12500000000E+03 0.  0.
         25    1    1    2    0    0 -0.27391958161E+02  0.50809001701E+02 -0.22234962779E+03  0.26152673096E+03  0.12500000000E+03 0.  0.
</event>
<event>
 4    0  0.2225052E-002  0.1601933E+03  0.7546771E-02  0.1188479E+00
         21   -1    0    0  502  501  0.00000000000E+00  0.00000000000E+00  0.35423004880E+03  0.35423004880E+03  0.00000000000E+00 0. -1.
         21   -1    0    0  501  502 -0.00000000000E+00 -0.00000000000E+00 -0.72444125505E+02  0.72444125505E+02  0.00000000000E+00 0. -1.
         25    1    1    2    0    0  0.75907600705E+02  0.69593523748E+01  0.22747184516E+03  0.27051587157E+03  0.12500000000E+03 0.  0.
         25    1    1    2    0    0 -0.75907600705E+02 -0.69593523748E+01  0.54314078137E+02  0.15615830274E+03  0.12500000000E+03 0.  0.
</event>
<event>
 4    0  0.2225052E-002  0.2257470E+03  0.7546771E-02  0.1129670E+00
         21   -1    0    0  502  501  0.00000000000E+00  0.00000000000E+00  0.12174578239E+03  0.12174578239E+03  0.00000000000E+00 0.  1.
         21   -1    0    0  501  502 -0.00000000000E+00 -0.00000000000E+00 -0.41859116767E+03  0.41859116767E+03  0.00000000000E+00 0.  1.
         25    1    1    2    0    0 -0.16466848828E+03  0.90595239772E+02 -0.15282004184E+03  0.27258425063E+03  0.12500000000E+03 0.  0.
         25    1    1    2    0    0  0.16466848828E+03 -0.90595239772E+02 -0.14402534344E+03  0.26775269943E+03  0.12500000000E+03 0.  0.
</event>
<event>
 4    0  0.2225052E-002  0.2543049E+03  0.7546771E-02  0.1110614E+00
         21   -1    0    0  502  501  0.00000000000E+00  0.00000000000E+00  0.42162884392E+02  0.42162884392E+02  0.00000000000E+00 0. -1.
         21   -1    0    0  501  502 -0.00000000000E+00 -0.00000000000E+00 -0.15338366412E+04  0.15338366412E+04  0.00000000000E+00 0. -1.
         25    1    1    2    0    0  0.10756835651E+03  0.16165692507E+03 -0.41583422859E+03  0.47565430558E+03  0.12500000000E+03 0.  0.
         25    1    1    2    0    0 -0.10756835651E+03 -0.16165692507E+03 -0.10758395282E+04  0.11003452200E+04  0.12500000000E+03 0.  0.
</event>
<event>
 4    0  0.2225052E-002  0.1590707E+03  0.7546771E-02  0.1189750E+00
         21   -1    0    0  502  501  0.00000000000E+00  0.00000000000E+00  0.23037888475E+03  0.23037888475E+03  0.00000000000E+00 0.  1.
         21   -1    0    0  501  502 -0.00000000000E+00 -0.00000000000E+00 -0.10983428114E+03  0.10983428114E+03  0.00000000000E+00 0.  1.
         25    1    1    2    0    0  0.40554243983E+02 -0.19906424710E+02  0.15372867149E+03  0.20322011930E+03  0.12500000000E+03 0.  0.
         25    1    1    2    0    0 -0.40554243983E+02  0.19906424710E+02 -0.33184067883E+02  0.13699304658E+03  0.12500000000E+03 0.  0.
</event>
<event>
 4    0  0.2225052E-002  0.2212569E+03  0.7546771E-02  0.1132949E+00
         21   -1    0    0  502  501  0.00000000000E+00  0.00000000000E+00  0.14769390516E+03  0.14769390516E+03  0.00000000000E+00 0. -1.
         21   -1    0    0  501  502 -0.00000000000E+00 -0.00000000000E+00 -0.33146010884E+03  0.33146010884E+03  0.00000000000E+00 0. -1.
         25    1    1    2    0    0  0.49182865279E+02 -0.14769499194E+02  0.97815735121E+02  0.16682329088E+03  0.12500000000E+03 0.  0.
         25    1    1    2    0    0 -0.49182865279E+02  0.14769499194E+02 -0.28158193880E+03  0.31233072311E+03  0.12500000000E+03 0.  0.
</event>
<event>
 4    0  0.2225052E-002  0.2972535E+03  0.7546771E-02  0.1086622E+00
         21   -1    0    0  502  501  0.00000000000E+00  0.00000000000E+00  0.98543450540E+03  0.98543450540E+03  0.00000000000E+00 0.  1.
         21   -1    0    0  501  502 -0.00000000000E+00 -0.00000000000E+00 -0.89665691578E+02  0.89665691578E+02  0.00000000000E+00 0.  1.
         25    1    1    2    0    0 -0.13883646608E+03 -0.16272752960E+03  0.15085212296E+03  0.29006408982E+03  0.12500000000E+03 0.  0.
         25    1    1    2    0    0  0.13883646608E+03  0.16272752960E+03  0.74491669087E+03  0.78503610716E+03  0.12500000000E+03 0.  0.
</event>
<event>
 4    0  0.2225052E-002  0.2863044E+03  0.7546771E-02  0.1092295E+00
         21   -1    0    0  502  501  0.00000000000E+00  0.00000000000E+00  0.67755390376E+02  0.67755390376E+02  0.00000000000E+00 0.  1.
         21   -1    0    0  501  502 -0.00000000000E+00 -0.00000000000E+00 -0.12097961748E+04  0.12097961748E+04  0.00000000000E+00 0.  1.
         25    1    1    2    0    0  0.19289901743E+03 -0.76040944374E+02 -0.91197090144E+03  0.94356143479E+03  0.12500000000E+03 0.  0.
         25    1    1    2    0    0 -0.19289901743E+03  0.76040944374E+02 -0.23006988302E+03  0.33399013042E+03  0.12500000000E+03 0.  0.
</event>
<event>
 4    0  0.2225052E-002  0.2391417E+03  0.7546771E-02  0.1120366E+00
         21   -1    0    0  502  501  0.00000000000E+00  0.00000000000E+00  0.10329390783E+04  0.10329390783E+04  0.00000000000E+00 0.  1.
         21   -1    0    0  501  502 -0.00000000000E+00 -0.00000000000E+00 -0.55365080758E+02  0.55365080758E+02  0.00000000000E+00 0.  1.
         25    1    1    2    0    0 -0.18567574165E+02  0.18525862972E+03  0.67777496236E+03  0.71391134905E+03  0.12500000000E+03 0.  0.
         25    1    1    2    0    0  0.18567574165E+02 -0.18525862972E+03  0.29979903520E+03  0.37439281003E+03  0.12500000000E+03 0.  0.
</event>
<event>
 4    0  0.2225052E-002  0.2057896E+03  0.7546771E-02  0.1144944E+00
         21   -1    0    0  502  501  0.00000000000E+00  0.00000000000E+00  0.33915638638E+03  0.33915638638E+03  0.00000000000E+00 0. -1.
         21   -1    0    0  501  502 -0.00000000000E+00 -0.00000000000E+00 -0.12486673218E+03  0.12486673218E+03  0.00000000000E+00 0. -1.
         25    1    1    2    0    0  0.10243325620E+03  0.12294092411E+03  0.69459483074E+02  0.21460816058E+03  0.12500000000E+03 0.  0.
         25    1    1    2    0    0 -0.10243325620E+03 -0.12294092411E+03  0.14483017113E+03  0.24941495799E+03  0.12500000000E+03 0.  0.
</event>
<event>
 4    0  0.2225052E-002  0.2653825E+03  0.7546771E-02  0.1103952E+00
         21   -1    0    0  502  501  0.00000000000E+00  0.00000000000E+00  0.79055241347E+03  0.79055241347E+03  0.00000000000E+00 0. -1.
         21   -1    0    0  501  502 -0.00000000000E+00 -0.00000000000E+00 -0.89086907607E+02  0.89086907607E+02  0.00000000000E+00 0. -1.
         25    1    1    2    0    0  0.69628320709E+02  0.22144649543E+03  0.40089782047E+03  0.47982362993E+03  0.12500000000E+03 0.  0.
         25    1    1    2    0    0 -0.69628320709E+02 -0.22144649543E+03  0.30056768540E+03  0.39981569115E+03  0.12500000000E+03 0.  0.
</event>
<event>
 4    0  0.2225052E-002  0.3808064E+03  0.7546771E-02  0.1050636E+00
         21   -1    0    0  502  501  0.00000000000E+00  0.00000000000E+00  0.72745311183E+03  0.72745311183E+03  0.00000000000E+00 0. -1.
         21   -1    0    0  501  502 -0.00000000000E+00 -0.00000000000E+00 -0.19934409382E+03  0.19934409382E+03  0.00000000000E+00 0. -1.
         25    1    1    2    0    0  0.10971277023E+03 -0.67696575305E+00  0.68091829704E+03  0.70093657165E+03  0.12500000000E+03 0.  0.
         25    1    1    2    0    0 -0.10971277023E+03  0.67696575305E+00 -0.15280927903E+03  0.22586063400E+03  0.12500000000E+03 0.  0.
</event>
<event>
 4    0  0.2225052E-002  0.2104254E+03  0.7546771E-02  0.1141230E+00
         21   -1    0    0  502  501  0.00000000000E+00  0.00000000000E+00  0.31182986212E+02  0.31182986212E+02  0.00000000000E+00 0. -1.
         21   -1    0    0  501  502 -0.00000000000E+00 -0.00000000000E+00 -0.14199681252E+04  0.14199681252E+04  0.00000000000E+00 0. -1.
         25    1    1    2    0    0  0.13282781455E+03 -0.35000890614E+02 -0.10354890537E+04  0.10520127713E+04  0.12500000000E+03 0.  0.
         25    1    1    2    0    0 -0.13282781455E+03  0.35000890614E+02 -0.35329608530E+03  0.39913834012E+03  0.12500000000E+03 0.  0.
</event>
<event>
 4    0  0.2225052E-002  0.2070108E+03  0.7546771E-02  0.1143955E+00
         21   -1    0    0  502  501  0.00000000000E+00  0.00000000000E+00  0.12098998138E+04  0.12098998138E+04  0.00000000000E+00 0. -1.
         21   -1    0    0  501  502 -0.00000000000E+00 -0.00000000000E+00 -0.35419022093E+02  0.35419022093E+02  0.00000000000E+00 0. -1.
         25    1    1    2    0    0  0.16396694424E+03  0.10471895275E+02  0.63321726446E+03  0.66602096319E+03  0.12500000000E+03 0.  0.
         25    1    1    2    0    0 -0.16396694424E+03 -0.10471895275E+02  0.54126352726E+03  0.57929787272E+03  0.12500000000E+03 0.  0.
</event>
<event>
 4    0  0.2225052E-002  0.2028227E+03  0.7546771E-02  0.1147379E+00
         21   -1    0    0  502  501  0.00000000000E+00  0.00000000000E+00  0.43735229655E+02  0.43735229655E+02  0.00000000000E+00 0.  1.
         21   -1    0    0  501  502 -0.00000000000E+00 -0.00000000000E+00 -0.94059266902E+03  0.94059266902E+03  0.00000000000E+00 0.  1.
         25    1    1    2    0    0 -0.68771103855E+02 -0.32834702381E+02 -0.10780451875E+03  0.18180868150E+03  0.12500000000E+03 0.  0.
         25    1    1    2    0    0  0.68771103855E+02  0.32834702381E+02 -0.78905292061E+03  0.80251921717E+03  0.12500000000E+03 0.  0.
</event>
<event>
 4    0  0.2225052E-002  0.1983060E+03  0.7546771E-02  0.1151176E+00
         21   -1    0    0  502  501  0.00000000000E+00  0.00000000000E+00  0.31405471483E+03  0.31405471483E+03  0.00000000000E+00 0. -1.
         21   -1    0    0  501  502 -0.00000000000E+00 -0.00000000000E+00 -0.12521786793E+03  0.12521786793E+03  0.00000000000E+00 0. -1.
         25    1    1    2    0    0  0.66416638511E+02  0.12200532540E+03  0.16791747160E+03  0.25123245524E+03  0.12500000000E+03 0.  0.
         25    1    1    2    0    0 -0.66416638511E+02 -0.12200532540E+03  0.20919375295E+02  0.18804012753E+03  0.12500000000E+03 0.  0.
</event>
<event>
 4    0  0.2225052E-002  0.1449736E+03  0.7546771E-02  0.1206789E+00
         21   -1    0    0  502  501  0.00000000000E+00  0.00000000000E+00  0.17842478750E+02  0.17842478750E+02  0.00000000000E+00 0.  1.
         21   -1    0    0  501  502 -0.00000000000E+00 -0.00000000000E+00 -0.11779391281E+04  0.11779391281E+04  0.00000000000E+00 0.  1.
         25    1    1    2    0    0  0.38651468627E+02 -0.19294366907E+02 -0.33515161312E+03  0.36030239022E+03  0.12500000000E+03 0.  0.
         25    1    1    2    0    0 -0.38651468627E+02  0.19294366907E+02 -0.82494503621E+03  0.83547921661E+03  0.12500000000E+03 0.  0.
</event>
<event>
 4    0  0.2225052E-002  0.1948926E+03  0.7546771E-02  0.1154121E+00
         21   -1    0    0  502  501  0.00000000000E+00  0.00000000000E+00  0.30367639249E+02  0.30367639249E+02  0.00000000000E+00 0. -1.
         21   -1    0    0  501  502 -0.00000000000E+00 -0.00000000000E+00 -0.12507761262E+04  0.12507761262E+04  0.00000000000E+00 0. -1.
         25    1    1    2    0    0 -0.19189610618E+01  0.73227055824E+02 -0.10386519331E+04  0.10487081206E+04  0.12500000000E+03 0.  0.
         25    1    1    2    0    0  0.19189610618E+01 -0.73227055824E+02 -0.18175655381E+03  0.23243564479E+03  0.12500000000E+03 0.  0.
</event>
<event>
 4    0  0.2225052E-002  0.1940448E+03  0.7546771E-02  0.1154863E+00
         21   -1    0    0  502  501  0.00000000000E+00  0.00000000000E+00  0.44513529726E+03  0.44513529726E+03  0.00000000000E+00 0. -1.
         21   -1    0    0  501  502 -0.00000000000E+00 -0.00000000000E+00 -0.84588603294E+02  0.84588603294E+02  0.00000000000E+00 0. -1.
         25    1    1    2    0    0  0.72725472716E+02  0.61731567171E+02  0.25072799418E+02  0.15922759195E+03  0.12500000000E+03 0.  0.
         25    1    1    2    0    0 -0.72725472716E+02 -0.61731567171E+02  0.33547389455E+03  0.37049630861E+03  0.12500000000E+03 0.  0.
</event>
<event>
 4    0  0.2225052E-002  0.2335024E+03  0.7546771E-02  0.1124199E+00
         21   -1    0    0  502  501  0.00000000000E+00  0.00000000000E+00  0.52739883841E+03  0.52739883841E+03  0.00000000000E+00 0. -1.
         21   -1    0    0  501  502 -0.00000000000E+00 -0.00000000000E+00 -0.10338164014E+03  0.10338164014E+03  0.00000000000E+00 0. -1.
         25    1    1    2    0    0 -0.48990683389E+02 -0.15574990872E+03  0.62573764502E+02  0.21493858921E+03  0.12500000000E+03 0.  0.
         25    1    1    2    0    0  0.48990683389E+02  0.15574990872E+03  0.36144343377E+03  0.41584188935E+03  0.12500000000E+03 0.  0.
</event>
<event>
 4    0  0.2225052E-002  0.1820706E+03  0.7546771E-02  0.1165814E+00
         21   -1    0    0  502  501  0.00000000000E+00  0.00000000000E+00  0.51627604208E+02  0.51627604208E+02  0.00000000000E+00 0.  1.
         21   -1    0    0  501  502 -0.00000000000E+00 -0.00000000000E+00 -0.64209246926E+03  0.64209246926E+03  0.00000000000E+00 0.  1.
         25    1    1    2    0    0  0.82390848294E+02 -0.45923554238E+02 -0.47218474784E+03  0.49747428155E+03  0.12500000000E+03 0.  0.
         25    1    1    2    0    0 -0.82390848294E+02  0.45923554238E+02 -0.11828011722E+03  0.19624579192E+03  0.12500000000E+03 0.  0.
</event>
<event>
 4    0  0.2225052E-002  0.2261013E+03  0.7546771E-02  0.1129414E+00
         21   -1    0    0  502  501  0.00000000000E+00  0.00000000000E+00  0.45827564328E+03  0.45827564328E+03  0.00000000000E+00 0.  1.
         21   -1    0    0  501  502 -0.00000000000E+00 -0.00000000000E+00 -0.11155247688E+03  0.11155247688E+03  0.00000000000E+00 0.  1.
         25    1    1    2    0    0 -0.88511829456E+02 -0.16462875768E+03  0.14354679610E+03  0.26677266441E+03  0.12500000000E+03 0.  0.
         25    1    1    2    0    0  0.88511829456E+02  0.16462875768E+03  0.20317637030E+03  0.30305545575E+03  0.12500000000E+03 0.  0.
</event>
<event>
 4    0  0.2225052E-002  0.2025274E+03  0.7546771E-02  0.1147624E+00
         21   -1    0    0  502  501  0.00000000000E+00  0.00000000000E+00  0.11699422916E+03  0.11699422916E+03  0.00000000000E+00 0.  1.
         21   -1    0    0  501  502 -0.00000000000E+00 -0.00000000000E+00 -0.35059275461E+03  0.35059275461E+03  0.00000000000E+00 0.  1.
         25    1    1    2    0    0  0.92955988351E+02 -0.12708515627E+03 -0.88502204532E+02  0.21965676161E+03  0.12500000000E+03 0.  0.
         25    1    1    2    0    0 -0.92955988351E+02  0.12708515627E+03 -0.14509632092E+03  0.24793022216E+03  0.12500000000E+03 0.  0.
</event>
<event>
 4    0  0.2225052E-002  0.1877096E+03  0.7546771E-02  0.1160543E+00
         21   -1    0    0  502  501  0.00000000000E+00  0.00000000000E+00  0.13814979997E+03  0.13814979997E+03  0.00000000000E+00 0. -1.
         21   -1    0    0  501  502 -0.00000000000E+00 -0.00000000000E+00 -0.25504856870E+03  0.25504856870E+03  0.00000000000E+00 0. -1.
         25    1    1    2    0    0  0.12210587340E+03  0.68415163688E+02 -0.53832708314E+02  0.19522663605E+03  0.12500000000E+03 0.  0.
         25    1    1    2    0    0 -0.12210587340E+03 -0.68415163688E+02 -0.63066060415E+02  0.19797173262E+03  0.12500000000E+03 0.  0.
</event>
<event>
 4    0  0.2225052E-002  0.3397420E+03  0.7546771E-02  0.1066906E+00
         21   -1    0    0  502  501  0.00000000000E+00  0.00000000000E+00  0.52524687031E+03  0.52524687031E+03  0.00000000000E+00 0.  1.
         21   -1    0    0  501  502 -0.00000000000E+00 -0.00000000000E+00 -0.21975305008E+03  0.21975305008E+03  0.00000000000E+00 0.  1.
         25    1    1    2    0    0 -0.21897754093E+03 -0.19985336902E+03  0.33106063381E+02  0.32344017062E+03  0.12500000000E+03 0.  0.
         25    1    1    2    0    0  0.21897754093E+03  0.19985336902E+03  0.27238775686E+03  0.42155974977E+03  0.12500000000E+03 0.  0.
</event>
<event>
 4    0  0.2225052E-002  0.2971330E+03  0.7546771E-02  0.1086683E+00
         21   -1    0    0  502  501  0.00000000000E+00  0.00000000000E+00  0.15584863113E+03  0.15584863113E+03  0.00000000000E+00 0. -1.
         21   -1    0    0  501  502 -0.00000000000E+00 -0.00000000000E+00 -0.56649847860E+03  0.56649847860E+03  0.00000000000E+00 0. -1.
         25    1    1    2    0    0 -0.14246005610E+03 -0.16096481278E+03 -0.76063499308E+01  0.24877177311E+03  0.12500000000E+03 0.  0.
         25    1    1    2    0    0  0.14246005610E+03  0.16096481278E+03 -0.40304349754E+03  0.47357533661E+03  0.12500000000E+03 0.  0.
</event>
<event>
 4    0  0.2225052E-002  0.4526918E+03  0.7546771E-02  0.1026922E+00
         21   -1    0    0  502  501  0.00000000000E+00  0.00000000000E+00  0.13383997612E+03  0.13383997612E+03  0.00000000000E+00 0. -1.
         21   -1    0    0  501  502 -0.00000000000E+00 -0.00000000000E+00 -0.15311555941E+04  0.15311555941E+04  0.00000000000E+00 0. -1.
         25    1    1    2    0    0 -0.22736927882E+03  0.97729687652E+01 -0.16709224446E+02  0.26018550700E+03  0.12500000000E+03 0.  0.
         25    1    1    2    0    0  0.22736927882E+03 -0.97729687652E+01 -0.13806063935E+04  0.14048100632E+04  0.12500000000E+03 0.  0.
</event>
<event>
 4    0  0.2225052E-002  0.2819229E+03  0.7546771E-02  0.1094643E+00
         21   -1    0    0  502  501  0.00000000000E+00  0.00000000000E+00  0.28265666311E+02  0.28265666311E+02  0.00000000000E+00 0.  1.
         21   -1    0    0  501  502 -0.00000000000E+00 -0.00000000000E+00 -0.28119109694E+04  0.28119109694E+04  0.00000000000E+00 0. -1.
         25    1    1    2    0    0  0.78319021096E+02 -0.23104543298E+03 -0.17236510957E+04  0.17453119952E+04  0.12500000000E+03 0.  0.
         25    1    1    2    0    0 -0.78319021096E+02  0.23104543298E+03 -0.10599942074E+04  0.10948646405E+04  0.12500000000E+03 0.  0.
</event>
<event>
 4    0  0.2225052E-002  0.2159293E+03  0.7546771E-02  0.1136955E+00
         21   -1    0    0  502  501  0.00000000000E+00  0.00000000000E+00  0.12874207487E+04  0.12874207487E+04  0.00000000000E+00 0. -1.
         21   -1    0    0  501  502 -0.00000000000E+00 -0.00000000000E+00 -0.36216184995E+02  0.36216184995E+02  0.00000000000E+00 0. -1.
         25    1    1    2    0    0  0.10915861948E+03  0.13803112668E+03  0.64301390621E+03  0.67827728822E+03  0.12500000000E+03 0.  0.
         25    1    1    2    0    0 -0.10915861948E+03 -0.13803112668E+03  0.60819065748E+03  0.64535964545E+03  0.12500000000E+03 0.  0.
</event>
<event>
 4    0  0.2225052E-002  0.2064097E+03  0.7546771E-02  0.1144441E+00
         21   -1    0    0  502  501  0.00000000000E+00  0.00000000000E+00  0.20345249869E+02  0.20345249869E+02  0.00000000000E+00 0. -1.
         21   -1    0    0  501  502 -0.00000000000E+00 -0.00000000000E+00 -0.20940983244E+04  0.20940983244E+04  0.00000000000E+00 0. -1.
         25    1    1    2    0    0  0.16024280003E+03  0.16464058390E+02 -0.12013491153E+04  0.12185292434E+04  0.12500000000E+03 0.  0.
         25    1    1    2    0    0 -0.16024280003E+03 -0.16464058390E+02 -0.87240395927E+03  0.89591433091E+03  0.12500000000E+03 0.  0.
</event>
<event>
 4    0  0.2225052E-002  0.2431946E+03  0.7546771E-02  0.1117683E+00
         21   -1    0    0  502  501  0.00000000000E+00  0.00000000000E+00  0.45126817211E+02  0.45126817211E+02  0.00000000000E+00 0. -1.
         21   -1    0    0  501  502 -0.00000000000E+00 -0.00000000000E+00 -0.13106095050E+04  0.13106095050E+04  0.00000000000E+00 0. -1.
         25    1    1    2    0    0  0.14427559462E+03 -0.74809385722E+02 -0.99730628991E+03  0.10181634089E+04  0.12500000000E+03 0.  0.
         25    1    1    2    0    0 -0.14427559462E+03  0.74809385722E+02 -0.26817639785E+03  0.33757291325E+03  0.12500000000E+03 0.  0.
</event>
<event>
 4    0  0.2225052E-002  0.2612613E+03  0.7546771E-02  0.1106388E+00
         21   -1    0    0  502  501  0.00000000000E+00  0.00000000000E+00  0.77517112423E+02  0.77517112423E+02  0.00000000000E+00 0.  1.
         21   -1    0    0  501  502 -0.00000000000E+00 -0.00000000000E+00 -0.88054686320E+03  0.88054686320E+03  0.00000000000E+00 0.  1.
         25    1    1    2    0    0  0.22091659504E+03  0.55474814642E+02 -0.45175688376E+03  0.52114381801E+03  0.12500000000E+03 0.  0.
         25    1    1    2    0    0 -0.22091659504E+03 -0.55474814642E+02 -0.35127286702E+03  0.43692015761E+03  0.12500000000E+03 0.  0.
</event>
<event>
 4    0  0.2225052E-002  0.2258349E+03  0.7546771E-02  0.1129606E+00
         21   -1    0    0  502  501  0.00000000000E+00  0.00000000000E+00  0.61411506971E+03  0.61411506971E+03  0.00000000000E+00 0.  1.
         21   -1    0    0  501  502 -0.00000000000E+00 -0.00000000000E+00 -0.83048606786E+02  0.83048606786E+02  0.00000000000E+00 0.  1.
         25    1    1    2    0    0 -0.62640568503E+02  0.59322078954E+02  0.52350726860E+03  0.54509431307E+03  0.12500000000E+03 0.  0.
         25    1    1    2    0    0  0.62640568503E+02 -0.59322078954E+02  0.75591943331E+01  0.15206936343E+03  0.12500000000E+03 0.  0.
</event>
<event>
 4    0  0.2225052E-002  0.2173753E+03  0.7546771E-02  0.1135855E+00
         21   -1    0    0  502  501  0.00000000000E+00  0.00000000000E+00  0.45923876746E+02  0.45923876746E+02  0.00000000000E+00 0.  1.
         21   -1    0    0  501  502 -0.00000000000E+00 -0.00000000000E+00 -0.10289207182E+04  0.10289207182E+04  0.00000000000E+00 0.  1.
         25    1    1    2    0    0 -0.32472891292E+02  0.16445089307E+03 -0.34464061731E+03  0.40311380527E+03  0.12500000000E+03 0.  0.
         25    1    1    2    0    0  0.32472891292E+02 -0.16445089307E+03 -0.63835622419E+03  0.67173078972E+03  0.12500000000E+03 0.  0.
</event>
<event>
 4    0  0.2225052E-002  0.2241468E+03  0.7546771E-02  0.1130829E+00
         21   -1    0    0  502  501  0.00000000000E+00  0.00000000000E+00  0.20516306073E+03  0.20516306073E+03  0.00000000000E+00 0.  1.
         21   -1    0    0  501  502 -0.00000000000E+00 -0.00000000000E+00 -0.24488715172E+03  0.24488715172E+03  0.00000000000E+00 0.  1.
         25    1    1    2    0    0 -0.30011715508E+02 -0.17527650814E+03  0.35072016027E+02  0.22017630136E+03  0.12500000000E+03 0.  0.
         25    1    1    2    0    0  0.30011715508E+02  0.17527650814E+03 -0.74796107021E+02  0.22987391109E+03  0.12500000000E+03 0.  0.
</event>
<event>
 4    0  0.2225052E-002  0.1789578E+03  0.7546771E-02  0.1168816E+00
         21   -1    0    0  502  501  0.00000000000E+00  0.00000000000E+00  0.48685515053E+03  0.48685515053E+03  0.00000000000E+00 0. -1.
         21   -1    0    0  501  502 -0.00000000000E+00 -0.00000000000E+00 -0.65781126655E+02  0.65781126655E+02  0.00000000000E+00 0. -1.
         25    1    1    2    0    0  0.18950668256E+02  0.11285693672E+03  0.12177056949E+03  0.20868370225E+03  0.12500000000E+03 0.  0.
         25    1    1    2    0    0 -0.18950668256E+02 -0.11285693672E+03  0.29930345439E+03  0.34395257493E+03  0.12500000000E+03 0.  0.
</event>
<event>
 4    0  0.2225052E-002  0.2130055E+03  0.7546771E-02  0.1139208E+00
         21   -1    0    0  502  501  0.00000000000E+00  0.00000000000E+00  0.14422906198E+04  0.14422906198E+04  0.00000000000E+00 0.  1.
         21   -1    0    0  501  502 -0.00000000000E+00 -0.00000000000E+00 -0.31457832211E+02  0.31457832211E+02  0.00000000000E+00 0.  1.
         25    1    1    2    0    0  0.13018427116E+03  0.13434193233E+02  0.31682214583E+03  0.36486942060E+03  0.12500000000E+03 0.  0.
         25    1    1    2    0    0 -0.13018427116E+03 -0.13434193233E+02  0.10940106418E+04  0.11088790314E+04  0.12500000000E+03 0.  0.
</event>
<event>
 4    0  0.2225052E-002  0.2287475E+03  0.7546771E-02  0.1127524E+00
         21   -1    0    0  502  501  0.00000000000E+00  0.00000000000E+00  0.70233646103E+03  0.70233646103E+03  0.00000000000E+00 0. -1.
         21   -1    0    0  501  502 -0.00000000000E+00 -0.00000000000E+00 -0.74501941914E+02  0.74501941914E+02  0.00000000000E+00 0. -1.
         25    1    1    2    0    0  0.19189138462E+02 -0.15055230015E+01 -0.97335003115E+01  0.12684727298E+03  0.12500000000E+03 0.  0.
         25    1    1    2    0    0 -0.19189138462E+02  0.15055230015E+01  0.63756801943E+03  0.64999112996E+03  0.12500000000E+03 0.  0.
</event>
<event>
 4    0  0.2225052E-002  0.1874997E+03  0.7546771E-02  0.1160736E+00
         21   -1    0    0  502  501  0.00000000000E+00  0.00000000000E+00  0.81236503057E+03  0.81236503057E+03  0.00000000000E+00 0.  1.
         21   -1    0    0  501  502 -0.00000000000E+00 -0.00000000000E+00 -0.43276282837E+02  0.43276282837E+02  0.00000000000E+00 0.  1.
         25    1    1    2    0    0 -0.89675329167E+02  0.22229382077E+02  0.14528703176E+03  0.21276543818E+03  0.12500000000E+03 0.  0.
         25    1    1    2    0    0  0.89675329167E+02 -0.22229382077E+02  0.62380171597E+03  0.64287587522E+03  0.12500000000E+03 0.  0.
</event>
<event>
 4    0  0.2225052E-002  0.1896009E+03  0.7546771E-02  0.1158822E+00
         21   -1    0    0  502  501  0.00000000000E+00  0.00000000000E+00  0.63151532146E+02  0.63151532146E+02  0.00000000000E+00 0. -1.
         21   -1    0    0  501  502 -0.00000000000E+00 -0.00000000000E+00 -0.56924213003E+03  0.56924213003E+03  0.00000000000E+00 0. -1.
         25    1    1    2    0    0 -0.82031534020E+02 -0.11141408068E+02 -0.44660022060E+03  0.47109453466E+03  0.12500000000E+03 0.  0.
         25    1    1    2    0    0  0.82031534020E+02  0.11141408068E+02 -0.59490377283E+02  0.16129912751E+03  0.12500000000E+03 0.  0.
</event>
<event>
 4    0  0.2225052E-002  0.1989850E+03  0.7546771E-02  0.1150598E+00
         21   -1    0    0  502  501  0.00000000000E+00  0.00000000000E+00  0.18227825152E+04  0.18227825152E+04  0.00000000000E+00 0.  1.
         21   -1    0    0  501  502 -0.00000000000E+00 -0.00000000000E+00 -0.21722290443E+02  0.21722290443E+02  0.00000000000E+00 0. -1.
         25    1    1    2    0    0  0.76790057681E+02 -0.13001753805E+03  0.10589786195E+04  0.10769688899E+04  0.12500000000E+03 0.  0.
         25    1    1    2    0    0 -0.76790057681E+02  0.13001753805E+03  0.74208160520E+03  0.76753591573E+03  0.12500000000E+03 0.  0.
</event>
<event>
 4    0  0.2225052E-002  0.2340321E+03  0.7546771E-02  0.1123834E+00
         21   -1    0    0  502  501  0.00000000000E+00  0.00000000000E+00  0.97039449802E+02  0.97039449802E+02  0.00000000000E+00 0. -1.
         21   -1    0    0  501  502 -0.00000000000E+00 -0.00000000000E+00 -0.56442035957E+03  0.56442035957E+03  0.00000000000E+00 0. -1.
         25    1    1    2    0    0  0.60886668073E+02 -0.28854616421E+02 -0.49658122443E+03  0.51648590271E+03  0.12500000000E+03 0.  0.
         25    1    1    2    0    0 -0.60886668073E+02  0.28854616421E+02  0.29200314662E+02  0.14497390667E+03  0.12500000000E+03 0.  0.
</event>
<event>
 4    0  0.2225052E-002  0.1818354E+03  0.7546771E-02  0.1166038E+00
         21   -1    0    0  502  501  0.00000000000E+00  0.00000000000E+00  0.14790042900E+03  0.14790042900E+03  0.00000000000E+00 0. -1.
         21   -1    0    0  501  502 -0.00000000000E+00 -0.00000000000E+00 -0.22355650814E+03  0.22355650814E+03  0.00000000000E+00 0. -1.
         25    1    1    2    0    0 -0.66609488142E+02  0.93731180445E+02 -0.10415480066E+03  0.19923749797E+03  0.12500000000E+03 0.  0.
         25    1    1    2    0    0  0.66609488142E+02 -0.93731180445E+02  0.28498721517E+02  0.17221943917E+03  0.12500000000E+03 0.  0.
</event>
<event>
 4    0  0.2225052E-002  0.2039804E+03  0.7546771E-02  0.1146424E+00
         21   -1    0    0  502  501  0.00000000000E+00  0.00000000000E+00  0.79706489457E+02  0.79706489457E+02  0.00000000000E+00 0. -1.
         21   -1    0    0  501  502 -0.00000000000E+00 -0.00000000000E+00 -0.52201534952E+03  0.52201534952E+03  0.00000000000E+00 0. -1.
         25    1    1    2    0    0  0.13821964701E+03 -0.21156776586E+02 -0.10287547733E+03  0.21391737623E+03  0.12500000000E+03 0.  0.
         25    1    1    2    0    0 -0.13821964701E+03  0.21156776586E+02 -0.33943338274E+03  0.38780446276E+03  0.12500000000E+03 0.  0.
</event>
<event>
 4    0  0.2225052E-002  0.2705674E+03  0.7546771E-02  0.1100955E+00
         21   -1    0    0  502  501  0.00000000000E+00  0.00000000000E+00  0.85193576793E+02  0.85193576793E+02  0.00000000000E+00 0. -1.
         21   -1    0    0  501  502 -0.00000000000E+00 -0.00000000000E+00 -0.85929838580E+03  0.85929838580E+03  0.00000000000E+00 0. -1.
         25    1    1    2    0    0 -0.23241072868E+03 -0.46896491800E+02 -0.32250417359E+03  0.41934230616E+03  0.12500000000E+03 0.  0.
         25    1    1    2    0    0  0.23241072868E+03  0.46896491800E+02 -0.45160063541E+03  0.52514965644E+03  0.12500000000E+03 0.  0.
</event>
<event>
 4    0  0.2225052E-002  0.2926079E+03  0.7546771E-02  0.1088995E+00
         21   -1    0    0  502  501  0.00000000000E+00  0.00000000000E+00  0.98018003262E+02  0.98018003262E+02  0.00000000000E+00 0.  1.
         21   -1    0    0  501  502 -0.00000000000E+00 -0.00000000000E+00 -0.87350655458E+03  0.87350655458E+03  0.00000000000E+00 0. -1.
         25    1    1    2    0    0  0.15557026783E+03 -0.18067919492E+03 -0.19739296304E+03  0.33382040317E+03  0.12500000000E+03 0.  0.
         25    1    1    2    0    0 -0.15557026783E+03  0.18067919492E+03 -0.57809558828E+03  0.63770415468E+03  0.12500000000E+03 0.  0.
</event>
<event>
 4    0  0.2225052E-002  0.2320118E+03  0.7546771E-02  0.1125232E+00
         21   -1    0    0  502  501  0.00000000000E+00  0.00000000000E+00  0.11144795389E+04  0.11144795389E+04  0.00000000000E+00 0. -1.
         21   -1    0    0  501  502 -0.00000000000E+00 -0.00000000000E+00 -0.48300085850E+02  0.48300085850E+02  0.00000000000E+00 0. -1.
         25    1    1    2    0    0  0.43635991353E+02 -0.18172119215E+03  0.67655486722E+03  0.71293630836E+03  0.12500000000E+03 0.  0.
         25    1    1    2    0    0 -0.43635991353E+02  0.18172119215E+03  0.38962458582E+03  0.44984331638E+03  0.12500000000E+03 0.  0.
</event>
<event>
 4    0  0.2225052E-002  0.2920773E+03  0.7546771E-02  0.1089270E+00
         21   -1    0    0  502  501  0.00000000000E+00  0.00000000000E+00  0.43104274252E+03  0.43104274252E+03  0.00000000000E+00 0. -1.
         21   -1    0    0  501  502 -0.00000000000E+00 -0.00000000000E+00 -0.19791343991E+03  0.19791343991E+03  0.00000000000E+00 0. -1.
         25    1    1    2    0    0  0.68565260480E+02  0.88466107786E+02 -0.14084579865E+03  0.21906616847E+03  0.12500000000E+03 0.  0.
         25    1    1    2    0    0 -0.68565260480E+02 -0.88466107786E+02  0.37397510127E+03  0.40989001396E+03  0.12500000000E+03 0.  0.
</event>
<event>
 4    0  0.2225052E-002  0.2112734E+03  0.7546771E-02  0.1140562E+00
         21   -1    0    0  502  501  0.00000000000E+00  0.00000000000E+00  0.36669252910E+03  0.36669252910E+03  0.00000000000E+00 0. -1.
         21   -1    0    0  501  502 -0.00000000000E+00 -0.00000000000E+00 -0.12172715623E+03  0.12172715623E+03  0.00000000000E+00 0. -1.
         25    1    1    2    0    0  0.12484265310E+03 -0.10952913030E+03  0.16617980482E+03  0.26612599638E+03  0.12500000000E+03 0.  0.
         25    1    1    2    0    0 -0.12484265310E+03  0.10952913030E+03  0.78785568050E+02  0.22229368895E+03  0.12500000000E+03 0.  0.
</event>
<event>
 4    0  0.2225052E-002  0.2286301E+03  0.7546771E-02  0.1127608E+00
         21   -1    0    0  502  501  0.00000000000E+00  0.00000000000E+00  0.27107620290E+03  0.27107620290E+03  0.00000000000E+00 0.  1.
         21   -1    0    0  501  502 -0.00000000000E+00 -0.00000000000E+00 -0.19283041293E+03  0.19283041293E+03  0.00000000000E+00 0.  1.
         25    1    1    2    0    0  0.15907326408E+03  0.15558089393E+02 -0.67766841079E+02  0.21392452464E+03  0.12500000000E+03 0.  0.
         25    1    1    2    0    0 -0.15907326408E+03 -0.15558089393E+02  0.14601263105E+03  0.24998209119E+03  0.12500000000E+03 0.  0.
</event>
<event>
 4    0  0.2225052E-002  0.2154394E+03  0.7546771E-02  0.1137330E+00
         21   -1    0    0  502  501  0.00000000000E+00  0.00000000000E+00  0.21232736515E+04  0.21232736515E+04  0.00000000000E+00 0.  1.
         21   -1    0    0  501  502 -0.00000000000E+00 -0.00000000000E+00 -0.21859695531E+02  0.21859695531E+02  0.00000000000E+00 0.  1.
         25    1    1    2    0    0 -0.57677645932E+02  0.15425087345E+03  0.13522695374E+04  0.13679831668E+04  0.12500000000E+03 0.  0.
         25    1    1    2    0    0  0.57677645932E+02 -0.15425087345E+03  0.74914441858E+03  0.77715018027E+03  0.12500000000E+03 0.  0.
</event>
<event>
 4    0  0.2225052E-002  0.1940623E+03  0.7546771E-02  0.1154848E+00
         21   -1    0    0  502  501  0.00000000000E+00  0.00000000000E+00  0.17252271150E+02  0.17252271150E+02  0.00000000000E+00 0.  1.
         21   -1    0    0  501  502 -0.00000000000E+00 -0.00000000000E+00 -0.21829120581E+04  0.21829120581E+04  0.00000000000E+00 0.  1.
         25    1    1    2    0    0 -0.39462643010E+02 -0.88480735544E+02 -0.17203777943E+04  0.17276315857E+04  0.12500000000E+03 0.  0.
         25    1    1    2    0    0  0.39462643010E+02  0.88480735544E+02 -0.44528199261E+03  0.47253274352E+03  0.12500000000E+03 0.  0.
</event>
<event>
 4    0  0.2225052E-002  0.2143944E+03  0.7546771E-02  0.1138133E+00
         21   -1    0    0  502  501  0.00000000000E+00  0.00000000000E+00  0.18088930124E+03  0.18088930124E+03  0.00000000000E+00 0.  1.
         21   -1    0    0  501  502 -0.00000000000E+00 -0.00000000000E+00 -0.25410539102E+03  0.25410539102E+03  0.00000000000E+00 0.  1.
         25    1    1    2    0    0 -0.12254694278E+03 -0.12365213039E+03 -0.30838546668E+02  0.21652625359E+03  0.12500000000E+03 0.  0.
         25    1    1    2    0    0  0.12254694278E+03  0.12365213039E+03 -0.42377543112E+02  0.21846843867E+03  0.12500000000E+03 0.  0.
</event>
<event>
 4    0  0.2225052E-002  0.2368134E+03  0.7546771E-02  0.1121934E+00
         21   -1    0    0  502  501  0.00000000000E+00  0.00000000000E+00  0.39406442091E+02  0.39406442091E+02  0.00000000000E+00 0.  1.
         21   -1    0    0  501  502 -0.00000000000E+00 -0.00000000000E+00 -0.14231327621E+04  0.14231327621E+04  0.00000000000E+00 0.  1.
         25    1    1    2    0    0  0.11445063443E+03  0.91739532245E+02 -0.11168417252E+04  0.11333470469E+04  0.12500000000E+03 0.  0.
         25    1    1    2    0    0 -0.11445063443E+03 -0.91739532245E+02 -0.26688459483E+03  0.32919215734E+03  0.12500000000E+03 0.  0.
</event>
<event>
 4    0  0.2225052E-002  0.1981504E+03  0.7546771E-02  0.1151309E+00
         21   -1    0    0  502  501  0.00000000000E+00  0.00000000000E+00  0.10024429599E+03  0.10024429599E+03  0.00000000000E+00 0. -1.
         21   -1    0    0  501  502 -0.00000000000E+00 -0.00000000000E+00 -0.39167906982E+03  0.39167906982E+03  0.00000000000E+00 0. -1.
         25    1    1    2    0    0  0.10010885484E+03  0.51511659360E+02 -0.27568772572E+03  0.32296122984E+03  0.12500000000E+03 0.  0.
         25    1    1    2    0    0 -0.10010885484E+03 -0.51511659360E+02 -0.15747048118E+02  0.16896213597E+03  0.12500000000E+03 0.  0.
</event>
<event>
 4    0  0.2225052E-002  0.2724890E+03  0.7546771E-02  0.1099864E+00
         21   -1    0    0  502  501  0.00000000000E+00  0.00000000000E+00  0.10137585368E+03  0.10137585368E+03  0.00000000000E+00 0. -1.
         21   -1    0    0  501  502 -0.00000000000E+00 -0.00000000000E+00 -0.73242524002E+03  0.73242524002E+03  0.00000000000E+00 0. -1.
         25    1    1    2    0    0  0.47458331238E+02  0.32991787079E+02  0.44212363391E+02  0.14463915201E+03  0.12500000000E+03 0.  0.
         25    1    1    2    0    0 -0.47458331238E+02 -0.32991787079E+02 -0.67526174973E+03  0.68916194169E+03  0.12500000000E+03 0.  0.
</event>
<event>
 4    0  0.2225052E-002  0.1829233E+03  0.7546771E-02  0.1165004E+00
         21   -1    0    0  502  501  0.00000000000E+00  0.00000000000E+00  0.38958572876E+02  0.38958572876E+02  0.00000000000E+00 0.  1.
         21   -1    0    0  501  502 -0.00000000000E+00 -0.00000000000E+00 -0.85888475772E+03  0.85888475772E+03  0.00000000000E+00 0.  1.
         25    1    1    2    0    0  0.52334628875E+02  0.98462082575E+02 -0.59034297773E+03  0.61364772177E+03  0.12500000000E+03 0.  0.
         25    1    1    2    0    0 -0.52334628875E+02 -0.98462082575E+02 -0.22958320711E+03  0.28419560882E+03  0.12500000000E+03 0.  0.
</event>
<event>
 4    0  0.2225052E-002  0.2670557E+03  0.7546771E-02  0.1102977E+00
         21   -1    0    0  502  501  0.00000000000E+00  0.00000000000E+00  0.17788483476E+04  0.17788483476E+04  0.00000000000E+00 0.  1.
         21   -1    0    0  501  502 -0.00000000000E+00 -0.00000000000E+00 -0.40092658803E+02  0.40092658803E+02  0.00000000000E+00 0.  1.
         25    1    1    2    0    0 -0.52457302641E+02  0.21730840299E+03  0.11269201891E+04  0.11556594755E+04  0.12500000000E+03 0.  0.
         25    1    1    2    0    0  0.52457302641E+02 -0.21730840299E+03  0.61183549970E+03  0.66328153096E+03  0.12500000000E+03 0.  0.
</event>
<event>
 4    0  0.2225052E-002  0.2501065E+03  0.7546771E-02  0.1113238E+00
         21   -1    0    0  502  501  0.00000000000E+00  0.00000000000E+00  0.65250930873E+03  0.65250930873E+03  0.00000000000E+00 0.  1.
         21   -1    0    0  501  502 -0.00000000000E+00 -0.00000000000E+00 -0.95865662843E+02  0.95865662843E+02  0.00000000000E+00 0.  1.
         25    1    1    2    0    0  0.17965507864E+03 -0.80455507528E+02  0.41362868272E+03  0.47482915153E+03  0.12500000000E+03 0.  0.
         25    1    1    2    0    0 -0.17965507864E+03  0.80455507528E+02  0.14301496317E+03  0.27354582004E+03  0.12500000000E+03 0.  0.
</event>
<event>
 4    0  0.2225052E-002  0.1985128E+03  0.7546771E-02  0.1151000E+00
         21   -1    0    0  502  501  0.00000000000E+00  0.00000000000E+00  0.40911685524E+03  0.40911685524E+03  0.00000000000E+00 0. -1.
         21   -1    0    0  501  502 -0.00000000000E+00 -0.00000000000E+00 -0.96322917880E+02  0.96322917880E+02  0.00000000000E+00 0. -1.
         25    1    1    2    0    0  0.30707066314E+02 -0.19537895407E+02 -0.34383241281E+02  0.13465459725E+03  0.12500000000E+03 0.  0.
         25    1    1    2    0    0 -0.30707066314E+02  0.19537895407E+02  0.34717717864E+03  0.37078517587E+03  0.12500000000E+03 0.  0.
</event>
<event>
 4    0  0.2225052E-002  0.2314117E+03  0.7546771E-02  0.1125650E+00
         21   -1    0    0  502  501  0.00000000000E+00  0.00000000000E+00  0.40038939061E+02  0.40038939061E+02  0.00000000000E+00 0.  1.
         21   -1    0    0  501  502 -0.00000000000E+00 -0.00000000000E+00 -0.13374825293E+04  0.13374825293E+04  0.00000000000E+00 0.  1.
         25    1    1    2    0    0  0.62828205301E+02 -0.17580338985E+03 -0.48375163507E+03  0.53338059554E+03  0.12500000000E+03 0.  0.
         25    1    1    2    0    0 -0.62828205301E+02  0.17580338985E+03 -0.81369195519E+03  0.84414087285E+03  0.12500000000E+03 0.  0.
</event>
<event>
 4    0  0.2225052E-002  0.2263629E+03  0.7546771E-02  0.1129226E+00
         21   -1    0    0  502  501  0.00000000000E+00  0.00000000000E+00  0.13427418060E+03  0.13427418060E+03  0.00000000000E+00 0.  1.
         21   -1    0    0  501  502 -0.00000000000E+00 -0.00000000000E+00 -0.38160860628E+03  0.38160860628E+03  0.00000000000E+00 0.  1.
         25    1    1    2    0    0  0.13224311052E+03 -0.12705738678E+03 -0.72919459422E+02  0.23361093163E+03  0.12500000000E+03 0.  0.
         25    1    1    2    0    0 -0.13224311052E+03  0.12705738678E+03 -0.17441496626E+03  0.28227185525E+03  0.12500000000E+03 0.  0.
</event>
<event>
 4    0  0.2225052E-002  0.2747656E+03  0.7546771E-02  0.1098583E+00
         21   -1    0    0  502  501  0.00000000000E+00  0.00000000000E+00  0.67765073711E+03  0.67765073711E+03  0.00000000000E+00 0.  1.
         21   -1    0    0  501  502 -0.00000000000E+00 -0.00000000000E+00 -0.11140863726E+03  0.11140863726E+03  0.00000000000E+00 0.  1.
         25    1    1    2    0    0 -0.68014994783E+02 -0.21885580609E+03  0.16004332333E+03  0.30620706837E+03  0.12500000000E+03 0.  0.
         25    1    1    2    0    0  0.68014994783E+02  0.21885580609E+03  0.40619877652E+03  0.48285230601E+03  0.12500000000E+03 0.  0.
</event>
<event>
 4    0  0.2225052E-002  0.2128245E+03  0.7546771E-02  0.1139349E+00
         21   -1    0    0  502  501  0.00000000000E+00  0.00000000000E+00  0.22168949192E+03  0.22168949192E+03  0.00000000000E+00 0. -1.
         21   -1    0    0  501  502 -0.00000000000E+00 -0.00000000000E+00 -0.20431391560E+03  0.20431391560E+03  0.00000000000E+00 0. -1.
         25    1    1    2    0    0 -0.74007915193E+02  0.91379972320E+02  0.13465673589E+03  0.21813965108E+03  0.12500000000E+03 0.  0.
         25    1    1    2    0    0  0.74007915193E+02 -0.91379972320E+02 -0.11728115957E+03  0.20786375644E+03  0.12500000000E+03 0.  0.
</event>
<event>
 4    0  0.2225052E-002  0.2767154E+03  0.7546771E-02  0.1097497E+00
         21   -1    0    0  502  501  0.00000000000E+00  0.00000000000E+00  0.82910945550E+03  0.82910945550E+03  0.00000000000E+00 0.  1.
         21   -1    0    0  501  502 -0.00000000000E+00 -0.00000000000E+00 -0.92353800137E+02  0.92353800137E+02  0.00000000000E+00 0. -1.
         25    1    1    2    0    0 -0.23795067026E+03  0.63235839264E+02  0.39849163507E+03  0.48480911302E+03  0.12500000000E+03 0.  0.
         25    1    1    2    0    0  0.23795067026E+03 -0.63235839264E+02  0.33826402029E+03  0.43665414262E+03  0.12500000000E+03 0.  0.
</event>
<event>
 4    0  0.2225052E-002  0.2055298E+03  0.7546771E-02  0.1145156E+00
         21   -1    0    0  502  501  0.00000000000E+00  0.00000000000E+00  0.19421587899E+03  0.19421587899E+03  0.00000000000E+00 0. -1.
         21   -1    0    0  501  502 -0.00000000000E+00 -0.00000000000E+00 -0.21750282390E+03  0.21750282390E+03  0.00000000000E+00 0. -1.
         25    1    1    2    0    0  0.14252059830E+03 -0.62775030205E+02 -0.60349383963E+02  0.20861417378E+03  0.12500000000E+03 0.  0.
         25    1    1    2    0    0 -0.14252059830E+03  0.62775030205E+02  0.37062439055E+02  0.20310452912E+03  0.12500000000E+03 0.  0.
</event>
<event>
 4    0  0.2225052E-002  0.1814950E+03  0.7546771E-02  0.1166364E+00
         21   -1    0    0  502  501  0.00000000000E+00  0.00000000000E+00  0.27942613302E+02  0.27942613302E+02  0.00000000000E+00 0.  1.
         21   -1    0    0  501  502 -0.00000000000E+00 -0.00000000000E+00 -0.11788599659E+04  0.11788599659E+04  0.00000000000E+00 0.  1.
         25    1    1    2    0    0  0.12284893998E+03 -0.22234142584E+02 -0.71370874616E+03  0.73524920503E+03  0.12500000000E+03 0.  0.
         25    1    1    2    0    0 -0.12284893998E+03  0.22234142584E+02 -0.43720860645E+03  0.47155337419E+03  0.12500000000E+03 0.  0.
</event>
<event>
 4    0  0.2225052E-002  0.2042582E+03  0.7546771E-02  0.1146195E+00
         21   -1    0    0  502  501  0.00000000000E+00  0.00000000000E+00  0.36528486457E+03  0.36528486457E+03  0.00000000000E+00 0. -1.
         21   -1    0    0  501  502 -0.00000000000E+00 -0.00000000000E+00 -0.11421611676E+03  0.11421611676E+03  0.00000000000E+00 0. -1.
         25    1    1    2    0    0  0.67493586104E+02  0.64269917153E+02 -0.29341759911E+02  0.15865669003E+03  0.12500000000E+03 0.  0.
         25    1    1    2    0    0 -0.67493586104E+02 -0.64269917153E+02  0.28041050772E+03  0.32084429129E+03  0.12500000000E+03 0.  0.
</event>
<event>
 4    0  0.2225052E-002  0.1957663E+03  0.7546771E-02  0.1153361E+00
         21   -1    0    0  502  501  0.00000000000E+00  0.00000000000E+00  0.50838164998E+02  0.50838164998E+02  0.00000000000E+00 0. -1.
         21   -1    0    0  501  502 -0.00000000000E+00 -0.00000000000E+00 -0.75385150366E+03  0.75385150366E+03  0.00000000000E+00 0. -1.
         25    1    1    2    0    0 -0.13978209067E+03  0.39873197572E+02 -0.27005825059E+03  0.33118780694E+03  0.12500000000E+03 0.  0.
         25    1    1    2    0    0  0.13978209067E+03 -0.39873197572E+02 -0.43295508808E+03  0.47350186172E+03  0.12500000000E+03 0.  0.
</event>
<event>
 4    0  0.2225052E-002  0.2971674E+03  0.7546771E-02  0.1086665E+00
         21   -1    0    0  502  501  0.00000000000E+00  0.00000000000E+00  0.45727295100E+02  0.45727295100E+02  0.00000000000E+00 0.  1.
         21   -1    0    0  501  502 -0.00000000000E+00 -0.00000000000E+00 -0.19311980579E+04  0.19311980579E+04  0.00000000000E+00 0.  1.
         25    1    1    2    0    0 -0.22268835475E+03  0.81498139029E+02 -0.51609621693E+03  0.58156027644E+03  0.12500000000E+03 0.  0.
         25    1    1    2    0    0  0.22268835475E+03 -0.81498139029E+02 -0.13693745459E+04  0.13953650766E+04  0.12500000000E+03 0.  0.
</event>
<event>
 4    0  0.2225052E-002  0.1982103E+03  0.7546771E-02  0.1151258E+00
         21   -1    0    0  502  501  0.00000000000E+00  0.00000000000E+00  0.51249510689E+03  0.51249510689E+03  0.00000000000E+00 0.  1.
         21   -1    0    0  501  502 -0.00000000000E+00 -0.00000000000E+00 -0.76658949411E+02  0.76658949411E+02  0.00000000000E+00 0.  1.
         25    1    1    2    0    0 -0.13013316270E+03 -0.27249364453E+02  0.33289502687E+03  0.37963306865E+03  0.12500000000E+03 0.  0.
         25    1    1    2    0    0  0.13013316270E+03  0.27249364453E+02  0.10294113061E+03  0.20952098765E+03  0.12500000000E+03 0.  0.
</event>
<event>
 4    0  0.2225052E-002  0.1836804E+03  0.7546771E-02  0.1164288E+00
         21   -1    0    0  502  501  0.00000000000E+00  0.00000000000E+00  0.55559074232E+02  0.55559074232E+02  0.00000000000E+00 0. -1.
         21   -1    0    0  501  502 -0.00000000000E+00 -0.00000000000E+00 -0.60725440170E+03  0.60725440170E+03  0.00000000000E+00 0. -1.
         25    1    1    2    0    0 -0.13110813744E+03  0.75250595931E-01 -0.33069658507E+03  0.37706044707E+03  0.12500000000E+03 0.  0.
         25    1    1    2    0    0  0.13110813744E+03 -0.75250595931E-01 -0.22099874240E+03  0.28575302886E+03  0.12500000000E+03 0.  0.
</event>
<event>
 4    0  0.2225052E-002  0.1693508E+03  0.7546771E-02  0.1178527E+00
         21   -1    0    0  502  501  0.00000000000E+00  0.00000000000E+00  0.14156323916E+03  0.14156323916E+03  0.00000000000E+00 0. -1.
         21   -1    0    0  501  502 -0.00000000000E+00 -0.00000000000E+00 -0.20259285324E+03  0.20259285324E+03  0.00000000000E+00 0. -1.
         25    1    1    2    0    0  0.94147071578E+02  0.59706110463E+02 -0.55941981229E+02  0.17658707760E+03  0.12500000000E+03 0.  0.
         25    1    1    2    0    0 -0.94147071578E+02 -0.59706110463E+02 -0.50876328481E+01  0.16756901480E+03  0.12500000000E+03 0.  0.
</event>
<event>
 4    0  0.2225052E-002  0.2051396E+03  0.7546771E-02  0.1145474E+00
         21   -1    0    0  502  501  0.00000000000E+00  0.00000000000E+00  0.11386126083E+03  0.11386126083E+03  0.00000000000E+00 0.  1.
         21   -1    0    0  501  502 -0.00000000000E+00 -0.00000000000E+00 -0.36959256508E+03  0.36959256508E+03  0.00000000000E+00 0.  1.
         25    1    1    2    0    0  0.11864916059E+03 -0.80869081610E+02 -0.37817249493E+02  0.19409424522E+03  0.12500000000E+03 0.  0.
         25    1    1    2    0    0 -0.11864916059E+03  0.80869081610E+02 -0.21791405476E+03  0.28935958068E+03  0.12500000000E+03 0.  0.
</event>
<event>
 4    0  0.2225052E-002  0.2760826E+03  0.7546771E-02  0.1097848E+00
         21   -1    0    0  502  501  0.00000000000E+00  0.00000000000E+00  0.10668121725E+04  0.10668121725E+04  0.00000000000E+00 0.  1.
         21   -1    0    0  501  502 -0.00000000000E+00 -0.00000000000E+00 -0.71447987023E+02  0.71447987023E+02  0.00000000000E+00 0.  1.
         25    1    1    2    0    0  0.17121395224E+03  0.16430679058E+03  0.63263448094E+03  0.68714068817E+03  0.12500000000E+03 0.  0.
         25    1    1    2    0    0 -0.17121395224E+03 -0.16430679058E+03  0.36272970452E+03  0.45111947133E+03  0.12500000000E+03 0.  0.
</event>
<event>
 4    0  0.2225052E-002  0.3695318E+03  0.7546771E-02  0.1054872E+00
         21   -1    0    0  502  501  0.00000000000E+00  0.00000000000E+00  0.11968707807E+04  0.11968707807E+04  0.00000000000E+00 0.  1.
         21   -1    0    0  501  502 -0.00000000000E+00 -0.00000000000E+00 -0.11409229271E+03  0.11409229271E+03  0.00000000000E+00 0.  1.
         25    1    1    2    0    0 -0.16774647040E+03  0.11371698672E+03  0.10426557743E+04  0.10694982446E+04  0.12500000000E+03 0.  0.
         25    1    1    2    0    0  0.16774647040E+03 -0.11371698672E+03  0.40122713631E+02  0.24146482881E+03  0.12500000000E+03 0.  0.
</event>
<event>
 4    0  0.2225052E-002  0.4333777E+03  0.7546771E-02  0.1032798E+00
         21   -1    0    0  502  501  0.00000000000E+00  0.00000000000E+00  0.30402682041E+03  0.30402682041E+03  0.00000000000E+00 0.  1.
         21   -1    0    0  501  502 -0.00000000000E+00 -0.00000000000E+00 -0.61776200979E+03  0.61776200979E+03  0.00000000000E+00 0.  1.
         25    1    1    2    0    0  0.90134545068E+02 -0.33006456562E+03  0.92825597515E+02  0.37591015582E+03  0.12500000000E+03 0.  0.
         25    1    1    2    0    0 -0.90134545068E+02  0.33006456562E+03 -0.40656078690E+03  0.54587867437E+03  0.12500000000E+03 0.  0.
</event>
<event>
 4    0  0.2225052E-002  0.3986777E+03  0.7546771E-02  0.1044238E+00
         21   -1    0    0  502  501  0.00000000000E+00  0.00000000000E+00  0.39562861829E+03  0.39562861829E+03  0.00000000000E+00 0. -1.
         21   -1    0    0  501  502 -0.00000000000E+00 -0.00000000000E+00 -0.40175032782E+03  0.40175032782E+03  0.00000000000E+00 0. -1.
         25    1    1    2    0    0  0.12383301821E+03  0.35421864939E+03 -0.53196742822E+02  0.39907438081E+03  0.12500000000E+03 0.  0.
         25    1    1    2    0    0 -0.12383301821E+03 -0.35421864939E+03  0.47075033299E+02  0.39830456529E+03  0.12500000000E+03 0.  0.
</event>
<event>
 4    0  0.2225052E-002  0.1826700E+03  0.7546771E-02  0.1165244E+00
         21   -1    0    0  502  501  0.00000000000E+00  0.00000000000E+00  0.18012964799E+04  0.18012964799E+04  0.00000000000E+00 0. -1.
         21   -1    0    0  501  502 -0.00000000000E+00 -0.00000000000E+00 -0.18524627355E+02  0.18524627355E+02  0.00000000000E+00 0. -1.
         25    1    1    2    0    0 -0.73934990490E+02  0.19479226476E+02  0.34806098999E+03  0.37764702546E+03  0.12500000000E+03 0.  0.
         25    1    1    2    0    0  0.73934990490E+02 -0.19479226476E+02  0.14347108626E+04  0.14421740818E+04  0.12500000000E+03 0.  0.
</event>
<event>
 4    0  0.2225052E-002  0.2232499E+03  0.7546771E-02  0.1131483E+00
         21   -1    0    0  502  501  0.00000000000E+00  0.00000000000E+00  0.22591591719E+03  0.22591591719E+03  0.00000000000E+00 0. -1.
         21   -1    0    0  501  502 -0.00000000000E+00 -0.00000000000E+00 -0.22061543848E+03  0.22061543848E+03  0.00000000000E+00 0. -1.
         25    1    1    2    0    0 -0.20196158156E+02  0.16608214842E+03 -0.76250023453E+02  0.22232910494E+03  0.12500000000E+03 0.  0.
         25    1    1    2    0    0  0.20196158156E+02 -0.16608214842E+03  0.81550502156E+02  0.22420225073E+03  0.12500000000E+03 0.  0.
</event>
<event>
 4    0  0.2225052E-002  0.3725460E+03  0.7546771E-02  0.1053724E+00
         21   -1    0    0  502  501  0.00000000000E+00  0.00000000000E+00  0.16429362869E+04  0.16429362869E+04  0.00000000000E+00 0.  1.
         21   -1    0    0  501  502 -0.00000000000E+00 -0.00000000000E+00 -0.84477121551E+02  0.84477121551E+02  0.00000000000E+00 0.  1.
         25    1    1    2    0    0 -0.29767426553E+03  0.10204298625E+03  0.11394597631E+04  0.11887036178E+04  0.12500000000E+03 0.  0.
         25    1    1    2    0    0  0.29767426553E+03 -0.10204298625E+03  0.41899940231E+03  0.53870979064E+03  0.12500000000E+03 0.  0.
</event>
<event>
 4    0  0.2225052E-002  0.1938743E+03  0.7546771E-02  0.1155013E+00
         21   -1    0    0  502  501  0.00000000000E+00  0.00000000000E+00  0.53156751584E+03  0.53156751584E+03  0.00000000000E+00 0. -1.
         21   -1    0    0  501  502 -0.00000000000E+00 -0.00000000000E+00 -0.70710222722E+02  0.70710222722E+02  0.00000000000E+00 0. -1.
         25    1    1    2    0    0  0.39391080620E+02 -0.86274290482E+02  0.53551361909E+02  0.16579402520E+03  0.12500000000E+03 0.  0.
         25    1    1    2    0    0 -0.39391080620E+02  0.86274290482E+02  0.40730593121E+03  0.43648371336E+03  0.12500000000E+03 0.  0.
</event>
<event>
 4    0  0.2225052E-002  0.4259268E+03  0.7546771E-02  0.1035154E+00
         21   -1    0    0  502  501  0.00000000000E+00  0.00000000000E+00  0.16707714735E+04  0.16707714735E+04  0.00000000000E+00 0.  1.
         21   -1    0    0  501  502 -0.00000000000E+00 -0.00000000000E+00 -0.10858075053E+03  0.10858075053E+03  0.00000000000E+00 0.  1.
         25    1    1    2    0    0 -0.24121119226E+03 -0.21826520516E+03  0.12926002866E+04  0.13387542866E+04  0.12500000000E+03 0.  0.
         25    1    1    2    0    0  0.24121119226E+03  0.21826520516E+03  0.26959043636E+03  0.44059793739E+03  0.12500000000E+03 0.  0.
</event>
<event>
 4    0  0.2225052E-002  0.2053258E+03  0.7546771E-02  0.1145322E+00
         21   -1    0    0  502  501  0.00000000000E+00  0.00000000000E+00  0.10530948312E+04  0.10530948312E+04  0.00000000000E+00 0. -1.
         21   -1    0    0  501  502 -0.00000000000E+00 -0.00000000000E+00 -0.40033116429E+02  0.40033116429E+02  0.00000000000E+00 0. -1.
         25    1    1    2    0    0  0.93025631176E+02 -0.13170582626E+03  0.44504790639E+03  0.48958434585E+03  0.12500000000E+03 0.  0.
         25    1    1    2    0    0 -0.93025631176E+02  0.13170582626E+03  0.56801380837E+03  0.60354360176E+03  0.12500000000E+03 0.  0.
</event>
<event>
 4    0  0.2225052E-002  0.1732698E+03  0.7546771E-02  0.1174480E+00
         21   -1    0    0  502  501  0.00000000000E+00  0.00000000000E+00  0.20925134461E+03  0.20925134461E+03  0.00000000000E+00 0. -1.
         21   -1    0    0  501  502 -0.00000000000E+00 -0.00000000000E+00 -0.14347544266E+03  0.14347544266E+03  0.00000000000E+00 0. -1.
         25    1    1    2    0    0  0.86088162419E+02 -0.12380303710E+02  0.11702568016E+03  0.19205325679E+03  0.12500000000E+03 0.  0.
         25    1    1    2    0    0 -0.86088162419E+02  0.12380303710E+02 -0.51249778203E+02  0.16067353047E+03  0.12500000000E+03 0.  0.
</event>
<event>
 4    0  0.2225052E-002  0.2653464E+03  0.7546771E-02  0.1103973E+00
         21   -1    0    0  502  501  0.00000000000E+00  0.00000000000E+00  0.91974968886E+03  0.91974968886E+03  0.00000000000E+00 0. -1.
         21   -1    0    0  501  502 -0.00000000000E+00 -0.00000000000E+00 -0.76552018388E+02  0.76552018388E+02  0.00000000000E+00 0. -1.
         25    1    1    2    0    0 -0.11986640473E+03  0.15716212367E+03  0.18624782089E+03  0.29896678559E+03  0.12500000000E+03 0.  0.
         25    1    1    2    0    0  0.11986640473E+03 -0.15716212367E+03  0.65694984958E+03  0.69733492166E+03  0.12500000000E+03 0.  0.
</event>
<event>
 4    0  0.2225052E-002  0.2758302E+03  0.7546771E-02  0.1097988E+00
         21   -1    0    0  502  501  0.00000000000E+00  0.00000000000E+00  0.23697423073E+04  0.23697423073E+04  0.00000000000E+00 0.  1.
         21   -1    0    0  501  502 -0.00000000000E+00 -0.00000000000E+00 -0.32105727003E+02  0.32105727003E+02  0.00000000000E+00 0.  1.
         25    1    1    2    0    0 -0.13009866025E+03 -0.14276887547E+02  0.20750871915E+04  0.20829645564E+04  0.12500000000E+03 0.  0.
         25    1    1    2    0    0  0.13009866025E+03  0.14276887547E+02  0.26254938877E+03  0.31888347787E+03  0.12500000000E+03 0.  0.
</event>
<event>
 4    0  0.2225052E-002  0.1902105E+03  0.7546771E-02  0.1158272E+00
         21   -1    0    0  502  501  0.00000000000E+00  0.00000000000E+00  0.35128693723E+03  0.35128693723E+03  0.00000000000E+00 0. -1.
         21   -1    0    0  501  502 -0.00000000000E+00 -0.00000000000E+00 -0.10299280159E+03  0.10299280159E+03  0.00000000000E+00 0. -1.
         25    1    1    2    0    0 -0.71197693842E+02  0.12443986812E+03  0.12509747815E+03  0.22765933196E+03  0.12500000000E+03 0.  0.
         25    1    1    2    0    0  0.71197693842E+02 -0.12443986812E+03  0.12319665749E+03  0.22662040686E+03  0.12500000000E+03 0.  0.
</event>
<event>
 4    0  0.2225052E-002  0.2305351E+03  0.7546771E-02  0.1126264E+00
         21   -1    0    0  502  501  0.00000000000E+00  0.00000000000E+00  0.50881076811E+03  0.50881076811E+03  0.00000000000E+00 0. -1.
         21   -1    0    0  501  502 -0.00000000000E+00 -0.00000000000E+00 -0.10445222882E+03  0.10445222882E+03  0.00000000000E+00 0. -1.
         25    1    1    2    0    0  0.12526476397E+03  0.14059758716E+03  0.14177408271E+03  0.26680298562E+03  0.12500000000E+03 0.  0.
         25    1    1    2    0    0 -0.12526476397E+03 -0.14059758716E+03  0.26258445658E+03  0.34646001132E+03  0.12500000000E+03 0.  0.
</event>
<event>
 4    0  0.2225052E-002  0.2234310E+03  0.7546771E-02  0.1131351E+00
         21   -1    0    0  502  501  0.00000000000E+00  0.00000000000E+00  0.22618983548E+03  0.22618983548E+03  0.00000000000E+00 0. -1.
         21   -1    0    0  501  502 -0.00000000000E+00 -0.00000000000E+00 -0.22070575137E+03  0.22070575137E+03  0.00000000000E+00 0. -1.
         25    1    1    2    0    0 -0.15699423645E+03 -0.66790980243E+02 -0.69292350256E+02  0.22256382259E+03  0.12500000000E+03 0.  0.
         25    1    1    2    0    0  0.15699423645E+03  0.66790980243E+02  0.74776434363E+02  0.22433176426E+03  0.12500000000E+03 0.  0.
</event>
<event>
 4    0  0.2225052E-002  0.2093650E+03  0.7546771E-02  0.1142070E+00
         21   -1    0    0  502  501  0.00000000000E+00  0.00000000000E+00  0.30500008130E+03  0.30500008130E+03  0.00000000000E+00 0.  1.
         21   -1    0    0  501  502 -0.00000000000E+00 -0.00000000000E+00 -0.14371696219E+03  0.14371696219E+03  0.00000000000E+00 0.  1.
         25    1    1    2    0    0  0.29010279402E+02 -0.11945891980E+03 -0.41994666370E+02  0.18027917749E+03  0.12500000000E+03 0.  0.
         25    1    1    2    0    0 -0.29010279402E+02  0.11945891980E+03  0.20327778548E+03  0.26843786600E+03  0.12500000000E+03 0.  0.
</event>
<event>
 4    0  0.2225052E-002  0.1920084E+03  0.7546771E-02  0.1156662E+00
         21   -1    0    0  502  501  0.00000000000E+00  0.00000000000E+00  0.50503225453E+02  0.50503225453E+02  0.00000000000E+00 0. -1.
         21   -1    0    0  501  502 -0.00000000000E+00 -0.00000000000E+00 -0.72999748086E+03  0.72999748086E+03  0.00000000000E+00 0. -1.
         25    1    1    2    0    0  0.14900992407E+02  0.11666203974E+03 -0.16478794175E+03  0.23793305117E+03  0.12500000000E+03 0.  0.
         25    1    1    2    0    0 -0.14900992407E+02 -0.11666203974E+03 -0.51470631366E+03  0.54256765515E+03  0.12500000000E+03 0.  0.
</event>
<event>
 4    0  0.2225052E-002  0.2404133E+03  0.7546771E-02  0.1119518E+00
         21   -1    0    0  502  501  0.00000000000E+00  0.00000000000E+00  0.26831818770E+03  0.26831818770E+03  0.00000000000E+00 0.  1.
         21   -1    0    0  501  502 -0.00000000000E+00 -0.00000000000E+00 -0.21541051293E+03  0.21541051293E+03  0.00000000000E+00 0.  1.
         25    1    1    2    0    0 -0.10531569090E+03 -0.16355773116E+03  0.92661623545E+02  0.24910580614E+03  0.12500000000E+03 0.  0.
         25    1    1    2    0    0  0.10531569090E+03  0.16355773116E+03 -0.39753948775E+02  0.23462289449E+03  0.12500000000E+03 0.  0.
</event>
<event>
 4    0  0.2225052E-002  0.1819472E+03  0.7546771E-02  0.1165932E+00
         21   -1    0    0  502  501  0.00000000000E+00  0.00000000000E+00  0.82326178924E+03  0.82326178924E+03  0.00000000000E+00 0.  1.
         21   -1    0    0  501  502 -0.00000000000E+00 -0.00000000000E+00 -0.40211755124E+02  0.40211755124E+02  0.00000000000E+00 0.  1.
         25    1    1    2    0    0 -0.13146489109E+03 -0.37860361330E+01  0.35947374585E+03  0.40267074095E+03  0.12500000000E+03 0.  0.
         25    1    1    2    0    0  0.13146489109E+03  0.37860361330E+01  0.42357628826E+03  0.46080280341E+03  0.12500000000E+03 0.  0.
</event>
<event>
 4    0  0.2225052E-002  0.2033288E+03  0.7546771E-02  0.1146960E+00
         21   -1    0    0  502  501  0.00000000000E+00  0.00000000000E+00  0.22580751237E+03  0.22580751237E+03  0.00000000000E+00 0.  1.
         21   -1    0    0  501  502 -0.00000000000E+00 -0.00000000000E+00 -0.18308784155E+03  0.18308784155E+03  0.00000000000E+00 0.  1.
         25    1    1    2    0    0 -0.14379976534E+03 -0.49439448767E+02  0.72581078209E+02  0.20979905748E+03  0.12500000000E+03 0.  0.
         25    1    1    2    0    0  0.14379976534E+03  0.49439448767E+02 -0.29861407393E+02  0.19909629644E+03  0.12500000000E+03 0.  0.
</event>
<event>
 4    0  0.2225052E-002  0.5531690E+03  0.7546771E-02  0.1000763E+00
         21   -1    0    0  502  501  0.00000000000E+00  0.00000000000E+00  0.50630168111E+03  0.50630168111E+03  0.00000000000E+00 0.  1.
         21   -1    0    0  501  502 -0.00000000000E+00 -0.00000000000E+00 -0.60437463720E+03  0.60437463720E+03  0.00000000000E+00 0. -1.
         25    1    1    2    0    0  0.40621327322E+03  0.35334811487E+03 -0.71636557780E+02  0.55733375102E+03  0.12500000000E+03 0.  0.
         25    1    1    2    0    0 -0.40621327322E+03 -0.35334811487E+03 -0.26436398306E+02  0.55334256729E+03  0.12500000000E+03 0.  0.
</event>
<event>
 4    0  0.2225052E-002  0.3750958E+03  0.7546771E-02  0.1052761E+00
         21   -1    0    0  502  501  0.00000000000E+00  0.00000000000E+00  0.21943669501E+03  0.21943669501E+03  0.00000000000E+00 0.  1.
         21   -1    0    0  501  502 -0.00000000000E+00 -0.00000000000E+00 -0.64117286830E+03  0.64117286830E+03  0.00000000000E+00 0.  1.
         25    1    1    2    0    0  0.32505948876E+03  0.13894747814E+03 -0.19929444641E+03  0.42463319381E+03  0.12500000000E+03 0.  0.
         25    1    1    2    0    0 -0.32505948876E+03 -0.13894747814E+03 -0.22244172687E+03  0.43597636951E+03  0.12500000000E+03 0.  0.
</event>
<event>
 4    0  0.2225052E-002  0.3221349E+03  0.7546771E-02  0.1074671E+00
         21   -1    0    0  502  501  0.00000000000E+00  0.00000000000E+00  0.14177370714E+03  0.14177370714E+03  0.00000000000E+00 0. -1.
         21   -1    0    0  501  502 -0.00000000000E+00 -0.00000000000E+00 -0.73194719557E+03  0.73194719557E+03  0.00000000000E+00 0. -1.
         25    1    1    2    0    0 -0.17282986141E+03 -0.13915138308E+03 -0.27570520208E+02  0.25616089083E+03  0.12500000000E+03 0.  0.
         25    1    1    2    0    0  0.17282986141E+03  0.13915138308E+03 -0.56260296823E+03  0.61756001187E+03  0.12500000000E+03 0.  0.
</event>
<event>
 4    0  0.2225052E-002  0.2985734E+03  0.7546771E-02  0.1085956E+00
         21   -1    0    0  502  501  0.00000000000E+00  0.00000000000E+00  0.49201202836E+03  0.49201202836E+03  0.00000000000E+00 0.  1.
         21   -1    0    0  501  502 -0.00000000000E+00 -0.00000000000E+00 -0.18118681769E+03  0.18118681769E+03  0.00000000000E+00 0.  1.
         25    1    1    2    0    0 -0.17014877245E+03 -0.89868709829E+01 -0.82376563832E+02  0.22680887744E+03  0.12500000000E+03 0.  0.
         25    1    1    2    0    0  0.17014877245E+03  0.89868709829E+01  0.39320177450E+03  0.44638996862E+03  0.12500000000E+03 0.  0.
</event>
<event>
 4    0  0.2225052E-002  0.2561186E+03  0.7546771E-02  0.1109498E+00
         21   -1    0    0  502  501  0.00000000000E+00  0.00000000000E+00  0.40155538314E+02  0.40155538314E+02  0.00000000000E+00 0.  1.
         21   -1    0    0  501  502 -0.00000000000E+00 -0.00000000000E+00 -0.16335663251E+04  0.16335663251E+04  0.00000000000E+00 0.  1.
         25    1    1    2    0    0  0.18389861942E+03  0.64888672702E+02 -0.43963019957E+03  0.49691946474E+03  0.12500000000E+03 0.  0.
         25    1    1    2    0    0 -0.18389861942E+03 -0.64888672702E+02 -0.11537805872E+04  0.11768023986E+04  0.12500000000E+03 0.  0.
</event>
<event>
 4    0  0.2225052E-002  0.2464394E+03  0.7546771E-02  0.1115576E+00
         21   -1    0    0  502  501  0.00000000000E+00  0.00000000000E+00  0.96969388563E+02  0.96969388563E+02  0.00000000000E+00 0. -1.
         21   -1    0    0  501  502 -0.00000000000E+00 -0.00000000000E+00 -0.62630446074E+03  0.62630446074E+03  0.00000000000E+00 0. -1.
         25    1    1    2    0    0 -0.42898307537E+02 -0.10302138177E+03  0.50517196293E+00  0.16756767316E+03  0.12500000000E+03 0.  0.
         25    1    1    2    0    0  0.42898307537E+02  0.10302138177E+03 -0.52984024414E+03  0.55570617614E+03  0.12500000000E+03 0.  0.
</event>
<event>
 4    0  0.2225052E-002  0.2334453E+03  0.7546771E-02  0.1124238E+00
         21   -1    0    0  502  501  0.00000000000E+00  0.00000000000E+00  0.67341668966E+02  0.67341668966E+02  0.00000000000E+00 0.  1.
         21   -1    0    0  501  502 -0.00000000000E+00 -0.00000000000E+00 -0.80925710665E+03  0.80925710665E+03  0.00000000000E+00 0.  1.
         25    1    1    2    0    0  0.77053594625E+02  0.78954859049E+02 -0.64164215210E+02  0.17864258374E+03  0.12500000000E+03 0.  0.
         25    1    1    2    0    0 -0.77053594625E+02 -0.78954859049E+02 -0.67775122248E+03  0.69795619188E+03  0.12500000000E+03 0.  0.
</event>
<event>
 4    0  0.2225052E-002  0.2000528E+03  0.7546771E-02  0.1149694E+00
         21   -1    0    0  502  501  0.00000000000E+00  0.00000000000E+00  0.21284599969E+03  0.21284599969E+03  0.00000000000E+00 0.  1.
         21   -1    0    0  501  502 -0.00000000000E+00 -0.00000000000E+00 -0.18802855556E+03  0.18802855556E+03  0.00000000000E+00 0.  1.
         25    1    1    2    0    0  0.65852981603E+02 -0.16019441480E+02  0.15340190408E+03  0.20916591947E+03  0.12500000000E+03 0.  0.
         25    1    1    2    0    0 -0.65852981603E+02  0.16019441480E+02 -0.12858445996E+03  0.19170863578E+03  0.12500000000E+03 0.  0.
</event>
<event>
 4    0  0.2225052E-002  0.2331988E+03  0.7546771E-02  0.1124408E+00
         21   -1    0    0  502  501  0.00000000000E+00  0.00000000000E+00  0.13466532235E+04  0.13466532235E+04  0.00000000000E+00 0. -1.
         21   -1    0    0  501  502 -0.00000000000E+00 -0.00000000000E+00 -0.40382841744E+02  0.40382841744E+02  0.00000000000E+00 0. -1.
         25    1    1    2    0    0  0.11674029142E+02 -0.11875127675E+03  0.11188056554E+04  0.11320729850E+04  0.12500000000E+03 0.  0.
         25    1    1    2    0    0 -0.11674029142E+02  0.11875127675E+03  0.18746472634E+03  0.25496308029E+03  0.12500000000E+03 0.  0.
</event>
<event>
 4    0  0.2225052E-002  0.2000531E+03  0.7546771E-02  0.1149694E+00
         21   -1    0    0  502  501  0.00000000000E+00  0.00000000000E+00  0.64083445962E+02  0.64083445962E+02  0.00000000000E+00 0. -1.
         21   -1    0    0  501  502 -0.00000000000E+00 -0.00000000000E+00 -0.62451792637E+03  0.62451792637E+03  0.00000000000E+00 0. -1.
         25    1    1    2    0    0  0.36655409962E+02 -0.12202729719E+03 -0.43570287828E+03  0.47084634275E+03  0.12500000000E+03 0.  0.
         25    1    1    2    0    0 -0.36655409962E+02  0.12202729719E+03 -0.12473160213E+03  0.21775502958E+03  0.12500000000E+03 0.  0.
</event>
<event>
 4    0  0.2225052E-002  0.2140911E+03  0.7546771E-02  0.1138367E+00
         21   -1    0    0  502  501  0.00000000000E+00  0.00000000000E+00  0.19729043949E+03  0.19729043949E+03  0.00000000000E+00 0. -1.
         21   -1    0    0  501  502 -0.00000000000E+00 -0.00000000000E+00 -0.23232237962E+03  0.23232237962E+03  0.00000000000E+00 0. -1.
         25    1    1    2    0    0 -0.11465607086E+03  0.93874006913E+02  0.73626090859E+02  0.20737440781E+03  0.12500000000E+03 0.  0.
         25    1    1    2    0    0  0.11465607086E+03 -0.93874006913E+02 -0.10865803099E+03  0.22223841130E+03  0.12500000000E+03 0.  0.
</event>
<event>
 4    0  0.2225052E-002  0.1792224E+03  0.7546771E-02  0.1168558E+00
         21   -1    0    0  502  501  0.00000000000E+00  0.00000000000E+00  0.13062025911E+03  0.13062025911E+03  0.00000000000E+00 0. -1.
         21   -1    0    0  501  502 -0.00000000000E+00 -0.00000000000E+00 -0.24590878576E+03  0.24590878576E+03  0.00000000000E+00 0. -1.
         25    1    1    2    0    0  0.21304693300E+02  0.10486952639E+03  0.16961211350E+02  0.16542125079E+03  0.12500000000E+03 0.  0.
         25    1    1    2    0    0 -0.21304693300E+02 -0.10486952639E+03 -0.13224973800E+03  0.21110779408E+03  0.12500000000E+03 0.  0.
</event>
<event>
 4    0  0.2225052E-002  0.1875668E+03  0.7546771E-02  0.1160674E+00
         21   -1    0    0  502  501  0.00000000000E+00  0.00000000000E+00  0.17439851185E+03  0.17439851185E+03  0.00000000000E+00 0. -1.
         21   -1    0    0  501  502 -0.00000000000E+00 -0.00000000000E+00 -0.20172938059E+03  0.20172938059E+03  0.00000000000E+00 0. -1.
         25    1    1    2    0    0 -0.29328466516E+01 -0.12333972143E+03  0.52349910641E+02  0.18326702272E+03  0.12500000000E+03 0.  0.
         25    1    1    2    0    0  0.29328466516E+01  0.12333972143E+03 -0.79680779377E+02  0.19286086973E+03  0.12500000000E+03 0.  0.
</event>
<event>
 4    0  0.2225052E-002  0.1734805E+03  0.7546771E-02  0.1174266E+00
         21   -1    0    0  502  501  0.00000000000E+00  0.00000000000E+00  0.99501175604E+02  0.99501175604E+02  0.00000000000E+00 0.  1.
         21   -1    0    0  501  502 -0.00000000000E+00 -0.00000000000E+00 -0.30246372621E+03  0.30246372621E+03  0.00000000000E+00 0.  1.
         25    1    1    2    0    0  0.74774297480E+02  0.55161673454E+02 -0.18998942799E+03  0.24567252295E+03  0.12500000000E+03 0.  0.
         25    1    1    2    0    0 -0.74774297480E+02 -0.55161673454E+02 -0.12973122615E+02  0.15629237887E+03  0.12500000000E+03 0.  0.
</event>
<event>
 4    0  0.2225052E-002  0.1553711E+03  0.7546771E-02  0.1194024E+00
         21   -1    0    0  502  501  0.00000000000E+00  0.00000000000E+00  0.92362165443E+02  0.92362165443E+02  0.00000000000E+00 0. -1.
         21   -1    0    0  501  502 -0.00000000000E+00 -0.00000000000E+00 -0.26136448872E+03  0.26136448872E+03  0.00000000000E+00 0. -1.
         25    1    1    2    0    0  0.70735289331E+02  0.57839450086E+02 -0.99181048835E+02  0.18387703389E+03  0.12500000000E+03 0.  0.
         25    1    1    2    0    0 -0.70735289331E+02 -0.57839450086E+02 -0.69821274440E+02  0.16984962027E+03  0.12500000000E+03 0.  0.
</event>
<event>
 4    0  0.2225052E-002  0.1492895E+03  0.7546771E-02  0.1201349E+00
         21   -1    0    0  502  501  0.00000000000E+00  0.00000000000E+00  0.48420880649E+03  0.48420880649E+03  0.00000000000E+00 0.  1.
         21   -1    0    0  501  502 -0.00000000000E+00 -0.00000000000E+00 -0.46028382000E+02  0.46028382000E+02  0.00000000000E+00 0.  1.
         25    1    1    2    0    0 -0.48307791680E+02 -0.45365274720E+01  0.10252870767E+03  0.16879383494E+03  0.12500000000E+03 0.  0.
         25    1    1    2    0    0  0.48307791680E+02  0.45365274720E+01  0.33565171682E+03  0.36144335355E+03  0.12500000000E+03 0.  0.
</event>
<event>
 4    0  0.2225052E-002  0.2246354E+03  0.7546771E-02  0.1130474E+00
         21   -1    0    0  502  501  0.00000000000E+00  0.00000000000E+00  0.15814927577E+03  0.15814927577E+03  0.00000000000E+00 0.  1.
         21   -1    0    0  501  502 -0.00000000000E+00 -0.00000000000E+00 -0.31907247643E+03  0.31907247643E+03  0.00000000000E+00 0.  1.
         25    1    1    2    0    0 -0.13954011487E+03  0.31511155113E+02  0.46878678805E+02  0.19567065974E+03  0.12500000000E+03 0.  0.
         25    1    1    2    0    0  0.13954011487E+03 -0.31511155113E+02 -0.20780187947E+03  0.28155109246E+03  0.12500000000E+03 0.  0.
</event>
<event>
 4    0  0.2225052E-002  0.1643209E+03  0.7546771E-02  0.1183903E+00
         21   -1    0    0  502  501  0.00000000000E+00  0.00000000000E+00  0.22060885387E+03  0.22060885387E+03  0.00000000000E+00 0.  1.
         21   -1    0    0  501  502 -0.00000000000E+00 -0.00000000000E+00 -0.12239464824E+03  0.12239464824E+03  0.00000000000E+00 0.  1.
         25    1    1    2    0    0  0.93189482312E+02  0.46500708498E+02  0.73129169025E+02  0.17838013025E+03  0.12500000000E+03 0.  0.
         25    1    1    2    0    0 -0.93189482312E+02 -0.46500708498E+02  0.25085036607E+02  0.16462337187E+03  0.12500000000E+03 0.  0.
</event>
<event>
 4    0  0.2225052E-002  0.2521117E+03  0.7546771E-02  0.1111978E+00
         21   -1    0    0  502  501  0.00000000000E+00  0.00000000000E+00  0.52992975095E+03  0.52992975095E+03  0.00000000000E+00 0.  1.
         21   -1    0    0  501  502 -0.00000000000E+00 -0.00000000000E+00 -0.11994096979E+03  0.11994096979E+03  0.00000000000E+00 0.  1.
         25    1    1    2    0    0  0.10751815702E+03  0.14765014819E+03  0.49397150294E+02  0.22677257067E+03  0.12500000000E+03 0.  0.
         25    1    1    2    0    0 -0.10751815702E+03 -0.14765014819E+03  0.36059163087E+03  0.42309815008E+03  0.12500000000E+03 0.  0.
</event>
<event>
 4    0  0.2225052E-002  0.3172708E+03  0.7546771E-02  0.1076912E+00
         21   -1    0    0  502  501  0.00000000000E+00  0.00000000000E+00  0.19643326923E+03  0.19643326923E+03  0.00000000000E+00 0. -1.
         21   -1    0    0  501  502 -0.00000000000E+00 -0.00000000000E+00 -0.51244268357E+03  0.51244268357E+03  0.00000000000E+00 0.  1.
         25    1    1    2    0    0 -0.23108120188E+03 -0.17311990896E+03 -0.11239602649E+03  0.33410610816E+03  0.12500000000E+03 0.  0.
         25    1    1    2    0    0  0.23108120188E+03  0.17311990896E+03 -0.20361338786E+03  0.37476984464E+03  0.12500000000E+03 0.  0.
</event>
<event>
 4    0  0.2225052E-002  0.1887572E+03  0.7546771E-02  0.1159587E+00
         21   -1    0    0  502  501  0.00000000000E+00  0.00000000000E+00  0.27357533641E+03  0.27357533641E+03  0.00000000000E+00 0. -1.
         21   -1    0    0  501  502 -0.00000000000E+00 -0.00000000000E+00 -0.13023566020E+03  0.13023566020E+03  0.00000000000E+00 0. -1.
         25    1    1    2    0    0 -0.14057030001E+03 -0.10913489820E+02  0.83636195257E+02  0.20615316311E+03  0.12500000000E+03 0.  0.
         25    1    1    2    0    0  0.14057030001E+03  0.10913489820E+02  0.59703480955E+02  0.19765783350E+03  0.12500000000E+03 0.  0.
</event>
<event>
 4    0  0.2225052E-002  0.1628322E+03  0.7546771E-02  0.1185536E+00
         21   -1    0    0  502  501  0.00000000000E+00  0.00000000000E+00  0.19510587836E+03  0.19510587836E+03  0.00000000000E+00 0. -1.
         21   -1    0    0  501  502 -0.00000000000E+00 -0.00000000000E+00 -0.13589719470E+03  0.13589719470E+03  0.00000000000E+00 0. -1.
         25    1    1    2    0    0 -0.48921184610E+01  0.34234276508E+02 -0.70464803374E+02  0.14760151431E+03  0.12500000000E+03 0.  0.
         25    1    1    2    0    0  0.48921184610E+01 -0.34234276508E+02  0.12967348704E+03  0.18340155875E+03  0.12500000000E+03 0.  0.
</event>
<event>
 4    0  0.2225052E-002  0.1523382E+03  0.7546771E-02  0.1197629E+00
         21   -1    0    0  502  501  0.00000000000E+00  0.00000000000E+00  0.35012090515E+03  0.35012090515E+03  0.00000000000E+00 0. -1.
         21   -1    0    0  501  502 -0.00000000000E+00 -0.00000000000E+00 -0.66282568281E+02  0.66282568281E+02  0.00000000000E+00 0. -1.
         25    1    1    2    0    0 -0.49808284211E+02  0.69230193040E+02  0.16591366848E+03  0.22455740957E+03  0.12500000000E+03 0.  0.
         25    1    1    2    0    0  0.49808284211E+02 -0.69230193040E+02  0.11792466839E+03  0.19184606386E+03  0.12500000000E+03 0.  0.
</event>
<event>
 4    0  0.2225052E-002  0.2145325E+03  0.7546771E-02  0.1138026E+00
         21   -1    0    0  502  501  0.00000000000E+00  0.00000000000E+00  0.24135205633E+03  0.24135205633E+03  0.00000000000E+00 0. -1.
         21   -1    0    0  501  502 -0.00000000000E+00 -0.00000000000E+00 -0.19069327303E+03  0.19069327303E+03  0.00000000000E+00 0. -1.
         25    1    1    2    0    0  0.48381707026E+02  0.80397823436E+02  0.17330115639E+03  0.23337285702E+03  0.12500000000E+03 0.  0.
         25    1    1    2    0    0 -0.48381707026E+02 -0.80397823436E+02 -0.12264237309E+03  0.19867247234E+03  0.12500000000E+03 0.  0.
</event>
<event>
 4    0  0.2225052E-002  0.2163914E+03  0.7546771E-02  0.1136602E+00
         21   -1    0    0  502  501  0.00000000000E+00  0.00000000000E+00  0.78796809817E+02  0.78796809817E+02  0.00000000000E+00 0.  1.
         21   -1    0    0  501  502 -0.00000000000E+00 -0.00000000000E+00 -0.59425283523E+03  0.59425283523E+03  0.00000000000E+00 0.  1.
         25    1    1    2    0    0 -0.15390591527E+03 -0.86272511520E+02 -0.27076275043E+03  0.34650749490E+03  0.12500000000E+03 0.  0.
         25    1    1    2    0    0  0.15390591527E+03  0.86272511520E+02 -0.24469327498E+03  0.32654215015E+03  0.12500000000E+03 0.  0.
</event>
<event>
 4    0  0.2225052E-002  0.1501076E+03  0.7546771E-02  0.1200341E+00
         21   -1    0    0  502  501  0.00000000000E+00  0.00000000000E+00  0.22145295032E+03  0.22145295032E+03  0.00000000000E+00 0. -1.
         21   -1    0    0  501  502 -0.00000000000E+00 -0.00000000000E+00 -0.10174757006E+03  0.10174757006E+03  0.00000000000E+00 0. -1.
         25    1    1    2    0    0 -0.68831775410E+02  0.46219351706E+02  0.66061181092E+02  0.16389972979E+03  0.12500000000E+03 0.  0.
         25    1    1    2    0    0  0.68831775410E+02 -0.46219351706E+02  0.53644199168E+02  0.15930079059E+03  0.12500000000E+03 0.  0.
</event>
<event>
 4    0  0.2225052E-002  0.3117512E+03  0.7546771E-02  0.1079509E+00
         21   -1    0    0  502  501  0.00000000000E+00  0.00000000000E+00  0.16411231669E+03  0.16411231669E+03  0.00000000000E+00 0.  1.
         21   -1    0    0  501  502 -0.00000000000E+00 -0.00000000000E+00 -0.59220930312E+03  0.59220930312E+03  0.00000000000E+00 0.  1.
         25    1    1    2    0    0  0.14143529308E+03  0.45303765567E+02 -0.50995468461E+03  0.54565112815E+03  0.12500000000E+03 0.  0.
         25    1    1    2    0    0 -0.14143529308E+03 -0.45303765567E+02  0.81857698179E+02  0.21067049165E+03  0.12500000000E+03 0.  0.
</event>
<event>
 4    0  0.2225052E-002  0.3048786E+03  0.7546771E-02  0.1082827E+00
         21   -1    0    0  502  501  0.00000000000E+00  0.00000000000E+00  0.74625278786E+02  0.74625278786E+02  0.00000000000E+00 0. -1.
         21   -1    0    0  501  502 -0.00000000000E+00 -0.00000000000E+00 -0.12455694468E+04  0.12455694468E+04  0.00000000000E+00 0. -1.
         25    1    1    2    0    0 -0.50449642896E+02  0.27213647414E+03 -0.52727355004E+03  0.60847828523E+03  0.12500000000E+03 0.  0.
         25    1    1    2    0    0  0.50449642896E+02 -0.27213647414E+03 -0.64367061799E+03  0.71171644037E+03  0.12500000000E+03 0.  0.
</event>
<event>
 4    0  0.2225052E-002  0.2062455E+03  0.7546771E-02  0.1144574E+00
         21   -1    0    0  502  501  0.00000000000E+00  0.00000000000E+00  0.29754274830E+03  0.29754274830E+03  0.00000000000E+00 0. -1.
         21   -1    0    0  501  502 -0.00000000000E+00 -0.00000000000E+00 -0.14296167136E+03  0.14296167136E+03  0.00000000000E+00 0. -1.
         25    1    1    2    0    0 -0.16266780389E+02  0.13638119892E+03  0.17309230845E+03  0.25387080732E+03  0.12500000000E+03 0.  0.
         25    1    1    2    0    0  0.16266780389E+02 -0.13638119892E+03 -0.18511231506E+02  0.18663361234E+03  0.12500000000E+03 0.  0.
</event>
<event>
 4    0  0.2225052E-002  0.1653216E+03  0.7546771E-02  0.1182816E+00
         21   -1    0    0  502  501  0.00000000000E+00  0.00000000000E+00  0.12597448797E+03  0.12597448797E+03  0.00000000000E+00 0. -1.
         21   -1    0    0  501  502 -0.00000000000E+00 -0.00000000000E+00 -0.21695853696E+03  0.21695853696E+03  0.00000000000E+00 0. -1.
         25    1    1    2    0    0  0.59382243709E+02 -0.84076756501E+01  0.47906785966E+02  0.14668674112E+03  0.12500000000E+03 0.  0.
         25    1    1    2    0    0 -0.59382243709E+02  0.84076756501E+01 -0.13889083496E+03  0.19624628382E+03  0.12500000000E+03 0.  0.
</event>
<event>
 4    0  0.2225052E-002  0.2889385E+03  0.7546771E-02  0.1090905E+00
         21   -1    0    0  502  501  0.00000000000E+00  0.00000000000E+00  0.49166419638E+02  0.49166419638E+02  0.00000000000E+00 0. -1.
         21   -1    0    0  501  502 -0.00000000000E+00 -0.00000000000E+00 -0.16980178682E+04  0.16980178682E+04  0.00000000000E+00 0. -1.
         25    1    1    2    0    0 -0.15844008211E+03 -0.19062703610E+03 -0.10666519566E+04  0.11021857026E+04  0.12500000000E+03 0.  0.
         25    1    1    2    0    0  0.15844008211E+03  0.19062703610E+03 -0.58219949202E+03  0.64499858529E+03  0.12500000000E+03 0.  0.
</event>
<event>
 4    0  0.2225052E-002  0.3101528E+03  0.7546771E-02  0.1080273E+00
         21   -1    0    0  502  501  0.00000000000E+00  0.00000000000E+00  0.70533680490E+03  0.70533680490E+03  0.00000000000E+00 0.  1.
         21   -1    0    0  501  502 -0.00000000000E+00 -0.00000000000E+00 -0.13638129885E+03  0.13638129885E+03  0.00000000000E+00 0.  1.
         25    1    1    2    0    0  0.79770000549E+02 -0.75648295485E+02 -0.70625797637E+02  0.18082842943E+03  0.12500000000E+03 0.  0.
         25    1    1    2    0    0 -0.79770000549E+02  0.75648295485E+02  0.63958130368E+03  0.66088967432E+03  0.12500000000E+03 0.  0.
</event>
<event>
 4    0  0.2225052E-002  0.1970468E+03  0.7546771E-02  0.1152255E+00
         21   -1    0    0  502  501  0.00000000000E+00  0.00000000000E+00  0.19868339902E+03  0.19868339902E+03  0.00000000000E+00 0.  1.
         21   -1    0    0  501  502 -0.00000000000E+00 -0.00000000000E+00 -0.19542375967E+03  0.19542375967E+03  0.00000000000E+00 0.  1.
         25    1    1    2    0    0 -0.57756076370E+02 -0.13750253621E+03 -0.29350991453E+02  0.19679733870E+03  0.12500000000E+03 0.  0.
         25    1    1    2    0    0  0.57756076370E+02  0.13750253621E+03  0.32610630804E+02  0.19730981998E+03  0.12500000000E+03 0.  0.
</event>
<event>
 4    0  0.2225052E-002  0.1934790E+03  0.7546771E-02  0.1155360E+00
         21   -1    0    0  502  501  0.00000000000E+00  0.00000000000E+00  0.55010561249E+03  0.55010561249E+03  0.00000000000E+00 0. -1.
         21   -1    0    0  501  502 -0.00000000000E+00 -0.00000000000E+00 -0.68048951625E+02  0.68048951625E+02  0.00000000000E+00 0. -1.
         25    1    1    2    0    0 -0.47276793175E+02 -0.56077016386E+02  0.36268878805E+02  0.14939932567E+03  0.12500000000E+03 0.  0.
         25    1    1    2    0    0  0.47276793175E+02  0.56077016386E+02  0.44578778206E+03  0.46875523845E+03  0.12500000000E+03 0.  0.
</event>
<event>
 4    0  0.2225052E-002  0.2916890E+03  0.7546771E-02  0.1089471E+00
         21   -1    0    0  502  501  0.00000000000E+00  0.00000000000E+00  0.19350561322E+03  0.19350561322E+03  0.00000000000E+00 0.  1.
         21   -1    0    0  501  502 -0.00000000000E+00 -0.00000000000E+00 -0.43968979784E+03  0.43968979784E+03  0.00000000000E+00 0.  1.
         25    1    1    2    0    0 -0.99207674770E+02  0.12110822818E+03 -0.35320625528E+03  0.40606529577E+03  0.12500000000E+03 0.  0.
         25    1    1    2    0    0  0.99207674770E+02 -0.12110822818E+03  0.10702207065E+03  0.22713011529E+03  0.12500000000E+03 0.  0.
</event>
<event>
 4    0  0.2225052E-002  0.1978340E+03  0.7546771E-02  0.1151579E+00
         21   -1    0    0  502  501  0.00000000000E+00  0.00000000000E+00  0.35545838675E+03  0.35545838675E+03  0.00000000000E+00 0. -1.
         21   -1    0    0  501  502 -0.00000000000E+00 -0.00000000000E+00 -0.11010655475E+03  0.11010655475E+03  0.00000000000E+00 0. -1.
         25    1    1    2    0    0 -0.14558305389E+03  0.47990319812E+02  0.11799851501E+03  0.23031748939E+03  0.12500000000E+03 0.  0.
         25    1    1    2    0    0  0.14558305389E+03 -0.47990319812E+02  0.12735331699E+03  0.23524745211E+03  0.12500000000E+03 0.  0.
</event>
<event>
 4    0  0.2225052E-002  0.2963891E+03  0.7546771E-02  0.1087060E+00
         21   -1    0    0  502  501  0.00000000000E+00  0.00000000000E+00  0.11672942289E+03  0.11672942289E+03  0.00000000000E+00 0. -1.
         21   -1    0    0  501  502 -0.00000000000E+00 -0.00000000000E+00 -0.75256520582E+03  0.75256520582E+03  0.00000000000E+00 0. -1.
         25    1    1    2    0    0  0.50654745478E+02  0.25153903464E+03 -0.43508654518E+03  0.52034900882E+03  0.12500000000E+03 0.  0.
         25    1    1    2    0    0 -0.50654745478E+02 -0.25153903464E+03 -0.20074923775E+03  0.34894561989E+03  0.12500000000E+03 0.  0.
</event>
<event>
 4    0  0.2225052E-002  0.2674700E+03  0.7546771E-02  0.1102736E+00
         21   -1    0    0  502  501  0.00000000000E+00  0.00000000000E+00  0.92373024980E+03  0.92373024980E+03  0.00000000000E+00 0. -1.
         21   -1    0    0  501  502 -0.00000000000E+00 -0.00000000000E+00 -0.77447089631E+02  0.77447089631E+02  0.00000000000E+00 0.  1.
         25    1    1    2    0    0 -0.13060425805E+03  0.16051921181E+03  0.63728156347E+03  0.68159862142E+03  0.12500000000E+03 0.  0.
         25    1    1    2    0    0  0.13060425805E+03 -0.16051921181E+03  0.20900159670E+03  0.31957871801E+03  0.12500000000E+03 0.  0.
</event>
<event>
 4    0  0.2225052E-002  0.2642414E+03  0.7546771E-02  0.1104621E+00
         21   -1    0    0  502  501  0.00000000000E+00  0.00000000000E+00  0.14258520354E+04  0.14258520354E+04  0.00000000000E+00 0. -1.
         21   -1    0    0  501  502 -0.00000000000E+00 -0.00000000000E+00 -0.48969675224E+02  0.48969675224E+02  0.00000000000E+00 0. -1.
         25    1    1    2    0    0 -0.17708282636E+03  0.44080538783E+02  0.10918557592E+04  0.11140356458E+04  0.12500000000E+03 0.  0.
         25    1    1    2    0    0  0.17708282636E+03 -0.44080538783E+02  0.28502660104E+03  0.36078606486E+03  0.12500000000E+03 0.  0.
</event>
<event>
 4    0  0.2225052E-002  0.2546247E+03  0.7546771E-02  0.1110417E+00
         21   -1    0    0  502  501  0.00000000000E+00  0.00000000000E+00  0.15348940814E+03  0.15348940814E+03  0.00000000000E+00 0. -1.
         21   -1    0    0  501  502 -0.00000000000E+00 -0.00000000000E+00 -0.42239881567E+03  0.42239881567E+03  0.00000000000E+00 0. -1.
         25    1    1    2    0    0 -0.10386517579E+03  0.19427035365E+03 -0.10496991876E+03  0.27417627340E+03  0.12500000000E+03 0.  0.
         25    1    1    2    0    0  0.10386517579E+03 -0.19427035365E+03 -0.16393948877E+03  0.30171195042E+03  0.12500000000E+03 0.  0.
</event>
<event>
 4    0  0.2225052E-002  0.2513720E+03  0.7546771E-02  0.1112441E+00
         21   -1    0    0  502  501  0.00000000000E+00  0.00000000000E+00  0.11781559550E+03  0.11781559550E+03  0.00000000000E+00 0.  1.
         21   -1    0    0  501  502 -0.00000000000E+00 -0.00000000000E+00 -0.53632868913E+03  0.53632868913E+03  0.00000000000E+00 0.  1.
         25    1    1    2    0    0 -0.21218975300E+03  0.16825314594E+02 -0.27104807632E+03  0.36660556756E+03  0.12500000000E+03 0.  0.
         25    1    1    2    0    0  0.21218975300E+03 -0.16825314594E+02 -0.14746501731E+03  0.28753871708E+03  0.12500000000E+03 0.  0.
</event>
<event>
 4    0  0.2225052E-002  0.2838518E+03  0.7546771E-02  0.1093604E+00
         21   -1    0    0  502  501  0.00000000000E+00  0.00000000000E+00  0.21082698257E+04  0.21082698257E+04  0.00000000000E+00 0. -1.
         21   -1    0    0  501  502 -0.00000000000E+00 -0.00000000000E+00 -0.38217045476E+02  0.38217045476E+02  0.00000000000E+00 0. -1.
         25    1    1    2    0    0 -0.11298956181E+03  0.17122351349E+03  0.46332341201E+03  0.52189818620E+03  0.12500000000E+03 0.  0.
         25    1    1    2    0    0  0.11298956181E+03 -0.17122351349E+03  0.16067293682E+04  0.16245886850E+04  0.12500000000E+03 0.  0.
</event>
<event>
 4    0  0.2225052E-002  0.1897658E+03  0.7546771E-02  0.1158673E+00
         21   -1    0    0  502  501  0.00000000000E+00  0.00000000000E+00  0.89596579684E+03  0.89596579684E+03  0.00000000000E+00 0. -1.
         21   -1    0    0  501  502 -0.00000000000E+00 -0.00000000000E+00 -0.40192443250E+02  0.40192443250E+02  0.00000000000E+00 0. -1.
         25    1    1    2    0    0 -0.32369143150E+02 -0.13245620571E+03  0.32342192254E+03  0.37258441706E+03  0.12500000000E+03 0.  0.
         25    1    1    2    0    0  0.32369143150E+02  0.13245620571E+03  0.53235143105E+03  0.56357382303E+03  0.12500000000E+03 0.  0.
</event>
<event>
 4    0  0.2225052E-002  0.2345200E+03  0.7546771E-02  0.1123498E+00
         21   -1    0    0  502  501  0.00000000000E+00  0.00000000000E+00  0.23160069538E+03  0.23160069538E+03  0.00000000000E+00 0.  1.
         21   -1    0    0  501  502 -0.00000000000E+00 -0.00000000000E+00 -0.23747615059E+03  0.23747615059E+03  0.00000000000E+00 0.  1.
         25    1    1    2    0    0 -0.13191726201E+01 -0.30221902873E+02 -0.19906414817E+03  0.23699501834E+03  0.12500000000E+03 0.  0.
         25    1    1    2    0    0  0.13191726201E+01  0.30221902873E+02  0.19318869296E+03  0.23208182763E+03  0.12500000000E+03 0.  0.
</event>
<event>
 4    0  0.2225052E-002  0.2629830E+03  0.7546771E-02  0.1105364E+00
         21   -1    0    0  502  501  0.00000000000E+00  0.00000000000E+00  0.16658375195E+03  0.16658375195E+03  0.00000000000E+00 0.  1.
         21   -1    0    0  501  502 -0.00000000000E+00 -0.00000000000E+00 -0.41516698222E+03  0.41516698222E+03  0.00000000000E+00 0.  1.
         25    1    1    2    0    0 -0.14538496015E+03 -0.89221239576E+02 -0.29719790171E+03  0.36475856263E+03  0.12500000000E+03 0.  0.
         25    1    1    2    0    0  0.14538496015E+03  0.89221239576E+02  0.48614671445E+02  0.21699217154E+03  0.12500000000E+03 0.  0.
</event>
<event>
 4    0  0.2225052E-002  0.3974830E+03  0.7546771E-02  0.1044655E+00
         21   -1    0    0  502  501  0.00000000000E+00  0.00000000000E+00  0.44564140336E+03  0.44564140336E+03  0.00000000000E+00 0.  1.
         21   -1    0    0  501  502 -0.00000000000E+00 -0.00000000000E+00 -0.35452878942E+03  0.35452878942E+03  0.00000000000E+00 0.  1.
         25    1    1    2    0    0 -0.19522086221E+03  0.26973598956E+03 -0.13308519503E+03  0.37974380606E+03  0.12500000000E+03 0.  0.
         25    1    1    2    0    0  0.19522086221E+03 -0.26973598956E+03  0.22419780897E+03  0.42042638672E+03  0.12500000000E+03 0.  0.
</event>
<event>
 4    0  0.2225052E-002  0.1814609E+03  0.7546771E-02  0.1166397E+00
         21   -1    0    0  502  501  0.00000000000E+00  0.00000000000E+00  0.23485924062E+03  0.23485924062E+03  0.00000000000E+00 0. -1.
         21   -1    0    0  501  502 -0.00000000000E+00 -0.00000000000E+00 -0.14020334645E+03  0.14020334645E+03  0.00000000000E+00 0. -1.
         25    1    1    2    0    0 -0.96847802591E+02  0.78296458317E+02  0.35649127367E+01  0.17648665914E+03  0.12500000000E+03 0.  0.
         25    1    1    2    0    0  0.96847802591E+02 -0.78296458317E+02  0.91090981438E+02  0.19857592792E+03  0.12500000000E+03 0.  0.
</event>
<event>
 4    0  0.2225052E-002  0.2616335E+03  0.7546771E-02  0.1106166E+00
         21   -1    0    0  502  501  0.00000000000E+00  0.00000000000E+00  0.41831222230E+03  0.41831222230E+03  0.00000000000E+00 0.  1.
         21   -1    0    0  501  502 -0.00000000000E+00 -0.00000000000E+00 -0.16363872316E+03  0.16363872316E+03  0.00000000000E+00 0.  1.
         25    1    1    2    0    0 -0.41414263202E+02  0.13654079101E+03  0.32773526762E+03  0.37867391572E+03  0.12500000000E+03 0.  0.
         25    1    1    2    0    0  0.41414263202E+02 -0.13654079101E+03 -0.73061768477E+02  0.20327702974E+03  0.12500000000E+03 0.  0.
</event>
<event>
 4    0  0.2225052E-002  0.1597729E+03  0.7546771E-02  0.1188953E+00
         21   -1    0    0  502  501  0.00000000000E+00  0.00000000000E+00  0.69433781852E+02  0.69433781852E+02  0.00000000000E+00 0. -1.
         21   -1    0    0  501  502 -0.00000000000E+00 -0.00000000000E+00 -0.36765085876E+03  0.36765085876E+03  0.00000000000E+00 0. -1.
         25    1    1    2    0    0  0.15413099017E+02 -0.88824723925E+02 -0.91480898882E+02  0.17922374302E+03  0.12500000000E+03 0.  0.
         25    1    1    2    0    0 -0.15413099017E+02  0.88824723925E+02 -0.20673617802E+03  0.25786089759E+03  0.12500000000E+03 0.  0.
</event>
<event>
 4    0  0.2225052E-002  0.2103140E+03  0.7546771E-02  0.1141318E+00
         21   -1    0    0  502  501  0.00000000000E+00  0.00000000000E+00  0.12395208316E+04  0.12395208316E+04  0.00000000000E+00 0. -1.
         21   -1    0    0  501  502 -0.00000000000E+00 -0.00000000000E+00 -0.35684749216E+02  0.35684749216E+02  0.00000000000E+00 0. -1.
         25    1    1    2    0    0 -0.14791578645E+03  0.40467120551E+02  0.38561899220E+03  0.43340936177E+03  0.12500000000E+03 0.  0.
         25    1    1    2    0    0  0.14791578645E+03 -0.40467120551E+02  0.81821709016E+03  0.84179621902E+03  0.12500000000E+03 0.  0.
</event>
<event>
 4    0  0.2225052E-002  0.2038887E+03  0.7546771E-02  0.1146499E+00
         21   -1    0    0  502  501  0.00000000000E+00  0.00000000000E+00  0.21249141519E+03  0.21249141519E+03  0.00000000000E+00 0.  1.
         21   -1    0    0  501  502 -0.00000000000E+00 -0.00000000000E+00 -0.19563433648E+03  0.19563433648E+03  0.00000000000E+00 0.  1.
         25    1    1    2    0    0 -0.12083844070E+03  0.35704465240E+02 -0.92000969246E+02  0.19991477167E+03  0.12500000000E+03 0.  0.
         25    1    1    2    0    0  0.12083844070E+03 -0.35704465240E+02  0.10885804796E+03  0.20821098000E+03  0.12500000000E+03 0.  0.
</event>
<event>
 4    0  0.2225052E-002  0.2014331E+03  0.7546771E-02  0.1148536E+00
         21   -1    0    0  502  501  0.00000000000E+00  0.00000000000E+00  0.68359830283E+02  0.68359830283E+02  0.00000000000E+00 0. -1.
         21   -1    0    0  501  502 -0.00000000000E+00 -0.00000000000E+00 -0.59355449524E+03  0.59355449524E+03  0.00000000000E+00 0. -1.
         25    1    1    2    0    0 -0.44759145286E+02 -0.10187126796E+03 -0.44679915451E+03  0.47711174875E+03  0.12500000000E+03 0.  0.
         25    1    1    2    0    0  0.44759145286E+02  0.10187126796E+03 -0.78395510441E+02  0.18480257677E+03  0.12500000000E+03 0.  0.
</event>
<event>
 4    0  0.2225052E-002  0.3902201E+03  0.7546771E-02  0.1047220E+00
         21   -1    0    0  502  501  0.00000000000E+00  0.00000000000E+00  0.25514434230E+04  0.25514434230E+04  0.00000000000E+00 0.  1.
         21   -1    0    0  501  502 -0.00000000000E+00 -0.00000000000E+00 -0.59680631873E+02  0.59680631873E+02  0.00000000000E+00 0.  1.
         25    1    1    2    0    0 -0.34587201353E+03 -0.74648743187E+02  0.88792409184E+03  0.96396788197E+03  0.12500000000E+03 0.  0.
         25    1    1    2    0    0  0.34587201353E+03  0.74648743187E+02  0.16038386993E+04  0.16471561729E+04  0.12500000000E+03 0.  0.
</event>
<event>
 4    0  0.2225052E-002  0.2159496E+03  0.7546771E-02  0.1136939E+00
         21   -1    0    0  502  501  0.00000000000E+00  0.00000000000E+00  0.16738727182E+03  0.16738727182E+03  0.00000000000E+00 0.  1.
         21   -1    0    0  501  502 -0.00000000000E+00 -0.00000000000E+00 -0.27860080994E+03  0.27860080994E+03  0.00000000000E+00 0.  1.
         25    1    1    2    0    0  0.17085815214E+03 -0.23369834574E+02 -0.92414625443E+02  0.23217260889E+03  0.12500000000E+03 0.  0.
         25    1    1    2    0    0 -0.17085815214E+03  0.23369834574E+02 -0.18798912675E+02  0.21381547287E+03  0.12500000000E+03 0.  0.
</event>
<event>
 4    0  0.2225052E-002  0.4287493E+03  0.7546771E-02  0.1034256E+00
         21   -1    0    0  502  501  0.00000000000E+00  0.00000000000E+00  0.18452145689E+03  0.18452145689E+03  0.00000000000E+00 0.  1.
         21   -1    0    0  501  502 -0.00000000000E+00 -0.00000000000E+00 -0.99623072874E+03  0.99623072874E+03  0.00000000000E+00 0.  1.
         25    1    1    2    0    0  0.24616646657E+03  0.27971963530E+03 -0.16991388693E+03  0.42817838877E+03  0.12500000000E+03 0.  0.
         25    1    1    2    0    0 -0.24616646657E+03 -0.27971963530E+03 -0.64179538492E+03  0.75257379687E+03  0.12500000000E+03 0.  0.
</event>
<event>
 4    0  0.2225052E-002  0.1852452E+03  0.7546771E-02  0.1162821E+00
         21   -1    0    0  502  501  0.00000000000E+00  0.00000000000E+00  0.26294327017E+03  0.26294327017E+03  0.00000000000E+00 0. -1.
         21   -1    0    0  501  502 -0.00000000000E+00 -0.00000000000E+00 -0.13050639606E+03  0.13050639606E+03  0.00000000000E+00 0. -1.
         25    1    1    2    0    0  0.12996347081E+03  0.30972947017E+02  0.35422196937E+02  0.18635868434E+03  0.12500000000E+03 0.  0.
         25    1    1    2    0    0 -0.12996347081E+03 -0.30972947017E+02  0.97014677172E+02  0.20709098189E+03  0.12500000000E+03 0.  0.
</event>
<event>
 4    0  0.2225052E-002  0.2487798E+03  0.7546771E-02  0.1114078E+00
         21   -1    0    0  502  501  0.00000000000E+00  0.00000000000E+00  0.10780187108E+04  0.10780187108E+04  0.00000000000E+00 0. -1.
         21   -1    0    0  501  502 -0.00000000000E+00 -0.00000000000E+00 -0.57412163080E+02  0.57412163080E+02  0.00000000000E+00 0. -1.
         25    1    1    2    0    0  0.81135774827E+02 -0.19893855924E+03  0.48671775807E+03  0.54651508701E+03  0.12500000000E+03 0.  0.
         25    1    1    2    0    0 -0.81135774827E+02  0.19893855924E+03  0.53388878962E+03  0.58891578684E+03  0.12500000000E+03 0.  0.
</event>
<event>
 4    0  0.2225052E-002  0.1859991E+03  0.7546771E-02  0.1162120E+00
         21   -1    0    0  502  501  0.00000000000E+00  0.00000000000E+00  0.15855660192E+03  0.15855660192E+03  0.00000000000E+00 0.  1.
         21   -1    0    0  501  502 -0.00000000000E+00 -0.00000000000E+00 -0.21819120320E+03  0.21819120320E+03  0.00000000000E+00 0.  1.
         25    1    1    2    0    0  0.72829965444E+02 -0.11316437408E+03 -0.11234306770E+00  0.18367196860E+03  0.12500000000E+03 0.  0.
         25    1    1    2    0    0 -0.72829965444E+02  0.11316437408E+03 -0.59522258212E+02  0.19307583652E+03  0.12500000000E+03 0.  0.
</event>
<event>
 4    0  0.2225052E-002  0.2956820E+03  0.7546771E-02  0.1087419E+00
         21   -1    0    0  502  501  0.00000000000E+00  0.00000000000E+00  0.94256139782E+02  0.94256139782E+02  0.00000000000E+00 0.  1.
         21   -1    0    0  501  502 -0.00000000000E+00 -0.00000000000E+00 -0.92755612886E+03  0.92755612886E+03  0.00000000000E+00 0.  1.
         25    1    1    2    0    0 -0.43179122065E+02  0.21476308145E+03 -0.68330128875E+03  0.72836341818E+03  0.12500000000E+03 0.  0.
         25    1    1    2    0    0  0.43179122065E+02 -0.21476308145E+03 -0.14999870033E+03  0.29344885046E+03  0.12500000000E+03 0.  0.
</event>
<event>
 4    0  0.2225052E-002  0.2035650E+03  0.7546771E-02  0.1146766E+00
         21   -1    0    0  502  501  0.00000000000E+00  0.00000000000E+00  0.43432871503E+03  0.43432871503E+03  0.00000000000E+00 0.  1.
         21   -1    0    0  501  502 -0.00000000000E+00 -0.00000000000E+00 -0.95408606519E+02  0.95408606519E+02  0.00000000000E+00 0.  1.
         25    1    1    2    0    0  0.46455979175E+02 -0.14854266414E+03  0.11756687773E+03  0.23166797752E+03  0.12500000000E+03 0.  0.
         25    1    1    2    0    0 -0.46455979175E+02  0.14854266414E+03  0.22135323078E+03  0.29806934403E+03  0.12500000000E+03 0.  0.
</event>
<event>
 4    0  0.2225052E-002  0.1715842E+03  0.7546771E-02  0.1176206E+00
         21   -1    0    0  502  501  0.00000000000E+00  0.00000000000E+00  0.74092262081E+02  0.74092262081E+02  0.00000000000E+00 0.  1.
         21   -1    0    0  501  502 -0.00000000000E+00 -0.00000000000E+00 -0.39735789887E+03  0.39735789887E+03  0.00000000000E+00 0.  1.
         25    1    1    2    0    0  0.76893417740E+02 -0.78079401460E+01 -0.39969956358E+02  0.15230285300E+03  0.12500000000E+03 0.  0.
         25    1    1    2    0    0 -0.76893417740E+02  0.78079401460E+01 -0.28329568043E+03  0.31914730795E+03  0.12500000000E+03 0.  0.
</event>
<event>
 4    0  0.2225052E-002  0.2662155E+03  0.7546771E-02  0.1103465E+00
         21   -1    0    0  502  501  0.00000000000E+00  0.00000000000E+00  0.12394941027E+04  0.12394941027E+04  0.00000000000E+00 0. -1.
         21   -1    0    0  501  502 -0.00000000000E+00 -0.00000000000E+00 -0.57177130316E+02  0.57177130316E+02  0.00000000000E+00 0. -1.
         25    1    1    2    0    0 -0.39618836871E+02  0.20736042479E+03  0.84281355985E+03  0.87779706919E+03  0.12500000000E+03 0.  0.
         25    1    1    2    0    0  0.39618836871E+02 -0.20736042479E+03  0.33950341256E+03  0.41887416385E+03  0.12500000000E+03 0.  0.
</event>
<event>
 4    0  0.2225052E-002  0.4337177E+03  0.7546771E-02  0.1032692E+00
         21   -1    0    0  502  501  0.00000000000E+00  0.00000000000E+00  0.33647471165E+03  0.33647471165E+03  0.00000000000E+00 0.  1.
         21   -1    0    0  501  502 -0.00000000000E+00 -0.00000000000E+00 -0.55906450777E+03  0.55906450777E+03  0.00000000000E+00 0.  1.
         25    1    1    2    0    0  0.19699374298E+03 -0.22361124404E+03 -0.40993759980E+03  0.52199842812E+03  0.12500000000E+03 0.  0.
         25    1    1    2    0    0 -0.19699374298E+03  0.22361124404E+03  0.18734780368E+03  0.37354079131E+03  0.12500000000E+03 0.  0.
</event>
<event>
 4    0  0.2225052E-002  0.1977387E+03  0.7546771E-02  0.1151661E+00
         21   -1    0    0  502  501  0.00000000000E+00  0.00000000000E+00  0.54773198210E+03  0.54773198210E+03  0.00000000000E+00 0.  1.
         21   -1    0    0  501  502 -0.00000000000E+00 -0.00000000000E+00 -0.71386389771E+02  0.71386389771E+02  0.00000000000E+00 0.  1.
         25    1    1    2    0    0 -0.12768619164E+03  0.18821381122E+02  0.36743385872E+03  0.40901179501E+03  0.12500000000E+03 0.  0.
         25    1    1    2    0    0  0.12768619164E+03 -0.18821381122E+02  0.10891173361E+03  0.21010657687E+03  0.12500000000E+03 0.  0.
</event>
<event>
 4    0  0.2225052E-002  0.1899525E+03  0.7546771E-02  0.1158504E+00
         21   -1    0    0  502  501  0.00000000000E+00  0.00000000000E+00  0.49314477687E+02  0.49314477687E+02  0.00000000000E+00 0. -1.
         21   -1    0    0  501  502 -0.00000000000E+00 -0.00000000000E+00 -0.73167062318E+03  0.73167062318E+03  0.00000000000E+00 0. -1.
         25    1    1    2    0    0  0.51349706242E+02  0.89377124774E+02 -0.13733954608E+03  0.21239635986E+03  0.12500000000E+03 0.  0.
         25    1    1    2    0    0 -0.51349706242E+02 -0.89377124774E+02 -0.54501659941E+03  0.56858874101E+03  0.12500000000E+03 0.  0.
</event>
<event>
 4    0  0.2225052E-002  0.2430148E+03  0.7546771E-02  0.1117801E+00
         21   -1    0    0  502  501  0.00000000000E+00  0.00000000000E+00  0.20161237113E+03  0.20161237113E+03  0.00000000000E+00 0. -1.
         21   -1    0    0  501  502 -0.00000000000E+00 -0.00000000000E+00 -0.29291944533E+03  0.29291944533E+03  0.00000000000E+00 0. -1.
         25    1    1    2    0    0 -0.67302983029E+02  0.13789927060E+03  0.97828470987E+02  0.22077434202E+03  0.12500000000E+03 0.  0.
         25    1    1    2    0    0  0.67302983029E+02 -0.13789927060E+03 -0.18913554519E+03  0.27375747444E+03  0.12500000000E+03 0.  0.
</event>
<event>
 4    0  0.2225052E-002  0.3781274E+03  0.7546771E-02  0.1051628E+00
         21   -1    0    0  502  501  0.00000000000E+00  0.00000000000E+00  0.71274777794E+03  0.71274777794E+03  0.00000000000E+00 0. -1.
         21   -1    0    0  501  502 -0.00000000000E+00 -0.00000000000E+00 -0.20060435437E+03  0.20060435437E+03  0.00000000000E+00 0. -1.
         25    1    1    2    0    0 -0.17067664025E+03  0.19358201071E+03  0.55374929355E+03  0.62359264789E+03  0.12500000000E+03 0.  0.
         25    1    1    2    0    0  0.17067664025E+03 -0.19358201071E+03 -0.41605869984E+02  0.28975948442E+03  0.12500000000E+03 0.  0.
</event>
<event>
 4    0  0.2225052E-002  0.2133939E+03  0.7546771E-02  0.1138906E+00
         21   -1    0    0  502  501  0.00000000000E+00  0.00000000000E+00  0.16716445777E+03  0.16716445777E+03  0.00000000000E+00 0. -1.
         21   -1    0    0  501  502 -0.00000000000E+00 -0.00000000000E+00 -0.27240813512E+03  0.27240813512E+03  0.00000000000E+00 0. -1.
         25    1    1    2    0    0 -0.60343947314E+02 -0.61603205514E+02  0.10178778291E+03  0.18281712080E+03  0.12500000000E+03 0.  0.
         25    1    1    2    0    0  0.60343947314E+02  0.61603205514E+02 -0.20703146026E+03  0.25675547209E+03  0.12500000000E+03 0.  0.
</event>
<event>
 4    0  0.2225052E-002  0.1947518E+03  0.7546771E-02  0.1154244E+00
         21   -1    0    0  502  501  0.00000000000E+00  0.00000000000E+00  0.12858275659E+03  0.12858275659E+03  0.00000000000E+00 0. -1.
         21   -1    0    0  501  502 -0.00000000000E+00 -0.00000000000E+00 -0.29497156884E+03  0.29497156884E+03  0.00000000000E+00 0. -1.
         25    1    1    2    0    0  0.96139070812E+02  0.10956343567E+03 -0.11853792890E+03  0.22566148976E+03  0.12500000000E+03 0.  0.
         25    1    1    2    0    0 -0.96139070812E+02 -0.10956343567E+03 -0.47850883352E+02  0.19789283567E+03  0.12500000000E+03 0.  0.
</event>
<event>
 4    0  0.2225052E-002  0.2326025E+03  0.7546771E-02  0.1124821E+00
         21   -1    0    0  502  501  0.00000000000E+00  0.00000000000E+00  0.91029745999E+02  0.91029745999E+02  0.00000000000E+00 0.  1.
         21   -1    0    0  501  502 -0.00000000000E+00 -0.00000000000E+00 -0.59435410408E+03  0.59435410408E+03  0.00000000000E+00 0.  1.
         25    1    1    2    0    0 -0.13878704526E+02 -0.61624053078E+02  0.21945553905E+02  0.14176300538E+03  0.12500000000E+03 0.  0.
         25    1    1    2    0    0  0.13878704526E+02  0.61624053078E+02 -0.52526991199E+03  0.54362084470E+03  0.12500000000E+03 0.  0.
</event>
<event>
 4    0  0.2225052E-002  0.4815050E+03  0.7546771E-02  0.1018722E+00
         21   -1    0    0  502  501  0.00000000000E+00  0.00000000000E+00  0.21654773212E+04  0.21654773212E+04  0.00000000000E+00 0. -1.
         21   -1    0    0  501  502 -0.00000000000E+00 -0.00000000000E+00 -0.10706512208E+03  0.10706512208E+03  0.00000000000E+00 0. -1.
         25    1    1    2    0    0 -0.16753314331E+03 -0.61202332354E+02  0.20425859211E+04  0.20541653596E+04  0.12500000000E+03 0.  0.
         25    1    1    2    0    0  0.16753314331E+03  0.61202332354E+02  0.15826278030E+02  0.21837708367E+03  0.12500000000E+03 0.  0.
</event>
<event>
 4    0  0.2225052E-002  0.1885745E+03  0.7546771E-02  0.1159753E+00
         21   -1    0    0  502  501  0.00000000000E+00  0.00000000000E+00  0.43957750890E+02  0.43957750890E+02  0.00000000000E+00 0.  1.
         21   -1    0    0  501  502 -0.00000000000E+00 -0.00000000000E+00 -0.80896677985E+03  0.80896677985E+03  0.00000000000E+00 0.  1.
         25    1    1    2    0    0 -0.13907948269E+03  0.22409013006E+02 -0.36103881587E+03  0.40720915134E+03  0.12500000000E+03 0.  0.
         25    1    1    2    0    0  0.13907948269E+03 -0.22409013006E+02 -0.40397021308E+03  0.44571537940E+03  0.12500000000E+03 0.  0.
</event>
<event>
 4    0  0.2225052E-002  0.2236259E+03  0.7546771E-02  0.1131208E+00
         21   -1    0    0  502  501  0.00000000000E+00  0.00000000000E+00  0.18788276622E+04  0.18788276622E+04  0.00000000000E+00 0. -1.
         21   -1    0    0  501  502 -0.00000000000E+00 -0.00000000000E+00 -0.26616895717E+02  0.26616895717E+02  0.00000000000E+00 0. -1.
         25    1    1    2    0    0  0.17231510970E+03  0.44015989634E+02  0.11496678826E+04  0.11700389500E+04  0.12500000000E+03 0.  0.
         25    1    1    2    0    0 -0.17231510970E+03 -0.44015989634E+02  0.70254288390E+03  0.73540560787E+03  0.12500000000E+03 0.  0.
</event>
<event>
 4    0  0.2225052E-002  0.2417084E+03  0.7546771E-02  0.1118660E+00
         21   -1    0    0  502  501  0.00000000000E+00  0.00000000000E+00  0.28287473884E+03  0.28287473884E+03  0.00000000000E+00 0. -1.
         21   -1    0    0  501  502 -0.00000000000E+00 -0.00000000000E+00 -0.20653289609E+03  0.20653289609E+03  0.00000000000E+00 0. -1.
         25    1    1    2    0    0  0.11899557011E+03 -0.91552191881E+02  0.18225895670E+03  0.26717985860E+03  0.12500000000E+03 0.  0.
         25    1    1    2    0    0 -0.11899557011E+03  0.91552191881E+02 -0.10591711396E+03  0.22222777633E+03  0.12500000000E+03 0.  0.
</event>
<event>
 4    0  0.2225052E-002  0.1618835E+03  0.7546771E-02  0.1186587E+00
         21   -1    0    0  502  501  0.00000000000E+00  0.00000000000E+00  0.53681490066E+03  0.53681490066E+03  0.00000000000E+00 0. -1.
         21   -1    0    0  501  502 -0.00000000000E+00 -0.00000000000E+00 -0.48818070888E+02  0.48818070888E+02  0.00000000000E+00 0. -1.
         25    1    1    2    0    0  0.14873714504E+02 -0.88318992015E+02  0.15248271064E+03  0.21655818797E+03  0.12500000000E+03 0.  0.
         25    1    1    2    0    0 -0.14873714504E+02  0.88318992015E+02  0.33551411913E+03  0.36907478357E+03  0.12500000000E+03 0.  0.
</event>
<event>
 4    0  0.2225052E-002  0.2601682E+03  0.7546771E-02  0.1107042E+00
         21   -1    0    0  502  501  0.00000000000E+00  0.00000000000E+00  0.63206325993E+02  0.63206325993E+02  0.00000000000E+00 0. -1.
         21   -1    0    0  501  502 -0.00000000000E+00 -0.00000000000E+00 -0.10708976634E+04  0.10708976634E+04  0.00000000000E+00 0. -1.
         25    1    1    2    0    0 -0.15674891355E+03 -0.11826376267E+03 -0.75714350003E+03  0.79211603891E+03  0.12500000000E+03 0.  0.
         25    1    1    2    0    0  0.15674891355E+03  0.11826376267E+03 -0.25054783736E+03  0.34198795047E+03  0.12500000000E+03 0.  0.
</event>
<event>
 4    0  0.2225052E-002  0.2441209E+03  0.7546771E-02  0.1117078E+00
         21   -1    0    0  502  501  0.00000000000E+00  0.00000000000E+00  0.46712516533E+03  0.46712516533E+03  0.00000000000E+00 0. -1.
         21   -1    0    0  501  502 -0.00000000000E+00 -0.00000000000E+00 -0.12757821677E+03  0.12757821677E+03  0.00000000000E+00 0. -1.
         25    1    1    2    0    0 -0.20344757693E+03  0.49897576837E+02  0.18128459667E+03  0.30392398675E+03  0.12500000000E+03 0.  0.
         25    1    1    2    0    0  0.20344757693E+03 -0.49897576837E+02  0.15826235189E+03  0.29077939535E+03  0.12500000000E+03 0.  0.
</event>
<event>
 4    0  0.2225052E-002  0.1823453E+03  0.7546771E-02  0.1165552E+00
         21   -1    0    0  502  501  0.00000000000E+00  0.00000000000E+00  0.56019271655E+03  0.56019271655E+03  0.00000000000E+00 0. -1.
         21   -1    0    0  501  502 -0.00000000000E+00 -0.00000000000E+00 -0.59354224709E+02  0.59354224709E+02  0.00000000000E+00 0. -1.
         25    1    1    2    0    0 -0.67970916215E+02  0.14319036453E+02  0.58220752586E+02  0.15440121854E+03  0.12500000000E+03 0.  0.
         25    1    1    2    0    0  0.67970916215E+02 -0.14319036453E+02  0.44261773925E+03  0.46514572271E+03  0.12500000000E+03 0.  0.
</event>
<event>
 4    0  0.2225052E-002  0.2516116E+03  0.7546771E-02  0.1112291E+00
         21   -1    0    0  502  501  0.00000000000E+00  0.00000000000E+00  0.26070190401E+03  0.26070190401E+03  0.00000000000E+00 0.  1.
         21   -1    0    0  501  502 -0.00000000000E+00 -0.00000000000E+00 -0.24283824193E+03  0.24283824193E+03  0.00000000000E+00 0.  1.
         25    1    1    2    0    0  0.11944264455E+03 -0.12777053202E+03  0.13974878569E+03  0.25641095392E+03  0.12500000000E+03 0.  0.
         25    1    1    2    0    0 -0.11944264455E+03  0.12777053202E+03 -0.12188512361E+03  0.24712919202E+03  0.12500000000E+03 0.  0.
</event>
<event>
 4    0  0.2225052E-002  0.4161639E+03  0.7546771E-02  0.1038322E+00
         21   -1    0    0  502  501  0.00000000000E+00  0.00000000000E+00  0.19041796216E+03  0.19041796216E+03  0.00000000000E+00 0. -1.
         21   -1    0    0  501  502 -0.00000000000E+00 -0.00000000000E+00 -0.90953807620E+03  0.90953807620E+03  0.00000000000E+00 0. -1.
         25    1    1    2    0    0 -0.37609836352E+03  0.12675313663E+03 -0.36900240577E+03  0.55615115945E+03  0.12500000000E+03 0.  0.
         25    1    1    2    0    0  0.37609836352E+03 -0.12675313663E+03 -0.35011770828E+03  0.54380487892E+03  0.12500000000E+03 0.  0.
</event>
<event>
 4    0  0.2225052E-002  0.1648992E+03  0.7546771E-02  0.1183274E+00
         21   -1    0    0  502  501  0.00000000000E+00  0.00000000000E+00  0.14971592034E+03  0.14971592034E+03  0.00000000000E+00 0.  1.
         21   -1    0    0  501  502 -0.00000000000E+00 -0.00000000000E+00 -0.18162231122E+03  0.18162231122E+03  0.00000000000E+00 0.  1.
         25    1    1    2    0    0 -0.22656684202E+02  0.42951556207E+02  0.80456238006E+02  0.15638531822E+03  0.12500000000E+03 0.  0.
         25    1    1    2    0    0  0.22656684202E+02 -0.42951556207E+02 -0.11236262888E+03  0.17495291335E+03  0.12500000000E+03 0.  0.
</event>
<event>
 4    0  0.2225052E-002  0.2917941E+03  0.7546771E-02  0.1089416E+00
         21   -1    0    0  502  501  0.00000000000E+00  0.00000000000E+00  0.74718796145E+03  0.74718796145E+03  0.00000000000E+00 0. -1.
         21   -1    0    0  501  502 -0.00000000000E+00 -0.00000000000E+00 -0.11395228905E+03  0.11395228905E+03  0.00000000000E+00 0. -1.
         25    1    1    2    0    0 -0.96119174018E+02 -0.25568583690E+02  0.67693566061E+03  0.69552824292E+03  0.12500000000E+03 0.  0.
         25    1    1    2    0    0  0.96119174018E+02  0.25568583690E+02 -0.43699988208E+02  0.16561200758E+03  0.12500000000E+03 0.  0.
</event>
<event>
 4    0  0.2225052E-002  0.1788978E+03  0.7546771E-02  0.1168874E+00
         21   -1    0    0  502  501  0.00000000000E+00  0.00000000000E+00  0.41695375194E+03  0.41695375194E+03  0.00000000000E+00 0. -1.
         21   -1    0    0  501  502 -0.00000000000E+00 -0.00000000000E+00 -0.76757722514E+02  0.76757722514E+02  0.00000000000E+00 0. -1.
         25    1    1    2    0    0 -0.79398609837E+02 -0.98790518554E+02  0.19461604459E+03  0.26375009121E+03  0.12500000000E+03 0.  0.
         25    1    1    2    0    0  0.79398609837E+02  0.98790518554E+02  0.14557998483E+03  0.22996138325E+03  0.12500000000E+03 0.  0.
</event>
<event>
 4    0  0.2225052E-002  0.1947434E+03  0.7546771E-02  0.1154251E+00
         21   -1    0    0  502  501  0.00000000000E+00  0.00000000000E+00  0.29155796279E+03  0.29155796279E+03  0.00000000000E+00 0.  1.
         21   -1    0    0  501  502 -0.00000000000E+00 -0.00000000000E+00 -0.13007701035E+03  0.13007701035E+03  0.00000000000E+00 0.  1.
         25    1    1    2    0    0  0.20763920385E+01 -0.86681967226E+02 -0.50875687991E+02  0.16041013208E+03  0.12500000000E+03 0.  0.
         25    1    1    2    0    0 -0.20763920385E+01  0.86681967226E+02  0.21235664043E+03  0.26122484105E+03  0.12500000000E+03 0.  0.
</event>
<event>
 4    0  0.2225052E-002  0.2579947E+03  0.7546771E-02  0.1108354E+00
         21   -1    0    0  502  501  0.00000000000E+00  0.00000000000E+00  0.68526779845E+03  0.68526779845E+03  0.00000000000E+00 0.  1.
         21   -1    0    0  501  502 -0.00000000000E+00 -0.00000000000E+00 -0.97131757476E+02  0.97131757476E+02  0.00000000000E+00 0.  1.
         25    1    1    2    0    0  0.10628981958E+03 -0.12489356565E+03  0.52917097712E+03  0.56792856198E+03  0.12500000000E+03 0.  0.
         25    1    1    2    0    0 -0.10628981958E+03  0.12489356565E+03  0.58965063853E+02  0.21447099394E+03  0.12500000000E+03 0.  0.
</event>
<event>
 4    0  0.2225052E-002  0.1999773E+03  0.7546771E-02  0.1149758E+00
         21   -1    0    0  502  501  0.00000000000E+00  0.00000000000E+00  0.15345835196E+03  0.15345835196E+03  0.00000000000E+00 0. -1.
         21   -1    0    0  501  502 -0.00000000000E+00 -0.00000000000E+00 -0.26059776541E+03  0.26059776541E+03  0.00000000000E+00 0. -1.
         25    1    1    2    0    0  0.14031595559E+03  0.22068377532E+01  0.17195809601E+02  0.18871707234E+03  0.12500000000E+03 0.  0.
         25    1    1    2    0    0 -0.14031595559E+03 -0.22068377532E+01 -0.12433522305E+03  0.22533904503E+03  0.12500000000E+03 0.  0.
</event>
<event>
 4    0  0.2225052E-002  0.2385442E+03  0.7546771E-02  0.1120766E+00
         21   -1    0    0  502  501  0.00000000000E+00  0.00000000000E+00  0.39124021455E+02  0.39124021455E+02  0.00000000000E+00 0. -1.
         21   -1    0    0  501  502 -0.00000000000E+00 -0.00000000000E+00 -0.14544352673E+04  0.14544352673E+04  0.00000000000E+00 0. -1.
         25    1    1    2    0    0  0.16233138007E+03 -0.57278549180E+02 -0.10454969750E+04  0.10669213813E+04  0.12500000000E+03 0.  0.
         25    1    1    2    0    0 -0.16233138007E+03  0.57278549180E+02 -0.36981427081E+03  0.42663790742E+03  0.12500000000E+03 0.  0.
</event>
<event>
 4    0  0.2225052E-002  0.2228017E+03  0.7546771E-02  0.1131811E+00
         21   -1    0    0  502  501  0.00000000000E+00  0.00000000000E+00  0.12455206522E+03  0.12455206522E+03  0.00000000000E+00 0.  1.
         21   -1    0    0  501  502 -0.00000000000E+00 -0.00000000000E+00 -0.39855297993E+03  0.39855297993E+03  0.00000000000E+00 0.  1.
         25    1    1    2    0    0  0.72255370108E+02 -0.13889245088E+03 -0.22558434343E+02  0.20160812082E+03  0.12500000000E+03 0.  0.
         25    1    1    2    0    0 -0.72255370108E+02  0.13889245088E+03 -0.25144248037E+03  0.32149692433E+03  0.12500000000E+03 0.  0.
</event>
<event>
 4    0  0.2225052E-002  0.1814537E+03  0.7546771E-02  0.1166404E+00
         21   -1    0    0  502  501  0.00000000000E+00  0.00000000000E+00  0.49853523517E+03  0.49853523517E+03  0.00000000000E+00 0. -1.
         21   -1    0    0  501  502 -0.00000000000E+00 -0.00000000000E+00 -0.66044363782E+02  0.66044363782E+02  0.00000000000E+00 0. -1.
         25    1    1    2    0    0  0.12834928093E+03 -0.21498417840E+02  0.18653488651E+03  0.25953031378E+03  0.12500000000E+03 0.  0.
         25    1    1    2    0    0 -0.12834928093E+03  0.21498417840E+02  0.24595598488E+03  0.30504928518E+03  0.12500000000E+03 0.  0.
</event>
<event>
 4    0  0.2225052E-002  0.2194274E+03  0.7546771E-02  0.1134311E+00
         21   -1    0    0  502  501  0.00000000000E+00  0.00000000000E+00  0.11992163089E+03  0.11992163089E+03  0.00000000000E+00 0. -1.
         21   -1    0    0  501  502 -0.00000000000E+00 -0.00000000000E+00 -0.40149858612E+03  0.40149858612E+03  0.00000000000E+00 0. -1.
         25    1    1    2    0    0  0.15564415537E+03 -0.24104214075E+02 -0.24516392599E+03  0.31707486000E+03  0.12500000000E+03 0.  0.
         25    1    1    2    0    0 -0.15564415537E+03  0.24104214075E+02 -0.36413029243E+02  0.20434535702E+03  0.12500000000E+03 0.  0.
</event>
<event>
 4    0  0.2225052E-002  0.2949925E+03  0.7546771E-02  0.1087771E+00
         21   -1    0    0  502  501  0.00000000000E+00  0.00000000000E+00  0.21240267102E+03  0.21240267102E+03  0.00000000000E+00 0.  1.
         21   -1    0    0  501  502 -0.00000000000E+00 -0.00000000000E+00 -0.40969633834E+03  0.40969633834E+03  0.00000000000E+00 0.  1.
         25    1    1    2    0    0 -0.25798476024E+03 -0.60036705231E+02 -0.61590583187E+02  0.29929741467E+03  0.12500000000E+03 0.  0.
         25    1    1    2    0    0  0.25798476024E+03  0.60036705231E+02 -0.13570308413E+03  0.32280159469E+03  0.12500000000E+03 0.  0.
</event>
<event>
 4    0  0.2225052E-002  0.1772374E+03  0.7546771E-02  0.1170504E+00
         21   -1    0    0  502  501  0.00000000000E+00  0.00000000000E+00  0.13416956631E+03  0.13416956631E+03  0.00000000000E+00 0.  1.
         21   -1    0    0  501  502 -0.00000000000E+00 -0.00000000000E+00 -0.23412993411E+03  0.23412993411E+03  0.00000000000E+00 0.  1.
         25    1    1    2    0    0  0.14227432222E+02 -0.12024116026E+03 -0.84871960863E+02  0.19361974638E+03  0.12500000000E+03 0.  0.
         25    1    1    2    0    0 -0.14227432222E+02  0.12024116026E+03 -0.15088406936E+02  0.17467975404E+03  0.12500000000E+03 0.  0.
</event>
<event>
 4    0  0.2225052E-002  0.1608760E+03  0.7546771E-02  0.1187711E+00
         21   -1    0    0  502  501  0.00000000000E+00  0.00000000000E+00  0.10529175722E+03  0.10529175722E+03  0.00000000000E+00 0. -1.
         21   -1    0    0  501  502 -0.00000000000E+00 -0.00000000000E+00 -0.24580350182E+03  0.24580350182E+03  0.00000000000E+00 0. -1.
         25    1    1    2    0    0 -0.46659724163E+01  0.10116431766E+03 -0.70587160131E+02  0.17568021414E+03  0.12500000000E+03 0.  0.
         25    1    1    2    0    0  0.46659724163E+01 -0.10116431766E+03 -0.69924584469E+02  0.17541504490E+03  0.12500000000E+03 0.  0.
</event>
<event>
 4    0  0.2225052E-002  0.2404427E+03  0.7546771E-02  0.1119498E+00
         21   -1    0    0  502  501  0.00000000000E+00  0.00000000000E+00  0.68557054924E+03  0.68557054924E+03  0.00000000000E+00 0.  1.
         21   -1    0    0  501  502 -0.00000000000E+00 -0.00000000000E+00 -0.84327883330E+02  0.84327883330E+02  0.00000000000E+00 0.  1.
         25    1    1    2    0    0 -0.26157444923E+02 -0.12428886369E+03  0.42190813420E+02  0.18313109594E+03  0.12500000000E+03 0.  0.
         25    1    1    2    0    0  0.26157444923E+02  0.12428886369E+03  0.55905185249E+03  0.58676733663E+03  0.12500000000E+03 0.  0.
</event>
<event>
 4    0  0.2225052E-002  0.1668822E+03  0.7546771E-02  0.1181139E+00
         21   -1    0    0  502  501  0.00000000000E+00  0.00000000000E+00  0.46710754258E+03  0.46710754258E+03  0.00000000000E+00 0. -1.
         21   -1    0    0  501  502 -0.00000000000E+00 -0.00000000000E+00 -0.59621569725E+02  0.59621569725E+02  0.00000000000E+00 0. -1.
         25    1    1    2    0    0  0.18385421652E+02 -0.95056429326E+02  0.11947920381E+03  0.19817676107E+03  0.12500000000E+03 0.  0.
         25    1    1    2    0    0 -0.18385421652E+02  0.95056429326E+02  0.28800676905E+03  0.32855235124E+03  0.12500000000E+03 0.  0.
</event>
<event>
 4    0  0.2225052E-002  0.2617005E+03  0.7546771E-02  0.1106126E+00
         21   -1    0    0  502  501  0.00000000000E+00  0.00000000000E+00  0.81227220074E+03  0.81227220074E+03  0.00000000000E+00 0.  1.
         21   -1    0    0  501  502 -0.00000000000E+00 -0.00000000000E+00 -0.84315549735E+02  0.84315549735E+02  0.00000000000E+00 0.  1.
         25    1    1    2    0    0  0.18260994654E+03  0.96544222196E+02  0.53694073987E+03  0.58872534984E+03  0.12500000000E+03 0.  0.
         25    1    1    2    0    0 -0.18260994654E+03 -0.96544222196E+02  0.19101591113E+03  0.30786240063E+03  0.12500000000E+03 0.  0.
</event>
<event>
 4    0  0.2225052E-002  0.2377125E+03  0.7546771E-02  0.1121326E+00
         21   -1    0    0  502  501  0.00000000000E+00  0.00000000000E+00  0.37875714787E+03  0.37875714787E+03  0.00000000000E+00 0.  1.
         21   -1    0    0  501  502 -0.00000000000E+00 -0.00000000000E+00 -0.14919117850E+03  0.14919117850E+03  0.00000000000E+00 0.  1.
         25    1    1    2    0    0  0.18343240993E+03  0.79754845991E+02  0.81954530445E+02  0.24969947844E+03  0.12500000000E+03 0.  0.
         25    1    1    2    0    0 -0.18343240993E+03 -0.79754845991E+02  0.14761143893E+03  0.27824884793E+03  0.12500000000E+03 0.  0.
</event>
<event>
 4    0  0.2225052E-002  0.1621769E+03  0.7546771E-02  0.1186261E+00
         21   -1    0    0  502  501  0.00000000000E+00  0.00000000000E+00  0.29439760830E+02  0.29439760830E+02  0.00000000000E+00 0.  1.
         21   -1    0    0  501  502 -0.00000000000E+00 -0.00000000000E+00 -0.89339504812E+03  0.89339504812E+03  0.00000000000E+00 0.  1.
         25    1    1    2    0    0  0.10188214853E+03  0.35264835612E+01 -0.47991889648E+03  0.50629986715E+03  0.12500000000E+03 0.  0.
         25    1    1    2    0    0 -0.10188214853E+03 -0.35264835612E+01 -0.38403639081E+03  0.41653494180E+03  0.12500000000E+03 0.  0.
</event>
<event>
 4    0  0.2225052E-002  0.1606952E+03  0.7546771E-02  0.1187914E+00
         21   -1    0    0  502  501  0.00000000000E+00  0.00000000000E+00  0.32222991153E+03  0.32222991153E+03  0.00000000000E+00 0. -1.
         21   -1    0    0  501  502 -0.00000000000E+00 -0.00000000000E+00 -0.80138273985E+02  0.80138273985E+02  0.00000000000E+00 0. -1.
         25    1    1    2    0    0  0.15418476258E+02 -0.12799930765E+02 -0.28690898514E+01  0.12662858806E+03  0.12500000000E+03 0.  0.
         25    1    1    2    0    0 -0.15418476258E+02  0.12799930765E+02  0.24496072740E+03  0.27573959745E+03  0.12500000000E+03 0.  0.
</event>
<event>
 4    0  0.2225052E-002  0.1405634E+03  0.7546771E-02  0.1212573E+00
         21   -1    0    0  502  501  0.00000000000E+00  0.00000000000E+00  0.44629773072E+03  0.44629773072E+03  0.00000000000E+00 0.  1.
         21   -1    0    0  501  502 -0.00000000000E+00 -0.00000000000E+00 -0.44271068914E+02  0.44271068914E+02  0.00000000000E+00 0.  1.
         25    1    1    2    0    0  0.11894731605E+02  0.17797151638E+02  0.30679676209E+03  0.33197511424E+03  0.12500000000E+03 0.  0.
         25    1    1    2    0    0 -0.11894731605E+02 -0.17797151638E+02  0.95229899714E+02  0.15859368539E+03  0.12500000000E+03 0.  0.
</event>
<event>
 4    0  0.2225052E-002  0.1870044E+03  0.7546771E-02  0.1161191E+00
         21   -1    0    0  502  501  0.00000000000E+00  0.00000000000E+00  0.19671881185E+04  0.19671881185E+04  0.00000000000E+00 0.  1.
         21   -1    0    0  501  502 -0.00000000000E+00 -0.00000000000E+00 -0.17776976782E+02  0.17776976782E+02  0.00000000000E+00 0.  1.
         25    1    1    2    0    0 -0.98012537084E+02 -0.54078240107E+02  0.14128282691E+04  0.14227577557E+04  0.12500000000E+03 0.  0.
         25    1    1    2    0    0  0.98012537084E+02  0.54078240107E+02  0.53658287269E+03  0.56220733964E+03  0.12500000000E+03 0.  0.
</event>
<event>
 4    0  0.2225052E-002  0.3391643E+03  0.7546771E-02  0.1067152E+00
         21   -1    0    0  502  501  0.00000000000E+00  0.00000000000E+00  0.67709888602E+03  0.67709888602E+03  0.00000000000E+00 0.  1.
         21   -1    0    0  501  502 -0.00000000000E+00 -0.00000000000E+00 -0.16989008691E+03  0.16989008691E+03  0.00000000000E+00 0.  1.
         25    1    1    2    0    0  0.23208808634E+03 -0.10167616403E+03  0.19323666139E+02  0.28319838669E+03  0.12500000000E+03 0.  0.
         25    1    1    2    0    0 -0.23208808634E+03  0.10167616403E+03  0.48788513297E+03  0.56379058623E+03  0.12500000000E+03 0.  0.
</event>
<event>
 4    0  0.2225052E-002  0.2606530E+03  0.7546771E-02  0.1106752E+00
         21   -1    0    0  502  501  0.00000000000E+00  0.00000000000E+00  0.95781598728E+03  0.95781598728E+03  0.00000000000E+00 0. -1.
         21   -1    0    0  501  502 -0.00000000000E+00 -0.00000000000E+00 -0.70932177041E+02  0.70932177041E+02  0.00000000000E+00 0. -1.
         25    1    1    2    0    0  0.95356911508E+02 -0.16153048572E+03  0.18515984192E+03  0.29170911101E+03  0.12500000000E+03 0.  0.
         25    1    1    2    0    0 -0.95356911508E+02  0.16153048572E+03  0.70172396832E+03  0.73703905331E+03  0.12500000000E+03 0.  0.
</event>
<event>
 4    0  0.2225052E-002  0.1928615E+03  0.7546771E-02  0.1155906E+00
         21   -1    0    0  502  501  0.00000000000E+00  0.00000000000E+00  0.26649955584E+02  0.26649955584E+02  0.00000000000E+00 0. -1.
         21   -1    0    0  501  502 -0.00000000000E+00 -0.00000000000E+00 -0.13957076898E+04  0.13957076898E+04  0.00000000000E+00 0. -1.
         25    1    1    2    0    0  0.10789950963E+03 -0.21802964046E+02 -0.10430504308E+04  0.10562655322E+04  0.12500000000E+03 0.  0.
         25    1    1    2    0    0 -0.10789950963E+03  0.21802964046E+02 -0.32600730339E+03  0.36609211311E+03  0.12500000000E+03 0.  0.
</event>
<event>
 4    0  0.2225052E-002  0.2421287E+03  0.7546771E-02  0.1118383E+00
         21   -1    0    0  502  501  0.00000000000E+00  0.00000000000E+00  0.99195609302E+02  0.99195609302E+02  0.00000000000E+00 0. -1.
         21   -1    0    0  501  502 -0.00000000000E+00 -0.00000000000E+00 -0.59101698059E+03  0.59101698059E+03  0.00000000000E+00 0. -1.
         25    1    1    2    0    0  0.72030836332E+02  0.53898606839E+02 -0.51220864826E+03  0.53486091702E+03  0.12500000000E+03 0.  0.
         25    1    1    2    0    0 -0.72030836332E+02 -0.53898606839E+02  0.20387276973E+02  0.15535167287E+03  0.12500000000E+03 0.  0.
</event>
<event>
 4    0  0.2225052E-002  0.1520480E+03  0.7546771E-02  0.1197979E+00
         21   -1    0    0  502  501  0.00000000000E+00  0.00000000000E+00  0.15300102462E+02  0.15300102462E+02  0.00000000000E+00 0. -1.
         21   -1    0    0  501  502 -0.00000000000E+00 -0.00000000000E+00 -0.15110089937E+04  0.15110089937E+04  0.00000000000E+00 0. -1.
         25    1    1    2    0    0 -0.80388156874E+02  0.33809039347E+00 -0.90903326180E+03  0.92110197108E+03  0.12500000000E+03 0.  0.
         25    1    1    2    0    0  0.80388156874E+02 -0.33809039347E+00 -0.58667562939E+03  0.60520712504E+03  0.12500000000E+03 0.  0.
</event>
<event>
 4    0  0.2225052E-002  0.1928373E+03  0.7546771E-02  0.1155927E+00
         21   -1    0    0  502  501  0.00000000000E+00  0.00000000000E+00  0.85772939088E+02  0.85772939088E+02  0.00000000000E+00 0. -1.
         21   -1    0    0  501  502 -0.00000000000E+00 -0.00000000000E+00 -0.43354249085E+03  0.43354249085E+03  0.00000000000E+00 0. -1.
         25    1    1    2    0    0 -0.16495473900E+01  0.99306191912E+02 -0.31951223757E+03  0.35717994165E+03  0.12500000000E+03 0.  0.
         25    1    1    2    0    0  0.16495473900E+01 -0.99306191912E+02 -0.28257314195E+02  0.16213548829E+03  0.12500000000E+03 0.  0.
</event>
<event>
 4    0  0.2225052E-002  0.2438451E+03  0.7546771E-02  0.1117258E+00
         21   -1    0    0  502  501  0.00000000000E+00  0.00000000000E+00  0.12245484341E+03  0.12245484341E+03  0.00000000000E+00 0.  1.
         21   -1    0    0  501  502 -0.00000000000E+00 -0.00000000000E+00 -0.48557015821E+03  0.48557015821E+03  0.00000000000E+00 0.  1.
         25    1    1    2    0    0  0.73748593445E+02 -0.10439500895E+02 -0.42551080150E+03  0.44970243540E+03  0.12500000000E+03 0.  0.
         25    1    1    2    0    0 -0.73748593445E+02  0.10439500895E+02  0.62395486694E+02  0.15832256622E+03  0.12500000000E+03 0.  0.
</event>
<event>
 4    0  0.2225052E-002  0.1896347E+03  0.7546771E-02  0.1158791E+00
         21   -1    0    0  502  501  0.00000000000E+00  0.00000000000E+00  0.16270643928E+02  0.16270643928E+02  0.00000000000E+00 0. -1.
         21   -1    0    0  501  502 -0.00000000000E+00 -0.00000000000E+00 -0.22101962230E+04  0.22101962230E+04  0.00000000000E+00 0. -1.
         25    1    1    2    0    0  0.68081746876E+02 -0.10848039055E+03 -0.72879883282E+03  0.75045043681E+03  0.12500000000E+03 0.  0.
         25    1    1    2    0    0 -0.68081746876E+02  0.10848039055E+03 -0.14651267463E+04  0.14760164301E+04  0.12500000000E+03 0.  0.
</event>
<event>
 4    0  0.2225052E-002  0.1707096E+03  0.7546771E-02  0.1177110E+00
         21   -1    0    0  502  501  0.00000000000E+00  0.00000000000E+00  0.48391457549E+02  0.48391457549E+02  0.00000000000E+00 0. -1.
         21   -1    0    0  501  502 -0.00000000000E+00 -0.00000000000E+00 -0.60220901844E+03  0.60220901844E+03  0.00000000000E+00 0. -1.
         25    1    1    2    0    0 -0.39810161831E+02 -0.52436120770E+02 -0.94307445758E+02  0.16986256230E+03  0.12500000000E+03 0.  0.
         25    1    1    2    0    0  0.39810161831E+02  0.52436120770E+02 -0.45951011513E+03  0.48073791369E+03  0.12500000000E+03 0.  0.
</event>
<event>
 4    0  0.2225052E-002  0.2577475E+03  0.7546771E-02  0.1108504E+00
         21   -1    0    0  502  501  0.00000000000E+00  0.00000000000E+00  0.80310102093E+03  0.80310102093E+03  0.00000000000E+00 0. -1.
         21   -1    0    0  501  502 -0.00000000000E+00 -0.00000000000E+00 -0.82721581626E+02  0.82721581626E+02  0.00000000000E+00 0. -1.
         25    1    1    2    0    0  0.19372266399E+03 -0.50819938116E+02  0.53792205630E+03  0.58744895549E+03  0.12500000000E+03 0.  0.
         25    1    1    2    0    0 -0.19372266399E+03  0.50819938116E+02  0.18245738301E+03  0.29837364707E+03  0.12500000000E+03 0.  0.
</event>
<event>
 4    0  0.2225052E-002  0.1980165E+03  0.7546771E-02  0.1151423E+00
         21   -1    0    0  502  501  0.00000000000E+00  0.00000000000E+00  0.20169992273E+02  0.20169992273E+02  0.00000000000E+00 0. -1.
         21   -1    0    0  501  502 -0.00000000000E+00 -0.00000000000E+00 -0.19440032666E+04  0.19440032666E+04  0.00000000000E+00 0. -1.
         25    1    1    2    0    0 -0.91934874147E+02 -0.19314207132E+02 -0.15644742086E+04  0.15722689367E+04  0.12500000000E+03 0.  0.
         25    1    1    2    0    0  0.91934874147E+02  0.19314207132E+02 -0.35935906573E+03  0.39190432225E+03  0.12500000000E+03 0.  0.
</event>
<event>
 4    0  0.2225052E-002  0.2291695E+03  0.7546771E-02  0.1127226E+00
         21   -1    0    0  502  501  0.00000000000E+00  0.00000000000E+00  0.22061551187E+03  0.22061551187E+03  0.00000000000E+00 0.  1.
         21   -1    0    0  501  502 -0.00000000000E+00 -0.00000000000E+00 -0.23805513662E+03  0.23805513662E+03  0.00000000000E+00 0.  1.
         25    1    1    2    0    0 -0.86817440667E+02 -0.75773989803E+02  0.14506210792E+03  0.22348821152E+03  0.12500000000E+03 0.  0.
         25    1    1    2    0    0  0.86817440667E+02  0.75773989803E+02 -0.16250173268E+03  0.23518243697E+03  0.12500000000E+03 0.  0.
</event>
<event>
 4    0  0.2225052E-002  0.2229508E+03  0.7546771E-02  0.1131702E+00
         21   -1    0    0  502  501  0.00000000000E+00  0.00000000000E+00  0.59849316168E+02  0.59849316168E+02  0.00000000000E+00 0.  1.
         21   -1    0    0  501  502 -0.00000000000E+00 -0.00000000000E+00 -0.83053665969E+03  0.83053665969E+03  0.00000000000E+00 0.  1.
         25    1    1    2    0    0 -0.12883557114E+03  0.13046728612E+03 -0.42825137238E+03  0.48233241140E+03  0.12500000000E+03 0.  0.
         25    1    1    2    0    0  0.12883557114E+03 -0.13046728612E+03 -0.34243597114E+03  0.40805356446E+03  0.12500000000E+03 0.  0.
</event>
<event>
 4    0  0.2225052E-002  0.1611531E+03  0.7546771E-02  0.1187401E+00
         21   -1    0    0  502  501  0.00000000000E+00  0.00000000000E+00  0.30040040490E+02  0.30040040490E+02  0.00000000000E+00 0.  1.
         21   -1    0    0  501  502 -0.00000000000E+00 -0.00000000000E+00 -0.86452341243E+03  0.86452341243E+03  0.00000000000E+00 0.  1.
         25    1    1    2    0    0  0.65027113843E+02 -0.76387518806E+02 -0.37065448894E+03  0.40382338805E+03  0.12500000000E+03 0.  0.
         25    1    1    2    0    0 -0.65027113843E+02  0.76387518806E+02 -0.46382888300E+03  0.49074006487E+03  0.12500000000E+03 0.  0.
</event>
<event>
 4    0  0.2225052E-002  0.2484742E+03  0.7546771E-02  0.1114273E+00
         21   -1    0    0  502  501  0.00000000000E+00  0.00000000000E+00  0.45788992855E+03  0.45788992855E+03  0.00000000000E+00 0. -1.
         21   -1    0    0  501  502 -0.00000000000E+00 -0.00000000000E+00 -0.13483460533E+03  0.13483460533E+03  0.00000000000E+00 0. -1.
         25    1    1    2    0    0  0.10028819933E+03  0.18935215984E+03  0.14455716270E+03  0.28711275946E+03  0.12500000000E+03 0.  0.
         25    1    1    2    0    0 -0.10028819933E+03 -0.18935215984E+03  0.17849816052E+03  0.30561177443E+03  0.12500000000E+03 0.  0.
</event>
<event>
 4    0  0.2225052E-002  0.1891013E+03  0.7546771E-02  0.1159274E+00
         21   -1    0    0  502  501  0.00000000000E+00  0.00000000000E+00  0.14708827921E+03  0.14708827921E+03  0.00000000000E+00 0.  1.
         21   -1    0    0  501  502 -0.00000000000E+00 -0.00000000000E+00 -0.24311465232E+03  0.24311465232E+03  0.00000000000E+00 0.  1.
         25    1    1    2    0    0  0.10225427252E+03  0.11532245934E+02  0.52787316597E+02  0.17029512541E+03  0.12500000000E+03 0.  0.
         25    1    1    2    0    0 -0.10225427252E+03 -0.11532245934E+02 -0.14881368971E+03  0.21990780611E+03  0.12500000000E+03 0.  0.
</event>
<event>
 4    0  0.2225052E-002  0.2280060E+03  0.7546771E-02  0.1128051E+00
         21   -1    0    0  502  501  0.00000000000E+00  0.00000000000E+00  0.16878265285E+03  0.16878265285E+03  0.00000000000E+00 0.  1.
         21   -1    0    0  501  502 -0.00000000000E+00 -0.00000000000E+00 -0.30800994154E+03  0.30800994154E+03  0.00000000000E+00 0.  1.
         25    1    1    2    0    0  0.74373687861E+01  0.84988740864E+01 -0.26864088004E+03  0.29651385759E+03  0.12500000000E+03 0.  0.
         25    1    1    2    0    0 -0.74373687861E+01 -0.84988740864E+01  0.12941359135E+03  0.18027873679E+03  0.12500000000E+03 0.  0.
</event>
<event>
 4    0  0.2225052E-002  0.1822344E+03  0.7546771E-02  0.1165658E+00
         21   -1    0    0  502  501  0.00000000000E+00  0.00000000000E+00  0.56337921604E+02  0.56337921604E+02  0.00000000000E+00 0. -1.
         21   -1    0    0  501  502 -0.00000000000E+00 -0.00000000000E+00 -0.58946738012E+03  0.58946738012E+03  0.00000000000E+00 0. -1.
         25    1    1    2    0    0  0.11841470719E+03  0.55907598760E+02 -0.30359145334E+03  0.35346919670E+03  0.12500000000E+03 0.  0.
         25    1    1    2    0    0 -0.11841470719E+03 -0.55907598760E+02 -0.22953800518E+03  0.29233610502E+03  0.12500000000E+03 0.  0.
</event>
<event>
 4    0  0.2225052E-002  0.2195131E+03  0.7546771E-02  0.1134247E+00
         21   -1    0    0  502  501  0.00000000000E+00  0.00000000000E+00  0.11026868023E+04  0.11026868023E+04  0.00000000000E+00 0. -1.
         21   -1    0    0  501  502 -0.00000000000E+00 -0.00000000000E+00 -0.43698701004E+02  0.43698701004E+02  0.00000000000E+00 0. -1.
         25    1    1    2    0    0  0.91639503615E+02 -0.92039312473E+02  0.20239539656E+03  0.27103123476E+03  0.12500000000E+03 0.  0.
         25    1    1    2    0    0 -0.91639503615E+02  0.92039312473E+02  0.85659270473E+03  0.87535426854E+03  0.12500000000E+03 0.  0.
</event>
<event>
 4    0  0.2225052E-002  0.1492527E+03  0.7546771E-02  0.1201394E+00
         21   -1    0    0  502  501  0.00000000000E+00  0.00000000000E+00  0.47480628323E+03  0.47480628323E+03  0.00000000000E+00 0. -1.
         21   -1    0    0  501  502 -0.00000000000E+00 -0.00000000000E+00 -0.46916723602E+02  0.46916723602E+02  0.00000000000E+00 0. -1.
         25    1    1    2    0    0  0.17826966409E+02  0.55441646957E+02  0.31373361476E+03  0.34270301717E+03  0.12500000000E+03 0.  0.
         25    1    1    2    0    0 -0.17826966409E+02 -0.55441646957E+02  0.11415594486E+03  0.17901998966E+03  0.12500000000E+03 0.  0.
</event>
<event>
 4    0  0.2225052E-002  0.2210710E+03  0.7546771E-02  0.1133087E+00
         21   -1    0    0  502  501  0.00000000000E+00  0.00000000000E+00  0.20389557211E+03  0.20389557211E+03  0.00000000000E+00 0.  1.
         21   -1    0    0  501  502 -0.00000000000E+00 -0.00000000000E+00 -0.23969329541E+03  0.23969329541E+03  0.00000000000E+00 0.  1.
         25    1    1    2    0    0  0.16438848280E+03  0.43927283687E+02 -0.83643607678E+02  0.22710004983E+03  0.12500000000E+03 0.  0.
         25    1    1    2    0    0 -0.16438848280E+03 -0.43927283687E+02  0.47845884381E+02  0.21648881768E+03  0.12500000000E+03 0.  0.
</event>
<event>
 4    0  0.2225052E-002  0.3567892E+03  0.7546771E-02  0.1059862E+00
         21   -1    0    0  502  501  0.00000000000E+00  0.00000000000E+00  0.41558242181E+03  0.41558242181E+03  0.00000000000E+00 0.  1.
         21   -1    0    0  501  502 -0.00000000000E+00 -0.00000000000E+00 -0.30631351292E+03  0.30631351292E+03  0.00000000000E+00 0.  1.
         25    1    1    2    0    0 -0.15100816708E+03 -0.29807303260E+03  0.59434466514E+02  0.36167451541E+03  0.12500000000E+03 0.  0.
         25    1    1    2    0    0  0.15100816708E+03  0.29807303260E+03  0.49834442372E+02  0.36022141932E+03  0.12500000000E+03 0.  0.
</event>
<event>
 4    0  0.2225052E-002  0.3923548E+03  0.7546771E-02  0.1046460E+00
         21   -1    0    0  502  501  0.00000000000E+00  0.00000000000E+00  0.18792368569E+03  0.18792368569E+03  0.00000000000E+00 0. -1.
         21   -1    0    0  501  502 -0.00000000000E+00 -0.00000000000E+00 -0.81917456828E+03  0.81917456828E+03  0.00000000000E+00 0. -1.
         25    1    1    2    0    0  0.16710585290E+03 -0.29195300687E+03 -0.51918285654E+03  0.63113925786E+03  0.12500000000E+03 0.  0.
         25    1    1    2    0    0 -0.16710585290E+03  0.29195300687E+03 -0.11206802606E+03  0.37595899611E+03  0.12500000000E+03 0.  0.
</event>
<event>
 4    0  0.2225052E-002  0.2162623E+03  0.7546771E-02  0.1136701E+00
         21   -1    0    0  502  501  0.00000000000E+00  0.00000000000E+00  0.36026248426E+03  0.36026248426E+03  0.00000000000E+00 0.  1.
         21   -1    0    0  501  502 -0.00000000000E+00 -0.00000000000E+00 -0.12982029921E+03  0.12982029921E+03  0.00000000000E+00 0.  1.
         25    1    1    2    0    0  0.16157595263E+03  0.69703261520E+02  0.13038273447E+03  0.25217055851E+03  0.12500000000E+03 0.  0.
         25    1    1    2    0    0 -0.16157595263E+03 -0.69703261520E+02  0.10005945058E+03  0.23791222496E+03  0.12500000000E+03 0.  0.
</event>
<event>
 4    0  0.2225052E-002  0.2098076E+03  0.7546771E-02  0.1141718E+00
         21   -1    0    0  502  501  0.00000000000E+00  0.00000000000E+00  0.11885596350E+03  0.11885596350E+03  0.00000000000E+00 0. -1.
         21   -1    0    0  501  502 -0.00000000000E+00 -0.00000000000E+00 -0.37035783570E+03  0.37035783570E+03  0.00000000000E+00 0. -1.
         25    1    1    2    0    0 -0.11125372519E+03 -0.66995013123E+02 -0.57117564870E+00  0.18025273755E+03  0.12500000000E+03 0.  0.
         25    1    1    2    0    0  0.11125372519E+03  0.66995013123E+02 -0.25093069655E+03  0.30896106166E+03  0.12500000000E+03 0.  0.
</event>
<event>
 4    0  0.2225052E-002  0.1888872E+03  0.7546771E-02  0.1159469E+00
         21   -1    0    0  502  501  0.00000000000E+00  0.00000000000E+00  0.44548596260E+03  0.44548596260E+03  0.00000000000E+00 0. -1.
         21   -1    0    0  501  502 -0.00000000000E+00 -0.00000000000E+00 -0.80088664428E+02  0.80088664428E+02  0.00000000000E+00 0. -1.
         25    1    1    2    0    0  0.96446995432E+02 -0.22425669649E+02  0.32354019557E+03  0.36070513129E+03  0.12500000000E+03 0.  0.
         25    1    1    2    0    0 -0.96446995432E+02  0.22425669649E+02  0.41857102599E+02  0.16486949574E+03  0.12500000000E+03 0.  0.
</event>
<event>
 4    0  0.2225052E-002  0.2119854E+03  0.7546771E-02  0.1140003E+00
         21   -1    0    0  502  501  0.00000000000E+00  0.00000000000E+00  0.29516471279E+04  0.29516471279E+04  0.00000000000E+00 0.  1.
         21   -1    0    0  501  502 -0.00000000000E+00 -0.00000000000E+00 -0.15224649489E+02  0.15224649489E+02  0.00000000000E+00 0.  1.
         25    1    1    2    0    0 -0.15508963354E+03  0.51153575265E+02  0.11084312687E+04  0.11273483757E+04  0.12500000000E+03 0.  0.
         25    1    1    2    0    0  0.15508963354E+03 -0.51153575265E+02  0.18279912096E+04  0.18395234017E+04  0.12500000000E+03 0.  0.
</event>
<event>
 4    0  0.2225052E-002  0.4079450E+03  0.7546771E-02  0.1041063E+00
         21   -1    0    0  502  501  0.00000000000E+00  0.00000000000E+00  0.25048058091E+03  0.25048058091E+03  0.00000000000E+00 0. -1.
         21   -1    0    0  501  502 -0.00000000000E+00 -0.00000000000E+00 -0.66439930881E+03  0.66439930881E+03  0.00000000000E+00 0. -1.
         25    1    1    2    0    0 -0.28954313443E+03  0.25871502722E+01 -0.49710424335E+03  0.58871007194E+03  0.12500000000E+03 0.  0.
         25    1    1    2    0    0  0.28954313443E+03 -0.25871502722E+01  0.83185515457E+02  0.32616981777E+03  0.12500000000E+03 0.  0.
</event>
<event>
 4    0  0.2225052E-002  0.2001396E+03  0.7546771E-02  0.1149621E+00
         21   -1    0    0  502  501  0.00000000000E+00  0.00000000000E+00  0.19657809620E+03  0.19657809620E+03  0.00000000000E+00 0. -1.
         21   -1    0    0  501  502 -0.00000000000E+00 -0.00000000000E+00 -0.20376569392E+03  0.20376569392E+03  0.00000000000E+00 0. -1.
         25    1    1    2    0    0 -0.37583866933E+02  0.14881731747E+03  0.25936054276E+02  0.19964172896E+03  0.12500000000E+03 0.  0.
         25    1    1    2    0    0  0.37583866933E+02 -0.14881731747E+03 -0.33123651998E+02  0.20070206116E+03  0.12500000000E+03 0.  0.
</event>
<event>
 4    0  0.2225052E-002  0.2272036E+03  0.7546771E-02  0.1128624E+00
         21   -1    0    0  502  501  0.00000000000E+00  0.00000000000E+00  0.18396890817E+04  0.18396890817E+04  0.00000000000E+00 0.  1.
         21   -1    0    0  501  502 -0.00000000000E+00 -0.00000000000E+00 -0.28059881446E+02  0.28059881446E+02  0.00000000000E+00 0.  1.
         25    1    1    2    0    0  0.14002449965E+03  0.11726860888E+03  0.69471683294E+03  0.72911951359E+03  0.12500000000E+03 0.  0.
         25    1    1    2    0    0 -0.14002449965E+03 -0.11726860888E+03  0.11169123673E+04  0.11386294496E+04  0.12500000000E+03 0.  0.
</event>
<event>
 4    0  0.2225052E-002  0.2064933E+03  0.7546771E-02  0.1144373E+00
         21   -1    0    0  502  501  0.00000000000E+00  0.00000000000E+00  0.57371672560E+03  0.57371672560E+03  0.00000000000E+00 0.  1.
         21   -1    0    0  501  502 -0.00000000000E+00 -0.00000000000E+00 -0.74321524290E+02  0.74321524290E+02  0.00000000000E+00 0.  1.
         25    1    1    2    0    0  0.73174571632E+02  0.14415550947E+03  0.20317096122E+03  0.28816448138E+03  0.12500000000E+03 0.  0.
         25    1    1    2    0    0 -0.73174571632E+02 -0.14415550947E+03  0.29622424009E+03  0.35987376851E+03  0.12500000000E+03 0.  0.
</event>
<event>
 4    0  0.2225052E-002  0.1828949E+03  0.7546771E-02  0.1165030E+00
         21   -1    0    0  502  501  0.00000000000E+00  0.00000000000E+00  0.39673109234E+03  0.39673109234E+03  0.00000000000E+00 0. -1.
         21   -1    0    0  501  502 -0.00000000000E+00 -0.00000000000E+00 -0.84315453914E+02  0.84315453914E+02  0.00000000000E+00 0. -1.
         25    1    1    2    0    0 -0.11954270601E+03  0.29283074454E+02  0.88157736071E+02  0.19632815244E+03  0.12500000000E+03 0.  0.
         25    1    1    2    0    0  0.11954270601E+03 -0.29283074454E+02  0.22425790236E+03  0.28471839382E+03  0.12500000000E+03 0.  0.
</event>
<event>
 4    0  0.2225052E-002  0.2769271E+03  0.7546771E-02  0.1097379E+00
         21   -1    0    0  502  501  0.00000000000E+00  0.00000000000E+00  0.15037542068E+04  0.15037542068E+04  0.00000000000E+00 0.  1.
         21   -1    0    0  501  502 -0.00000000000E+00 -0.00000000000E+00 -0.50998101784E+02  0.50998101784E+02  0.00000000000E+00 0.  1.
         25    1    1    2    0    0  0.10937440527E+03 -0.22158644552E+03  0.72790719303E+03  0.77880497881E+03  0.12500000000E+03 0.  0.
         25    1    1    2    0    0 -0.10937440527E+03  0.22158644552E+03  0.72484891199E+03  0.77594732977E+03  0.12500000000E+03 0.  0.
</event>
<event>
 4    0  0.2225052E-002  0.1943449E+03  0.7546771E-02  0.1154600E+00
         21   -1    0    0  502  501  0.00000000000E+00  0.00000000000E+00  0.40508246822E+03  0.40508246822E+03  0.00000000000E+00 0. -1.
         21   -1    0    0  501  502 -0.00000000000E+00 -0.00000000000E+00 -0.93240080055E+02  0.93240080055E+02  0.00000000000E+00 0. -1.
         25    1    1    2    0    0  0.11960386250E+03 -0.72367534661E+02  0.22132846739E+03  0.29009211378E+03  0.12500000000E+03 0.  0.
         25    1    1    2    0    0 -0.11960386250E+03  0.72367534661E+02  0.90513920776E+02  0.20823043450E+03  0.12500000000E+03 0.  0.
</event>
<event>
 4    0  0.2225052E-002  0.1757147E+03  0.7546771E-02  0.1172016E+00
         21   -1    0    0  502  501  0.00000000000E+00  0.00000000000E+00  0.28399890024E+02  0.28399890024E+02  0.00000000000E+00 0.  1.
         21   -1    0    0  501  502 -0.00000000000E+00 -0.00000000000E+00 -0.10871750582E+04  0.10871750582E+04  0.00000000000E+00 0.  1.
         25    1    1    2    0    0  0.92111818450E+02  0.82141663182E+02 -0.54315587484E+03  0.57085474887E+03  0.12500000000E+03 0.  0.
         25    1    1    2    0    0 -0.92111818450E+02 -0.82141663182E+02 -0.51561929333E+03  0.54472019935E+03  0.12500000000E+03 0.  0.
</event>
<event>
 4    0  0.2225052E-002  0.1872117E+03  0.7546771E-02  0.1161000E+00
         21   -1    0    0  502  501  0.00000000000E+00  0.00000000000E+00  0.15399646448E+04  0.15399646448E+04  0.00000000000E+00 0.  1.
         21   -1    0    0  501  502 -0.00000000000E+00 -0.00000000000E+00 -0.22759108637E+02  0.22759108637E+02  0.00000000000E+00 0.  1.
         25    1    1    2    0    0 -0.32005168786E+02 -0.11788004196E+03  0.47852461454E+03  0.50944169621E+03  0.12500000000E+03 0.  0.
         25    1    1    2    0    0  0.32005168786E+02  0.11788004196E+03  0.10386809216E+04  0.10532820572E+04  0.12500000000E+03 0.  0.
</event>
<event>
 4    0  0.2225052E-002  0.2156139E+03  0.7546771E-02  0.1137196E+00
         21   -1    0    0  502  501  0.00000000000E+00  0.00000000000E+00  0.26189833884E+03  0.26189833884E+03  0.00000000000E+00 0.  1.
         21   -1    0    0  501  502 -0.00000000000E+00 -0.00000000000E+00 -0.17750912497E+03  0.17750912497E+03  0.00000000000E+00 0.  1.
         25    1    1    2    0    0  0.42609343239E+02 -0.13010265279E+03 -0.69994178612E+02  0.19815761765E+03  0.12500000000E+03 0.  0.
         25    1    1    2    0    0 -0.42609343239E+02  0.13010265279E+03  0.15438339248E+03  0.24124984615E+03  0.12500000000E+03 0.  0.
</event>
<event>
 4    0  0.2225052E-002  0.1992186E+03  0.7546771E-02  0.1150400E+00
         21   -1    0    0  502  501  0.00000000000E+00  0.00000000000E+00  0.54350207567E+02  0.54350207567E+02  0.00000000000E+00 0. -1.
         21   -1    0    0  501  502 -0.00000000000E+00 -0.00000000000E+00 -0.73022785048E+03  0.73022785048E+03  0.00000000000E+00 0. -1.
         25    1    1    2    0    0 -0.11195092440E+03 -0.87823838674E+02 -0.21628174007E+03  0.28748709049E+03  0.12500000000E+03 0.  0.
         25    1    1    2    0    0  0.11195092440E+03  0.87823838674E+02 -0.45959590285E+03  0.49709096756E+03  0.12500000000E+03 0.  0.
</event>
<event>
 4    0  0.2225052E-002  0.3419796E+03  0.7546771E-02  0.1065956E+00
         21   -1    0    0  502  501  0.00000000000E+00  0.00000000000E+00  0.55730103355E+02  0.55730103355E+02  0.00000000000E+00 0.  1.
         21   -1    0    0  501  502 -0.00000000000E+00 -0.00000000000E+00 -0.20985080408E+04  0.20985080408E+04  0.00000000000E+00 0.  1.
         25    1    1    2    0    0 -0.11965527706E+03 -0.25772861646E+03 -0.56950741474E+03  0.64861785399E+03  0.12500000000E+03 0.  0.
         25    1    1    2    0    0  0.11965527706E+03  0.25772861646E+03 -0.14732705227E+04  0.15056202901E+04  0.12500000000E+03 0.  0.
</event>
<event>
 4    0  0.2225052E-002  0.2042520E+03  0.7546771E-02  0.1146200E+00
         21   -1    0    0  502  501  0.00000000000E+00  0.00000000000E+00  0.92318821817E+03  0.92318821817E+03  0.00000000000E+00 0. -1.
         21   -1    0    0  501  502 -0.00000000000E+00 -0.00000000000E+00 -0.45189993518E+02  0.45189993518E+02  0.00000000000E+00 0. -1.
         25    1    1    2    0    0 -0.77270449687E+02 -0.11012906030E+03  0.22704060823E+03  0.29201296222E+03  0.12500000000E+03 0.  0.
         25    1    1    2    0    0  0.77270449687E+02  0.11012906030E+03  0.65095761642E+03  0.67636524947E+03  0.12500000000E+03 0.  0.
</event>
<event>
 4    0  0.2225052E-002  0.2187360E+03  0.7546771E-02  0.1134829E+00
         21   -1    0    0  502  501  0.00000000000E+00  0.00000000000E+00  0.11745257836E+03  0.11745257836E+03  0.00000000000E+00 0. -1.
         21   -1    0    0  501  502 -0.00000000000E+00 -0.00000000000E+00 -0.40735968157E+03  0.40735968157E+03  0.00000000000E+00 0. -1.
         25    1    1    2    0    0 -0.16515112459E+03  0.59361646296E+02 -0.19018751813E+03  0.28739344296E+03  0.12500000000E+03 0.  0.
         25    1    1    2    0    0  0.16515112459E+03 -0.59361646296E+02 -0.99719585082E+02  0.23741881697E+03  0.12500000000E+03 0.  0.
</event>
<event>
 4    0  0.2225052E-002  0.2746499E+03  0.7546771E-02  0.1098647E+00
         21   -1    0    0  502  501  0.00000000000E+00  0.00000000000E+00  0.29759646006E+03  0.29759646006E+03  0.00000000000E+00 0.  1.
         21   -1    0    0  501  502 -0.00000000000E+00 -0.00000000000E+00 -0.25347264594E+03  0.25347264594E+03  0.00000000000E+00 0.  1.
         25    1    1    2    0    0 -0.21855085173E+03  0.70794633374E+02  0.10618429429E+03  0.28227018840E+03  0.12500000000E+03 0.  0.
         25    1    1    2    0    0  0.21855085173E+03 -0.70794633374E+02 -0.62060480171E+02  0.26879891760E+03  0.12500000000E+03 0.  0.
</event>
<event>
 4    0  0.2225052E-002  0.1291560E+03  0.7546771E-02  0.1228713E+00
         21   -1    0    0  502  501  0.00000000000E+00  0.00000000000E+00  0.31570337193E+02  0.31570337193E+02  0.00000000000E+00 0. -1.
         21   -1    0    0  501  502 -0.00000000000E+00 -0.00000000000E+00 -0.52838430606E+03  0.52838430606E+03  0.00000000000E+00 0. -1.
         25    1    1    2    0    0  0.24894770118E+02 -0.19593651430E+02 -0.26413023193E+03  0.29392761043E+03  0.12500000000E+03 0.  0.
         25    1    1    2    0    0 -0.24894770118E+02  0.19593651430E+02 -0.23268373694E+03  0.26602703282E+03  0.12500000000E+03 0.  0.
</event>
<event>
 4    0  0.2225052E-002  0.1625261E+03  0.7546771E-02  0.1185874E+00
         21   -1    0    0  502  501  0.00000000000E+00  0.00000000000E+00  0.25638230562E+03  0.25638230562E+03  0.00000000000E+00 0.  1.
         21   -1    0    0  501  502 -0.00000000000E+00 -0.00000000000E+00 -0.10302874600E+03  0.10302874600E+03  0.00000000000E+00 0.  1.
         25    1    1    2    0    0 -0.69253911108E+02  0.64833067042E+02  0.29892157624E+02  0.15974345643E+03  0.12500000000E+03 0.  0.
         25    1    1    2    0    0  0.69253911108E+02 -0.64833067042E+02  0.12346140199E+03  0.19966759519E+03  0.12500000000E+03 0.  0.
</event>
<event>
 4    0  0.2225052E-002  0.1907388E+03  0.7546771E-02  0.1157797E+00
         21   -1    0    0  502  501  0.00000000000E+00  0.00000000000E+00  0.66069635491E+02  0.66069635491E+02  0.00000000000E+00 0. -1.
         21   -1    0    0  501  502 -0.00000000000E+00 -0.00000000000E+00 -0.55065085156E+03  0.55065085156E+03  0.00000000000E+00 0. -1.
         25    1    1    2    0    0  0.99602736494E+02 -0.77180287045E+02 -0.35521187437E+03  0.39708686395E+03  0.12500000000E+03 0.  0.
         25    1    1    2    0    0 -0.99602736494E+02  0.77180287045E+02 -0.12936934169E+03  0.21963362310E+03  0.12500000000E+03 0.  0.
</event>
<event>
 4    0  0.2225052E-002  0.2021086E+03  0.7546771E-02  0.1147972E+00
         21   -1    0    0  502  501  0.00000000000E+00  0.00000000000E+00  0.20169703080E+03  0.20169703080E+03  0.00000000000E+00 0.  1.
         21   -1    0    0  501  502 -0.00000000000E+00 -0.00000000000E+00 -0.20252093219E+03  0.20252093219E+03  0.00000000000E+00 0.  1.
         25    1    1    2    0    0  0.95103123400E+02  0.12635172968E+03 -0.15023860551E+02  0.20213876437E+03  0.12500000000E+03 0.  0.
         25    1    1    2    0    0 -0.95103123400E+02 -0.12635172968E+03  0.14199959165E+02  0.20207919862E+03  0.12500000000E+03 0.  0.
</event>
<event>
 4    0  0.2225052E-002  0.1784138E+03  0.7546771E-02  0.1169347E+00
         21   -1    0    0  502  501  0.00000000000E+00  0.00000000000E+00  0.23484358898E+03  0.23484358898E+03  0.00000000000E+00 0. -1.
         21   -1    0    0  501  502 -0.00000000000E+00 -0.00000000000E+00 -0.13554330371E+03  0.13554330371E+03  0.00000000000E+00 0. -1.
         25    1    1    2    0    0  0.84469481367E+02 -0.94985204624E+02  0.56930474878E+02  0.18714529476E+03  0.12500000000E+03 0.  0.
         25    1    1    2    0    0 -0.84469481367E+02  0.94985204624E+02  0.42369810390E+02  0.18324159793E+03  0.12500000000E+03 0.  0.
</event>
<event>
 4    0  0.2225052E-002  0.2552687E+03  0.7546771E-02  0.1110020E+00
         21   -1    0    0  502  501  0.00000000000E+00  0.00000000000E+00  0.28240083053E+03  0.28240083053E+03  0.00000000000E+00 0.  1.
         21   -1    0    0  501  502 -0.00000000000E+00 -0.00000000000E+00 -0.23074326834E+03  0.23074326834E+03  0.00000000000E+00 0.  1.
         25    1    1    2    0    0  0.20982408373E+03  0.71029261109E+02  0.47521113625E+02  0.25875578889E+03  0.12500000000E+03 0.  0.
         25    1    1    2    0    0 -0.20982408373E+03 -0.71029261109E+02  0.41364485708E+01  0.25438830998E+03  0.12500000000E+03 0.  0.
</event>
<event>
 4    0  0.2225052E-002  0.2675555E+03  0.7546771E-02  0.1102687E+00
         21   -1    0    0  502  501  0.00000000000E+00  0.00000000000E+00  0.15160095014E+03  0.15160095014E+03  0.00000000000E+00 0.  1.
         21   -1    0    0  501  502 -0.00000000000E+00 -0.00000000000E+00 -0.47219969829E+03  0.47219969829E+03  0.00000000000E+00 0.  1.
         25    1    1    2    0    0 -0.20851714840E+03  0.45200581908E+02 -0.27940151975E+03  0.37311218557E+03  0.12500000000E+03 0.  0.
         25    1    1    2    0    0  0.20851714840E+03 -0.45200581908E+02 -0.41197228406E+02  0.25068846286E+03  0.12500000000E+03 0.  0.
</event>
<event>
 4    0  0.2225052E-002  0.2721006E+03  0.7546771E-02  0.1100083E+00
         21   -1    0    0  502  501  0.00000000000E+00  0.00000000000E+00  0.11329589224E+03  0.11329589224E+03  0.00000000000E+00 0.  1.
         21   -1    0    0  501  502 -0.00000000000E+00 -0.00000000000E+00 -0.65349902698E+03  0.65349902698E+03  0.00000000000E+00 0.  1.
         25    1    1    2    0    0  0.90585963837E+02 -0.31347106448E+02  0.42516339314E+02  0.16315972860E+03  0.12500000000E+03 0.  0.
         25    1    1    2    0    0 -0.90585963837E+02  0.31347106448E+02 -0.58271947405E+03  0.60363519063E+03  0.12500000000E+03 0.  0.
</event>
<event>
 4    0  0.2225052E-002  0.3424179E+03  0.7546771E-02  0.1065771E+00
         21   -1    0    0  502  501  0.00000000000E+00  0.00000000000E+00  0.67178761077E+03  0.67178761077E+03  0.00000000000E+00 0. -1.
         21   -1    0    0  501  502 -0.00000000000E+00 -0.00000000000E+00 -0.17453438392E+03  0.17453438392E+03  0.00000000000E+00 0. -1.
         25    1    1    2    0    0 -0.28206728479E+03  0.12663268489E+03  0.34456858164E+03  0.47953133108E+03  0.12500000000E+03 0.  0.
         25    1    1    2    0    0  0.28206728479E+03 -0.12663268489E+03  0.15268464521E+03  0.36679066361E+03  0.12500000000E+03 0.  0.
</event>
<event>
 4    0  0.2225052E-002  0.2191025E+03  0.7546771E-02  0.1134554E+00
         21   -1    0    0  502  501  0.00000000000E+00  0.00000000000E+00  0.89052400478E+02  0.89052400478E+02  0.00000000000E+00 0. -1.
         21   -1    0    0  501  502 -0.00000000000E+00 -0.00000000000E+00 -0.53907493637E+03  0.53907493637E+03  0.00000000000E+00 0. -1.
         25    1    1    2    0    0 -0.15528814128E+03 -0.84848688509E+02 -0.27183815948E+03  0.34761284745E+03  0.12500000000E+03 0.  0.
         25    1    1    2    0    0  0.15528814128E+03  0.84848688509E+02 -0.17818437641E+03  0.28051448939E+03  0.12500000000E+03 0.  0.
</event>
<event>
 4    0  0.2225052E-002  0.2319523E+03  0.7546771E-02  0.1125273E+00
         21   -1    0    0  502  501  0.00000000000E+00  0.00000000000E+00  0.86495628096E+02  0.86495628096E+02  0.00000000000E+00 0.  1.
         21   -1    0    0  501  502 -0.00000000000E+00 -0.00000000000E+00 -0.62201852521E+03  0.62201852521E+03  0.00000000000E+00 0.  1.
         25    1    1    2    0    0 -0.14995272500E+03  0.12434210931E+03 -0.29092904981E+03  0.37176806198E+03  0.12500000000E+03 0.  0.
         25    1    1    2    0    0  0.14995272500E+03 -0.12434210931E+03 -0.24459384730E+03  0.33674609133E+03  0.12500000000E+03 0.  0.
</event>
<event>
 4    0  0.2225052E-002  0.2563247E+03  0.7546771E-02  0.1109372E+00
         21   -1    0    0  502  501  0.00000000000E+00  0.00000000000E+00  0.61382050794E+03  0.61382050794E+03  0.00000000000E+00 0.  1.
         21   -1    0    0  501  502 -0.00000000000E+00 -0.00000000000E+00 -0.10703837759E+03  0.10703837759E+03  0.00000000000E+00 0.  1.
         25    1    1    2    0    0  0.11964609988E+03 -0.53830006153E+02 -0.15226893996E+01  0.18121859000E+03  0.12500000000E+03 0.  0.
         25    1    1    2    0    0 -0.11964609988E+03  0.53830006153E+02  0.50830481975E+03  0.53964029553E+03  0.12500000000E+03 0.  0.
</event>
<event>
 4    0  0.2225052E-002  0.1929968E+03  0.7546771E-02  0.1155786E+00
         21   -1    0    0  502  501  0.00000000000E+00  0.00000000000E+00  0.15487677763E+02  0.15487677763E+02  0.00000000000E+00 0.  1.
         21   -1    0    0  501  502 -0.00000000000E+00 -0.00000000000E+00 -0.24049945359E+04  0.24049945359E+04  0.00000000000E+00 0.  1.
         25    1    1    2    0    0  0.13421846291E+03  0.59447531637E+02 -0.12487606967E+04  0.12635572336E+04  0.12500000000E+03 0.  0.
         25    1    1    2    0    0 -0.13421846291E+03 -0.59447531637E+02 -0.11407461614E+04  0.11569249801E+04  0.12500000000E+03 0.  0.
</event>
<event>
 4    0  0.2225052E-002  0.1641001E+03  0.7546771E-02  0.1184144E+00
         21   -1    0    0  502  501  0.00000000000E+00  0.00000000000E+00  0.13459614153E+03  0.13459614153E+03  0.00000000000E+00 0.  1.
         21   -1    0    0  501  502 -0.00000000000E+00 -0.00000000000E+00 -0.20007143366E+03  0.20007143366E+03  0.00000000000E+00 0.  1.
         25    1    1    2    0    0 -0.73976338890E+02 -0.41504035439E+02  0.32625078329E+02  0.15454604301E+03  0.12500000000E+03 0.  0.
         25    1    1    2    0    0  0.73976338890E+02  0.41504035439E+02 -0.98100370451E+02  0.18012153218E+03  0.12500000000E+03 0.  0.
</event>
<event>
 4    0  0.2225052E-002  0.2177698E+03  0.7546771E-02  0.1135557E+00
         21   -1    0    0  502  501  0.00000000000E+00  0.00000000000E+00  0.29469138761E+03  0.29469138761E+03  0.00000000000E+00 0.  1.
         21   -1    0    0  501  502 -0.00000000000E+00 -0.00000000000E+00 -0.16092665542E+03  0.16092665542E+03  0.00000000000E+00 0.  1.
         25    1    1    2    0    0  0.65366973750E+02  0.16234233954E+03  0.31087659022E+02  0.21730006675E+03  0.12500000000E+03 0.  0.
         25    1    1    2    0    0 -0.65366973750E+02 -0.16234233954E+03  0.10267707317E+03  0.23831797628E+03  0.12500000000E+03 0.  0.
</event>
<event>
 4    0  0.2225052E-002  0.2134521E+03  0.7546771E-02  0.1138861E+00
         21   -1    0    0  502  501  0.00000000000E+00  0.00000000000E+00  0.18578003632E+03  0.18578003632E+03  0.00000000000E+00 0.  1.
         21   -1    0    0  501  502 -0.00000000000E+00 -0.00000000000E+00 -0.24524592335E+03  0.24524592335E+03  0.00000000000E+00 0.  1.
         25    1    1    2    0    0  0.13853800019E+03 -0.92695740039E+02 -0.76565254278E+02  0.22197413336E+03  0.12500000000E+03 0.  0.
         25    1    1    2    0    0 -0.13853800019E+03  0.92695740039E+02  0.17099367247E+02  0.20905182630E+03  0.12500000000E+03 0.  0.
</event>
<event>
 4    0  0.2225052E-002  0.2013247E+03  0.7546771E-02  0.1148626E+00
         21   -1    0    0  502  501  0.00000000000E+00  0.00000000000E+00  0.43888729813E+03  0.43888729813E+03  0.00000000000E+00 0.  1.
         21   -1    0    0  501  502 -0.00000000000E+00 -0.00000000000E+00 -0.92350904340E+02  0.92350904340E+02  0.00000000000E+00 0.  1.
         25    1    1    2    0    0 -0.61939304134E+01 -0.35360115226E+02  0.37602862269E+03  0.39788343469E+03  0.12500000000E+03 0.  0.
         25    1    1    2    0    0  0.61939304134E+01  0.35360115226E+02 -0.29492228900E+02  0.13335476777E+03  0.12500000000E+03 0.  0.
</event>
<event>
 4    0  0.2225052E-002  0.3146733E+03  0.7546771E-02  0.1078127E+00
         21   -1    0    0  502  501  0.00000000000E+00  0.00000000000E+00  0.24609310089E+03  0.24609310089E+03  0.00000000000E+00 0. -1.
         21   -1    0    0  501  502 -0.00000000000E+00 -0.00000000000E+00 -0.40236527049E+03  0.40236527049E+03  0.00000000000E+00 0. -1.
         25    1    1    2    0    0 -0.23703796481E+03  0.65822770127E+02 -0.23397276467E+03  0.36178431203E+03  0.12500000000E+03 0.  0.
         25    1    1    2    0    0  0.23703796481E+03 -0.65822770127E+02  0.77700595072E+02  0.28667405934E+03  0.12500000000E+03 0.  0.
</event>
<event>
 4    0  0.2225052E-002  0.4287651E+03  0.7546771E-02  0.1034251E+00
         21   -1    0    0  502  501  0.00000000000E+00  0.00000000000E+00  0.29953495320E+03  0.29953495320E+03  0.00000000000E+00 0. -1.
         21   -1    0    0  501  502 -0.00000000000E+00 -0.00000000000E+00 -0.61374976177E+03  0.61374976177E+03  0.00000000000E+00 0.  1.
         25    1    1    2    0    0  0.15568407346E+03 -0.37084259791E+03 -0.24265916579E+03  0.48607636632E+03  0.12500000000E+03 0.  0.
         25    1    1    2    0    0 -0.15568407346E+03  0.37084259791E+03 -0.71555642780E+02  0.42720834866E+03  0.12500000000E+03 0.  0.
</event>
<event>
 4    0  0.2225052E-002  0.2444219E+03  0.7546771E-02  0.1116882E+00
         21   -1    0    0  502  501  0.00000000000E+00  0.00000000000E+00  0.80673157263E+02  0.80673157263E+02  0.00000000000E+00 0.  1.
         21   -1    0    0  501  502 -0.00000000000E+00 -0.00000000000E+00 -0.74054453681E+03  0.74054453681E+03  0.00000000000E+00 0.  1.
         25    1    1    2    0    0 -0.12219360097E+03 -0.15698623027E+03 -0.44314166529E+03  0.50157301376E+03  0.12500000000E+03 0.  0.
         25    1    1    2    0    0  0.12219360097E+03  0.15698623027E+03 -0.21672971425E+03  0.31964468031E+03  0.12500000000E+03 0.  0.
</event>
<event>
 4    0  0.2225052E-002  0.2315258E+03  0.7546771E-02  0.1125570E+00
         21   -1    0    0  502  501  0.00000000000E+00  0.00000000000E+00  0.24003457641E+02  0.24003457641E+02  0.00000000000E+00 0.  1.
         21   -1    0    0  501  502 -0.00000000000E+00 -0.00000000000E+00 -0.22331857518E+04  0.22331857518E+04  0.00000000000E+00 0.  1.
         25    1    1    2    0    0 -0.25531410554E+02  0.12111280718E+03 -0.18383597970E+04  0.18467571330E+04  0.12500000000E+03 0.  0.
         25    1    1    2    0    0  0.25531410554E+02 -0.12111280718E+03 -0.37082249713E+03  0.41043207643E+03  0.12500000000E+03 0.  0.
</event>
<event>
 4    0  0.2225052E-002  0.2618417E+03  0.7546771E-02  0.1106042E+00
         21   -1    0    0  502  501  0.00000000000E+00  0.00000000000E+00  0.70694308428E+03  0.70694308428E+03  0.00000000000E+00 0. -1.
         21   -1    0    0  501  502 -0.00000000000E+00 -0.00000000000E+00 -0.96982457657E+02  0.96982457657E+02  0.00000000000E+00 0. -1.
         25    1    1    2    0    0 -0.53917259821E+02  0.18215075970E+03  0.10570736225E+03  0.25076885094E+03  0.12500000000E+03 0.  0.
         25    1    1    2    0    0  0.53917259821E+02 -0.18215075970E+03  0.50425326437E+03  0.55315669100E+03  0.12500000000E+03 0.  0.
</event>
<event>
 4    0  0.2225052E-002  0.2034981E+03  0.7546771E-02  0.1146821E+00
         21   -1    0    0  502  501  0.00000000000E+00  0.00000000000E+00  0.49275191460E+03  0.49275191460E+03  0.00000000000E+00 0. -1.
         21   -1    0    0  501  502 -0.00000000000E+00 -0.00000000000E+00 -0.84041264292E+02  0.84041264292E+02  0.00000000000E+00 0. -1.
         25    1    1    2    0    0  0.64278605013E+02 -0.13638715229E+03  0.28266481154E+03  0.34388601317E+03  0.12500000000E+03 0.  0.
         25    1    1    2    0    0 -0.64278605013E+02  0.13638715229E+03  0.12604583877E+03  0.23290716572E+03  0.12500000000E+03 0.  0.
</event>
<event>
 4    0  0.2225052E-002  0.1740714E+03  0.7546771E-02  0.1173667E+00
         21   -1    0    0  502  501  0.00000000000E+00  0.00000000000E+00  0.13081276283E+04  0.13081276283E+04  0.00000000000E+00 0.  1.
         21   -1    0    0  501  502 -0.00000000000E+00 -0.00000000000E+00 -0.23163525903E+02  0.23163525903E+02  0.00000000000E+00 0.  1.
         25    1    1    2    0    0 -0.13182208383E+02 -0.94394144307E+02  0.92843354518E+03  0.94164636298E+03  0.12500000000E+03 0.  0.
         25    1    1    2    0    0  0.13182208383E+02  0.94394144307E+02  0.35653055721E+03  0.38964479122E+03  0.12500000000E+03 0.  0.
</event>
<event>
 4    0  0.2225052E-002  0.2102262E+03  0.7546771E-02  0.1141387E+00
         21   -1    0    0  502  501  0.00000000000E+00  0.00000000000E+00  0.24552115410E+04  0.24552115410E+04  0.00000000000E+00 0.  1.
         21   -1    0    0  501  502 -0.00000000000E+00 -0.00000000000E+00 -0.18000508628E+02  0.18000508628E+02  0.00000000000E+00 0.  1.
         25    1    1    2    0    0 -0.13594286693E+03  0.26062980900E+02  0.64798605423E+03  0.67429271724E+03  0.12500000000E+03 0.  0.
         25    1    1    2    0    0  0.13594286693E+03 -0.26062980900E+02  0.17892249781E+04  0.17989193323E+04  0.12500000000E+03 0.  0.
</event>
<event>
 4    0  0.2225052E-002  0.1809467E+03  0.7546771E-02  0.1166890E+00
         21   -1    0    0  502  501  0.00000000000E+00  0.00000000000E+00  0.21565867872E+03  0.21565867872E+03  0.00000000000E+00 0.  1.
         21   -1    0    0  501  502 -0.00000000000E+00 -0.00000000000E+00 -0.15182193063E+03  0.15182193063E+03  0.00000000000E+00 0.  1.
         25    1    1    2    0    0 -0.13023788643E+03  0.12224025834E+02  0.29562404741E+02  0.18333103840E+03  0.12500000000E+03 0.  0.
         25    1    1    2    0    0  0.13023788643E+03 -0.12224025834E+02  0.34274343345E+02  0.18414957095E+03  0.12500000000E+03 0.  0.
</event>
<event>
 4    0  0.2225052E-002  0.1809310E+03  0.7546771E-02  0.1166905E+00
         21   -1    0    0  502  501  0.00000000000E+00  0.00000000000E+00  0.63138434278E+03  0.63138434278E+03  0.00000000000E+00 0. -1.
         21   -1    0    0  501  502 -0.00000000000E+00 -0.00000000000E+00 -0.51848040129E+02  0.51848040129E+02  0.00000000000E+00 0. -1.
         25    1    1    2    0    0  0.69485857184E+02  0.11072064150E+03  0.28057716058E+03  0.33382014295E+03  0.12500000000E+03 0.  0.
         25    1    1    2    0    0 -0.69485857184E+02 -0.11072064150E+03  0.29895914207E+03  0.34941223995E+03  0.12500000000E+03 0.  0.
</event>
<event>
 4    0  0.2225052E-002  0.1849705E+03  0.7546771E-02  0.1163077E+00
         21   -1    0    0  502  501  0.00000000000E+00  0.00000000000E+00  0.83786959642E+02  0.83786959642E+02  0.00000000000E+00 0.  1.
         21   -1    0    0  501  502 -0.00000000000E+00 -0.00000000000E+00 -0.40834622410E+03  0.40834622410E+03  0.00000000000E+00 0.  1.
         25    1    1    2    0    0 -0.13067106242E+03  0.38883826323E+02 -0.16425731009E+03  0.24737086009E+03  0.12500000000E+03 0.  0.
         25    1    1    2    0    0  0.13067106242E+03 -0.38883826323E+02 -0.16030195437E+03  0.24476232365E+03  0.12500000000E+03 0.  0.
</event>
<event>
 4    0  0.2225052E-002  0.1890664E+03  0.7546771E-02  0.1159306E+00
         21   -1    0    0  502  501  0.00000000000E+00  0.00000000000E+00  0.66808096631E+02  0.66808096631E+02  0.00000000000E+00 0.  1.
         21   -1    0    0  501  502 -0.00000000000E+00 -0.00000000000E+00 -0.53505625652E+03  0.53505625652E+03  0.00000000000E+00 0.  1.
         25    1    1    2    0    0 -0.62297588786E+01 -0.12621464863E+03 -0.13156113392E+03  0.22113859768E+03  0.12500000000E+03 0.  0.
         25    1    1    2    0    0  0.62297588786E+01  0.12621464863E+03 -0.33668702596E+03  0.38072575547E+03  0.12500000000E+03 0.  0.
</event>
<event>
 4    0  0.2225052E-002  0.2976681E+03  0.7546771E-02  0.1086412E+00
         21   -1    0    0  502  501  0.00000000000E+00  0.00000000000E+00  0.13914255911E+03  0.13914255911E+03  0.00000000000E+00 0.  1.
         21   -1    0    0  501  502 -0.00000000000E+00 -0.00000000000E+00 -0.63680223886E+03  0.63680223886E+03  0.00000000000E+00 0.  1.
         25    1    1    2    0    0 -0.21743940740E+03 -0.50284250670E+01 -0.45767921425E+03  0.52191995948E+03  0.12500000000E+03 0.  0.
         25    1    1    2    0    0  0.21743940740E+03  0.50284250670E+01 -0.39980465502E+02  0.25402483849E+03  0.12500000000E+03 0.  0.
</event>
<event>
 4    0  0.2225052E-002  0.3000732E+03  0.7546771E-02  0.1085204E+00
         21   -1    0    0  502  501  0.00000000000E+00  0.00000000000E+00  0.34826525439E+02  0.34826525439E+02  0.00000000000E+00 0. -1.
         21   -1    0    0  501  502 -0.00000000000E+00 -0.00000000000E+00 -0.25854983898E+04  0.25854983898E+04  0.00000000000E+00 0. -1.
         25    1    1    2    0    0 -0.21560607151E+02 -0.26554847299E+03 -0.10193267392E+04  0.10609584593E+04  0.12500000000E+03 0.  0.
         25    1    1    2    0    0  0.21560607151E+02  0.26554847299E+03 -0.15313451252E+04  0.15593664559E+04  0.12500000000E+03 0.  0.
</event>
<event>
 4    0  0.2225052E-002  0.2320401E+03  0.7546771E-02  0.1125212E+00
         21   -1    0    0  502  501  0.00000000000E+00  0.00000000000E+00  0.70234546240E+03  0.70234546240E+03  0.00000000000E+00 0. -1.
         21   -1    0    0  501  502 -0.00000000000E+00 -0.00000000000E+00 -0.76661127170E+02  0.76661127170E+02  0.00000000000E+00 0. -1.
         25    1    1    2    0    0 -0.34202097729E+02 -0.97745030180E+02  0.34509039335E+02  0.16595104160E+03  0.12500000000E+03 0.  0.
         25    1    1    2    0    0  0.34202097729E+02  0.97745030180E+02  0.59117529589E+03  0.61305554796E+03  0.12500000000E+03 0.  0.
</event>
<event>
 4    0  0.2225052E-002  0.2174846E+03  0.7546771E-02  0.1135772E+00
         21   -1    0    0  502  501  0.00000000000E+00  0.00000000000E+00  0.39717159793E+03  0.39717159793E+03  0.00000000000E+00 0.  1.
         21   -1    0    0  501  502 -0.00000000000E+00 -0.00000000000E+00 -0.11909100614E+03  0.11909100614E+03  0.00000000000E+00 0.  1.
         25    1    1    2    0    0 -0.69688588848E+02 -0.14278974598E+03  0.43872717193E+02  0.20687007103E+03  0.12500000000E+03 0.  0.
         25    1    1    2    0    0  0.69688588848E+02  0.14278974598E+03  0.23420787460E+03  0.30939253304E+03  0.12500000000E+03 0.  0.
</event>
<event>
 4    0  0.2225052E-002  0.2915628E+03  0.7546771E-02  0.1089536E+00
         21   -1    0    0  502  501  0.00000000000E+00  0.00000000000E+00  0.32946132525E+03  0.32946132525E+03  0.00000000000E+00 0. -1.
         21   -1    0    0  501  502 -0.00000000000E+00 -0.00000000000E+00 -0.25802376484E+03  0.25802376484E+03  0.00000000000E+00 0. -1.
         25    1    1    2    0    0 -0.20298984983E+03  0.77215418095E+02  0.18588597172E+03  0.31200271538E+03  0.12500000000E+03 0.  0.
         25    1    1    2    0    0  0.20298984983E+03 -0.77215418095E+02 -0.11444841131E+03  0.27548237471E+03  0.12500000000E+03 0.  0.
</event>
<event>
 4    0  0.2225052E-002  0.1530425E+03  0.7546771E-02  0.1196783E+00
         21   -1    0    0  502  501  0.00000000000E+00  0.00000000000E+00  0.13715484881E+04  0.13715484881E+04  0.00000000000E+00 0.  1.
         21   -1    0    0  501  502 -0.00000000000E+00 -0.00000000000E+00 -0.17077057722E+02  0.17077057722E+02  0.00000000000E+00 0.  1.
         25    1    1    2    0    0  0.85606185683E+02 -0.21220003447E+02  0.65782554191E+03  0.67538000501E+03  0.12500000000E+03 0.  0.
         25    1    1    2    0    0 -0.85606185683E+02  0.21220003447E+02  0.69664588850E+03  0.71324554084E+03  0.12500000000E+03 0.  0.
</event>
<event>
 4    0  0.2225052E-002  0.1786315E+03  0.7546771E-02  0.1169134E+00
         21   -1    0    0  502  501  0.00000000000E+00  0.00000000000E+00  0.12185281466E+03  0.12185281466E+03  0.00000000000E+00 0. -1.
         21   -1    0    0  501  502 -0.00000000000E+00 -0.00000000000E+00 -0.26186698075E+03  0.26186698075E+03  0.00000000000E+00 0.  1.
         25    1    1    2    0    0  0.12756320224E+03  0.14918385669E+01 -0.73340549102E+02  0.19307623440E+03  0.12500000000E+03 0.  0.
         25    1    1    2    0    0 -0.12756320224E+03 -0.14918385669E+01 -0.66673616991E+02  0.19064356100E+03  0.12500000000E+03 0.  0.
</event>
<event>
 4    0  0.2225052E-002  0.2038784E+03  0.7546771E-02  0.1146507E+00
         21   -1    0    0  502  501  0.00000000000E+00  0.00000000000E+00  0.15128272478E+04  0.15128272478E+04  0.00000000000E+00 0.  1.
         21   -1    0    0  501  502 -0.00000000000E+00 -0.00000000000E+00 -0.27475981675E+02  0.27475981675E+02  0.00000000000E+00 0.  1.
         25    1    1    2    0    0 -0.15744846792E+03 -0.33851884076E+02  0.73386211455E+03  0.76165252791E+03  0.12500000000E+03 0.  0.
         25    1    1    2    0    0  0.15744846792E+03  0.33851884076E+02  0.75148915154E+03  0.77865070153E+03  0.12500000000E+03 0.  0.
</event>
<event>
 4    0  0.2225052E-002  0.3059081E+03  0.7546771E-02  0.1082324E+00
         21   -1    0    0  502  501  0.00000000000E+00  0.00000000000E+00  0.23744524337E+04  0.23744524337E+04  0.00000000000E+00 0. -1.
         21   -1    0    0  501  502 -0.00000000000E+00 -0.00000000000E+00 -0.39411088964E+02  0.39411088964E+02  0.00000000000E+00 0. -1.
         25    1    1    2    0    0  0.14878731502E+03  0.80931598944E+02  0.20432513384E+04  0.20540663623E+04  0.12500000000E+03 0.  0.
         25    1    1    2    0    0 -0.14878731502E+03 -0.80931598944E+02  0.29179000636E+03  0.35979716040E+03  0.12500000000E+03 0.  0.
</event>
<event>
 4    0  0.2225052E-002  0.2127058E+03  0.7546771E-02  0.1139441E+00
         21   -1    0    0  502  501  0.00000000000E+00  0.00000000000E+00  0.47302382722E+03  0.47302382722E+03  0.00000000000E+00 0.  1.
         21   -1    0    0  501  502 -0.00000000000E+00 -0.00000000000E+00 -0.95647946361E+02  0.95647946361E+02  0.00000000000E+00 0.  1.
         25    1    1    2    0    0  0.39952805114E+02 -0.16346377526E+03  0.23692476540E+03  0.31634629272E+03  0.12500000000E+03 0.  0.
         25    1    1    2    0    0 -0.39952805114E+02  0.16346377526E+03  0.14045111547E+03  0.25232548087E+03  0.12500000000E+03 0.  0.
</event>
<event>
 4    0  0.2225052E-002  0.3803619E+03  0.7546771E-02  0.1050800E+00
         21   -1    0    0  502  501  0.00000000000E+00  0.00000000000E+00  0.37176162489E+03  0.37176162489E+03  0.00000000000E+00 0.  1.
         21   -1    0    0  501  502 -0.00000000000E+00 -0.00000000000E+00 -0.38916116026E+03  0.38916116026E+03  0.00000000000E+00 0.  1.
         25    1    1    2    0    0 -0.12868369584E+03  0.27776850251E+03  0.17932639061E+03  0.37616191850E+03  0.12500000000E+03 0.  0.
         25    1    1    2    0    0  0.12868369584E+03 -0.27776850251E+03 -0.19672592598E+03  0.38476086666E+03  0.12500000000E+03 0.  0.
</event>
<event>
 4    0  0.2225052E-002  0.2084983E+03  0.7546771E-02  0.1142761E+00
         21   -1    0    0  502  501  0.00000000000E+00  0.00000000000E+00  0.92939815870E+02  0.92939815870E+02  0.00000000000E+00 0. -1.
         21   -1    0    0  501  502 -0.00000000000E+00 -0.00000000000E+00 -0.46773847933E+03  0.46773847933E+03  0.00000000000E+00 0. -1.
         25    1    1    2    0    0  0.11004989543E+03  0.11829797864E+03 -0.24350383943E+03  0.31784353234E+03  0.12500000000E+03 0.  0.
         25    1    1    2    0    0 -0.11004989543E+03 -0.11829797864E+03 -0.13129482403E+03  0.24283476286E+03  0.12500000000E+03 0.  0.
</event>
<event>
 4    0  0.2225052E-002  0.1717056E+03  0.7546771E-02  0.1176081E+00
         21   -1    0    0  502  501  0.00000000000E+00  0.00000000000E+00  0.41865281657E+03  0.41865281657E+03  0.00000000000E+00 0.  1.
         21   -1    0    0  501  502 -0.00000000000E+00 -0.00000000000E+00 -0.70423099903E+02  0.70423099903E+02  0.00000000000E+00 0.  1.
         25    1    1    2    0    0  0.26548907082E+02  0.10980225928E+03  0.12695680970E+03  0.21096068862E+03  0.12500000000E+03 0.  0.
         25    1    1    2    0    0 -0.26548907082E+02 -0.10980225928E+03  0.22127290697E+03  0.27811522786E+03  0.12500000000E+03 0.  0.
</event>
<event>
 4    0  0.2225052E-002  0.2507433E+03  0.7546771E-02  0.1112836E+00
         21   -1    0    0  502  501  0.00000000000E+00  0.00000000000E+00  0.99648531520E+03  0.99648531520E+03  0.00000000000E+00 0.  1.
         21   -1    0    0  501  502 -0.00000000000E+00 -0.00000000000E+00 -0.63093944361E+02  0.63093944361E+02  0.00000000000E+00 0.  1.
         25    1    1    2    0    0 -0.18665650912E+03 -0.11998989333E+02  0.23272322030E+03  0.32368151849E+03  0.12500000000E+03 0.  0.
         25    1    1    2    0    0  0.18665650912E+03  0.11998989333E+02  0.70066815054E+03  0.73589774108E+03  0.12500000000E+03 0.  0.
</event>
<event>
 4    0  0.2225052E-002  0.2717713E+03  0.7546771E-02  0.1100270E+00
         21   -1    0    0  502  501  0.00000000000E+00  0.00000000000E+00  0.80451083936E+02  0.80451083936E+02  0.00000000000E+00 0. -1.
         21   -1    0    0  501  502 -0.00000000000E+00 -0.00000000000E+00 -0.91806920864E+03  0.91806920864E+03  0.00000000000E+00 0. -1.
         25    1    1    2    0    0 -0.15821509368E+03  0.52507158466E+02 -0.98266406217E+02  0.23036992892E+03  0.12500000000E+03 0.  0.
         25    1    1    2    0    0  0.15821509368E+03 -0.52507158466E+02 -0.73935171849E+03  0.76815036366E+03  0.12500000000E+03 0.  0.
</event>
<event>
 4    0  0.2225052E-002  0.1452841E+03  0.7546771E-02  0.1206391E+00
         21   -1    0    0  502  501  0.00000000000E+00  0.00000000000E+00  0.10104094300E+03  0.10104094300E+03  0.00000000000E+00 0. -1.
         21   -1    0    0  501  502 -0.00000000000E+00 -0.00000000000E+00 -0.20890015886E+03  0.20890015886E+03  0.00000000000E+00 0. -1.
         25    1    1    2    0    0 -0.39790731941E+02  0.47323065552E+02 -0.97385145785E+02  0.17009303778E+03  0.12500000000E+03 0.  0.
         25    1    1    2    0    0  0.39790731941E+02 -0.47323065552E+02 -0.10474070071E+02  0.13984806407E+03  0.12500000000E+03 0.  0.
</event>
<event>
 4    0  0.2225052E-002  0.1614563E+03  0.7546771E-02  0.1187062E+00
         21   -1    0    0  502  501  0.00000000000E+00  0.00000000000E+00  0.44829095154E+02  0.44829095154E+02  0.00000000000E+00 0. -1.
         21   -1    0    0  501  502 -0.00000000000E+00 -0.00000000000E+00 -0.58150018969E+03  0.58150018969E+03  0.00000000000E+00 0. -1.
         25    1    1    2    0    0  0.55389505739E+01  0.10161667539E+03 -0.28637496258E+03  0.32862173983E+03  0.12500000000E+03 0.  0.
         25    1    1    2    0    0 -0.55389505739E+01 -0.10161667539E+03 -0.25029613195E+03  0.29770754502E+03  0.12500000000E+03 0.  0.
</event>
<event>
 4    0  0.2225052E-002  0.3101675E+03  0.7546771E-02  0.1080266E+00
         21   -1    0    0  502  501  0.00000000000E+00  0.00000000000E+00  0.87379536867E+03  0.87379536867E+03  0.00000000000E+00 0. -1.
         21   -1    0    0  501  502 -0.00000000000E+00 -0.00000000000E+00 -0.11009886630E+03  0.11009886630E+03  0.00000000000E+00 0. -1.
         25    1    1    2    0    0  0.15669351103E+03  0.14958458716E+03  0.90898679114E+02  0.26611271104E+03  0.12500000000E+03 0.  0.
         25    1    1    2    0    0 -0.15669351103E+03 -0.14958458716E+03  0.67279782326E+03  0.71778152393E+03  0.12500000000E+03 0.  0.
</event>
<event>
 4    0  0.2225052E-002  0.2223786E+03  0.7546771E-02  0.1132122E+00
         21   -1    0    0  502  501  0.00000000000E+00  0.00000000000E+00  0.74200617113E+03  0.74200617113E+03  0.00000000000E+00 0.  1.
         21   -1    0    0  501  502 -0.00000000000E+00 -0.00000000000E+00 -0.66646664710E+02  0.66646664710E+02  0.00000000000E+00 0.  1.
         25    1    1    2    0    0 -0.16386845251E+03  0.20171397160E+02  0.48502583064E+03  0.52738487974E+03  0.12500000000E+03 0.  0.
         25    1    1    2    0    0  0.16386845251E+03 -0.20171397160E+02  0.19033367578E+03  0.28126795610E+03  0.12500000000E+03 0.  0.
</event>
<event>
 4    0  0.2225052E-002  0.2167544E+03  0.7546771E-02  0.1136326E+00
         21   -1    0    0  502  501  0.00000000000E+00  0.00000000000E+00  0.80304764268E+02  0.80304764268E+02  0.00000000000E+00 0. -1.
         21   -1    0    0  501  502 -0.00000000000E+00 -0.00000000000E+00 -0.58505184829E+03  0.58505184829E+03  0.00000000000E+00 0. -1.
         25    1    1    2    0    0  0.15320323253E+03 -0.84398429586E+02 -0.29477244295E+03  0.36484259414E+03  0.12500000000E+03 0.  0.
         25    1    1    2    0    0 -0.15320323253E+03  0.84398429586E+02 -0.20997464107E+03  0.30051401842E+03  0.12500000000E+03 0.  0.
</event>
<event>
 4    0  0.2225052E-002  0.2140036E+03  0.7546771E-02  0.1138434E+00
         21   -1    0    0  502  501  0.00000000000E+00  0.00000000000E+00  0.11516791288E+04  0.11516791288E+04  0.00000000000E+00 0.  1.
         21   -1    0    0  501  502 -0.00000000000E+00 -0.00000000000E+00 -0.39765883183E+02  0.39765883183E+02  0.00000000000E+00 0.  1.
         25    1    1    2    0    0 -0.17295199601E+03 -0.16115581527E+02  0.55778797373E+03  0.59743160992E+03  0.12500000000E+03 0.  0.
         25    1    1    2    0    0  0.17295199601E+03  0.16115581527E+02  0.55412527190E+03  0.59401340208E+03  0.12500000000E+03 0.  0.
</event>
<event>
 4    0  0.2225052E-002  0.2121932E+03  0.7546771E-02  0.1139841E+00
         21   -1    0    0  502  501  0.00000000000E+00  0.00000000000E+00  0.16903881340E+04  0.16903881340E+04  0.00000000000E+00 0. -1.
         21   -1    0    0  501  502 -0.00000000000E+00 -0.00000000000E+00 -0.26636448078E+02  0.26636448078E+02  0.00000000000E+00 0. -1.
         25    1    1    2    0    0 -0.19202628160E+02 -0.94308562469E+02  0.14060244043E+04  0.14148471548E+04  0.12500000000E+03 0.  0.
         25    1    1    2    0    0  0.19202628160E+02  0.94308562469E+02  0.25772728166E+03  0.30217742734E+03  0.12500000000E+03 0.  0.
</event>
<event>
 4    0  0.2225052E-002  0.1894738E+03  0.7546771E-02  0.1158937E+00
         21   -1    0    0  502  501  0.00000000000E+00  0.00000000000E+00  0.42819266293E+03  0.42819266293E+03  0.00000000000E+00 0.  1.
         21   -1    0    0  501  502 -0.00000000000E+00 -0.00000000000E+00 -0.83841546744E+02  0.83841546744E+02  0.00000000000E+00 0.  1.
         25    1    1    2    0    0  0.61197980771E+02  0.12783115109E+03  0.15358296714E+03  0.24351329293E+03  0.12500000000E+03 0.  0.
         25    1    1    2    0    0 -0.61197980771E+02 -0.12783115109E+03  0.19076814905E+03  0.26852091675E+03  0.12500000000E+03 0.  0.
</event>
<event>
 4    0  0.2225052E-002  0.2209643E+03  0.7546771E-02  0.1133166E+00
         21   -1    0    0  502  501  0.00000000000E+00  0.00000000000E+00  0.18169103735E+03  0.18169103735E+03  0.00000000000E+00 0. -1.
         21   -1    0    0  501  502 -0.00000000000E+00 -0.00000000000E+00 -0.26872672298E+03  0.26872672298E+03  0.00000000000E+00 0. -1.
         25    1    1    2    0    0 -0.82703879804E+02  0.13782070149E+03  0.43954770175E+02  0.20830626327E+03  0.12500000000E+03 0.  0.
         25    1    1    2    0    0  0.82703879804E+02 -0.13782070149E+03 -0.13099045581E+03  0.24211149706E+03  0.12500000000E+03 0.  0.
</event>
<event>
 4    0  0.2225052E-002  0.2403559E+03  0.7546771E-02  0.1119556E+00
         21   -1    0    0  502  501  0.00000000000E+00  0.00000000000E+00  0.82368325558E+02  0.82368325558E+02  0.00000000000E+00 0.  1.
         21   -1    0    0  501  502 -0.00000000000E+00 -0.00000000000E+00 -0.70137362977E+03  0.70137362977E+03  0.00000000000E+00 0.  1.
         25    1    1    2    0    0 -0.12081794016E+03  0.86390531253E+02 -0.78439093194E+02  0.20937523706E+03  0.12500000000E+03 0.  0.
         25    1    1    2    0    0  0.12081794016E+03 -0.86390531253E+02 -0.54056621102E+03  0.57436671826E+03  0.12500000000E+03 0.  0.
</event>
<event>
 4    0  0.2225052E-002  0.1844093E+03  0.7546771E-02  0.1163603E+00
         21   -1    0    0  502  501  0.00000000000E+00  0.00000000000E+00  0.45688104890E+03  0.45688104890E+03  0.00000000000E+00 0. -1.
         21   -1    0    0  501  502 -0.00000000000E+00 -0.00000000000E+00 -0.74432456252E+02  0.74432456252E+02  0.00000000000E+00 0. -1.
         25    1    1    2    0    0  0.28273804098E+02 -0.10832141959E+03  0.81051845624E+02  0.18635272904E+03  0.12500000000E+03 0.  0.
         25    1    1    2    0    0 -0.28273804098E+02  0.10832141959E+03  0.30139674702E+03  0.34496077611E+03  0.12500000000E+03 0.  0.
</event>
<event>
 4    0  0.2225052E-002  0.1638310E+03  0.7546771E-02  0.1184438E+00
         21   -1    0    0  502  501  0.00000000000E+00  0.00000000000E+00  0.62009225227E+03  0.62009225227E+03  0.00000000000E+00 0. -1.
         21   -1    0    0  501  502 -0.00000000000E+00 -0.00000000000E+00 -0.43284866892E+02  0.43284866892E+02  0.00000000000E+00 0. -1.
         25    1    1    2    0    0 -0.20094126802E+02  0.74271681884E+02  0.43573328755E+03  0.45979186002E+03  0.12500000000E+03 0.  0.
         25    1    1    2    0    0  0.20094126802E+02 -0.74271681884E+02  0.14107409783E+03  0.20358525914E+03  0.12500000000E+03 0.  0.
</event>
<event>
 4    0  0.2225052E-002  0.1682109E+03  0.7546771E-02  0.1179727E+00
         21   -1    0    0  502  501  0.00000000000E+00  0.00000000000E+00  0.15221934932E+03  0.15221934932E+03  0.00000000000E+00 0. -1.
         21   -1    0    0  501  502 -0.00000000000E+00 -0.00000000000E+00 -0.18588244339E+03  0.18588244339E+03  0.00000000000E+00 0. -1.
         25    1    1    2    0    0  0.80296941709E+02 -0.30085586232E+02  0.56451472853E+02  0.16175447485E+03  0.12500000000E+03 0.  0.
         25    1    1    2    0    0 -0.80296941709E+02  0.30085586232E+02 -0.90114566918E+02  0.17634731786E+03  0.12500000000E+03 0.  0.
</event>
<event>
 4    0  0.2225052E-002  0.1857543E+03  0.7546771E-02  0.1162347E+00
         21   -1    0    0  502  501  0.00000000000E+00  0.00000000000E+00  0.19041995793E+03  0.19041995793E+03  0.00000000000E+00 0. -1.
         21   -1    0    0  501  502 -0.00000000000E+00 -0.00000000000E+00 -0.18120303318E+03  0.18120303318E+03  0.00000000000E+00 0. -1.
         25    1    1    2    0    0 -0.10771959067E+03 -0.10782978666E+02 -0.80033714382E+02  0.18371221593E+03  0.12500000000E+03 0.  0.
         25    1    1    2    0    0  0.10771959067E+03  0.10782978666E+02  0.89250639133E+02  0.18791077518E+03  0.12500000000E+03 0.  0.
</event>
<event>
 4    0  0.2225052E-002  0.2359837E+03  0.7546771E-02  0.1122498E+00
         21   -1    0    0  502  501  0.00000000000E+00  0.00000000000E+00  0.11372274801E+03  0.11372274801E+03  0.00000000000E+00 0.  1.
         21   -1    0    0  501  502 -0.00000000000E+00 -0.00000000000E+00 -0.48968464187E+03  0.48968464187E+03  0.00000000000E+00 0.  1.
         25    1    1    2    0    0  0.12112038587E+03  0.15786337385E+03 -0.16019640131E+03  0.28439212308E+03  0.12500000000E+03 0.  0.
         25    1    1    2    0    0 -0.12112038587E+03 -0.15786337385E+03 -0.21576549256E+03  0.31901526681E+03  0.12500000000E+03 0.  0.
</event>
<event>
 4    0  0.2225052E-002  0.2111536E+03  0.7546771E-02  0.1140656E+00
         21   -1    0    0  502  501  0.00000000000E+00  0.00000000000E+00  0.26919580699E+03  0.26919580699E+03  0.00000000000E+00 0.  1.
         21   -1    0    0  501  502 -0.00000000000E+00 -0.00000000000E+00 -0.16562601859E+03  0.16562601859E+03  0.00000000000E+00 0.  1.
         25    1    1    2    0    0  0.16122080737E+03  0.24175034372E+02  0.15091287281E+01  0.20543577703E+03  0.12500000000E+03 0.  0.
         25    1    1    2    0    0 -0.16122080737E+03 -0.24175034372E+02  0.10206065968E+03  0.22938604855E+03  0.12500000000E+03 0.  0.
</event>
<event>
 4    0  0.2225052E-002  0.1997510E+03  0.7546771E-02  0.1149949E+00
         21   -1    0    0  502  501  0.00000000000E+00  0.00000000000E+00  0.50197810795E+03  0.50197810795E+03  0.00000000000E+00 0. -1.
         21   -1    0    0  501  502 -0.00000000000E+00 -0.00000000000E+00 -0.79486468320E+02  0.79486468320E+02  0.00000000000E+00 0. -1.
         25    1    1    2    0    0  0.60260670962E+02  0.65594602222E+02  0.25187200738E+02  0.15554226238E+03  0.12500000000E+03 0.  0.
         25    1    1    2    0    0 -0.60260670962E+02 -0.65594602222E+02  0.39730443890E+03  0.42592231389E+03  0.12500000000E+03 0.  0.
</event>
<event>
 4    0  0.2225052E-002  0.1908926E+03  0.7546771E-02  0.1157659E+00
         21   -1    0    0  502  501  0.00000000000E+00  0.00000000000E+00  0.63765174827E+02  0.63765174827E+02  0.00000000000E+00 0.  1.
         21   -1    0    0  501  502 -0.00000000000E+00 -0.00000000000E+00 -0.57147157355E+03  0.57147157355E+03  0.00000000000E+00 0.  1.
         25    1    1    2    0    0 -0.40888107130E+02  0.24445936619E+02 -0.27265510600E+02  0.13652050831E+03  0.12500000000E+03 0.  0.
         25    1    1    2    0    0  0.40888107130E+02 -0.24445936619E+02 -0.48044088813E+03  0.49871624007E+03  0.12500000000E+03 0.  0.
</event>
<event>
 4    0  0.2225052E-002  0.2161052E+03  0.7546771E-02  0.1136821E+00
         21   -1    0    0  502  501  0.00000000000E+00  0.00000000000E+00  0.39231616530E+02  0.39231616530E+02  0.00000000000E+00 0.  1.
         21   -1    0    0  501  502 -0.00000000000E+00 -0.00000000000E+00 -0.11904037245E+04  0.11904037245E+04  0.00000000000E+00 0.  1.
         25    1    1    2    0    0 -0.14259970856E+03 -0.38646569659E+02 -0.30198965958E+03  0.35867950697E+03  0.12500000000E+03 0.  0.
         25    1    1    2    0    0  0.14259970856E+03  0.38646569659E+02 -0.84918244837E+03  0.87095583404E+03  0.12500000000E+03 0.  0.
</event>
<event>
 4    0  0.2225052E-002  0.3421315E+03  0.7546771E-02  0.1065892E+00
         21   -1    0    0  502  501  0.00000000000E+00  0.00000000000E+00  0.45654147188E+03  0.45654147188E+03  0.00000000000E+00 0. -1.
         21   -1    0    0  501  502 -0.00000000000E+00 -0.00000000000E+00 -0.25639277271E+03  0.25639277271E+03  0.00000000000E+00 0. -1.
         25    1    1    2    0    0  0.23778260782E+03 -0.55613717101E+02  0.31308000314E+03  0.41626619185E+03  0.12500000000E+03 0.  0.
         25    1    1    2    0    0 -0.23778260782E+03  0.55613717101E+02 -0.11293130397E+03  0.29666805275E+03  0.12500000000E+03 0.  0.
</event>
<event>
 4    0  0.2225052E-002  0.2368203E+03  0.7546771E-02  0.1121929E+00
         21   -1    0    0  502  501  0.00000000000E+00  0.00000000000E+00  0.54327307798E+03  0.54327307798E+03  0.00000000000E+00 0. -1.
         21   -1    0    0  501  502 -0.00000000000E+00 -0.00000000000E+00 -0.10323329574E+03  0.10323329574E+03  0.00000000000E+00 0. -1.
         25    1    1    2    0    0  0.11237278566E+03 -0.57260962169E+02  0.61395406527E+01  0.17767710799E+03  0.12500000000E+03 0.  0.
         25    1    1    2    0    0 -0.11237278566E+03  0.57260962169E+02  0.43390024159E+03  0.46882926572E+03  0.12500000000E+03 0.  0.
</event>
<event>
 4    0  0.2225052E-002  0.7399721E+03  0.7546771E-02  0.9651215E-01
         21   -1    0    0  502  501  0.00000000000E+00  0.00000000000E+00  0.14670559961E+04  0.14670559961E+04  0.00000000000E+00 0. -1.
         21   -1    0    0  501  502 -0.00000000000E+00 -0.00000000000E+00 -0.37323636134E+03  0.37323636134E+03  0.00000000000E+00 0. -1.
         25    1    1    2    0    0 -0.32681580482E+03  0.60980473690E+03  0.25992735512E+03  0.74957162257E+03  0.12500000000E+03 0.  0.
         25    1    1    2    0    0  0.32681580482E+03 -0.60980473690E+03  0.83389227966E+03  0.10907207349E+04  0.12500000000E+03 0.  0.
</event>
<event>
 4    0  0.2225052E-002  0.2260742E+03  0.7546771E-02  0.1129434E+00
         21   -1    0    0  502  501  0.00000000000E+00  0.00000000000E+00  0.94328211708E+03  0.94328211708E+03  0.00000000000E+00 0. -1.
         21   -1    0    0  501  502 -0.00000000000E+00 -0.00000000000E+00 -0.54182664029E+02  0.54182664029E+02  0.00000000000E+00 0. -1.
         25    1    1    2    0    0  0.47729057720E+02 -0.15732331430E+03  0.64740916948E+03  0.67955303023E+03  0.12500000000E+03 0.  0.
         25    1    1    2    0    0 -0.47729057720E+02  0.15732331430E+03  0.24169028357E+03  0.31791175087E+03  0.12500000000E+03 0.  0.
</event>
<event>
 4    0  0.2225052E-002  0.2296596E+03  0.7546771E-02  0.1126880E+00
         21   -1    0    0  502  501  0.00000000000E+00  0.00000000000E+00  0.26013289211E+03  0.26013289211E+03  0.00000000000E+00 0. -1.
         21   -1    0    0  501  502 -0.00000000000E+00 -0.00000000000E+00 -0.20275607780E+03  0.20275607780E+03  0.00000000000E+00 0. -1.
         25    1    1    2    0    0  0.11396215237E+03 -0.68802334517E+02 -0.11166854430E+03  0.21404671731E+03  0.12500000000E+03 0.  0.
         25    1    1    2    0    0 -0.11396215237E+03  0.68802334517E+02  0.16904535860E+03  0.24884225259E+03  0.12500000000E+03 0.  0.
</event>
<event>
 4    0  0.2225052E-002  0.2368353E+03  0.7546771E-02  0.1121919E+00
         21   -1    0    0  502  501  0.00000000000E+00  0.00000000000E+00  0.19508803896E+04  0.19508803896E+04  0.00000000000E+00 0.  1.
         21   -1    0    0  501  502 -0.00000000000E+00 -0.00000000000E+00 -0.28751607718E+02  0.28751607718E+02  0.00000000000E+00 0.  1.
         25    1    1    2    0    0  0.12633583282E+03 -0.33499797198E+02  0.32198045150E+03  0.36929580313E+03  0.12500000000E+03 0.  0.
         25    1    1    2    0    0 -0.12633583282E+03  0.33499797198E+02  0.16001483304E+04  0.16103361942E+04  0.12500000000E+03 0.  0.
</event>
<event>
 4    0  0.2225052E-002  0.2657439E+03  0.7546771E-02  0.1103740E+00
         21   -1    0    0  502  501  0.00000000000E+00  0.00000000000E+00  0.37169045113E+03  0.37169045113E+03  0.00000000000E+00 0. -1.
         21   -1    0    0  501  502 -0.00000000000E+00 -0.00000000000E+00 -0.18999638186E+03  0.18999638186E+03  0.00000000000E+00 0. -1.
         25    1    1    2    0    0 -0.20814493973E+03 -0.10345331161E+03  0.57967589022E+02  0.27020759611E+03  0.12500000000E+03 0.  0.
         25    1    1    2    0    0  0.20814493973E+03  0.10345331161E+03  0.12372648025E+03  0.29147923689E+03  0.12500000000E+03 0.  0.
</event>
<event>
 4    0  0.2225052E-002  0.2027088E+03  0.7546771E-02  0.1147474E+00
         21   -1    0    0  502  501  0.00000000000E+00  0.00000000000E+00  0.74675786663E+03  0.74675786663E+03  0.00000000000E+00 0.  1.
         21   -1    0    0  501  502 -0.00000000000E+00 -0.00000000000E+00 -0.55025675387E+02  0.55025675387E+02  0.00000000000E+00 0.  1.
         25    1    1    2    0    0  0.75445615597E+02 -0.59332559273E+02  0.59799781990E+03  0.61841635336E+03  0.12500000000E+03 0.  0.
         25    1    1    2    0    0 -0.75445615597E+02  0.59332559273E+02  0.93734371341E+02  0.18336718865E+03  0.12500000000E+03 0.  0.
</event>
<event>
 4    0  0.2225052E-002  0.1933985E+03  0.7546771E-02  0.1155431E+00
         21   -1    0    0  502  501  0.00000000000E+00  0.00000000000E+00  0.12185590153E+03  0.12185590153E+03  0.00000000000E+00 0.  1.
         21   -1    0    0  501  502 -0.00000000000E+00 -0.00000000000E+00 -0.30694435370E+03  0.30694435370E+03  0.00000000000E+00 0.  1.
         25    1    1    2    0    0 -0.10203361901E+03  0.99520134178E+02 -0.13494501828E+03  0.23270211532E+03  0.12500000000E+03 0.  0.
         25    1    1    2    0    0  0.10203361901E+03 -0.99520134178E+02 -0.50143433892E+02  0.19609813992E+03  0.12500000000E+03 0.  0.
</event>
<event>
 4    0  0.2225052E-002  0.2770253E+03  0.7546771E-02  0.1097325E+00
         21   -1    0    0  502  501  0.00000000000E+00  0.00000000000E+00  0.11199823392E+03  0.11199823392E+03  0.00000000000E+00 0. -1.
         21   -1    0    0  501  502 -0.00000000000E+00 -0.00000000000E+00 -0.68521619831E+03  0.68521619831E+03  0.00000000000E+00 0. -1.
         25    1    1    2    0    0  0.24343366524E+03  0.41316394446E+02 -0.26892708082E+03  0.38589346797E+03  0.12500000000E+03 0.  0.
         25    1    1    2    0    0 -0.24343366524E+03 -0.41316394446E+02 -0.30429088356E+03  0.41132096426E+03  0.12500000000E+03 0.  0.
</event>
<event>
 4    0  0.2225052E-002  0.1500917E+03  0.7546771E-02  0.1200360E+00
         21   -1    0    0  502  501  0.00000000000E+00  0.00000000000E+00  0.79211541500E+02  0.79211541500E+02  0.00000000000E+00 0. -1.
         21   -1    0    0  501  502 -0.00000000000E+00 -0.00000000000E+00 -0.28439702567E+03  0.28439702567E+03  0.00000000000E+00 0. -1.
         25    1    1    2    0    0 -0.54521482702E+01 -0.50370049581E+01 -0.20282583638E+03  0.23836614114E+03  0.12500000000E+03 0.  0.
         25    1    1    2    0    0  0.54521482702E+01  0.50370049581E+01 -0.23596477910E+01  0.12524242603E+03  0.12500000000E+03 0.  0.
</event>
<event>
 4    0  0.2225052E-002  0.4434041E+03  0.7546771E-02  0.1029707E+00
         21   -1    0    0  502  501  0.00000000000E+00  0.00000000000E+00  0.34384176385E+03  0.34384176385E+03  0.00000000000E+00 0.  1.
         21   -1    0    0  501  502 -0.00000000000E+00 -0.00000000000E+00 -0.57179559304E+03  0.57179559304E+03  0.00000000000E+00 0.  1.
         25    1    1    2    0    0  0.39778852787E+03 -0.31941111511E+02 -0.26616696343E+03  0.49570737329E+03  0.12500000000E+03 0.  0.
         25    1    1    2    0    0 -0.39778852787E+03  0.31941111511E+02  0.38213134237E+02  0.41992998361E+03  0.12500000000E+03 0.  0.
</event>
<event>
 4    0  0.2225052E-002  0.2199807E+03  0.7546771E-02  0.1133897E+00
         21   -1    0    0  502  501  0.00000000000E+00  0.00000000000E+00  0.14176745618E+04  0.14176745618E+04  0.00000000000E+00 0. -1.
         21   -1    0    0  501  502 -0.00000000000E+00 -0.00000000000E+00 -0.34134424122E+02  0.34134424122E+02  0.00000000000E+00 0. -1.
         25    1    1    2    0    0  0.10673817485E+03 -0.78863001791E+02  0.28555137476E+03  0.33878754205E+03  0.12500000000E+03 0.  0.
         25    1    1    2    0    0 -0.10673817485E+03  0.78863001791E+02  0.10979887629E+04  0.11130214438E+04  0.12500000000E+03 0.  0.
</event>
<event>
 4    0  0.2225052E-002  0.3554423E+03  0.7546771E-02  0.1060403E+00
         21   -1    0    0  502  501  0.00000000000E+00  0.00000000000E+00  0.14536373534E+03  0.14536373534E+03  0.00000000000E+00 0.  1.
         21   -1    0    0  501  502 -0.00000000000E+00 -0.00000000000E+00 -0.86912468058E+03  0.86912468058E+03  0.00000000000E+00 0.  1.
         25    1    1    2    0    0 -0.31817528687E+02  0.26663028596E+03 -0.64229385592E+03  0.70729800076E+03  0.12500000000E+03 0.  0.
         25    1    1    2    0    0  0.31817528687E+02 -0.26663028596E+03 -0.81467089321E+02  0.30719041516E+03  0.12500000000E+03 0.  0.
</event>
<event>
 4    0  0.2225052E-002  0.3465418E+03  0.7546771E-02  0.1064043E+00
         21   -1    0    0  502  501  0.00000000000E+00  0.00000000000E+00  0.27073765443E+03  0.27073765443E+03  0.00000000000E+00 0. -1.
         21   -1    0    0  501  502 -0.00000000000E+00 -0.00000000000E+00 -0.44357031227E+03  0.44357031227E+03  0.00000000000E+00 0. -1.
         25    1    1    2    0    0  0.69765165768E+01 -0.86174413370E+02 -0.40738802333E+03  0.43481571138E+03  0.12500000000E+03 0.  0.
         25    1    1    2    0    0 -0.69765165768E+01  0.86174413370E+02  0.23455536550E+03  0.27949225533E+03  0.12500000000E+03 0.  0.
</event>
<event>
 4    0  0.2225052E-002  0.2246515E+03  0.7546771E-02  0.1130462E+00
         21   -1    0    0  502  501  0.00000000000E+00  0.00000000000E+00  0.74879114208E+02  0.74879114208E+02  0.00000000000E+00 0. -1.
         21   -1    0    0  501  502 -0.00000000000E+00 -0.00000000000E+00 -0.67399667547E+03  0.67399667547E+03  0.00000000000E+00 0. -1.
         25    1    1    2    0    0 -0.11332326126E+03 -0.14694970694E+03 -0.26593764749E+03  0.34754022827E+03  0.12500000000E+03 0.  0.
         25    1    1    2    0    0  0.11332326126E+03  0.14694970694E+03 -0.33317991377E+03  0.40133556141E+03  0.12500000000E+03 0.  0.
</event>
<event>
 4    0  0.2225052E-002  0.2145677E+03  0.7546771E-02  0.1137999E+00
         21   -1    0    0  502  501  0.00000000000E+00  0.00000000000E+00  0.30294310116E+02  0.30294310116E+02  0.00000000000E+00 0. -1.
         21   -1    0    0  501  502 -0.00000000000E+00 -0.00000000000E+00 -0.15197348609E+04  0.15197348609E+04  0.00000000000E+00 0. -1.
         25    1    1    2    0    0 -0.14258128454E+03 -0.10042136908E+03 -0.74713003526E+03  0.77733015100E+03  0.12500000000E+03 0.  0.
         25    1    1    2    0    0  0.14258128454E+03  0.10042136908E+03 -0.74231051550E+03  0.77269901999E+03  0.12500000000E+03 0.  0.
</event>
<event>
 4    0  0.2225052E-002  0.2427532E+03  0.7546771E-02  0.1117972E+00
         21   -1    0    0  502  501  0.00000000000E+00  0.00000000000E+00  0.13951465457E+03  0.13951465457E+03  0.00000000000E+00 0.  1.
         21   -1    0    0  501  502 -0.00000000000E+00 -0.00000000000E+00 -0.42238641070E+03  0.42238641070E+03  0.00000000000E+00 0.  1.
         25    1    1    2    0    0 -0.83549129378E+02  0.60697121933E+02 -0.35052753430E+03  0.38621127629E+03  0.12500000000E+03 0.  0.
         25    1    1    2    0    0  0.83549129378E+02 -0.60697121933E+02  0.67655778168E+02  0.17568978898E+03  0.12500000000E+03 0.  0.
</event>
<event>
 4    0  0.2225052E-002  0.2025746E+03  0.7546771E-02  0.1147585E+00
         21   -1    0    0  502  501  0.00000000000E+00  0.00000000000E+00  0.10401908139E+04  0.10401908139E+04  0.00000000000E+00 0. -1.
         21   -1    0    0  501  502 -0.00000000000E+00 -0.00000000000E+00 -0.39450912224E+02  0.39450912224E+02  0.00000000000E+00 0. -1.
         25    1    1    2    0    0 -0.98461977357E+02  0.45719155024E+02  0.81143870160E+03  0.82815624648E+03  0.12500000000E+03 0.  0.
         25    1    1    2    0    0  0.98461977357E+02 -0.45719155024E+02  0.18930120005E+03  0.25148547962E+03  0.12500000000E+03 0.  0.
</event>
<event>
 4    0  0.2225052E-002  0.2179839E+03  0.7546771E-02  0.1135395E+00
         21   -1    0    0  502  501  0.00000000000E+00  0.00000000000E+00  0.56612128270E+02  0.56612128270E+02  0.00000000000E+00 0. -1.
         21   -1    0    0  501  502 -0.00000000000E+00 -0.00000000000E+00 -0.83934302286E+03  0.83934302286E+03  0.00000000000E+00 0. -1.
         25    1    1    2    0    0 -0.11283342600E+03  0.98462905787E+02 -0.59130902062E+03  0.62265374302E+03  0.12500000000E+03 0.  0.
         25    1    1    2    0    0  0.11283342600E+03 -0.98462905787E+02 -0.19142187398E+03  0.27330140811E+03  0.12500000000E+03 0.  0.
</event>
<event>
 4    0  0.2225052E-002  0.2516052E+03  0.7546771E-02  0.1112295E+00
         21   -1    0    0  502  501  0.00000000000E+00  0.00000000000E+00  0.19292582974E+03  0.19292582974E+03  0.00000000000E+00 0. -1.
         21   -1    0    0  501  502 -0.00000000000E+00 -0.00000000000E+00 -0.32813218956E+03  0.32813218956E+03  0.00000000000E+00 0. -1.
         25    1    1    2    0    0  0.10026334362E+03  0.98656450540E+02  0.10533645576E+03  0.21565389452E+03  0.12500000000E+03 0.  0.
         25    1    1    2    0    0 -0.10026334362E+03 -0.98656450540E+02 -0.24054281558E+03  0.30540412478E+03  0.12500000000E+03 0.  0.
</event>
<event>
 4    0  0.2225052E-002  0.2528861E+03  0.7546771E-02  0.1111494E+00
         21   -1    0    0  502  501  0.00000000000E+00  0.00000000000E+00  0.11100576485E+04  0.11100576485E+04  0.00000000000E+00 0.  1.
         21   -1    0    0  501  502 -0.00000000000E+00 -0.00000000000E+00 -0.57610877421E+02  0.57610877421E+02  0.00000000000E+00 0. -1.
         25    1    1    2    0    0 -0.13252274831E+03  0.17529600129E+03  0.51248172247E+03  0.57144858278E+03  0.12500000000E+03 0.  0.
         25    1    1    2    0    0  0.13252274831E+03 -0.17529600129E+03  0.53996504861E+03  0.59621994315E+03  0.12500000000E+03 0.  0.
</event>
<event>
 4    0  0.2225052E-002  0.2687740E+03  0.7546771E-02  0.1101983E+00
         21   -1    0    0  502  501  0.00000000000E+00  0.00000000000E+00  0.55662855665E+02  0.55662855665E+02  0.00000000000E+00 0. -1.
         21   -1    0    0  501  502 -0.00000000000E+00 -0.00000000000E+00 -0.12978036858E+04  0.12978036858E+04  0.00000000000E+00 0. -1.
         25    1    1    2    0    0 -0.17139526864E+02  0.21730371903E+03 -0.38088537172E+03  0.45630399524E+03  0.12500000000E+03 0.  0.
         25    1    1    2    0    0  0.17139526864E+02 -0.21730371903E+03 -0.86125545839E+03  0.89716254620E+03  0.12500000000E+03 0.  0.
</event>
<event>
 4    0  0.2225052E-002  0.2311314E+03  0.7546771E-02  0.1125846E+00
         21   -1    0    0  502  501  0.00000000000E+00  0.00000000000E+00  0.76832106990E+02  0.76832106990E+02  0.00000000000E+00 0. -1.
         21   -1    0    0  501  502 -0.00000000000E+00 -0.00000000000E+00 -0.69530463526E+03  0.69530463526E+03  0.00000000000E+00 0. -1.
         25    1    1    2    0    0 -0.69706733498E+02 -0.13840619584E+03 -0.11314772248E+03  0.22900373544E+03  0.12500000000E+03 0.  0.
         25    1    1    2    0    0  0.69706733498E+02  0.13840619584E+03 -0.50532480579E+03  0.54313300681E+03  0.12500000000E+03 0.  0.
</event>
<event>
 4    0  0.2225052E-002  0.2056651E+03  0.7546771E-02  0.1145046E+00
         21   -1    0    0  502  501  0.00000000000E+00  0.00000000000E+00  0.10275326527E+03  0.10275326527E+03  0.00000000000E+00 0.  1.
         21   -1    0    0  501  502 -0.00000000000E+00 -0.00000000000E+00 -0.41164739896E+03  0.41164739896E+03  0.00000000000E+00 0.  1.
         25    1    1    2    0    0  0.95390141636E+01  0.75147191617E+02  0.26498406819E+02  0.14854379409E+03  0.12500000000E+03 0.  0.
         25    1    1    2    0    0 -0.95390141636E+01 -0.75147191617E+02 -0.33539254051E+03  0.36585687014E+03  0.12500000000E+03 0.  0.
</event>
<event>
 4    0  0.2225052E-002  0.2081448E+03  0.7546771E-02  0.1143044E+00
         21   -1    0    0  502  501  0.00000000000E+00  0.00000000000E+00  0.43805434224E+02  0.43805434224E+02  0.00000000000E+00 0.  1.
         21   -1    0    0  501  502 -0.00000000000E+00 -0.00000000000E+00 -0.98901543902E+03  0.98901543902E+03  0.00000000000E+00 0.  1.
         25    1    1    2    0    0 -0.91666922172E+02 -0.12652273047E+03 -0.33033169139E+03  0.38620571239E+03  0.12500000000E+03 0.  0.
         25    1    1    2    0    0  0.91666922172E+02  0.12652273047E+03 -0.61487831341E+03  0.64661516086E+03  0.12500000000E+03 0.  0.
</event>
<event>
 4    0  0.2225052E-002  0.2419453E+03  0.7546771E-02  0.1118504E+00
         21   -1    0    0  502  501  0.00000000000E+00  0.00000000000E+00  0.12526868278E+04  0.12526868278E+04  0.00000000000E+00 0. -1.
         21   -1    0    0  501  502 -0.00000000000E+00 -0.00000000000E+00 -0.46729596980E+02  0.46729596980E+02  0.00000000000E+00 0. -1.
         25    1    1    2    0    0  0.19228151242E+03 -0.66767224637E+02  0.70637364232E+03  0.74566665801E+03  0.12500000000E+03 0.  0.
         25    1    1    2    0    0 -0.19228151242E+03  0.66767224637E+02  0.49958358852E+03  0.55374976679E+03  0.12500000000E+03 0.  0.
</event>
<event>
 4    0  0.2225052E-002  0.2787735E+03  0.7546771E-02  0.1096361E+00
         21   -1    0    0  502  501  0.00000000000E+00  0.00000000000E+00  0.59615018376E+03  0.59615018376E+03  0.00000000000E+00 0. -1.
         21   -1    0    0  501  502 -0.00000000000E+00 -0.00000000000E+00 -0.13036087799E+03  0.13036087799E+03  0.00000000000E+00 0. -1.
         25    1    1    2    0    0 -0.75022679733E+02 -0.21164242249E+03  0.37365256300E+03  0.45349989560E+03  0.12500000000E+03 0.  0.
         25    1    1    2    0    0  0.75022679733E+02  0.21164242249E+03  0.92136742775E+02  0.27301116615E+03  0.12500000000E+03 0.  0.
</event>
<event>
 4    0  0.2225052E-002  0.2042417E+03  0.7546771E-02  0.1146209E+00
         21   -1    0    0  502  501  0.00000000000E+00  0.00000000000E+00  0.65847941390E+03  0.65847941390E+03  0.00000000000E+00 0.  1.
         21   -1    0    0  501  502 -0.00000000000E+00 -0.00000000000E+00 -0.63350016817E+02  0.63350016817E+02  0.00000000000E+00 0.  1.
         25    1    1    2    0    0  0.49948369851E+02  0.94340881788E+01  0.26640366254E+02  0.13754472285E+03  0.12500000000E+03 0.  0.
         25    1    1    2    0    0 -0.49948369851E+02 -0.94340881788E+01  0.56848903083E+03  0.58428470786E+03  0.12500000000E+03 0.  0.
</event>
<event>
 4    0  0.2225052E-002  0.1866223E+03  0.7546771E-02  0.1161544E+00
         21   -1    0    0  502  501  0.00000000000E+00  0.00000000000E+00  0.44210398974E+02  0.44210398974E+02  0.00000000000E+00 0. -1.
         21   -1    0    0  501  502 -0.00000000000E+00 -0.00000000000E+00 -0.78777604737E+03  0.78777604737E+03  0.00000000000E+00 0. -1.
         25    1    1    2    0    0  0.13282447689E+03  0.14079854366E+02 -0.28950921889E+03  0.34246338750E+03  0.12500000000E+03 0.  0.
         25    1    1    2    0    0 -0.13282447689E+03 -0.14079854366E+02 -0.45405642951E+03  0.48952305884E+03  0.12500000000E+03 0.  0.
</event>
<event>
 4    0  0.2225052E-002  0.2101704E+03  0.7546771E-02  0.1141431E+00
         21   -1    0    0  502  501  0.00000000000E+00  0.00000000000E+00  0.20212140930E+03  0.20212140930E+03  0.00000000000E+00 0. -1.
         21   -1    0    0  501  502 -0.00000000000E+00 -0.00000000000E+00 -0.21853998635E+03  0.21853998635E+03  0.00000000000E+00 0. -1.
         25    1    1    2    0    0 -0.70508423994E+02  0.11210334691E+03 -0.11320836785E+03  0.21442885252E+03  0.12500000000E+03 0.  0.
         25    1    1    2    0    0  0.70508423994E+02 -0.11210334691E+03  0.96789790798E+02  0.20623254313E+03  0.12500000000E+03 0.  0.
</event>
<event>
 4    0  0.2225052E-002  0.2770634E+03  0.7546771E-02  0.1097304E+00
         21   -1    0    0  502  501  0.00000000000E+00  0.00000000000E+00  0.84712480734E+03  0.84712480734E+03  0.00000000000E+00 0. -1.
         21   -1    0    0  501  502 -0.00000000000E+00 -0.00000000000E+00 -0.90617274202E+02  0.90617274202E+02  0.00000000000E+00 0. -1.
         25    1    1    2    0    0  0.16200929165E+03 -0.41278822727E+02  0.69959114475E+02  0.22015955461E+03  0.12500000000E+03 0.  0.
         25    1    1    2    0    0 -0.16200929165E+03  0.41278822727E+02  0.68654841866E+03  0.71758252693E+03  0.12500000000E+03 0.  0.
</event>
<event>
 4    0  0.2225052E-002  0.1989996E+03  0.7546771E-02  0.1150586E+00
         21   -1    0    0  502  501  0.00000000000E+00  0.00000000000E+00  0.31320631589E+02  0.31320631589E+02  0.00000000000E+00 0.  1.
         21   -1    0    0  501  502 -0.00000000000E+00 -0.00000000000E+00 -0.12643690939E+04  0.12643690939E+04  0.00000000000E+00 0.  1.
         25    1    1    2    0    0  0.91466396673E+02  0.45492583279E+02 -0.99534235940E+03  0.10083486943E+04  0.12500000000E+03 0.  0.
         25    1    1    2    0    0 -0.91466396673E+02 -0.45492583279E+02 -0.23770610293E+03  0.28734103122E+03  0.12500000000E+03 0.  0.
</event>
<event>
 4    0  0.2225052E-002  0.1796454E+03  0.7546771E-02  0.1168147E+00
         21   -1    0    0  502  501  0.00000000000E+00  0.00000000000E+00  0.43734129285E+03  0.43734129285E+03  0.00000000000E+00 0.  1.
         21   -1    0    0  501  502 -0.00000000000E+00 -0.00000000000E+00 -0.73792410922E+02  0.73792410922E+02  0.00000000000E+00 0.  1.
         25    1    1    2    0    0 -0.38754324704E+02  0.10546114620E+03  0.27201283772E+03  0.31974980050E+03  0.12500000000E+03 0.  0.
         25    1    1    2    0    0  0.38754324704E+02 -0.10546114620E+03  0.91536044212E+02  0.19138390327E+03  0.12500000000E+03 0.  0.
</event>
<event>
 4    0  0.2225052E-002  0.1920733E+03  0.7546771E-02  0.1156605E+00
         21   -1    0    0  502  501  0.00000000000E+00  0.00000000000E+00  0.13581510142E+04  0.13581510142E+04  0.00000000000E+00 0.  1.
         21   -1    0    0  501  502 -0.00000000000E+00 -0.00000000000E+00 -0.27163509224E+02  0.27163509224E+02  0.00000000000E+00 0.  1.
         25    1    1    2    0    0 -0.11005111127E+03 -0.40605828607E+02  0.35303940309E+03  0.39245624029E+03  0.12500000000E+03 0.  0.
         25    1    1    2    0    0  0.11005111127E+03  0.40605828607E+02  0.97794810192E+03  0.99285828317E+03  0.12500000000E+03 0.  0.
</event>
<event>
 4    0  0.2225052E-002  0.2481648E+03  0.7546771E-02  0.1114470E+00
         21   -1    0    0  502  501  0.00000000000E+00  0.00000000000E+00  0.33203428067E+03  0.33203428067E+03  0.00000000000E+00 0. -1.
         21   -1    0    0  501  502 -0.00000000000E+00 -0.00000000000E+00 -0.18548019933E+03  0.18548019933E+03  0.00000000000E+00 0. -1.
         25    1    1    2    0    0  0.14870447805E+03 -0.11378994253E+03 -0.35580316207E+02  0.22793010269E+03  0.12500000000E+03 0.  0.
         25    1    1    2    0    0 -0.14870447805E+03  0.11378994253E+03  0.18213439754E+03  0.28958437731E+03  0.12500000000E+03 0.  0.
</event>
<event>
 4    0  0.2225052E-002  0.2171625E+03  0.7546771E-02  0.1136016E+00
         21   -1    0    0  502  501  0.00000000000E+00  0.00000000000E+00  0.19127160587E+03  0.19127160587E+03  0.00000000000E+00 0. -1.
         21   -1    0    0  501  502 -0.00000000000E+00 -0.00000000000E+00 -0.24655804047E+03  0.24655804047E+03  0.00000000000E+00 0. -1.
         25    1    1    2    0    0 -0.36138785700E+02 -0.14925255490E+03  0.62251547238E+02  0.20756346526E+03  0.12500000000E+03 0.  0.
         25    1    1    2    0    0  0.36138785700E+02  0.14925255490E+03 -0.11753798183E+03  0.23026618108E+03  0.12500000000E+03 0.  0.
</event>
<event>
 4    0  0.2225052E-002  0.1560796E+03  0.7546771E-02  0.1193195E+00
         21   -1    0    0  502  501  0.00000000000E+00  0.00000000000E+00  0.16765418190E+03  0.16765418190E+03  0.00000000000E+00 0. -1.
         21   -1    0    0  501  502 -0.00000000000E+00 -0.00000000000E+00 -0.14530405622E+03  0.14530405622E+03  0.00000000000E+00 0. -1.
         25    1    1    2    0    0 -0.46330273188E+02  0.35033932137E+02  0.84587931765E+02  0.16172194908E+03  0.12500000000E+03 0.  0.
         25    1    1    2    0    0  0.46330273188E+02 -0.35033932137E+02 -0.62237806084E+02  0.15123628903E+03  0.12500000000E+03 0.  0.
</event>
<event>
 4    0  0.2225052E-002  0.2316245E+03  0.7546771E-02  0.1125502E+00
         21   -1    0    0  502  501  0.00000000000E+00  0.00000000000E+00  0.10154722744E+04  0.10154722744E+04  0.00000000000E+00 0.  1.
         21   -1    0    0  501  502 -0.00000000000E+00 -0.00000000000E+00 -0.52832466604E+02  0.52832466604E+02  0.00000000000E+00 0.  1.
         25    1    1    2    0    0 -0.13359298439E+03  0.13533671465E+03  0.38181456056E+03  0.44448899927E+03  0.12500000000E+03 0.  0.
         25    1    1    2    0    0  0.13359298439E+03 -0.13533671465E+03  0.58082524720E+03  0.62381574171E+03  0.12500000000E+03 0.  0.
</event>
<event>
 4    0  0.2225052E-002  0.2011044E+03  0.7546771E-02  0.1148811E+00
         21   -1    0    0  502  501  0.00000000000E+00  0.00000000000E+00  0.96792631710E+03  0.96792631710E+03  0.00000000000E+00 0. -1.
         21   -1    0    0  501  502 -0.00000000000E+00 -0.00000000000E+00 -0.41783122219E+02  0.41783122219E+02  0.00000000000E+00 0. -1.
         25    1    1    2    0    0  0.66110348510E+02 -0.15475244780E+02  0.81993799581E+03  0.83218590372E+03  0.12500000000E+03 0.  0.
         25    1    1    2    0    0 -0.66110348510E+02  0.15475244780E+02  0.10620519907E+03  0.17752353560E+03  0.12500000000E+03 0.  0.
</event>
<event>
 4    0  0.2225052E-002  0.2125534E+03  0.7546771E-02  0.1139560E+00
         21   -1    0    0  502  501  0.00000000000E+00  0.00000000000E+00  0.47862724214E+02  0.47862724214E+02  0.00000000000E+00 0. -1.
         21   -1    0    0  501  502 -0.00000000000E+00 -0.00000000000E+00 -0.94392781015E+03  0.94392781015E+03  0.00000000000E+00 0. -1.
         25    1    1    2    0    0  0.14382974937E+03 -0.12144231652E+02 -0.66588732187E+03  0.69272318035E+03  0.12500000000E+03 0.  0.
         25    1    1    2    0    0 -0.14382974937E+03  0.12144231652E+02 -0.23017776407E+03  0.29906735401E+03  0.12500000000E+03 0.  0.
</event>
<event>
 4    0  0.2225052E-002  0.2289049E+03  0.7546771E-02  0.1127413E+00
         21   -1    0    0  502  501  0.00000000000E+00  0.00000000000E+00  0.20427011502E+03  0.20427011502E+03  0.00000000000E+00 0.  1.
         21   -1    0    0  501  502 -0.00000000000E+00 -0.00000000000E+00 -0.25651055903E+03  0.25651055903E+03  0.00000000000E+00 0.  1.
         25    1    1    2    0    0 -0.17645759787E+03  0.44275080850E+02  0.34893917608E+02  0.22347293375E+03  0.12500000000E+03 0.  0.
         25    1    1    2    0    0  0.17645759787E+03 -0.44275080850E+02 -0.87134361625E+02  0.23730774030E+03  0.12500000000E+03 0.  0.
</event>
<event>
 4    0  0.2225052E-002  0.1936313E+03  0.7546771E-02  0.1155226E+00
         21   -1    0    0  502  501  0.00000000000E+00  0.00000000000E+00  0.56156320738E+03  0.56156320738E+03  0.00000000000E+00 0.  1.
         21   -1    0    0  501  502 -0.00000000000E+00 -0.00000000000E+00 -0.66765526200E+02  0.66765526200E+02  0.00000000000E+00 0.  1.
         25    1    1    2    0    0 -0.90178272472E+02  0.87737737811E+02  0.37347389193E+03  0.41344622313E+03  0.12500000000E+03 0.  0.
         25    1    1    2    0    0  0.90178272472E+02 -0.87737737811E+02  0.12132378925E+03  0.21488251046E+03  0.12500000000E+03 0.  0.
</event>
<event>
 4    0  0.2225052E-002  0.1936474E+03  0.7546771E-02  0.1155212E+00
         21   -1    0    0  502  501  0.00000000000E+00  0.00000000000E+00  0.14073897641E+03  0.14073897641E+03  0.00000000000E+00 0. -1.
         21   -1    0    0  501  502 -0.00000000000E+00 -0.00000000000E+00 -0.26644595816E+03  0.26644595816E+03  0.00000000000E+00 0. -1.
         25    1    1    2    0    0  0.11593133801E+03 -0.32448063189E+02 -0.15318072453E+03  0.23147847914E+03  0.12500000000E+03 0.  0.
         25    1    1    2    0    0 -0.11593133801E+03  0.32448063189E+02  0.27473742784E+02  0.17570645543E+03  0.12500000000E+03 0.  0.
</event>
<event>
 4    0  0.2225052E-002  0.3239408E+03  0.7546771E-02  0.1073850E+00
         21   -1    0    0  502  501  0.00000000000E+00  0.00000000000E+00  0.17873712329E+03  0.17873712329E+03  0.00000000000E+00 0.  1.
         21   -1    0    0  501  502 -0.00000000000E+00 -0.00000000000E+00 -0.58710599193E+03  0.58710599193E+03  0.00000000000E+00 0.  1.
         25    1    1    2    0    0 -0.23360161253E+03  0.78635267534E+02 -0.44196869865E+01  0.27640143326E+03  0.12500000000E+03 0.  0.
         25    1    1    2    0    0  0.23360161253E+03 -0.78635267534E+02 -0.40394918165E+03  0.48944168195E+03  0.12500000000E+03 0.  0.
</event>
<event>
 4    0  0.2225052E-002  0.3014185E+03  0.7546771E-02  0.1084534E+00
         21   -1    0    0  502  501  0.00000000000E+00  0.00000000000E+00  0.84823156709E+02  0.84823156709E+02  0.00000000000E+00 0. -1.
         21   -1    0    0  501  502 -0.00000000000E+00 -0.00000000000E+00 -0.10710882399E+04  0.10710882399E+04  0.00000000000E+00 0.  1.
         25    1    1    2    0    0 -0.20523132236E+03 -0.18033885765E+03 -0.44671250073E+03  0.53834845366E+03  0.12500000000E+03 0.  0.
         25    1    1    2    0    0  0.20523132236E+03  0.18033885765E+03 -0.53955258245E+03  0.61756294293E+03  0.12500000000E+03 0.  0.
</event>
<event>
 4    0  0.2225052E-002  0.2466430E+03  0.7546771E-02  0.1115445E+00
         21   -1    0    0  502  501  0.00000000000E+00  0.00000000000E+00  0.26948504684E+03  0.26948504684E+03  0.00000000000E+00 0. -1.
         21   -1    0    0  501  502 -0.00000000000E+00 -0.00000000000E+00 -0.22573714685E+03  0.22573714685E+03  0.00000000000E+00 0. -1.
         25    1    1    2    0    0  0.16111260421E+03  0.94618667766E+02  0.12375043302E+03  0.25661085947E+03  0.12500000000E+03 0.  0.
         25    1    1    2    0    0 -0.16111260421E+03 -0.94618667766E+02 -0.80002533036E+02  0.23861133422E+03  0.12500000000E+03 0.  0.
</event>
<event>
 4    0  0.2225052E-002  0.2297679E+03  0.7546771E-02  0.1126803E+00
         21   -1    0    0  502  501  0.00000000000E+00  0.00000000000E+00  0.40332598075E+03  0.40332598075E+03  0.00000000000E+00 0. -1.
         21   -1    0    0  501  502 -0.00000000000E+00 -0.00000000000E+00 -0.13089480407E+03  0.13089480407E+03  0.00000000000E+00 0. -1.
         25    1    1    2    0    0 -0.11834394564E+03 -0.25351476658E+02 -0.38241434249E+02  0.17814430704E+03  0.12500000000E+03 0.  0.
         25    1    1    2    0    0  0.11834394564E+03  0.25351476658E+02  0.31067261094E+03  0.35607647777E+03  0.12500000000E+03 0.  0.
</event>
<event>
 4    0  0.2225052E-002  0.2069174E+03  0.7546771E-02  0.1144031E+00
         21   -1    0    0  502  501  0.00000000000E+00  0.00000000000E+00  0.69492632877E+03  0.69492632877E+03  0.00000000000E+00 0.  1.
         21   -1    0    0  501  502 -0.00000000000E+00 -0.00000000000E+00 -0.61610602293E+02  0.61610602293E+02  0.00000000000E+00 0.  1.
         25    1    1    2    0    0 -0.12063220606E+02 -0.15357063304E+03  0.20911929836E+03  0.28824528022E+03  0.12500000000E+03 0.  0.
         25    1    1    2    0    0  0.12063220606E+02  0.15357063304E+03  0.42419642812E+03  0.46829165085E+03  0.12500000000E+03 0.  0.
</event>
<event>
 4    0  0.2225052E-002  0.1620289E+03  0.7546771E-02  0.1186425E+00
         21   -1    0    0  502  501  0.00000000000E+00  0.00000000000E+00  0.84458323647E+02  0.84458323647E+02  0.00000000000E+00 0.  1.
         21   -1    0    0  501  502 -0.00000000000E+00 -0.00000000000E+00 -0.31084413799E+03  0.31084413799E+03  0.00000000000E+00 0.  1.
         25    1    1    2    0    0  0.46194742577E+02 -0.19903472895E+02 -0.22296783050E+03  0.26051824488E+03  0.12500000000E+03 0.  0.
         25    1    1    2    0    0 -0.46194742577E+02  0.19903472895E+02 -0.34179838444E+01  0.13478421676E+03  0.12500000000E+03 0.  0.
</event>
<event>
 4    0  0.2225052E-002  0.2848527E+03  0.7546771E-02  0.1093068E+00
         21   -1    0    0  502  501  0.00000000000E+00  0.00000000000E+00  0.22196041622E+03  0.22196041622E+03  0.00000000000E+00 0.  1.
         21   -1    0    0  501  502 -0.00000000000E+00 -0.00000000000E+00 -0.36556546746E+03  0.36556546746E+03  0.00000000000E+00 0.  1.
         25    1    1    2    0    0 -0.27208593150E+02 -0.90153079053E+02  0.17365120362E+03  0.23376831634E+03  0.12500000000E+03 0.  0.
         25    1    1    2    0    0  0.27208593150E+02  0.90153079053E+02 -0.31725625487E+03  0.35375756735E+03  0.12500000000E+03 0.  0.
</event>
<event>
 4    0  0.2225052E-002  0.1879500E+03  0.7546771E-02  0.1160323E+00
         21   -1    0    0  502  501  0.00000000000E+00  0.00000000000E+00  0.15361735746E+03  0.15361735746E+03  0.00000000000E+00 0.  1.
         21   -1    0    0  501  502 -0.00000000000E+00 -0.00000000000E+00 -0.22995584785E+03  0.22995584785E+03  0.00000000000E+00 0.  1.
         25    1    1    2    0    0  0.11226305846E+03  0.62295948741E+01  0.47560050670E+02  0.17472481383E+03  0.12500000000E+03 0.  0.
         25    1    1    2    0    0 -0.11226305846E+03 -0.62295948741E+01 -0.12389854106E+03  0.20884839148E+03  0.12500000000E+03 0.  0.
</event>
<event>
 4    0  0.2225052E-002  0.2307596E+03  0.7546771E-02  0.1126106E+00
         21   -1    0    0  502  501  0.00000000000E+00  0.00000000000E+00  0.13453561229E+03  0.13453561229E+03  0.00000000000E+00 0. -1.
         21   -1    0    0  501  502 -0.00000000000E+00 -0.00000000000E+00 -0.39580595145E+03  0.39580595145E+03  0.00000000000E+00 0. -1.
         25    1    1    2    0    0  0.54907667545E+02  0.18048875086E+03 -0.18245983859E+03  0.29070196738E+03  0.12500000000E+03 0.  0.
         25    1    1    2    0    0 -0.54907667545E+02 -0.18048875086E+03 -0.78810500575E+02  0.23963959636E+03  0.12500000000E+03 0.  0.
</event>
<event>
 4    0  0.2225052E-002  0.2026442E+03  0.7546771E-02  0.1147527E+00
         21   -1    0    0  502  501  0.00000000000E+00  0.00000000000E+00  0.96874335104E+03  0.96874335104E+03  0.00000000000E+00 0. -1.
         21   -1    0    0  501  502 -0.00000000000E+00 -0.00000000000E+00 -0.42389630640E+02  0.42389630640E+02  0.00000000000E+00 0. -1.
         25    1    1    2    0    0 -0.24046552061E+02  0.10466608195E+03  0.75738331521E+03  0.77510496807E+03  0.12500000000E+03 0.  0.
         25    1    1    2    0    0  0.24046552061E+02 -0.10466608195E+03  0.16897040520E+03  0.23602801361E+03  0.12500000000E+03 0.  0.
</event>
<event>
 4    0  0.2225052E-002  0.1873737E+03  0.7546771E-02  0.1160852E+00
         21   -1    0    0  502  501  0.00000000000E+00  0.00000000000E+00  0.19406681139E+03  0.19406681139E+03  0.00000000000E+00 0. -1.
         21   -1    0    0  501  502 -0.00000000000E+00 -0.00000000000E+00 -0.18091135017E+03  0.18091135017E+03  0.00000000000E+00 0. -1.
         25    1    1    2    0    0  0.15895166377E+02 -0.61331653801E+02 -0.11787597516E+03  0.18312283744E+03  0.12500000000E+03 0.  0.
         25    1    1    2    0    0 -0.15895166377E+02  0.61331653801E+02  0.13103143639E+03  0.19185532412E+03  0.12500000000E+03 0.  0.
</event>
<event>
 4    0  0.2225052E-002  0.2605623E+03  0.7546771E-02  0.1106806E+00
         21   -1    0    0  502  501  0.00000000000E+00  0.00000000000E+00  0.10928213460E+04  0.10928213460E+04  0.00000000000E+00 0. -1.
         21   -1    0    0  501  502 -0.00000000000E+00 -0.00000000000E+00 -0.62126065321E+02  0.62126065321E+02  0.00000000000E+00 0. -1.
         25    1    1    2    0    0  0.31025852690E+02 -0.78934982648E+02  0.44819646393E+02  0.15756628993E+03  0.12500000000E+03 0.  0.
         25    1    1    2    0    0 -0.31025852690E+02  0.78934982648E+02  0.98587563430E+03  0.99738112140E+03  0.12500000000E+03 0.  0.
</event>
<event>
 4    0  0.2225052E-002  0.3008739E+03  0.7546771E-02  0.1084805E+00
         21   -1    0    0  502  501  0.00000000000E+00  0.00000000000E+00  0.57540589096E+03  0.57540589096E+03  0.00000000000E+00 0.  1.
         21   -1    0    0  501  502 -0.00000000000E+00 -0.00000000000E+00 -0.15732386455E+03  0.15732386455E+03  0.00000000000E+00 0.  1.
         25    1    1    2    0    0  0.55928566511E+02  0.14574274581E+03  0.48276248423E+03  0.52254527908E+03  0.12500000000E+03 0.  0.
         25    1    1    2    0    0 -0.55928566511E+02 -0.14574274581E+03 -0.64680457820E+02  0.21018447643E+03  0.12500000000E+03 0.  0.
</event>
<event>
 4    0  0.2225052E-002  0.1647490E+03  0.7546771E-02  0.1183437E+00
         21   -1    0    0  502  501  0.00000000000E+00  0.00000000000E+00  0.16878977566E+03  0.16878977566E+03  0.00000000000E+00 0. -1.
         21   -1    0    0  501  502 -0.00000000000E+00 -0.00000000000E+00 -0.16080487964E+03  0.16080487964E+03  0.00000000000E+00 0. -1.
         25    1    1    2    0    0  0.64571340639E+02 -0.30023831568E+02  0.84305066949E+02  0.16674301427E+03  0.12500000000E+03 0.  0.
         25    1    1    2    0    0 -0.64571340639E+02  0.30023831568E+02 -0.76320170927E+02  0.16285164102E+03  0.12500000000E+03 0.  0.
</event>
<event>
 4    0  0.2225052E-002  0.2488226E+03  0.7546771E-02  0.1114051E+00
         21   -1    0    0  502  501  0.00000000000E+00  0.00000000000E+00  0.19591099521E+03  0.19591099521E+03  0.00000000000E+00 0.  1.
         21   -1    0    0  501  502 -0.00000000000E+00 -0.00000000000E+00 -0.31602461828E+03  0.31602461828E+03  0.00000000000E+00 0.  1.
         25    1    1    2    0    0  0.17822547784E+03 -0.10998001460E+03 -0.11074415322E+03  0.26786039654E+03  0.12500000000E+03 0.  0.
         25    1    1    2    0    0 -0.17822547784E+03  0.10998001460E+03 -0.93694698591E+01  0.24407521695E+03  0.12500000000E+03 0.  0.
</event>
<event>
 4    0  0.2225052E-002  0.2115120E+03  0.7546771E-02  0.1140374E+00
         21   -1    0    0  502  501  0.00000000000E+00  0.00000000000E+00  0.20880605633E+03  0.20880605633E+03  0.00000000000E+00 0.  1.
         21   -1    0    0  501  502 -0.00000000000E+00 -0.00000000000E+00 -0.21425297968E+03  0.21425297968E+03  0.00000000000E+00 0.  1.
         25    1    1    2    0    0 -0.13119484492E+03  0.73507931688E+02 -0.83332974330E+02  0.21256737277E+03  0.12500000000E+03 0.  0.
         25    1    1    2    0    0  0.13119484492E+03 -0.73507931688E+02  0.77886050982E+02  0.21049166324E+03  0.12500000000E+03 0.  0.
</event>
<event>
 4    0  0.2225052E-002  0.2174596E+03  0.7546771E-02  0.1135791E+00
         21   -1    0    0  502  501  0.00000000000E+00  0.00000000000E+00  0.16253476353E+03  0.16253476353E+03  0.00000000000E+00 0.  1.
         21   -1    0    0  501  502 -0.00000000000E+00 -0.00000000000E+00 -0.29094511312E+03  0.29094511312E+03  0.00000000000E+00 0.  1.
         25    1    1    2    0    0  0.26824265919E+02  0.62691842147E+02 -0.23557837116E+03  0.27526710169E+03  0.12500000000E+03 0.  0.
         25    1    1    2    0    0 -0.26824265919E+02 -0.62691842147E+02  0.10716802157E+03  0.17821277496E+03  0.12500000000E+03 0.  0.
</event>
<event>
 4    0  0.2225052E-002  0.1919149E+03  0.7546771E-02  0.1156745E+00
         21   -1    0    0  502  501  0.00000000000E+00  0.00000000000E+00  0.11896598883E+03  0.11896598883E+03  0.00000000000E+00 0.  1.
         21   -1    0    0  501  502 -0.00000000000E+00 -0.00000000000E+00 -0.30959559894E+03  0.30959559894E+03  0.00000000000E+00 0.  1.
         25    1    1    2    0    0 -0.13248478163E+03 -0.10593988661E+02 -0.28865202480E+02  0.18472317092E+03  0.12500000000E+03 0.  0.
         25    1    1    2    0    0  0.13248478163E+03  0.10593988661E+02 -0.16176440763E+03  0.24383841686E+03  0.12500000000E+03 0.  0.
</event>
<event>
 4    0  0.2225052E-002  0.2893591E+03  0.7546771E-02  0.1090684E+00
         21   -1    0    0  502  501  0.00000000000E+00  0.00000000000E+00  0.48500871585E+03  0.48500871585E+03  0.00000000000E+00 0.  1.
         21   -1    0    0  501  502 -0.00000000000E+00 -0.00000000000E+00 -0.17263335381E+03  0.17263335381E+03  0.00000000000E+00 0.  1.
         25    1    1    2    0    0  0.12750816186E+03 -0.38309941758E+02  0.41124725310E+03  0.44997253934E+03  0.12500000000E+03 0.  0.
         25    1    1    2    0    0 -0.12750816186E+03  0.38309941758E+02 -0.98871891063E+02  0.20766953031E+03  0.12500000000E+03 0.  0.
</event>
<event>
 4    0  0.2225052E-002  0.1765063E+03  0.7546771E-02  0.1171228E+00
         21   -1    0    0  502  501  0.00000000000E+00  0.00000000000E+00  0.12222522739E+03  0.12222522739E+03  0.00000000000E+00 0. -1.
         21   -1    0    0  501  502 -0.00000000000E+00 -0.00000000000E+00 -0.25489386625E+03  0.25489386625E+03  0.00000000000E+00 0. -1.
         25    1    1    2    0    0  0.61503330210E+02  0.66163941423E+02  0.25371444511E+02  0.15629791095E+03  0.12500000000E+03 0.  0.
         25    1    1    2    0    0 -0.61503330210E+02 -0.66163941423E+02 -0.15804008337E+03  0.22082118269E+03  0.12500000000E+03 0.  0.
</event>
<event>
 4    0  0.2225052E-002  0.1513444E+03  0.7546771E-02  0.1198831E+00
         21   -1    0    0  502  501  0.00000000000E+00  0.00000000000E+00  0.17595272201E+02  0.17595272201E+02  0.00000000000E+00 0.  1.
         21   -1    0    0  501  502 -0.00000000000E+00 -0.00000000000E+00 -0.13017770813E+04  0.13017770813E+04  0.00000000000E+00 0.  1.
         25    1    1    2    0    0  0.59717671030E+02 -0.39264577844E+02 -0.43893826903E+03  0.46195206605E+03  0.12500000000E+03 0.  0.
         25    1    1    2    0    0 -0.59717671030E+02  0.39264577844E+02 -0.84524354004E+03  0.85742028743E+03  0.12500000000E+03 0.  0.
</event>
<event>
 4    0  0.2225052E-002  0.2257382E+03  0.7546771E-02  0.1129676E+00
         21   -1    0    0  502  501  0.00000000000E+00  0.00000000000E+00  0.55722971372E+03  0.55722971372E+03  0.00000000000E+00 0. -1.
         21   -1    0    0  501  502 -0.00000000000E+00 -0.00000000000E+00 -0.91448318070E+02  0.91448318070E+02  0.00000000000E+00 0. -1.
         25    1    1    2    0    0 -0.34081637617E+02  0.17570233942E+03  0.31542629527E+03  0.38360346433E+03  0.12500000000E+03 0.  0.
         25    1    1    2    0    0  0.34081637617E+02 -0.17570233942E+03  0.15035510038E+03  0.26507456746E+03  0.12500000000E+03 0.  0.
</event>
<event>
 4    0  0.2225052E-002  0.2445867E+03  0.7546771E-02  0.1116774E+00
         21   -1    0    0  502  501  0.00000000000E+00  0.00000000000E+00  0.32346173741E+04  0.32346173741E+04  0.00000000000E+00 0. -1.
         21   -1    0    0  501  502 -0.00000000000E+00 -0.00000000000E+00 -0.18494512180E+02  0.18494512180E+02  0.00000000000E+00 0.  1.
         25    1    1    2    0    0  0.15853867461E+03 -0.13624521206E+03  0.17568245607E+04  0.17736275838E+04  0.12500000000E+03 0.  0.
         25    1    1    2    0    0 -0.15853867461E+03  0.13624521206E+03  0.14592983013E+04  0.14794843025E+04  0.12500000000E+03 0.  0.
</event>
<event>
 4    0  0.2225052E-002  0.1970985E+03  0.7546771E-02  0.1152210E+00
         21   -1    0    0  502  501  0.00000000000E+00  0.00000000000E+00  0.82042261132E+03  0.82042261132E+03  0.00000000000E+00 0. -1.
         21   -1    0    0  501  502 -0.00000000000E+00 -0.00000000000E+00 -0.47351005900E+02  0.47351005900E+02  0.00000000000E+00 0. -1.
         25    1    1    2    0    0  0.14608821384E+03  0.35800707796E+02  0.44043022179E+03  0.48189961317E+03  0.12500000000E+03 0.  0.
         25    1    1    2    0    0 -0.14608821384E+03 -0.35800707796E+02  0.33264138363E+03  0.38587400406E+03  0.12500000000E+03 0.  0.
</event>
<event>
 4    0  0.2225052E-002  0.1875586E+03  0.7546771E-02  0.1160682E+00
         21   -1    0    0  502  501  0.00000000000E+00  0.00000000000E+00  0.11126106211E+04  0.11126106211E+04  0.00000000000E+00 0. -1.
         21   -1    0    0  501  502 -0.00000000000E+00 -0.00000000000E+00 -0.31617738482E+02  0.31617738482E+02  0.00000000000E+00 0. -1.
         25    1    1    2    0    0 -0.66878877028E+02  0.12177568509E+03  0.49215773862E+03  0.52644690269E+03  0.12500000000E+03 0.  0.
         25    1    1    2    0    0  0.66878877028E+02 -0.12177568509E+03  0.58883514401E+03  0.61778145690E+03  0.12500000000E+03 0.  0.
</event>
<event>
 4    0  0.2225052E-002  0.2739223E+03  0.7546771E-02  0.1099056E+00
         21   -1    0    0  502  501  0.00000000000E+00  0.00000000000E+00  0.84422538959E+03  0.84422538959E+03  0.00000000000E+00 0. -1.
         21   -1    0    0  501  502 -0.00000000000E+00 -0.00000000000E+00 -0.88878453009E+02  0.88878453009E+02  0.00000000000E+00 0. -1.
         25    1    1    2    0    0 -0.12503463159E+03  0.45132592026E+02  0.29706914655E+02  0.18487322883E+03  0.12500000000E+03 0.  0.
         25    1    1    2    0    0  0.12503463159E+03 -0.45132592026E+02  0.72564002193E+03  0.74823061377E+03  0.12500000000E+03 0.  0.
</event>
<event>
 4    0  0.2225052E-002  0.2732755E+03  0.7546771E-02  0.1099419E+00
         21   -1    0    0  502  501  0.00000000000E+00  0.00000000000E+00  0.17248558454E+03  0.17248558454E+03  0.00000000000E+00 0. -1.
         21   -1    0    0  501  502 -0.00000000000E+00 -0.00000000000E+00 -0.43296088077E+03  0.43296088077E+03  0.00000000000E+00 0. -1.
         25    1    1    2    0    0  0.14756201541E+03  0.10360906243E+03  0.50245809840E+02  0.22507560422E+03  0.12500000000E+03 0.  0.
         25    1    1    2    0    0 -0.14756201541E+03 -0.10360906243E+03 -0.31072110607E+03  0.38037086109E+03  0.12500000000E+03 0.  0.
</event>
<event>
 4    0  0.2225052E-002  0.2673242E+03  0.7546771E-02  0.1102821E+00
         21   -1    0    0  502  501  0.00000000000E+00  0.00000000000E+00  0.26369091297E+03  0.26369091297E+03  0.00000000000E+00 0. -1.
         21   -1    0    0  501  502 -0.00000000000E+00 -0.00000000000E+00 -0.27100761467E+03  0.27100761467E+03  0.00000000000E+00 0. -1.
         25    1    1    2    0    0  0.17780501435E+03  0.40243386557E+02  0.14669897414E+03  0.26529180595E+03  0.12500000000E+03 0.  0.
         25    1    1    2    0    0 -0.17780501435E+03 -0.40243386557E+02 -0.15401567583E+03  0.26940672169E+03  0.12500000000E+03 0.  0.
</event>
<event>
 4    0  0.2225052E-002  0.4105863E+03  0.7546771E-02  0.1040174E+00
         21   -1    0    0  502  501  0.00000000000E+00  0.00000000000E+00  0.65609392967E+02  0.65609392967E+02  0.00000000000E+00 0.  1.
         21   -1    0    0  501  502 -0.00000000000E+00 -0.00000000000E+00 -0.25694665309E+04  0.25694665309E+04  0.00000000000E+00 0. -1.
         25    1    1    2    0    0  0.23637069589E+03 -0.23909827327E+03 -0.61081073243E+03  0.70834584845E+03  0.12500000000E+03 0.  0.
         25    1    1    2    0    0 -0.23637069589E+03  0.23909827327E+03 -0.18930464055E+04  0.19267300754E+04  0.12500000000E+03 0.  0.
</event>
<event>
 4    0  0.2225052E-002  0.1482976E+03  0.7546771E-02  0.1202581E+00
         21   -1    0    0  502  501  0.00000000000E+00  0.00000000000E+00  0.17600337988E+03  0.17600337988E+03  0.00000000000E+00 0.  1.
         21   -1    0    0  501  502 -0.00000000000E+00 -0.00000000000E+00 -0.12495314750E+03  0.12495314750E+03  0.00000000000E+00 0.  1.
         25    1    1    2    0    0  0.57331912789E+02  0.10388934361E+02 -0.29795352347E+02  0.14109444072E+03  0.12500000000E+03 0.  0.
         25    1    1    2    0    0 -0.57331912789E+02 -0.10388934361E+02  0.80845584728E+02  0.15986208666E+03  0.12500000000E+03 0.  0.
</event>
<event>
 4    0  0.2225052E-002  0.1694025E+03  0.7546771E-02  0.1178472E+00
         21   -1    0    0  502  501  0.00000000000E+00  0.00000000000E+00  0.82354830610E+02  0.82354830610E+02  0.00000000000E+00 0.  1.
         21   -1    0    0  501  502 -0.00000000000E+00 -0.00000000000E+00 -0.34845809414E+03  0.34845809414E+03  0.00000000000E+00 0.  1.
         25    1    1    2    0    0  0.41023644992E+02 -0.10451918926E+03 -0.10563155728E+03  0.19846971121E+03  0.12500000000E+03 0.  0.
         25    1    1    2    0    0 -0.41023644992E+02  0.10451918926E+03 -0.16047170625E+03  0.23234321354E+03  0.12500000000E+03 0.  0.
</event>
<event>
 4    0  0.2225052E-002  0.2654798E+03  0.7546771E-02  0.1103895E+00
         21   -1    0    0  502  501  0.00000000000E+00  0.00000000000E+00  0.26855949134E+02  0.26855949134E+02  0.00000000000E+00 0.  1.
         21   -1    0    0  501  502 -0.00000000000E+00 -0.00000000000E+00 -0.26243541354E+04  0.26243541354E+04  0.00000000000E+00 0.  1.
         25    1    1    2    0    0 -0.15764143469E+03  0.70917790463E+02 -0.20878452223E+04  0.20987145655E+04  0.12500000000E+03 0.  0.
         25    1    1    2    0    0  0.15764143469E+03 -0.70917790463E+02 -0.50965296397E+03  0.55249551910E+03  0.12500000000E+03 0.  0.
</event>
<event>
 4    0  0.2225052E-002  0.2238909E+03  0.7546771E-02  0.1131015E+00
         21   -1    0    0  502  501  0.00000000000E+00  0.00000000000E+00  0.22010217024E+03  0.22010217024E+03  0.00000000000E+00 0. -1.
         21   -1    0    0  501  502 -0.00000000000E+00 -0.00000000000E+00 -0.22774493637E+03  0.22774493637E+03  0.00000000000E+00 0. -1.
         25    1    1    2    0    0 -0.24917123836E+02 -0.13311795206E+03  0.12332267108E+03  0.22175376755E+03  0.12500000000E+03 0.  0.
         25    1    1    2    0    0  0.24917123836E+02  0.13311795206E+03 -0.13096543721E+03  0.22609333905E+03  0.12500000000E+03 0.  0.
</event>
<event>
 4    0  0.2225052E-002  0.3165243E+03  0.7546771E-02  0.1077260E+00
         21   -1    0    0  502  501  0.00000000000E+00  0.00000000000E+00  0.35947725560E+02  0.35947725560E+02  0.00000000000E+00 0. -1.
         21   -1    0    0  501  502 -0.00000000000E+00 -0.00000000000E+00 -0.27870372956E+04  0.27870372956E+04  0.00000000000E+00 0. -1.
         25    1    1    2    0    0  0.12852338015E+03 -0.21139581009E+03 -0.20570553765E+04  0.20756464703E+04  0.12500000000E+03 0.  0.
         25    1    1    2    0    0 -0.12852338015E+03  0.21139581009E+03 -0.69403419358E+03  0.74733855088E+03  0.12500000000E+03 0.  0.
</event>
<event>
 4    0  0.2225052E-002  0.2360870E+03  0.7546771E-02  0.1122427E+00
         21   -1    0    0  502  501  0.00000000000E+00  0.00000000000E+00  0.51427546230E+02  0.51427546230E+02  0.00000000000E+00 0. -1.
         21   -1    0    0  501  502 -0.00000000000E+00 -0.00000000000E+00 -0.10837982897E+04  0.10837982897E+04  0.00000000000E+00 0. -1.
         25    1    1    2    0    0  0.14649902203E+03 -0.58926867290E+02 -0.81238451650E+03  0.83697547264E+03  0.12500000000E+03 0.  0.
         25    1    1    2    0    0 -0.14649902203E+03  0.58926867290E+02 -0.21998622694E+03  0.29825036326E+03  0.12500000000E+03 0.  0.
</event>
<event>
 4    0  0.2225052E-002  0.1788010E+03  0.7546771E-02  0.1168968E+00
         21   -1    0    0  502  501  0.00000000000E+00  0.00000000000E+00  0.10088671118E+04  0.10088671118E+04  0.00000000000E+00 0.  1.
         21   -1    0    0  501  502 -0.00000000000E+00 -0.00000000000E+00 -0.31688826676E+02  0.31688826676E+02  0.00000000000E+00 0.  1.
         25    1    1    2    0    0 -0.10721602310E+03  0.71336401947E+01  0.28701958632E+03  0.33098550929E+03  0.12500000000E+03 0.  0.
         25    1    1    2    0    0  0.10721602310E+03 -0.71336401947E+01  0.69015869878E+03  0.70957042916E+03  0.12500000000E+03 0.  0.
</event>
<event>
 4    0  0.2225052E-002  0.2452372E+03  0.7546771E-02  0.1116352E+00
         21   -1    0    0  502  501  0.00000000000E+00  0.00000000000E+00  0.70778511260E+02  0.70778511260E+02  0.00000000000E+00 0.  1.
         21   -1    0    0  501  502 -0.00000000000E+00 -0.00000000000E+00 -0.84971080495E+03  0.84971080495E+03  0.00000000000E+00 0.  1.
         25    1    1    2    0    0  0.17683100128E+02 -0.63786420477E+02 -0.76544497043E+03  0.77840375271E+03  0.12500000000E+03 0.  0.
         25    1    1    2    0    0 -0.17683100128E+02  0.63786420477E+02 -0.13487323258E+02  0.14208556350E+03  0.12500000000E+03 0.  0.
</event>
<event>
 4    0  0.2225052E-002  0.1896740E+03  0.7546771E-02  0.1158756E+00
         21   -1    0    0  502  501  0.00000000000E+00  0.00000000000E+00  0.72330033539E+03  0.72330033539E+03  0.00000000000E+00 0. -1.
         21   -1    0    0  501  502 -0.00000000000E+00 -0.00000000000E+00 -0.49739011700E+02  0.49739011700E+02  0.00000000000E+00 0. -1.
         25    1    1    2    0    0 -0.10531047089E+03  0.46386495661E+02  0.50860130142E+03  0.53622969525E+03  0.12500000000E+03 0.  0.
         25    1    1    2    0    0  0.10531047089E+03 -0.46386495661E+02  0.16496002227E+03  0.23680965184E+03  0.12500000000E+03 0.  0.
</event>
<event>
 4    0  0.2225052E-002  0.1530440E+03  0.7546771E-02  0.1196782E+00
         21   -1    0    0  502  501  0.00000000000E+00  0.00000000000E+00  0.16532349221E+03  0.16532349221E+03  0.00000000000E+00 0.  1.
         21   -1    0    0  501  502 -0.00000000000E+00 -0.00000000000E+00 -0.14167651117E+03  0.14167651117E+03  0.00000000000E+00 0.  1.
         25    1    1    2    0    0 -0.76363345393E+02  0.13064713336E+02  0.54322009054E+02  0.15677349241E+03  0.12500000000E+03 0.  0.
         25    1    1    2    0    0  0.76363345393E+02 -0.13064713336E+02 -0.30675028015E+02  0.15022651097E+03  0.12500000000E+03 0.  0.
</event>
<event>
 4    0  0.2225052E-002  0.2101956E+03  0.7546771E-02  0.1141411E+00
         21   -1    0    0  502  501  0.00000000000E+00  0.00000000000E+00  0.40445262092E+03  0.40445262092E+03  0.00000000000E+00 0. -1.
         21   -1    0    0  501  502 -0.00000000000E+00 -0.00000000000E+00 -0.10923944703E+03  0.10923944703E+03  0.00000000000E+00 0. -1.
         25    1    1    2    0    0 -0.48457992959E+02 -0.10540513213E+03  0.29775472669E+03  0.34313451623E+03  0.12500000000E+03 0.  0.
         25    1    1    2    0    0  0.48457992959E+02  0.10540513213E+03 -0.25415528011E+01  0.17055755173E+03  0.12500000000E+03 0.  0.
</event>
<event>
 4    0  0.2225052E-002  0.1300168E+03  0.7546771E-02  0.1227431E+00
         21   -1    0    0  502  501  0.00000000000E+00  0.00000000000E+00  0.91618242346E+02  0.91618242346E+02  0.00000000000E+00 0. -1.
         21   -1    0    0  501  502 -0.00000000000E+00 -0.00000000000E+00 -0.18450885232E+03  0.18450885232E+03  0.00000000000E+00 0. -1.
         25    1    1    2    0    0  0.33956959447E+02 -0.66882620914E+01 -0.56035810277E+02  0.14128984386E+03  0.12500000000E+03 0.  0.
         25    1    1    2    0    0 -0.33956959447E+02  0.66882620914E+01 -0.36854799699E+02  0.13483725081E+03  0.12500000000E+03 0.  0.
</event>
<event>
 4    0  0.2225052E-002  0.1832849E+03  0.7546771E-02  0.1164661E+00
         21   -1    0    0  502  501  0.00000000000E+00  0.00000000000E+00  0.53983812974E+02  0.53983812974E+02  0.00000000000E+00 0.  1.
         21   -1    0    0  501  502 -0.00000000000E+00 -0.00000000000E+00 -0.62228568891E+03  0.62228568891E+03  0.00000000000E+00 0.  1.
         25    1    1    2    0    0  0.58365306364E+02 -0.10152003800E+03 -0.16380268111E+03  0.23700030684E+03  0.12500000000E+03 0.  0.
         25    1    1    2    0    0 -0.58365306364E+02  0.10152003800E+03 -0.40449919483E+03  0.43926919505E+03  0.12500000000E+03 0.  0.
</event>
<event>
 4    0  0.2225052E-002  0.1955841E+03  0.7546771E-02  0.1153519E+00
         21   -1    0    0  502  501  0.00000000000E+00  0.00000000000E+00  0.15326232597E+03  0.15326232597E+03  0.00000000000E+00 0.  1.
         21   -1    0    0  501  502 -0.00000000000E+00 -0.00000000000E+00 -0.24959248855E+03  0.24959248855E+03  0.00000000000E+00 0.  1.
         25    1    1    2    0    0 -0.28049132190E+02 -0.14432977031E+03 -0.15430416579E+02  0.19359993329E+03  0.12500000000E+03 0.  0.
         25    1    1    2    0    0  0.28049132190E+02  0.14432977031E+03 -0.80899746006E+02  0.20925488123E+03  0.12500000000E+03 0.  0.
</event>
<event>
 4    0  0.2225052E-002  0.2399049E+03  0.7546771E-02  0.1119856E+00
         21   -1    0    0  502  501  0.00000000000E+00  0.00000000000E+00  0.21883475890E+03  0.21883475890E+03  0.00000000000E+00 0.  1.
         21   -1    0    0  501  502 -0.00000000000E+00 -0.00000000000E+00 -0.26300378371E+03  0.26300378371E+03  0.00000000000E+00 0.  1.
         25    1    1    2    0    0 -0.95987442774E+02  0.18042854582E+03 -0.93296177735E+01  0.23975005962E+03  0.12500000000E+03 0.  0.
         25    1    1    2    0    0  0.95987442774E+02 -0.18042854582E+03 -0.34839407032E+02  0.24208848300E+03  0.12500000000E+03 0.  0.
</event>
<event>
 4    0  0.2225052E-002  0.2983236E+03  0.7546771E-02  0.1086082E+00
         21   -1    0    0  502  501  0.00000000000E+00  0.00000000000E+00  0.24206843751E+03  0.24206843751E+03  0.00000000000E+00 0.  1.
         21   -1    0    0  501  502 -0.00000000000E+00 -0.00000000000E+00 -0.36765208829E+03  0.36765208829E+03  0.00000000000E+00 0.  1.
         25    1    1    2    0    0 -0.93452495161E+02 -0.99978458273E+02  0.17608835044E+03  0.25565830347E+03  0.12500000000E+03 0.  0.
         25    1    1    2    0    0  0.93452495161E+02  0.99978458273E+02 -0.30167200121E+03  0.35406222234E+03  0.12500000000E+03 0.  0.
</event>
<event>
 4    0  0.2225052E-002  0.2280417E+03  0.7546771E-02  0.1128026E+00
         21   -1    0    0  502  501  0.00000000000E+00  0.00000000000E+00  0.11442888666E+04  0.11442888666E+04  0.00000000000E+00 0.  1.
         21   -1    0    0  501  502 -0.00000000000E+00 -0.00000000000E+00 -0.45445713288E+02  0.45445713288E+02  0.00000000000E+00 0.  1.
         25    1    1    2    0    0  0.15738159269E+03 -0.60965993962E+02  0.78116370234E+03  0.80890515389E+03  0.12500000000E+03 0.  0.
         25    1    1    2    0    0 -0.15738159269E+03  0.60965993962E+02  0.31767945098E+03  0.38082942601E+03  0.12500000000E+03 0.  0.
</event>
<event>
 4    0  0.2225052E-002  0.2619661E+03  0.7546771E-02  0.1105968E+00
         21   -1    0    0  502  501  0.00000000000E+00  0.00000000000E+00  0.70185406884E+03  0.70185406884E+03  0.00000000000E+00 0. -1.
         21   -1    0    0  501  502 -0.00000000000E+00 -0.00000000000E+00 -0.97778505553E+02  0.97778505553E+02  0.00000000000E+00 0. -1.
         25    1    1    2    0    0 -0.83765450552E+02  0.20485338784E+03  0.20527437398E+03  0.32671720161E+03  0.12500000000E+03 0.  0.
         25    1    1    2    0    0  0.83765450552E+02 -0.20485338784E+03  0.39880118931E+03  0.47291537279E+03  0.12500000000E+03 0.  0.
</event>
<event>
 4    0  0.2225052E-002  0.2015338E+03  0.7546771E-02  0.1148451E+00
         21   -1    0    0  502  501  0.00000000000E+00  0.00000000000E+00  0.47493803647E+02  0.47493803647E+02  0.00000000000E+00 0.  1.
         21   -1    0    0  501  502 -0.00000000000E+00 -0.00000000000E+00 -0.85518281365E+03  0.85518281365E+03  0.00000000000E+00 0.  1.
         25    1    1    2    0    0 -0.96535658448E+02 -0.12059176429E+03 -0.47910617257E+03  0.51868027874E+03  0.12500000000E+03 0.  0.
         25    1    1    2    0    0  0.96535658448E+02  0.12059176429E+03 -0.32858283744E+03  0.38399633856E+03  0.12500000000E+03 0.  0.
</event>
<event>
 4    0  0.2225052E-002  0.2613682E+03  0.7546771E-02  0.1106324E+00
         21   -1    0    0  502  501  0.00000000000E+00  0.00000000000E+00  0.72220903884E+02  0.72220903884E+02  0.00000000000E+00 0.  1.
         21   -1    0    0  501  502 -0.00000000000E+00 -0.00000000000E+00 -0.94589407519E+03  0.94589407519E+03  0.00000000000E+00 0.  1.
         25    1    1    2    0    0  0.89513514849E+01  0.22340083754E+03 -0.33562802537E+03  0.42220757019E+03  0.12500000000E+03 0.  0.
         25    1    1    2    0    0 -0.89513514849E+01 -0.22340083754E+03 -0.53804514593E+03  0.59590740889E+03  0.12500000000E+03 0.  0.
</event>
<event>
 4    0  0.2225052E-002  0.2162667E+03  0.7546771E-02  0.1136697E+00
         21   -1    0    0  502  501  0.00000000000E+00  0.00000000000E+00  0.81790477709E+02  0.81790477709E+02  0.00000000000E+00 0.  1.
         21   -1    0    0  501  502 -0.00000000000E+00 -0.00000000000E+00 -0.57184244467E+03  0.57184244467E+03  0.00000000000E+00 0.  1.
         25    1    1    2    0    0 -0.65075962521E+02  0.32761998557E+02 -0.48793526934E+03  0.50893423594E+03  0.12500000000E+03 0.  0.
         25    1    1    2    0    0  0.65075962521E+02 -0.32761998557E+02 -0.21166976201E+01  0.14469868644E+03  0.12500000000E+03 0.  0.
</event>
<event>
 4    0  0.2225052E-002  0.1911218E+03  0.7546771E-02  0.1157453E+00
         21   -1    0    0  502  501  0.00000000000E+00  0.00000000000E+00  0.30574055233E+02  0.30574055233E+02  0.00000000000E+00 0. -1.
         21   -1    0    0  501  502 -0.00000000000E+00 -0.00000000000E+00 -0.11947230732E+04  0.11947230732E+04  0.00000000000E+00 0. -1.
         25    1    1    2    0    0  0.13362773507E+03  0.54124578295E+02 -0.54744759724E+03  0.57974969882E+03  0.12500000000E+03 0.  0.
         25    1    1    2    0    0 -0.13362773507E+03 -0.54124578295E+02 -0.61670142073E+03  0.64554742962E+03  0.12500000000E+03 0.  0.
</event>
<event>
 4    0  0.2225052E-002  0.2492693E+03  0.7546771E-02  0.1113767E+00
         21   -1    0    0  502  501  0.00000000000E+00  0.00000000000E+00  0.10311045809E+04  0.10311045809E+04  0.00000000000E+00 0. -1.
         21   -1    0    0  501  502 -0.00000000000E+00 -0.00000000000E+00 -0.60260783071E+02  0.60260783071E+02  0.00000000000E+00 0.  1.
         25    1    1    2    0    0  0.12714625655E+03 -0.16546722422E+03  0.60461585446E+03  0.65171382087E+03  0.12500000000E+03 0.  0.
         25    1    1    2    0    0 -0.12714625655E+03  0.16546722422E+03  0.36622794332E+03  0.43965154305E+03  0.12500000000E+03 0.  0.
</event>
<event>
 4    0  0.2225052E-002  0.2489635E+03  0.7546771E-02  0.1113962E+00
         21   -1    0    0  502  501  0.00000000000E+00  0.00000000000E+00  0.46591824786E+03  0.46591824786E+03  0.00000000000E+00 0.  1.
         21   -1    0    0  501  502 -0.00000000000E+00 -0.00000000000E+00 -0.13303364403E+03  0.13303364403E+03  0.00000000000E+00 0.  1.
         25    1    1    2    0    0 -0.11688031122E+03  0.11671084147E+03  0.30663466204E+00  0.20714130851E+03  0.12500000000E+03 0.  0.
         25    1    1    2    0    0  0.11688031122E+03 -0.11671084147E+03  0.33257796917E+03  0.39181058338E+03  0.12500000000E+03 0.  0.
</event>
<event>
 4    0  0.2225052E-002  0.1953111E+03  0.7546771E-02  0.1153756E+00
         21   -1    0    0  502  501  0.00000000000E+00  0.00000000000E+00  0.59799383623E+02  0.59799383623E+02  0.00000000000E+00 0. -1.
         21   -1    0    0  501  502 -0.00000000000E+00 -0.00000000000E+00 -0.63790662854E+03  0.63790662854E+03  0.00000000000E+00 0. -1.
         25    1    1    2    0    0 -0.55392223461E+02  0.17551105051E+02 -0.53619427594E+03  0.55362951624E+03  0.12500000000E+03 0.  0.
         25    1    1    2    0    0  0.55392223461E+02 -0.17551105051E+02 -0.41912968984E+02  0.14407649592E+03  0.12500000000E+03 0.  0.
</event>
<event>
 4    0  0.2225052E-002  0.1691407E+03  0.7546771E-02  0.1178747E+00
         21   -1    0    0  502  501  0.00000000000E+00  0.00000000000E+00  0.96837349663E+03  0.96837349663E+03  0.00000000000E+00 0.  1.
         21   -1    0    0  501  502 -0.00000000000E+00 -0.00000000000E+00 -0.29542931612E+02  0.29542931612E+02  0.00000000000E+00 0.  1.
         25    1    1    2    0    0  0.91894596789E+02  0.94953701954E+01  0.27265474024E+03  0.31384771203E+03  0.12500000000E+03 0.  0.
         25    1    1    2    0    0 -0.91894596789E+02 -0.94953701954E+01  0.66617582478E+03  0.68406871621E+03  0.12500000000E+03 0.  0.
</event>
<event>
 4    0  0.2225052E-002  0.2656700E+03  0.7546771E-02  0.1103784E+00
         21   -1    0    0  502  501  0.00000000000E+00  0.00000000000E+00  0.40962469092E+03  0.40962469092E+03  0.00000000000E+00 0.  1.
         21   -1    0    0  501  502 -0.00000000000E+00 -0.00000000000E+00 -0.17230539176E+03  0.17230539176E+03  0.00000000000E+00 0.  1.
         25    1    1    2    0    0  0.92107572396E+01 -0.21062455236E+03  0.63910244178E+01  0.24518031181E+03  0.12500000000E+03 0.  0.
         25    1    1    2    0    0 -0.92107572396E+01  0.21062455236E+03  0.23092827474E+03  0.33674977087E+03  0.12500000000E+03 0.  0.
</event>
<event>
 4    0  0.2225052E-002  0.2317257E+03  0.7546771E-02  0.1125431E+00
         21   -1    0    0  502  501  0.00000000000E+00  0.00000000000E+00  0.58022140721E+03  0.58022140721E+03  0.00000000000E+00 0.  1.
         21   -1    0    0  501  502 -0.00000000000E+00 -0.00000000000E+00 -0.92545400451E+02  0.92545400451E+02  0.00000000000E+00 0.  1.
         25    1    1    2    0    0 -0.19219051039E+03  0.68521098945E+01  0.19596280390E+03  0.30167957207E+03  0.12500000000E+03 0.  0.
         25    1    1    2    0    0  0.19219051039E+03 -0.68521098945E+01  0.29171320286E+03  0.37108723559E+03  0.12500000000E+03 0.  0.
</event>
<event>
 4    0  0.2225052E-002  0.1608661E+03  0.7546771E-02  0.1187722E+00
         21   -1    0    0  502  501  0.00000000000E+00  0.00000000000E+00  0.60550590721E+02  0.60550590721E+02  0.00000000000E+00 0. -1.
         21   -1    0    0  501  502 -0.00000000000E+00 -0.00000000000E+00 -0.42737628750E+03  0.42737628750E+03  0.00000000000E+00 0. -1.
         25    1    1    2    0    0  0.67600585812E+02 -0.36766968069E+02 -0.28322107617E+03  0.31899972904E+03  0.12500000000E+03 0.  0.
         25    1    1    2    0    0 -0.67600585812E+02  0.36766968069E+02 -0.83604620617E+02  0.16892714918E+03  0.12500000000E+03 0.  0.
</event>
<event>
 4    0  0.2225052E-002  0.3730451E+03  0.7546771E-02  0.1053535E+00
         21   -1    0    0  502  501  0.00000000000E+00  0.00000000000E+00  0.15324437978E+03  0.15324437978E+03  0.00000000000E+00 0.  1.
         21   -1    0    0  501  502 -0.00000000000E+00 -0.00000000000E+00 -0.90810945115E+03  0.90810945115E+03  0.00000000000E+00 0.  1.
         25    1    1    2    0    0 -0.24157568461E+02 -0.33826228606E+03 -0.50883764304E+03  0.62413597017E+03  0.12500000000E+03 0.  0.
         25    1    1    2    0    0  0.24157568461E+02  0.33826228606E+03 -0.24602742832E+03  0.43721786076E+03  0.12500000000E+03 0.  0.
</event>
<event>
 4    0  0.2225052E-002  0.2865242E+03  0.7546771E-02  0.1092178E+00
         21   -1    0    0  502  501  0.00000000000E+00  0.00000000000E+00  0.14580460318E+04  0.14580460318E+04  0.00000000000E+00 0. -1.
         21   -1    0    0  501  502 -0.00000000000E+00 -0.00000000000E+00 -0.56305590245E+02  0.56305590245E+02  0.00000000000E+00 0. -1.
         25    1    1    2    0    0 -0.11903869992E+02 -0.16682385009E+03  0.18235506729E+03  0.27721881186E+03  0.12500000000E+03 0.  0.
         25    1    1    2    0    0  0.11903869992E+02  0.16682385009E+03  0.12193853742E+04  0.12371328102E+04  0.12500000000E+03 0.  0.
</event>
<event>
 4    0  0.2225052E-002  0.2989675E+03  0.7546771E-02  0.1085758E+00
         21   -1    0    0  502  501  0.00000000000E+00  0.00000000000E+00  0.22905890017E+03  0.22905890017E+03  0.00000000000E+00 0. -1.
         21   -1    0    0  501  502 -0.00000000000E+00 -0.00000000000E+00 -0.39021202655E+03  0.39021202655E+03  0.00000000000E+00 0. -1.
         25    1    1    2    0    0  0.19683181528E+03 -0.11684002952E+03 -0.23194997046E+03  0.34902742701E+03  0.12500000000E+03 0.  0.
         25    1    1    2    0    0 -0.19683181528E+03  0.11684002952E+03  0.70796844078E+02  0.27024349971E+03  0.12500000000E+03 0.  0.
</event>
<event>
 4    0  0.2225052E-002  0.1869051E+03  0.7546771E-02  0.1161283E+00
         21   -1    0    0  502  501  0.00000000000E+00  0.00000000000E+00  0.60854814281E+03  0.60854814281E+03  0.00000000000E+00 0.  1.
         21   -1    0    0  501  502 -0.00000000000E+00 -0.00000000000E+00 -0.57404703345E+02  0.57404703345E+02  0.00000000000E+00 0.  1.
         25    1    1    2    0    0  0.66252641085E+02  0.68858781990E+02  0.45529923271E+03  0.48171914599E+03  0.12500000000E+03 0.  0.
         25    1    1    2    0    0 -0.66252641085E+02 -0.68858781990E+02  0.95844206756E+02  0.18423370017E+03  0.12500000000E+03 0.  0.
</event>
<event>
 4    0  0.2225052E-002  0.1974873E+03  0.7546771E-02  0.1151876E+00
         21   -1    0    0  502  501  0.00000000000E+00  0.00000000000E+00  0.12521283426E+03  0.12521283426E+03  0.00000000000E+00 0.  1.
         21   -1    0    0  501  502 -0.00000000000E+00 -0.00000000000E+00 -0.31147958214E+03  0.31147958214E+03  0.00000000000E+00 0.  1.
         25    1    1    2    0    0 -0.74923539110E+02  0.11938828511E+03 -0.15862818723E+03  0.24628236055E+03  0.12500000000E+03 0.  0.
         25    1    1    2    0    0  0.74923539110E+02 -0.11938828511E+03 -0.27638560645E+02  0.19041005585E+03  0.12500000000E+03 0.  0.
</event>
<event>
 4    0  0.2225052E-002  0.2065477E+03  0.7546771E-02  0.1144329E+00
         21   -1    0    0  502  501  0.00000000000E+00  0.00000000000E+00  0.12209036974E+03  0.12209036974E+03  0.00000000000E+00 0.  1.
         21   -1    0    0  501  502 -0.00000000000E+00 -0.00000000000E+00 -0.34942919964E+03  0.34942919964E+03  0.00000000000E+00 0.  1.
         25    1    1    2    0    0  0.12101999457E+03 -0.15738516751E+02  0.12112898655E+02  0.17511499738E+03  0.12500000000E+03 0.  0.
         25    1    1    2    0    0 -0.12101999457E+03  0.15738516751E+02 -0.23945172855E+03  0.29640457200E+03  0.12500000000E+03 0.  0.
</event>
<event>
 4    0  0.2225052E-002  0.1983797E+03  0.7546771E-02  0.1151113E+00
         21   -1    0    0  502  501  0.00000000000E+00  0.00000000000E+00  0.23475402669E+03  0.23475402669E+03  0.00000000000E+00 0. -1.
         21   -1    0    0  501  502 -0.00000000000E+00 -0.00000000000E+00 -0.16764146378E+03  0.16764146378E+03  0.00000000000E+00 0. -1.
         25    1    1    2    0    0 -0.10372854937E+03  0.10905048442E+03  0.66853870765E+02  0.20675120349E+03  0.12500000000E+03 0.  0.
         25    1    1    2    0    0  0.10372854937E+03 -0.10905048442E+03  0.25869214901E+00  0.19564428698E+03  0.12500000000E+03 0.  0.
</event>
<event>
 4    0  0.2225052E-002  0.2398092E+03  0.7546771E-02  0.1119920E+00
         21   -1    0    0  502  501  0.00000000000E+00  0.00000000000E+00  0.27194382388E+03  0.27194382388E+03  0.00000000000E+00 0. -1.
         21   -1    0    0  501  502 -0.00000000000E+00 -0.00000000000E+00 -0.21147178741E+03  0.21147178741E+03  0.00000000000E+00 0. -1.
         25    1    1    2    0    0  0.43780564263E+02  0.16712122825E+03 -0.80346802555E+02  0.22787463970E+03  0.12500000000E+03 0.  0.
         25    1    1    2    0    0 -0.43780564263E+02 -0.16712122825E+03  0.14081883902E+03  0.25554097159E+03  0.12500000000E+03 0.  0.
</event>
<event>
 4    0  0.2225052E-002  0.1819461E+03  0.7546771E-02  0.1165933E+00
         21   -1    0    0  502  501  0.00000000000E+00  0.00000000000E+00  0.10600896326E+02  0.10600896326E+02  0.00000000000E+00 0.  1.
         21   -1    0    0  501  502 -0.00000000000E+00 -0.00000000000E+00 -0.31227924395E+04  0.31227924395E+04  0.00000000000E+00 0.  1.
         25    1    1    2    0    0 -0.14573381923E+02  0.13139501115E+03 -0.15428495014E+04  0.15535400273E+04  0.12500000000E+03 0.  0.
         25    1    1    2    0    0  0.14573381923E+02 -0.13139501115E+03 -0.15693420418E+04  0.15798533085E+04  0.12500000000E+03 0.  0.
</event>
<event>
 4    0  0.2225052E-002  0.1920229E+03  0.7546771E-02  0.1156649E+00
         21   -1    0    0  502  501  0.00000000000E+00  0.00000000000E+00  0.35689397040E+03  0.35689397040E+03  0.00000000000E+00 0.  1.
         21   -1    0    0  501  502 -0.00000000000E+00 -0.00000000000E+00 -0.10331584263E+03  0.10331584263E+03  0.00000000000E+00 0.  1.
         25    1    1    2    0    0  0.57730848383E+02  0.11926829698E+03  0.53996436644E+02  0.18999577019E+03  0.12500000000E+03 0.  0.
         25    1    1    2    0    0 -0.57730848383E+02 -0.11926829698E+03  0.19958169113E+03  0.27021404285E+03  0.12500000000E+03 0.  0.
</event>
<event>
 4    0  0.2225052E-002  0.1754376E+03  0.7546771E-02  0.1172293E+00
         21   -1    0    0  502  501  0.00000000000E+00  0.00000000000E+00  0.43013093680E+02  0.43013093680E+02  0.00000000000E+00 0. -1.
         21   -1    0    0  501  502 -0.00000000000E+00 -0.00000000000E+00 -0.71555743191E+03  0.71555743191E+03  0.00000000000E+00 0. -1.
         25    1    1    2    0    0 -0.10694768573E+03  0.33402961964E+02 -0.22603929362E+03  0.28155341876E+03  0.12500000000E+03 0.  0.
         25    1    1    2    0    0  0.10694768573E+03 -0.33402961964E+02 -0.44650504460E+03  0.47701710683E+03  0.12500000000E+03 0.  0.
</event>
<event>
 4    0  0.2225052E-002  0.1808921E+03  0.7546771E-02  0.1166942E+00
         21   -1    0    0  502  501  0.00000000000E+00  0.00000000000E+00  0.41121574869E+03  0.41121574869E+03  0.00000000000E+00 0.  1.
         21   -1    0    0  501  502 -0.00000000000E+00 -0.00000000000E+00 -0.79573671165E+02  0.79573671165E+02  0.00000000000E+00 0.  1.
         25    1    1    2    0    0 -0.23982692189E+02 -0.77969799985E+02  0.27194106703E+02  0.15172006681E+03  0.12500000000E+03 0.  0.
         25    1    1    2    0    0  0.23982692189E+02  0.77969799985E+02  0.30444797082E+03  0.33906935304E+03  0.12500000000E+03 0.  0.
</event>
<event>
 4    0  0.2225052E-002  0.3014947E+03  0.7546771E-02  0.1084496E+00
         21   -1    0    0  502  501  0.00000000000E+00  0.00000000000E+00  0.17320294795E+03  0.17320294795E+03  0.00000000000E+00 0. -1.
         21   -1    0    0  501  502 -0.00000000000E+00 -0.00000000000E+00 -0.52481231303E+03  0.52481231303E+03  0.00000000000E+00 0. -1.
         25    1    1    2    0    0 -0.11287829991E+03 -0.24444014493E+03 -0.11475290743E+03  0.31825418271E+03  0.12500000000E+03 0.  0.
         25    1    1    2    0    0  0.11287829991E+03  0.24444014493E+03 -0.23685645765E+03  0.37976107828E+03  0.12500000000E+03 0.  0.
</event>
<event>
 4    0  0.2225052E-002  0.1608193E+03  0.7546771E-02  0.1187775E+00
         21   -1    0    0  502  501  0.00000000000E+00  0.00000000000E+00  0.41915320112E+02  0.41915320112E+02  0.00000000000E+00 0. -1.
         21   -1    0    0  501  502 -0.00000000000E+00 -0.00000000000E+00 -0.61702587455E+03  0.61702587455E+03  0.00000000000E+00 0. -1.
         25    1    1    2    0    0 -0.45574853045E+02 -0.89987432200E+02 -0.27129010514E+03  0.31527468394E+03  0.12500000000E+03 0.  0.
         25    1    1    2    0    0  0.45574853045E+02  0.89987432200E+02 -0.30382044930E+03  0.34366651073E+03  0.12500000000E+03 0.  0.
</event>
<event>
 4    0  0.2225052E-002  0.2120277E+03  0.7546771E-02  0.1139970E+00
         21   -1    0    0  502  501  0.00000000000E+00  0.00000000000E+00  0.41006515256E+03  0.41006515256E+03  0.00000000000E+00 0.  1.
         21   -1    0    0  501  502 -0.00000000000E+00 -0.00000000000E+00 -0.10963070978E+03  0.10963070978E+03  0.00000000000E+00 0.  1.
         25    1    1    2    0    0 -0.94888584343E+02  0.45703219695E+02 -0.15289862238E+02  0.16416883875E+03  0.12500000000E+03 0.  0.
         25    1    1    2    0    0  0.94888584343E+02 -0.45703219695E+02  0.31572430502E+03  0.35552702360E+03  0.12500000000E+03 0.  0.
</event>
<event>
 4    0  0.2225052E-002  0.1953186E+03  0.7546771E-02  0.1153750E+00
         21   -1    0    0  502  501  0.00000000000E+00  0.00000000000E+00  0.19817258962E+03  0.19817258962E+03  0.00000000000E+00 0.  1.
         21   -1    0    0  501  502 -0.00000000000E+00 -0.00000000000E+00 -0.19250567993E+03  0.19250567993E+03  0.00000000000E+00 0.  1.
         25    1    1    2    0    0 -0.94919432331E+01 -0.83385717562E+02 -0.12160260181E+03  0.19353415111E+03  0.12500000000E+03 0.  0.
         25    1    1    2    0    0  0.94919432331E+01  0.83385717562E+02  0.12726951149E+03  0.19714411844E+03  0.12500000000E+03 0.  0.
</event>
<event>
 4    0  0.2225052E-002  0.1919668E+03  0.7546771E-02  0.1156699E+00
         21   -1    0    0  502  501  0.00000000000E+00  0.00000000000E+00  0.73232032528E+02  0.73232032528E+02  0.00000000000E+00 0. -1.
         21   -1    0    0  501  502 -0.00000000000E+00 -0.00000000000E+00 -0.50321202133E+03  0.50321202133E+03  0.00000000000E+00 0. -1.
         25    1    1    2    0    0  0.11415574107E+03 -0.79756955559E+02 -0.15069967308E+03  0.24026671981E+03  0.12500000000E+03 0.  0.
         25    1    1    2    0    0 -0.11415574107E+03  0.79756955559E+02 -0.27928031573E+03  0.33617733406E+03  0.12500000000E+03 0.  0.
</event>
<event>
 4    0  0.2225052E-002  0.1735152E+03  0.7546771E-02  0.1174231E+00
         21   -1    0    0  502  501  0.00000000000E+00  0.00000000000E+00  0.39883500124E+03  0.39883500124E+03  0.00000000000E+00 0.  1.
         21   -1    0    0  501  502 -0.00000000000E+00 -0.00000000000E+00 -0.75488690501E+02  0.75488690501E+02  0.00000000000E+00 0.  1.
         25    1    1    2    0    0  0.52183782679E+01 -0.85351013410E+02  0.27741279225E+03  0.31606151975E+03  0.12500000000E+03 0.  0.
         25    1    1    2    0    0 -0.52183782679E+01  0.85351013410E+02  0.45933518482E+02  0.15826217199E+03  0.12500000000E+03 0.  0.
</event>
<event>
 4    0  0.2225052E-002  0.1893165E+03  0.7546771E-02  0.1159079E+00
         21   -1    0    0  502  501  0.00000000000E+00  0.00000000000E+00  0.77723740747E+02  0.77723740747E+02  0.00000000000E+00 0.  1.
         21   -1    0    0  501  502 -0.00000000000E+00 -0.00000000000E+00 -0.46112987788E+03  0.46112987788E+03  0.00000000000E+00 0.  1.
         25    1    1    2    0    0 -0.11256947696E+02 -0.50088814861E+01 -0.39328905856E+03  0.41285965091E+03  0.12500000000E+03 0.  0.
         25    1    1    2    0    0  0.11256947696E+02  0.50088814861E+01  0.98829214284E+01  0.12599396772E+03  0.12500000000E+03 0.  0.
</event>
<event>
 4    0  0.2225052E-002  0.2134943E+03  0.7546771E-02  0.1138828E+00
         21   -1    0    0  502  501  0.00000000000E+00  0.00000000000E+00  0.44031822668E+03  0.44031822668E+03  0.00000000000E+00 0.  1.
         21   -1    0    0  501  502 -0.00000000000E+00 -0.00000000000E+00 -0.10351564756E+03  0.10351564756E+03  0.00000000000E+00 0.  1.
         25    1    1    2    0    0 -0.13689987417E+03  0.92580736747E+02  0.10293449152E+03  0.23137259541E+03  0.12500000000E+03 0.  0.
         25    1    1    2    0    0  0.13689987417E+03 -0.92580736747E+02  0.23386808760E+03  0.31246127882E+03  0.12500000000E+03 0.  0.
</event>
<event>
 4    0  0.2225052E-002  0.2329390E+03  0.7546771E-02  0.1124588E+00
         21   -1    0    0  502  501  0.00000000000E+00  0.00000000000E+00  0.20626550372E+03  0.20626550372E+03  0.00000000000E+00 0. -1.
         21   -1    0    0  501  502 -0.00000000000E+00 -0.00000000000E+00 -0.26306178520E+03  0.26306178520E+03  0.00000000000E+00 0. -1.
         25    1    1    2    0    0 -0.26506512482E+02 -0.12266001496E+03 -0.18080439190E+03  0.25310729465E+03  0.12500000000E+03 0.  0.
         25    1    1    2    0    0  0.26506512482E+02  0.12266001496E+03  0.12400811042E+03  0.21621999427E+03  0.12500000000E+03 0.  0.
</event>
<event>
 4    0  0.2225052E-002  0.1990443E+03  0.7546771E-02  0.1150548E+00
         21   -1    0    0  502  501  0.00000000000E+00  0.00000000000E+00  0.10366337509E+04  0.10366337509E+04  0.00000000000E+00 0. -1.
         21   -1    0    0  501  502 -0.00000000000E+00 -0.00000000000E+00 -0.38218526158E+02  0.38218526158E+02  0.00000000000E+00 0. -1.
         25    1    1    2    0    0 -0.99681951143E+02  0.53018663871E+02  0.78554032375E+03  0.80339658348E+03  0.12500000000E+03 0.  0.
         25    1    1    2    0    0  0.99681951143E+02 -0.53018663871E+02  0.21287490096E+03  0.27145569355E+03  0.12500000000E+03 0.  0.
</event>
<event>
 4    0  0.2225052E-002  0.2634634E+03  0.7546771E-02  0.1105080E+00
         21   -1    0    0  502  501  0.00000000000E+00  0.00000000000E+00  0.22923058448E+03  0.22923058448E+03  0.00000000000E+00 0.  1.
         21   -1    0    0  501  502 -0.00000000000E+00 -0.00000000000E+00 -0.30280845331E+03  0.30280845331E+03  0.00000000000E+00 0.  1.
         25    1    1    2    0    0  0.16249712126E+03  0.21498459780E+00 -0.20387127538E+03  0.28912602367E+03  0.12500000000E+03 0.  0.
         25    1    1    2    0    0 -0.16249712126E+03 -0.21498459780E+00  0.13029340655E+03  0.24291301412E+03  0.12500000000E+03 0.  0.
</event>
<event>
 4    0  0.2225052E-002  0.2378158E+03  0.7546771E-02  0.1121256E+00
         21   -1    0    0  502  501  0.00000000000E+00  0.00000000000E+00  0.24962898850E+02  0.24962898850E+02  0.00000000000E+00 0. -1.
         21   -1    0    0  501  502 -0.00000000000E+00 -0.00000000000E+00 -0.22656173892E+04  0.22656173892E+04  0.00000000000E+00 0. -1.
         25    1    1    2    0    0 -0.14599602086E+03 -0.66781945189E+02 -0.52743301914E+03  0.56531872072E+03  0.12500000000E+03 0.  0.
         25    1    1    2    0    0  0.14599602086E+03  0.66781945189E+02 -0.17132214712E+04  0.17252615674E+04  0.12500000000E+03 0.  0.
</event>
