<event>
 5    0  0.5452999E-005  0.4006677E+03  0.7546771E-02  0.1043549E+00
         21   -1    0    0  502  501  0.00000000000E+00  0.00000000000E+00  0.65105039918E+03  0.65105039918E+03  0.00000000000E+00 0. -1.
         21   -1    0    0  501  502 -0.00000000000E+00 -0.00000000000E+00 -0.24657783900E+03  0.24657783900E+03  0.00000000000E+00 0. -1.
         25    1    1    2    0    0  0.14310037345E+03 -0.21423315291E+03 -0.33109450998E+02  0.28826168048E+03  0.12500000000E+03 0.  0.
         25    1    1    2    0    0 -0.67657348707E+01  0.18031316015E+03  0.15038529961E+03  0.26608147104E+03  0.12500000000E+03 0.  0.
         25    1    1    2    0    0 -0.13633463858E+03  0.33919992762E+02  0.28719671157E+03  0.34328508666E+03  0.12500000000E+03 0.  0.
</event>
<event>
 5    0  0.5452999E-005  0.2137388E+03  0.7546771E-02  0.1138639E+00
         21   -1    0    0  502  501  0.00000000000E+00  0.00000000000E+00  0.10464949806E+03  0.10464949806E+03  0.00000000000E+00 0.  1.
         21   -1    0    0  501  502 -0.00000000000E+00 -0.00000000000E+00 -0.43654568344E+03  0.43654568344E+03  0.00000000000E+00 0.  1.
         25    1    1    2    0    0 -0.57673438827E+01  0.33050461867E+02 -0.21243365608E+02  0.13115592197E+03  0.12500000000E+03 0.  0.
         25    1    1    2    0    0 -0.24013197535E+02 -0.27236449625E+02 -0.20843194953E+03  0.24573834749E+03  0.12500000000E+03 0.  0.
         25    1    1    2    0    0  0.29780541418E+02 -0.58140122420E+01 -0.10222087024E+03  0.16430091204E+03  0.12500000000E+03 0.  0.
</event>
<event>
 5    0  0.5452999E-005  0.4180207E+03  0.7546771E-02  0.1037712E+00
         21   -1    0    0  502  501  0.00000000000E+00  0.00000000000E+00  0.20105129544E+03  0.20105129544E+03  0.00000000000E+00 0. -1.
         21   -1    0    0  501  502 -0.00000000000E+00 -0.00000000000E+00 -0.86913777925E+03  0.86913777925E+03  0.00000000000E+00 0. -1.
         25    1    1    2    0    0 -0.10535350273E+03  0.69770621932E+02 -0.16389948118E+03  0.24177539195E+03  0.12500000000E+03 0.  0.
         25    1    1    2    0    0 -0.16031904650E+03  0.13555300640E+03 -0.37495050324E+03  0.44753736614E+03  0.12500000000E+03 0.  0.
         25    1    1    2    0    0  0.26567254923E+03 -0.20532362833E+03 -0.12923649939E+03  0.38087631659E+03  0.12500000000E+03 0.  0.
</event>
<event>
 5    0  0.5452999E-005  0.4984728E+03  0.7546771E-02  0.1014178E+00
         21   -1    0    0  502  501  0.00000000000E+00  0.00000000000E+00  0.15081626992E+04  0.15081626992E+04  0.00000000000E+00 0. -1.
         21   -1    0    0  501  502 -0.00000000000E+00 -0.00000000000E+00 -0.16475352126E+03  0.16475352126E+03  0.00000000000E+00 0. -1.
         25    1    1    2    0    0  0.28776229167E+03 -0.37402420308E+02  0.28439095377E+03  0.42509915565E+03  0.12500000000E+03 0.  0.
         25    1    1    2    0    0  0.53211656433E+02 -0.20926223240E+02  0.11894090219E+02  0.13797049171E+03  0.12500000000E+03 0.  0.
         25    1    1    2    0    0 -0.34097394810E+03  0.58328643548E+02  0.10471241339E+04  0.11098465731E+04  0.12500000000E+03 0.  0.
</event>
<event>
 5    0  0.5452999E-005  0.4615597E+03  0.7546771E-02  0.1024330E+00
         21   -1    0    0  502  501  0.00000000000E+00  0.00000000000E+00  0.22044997036E+03  0.22044997036E+03  0.00000000000E+00 0.  1.
         21   -1    0    0  501  502 -0.00000000000E+00 -0.00000000000E+00 -0.96637508392E+03  0.96637508392E+03  0.00000000000E+00 0.  1.
         25    1    1    2    0    0 -0.17137392985E+03 -0.29125795066E+03 -0.49968766830E+03  0.61604625111E+03  0.12500000000E+03 0.  0.
         25    1    1    2    0    0  0.12806643165E+03  0.32704337532E+03 -0.14336838305E+03  0.39942192418E+03  0.12500000000E+03 0.  0.
         25    1    1    2    0    0  0.43307498193E+02 -0.35785424660E+02 -0.10286906221E+03  0.17135687899E+03  0.12500000000E+03 0.  0.
</event>
<event>
 5    0  0.5452999E-005  0.2787731E+03  0.7546771E-02  0.1096361E+00
         21   -1    0    0  502  501  0.00000000000E+00  0.00000000000E+00  0.17841726747E+03  0.17841726747E+03  0.00000000000E+00 0.  1.
         21   -1    0    0  501  502 -0.00000000000E+00 -0.00000000000E+00 -0.43557703475E+03  0.43557703475E+03  0.00000000000E+00 0.  1.
         25    1    1    2    0    0 -0.95530297407E+02 -0.99210739784E+01 -0.99115731839E+02  0.18620793144E+03  0.12500000000E+03 0.  0.
         25    1    1    2    0    0 -0.53034774337E+02 -0.40197945289E+02  0.38764028958E+02  0.14682033931E+03  0.12500000000E+03 0.  0.
         25    1    1    2    0    0  0.14856507174E+03  0.50119019268E+02 -0.19680806440E+03  0.28096603148E+03  0.12500000000E+03 0.  0.
</event>
<event>
 5    0  0.5452999E-005  0.2461189E+03  0.7546771E-02  0.1115782E+00
         21   -1    0    0  502  501  0.00000000000E+00  0.00000000000E+00  0.47272724497E+03  0.47272724497E+03  0.00000000000E+00 0. -1.
         21   -1    0    0  501  502 -0.00000000000E+00 -0.00000000000E+00 -0.12813836390E+03  0.12813836390E+03  0.00000000000E+00 0. -1.
         25    1    1    2    0    0  0.10666118534E+03 -0.61483925017E+02  0.55482001741E+02  0.18401123338E+03  0.12500000000E+03 0.  0.
         25    1    1    2    0    0 -0.94919011541E+02 -0.46677898999E+01  0.17167358640E+03  0.23265473836E+03  0.12500000000E+03 0.  0.
         25    1    1    2    0    0 -0.11742173799E+02  0.66151714917E+02  0.11743329292E+03  0.18419963713E+03  0.12500000000E+03 0.  0.
</event>
<event>
 5    0  0.5452999E-005  0.2588520E+03  0.7546771E-02  0.1107835E+00
         21   -1    0    0  502  501  0.00000000000E+00  0.00000000000E+00  0.85674752842E+03  0.85674752842E+03  0.00000000000E+00 0. -1.
         21   -1    0    0  501  502 -0.00000000000E+00 -0.00000000000E+00 -0.78207807437E+02  0.78207807437E+02  0.00000000000E+00 0. -1.
         25    1    1    2    0    0 -0.33512421744E+01 -0.56341018469E+02  0.52992268063E+03  0.54738340186E+03  0.12500000000E+03 0.  0.
         25    1    1    2    0    0  0.50962651870E+02  0.15876502115E+02  0.19542381966E+03  0.23804353488E+03  0.12500000000E+03 0.  0.
         25    1    1    2    0    0 -0.47611409696E+02  0.40464516354E+02  0.53193220697E+02  0.14952839913E+03  0.12500000000E+03 0.  0.
</event>
<event>
 5    0  0.5452999E-005  0.4193831E+03  0.7546771E-02  0.1037267E+00
         21   -1    0    0  502  501  0.00000000000E+00  0.00000000000E+00  0.69788888277E+03  0.69788888277E+03  0.00000000000E+00 0.  1.
         21   -1    0    0  501  502 -0.00000000000E+00 -0.00000000000E+00 -0.25202034163E+03  0.25202034163E+03  0.00000000000E+00 0. -1.
         25    1    1    2    0    0 -0.67694701379E+02 -0.17871449983E+03  0.22789024139E+03  0.32261495186E+03  0.12500000000E+03 0.  0.
         25    1    1    2    0    0  0.22594983163E+03  0.22878774959E+03  0.23711586241E+03  0.41862404731E+03  0.12500000000E+03 0.  0.
         25    1    1    2    0    0 -0.15825513026E+03 -0.50073249762E+02 -0.19137562652E+02  0.20867022523E+03  0.12500000000E+03 0.  0.
</event>
<event>
 5    0  0.5452999E-005  0.3329444E+03  0.7546771E-02  0.1069841E+00
         21   -1    0    0  502  501  0.00000000000E+00  0.00000000000E+00  0.77649590932E+03  0.77649590932E+03  0.00000000000E+00 0. -1.
         21   -1    0    0  501  502 -0.00000000000E+00 -0.00000000000E+00 -0.14275927700E+03  0.14275927700E+03  0.00000000000E+00 0. -1.
         25    1    1    2    0    0  0.50435258630E+02 -0.18469028555E+03  0.53597837549E+02  0.23484451256E+03  0.12500000000E+03 0.  0.
         25    1    1    2    0    0 -0.68573786716E+02  0.15064325098E+02  0.16558155493E+03  0.21902408418E+03  0.12500000000E+03 0.  0.
         25    1    1    2    0    0  0.18138528087E+02  0.16962596046E+03  0.41455723984E+03  0.46538658959E+03  0.12500000000E+03 0.  0.
</event>
<event>
 5    0  0.5452999E-005  0.2828319E+03  0.7546771E-02  0.1094152E+00
         21   -1    0    0  502  501  0.00000000000E+00  0.00000000000E+00  0.66197771443E+02  0.66197771443E+02  0.00000000000E+00 0.  1.
         21   -1    0    0  501  502 -0.00000000000E+00 -0.00000000000E+00 -0.12084077126E+04  0.12084077126E+04  0.00000000000E+00 0.  1.
         25    1    1    2    0    0  0.16176846586E+03  0.10300642259E+02 -0.33523287908E+03  0.39278648524E+03  0.12500000000E+03 0.  0.
         25    1    1    2    0    0 -0.11808495987E+03 -0.74890096990E+02 -0.59357156476E+03  0.62249882480E+03  0.12500000000E+03 0.  0.
         25    1    1    2    0    0 -0.43683505988E+02  0.64589454731E+02 -0.21340549729E+03  0.25932017397E+03  0.12500000000E+03 0.  0.
</event>
<event>
 5    0  0.5452999E-005  0.2309222E+03  0.7546771E-02  0.1125992E+00
         21   -1    0    0  502  501  0.00000000000E+00  0.00000000000E+00  0.14723675667E+04  0.14723675667E+04  0.00000000000E+00 0. -1.
         21   -1    0    0  501  502 -0.00000000000E+00 -0.00000000000E+00 -0.36217222577E+02  0.36217222577E+02  0.00000000000E+00 0. -1.
         25    1    1    2    0    0  0.96087771546E+02  0.49650862877E+02  0.38738110222E+03  0.42117358225E+03  0.12500000000E+03 0.  0.
         25    1    1    2    0    0 -0.29633974823E+02 -0.47520738469E+02  0.64939755669E+03  0.66368560304E+03  0.12500000000E+03 0.  0.
         25    1    1    2    0    0 -0.66453796723E+02 -0.21301244082E+01  0.39937168524E+03  0.42372560402E+03  0.12500000000E+03 0.  0.
</event>
<event>
 5    0  0.5452999E-005  0.2935668E+03  0.7546771E-02  0.1088501E+00
         21   -1    0    0  502  501  0.00000000000E+00  0.00000000000E+00  0.63743961773E+03  0.63743961773E+03  0.00000000000E+00 0. -1.
         21   -1    0    0  501  502 -0.00000000000E+00 -0.00000000000E+00 -0.13519943329E+03  0.13519943329E+03  0.00000000000E+00 0. -1.
         25    1    1    2    0    0 -0.15782947037E+02  0.47749049832E+02  0.25754370007E+02  0.13717638555E+03  0.12500000000E+03 0.  0.
         25    1    1    2    0    0  0.90674788390E+02  0.12092572726E+03  0.19721576355E+03  0.27814385874E+03  0.12500000000E+03 0.  0.
         25    1    1    2    0    0 -0.74891841353E+02 -0.16867477709E+03  0.27927005089E+03  0.35731880674E+03  0.12500000000E+03 0.  0.
</event>
<event>
 5    0  0.5452999E-005  0.2366484E+03  0.7546771E-02  0.1122046E+00
         21   -1    0    0  502  501  0.00000000000E+00  0.00000000000E+00  0.15338894931E+03  0.15338894931E+03  0.00000000000E+00 0. -1.
         21   -1    0    0  501  502 -0.00000000000E+00 -0.00000000000E+00 -0.36510119606E+03  0.36510119606E+03  0.00000000000E+00 0. -1.
         25    1    1    2    0    0  0.87236273413E+01  0.12520934852E+03 -0.28067921401E+02  0.17934963296E+03  0.12500000000E+03 0.  0.
         25    1    1    2    0    0 -0.12607534166E+02 -0.58226432189E+02 -0.12165039577E+03  0.18431789418E+03  0.12500000000E+03 0.  0.
         25    1    1    2    0    0  0.38839068242E+01 -0.66982916329E+02 -0.61993929582E+02  0.15482261823E+03  0.12500000000E+03 0.  0.
</event>
<event>
 5    0  0.5452999E-005  0.2517052E+03  0.7546771E-02  0.1112232E+00
         21   -1    0    0  502  501  0.00000000000E+00  0.00000000000E+00  0.48967893272E+03  0.48967893272E+03  0.00000000000E+00 0. -1.
         21   -1    0    0  501  502 -0.00000000000E+00 -0.00000000000E+00 -0.12938173667E+03  0.12938173667E+03  0.00000000000E+00 0. -1.
         25    1    1    2    0    0 -0.14479884597E+02  0.47819777296E+02  0.26559778587E+03  0.29776430615E+03  0.12500000000E+03 0.  0.
         25    1    1    2    0    0 -0.53732890255E+02 -0.39502546152E+02 -0.13413414713E+02  0.14231161000E+03  0.12500000000E+03 0.  0.
         25    1    1    2    0    0  0.68212774852E+02 -0.83172311445E+01  0.10811282490E+03  0.17898475324E+03  0.12500000000E+03 0.  0.
</event>
<event>
 5    0  0.5452999E-005  0.3894239E+03  0.7546771E-02  0.1047505E+00
         21   -1    0    0  502  501  0.00000000000E+00  0.00000000000E+00  0.51020287789E+03  0.51020287789E+03  0.00000000000E+00 0.  1.
         21   -1    0    0  501  502 -0.00000000000E+00 -0.00000000000E+00 -0.29723657928E+03  0.29723657928E+03  0.00000000000E+00 0.  1.
         25    1    1    2    0    0 -0.17431904030E+03 -0.16557724354E+03  0.12891035408E+03  0.30007637491E+03  0.12500000000E+03 0.  0.
         25    1    1    2    0    0  0.91691788043E+02  0.13761853801E+03 -0.12992270294E+03  0.24464495649E+03  0.12500000000E+03 0.  0.
         25    1    1    2    0    0  0.82627252262E+02  0.27958705535E+02  0.21397864748E+03  0.26271812577E+03  0.12500000000E+03 0.  0.
</event>
<event>
 5    0  0.5452999E-005  0.4657545E+03  0.7546771E-02  0.1023125E+00
         21   -1    0    0  502  501  0.00000000000E+00  0.00000000000E+00  0.49037003203E+03  0.49037003203E+03  0.00000000000E+00 0.  1.
         21   -1    0    0  501  502 -0.00000000000E+00 -0.00000000000E+00 -0.44237458751E+03  0.44237458751E+03  0.00000000000E+00 0.  1.
         25    1    1    2    0    0  0.21795100668E+03  0.23650592631E+03 -0.98158628963E+02  0.35874477130E+03  0.12500000000E+03 0.  0.
         25    1    1    2    0    0 -0.40287956082E+02 -0.11477438626E+02 -0.10844415107E+03  0.17070437869E+03  0.12500000000E+03 0.  0.
         25    1    1    2    0    0 -0.17766305060E+03 -0.22502848769E+03  0.25459822456E+03  0.40329546956E+03  0.12500000000E+03 0.  0.
</event>
<event>
 5    0  0.5452999E-005  0.3435695E+03  0.7546771E-02  0.1065286E+00
         21   -1    0    0  502  501  0.00000000000E+00  0.00000000000E+00  0.10049656061E+03  0.10049656061E+03  0.00000000000E+00 0. -1.
         21   -1    0    0  501  502 -0.00000000000E+00 -0.00000000000E+00 -0.11745672742E+04  0.11745672742E+04  0.00000000000E+00 0. -1.
         25    1    1    2    0    0  0.66805773999E+02  0.13129427124E+02 -0.25910114513E+03  0.29562441832E+03  0.12500000000E+03 0.  0.
         25    1    1    2    0    0  0.11707136440E+03  0.76039949914E+02 -0.75305181836E+02  0.20194961935E+03  0.12500000000E+03 0.  0.
         25    1    1    2    0    0 -0.18387713840E+03 -0.89169377038E+02 -0.73966438660E+03  0.77748979712E+03  0.12500000000E+03 0.  0.
</event>
<event>
 5    0  0.5452999E-005  0.7478377E+03  0.7546771E-02  0.9638749E-01
         21   -1    0    0  502  501  0.00000000000E+00  0.00000000000E+00  0.16816581916E+04  0.16816581916E+04  0.00000000000E+00 0.  1.
         21   -1    0    0  501  502 -0.00000000000E+00 -0.00000000000E+00 -0.33256530478E+03  0.33256530478E+03  0.00000000000E+00 0.  1.
         25    1    1    2    0    0  0.17449054730E+03 -0.69721114371E+02  0.27182289967E+03  0.35329969384E+03  0.12500000000E+03 0.  0.
         25    1    1    2    0    0 -0.27096980904E+03  0.14814864770E+03 -0.18859562242E+03  0.38283935015E+03  0.12500000000E+03 0.  0.
         25    1    1    2    0    0  0.96479261745E+02 -0.78427533330E+02  0.12658656096E+04  0.12780844524E+04  0.12500000000E+03 0.  0.
</event>
<event>
 5    0  0.5452999E-005  0.2880239E+03  0.7546771E-02  0.1091385E+00
         21   -1    0    0  502  501  0.00000000000E+00  0.00000000000E+00  0.46357987323E+03  0.46357987323E+03  0.00000000000E+00 0.  1.
         21   -1    0    0  501  502 -0.00000000000E+00 -0.00000000000E+00 -0.17895033281E+03  0.17895033281E+03  0.00000000000E+00 0.  1.
         25    1    1    2    0    0 -0.17477751977E+03 -0.20577643756E+02  0.83210052385E+02  0.23134289196E+03  0.12500000000E+03 0.  0.
         25    1    1    2    0    0  0.15731178619E+03 -0.32665932131E+02  0.18156148891E+03  0.27277029796E+03  0.12500000000E+03 0.  0.
         25    1    1    2    0    0  0.17465733585E+02  0.53243575886E+02  0.19857999123E+02  0.13841701612E+03  0.12500000000E+03 0.  0.
</event>
<event>
 5    0  0.5452999E-005  0.2699664E+03  0.7546771E-02  0.1101299E+00
         21   -1    0    0  502  501  0.00000000000E+00  0.00000000000E+00  0.22552117425E+03  0.22552117425E+03  0.00000000000E+00 0.  1.
         21   -1    0    0  501  502 -0.00000000000E+00 -0.00000000000E+00 -0.32317090349E+03  0.32317090349E+03  0.00000000000E+00 0.  1.
         25    1    1    2    0    0 -0.36359589617E+02  0.12473286886E+03 -0.46476584198E+02  0.18618641521E+03  0.12500000000E+03 0.  0.
         25    1    1    2    0    0 -0.38402008644E+02 -0.12242677373E+03 -0.10449713129E+03  0.20738292996E+03  0.12500000000E+03 0.  0.
         25    1    1    2    0    0  0.74761598261E+02 -0.23060951321E+01  0.53323986244E+02  0.15512273256E+03  0.12500000000E+03 0.  0.
</event>
<event>
 5    0  0.5452999E-005  0.2178422E+03  0.7546771E-02  0.1135502E+00
         21   -1    0    0  502  501  0.00000000000E+00  0.00000000000E+00  0.36031712159E+02  0.36031712159E+02  0.00000000000E+00 0.  1.
         21   -1    0    0  501  502 -0.00000000000E+00 -0.00000000000E+00 -0.13170401681E+04  0.13170401681E+04  0.00000000000E+00 0.  1.
         25    1    1    2    0    0 -0.97531909917E+01  0.63358801933E+02 -0.32747396050E+03  0.35633363204E+03  0.12500000000E+03 0.  0.
         25    1    1    2    0    0  0.44279954875E+02  0.10328939588E+02 -0.33421530335E+03  0.35971137095E+03  0.12500000000E+03 0.  0.
         25    1    1    2    0    0 -0.34526763883E+02 -0.73687741522E+02 -0.61931919212E+03  0.63702687730E+03  0.12500000000E+03 0.  0.
</event>
<event>
 5    0  0.6086496E-005  0.2940186E+03  0.7546771E-02  0.1088269E+00
         21   -1    0    0  502  501  0.00000000000E+00  0.00000000000E+00  0.83967081543E+02  0.83967081543E+02  0.00000000000E+00 0.  1.
         21   -1    0    0  501  502 -0.00000000000E+00 -0.00000000000E+00 -0.10295333281E+04  0.10295333281E+04  0.00000000000E+00 0.  1.
         25    1    1    2    0    0  0.42839716074E+02 -0.54385943849E+02 -0.26702214898E+02  0.14536533439E+03  0.12500000000E+03 0.  0.
         25    1    1    2    0    0  0.59090309988E+02  0.23369182590E+02 -0.44940858142E+03  0.47077686486E+03  0.12500000000E+03 0.  0.
         25    1    1    2    0    0 -0.10193002606E+03  0.31016761259E+02 -0.46945545026E+03  0.49735821042E+03  0.12500000000E+03 0.  0.
</event>
<event>
 5    0  0.5452999E-005  0.3089391E+03  0.7546771E-02  0.1080855E+00
         21   -1    0    0  502  501  0.00000000000E+00  0.00000000000E+00  0.64360004049E+03  0.64360004049E+03  0.00000000000E+00 0. -1.
         21   -1    0    0  501  502 -0.00000000000E+00 -0.00000000000E+00 -0.14829613116E+03  0.14829613116E+03  0.00000000000E+00 0. -1.
         25    1    1    2    0    0 -0.10952075764E+03  0.25319056671E+02 -0.17830822880E+01  0.16811909579E+03  0.12500000000E+03 0.  0.
         25    1    1    2    0    0  0.98200649672E+02  0.38720809655E+02  0.77255969066E+02  0.18093135011E+03  0.12500000000E+03 0.  0.
         25    1    1    2    0    0  0.11320107970E+02 -0.64039866326E+02  0.41983102256E+03  0.44284572576E+03  0.12500000000E+03 0.  0.
</event>
<event>
 5    0  0.5452999E-005  0.3323969E+03  0.7546771E-02  0.1070081E+00
         21   -1    0    0  502  501  0.00000000000E+00  0.00000000000E+00  0.28658203853E+03  0.28658203853E+03  0.00000000000E+00 0.  1.
         21   -1    0    0  501  502 -0.00000000000E+00 -0.00000000000E+00 -0.38553595527E+03  0.38553595527E+03  0.00000000000E+00 0.  1.
         25    1    1    2    0    0 -0.69788814662E+02  0.48118948730E+01 -0.12020376386E+03  0.18699619737E+03  0.12500000000E+03 0.  0.
         25    1    1    2    0    0  0.88715451393E+02  0.65041269661E+02 -0.17492768763E+03  0.24150671621E+03  0.12500000000E+03 0.  0.
         25    1    1    2    0    0 -0.18926636731E+02 -0.69853164534E+02  0.19617753475E+03  0.24361508023E+03  0.12500000000E+03 0.  0.
</event>
<event>
 5    0  0.5452999E-005  0.4070991E+03  0.7546771E-02  0.1041349E+00
         21   -1    0    0  502  501  0.00000000000E+00  0.00000000000E+00  0.10157954375E+04  0.10157954375E+04  0.00000000000E+00 0. -1.
         21   -1    0    0  501  502 -0.00000000000E+00 -0.00000000000E+00 -0.16315259143E+03  0.16315259143E+03  0.00000000000E+00 0. -1.
         25    1    1    2    0    0 -0.93958991937E+02 -0.53457913083E+02  0.85888493858E+00  0.16526275539E+03  0.12500000000E+03 0.  0.
         25    1    1    2    0    0 -0.18216636192E+03 -0.20509140076E+02  0.23942868891E+03  0.32642963302E+03  0.12500000000E+03 0.  0.
         25    1    1    2    0    0  0.27612535386E+03  0.73967053159E+02  0.61235527225E+03  0.68725564053E+03  0.12500000000E+03 0.  0.
</event>
<event>
 5    0  0.5452999E-005  0.2864040E+03  0.7546771E-02  0.1092242E+00
         21   -1    0    0  502  501  0.00000000000E+00  0.00000000000E+00  0.29466800282E+03  0.29466800282E+03  0.00000000000E+00 0.  1.
         21   -1    0    0  501  502 -0.00000000000E+00 -0.00000000000E+00 -0.27837180023E+03  0.27837180023E+03  0.00000000000E+00 0.  1.
         25    1    1    2    0    0  0.94938212885E+02 -0.74396844759E+01 -0.38202650743E+02  0.16171906410E+03  0.12500000000E+03 0.  0.
         25    1    1    2    0    0 -0.37371985512E+02  0.55913851755E+02 -0.11857285899E+03  0.18495282374E+03  0.12500000000E+03 0.  0.
         25    1    1    2    0    0 -0.57566227373E+02 -0.48474167279E+02  0.17307171233E+03  0.22636791521E+03  0.12500000000E+03 0.  0.
</event>
<event>
 5    0  0.5527492E-005  0.3641392E+03  0.7546771E-02  0.1056957E+00
         21   -1    0    0  502  501  0.00000000000E+00  0.00000000000E+00  0.71648873306E+03  0.71648873306E+03  0.00000000000E+00 0.  1.
         21   -1    0    0  501  502 -0.00000000000E+00 -0.00000000000E+00 -0.18506556293E+03  0.18506556293E+03  0.00000000000E+00 0.  1.
         25    1    1    2    0    0  0.70807792079E+02 -0.97195219246E+02 -0.31749137190E+02  0.17633394958E+03  0.12500000000E+03 0.  0.
         25    1    1    2    0    0 -0.18828278265E+03 -0.24256620363E+02  0.39627791568E+03  0.45683692531E+03  0.12500000000E+03 0.  0.
         25    1    1    2    0    0  0.11747499057E+03  0.12145183961E+03  0.16689439164E+03  0.26838342109E+03  0.12500000000E+03 0.  0.
</event>
<event>
 5    0  0.5452999E-005  0.3431780E+03  0.7546771E-02  0.1065450E+00
         21   -1    0    0  502  501  0.00000000000E+00  0.00000000000E+00  0.83446038035E+03  0.83446038035E+03  0.00000000000E+00 0. -1.
         21   -1    0    0  501  502 -0.00000000000E+00 -0.00000000000E+00 -0.14113449212E+03  0.14113449212E+03  0.00000000000E+00 0. -1.
         25    1    1    2    0    0 -0.47227132714E+02 -0.48496216924E+02  0.69884600105E+02  0.15840183854E+03  0.12500000000E+03 0.  0.
         25    1    1    2    0    0  0.10700346883E+03  0.23985337605E+03  0.31648064865E+03  0.42984227958E+03  0.12500000000E+03 0.  0.
         25    1    1    2    0    0 -0.59776336120E+02 -0.19135715912E+03  0.30696063948E+03  0.38735075435E+03  0.12500000000E+03 0.  0.
</event>
<event>
 5    0  0.5452999E-005  0.2766803E+03  0.7546771E-02  0.1097516E+00
         21   -1    0    0  502  501  0.00000000000E+00  0.00000000000E+00  0.24023836905E+03  0.24023836905E+03  0.00000000000E+00 0.  1.
         21   -1    0    0  501  502 -0.00000000000E+00 -0.00000000000E+00 -0.31865016559E+03  0.31865016559E+03  0.00000000000E+00 0.  1.
         25    1    1    2    0    0  0.55861382192E+02 -0.14473418578E+03  0.28387102147E+02  0.20124439401E+03  0.12500000000E+03 0.  0.
         25    1    1    2    0    0 -0.79220254630E+01  0.15881632472E+03 -0.35645012599E+02  0.20538001463E+03  0.12500000000E+03 0.  0.
         25    1    1    2    0    0 -0.47939356729E+02 -0.14082138945E+02 -0.71153886083E+02  0.15226412600E+03  0.12500000000E+03 0.  0.
</event>
<event>
 5    0  0.5452999E-005  0.1967395E+03  0.7546771E-02  0.1152519E+00
         21   -1    0    0  502  501  0.00000000000E+00  0.00000000000E+00  0.38513730831E+03  0.38513730831E+03  0.00000000000E+00 0.  1.
         21   -1    0    0  501  502 -0.00000000000E+00 -0.00000000000E+00 -0.10050036718E+03  0.10050036718E+03  0.00000000000E+00 0.  1.
         25    1    1    2    0    0 -0.31451939151E+02  0.82255594130E+01  0.44803746008E+02  0.13670866820E+03  0.12500000000E+03 0.  0.
         25    1    1    2    0    0  0.10417945009E+02 -0.11957858057E+01  0.10335366275E+03  0.16253289847E+03  0.12500000000E+03 0.  0.
         25    1    1    2    0    0  0.21033994142E+02 -0.70297736073E+01  0.13647953238E+03  0.18639610882E+03  0.12500000000E+03 0.  0.
</event>
<event>
 5    0  0.5452999E-005  0.4885286E+03  0.7546771E-02  0.1016817E+00
         21   -1    0    0  502  501  0.00000000000E+00  0.00000000000E+00  0.11280010460E+04  0.11280010460E+04  0.00000000000E+00 0.  1.
         21   -1    0    0  501  502 -0.00000000000E+00 -0.00000000000E+00 -0.21157796249E+03  0.21157796249E+03  0.00000000000E+00 0.  1.
         25    1    1    2    0    0  0.27863072148E+03  0.27616480479E+03  0.52343426064E+03  0.66596584264E+03  0.12500000000E+03 0.  0.
         25    1    1    2    0    0 -0.31423960080E+01 -0.19486474326E+03  0.19783492226E+03  0.30454194996E+03  0.12500000000E+03 0.  0.
         25    1    1    2    0    0 -0.27548832547E+03 -0.81300061524E+02  0.19515390059E+03  0.36907121588E+03  0.12500000000E+03 0.  0.
</event>
<event>
 5    0  0.5452999E-005  0.2177480E+03  0.7546771E-02  0.1135573E+00
         21   -1    0    0  502  501  0.00000000000E+00  0.00000000000E+00  0.64179312696E+02  0.64179312696E+02  0.00000000000E+00 0. -1.
         21   -1    0    0  501  502 -0.00000000000E+00 -0.00000000000E+00 -0.73877670509E+03  0.73877670509E+03  0.00000000000E+00 0. -1.
         25    1    1    2    0    0 -0.20690154628E+02  0.90345044470E+01 -0.28389064966E+03  0.31101222763E+03  0.12500000000E+03 0.  0.
         25    1    1    2    0    0 -0.64533437559E+01  0.65346671977E+02 -0.25340175137E+03  0.29008495442E+03  0.12500000000E+03 0.  0.
         25    1    1    2    0    0  0.27143498384E+02 -0.74381176424E+02 -0.13730499135E+03  0.20185883573E+03  0.12500000000E+03 0.  0.
</event>
<event>
 5    0  0.5452999E-005  0.3493339E+03  0.7546771E-02  0.1062889E+00
         21   -1    0    0  502  501  0.00000000000E+00  0.00000000000E+00  0.14179604714E+04  0.14179604714E+04  0.00000000000E+00 0.  1.
         21   -1    0    0  501  502 -0.00000000000E+00 -0.00000000000E+00 -0.86063181495E+02  0.86063181495E+02  0.00000000000E+00 0.  1.
         25    1    1    2    0    0  0.99911948525E+02  0.15981508002E+03  0.60656182108E+03  0.64735268598E+03  0.12500000000E+03 0.  0.
         25    1    1    2    0    0 -0.65343316159E+02  0.84762328582E+02  0.17254266121E+03  0.23843315888E+03  0.12500000000E+03 0.  0.
         25    1    1    2    0    0 -0.34568632366E+02 -0.24457740860E+03  0.55279280765E+03  0.61823780808E+03  0.12500000000E+03 0.  0.
</event>
<event>
 5    0  0.5452999E-005  0.3360928E+03  0.7546771E-02  0.1068472E+00
         21   -1    0    0  502  501  0.00000000000E+00  0.00000000000E+00  0.56424557537E+03  0.56424557537E+03  0.00000000000E+00 0.  1.
         21   -1    0    0  501  502 -0.00000000000E+00 -0.00000000000E+00 -0.20019359900E+03  0.20019359900E+03  0.00000000000E+00 0.  1.
         25    1    1    2    0    0  0.12596086908E+03  0.62546674766E+02  0.16782370930E+03  0.25212700067E+03  0.12500000000E+03 0.  0.
         25    1    1    2    0    0 -0.25416494615E+03 -0.55135340039E+02  0.82718003694E+02  0.30017826988E+03  0.12500000000E+03 0.  0.
         25    1    1    2    0    0  0.12820407707E+03 -0.74113347264E+01  0.11351026338E+03  0.21213390382E+03  0.12500000000E+03 0.  0.
</event>
<event>
 5    0  0.5703804E-005  0.2887330E+03  0.7546771E-02  0.1091013E+00
         21   -1    0    0  502  501  0.00000000000E+00  0.00000000000E+00  0.17933662394E+03  0.17933662394E+03  0.00000000000E+00 0.  1.
         21   -1    0    0  501  502 -0.00000000000E+00 -0.00000000000E+00 -0.46486164996E+03  0.46486164996E+03  0.00000000000E+00 0.  1.
         25    1    1    2    0    0 -0.83749554154E+02  0.80090559808E+02  0.72653658434E+02  0.18528907058E+03  0.12500000000E+03 0.  0.
         25    1    1    2    0    0  0.35642543053E+02 -0.42381320165E+01 -0.19684215289E+03  0.23592411024E+03  0.12500000000E+03 0.  0.
         25    1    1    2    0    0  0.48107011101E+02 -0.75852427791E+02 -0.16133653156E+03  0.22298509308E+03  0.12500000000E+03 0.  0.
</event>
<event>
 5    0  0.5452999E-005  0.7319841E+03  0.7546771E-02  0.9664046E-01
         21   -1    0    0  502  501  0.00000000000E+00  0.00000000000E+00  0.24073769672E+03  0.24073769672E+03  0.00000000000E+00 0. -1.
         21   -1    0    0  501  502 -0.00000000000E+00 -0.00000000000E+00 -0.22256618616E+04  0.22256618616E+04  0.00000000000E+00 0. -1.
         25    1    1    2    0    0 -0.18512093424E+03 -0.81976616772E+02 -0.29512857738E+03  0.37909867209E+03  0.12500000000E+03 0.  0.
         25    1    1    2    0    0 -0.45794901196E+03  0.40644962814E+02 -0.11235997489E+04  0.12204387351E+04  0.12500000000E+03 0.  0.
         25    1    1    2    0    0  0.64306994620E+03  0.41331653957E+02 -0.56619583865E+03  0.86686215111E+03  0.12500000000E+03 0.  0.
</event>
<event>
 5    0  0.5452999E-005  0.2390510E+03  0.7546771E-02  0.1120427E+00
         21   -1    0    0  502  501  0.00000000000E+00  0.00000000000E+00  0.38030064800E+03  0.38030064800E+03  0.00000000000E+00 0. -1.
         21   -1    0    0  501  502 -0.00000000000E+00 -0.00000000000E+00 -0.15026366923E+03  0.15026366923E+03  0.00000000000E+00 0. -1.
         25    1    1    2    0    0  0.37438325770E+02 -0.32942159241E+02  0.48344358314E+02  0.14299996879E+03  0.12500000000E+03 0.  0.
         25    1    1    2    0    0 -0.12787627133E+03 -0.17849666923E+02  0.10194755748E+03  0.20661378428E+03  0.12500000000E+03 0.  0.
         25    1    1    2    0    0  0.90437945556E+02  0.50791826164E+02  0.79745062980E+02  0.18095056416E+03  0.12500000000E+03 0.  0.
</event>
<event>
 5    0  0.5452999E-005  0.2382073E+03  0.7546771E-02  0.1120993E+00
         21   -1    0    0  502  501  0.00000000000E+00  0.00000000000E+00  0.12274200124E+03  0.12274200124E+03  0.00000000000E+00 0.  1.
         21   -1    0    0  501  502 -0.00000000000E+00 -0.00000000000E+00 -0.46229240259E+03  0.46229240259E+03  0.00000000000E+00 0.  1.
         25    1    1    2    0    0 -0.40420831650E+02 -0.39085104819E+02 -0.13202209716E+03  0.19030586745E+03  0.12500000000E+03 0.  0.
         25    1    1    2    0    0 -0.31481859573E+02  0.11204288062E+03 -0.78690675055E+02  0.18804769853E+03  0.12500000000E+03 0.  0.
         25    1    1    2    0    0  0.71902691223E+02 -0.72957775803E+02 -0.12883762914E+03  0.20668083786E+03  0.12500000000E+03 0.  0.
</event>
<event>
 5    0  0.5452999E-005  0.2792171E+03  0.7546771E-02  0.1096117E+00
         21   -1    0    0  502  501  0.00000000000E+00  0.00000000000E+00  0.30111109698E+03  0.30111109698E+03  0.00000000000E+00 0. -1.
         21   -1    0    0  501  502 -0.00000000000E+00 -0.00000000000E+00 -0.25891506138E+03  0.25891506138E+03  0.00000000000E+00 0. -1.
         25    1    1    2    0    0 -0.34147349096E+02 -0.18241519293E+03  0.74792720040E+01  0.22388006515E+03  0.12500000000E+03 0.  0.
         25    1    1    2    0    0  0.10008769554E+00  0.69277120886E+02  0.72187683788E+02  0.16011055926E+03  0.12500000000E+03 0.  0.
         25    1    1    2    0    0  0.34047261401E+02  0.11313807204E+03 -0.37470920192E+02  0.17603553395E+03  0.12500000000E+03 0.  0.
</event>
<event>
 5    0  0.5452999E-005  0.3917988E+03  0.7546771E-02  0.1046657E+00
         21   -1    0    0  502  501  0.00000000000E+00  0.00000000000E+00  0.82955984525E+03  0.82955984525E+03  0.00000000000E+00 0. -1.
         21   -1    0    0  501  502 -0.00000000000E+00 -0.00000000000E+00 -0.18504549938E+03  0.18504549938E+03  0.00000000000E+00 0. -1.
         25    1    1    2    0    0 -0.12572061267E+03  0.14911778569E+02 -0.81184798435E+02  0.19556074526E+03  0.12500000000E+03 0.  0.
         25    1    1    2    0    0  0.25268802450E+02 -0.11597046638E+03  0.22339426624E+03  0.28216601432E+03  0.12500000000E+03 0.  0.
         25    1    1    2    0    0  0.10045181022E+03  0.10105868781E+03  0.50230487806E+03  0.53687858505E+03  0.12500000000E+03 0.  0.
</event>
<event>
 5    0  0.5452999E-005  0.4357693E+03  0.7546771E-02  0.1032053E+00
         21   -1    0    0  502  501  0.00000000000E+00  0.00000000000E+00  0.14869766407E+03  0.14869766407E+03  0.00000000000E+00 0.  1.
         21   -1    0    0  501  502 -0.00000000000E+00 -0.00000000000E+00 -0.12770535431E+04  0.12770535431E+04  0.00000000000E+00 0.  1.
         25    1    1    2    0    0 -0.21997141605E+03 -0.48293864025E+02 -0.72788939157E+03  0.77211895945E+03  0.12500000000E+03 0.  0.
         25    1    1    2    0    0 -0.96943332907E+02  0.43449695353E+02 -0.67974243018E+02  0.17757078458E+03  0.12500000000E+03 0.  0.
         25    1    1    2    0    0  0.31691474896E+03  0.48441686718E+01 -0.33249224443E+03  0.47606146314E+03  0.12500000000E+03 0.  0.
</event>
<event>
 5    0  0.5452999E-005  0.2671060E+03  0.7546771E-02  0.1102947E+00
         21   -1    0    0  502  501  0.00000000000E+00  0.00000000000E+00  0.26168044469E+02  0.26168044469E+02  0.00000000000E+00 0. -1.
         21   -1    0    0  501  502 -0.00000000000E+00 -0.00000000000E+00 -0.27264398948E+04  0.27264398948E+04  0.00000000000E+00 0. -1.
         25    1    1    2    0    0  0.38337221982E+02 -0.12563563328E+03 -0.71602372263E+03  0.73862644571E+03  0.12500000000E+03 0.  0.
         25    1    1    2    0    0  0.32294191430E+02 -0.94608648614E+01 -0.11241746348E+04  0.11316033016E+04  0.12500000000E+03 0.  0.
         25    1    1    2    0    0 -0.70631413412E+02  0.13509649814E+03 -0.86007349292E+03  0.88237819193E+03  0.12500000000E+03 0.  0.
</event>
<event>
 5    0  0.5452999E-005  0.4461600E+03  0.7546771E-02  0.1028873E+00
         21   -1    0    0  502  501  0.00000000000E+00  0.00000000000E+00  0.14484240197E+03  0.14484240197E+03  0.00000000000E+00 0.  1.
         21   -1    0    0  501  502 -0.00000000000E+00 -0.00000000000E+00 -0.13743126266E+04  0.13743126266E+04  0.00000000000E+00 0.  1.
         25    1    1    2    0    0 -0.68602651380E+02  0.28689567298E+02  0.28584419629E+02  0.14822781147E+03  0.12500000000E+03 0.  0.
         25    1    1    2    0    0  0.14023290560E+03  0.13499758258E+03 -0.25437508985E+03  0.34383324658E+03  0.12500000000E+03 0.  0.
         25    1    1    2    0    0 -0.71630254219E+02 -0.16368714988E+03 -0.10036795544E+04  0.10270939705E+04  0.12500000000E+03 0.  0.
</event>
<event>
 5    0  0.5452999E-005  0.4344261E+03  0.7546771E-02  0.1032471E+00
         21   -1    0    0  502  501  0.00000000000E+00  0.00000000000E+00  0.20131382373E+03  0.20131382373E+03  0.00000000000E+00 0.  1.
         21   -1    0    0  501  502 -0.00000000000E+00 -0.00000000000E+00 -0.93747202069E+03  0.93747202069E+03  0.00000000000E+00 0.  1.
         25    1    1    2    0    0 -0.86791598958E+02  0.26390042744E+03 -0.73850999711E+02  0.31345683501E+03  0.12500000000E+03 0.  0.
         25    1    1    2    0    0  0.53516894299E+02  0.52073090033E+02 -0.25699985746E+03  0.29538041813E+03  0.12500000000E+03 0.  0.
         25    1    1    2    0    0  0.33274704658E+02 -0.31597351747E+03 -0.40530733979E+03  0.52994859129E+03  0.12500000000E+03 0.  0.
</event>
<event>
 5    0  0.5452999E-005  0.3691507E+03  0.7546771E-02  0.1055018E+00
         21   -1    0    0  502  501  0.00000000000E+00  0.00000000000E+00  0.79835846903E+03  0.79835846903E+03  0.00000000000E+00 0. -1.
         21   -1    0    0  501  502 -0.00000000000E+00 -0.00000000000E+00 -0.17069055803E+03  0.17069055803E+03  0.00000000000E+00 0. -1.
         25    1    1    2    0    0 -0.12445202164E+03  0.11021923540E+03  0.23579601061E+03  0.31442223865E+03  0.12500000000E+03 0.  0.
         25    1    1    2    0    0  0.91214596019E+02 -0.17734650794E+03 -0.12457963662E+01  0.23536872862E+03  0.12500000000E+03 0.  0.
         25    1    1    2    0    0  0.33237425618E+02  0.67127272544E+02  0.39311769676E+03  0.41925805978E+03  0.12500000000E+03 0.  0.
</event>
<event>
 5    0  0.5489005E-005  0.2931374E+03  0.7546771E-02  0.1088722E+00
         21   -1    0    0  502  501  0.00000000000E+00  0.00000000000E+00  0.28539946838E+03  0.28539946838E+03  0.00000000000E+00 0. -1.
         21   -1    0    0  501  502 -0.00000000000E+00 -0.00000000000E+00 -0.30108512813E+03  0.30108512813E+03  0.00000000000E+00 0. -1.
         25    1    1    2    0    0  0.67097480808E+02 -0.62797206436E+02  0.18314368553E+03  0.24002535411E+03  0.12500000000E+03 0.  0.
         25    1    1    2    0    0 -0.98843178447E+01  0.73983639440E+02 -0.95409106162E+02  0.17406658549E+03  0.12500000000E+03 0.  0.
         25    1    1    2    0    0 -0.57213162964E+02 -0.11186433004E+02 -0.10342023912E+03  0.17239265692E+03  0.12500000000E+03 0.  0.
</event>
<event>
 5    0  0.5452999E-005  0.3191908E+03  0.7546771E-02  0.1076022E+00
         21   -1    0    0  502  501  0.00000000000E+00  0.00000000000E+00  0.52467078607E+03  0.52467078607E+03  0.00000000000E+00 0. -1.
         21   -1    0    0  501  502 -0.00000000000E+00 -0.00000000000E+00 -0.19418422298E+03  0.19418422298E+03  0.00000000000E+00 0. -1.
         25    1    1    2    0    0 -0.14945913572E+03  0.13406057290E+03  0.68797254615E+02  0.24630942471E+03  0.12500000000E+03 0.  0.
         25    1    1    2    0    0  0.19424835195E+03 -0.50260999451E+02  0.16121143689E+03  0.28613409039E+03  0.12500000000E+03 0.  0.
         25    1    1    2    0    0 -0.44789216224E+02 -0.83799573446E+02  0.10047787158E+03  0.18641149395E+03  0.12500000000E+03 0.  0.
</event>
<event>
 5    0  0.5452999E-005  0.2264514E+03  0.7546771E-02  0.1129163E+00
         21   -1    0    0  502  501  0.00000000000E+00  0.00000000000E+00  0.66660719661E+03  0.66660719661E+03  0.00000000000E+00 0.  1.
         21   -1    0    0  501  502 -0.00000000000E+00 -0.00000000000E+00 -0.76927213608E+02  0.76927213608E+02  0.00000000000E+00 0.  1.
         25    1    1    2    0    0 -0.93962149001E+02  0.61184851965E+02  0.20242804979E+03  0.26301062126E+03  0.12500000000E+03 0.  0.
         25    1    1    2    0    0  0.65033947652E+02 -0.66896935207E+02  0.21830231369E+03  0.26830116371E+03  0.12500000000E+03 0.  0.
         25    1    1    2    0    0  0.28928201350E+02  0.57120832426E+01  0.16894961952E+03  0.21222262524E+03  0.12500000000E+03 0.  0.
</event>
<event>
 5    0  0.5452999E-005  0.3900957E+03  0.7546771E-02  0.1047264E+00
         21   -1    0    0  502  501  0.00000000000E+00  0.00000000000E+00  0.28104081315E+03  0.28104081315E+03  0.00000000000E+00 0.  1.
         21   -1    0    0  501  502 -0.00000000000E+00 -0.00000000000E+00 -0.54146808113E+03  0.54146808113E+03  0.00000000000E+00 0.  1.
         25    1    1    2    0    0  0.15858271993E+02  0.10661048449E+03  0.98166545447E+02  0.19203893053E+03  0.12500000000E+03 0.  0.
         25    1    1    2    0    0 -0.19864324292E+03 -0.16804606148E+03 -0.19359848924E+03  0.34756868641E+03  0.12500000000E+03 0.  0.
         25    1    1    2    0    0  0.18278497093E+03  0.61435576990E+02 -0.16499532419E+03  0.28290127734E+03  0.12500000000E+03 0.  0.
</event>
<event>
 5    0  0.5452999E-005  0.2667760E+03  0.7546771E-02  0.1103139E+00
         21   -1    0    0  502  501  0.00000000000E+00  0.00000000000E+00  0.17090298152E+03  0.17090298152E+03  0.00000000000E+00 0. -1.
         21   -1    0    0  501  502 -0.00000000000E+00 -0.00000000000E+00 -0.41643175896E+03  0.41643175896E+03  0.00000000000E+00 0. -1.
         25    1    1    2    0    0 -0.41416252351E+02 -0.40431599475E+02 -0.69529162682E+02  0.15430270464E+03  0.12500000000E+03 0.  0.
         25    1    1    2    0    0  0.26734261516E+02  0.15571405891E+03 -0.16774694130E+03  0.26215572699E+03  0.12500000000E+03 0.  0.
         25    1    1    2    0    0  0.14681990834E+02 -0.11528245943E+03 -0.82526734639E+01  0.17087630885E+03  0.12500000000E+03 0.  0.
</event>
<event>
 5    0  0.5488187E-005  0.2896138E+03  0.7546771E-02  0.1090551E+00
         21   -1    0    0  502  501  0.00000000000E+00  0.00000000000E+00  0.24428347603E+03  0.24428347603E+03  0.00000000000E+00 0. -1.
         21   -1    0    0  501  502 -0.00000000000E+00 -0.00000000000E+00 -0.34335578584E+03  0.34335578584E+03  0.00000000000E+00 0. -1.
         25    1    1    2    0    0  0.15667871335E+03  0.84006131280E+02 -0.93394142363E+01  0.21752580070E+03  0.12500000000E+03 0.  0.
         25    1    1    2    0    0 -0.99365257557E+02  0.29794673158E+02 -0.10097544140E+03  0.19126478171E+03  0.12500000000E+03 0.  0.
         25    1    1    2    0    0 -0.57313455796E+02 -0.11380080444E+03  0.11242545824E+02  0.17884867945E+03  0.12500000000E+03 0.  0.
</event>
<event>
 5    0  0.5452999E-005  0.2097803E+03  0.7546771E-02  0.1141740E+00
         21   -1    0    0  502  501  0.00000000000E+00  0.00000000000E+00  0.46870804098E+04  0.46870804098E+04  0.00000000000E+00 0. -1.
         21   -1    0    0  501  502 -0.00000000000E+00 -0.00000000000E+00 -0.93891680161E+01  0.93891680161E+01  0.00000000000E+00 0. -1.
         25    1    1    2    0    0 -0.86805946165E+01  0.33468876343E+02  0.13425391258E+04  0.13487890208E+04  0.12500000000E+03 0.  0.
         25    1    1    2    0    0  0.54807305438E+02 -0.58096337819E+02  0.20652376524E+04  0.20705580374E+04  0.12500000000E+03 0.  0.
         25    1    1    2    0    0 -0.46126710822E+02  0.24627461475E+02  0.12699144636E+04  0.12771225196E+04  0.12500000000E+03 0.  0.
</event>
<event>
 5    0  0.5452999E-005  0.4367734E+03  0.7546771E-02  0.1031741E+00
         21   -1    0    0  502  501  0.00000000000E+00  0.00000000000E+00  0.49726873769E+03  0.49726873769E+03  0.00000000000E+00 0.  1.
         21   -1    0    0  501  502 -0.00000000000E+00 -0.00000000000E+00 -0.38363760031E+03  0.38363760031E+03  0.00000000000E+00 0.  1.
         25    1    1    2    0    0  0.41463287587E+02  0.16871928299E+03  0.22427093555E+03  0.31001266619E+03  0.12500000000E+03 0.  0.
         25    1    1    2    0    0  0.18873029627E+03 -0.15597309138E+03  0.24274209983E+02  0.27597276538E+03  0.12500000000E+03 0.  0.
         25    1    1    2    0    0 -0.23019358385E+03 -0.12746191608E+02 -0.13491400815E+03  0.29492090642E+03  0.12500000000E+03 0.  0.
</event>
<event>
 5    0  0.5452999E-005  0.2835938E+03  0.7546771E-02  0.1093742E+00
         21   -1    0    0  502  501  0.00000000000E+00  0.00000000000E+00  0.40758865691E+03  0.40758865691E+03  0.00000000000E+00 0.  1.
         21   -1    0    0  501  502 -0.00000000000E+00 -0.00000000000E+00 -0.19732005677E+03  0.19732005677E+03  0.00000000000E+00 0.  1.
         25    1    1    2    0    0 -0.67818959008E+02  0.97209646505E+02  0.22782981741E+03  0.28562309479E+03  0.12500000000E+03 0.  0.
         25    1    1    2    0    0  0.25641523956E+02 -0.19703676680E+02 -0.82334592030E+02  0.15313297382E+03  0.12500000000E+03 0.  0.
         25    1    1    2    0    0  0.42177435052E+02 -0.77505969824E+02  0.64773374755E+02  0.16615264507E+03  0.12500000000E+03 0.  0.
</event>
<event>
 5    0  0.5452999E-005  0.3984205E+03  0.7546771E-02  0.1044328E+00
         21   -1    0    0  502  501  0.00000000000E+00  0.00000000000E+00  0.40264095192E+03  0.40264095192E+03  0.00000000000E+00 0.  1.
         21   -1    0    0  501  502 -0.00000000000E+00 -0.00000000000E+00 -0.39424426941E+03  0.39424426941E+03  0.00000000000E+00 0.  1.
         25    1    1    2    0    0 -0.68235082286E+02  0.46481639867E+02  0.64834705575E+02  0.16323329423E+03  0.12500000000E+03 0.  0.
         25    1    1    2    0    0  0.23357635849E+03 -0.23261432419E+03 -0.31515242079E+02  0.35395698828E+03  0.12500000000E+03 0.  0.
         25    1    1    2    0    0 -0.16534127621E+03  0.18613268433E+03 -0.24922780992E+02  0.27969493882E+03  0.12500000000E+03 0.  0.
</event>
<event>
 5    0  0.5452999E-005  0.3915454E+03  0.7546771E-02  0.1046747E+00
         21   -1    0    0  502  501  0.00000000000E+00  0.00000000000E+00  0.59888636077E+03  0.59888636077E+03  0.00000000000E+00 0. -1.
         21   -1    0    0  501  502 -0.00000000000E+00 -0.00000000000E+00 -0.25598813145E+03  0.25598813145E+03  0.00000000000E+00 0. -1.
         25    1    1    2    0    0  0.86706118348E+02  0.28482961661E+02 -0.87769966588E+02  0.17792638112E+03  0.12500000000E+03 0.  0.
         25    1    1    2    0    0  0.10932378393E+03  0.59624607528E+02 -0.36731697404E+01  0.17648024176E+03  0.12500000000E+03 0.  0.
         25    1    1    2    0    0 -0.19602990228E+03 -0.88107569189E+02  0.43434136564E+03  0.50046786934E+03  0.12500000000E+03 0.  0.
</event>
<event>
 5    0  0.5452999E-005  0.3240666E+03  0.7546771E-02  0.1073793E+00
         21   -1    0    0  502  501  0.00000000000E+00  0.00000000000E+00  0.33018478725E+03  0.33018478725E+03  0.00000000000E+00 0.  1.
         21   -1    0    0  501  502 -0.00000000000E+00 -0.00000000000E+00 -0.31806180575E+03  0.31806180575E+03  0.00000000000E+00 0.  1.
         25    1    1    2    0    0 -0.40064907455E+01  0.49894212110E+02  0.27549997418E+02  0.13743902913E+03  0.12500000000E+03 0.  0.
         25    1    1    2    0    0 -0.16352623606E+03  0.56028668302E+02 -0.13016143294E+03  0.24989405791E+03  0.12500000000E+03 0.  0.
         25    1    1    2    0    0  0.16753272681E+03 -0.10592288041E+03  0.11473441703E+03  0.26091350597E+03  0.12500000000E+03 0.  0.
</event>
<event>
 5    0  0.5452999E-005  0.2485695E+03  0.7546771E-02  0.1114212E+00
         21   -1    0    0  502  501  0.00000000000E+00  0.00000000000E+00  0.10206569077E+03  0.10206569077E+03  0.00000000000E+00 0. -1.
         21   -1    0    0  501  502 -0.00000000000E+00 -0.00000000000E+00 -0.60536301206E+03  0.60536301206E+03  0.00000000000E+00 0. -1.
         25    1    1    2    0    0 -0.42746204087E+02 -0.89992918339E+02 -0.49608600557E+02  0.16736778831E+03  0.12500000000E+03 0.  0.
         25    1    1    2    0    0  0.63317499073E+02  0.48709556056E+01 -0.22562425289E+03  0.26563910742E+03  0.12500000000E+03 0.  0.
         25    1    1    2    0    0 -0.20571294987E+02  0.85121962733E+02 -0.22806446784E+03  0.27442180709E+03  0.12500000000E+03 0.  0.
</event>
<event>
 5    0  0.5452999E-005  0.2473725E+03  0.7546771E-02  0.1114977E+00
         21   -1    0    0  502  501  0.00000000000E+00  0.00000000000E+00  0.63006300623E+03  0.63006300623E+03  0.00000000000E+00 0.  1.
         21   -1    0    0  501  502 -0.00000000000E+00 -0.00000000000E+00 -0.97122253745E+02  0.97122253745E+02  0.00000000000E+00 0.  1.
         25    1    1    2    0    0 -0.12285329838E+03 -0.48707967010E+02  0.21584282588E+03  0.28227384657E+03  0.12500000000E+03 0.  0.
         25    1    1    2    0    0  0.63038494337E+02 -0.40750536742E+02  0.16937928285E+03  0.22349228057E+03  0.12500000000E+03 0.  0.
         25    1    1    2    0    0  0.59814804041E+02  0.89458503752E+02  0.14771864375E+03  0.22141913284E+03  0.12500000000E+03 0.  0.
</event>
<event>
 5    0  0.6966599E-005  0.3472534E+03  0.7546771E-02  0.1063748E+00
         21   -1    0    0  502  501  0.00000000000E+00  0.00000000000E+00  0.74284147997E+03  0.74284147997E+03  0.00000000000E+00 0.  1.
         21   -1    0    0  501  502 -0.00000000000E+00 -0.00000000000E+00 -0.16232927469E+03  0.16232927469E+03  0.00000000000E+00 0.  1.
         25    1    1    2    0    0  0.49604126770E+02 -0.65465127682E+02  0.40556660743E+03  0.43226788615E+03  0.12500000000E+03 0.  0.
         25    1    1    2    0    0 -0.19831196620E+03  0.63988235436E+02  0.74255612291E+02  0.25408861873E+03  0.12500000000E+03 0.  0.
         25    1    1    2    0    0  0.14870783943E+03  0.14768922457E+01  0.10068998555E+03  0.21881424978E+03  0.12500000000E+03 0.  0.
</event>
<event>
 5    0  0.5452999E-005  0.3752427E+03  0.7546771E-02  0.1052706E+00
         21   -1    0    0  502  501  0.00000000000E+00  0.00000000000E+00  0.40393518079E+03  0.40393518079E+03  0.00000000000E+00 0. -1.
         21   -1    0    0  501  502 -0.00000000000E+00 -0.00000000000E+00 -0.34858833264E+03  0.34858833264E+03  0.00000000000E+00 0. -1.
         25    1    1    2    0    0 -0.52033571056E+02 -0.22327414537E+03 -0.90007313272E+02  0.27619767007E+03  0.12500000000E+03 0.  0.
         25    1    1    2    0    0 -0.75912680956E+02  0.59524180699E+02  0.17066474862E+03  0.23250230029E+03  0.12500000000E+03 0.  0.
         25    1    1    2    0    0  0.12794625201E+03  0.16374996467E+03 -0.25310587197E+02  0.24382354308E+03  0.12500000000E+03 0.  0.
</event>
<event>
 5    0  0.5807586E-005  0.2569327E+03  0.7546771E-02  0.1109000E+00
         21   -1    0    0  502  501  0.00000000000E+00  0.00000000000E+00  0.18846803844E+03  0.18846803844E+03  0.00000000000E+00 0. -1.
         21   -1    0    0  501  502 -0.00000000000E+00 -0.00000000000E+00 -0.35026842638E+03  0.35026842638E+03  0.00000000000E+00 0. -1.
         25    1    1    2    0    0  0.43437000236E+02  0.65553270093E+02 -0.19331247817E+03  0.24326676392E+03  0.12500000000E+03 0.  0.
         25    1    1    2    0    0 -0.22402018348E+02 -0.86461910066E+02 -0.24044373374E+02  0.15550126755E+03  0.12500000000E+03 0.  0.
         25    1    1    2    0    0 -0.21034981887E+02  0.20908639974E+02  0.55556463610E+02  0.13996843336E+03  0.12500000000E+03 0.  0.
</event>
<event>
 5    0  0.5452999E-005  0.3332448E+03  0.7546771E-02  0.1069710E+00
         21   -1    0    0  502  501  0.00000000000E+00  0.00000000000E+00  0.11358749378E+04  0.11358749378E+04  0.00000000000E+00 0.  1.
         21   -1    0    0  501  502 -0.00000000000E+00 -0.00000000000E+00 -0.97767901742E+02  0.97767901742E+02  0.00000000000E+00 0.  1.
         25    1    1    2    0    0 -0.13927327896E+03 -0.11966470790E+03  0.16760354120E+03  0.27826720175E+03  0.12500000000E+03 0.  0.
         25    1    1    2    0    0  0.15746558327E+03  0.16415199750E+03  0.56019300778E+03  0.61739978471E+03  0.12500000000E+03 0.  0.
         25    1    1    2    0    0 -0.18192304312E+02 -0.44487289598E+02  0.31031048710E+03  0.33797585310E+03  0.12500000000E+03 0.  0.
</event>
<event>
 5    0  0.5452999E-005  0.2229076E+03  0.7546771E-02  0.1131734E+00
         21   -1    0    0  502  501  0.00000000000E+00  0.00000000000E+00  0.55255093727E+02  0.55255093727E+02  0.00000000000E+00 0. -1.
         21   -1    0    0  501  502 -0.00000000000E+00 -0.00000000000E+00 -0.89924401045E+03  0.89924401045E+03  0.00000000000E+00 0. -1.
         25    1    1    2    0    0  0.36639988030E+02  0.93929354063E+02 -0.42644410635E+03  0.45568057685E+03  0.12500000000E+03 0.  0.
         25    1    1    2    0    0 -0.35629399191E+02 -0.58383961325E+02 -0.23271774133E+03  0.27287485805E+03  0.12500000000E+03 0.  0.
         25    1    1    2    0    0 -0.10105888389E+01 -0.35545392739E+02 -0.18482706905E+03  0.22594366928E+03  0.12500000000E+03 0.  0.
</event>
<event>
 5    0  0.5452999E-005  0.5198238E+03  0.7546771E-02  0.1008730E+00
         21   -1    0    0  502  501  0.00000000000E+00  0.00000000000E+00  0.46631608295E+03  0.46631608295E+03  0.00000000000E+00 0.  1.
         21   -1    0    0  501  502 -0.00000000000E+00 -0.00000000000E+00 -0.57947130574E+03  0.57947130574E+03  0.00000000000E+00 0.  1.
         25    1    1    2    0    0 -0.28675515249E+03  0.12869768657E+03  0.25867097235E+03  0.42582541487E+03  0.12500000000E+03 0.  0.
         25    1    1    2    0    0 -0.23041157577E+02 -0.34068363486E+02 -0.34878049260E+02  0.13613605934E+03  0.12500000000E+03 0.  0.
         25    1    1    2    0    0  0.30979631007E+03 -0.94629323089E+02 -0.33694814587E+03  0.48382591449E+03  0.12500000000E+03 0.  0.
</event>
<event>
 5    0  0.5452999E-005  0.2858430E+03  0.7546771E-02  0.1092540E+00
         21   -1    0    0  502  501  0.00000000000E+00  0.00000000000E+00  0.11487398795E+04  0.11487398795E+04  0.00000000000E+00 0.  1.
         21   -1    0    0  501  502 -0.00000000000E+00 -0.00000000000E+00 -0.71126836766E+02  0.71126836766E+02  0.00000000000E+00 0.  1.
         25    1    1    2    0    0 -0.25119076167E+02 -0.44072648762E+02  0.66448923620E+02  0.15037894070E+03  0.12500000000E+03 0.  0.
         25    1    1    2    0    0  0.52498641176E+02 -0.13964277250E+02  0.17608536654E+03  0.22267052943E+03  0.12500000000E+03 0.  0.
         25    1    1    2    0    0 -0.27379565009E+02  0.58036926012E+02  0.83507875252E+03  0.84681724609E+03  0.12500000000E+03 0.  0.
</event>
<event>
 5    0  0.6192873E-005  0.3430823E+03  0.7546771E-02  0.1065491E+00
         21   -1    0    0  502  501  0.00000000000E+00  0.00000000000E+00  0.70878149282E+03  0.70878149282E+03  0.00000000000E+00 0. -1.
         21   -1    0    0  501  502 -0.00000000000E+00 -0.00000000000E+00 -0.16606733348E+03  0.16606733348E+03  0.00000000000E+00 0. -1.
         25    1    1    2    0    0 -0.18183503238E+03 -0.98216702970E+02  0.54314747483E+02  0.24755926874E+03  0.12500000000E+03 0.  0.
         25    1    1    2    0    0 -0.21229475441E+02  0.45378737342E+02  0.26044686267E+03  0.29320212943E+03  0.12500000000E+03 0.  0.
         25    1    1    2    0    0  0.20306450783E+03  0.52837965628E+02  0.22795254919E+03  0.33408742812E+03  0.12500000000E+03 0.  0.
</event>
<event>
 5    0  0.5452999E-005  0.3541229E+03  0.7546771E-02  0.1060935E+00
         21   -1    0    0  502  501  0.00000000000E+00  0.00000000000E+00  0.26965381208E+03  0.26965381208E+03  0.00000000000E+00 0.  1.
         21   -1    0    0  501  502 -0.00000000000E+00 -0.00000000000E+00 -0.46505200528E+03  0.46505200528E+03  0.00000000000E+00 0.  1.
         25    1    1    2    0    0 -0.16378782098E+03 -0.89430360007E+02  0.87491430115E+02  0.24104769224E+03  0.12500000000E+03 0.  0.
         25    1    1    2    0    0  0.68775640642E+02  0.11535086844E+03 -0.27968321102E+03  0.33449007477E+03  0.12500000000E+03 0.  0.
         25    1    1    2    0    0  0.95012180339E+02 -0.25920508437E+02 -0.32064122977E+01  0.15916805034E+03  0.12500000000E+03 0.  0.
</event>
<event>
 5    0  0.5452999E-005  0.6114141E+03  0.7546771E-02  0.9882004E-01
         21   -1    0    0  502  501  0.00000000000E+00  0.00000000000E+00  0.97607176519E+03  0.97607176519E+03  0.00000000000E+00 0.  1.
         21   -1    0    0  501  502 -0.00000000000E+00 -0.00000000000E+00 -0.38299150398E+03  0.38299150398E+03  0.00000000000E+00 0.  1.
         25    1    1    2    0    0  0.72541034353E+02  0.47099680311E+02  0.22506702696E+03  0.27158930056E+03  0.12500000000E+03 0.  0.
         25    1    1    2    0    0 -0.68221060892E+02  0.38397362012E+03  0.47386580462E+03  0.62630955197E+03  0.12500000000E+03 0.  0.
         25    1    1    2    0    0 -0.43199734611E+01 -0.43107330043E+03 -0.10585257038E+03  0.46116441664E+03  0.12500000000E+03 0.  0.
</event>
<event>
 5    0  0.5452999E-005  0.3396898E+03  0.7546771E-02  0.1066928E+00
         21   -1    0    0  502  501  0.00000000000E+00  0.00000000000E+00  0.87655515032E+03  0.87655515032E+03  0.00000000000E+00 0. -1.
         21   -1    0    0  501  502 -0.00000000000E+00 -0.00000000000E+00 -0.13163936567E+03  0.13163936567E+03  0.00000000000E+00 0. -1.
         25    1    1    2    0    0 -0.11915224474E+03 -0.20922349603E+02  0.68864305805E+03  0.71027407635E+03  0.12500000000E+03 0.  0.
         25    1    1    2    0    0  0.22430997039E+02  0.20060323826E+02  0.55054780202E+02  0.13986277218E+03  0.12500000000E+03 0.  0.
         25    1    1    2    0    0  0.96721247701E+02  0.86202577767E+00  0.12179463996E+01  0.15805766745E+03  0.12500000000E+03 0.  0.
</event>
<event>
 5    0  0.5762359E-005  0.3291507E+03  0.7546771E-02  0.1071513E+00
         21   -1    0    0  502  501  0.00000000000E+00  0.00000000000E+00  0.89772534191E+02  0.89772534191E+02  0.00000000000E+00 0.  1.
         21   -1    0    0  501  502 -0.00000000000E+00 -0.00000000000E+00 -0.12068300381E+04  0.12068300381E+04  0.00000000000E+00 0.  1.
         25    1    1    2    0    0 -0.79588652235E+02 -0.11222310074E+03 -0.18103530306E+03  0.25947477499E+03  0.12500000000E+03 0.  0.
         25    1    1    2    0    0 -0.10096455968E+03  0.12109992072E+02 -0.61346586352E+03  0.63427585475E+03  0.12500000000E+03 0.  0.
         25    1    1    2    0    0  0.18055321192E+03  0.10011310867E+03 -0.32255633735E+03  0.40285194256E+03  0.12500000000E+03 0.  0.
</event>
<event>
 5    0  0.5452999E-005  0.2920703E+03  0.7546771E-02  0.1089273E+00
         21   -1    0    0  502  501  0.00000000000E+00  0.00000000000E+00  0.69997119488E+03  0.69997119488E+03  0.00000000000E+00 0.  1.
         21   -1    0    0  501  502 -0.00000000000E+00 -0.00000000000E+00 -0.12186941867E+03  0.12186941867E+03  0.00000000000E+00 0.  1.
         25    1    1    2    0    0  0.26783953612E+02  0.35676957322E+02  0.76661375584E+02  0.15327162804E+03  0.12500000000E+03 0.  0.
         25    1    1    2    0    0 -0.41067027105E+02 -0.19726471167E+03  0.25692546155E+03  0.34962202445E+03  0.12500000000E+03 0.  0.
         25    1    1    2    0    0  0.14283073493E+02  0.16158775435E+03  0.24451493908E+03  0.31894696107E+03  0.12500000000E+03 0.  0.
</event>
<event>
 5    0  0.5452999E-005  0.3123329E+03  0.7546771E-02  0.1079233E+00
         21   -1    0    0  502  501  0.00000000000E+00  0.00000000000E+00  0.20758153074E+03  0.20758153074E+03  0.00000000000E+00 0. -1.
         21   -1    0    0  501  502 -0.00000000000E+00 -0.00000000000E+00 -0.46994469186E+03  0.46994469186E+03  0.00000000000E+00 0. -1.
         25    1    1    2    0    0  0.18650770066E+01 -0.82085869933E+02 -0.29953489502E+03  0.33479504460E+03  0.12500000000E+03 0.  0.
         25    1    1    2    0    0 -0.10811476723E+03  0.51676512914E+02  0.29909709656E+02  0.17572380491E+03  0.12500000000E+03 0.  0.
         25    1    1    2    0    0  0.10624969023E+03  0.30409357019E+02  0.72620242388E+01  0.16700737308E+03  0.12500000000E+03 0.  0.
</event>
<event>
 5    0  0.5452999E-005  0.2733125E+03  0.7546771E-02  0.1099399E+00
         21   -1    0    0  502  501  0.00000000000E+00  0.00000000000E+00  0.69590796739E+02  0.69590796739E+02  0.00000000000E+00 0. -1.
         21   -1    0    0  501  502 -0.00000000000E+00 -0.00000000000E+00 -0.10734140548E+04  0.10734140548E+04  0.00000000000E+00 0. -1.
         25    1    1    2    0    0 -0.10890914275E+03 -0.63842978935E+02 -0.65344293734E+03  0.67716305252E+03  0.12500000000E+03 0.  0.
         25    1    1    2    0    0  0.74898495049E+02  0.10535565189E+02 -0.94124302214E+02  0.17379633760E+03  0.12500000000E+03 0.  0.
         25    1    1    2    0    0  0.34010647704E+02  0.53307413746E+02 -0.25625601850E+03  0.29204546142E+03  0.12500000000E+03 0.  0.
</event>
<event>
 5    0  0.5452999E-005  0.2644212E+03  0.7546771E-02  0.1104516E+00
         21   -1    0    0  502  501  0.00000000000E+00  0.00000000000E+00  0.11824782714E+03  0.11824782714E+03  0.00000000000E+00 0.  1.
         21   -1    0    0  501  502 -0.00000000000E+00 -0.00000000000E+00 -0.59128846837E+03  0.59128846837E+03  0.00000000000E+00 0.  1.
         25    1    1    2    0    0  0.71485914011E+02 -0.17333727346E+02 -0.17770644962E+03  0.22938020020E+03  0.12500000000E+03 0.  0.
         25    1    1    2    0    0 -0.14042687294E+03  0.10068225771E+03 -0.16881204581E+03  0.27199104852E+03  0.12500000000E+03 0.  0.
         25    1    1    2    0    0  0.68940958931E+02 -0.83348530362E+02 -0.12652214580E+03  0.20816504680E+03  0.12500000000E+03 0.  0.
</event>
<event>
 5    0  0.5452999E-005  0.2739012E+03  0.7546771E-02  0.1099067E+00
         21   -1    0    0  502  501  0.00000000000E+00  0.00000000000E+00  0.12116379718E+03  0.12116379718E+03  0.00000000000E+00 0.  1.
         21   -1    0    0  501  502 -0.00000000000E+00 -0.00000000000E+00 -0.61917716154E+03  0.61917716154E+03  0.00000000000E+00 0.  1.
         25    1    1    2    0    0  0.37830045353E+02  0.46997971603E+02 -0.19797981778E+03  0.24178695150E+03  0.12500000000E+03 0.  0.
         25    1    1    2    0    0  0.61954796576E+02  0.60317727870E+02 -0.12547330786E+02  0.15250921488E+03  0.12500000000E+03 0.  0.
         25    1    1    2    0    0 -0.99784841930E+02 -0.10731569947E+03 -0.28748621579E+03  0.34604479234E+03  0.12500000000E+03 0.  0.
</event>
<event>
 5    0  0.5452999E-005  0.2535633E+03  0.7546771E-02  0.1111073E+00
         21   -1    0    0  502  501  0.00000000000E+00  0.00000000000E+00  0.28381239078E+04  0.28381239078E+04  0.00000000000E+00 0.  1.
         21   -1    0    0  501  502 -0.00000000000E+00 -0.00000000000E+00 -0.22653812911E+02  0.22653812911E+02  0.00000000000E+00 0.  1.
         25    1    1    2    0    0 -0.31847928022E+01  0.11736555510E+03  0.16447110140E+04  0.16536275687E+04  0.12500000000E+03 0.  0.
         25    1    1    2    0    0 -0.36801071379E+02 -0.93815296425E+02  0.61384972945E+03  0.63450147285E+03  0.12500000000E+03 0.  0.
         25    1    1    2    0    0  0.39985864181E+02 -0.23550258673E+02  0.55690935149E+03  0.57264867920E+03  0.12500000000E+03 0.  0.
</event>
<event>
 5    0  0.5452999E-005  0.3716163E+03  0.7546771E-02  0.1054077E+00
         21   -1    0    0  502  501  0.00000000000E+00  0.00000000000E+00  0.27307603025E+03  0.27307603025E+03  0.00000000000E+00 0. -1.
         21   -1    0    0  501  502 -0.00000000000E+00 -0.00000000000E+00 -0.50571512796E+03  0.50571512796E+03  0.00000000000E+00 0. -1.
         25    1    1    2    0    0 -0.90194803539E+02 -0.26117326951E+02 -0.41005140895E+03  0.43884436345E+03  0.12500000000E+03 0.  0.
         25    1    1    2    0    0  0.79884190856E+02 -0.31966106535E+02  0.91517881998E+02  0.17721128249E+03  0.12500000000E+03 0.  0.
         25    1    1    2    0    0  0.10310612683E+02  0.58083433486E+02  0.85894429244E+02  0.16273551227E+03  0.12500000000E+03 0.  0.
</event>
<event>
 5    0  0.5452999E-005  0.4406763E+03  0.7546771E-02  0.1030539E+00
         21   -1    0    0  502  501  0.00000000000E+00  0.00000000000E+00  0.46353340358E+03  0.46353340358E+03  0.00000000000E+00 0. -1.
         21   -1    0    0  501  502 -0.00000000000E+00 -0.00000000000E+00 -0.41894637320E+03  0.41894637320E+03  0.00000000000E+00 0. -1.
         25    1    1    2    0    0 -0.56919338569E+02  0.26927098617E+03 -0.19903662541E+03  0.36192161216E+03  0.12500000000E+03 0.  0.
         25    1    1    2    0    0  0.13291281752E+03 -0.20635571525E+03  0.68464618778E+02  0.28383252509E+03  0.12500000000E+03 0.  0.
         25    1    1    2    0    0 -0.75993478949E+02 -0.62915270928E+02  0.17515903701E+03  0.23672563952E+03  0.12500000000E+03 0.  0.
</event>
<event>
 5    0  0.5452999E-005  0.3111352E+03  0.7546771E-02  0.1079803E+00
         21   -1    0    0  502  501  0.00000000000E+00  0.00000000000E+00  0.14480471477E+04  0.14480471477E+04  0.00000000000E+00 0.  1.
         21   -1    0    0  501  502 -0.00000000000E+00 -0.00000000000E+00 -0.66852182142E+02  0.66852182142E+02  0.00000000000E+00 0. -1.
         25    1    1    2    0    0  0.34431386001E+02 -0.12111800213E+03  0.30628130626E+03  0.35396091500E+03  0.12500000000E+03 0.  0.
         25    1    1    2    0    0 -0.76448939898E+02 -0.79391701182E+02  0.23977012525E+03  0.29199691024E+03  0.12500000000E+03 0.  0.
         25    1    1    2    0    0  0.42017553896E+02  0.20050970331E+03  0.83514353408E+03  0.86894150463E+03  0.12500000000E+03 0.  0.
</event>
<event>
 5    0  0.6409515E-005  0.2792383E+03  0.7546771E-02  0.1096106E+00
         21   -1    0    0  502  501  0.00000000000E+00  0.00000000000E+00  0.69386247671E+03  0.69386247671E+03  0.00000000000E+00 0.  1.
         21   -1    0    0  501  502 -0.00000000000E+00 -0.00000000000E+00 -0.11237674206E+03  0.11237674206E+03  0.00000000000E+00 0.  1.
         25    1    1    2    0    0 -0.14591258968E+03 -0.23083916631E+02  0.25760407278E+03  0.32219281393E+03  0.12500000000E+03 0.  0.
         25    1    1    2    0    0  0.16505818115E+03  0.42072680216E+02  0.27580920594E+03  0.34743349244E+03  0.12500000000E+03 0.  0.
         25    1    1    2    0    0 -0.19145591472E+02 -0.18988763585E+02  0.48072455940E+02  0.13661291240E+03  0.12500000000E+03 0.  0.
</event>
<event>
 5    0  0.5452999E-005  0.4657494E+03  0.7546771E-02  0.1023127E+00
         21   -1    0    0  502  501  0.00000000000E+00  0.00000000000E+00  0.44937429239E+03  0.44937429239E+03  0.00000000000E+00 0. -1.
         21   -1    0    0  501  502 -0.00000000000E+00 -0.00000000000E+00 -0.48272130000E+03  0.48272130000E+03  0.00000000000E+00 0. -1.
         25    1    1    2    0    0  0.32191975971E+03  0.51908168364E+02 -0.88466172352E+02  0.36024721135E+03  0.12500000000E+03 0.  0.
         25    1    1    2    0    0 -0.32712882414E+03 -0.17089312118E+03 -0.29777849374E+01  0.38968140019E+03  0.12500000000E+03 0.  0.
         25    1    1    2    0    0  0.52090644367E+01  0.11898495282E+03  0.58096949679E+02  0.18216698085E+03  0.12500000000E+03 0.  0.
</event>
<event>
 5    0  0.5452999E-005  0.3725677E+03  0.7546771E-02  0.1053715E+00
         21   -1    0    0  502  501  0.00000000000E+00  0.00000000000E+00  0.35643292213E+03  0.35643292213E+03  0.00000000000E+00 0. -1.
         21   -1    0    0  501  502 -0.00000000000E+00 -0.00000000000E+00 -0.38943289827E+03  0.38943289827E+03  0.00000000000E+00 0. -1.
         25    1    1    2    0    0 -0.75660117274E+02  0.15364821650E+03 -0.35042851608E+02  0.21490748993E+03  0.12500000000E+03 0.  0.
         25    1    1    2    0    0 -0.41661523520E+02  0.63597047404E+02  0.15633212001E+03  0.21411445240E+03  0.12500000000E+03 0.  0.
         25    1    1    2    0    0  0.11732164079E+03 -0.21724526390E+03 -0.15428924455E+03  0.31684387807E+03  0.12500000000E+03 0.  0.
</event>
<event>
 5    0  0.5452999E-005  0.5749907E+03  0.7546771E-02  0.9958695E-01
         21   -1    0    0  502  501  0.00000000000E+00  0.00000000000E+00  0.76044580241E+03  0.76044580241E+03  0.00000000000E+00 0.  1.
         21   -1    0    0  501  502 -0.00000000000E+00 -0.00000000000E+00 -0.43476386360E+03  0.43476386360E+03  0.00000000000E+00 0.  1.
         25    1    1    2    0    0  0.27174298386E+03 -0.32299840969E+03  0.16342433328E+02  0.44052729435E+03  0.12500000000E+03 0.  0.
         25    1    1    2    0    0  0.58405823822E+02 -0.48689534990E+02 -0.16552749730E+02  0.14724437034E+03  0.12500000000E+03 0.  0.
         25    1    1    2    0    0 -0.33014880768E+03  0.37168794468E+03  0.32589225521E+03  0.60743800131E+03  0.12500000000E+03 0.  0.
</event>
<event>
 5    0  0.5452999E-005  0.2489520E+03  0.7546771E-02  0.1113969E+00
         21   -1    0    0  502  501  0.00000000000E+00  0.00000000000E+00  0.40597436564E+03  0.40597436564E+03  0.00000000000E+00 0.  1.
         21   -1    0    0  501  502 -0.00000000000E+00 -0.00000000000E+00 -0.15266255416E+03  0.15266255416E+03  0.00000000000E+00 0.  1.
         25    1    1    2    0    0 -0.95899888841E+02  0.16190044892E+02  0.18299786543E+03  0.24201678658E+03  0.12500000000E+03 0.  0.
         25    1    1    2    0    0 -0.14574787495E+02 -0.40213547015E+02  0.66793427917E+02  0.14804025063E+03  0.12500000000E+03 0.  0.
         25    1    1    2    0    0  0.11047467634E+03  0.24023502124E+02  0.35205181347E+01  0.16857988259E+03  0.12500000000E+03 0.  0.
</event>
<event>
 5    0  0.5452999E-005  0.2667426E+03  0.7546771E-02  0.1103158E+00
         21   -1    0    0  502  501  0.00000000000E+00  0.00000000000E+00  0.38575362949E+03  0.38575362949E+03  0.00000000000E+00 0. -1.
         21   -1    0    0  501  502 -0.00000000000E+00 -0.00000000000E+00 -0.18444839091E+03  0.18444839091E+03  0.00000000000E+00 0. -1.
         25    1    1    2    0    0  0.13056132514E+03 -0.11382861345E+03  0.63906228796E+02  0.22296237113E+03  0.12500000000E+03 0.  0.
         25    1    1    2    0    0 -0.10522419520E+03  0.81674731236E+02  0.50245535443E+02  0.18945317841E+03  0.12500000000E+03 0.  0.
         25    1    1    2    0    0 -0.25337129938E+02  0.32153882216E+02  0.87153474344E+02  0.15778647086E+03  0.12500000000E+03 0.  0.
</event>
<event>
 5    0  0.6097963E-005  0.3671301E+03  0.7546771E-02  0.1055796E+00
         21   -1    0    0  502  501  0.00000000000E+00  0.00000000000E+00  0.21656503198E+03  0.21656503198E+03  0.00000000000E+00 0.  1.
         21   -1    0    0  501  502 -0.00000000000E+00 -0.00000000000E+00 -0.62237437670E+03  0.62237437670E+03  0.00000000000E+00 0.  1.
         25    1    1    2    0    0  0.82293404140E+02  0.22760655982E+02 -0.36172276822E+03  0.39212066112E+03  0.12500000000E+03 0.  0.
         25    1    1    2    0    0 -0.19392526747E+03 -0.75564762128E+02 -0.99789644819E+02  0.26248812516E+03  0.12500000000E+03 0.  0.
         25    1    1    2    0    0  0.11163186333E+03  0.52804106146E+02  0.55703068321E+02  0.18433062241E+03  0.12500000000E+03 0.  0.
</event>
<event>
 5    0  0.5452999E-005  0.4189549E+03  0.7546771E-02  0.1037407E+00
         21   -1    0    0  502  501  0.00000000000E+00  0.00000000000E+00  0.66036273707E+03  0.66036273707E+03  0.00000000000E+00 0. -1.
         21   -1    0    0  501  502 -0.00000000000E+00 -0.00000000000E+00 -0.26579815831E+03  0.26579815831E+03  0.00000000000E+00 0. -1.
         25    1    1    2    0    0  0.56306258658E+02  0.11560736461E+03  0.96196990324E+02  0.20350508216E+03  0.12500000000E+03 0.  0.
         25    1    1    2    0    0 -0.27296169641E+03  0.27028389115E+02  0.31273436104E+03  0.43435745890E+03  0.12500000000E+03 0.  0.
         25    1    1    2    0    0  0.21665543775E+03 -0.14263575373E+03 -0.14366772597E+02  0.28829835432E+03  0.12500000000E+03 0.  0.
</event>
<event>
 5    0  0.5452999E-005  0.3083286E+03  0.7546771E-02  0.1081150E+00
         21   -1    0    0  502  501  0.00000000000E+00  0.00000000000E+00  0.18781957034E+03  0.18781957034E+03  0.00000000000E+00 0. -1.
         21   -1    0    0  501  502 -0.00000000000E+00 -0.00000000000E+00 -0.50615877962E+03  0.50615877962E+03  0.00000000000E+00 0. -1.
         25    1    1    2    0    0  0.66857101822E+01 -0.50966641895E+02  0.11269358801E+03  0.17597483367E+03  0.12500000000E+03 0.  0.
         25    1    1    2    0    0  0.33204159508E+01 -0.40251151625E+02 -0.21780309213E+03  0.25435087441E+03  0.12500000000E+03 0.  0.
         25    1    1    2    0    0 -0.10006126133E+02  0.91217793520E+02 -0.21322970515E+03  0.26365264188E+03  0.12500000000E+03 0.  0.
</event>
<event>
 5    0  0.5452999E-005  0.3589956E+03  0.7546771E-02  0.1058982E+00
         21   -1    0    0  502  501  0.00000000000E+00  0.00000000000E+00  0.11768493549E+03  0.11768493549E+03  0.00000000000E+00 0. -1.
         21   -1    0    0  501  502 -0.00000000000E+00 -0.00000000000E+00 -0.10951092595E+04  0.10951092595E+04  0.00000000000E+00 0. -1.
         25    1    1    2    0    0 -0.10241281432E+03  0.19484931193E+03 -0.35602064757E+03  0.43684132175E+03  0.12500000000E+03 0.  0.
         25    1    1    2    0    0  0.82093833838E+02 -0.26799215825E+03 -0.33468492545E+03  0.45409051274E+03  0.12500000000E+03 0.  0.
         25    1    1    2    0    0  0.20318980486E+02  0.73142846322E+02 -0.28671875101E+03  0.32186236052E+03  0.12500000000E+03 0.  0.
</event>
<event>
 5    0  0.6519344E-005  0.4429668E+03  0.7546771E-02  0.1029840E+00
         21   -1    0    0  502  501  0.00000000000E+00  0.00000000000E+00  0.23940996868E+03  0.23940996868E+03  0.00000000000E+00 0. -1.
         21   -1    0    0  501  502 -0.00000000000E+00 -0.00000000000E+00 -0.81959666894E+03  0.81959666894E+03  0.00000000000E+00 0. -1.
         25    1    1    2    0    0 -0.22278260226E+03  0.35637044791E+02 -0.19610451659E+03  0.32401245078E+03  0.12500000000E+03 0.  0.
         25    1    1    2    0    0  0.12682618995E+03  0.16440250860E+03  0.34733891915E+02  0.24483568069E+03  0.12500000000E+03 0.  0.
         25    1    1    2    0    0  0.95956412317E+02 -0.20003955339E+03 -0.41881607559E+03  0.49015850615E+03  0.12500000000E+03 0.  0.
</event>
<event>
 5    0  0.5452999E-005  0.3087390E+03  0.7546771E-02  0.1080952E+00
         21   -1    0    0  502  501  0.00000000000E+00  0.00000000000E+00  0.48649091442E+02  0.48649091442E+02  0.00000000000E+00 0. -1.
         21   -1    0    0  501  502 -0.00000000000E+00 -0.00000000000E+00 -0.19593335218E+04  0.19593335218E+04  0.00000000000E+00 0. -1.
         25    1    1    2    0    0 -0.49913413609E+02 -0.16111579873E+02 -0.11712315399E+03  0.17914732782E+03  0.12500000000E+03 0.  0.
         25    1    1    2    0    0  0.74648479641E+02  0.96054791874E+02 -0.57078691585E+03  0.59684304626E+03  0.12500000000E+03 0.  0.
         25    1    1    2    0    0 -0.24735066032E+02 -0.79943212001E+02 -0.12227743606E+04  0.12319922392E+04  0.12500000000E+03 0.  0.
</event>
<event>
 5    0  0.5452999E-005  0.2272746E+03  0.7546771E-02  0.1128573E+00
         21   -1    0    0  502  501  0.00000000000E+00  0.00000000000E+00  0.26913967634E+03  0.26913967634E+03  0.00000000000E+00 0.  1.
         21   -1    0    0  501  502 -0.00000000000E+00 -0.00000000000E+00 -0.19192175160E+03  0.19192175160E+03  0.00000000000E+00 0.  1.
         25    1    1    2    0    0 -0.15398921388E+02  0.42128710513E+01  0.56277491318E+02  0.13801098178E+03  0.12500000000E+03 0.  0.
         25    1    1    2    0    0 -0.51075647840E+01 -0.10274653073E+03  0.10832254793E+02  0.16225065343E+03  0.12500000000E+03 0.  0.
         25    1    1    2    0    0  0.20506486172E+02  0.98533659683E+02  0.10108178627E+02  0.16079979273E+03  0.12500000000E+03 0.  0.
</event>
<event>
 5    0  0.5452999E-005  0.2916493E+03  0.7546771E-02  0.1089491E+00
         21   -1    0    0  502  501  0.00000000000E+00  0.00000000000E+00  0.86015510868E+03  0.86015510868E+03  0.00000000000E+00 0.  1.
         21   -1    0    0  501  502 -0.00000000000E+00 -0.00000000000E+00 -0.98888323275E+02  0.98888323275E+02  0.00000000000E+00 0.  1.
         25    1    1    2    0    0  0.32031157939E+02 -0.19963442070E+03  0.22659281043E+03  0.32840401755E+03  0.12500000000E+03 0.  0.
         25    1    1    2    0    0 -0.34865975762E+02  0.95624385493E+02  0.34488711791E+03  0.38069907206E+03  0.12500000000E+03 0.  0.
         25    1    1    2    0    0  0.28348178233E+01  0.10401003520E+03  0.18978685706E+03  0.24994034234E+03  0.12500000000E+03 0.  0.
</event>
<event>
 5    0  0.5452999E-005  0.2906417E+03  0.7546771E-02  0.1090015E+00
         21   -1    0    0  502  501  0.00000000000E+00  0.00000000000E+00  0.96485574606E+03  0.96485574606E+03  0.00000000000E+00 0.  1.
         21   -1    0    0  501  502 -0.00000000000E+00 -0.00000000000E+00 -0.87549432475E+02  0.87549432475E+02  0.00000000000E+00 0.  1.
         25    1    1    2    0    0 -0.10343878057E+01  0.18462805878E+02  0.40627137972E+03  0.42546842320E+03  0.12500000000E+03 0.  0.
         25    1    1    2    0    0  0.21668550939E+02 -0.28292689398E+02  0.48216514271E+03  0.49937784013E+03  0.12500000000E+03 0.  0.
         25    1    1    2    0    0 -0.20634163134E+02  0.98298835199E+01 -0.11130208847E+02  0.12755891520E+03  0.12500000000E+03 0.  0.
</event>
<event>
 5    0  0.5452999E-005  0.2364238E+03  0.7546771E-02  0.1122198E+00
         21   -1    0    0  502  501  0.00000000000E+00  0.00000000000E+00  0.59166804231E+02  0.59166804231E+02  0.00000000000E+00 0. -1.
         21   -1    0    0  501  502 -0.00000000000E+00 -0.00000000000E+00 -0.94472234352E+03  0.94472234352E+03  0.00000000000E+00 0. -1.
         25    1    1    2    0    0 -0.46202419243E+02  0.30036302540E+02 -0.29599017403E+03  0.32599390506E+03  0.12500000000E+03 0.  0.
         25    1    1    2    0    0  0.74567075140E+02  0.71981647267E+02 -0.36900373289E+03  0.40315054400E+03  0.12500000000E+03 0.  0.
         25    1    1    2    0    0 -0.28364655896E+02 -0.10201794981E+03 -0.22056163236E+03  0.27474469869E+03  0.12500000000E+03 0.  0.
</event>
<event>
 5    0  0.5452999E-005  0.3961027E+03  0.7546771E-02  0.1045138E+00
         21   -1    0    0  502  501  0.00000000000E+00  0.00000000000E+00  0.15062616539E+03  0.15062616539E+03  0.00000000000E+00 0.  1.
         21   -1    0    0  501  502 -0.00000000000E+00 -0.00000000000E+00 -0.10416340552E+04  0.10416340552E+04  0.00000000000E+00 0.  1.
         25    1    1    2    0    0 -0.26284838911E+02  0.10070773870E+03 -0.93449135208E+01  0.16292718865E+03  0.12500000000E+03 0.  0.
         25    1    1    2    0    0  0.44502144496E+02 -0.10932726234E+03 -0.37808060898E+02  0.17603221474E+03  0.12500000000E+03 0.  0.
         25    1    1    2    0    0 -0.18217305585E+02  0.86195236412E+01 -0.84385491536E+03  0.85330081717E+03  0.12500000000E+03 0.  0.
</event>
<event>
 5    0  0.5452999E-005  0.2171698E+03  0.7546771E-02  0.1136011E+00
         21   -1    0    0  502  501  0.00000000000E+00  0.00000000000E+00  0.51891701882E+03  0.51891701882E+03  0.00000000000E+00 0. -1.
         21   -1    0    0  501  502 -0.00000000000E+00 -0.00000000000E+00 -0.90886867989E+02  0.90886867989E+02  0.00000000000E+00 0. -1.
         25    1    1    2    0    0  0.87790044634E+02 -0.16392179848E+02  0.16710390133E+03  0.22699010846E+03  0.12500000000E+03 0.  0.
         25    1    1    2    0    0 -0.37842076913E+01 -0.14986422680E+02  0.10835286146E+03  0.16614528485E+03  0.12500000000E+03 0.  0.
         25    1    1    2    0    0 -0.84005836943E+02  0.31378602528E+02  0.15257338804E+03  0.21666849350E+03  0.12500000000E+03 0.  0.
</event>
<event>
 5    0  0.5452999E-005  0.3923437E+03  0.7546771E-02  0.1046464E+00
         21   -1    0    0  502  501  0.00000000000E+00  0.00000000000E+00  0.13842569808E+04  0.13842569808E+04  0.00000000000E+00 0. -1.
         21   -1    0    0  501  502 -0.00000000000E+00 -0.00000000000E+00 -0.11120302371E+03  0.11120302371E+03  0.00000000000E+00 0. -1.
         25    1    1    2    0    0  0.13562888972E+03  0.26535378235E+03  0.70220788485E+03  0.77299983123E+03  0.12500000000E+03 0.  0.
         25    1    1    2    0    0 -0.58793379119E+02 -0.17235972534E+03  0.47550151952E+03  0.52430070705E+03  0.12500000000E+03 0.  0.
         25    1    1    2    0    0 -0.76835510599E+02 -0.92994057012E+02  0.95344552729E+02  0.19815946625E+03  0.12500000000E+03 0.  0.
</event>
<event>
 5    0  0.5452999E-005  0.2700815E+03  0.7546771E-02  0.1101233E+00
         21   -1    0    0  502  501  0.00000000000E+00  0.00000000000E+00  0.16803914061E+03  0.16803914061E+03  0.00000000000E+00 0. -1.
         21   -1    0    0  501  502 -0.00000000000E+00 -0.00000000000E+00 -0.43408938438E+03  0.43408938438E+03  0.00000000000E+00 0. -1.
         25    1    1    2    0    0 -0.30898638720E+02  0.98957247813E+02 -0.74971758548E+02  0.17886594799E+03  0.12500000000E+03 0.  0.
         25    1    1    2    0    0  0.63051920680E+02  0.40732872730E+02 -0.18152546550E+03  0.23283300077E+03  0.12500000000E+03 0.  0.
         25    1    1    2    0    0 -0.32153281960E+02 -0.13969012054E+03 -0.95530197264E+01  0.19042957623E+03  0.12500000000E+03 0.  0.
</event>
<event>
 5    0  0.5452999E-005  0.2079472E+03  0.7546771E-02  0.1143202E+00
         21   -1    0    0  502  501  0.00000000000E+00  0.00000000000E+00  0.15590693132E+03  0.15590693132E+03  0.00000000000E+00 0.  1.
         21   -1    0    0  501  502 -0.00000000000E+00 -0.00000000000E+00 -0.27735792542E+03  0.27735792542E+03  0.00000000000E+00 0.  1.
         25    1    1    2    0    0 -0.21728318421E+02  0.34363657687E+02 -0.10360099920E+03  0.16736531250E+03  0.12500000000E+03 0.  0.
         25    1    1    2    0    0 -0.10381010810E+02  0.39382758777E+00  0.19933631945E+02  0.12700500056E+03  0.12500000000E+03 0.  0.
         25    1    1    2    0    0  0.32109329231E+02 -0.34757485275E+02 -0.37783626836E+02  0.13889454368E+03  0.12500000000E+03 0.  0.
</event>
<event>
 5    0  0.5452999E-005  0.2204176E+03  0.7546771E-02  0.1133572E+00
         21   -1    0    0  502  501  0.00000000000E+00  0.00000000000E+00  0.13336327380E+03  0.13336327380E+03  0.00000000000E+00 0. -1.
         21   -1    0    0  501  502 -0.00000000000E+00 -0.00000000000E+00 -0.36429760766E+03  0.36429760766E+03  0.00000000000E+00 0. -1.
         25    1    1    2    0    0  0.10105697358E+03  0.49528709226E+01 -0.61277190332E+02  0.17209572015E+03  0.12500000000E+03 0.  0.
         25    1    1    2    0    0 -0.84794649383E+02 -0.39410454000E+01 -0.10403276100E+03  0.18344884781E+03  0.12500000000E+03 0.  0.
         25    1    1    2    0    0 -0.16262324197E+02 -0.10118255227E+01 -0.65624382528E+02  0.14211631349E+03  0.12500000000E+03 0.  0.
</event>
<event>
 5    0  0.5452999E-005  0.2397814E+03  0.7546771E-02  0.1119939E+00
         21   -1    0    0  502  501  0.00000000000E+00  0.00000000000E+00  0.17143685971E+03  0.17143685971E+03  0.00000000000E+00 0. -1.
         21   -1    0    0  501  502 -0.00000000000E+00 -0.00000000000E+00 -0.33537190410E+03  0.33537190410E+03  0.00000000000E+00 0. -1.
         25    1    1    2    0    0 -0.73393189301E+02 -0.48133512843E+02 -0.36292987424E+02  0.15698909590E+03  0.12500000000E+03 0.  0.
         25    1    1    2    0    0  0.81370099318E+01 -0.58863435988E+02 -0.99802629248E+02  0.17063610354E+03  0.12500000000E+03 0.  0.
         25    1    1    2    0    0  0.65256179369E+02  0.10699694883E+03 -0.27839427716E+02  0.17918356437E+03  0.12500000000E+03 0.  0.
</event>
<event>
 5    0  0.5452999E-005  0.3461822E+03  0.7546771E-02  0.1064193E+00
         21   -1    0    0  502  501  0.00000000000E+00  0.00000000000E+00  0.16302476666E+04  0.16302476666E+04  0.00000000000E+00 0. -1.
         21   -1    0    0  501  502 -0.00000000000E+00 -0.00000000000E+00 -0.73511617969E+02  0.73511617969E+02  0.00000000000E+00 0. -1.
         25    1    1    2    0    0 -0.16274747573E+03  0.10048931699E+03  0.24902856569E+03  0.33797199620E+03  0.12500000000E+03 0.  0.
         25    1    1    2    0    0 -0.93743319217E+01 -0.11864763325E+03  0.72315982451E+03  0.74347176864E+03  0.12500000000E+03 0.  0.
         25    1    1    2    0    0  0.17212180765E+03  0.18158316265E+02  0.58454765841E+03  0.62231551971E+03  0.12500000000E+03 0.  0.
</event>
<event>
 5    0  0.5452999E-005  0.3105075E+03  0.7546771E-02  0.1080103E+00
         21   -1    0    0  502  501  0.00000000000E+00  0.00000000000E+00  0.31271928768E+03  0.31271928768E+03  0.00000000000E+00 0. -1.
         21   -1    0    0  501  502 -0.00000000000E+00 -0.00000000000E+00 -0.30831142015E+03  0.30831142015E+03  0.00000000000E+00 0. -1.
         25    1    1    2    0    0 -0.45509620244E+02 -0.25277896799E+02 -0.10524509701E+03  0.17149818671E+03  0.12500000000E+03 0.  0.
         25    1    1    2    0    0  0.17955812321E+03  0.95226036798E+02  0.76489019638E+02  0.25056872874E+03  0.12500000000E+03 0.  0.
         25    1    1    2    0    0 -0.13404850297E+03 -0.69948139999E+02  0.33163944902E+02  0.19896379238E+03  0.12500000000E+03 0.  0.
</event>
<event>
 5    0  0.5452999E-005  0.3322856E+03  0.7546771E-02  0.1070130E+00
         21   -1    0    0  502  501  0.00000000000E+00  0.00000000000E+00  0.84351384329E+03  0.84351384329E+03  0.00000000000E+00 0. -1.
         21   -1    0    0  501  502 -0.00000000000E+00 -0.00000000000E+00 -0.13089737529E+03  0.13089737529E+03  0.00000000000E+00 0. -1.
         25    1    1    2    0    0  0.91000361147E+02  0.23820816424E+03  0.32573950142E+03  0.43215207743E+03  0.12500000000E+03 0.  0.
         25    1    1    2    0    0 -0.53378488091E+02 -0.12106027538E+03  0.28860685678E+03  0.34120927750E+03  0.12500000000E+03 0.  0.
         25    1    1    2    0    0 -0.37621873056E+02 -0.11714788886E+03  0.98270109794E+02  0.20104986365E+03  0.12500000000E+03 0.  0.
</event>
<event>
 5    0  0.5452999E-005  0.5470980E+03  0.7546771E-02  0.1002168E+00
         21   -1    0    0  502  501  0.00000000000E+00  0.00000000000E+00  0.29901695511E+03  0.29901695511E+03  0.00000000000E+00 0. -1.
         21   -1    0    0  501  502 -0.00000000000E+00 -0.00000000000E+00 -0.10010008091E+04  0.10010008091E+04  0.00000000000E+00 0. -1.
         25    1    1    2    0    0 -0.94368260140E+02 -0.11960180463E+02 -0.45527437404E+03  0.48160997716E+03  0.12500000000E+03 0.  0.
         25    1    1    2    0    0  0.77992394324E+02 -0.27590287359E+03  0.12040849851E+03  0.33515431631E+03  0.12500000000E+03 0.  0.
         25    1    1    2    0    0  0.16375865816E+02  0.28786305405E+03 -0.36711797841E+03  0.48325347070E+03  0.12500000000E+03 0.  0.
</event>
<event>
 5    0  0.5452999E-005  0.2396327E+03  0.7546771E-02  0.1120038E+00
         21   -1    0    0  502  501  0.00000000000E+00  0.00000000000E+00  0.55561559228E+03  0.55561559228E+03  0.00000000000E+00 0.  1.
         21   -1    0    0  501  502 -0.00000000000E+00 -0.00000000000E+00 -0.10335170221E+03  0.10335170221E+03  0.00000000000E+00 0.  1.
         25    1    1    2    0    0  0.12933271923E+02 -0.54699372560E+02  0.15254269066E+03  0.20506965488E+03  0.12500000000E+03 0.  0.
         25    1    1    2    0    0 -0.91436648937E+02 -0.43934081455E+02  0.11604010688E+03  0.19844689639E+03  0.12500000000E+03 0.  0.
         25    1    1    2    0    0  0.78503377014E+02  0.98633454016E+02  0.18368109253E+03  0.25545074321E+03  0.12500000000E+03 0.  0.
</event>
<event>
 5    0  0.5452999E-005  0.2193648E+03  0.7546771E-02  0.1134357E+00
         21   -1    0    0  502  501  0.00000000000E+00  0.00000000000E+00  0.69975574371E+03  0.69975574371E+03  0.00000000000E+00 0.  1.
         21   -1    0    0  501  502 -0.00000000000E+00 -0.00000000000E+00 -0.68768181659E+02  0.68768181659E+02  0.00000000000E+00 0.  1.
         25    1    1    2    0    0  0.31222635453E+02  0.43606296033E+02  0.20951019812E+03  0.24979168348E+03  0.12500000000E+03 0.  0.
         25    1    1    2    0    0  0.29494542183E+02  0.25546593175E+02  0.27826477584E+03  0.30753673263E+03  0.12500000000E+03 0.  0.
         25    1    1    2    0    0 -0.60717177637E+02 -0.69152889208E+02  0.14321258809E+03  0.21119550926E+03  0.12500000000E+03 0.  0.
</event>
<event>
 5    0  0.5452999E-005  0.5751708E+03  0.7546771E-02  0.9958301E-01
         21   -1    0    0  502  501  0.00000000000E+00  0.00000000000E+00  0.83865694173E+03  0.83865694173E+03  0.00000000000E+00 0.  1.
         21   -1    0    0  501  502 -0.00000000000E+00 -0.00000000000E+00 -0.39446572738E+03  0.39446572738E+03  0.00000000000E+00 0.  1.
         25    1    1    2    0    0 -0.16244060564E+03  0.33513505626E+03 -0.18907277740E+03  0.43597703087E+03  0.12500000000E+03 0.  0.
         25    1    1    2    0    0  0.32500306313E+02 -0.96770333447E+02  0.34975322133E+03  0.38519226780E+03  0.12500000000E+03 0.  0.
         25    1    1    2    0    0  0.12994029932E+03 -0.23836472281E+03  0.28351077042E+03  0.41195337044E+03  0.12500000000E+03 0.  0.
</event>
<event>
 5    0  0.5452999E-005  0.2658415E+03  0.7546771E-02  0.1103683E+00
         21   -1    0    0  502  501  0.00000000000E+00  0.00000000000E+00  0.28926639978E+03  0.28926639978E+03  0.00000000000E+00 0. -1.
         21   -1    0    0  501  502 -0.00000000000E+00 -0.00000000000E+00 -0.24431358357E+03  0.24431358357E+03  0.00000000000E+00 0. -1.
         25    1    1    2    0    0  0.16503622079E+02  0.11173073322E+03 -0.57722882325E+02  0.17808160329E+03  0.12500000000E+03 0.  0.
         25    1    1    2    0    0 -0.47113183423E+02  0.41357318067E+02  0.51887638954E+02  0.14915564651E+03  0.12500000000E+03 0.  0.
         25    1    1    2    0    0  0.30609561344E+02 -0.15308805128E+03  0.50788059588E+02  0.20634273355E+03  0.12500000000E+03 0.  0.
</event>
<event>
 5    0  0.5452999E-005  0.3005594E+03  0.7546771E-02  0.1084961E+00
         21   -1    0    0  502  501  0.00000000000E+00  0.00000000000E+00  0.14036824024E+03  0.14036824024E+03  0.00000000000E+00 0. -1.
         21   -1    0    0  501  502 -0.00000000000E+00 -0.00000000000E+00 -0.64356424075E+03  0.64356424075E+03  0.00000000000E+00 0. -1.
         25    1    1    2    0    0  0.79963197621E+02 -0.18890978831E+02 -0.45260087969E+03  0.47667970205E+03  0.12500000000E+03 0.  0.
         25    1    1    2    0    0  0.27728551917E+02 -0.28552727521E+02 -0.27402596019E+02  0.13401504807E+03  0.12500000000E+03 0.  0.
         25    1    1    2    0    0 -0.10769174954E+03  0.47443706352E+02 -0.23192524806E+02  0.17323773087E+03  0.12500000000E+03 0.  0.
</event>
<event>
 5    0  0.5452999E-005  0.3033852E+03  0.7546771E-02  0.1083561E+00
         21   -1    0    0  502  501  0.00000000000E+00  0.00000000000E+00  0.10632125529E+03  0.10632125529E+03  0.00000000000E+00 0. -1.
         21   -1    0    0  501  502 -0.00000000000E+00 -0.00000000000E+00 -0.86570254038E+03  0.86570254038E+03  0.00000000000E+00 0. -1.
         25    1    1    2    0    0 -0.15660599826E+02  0.10598933947E+03 -0.10564273723E+03  0.19561283802E+03  0.12500000000E+03 0.  0.
         25    1    1    2    0    0 -0.11102858204E+03 -0.46981997733E+02 -0.51405597489E+03  0.54259856198E+03  0.12500000000E+03 0.  0.
         25    1    1    2    0    0  0.12668918187E+03 -0.59007341738E+02 -0.13968257297E+03  0.23381239568E+03  0.12500000000E+03 0.  0.
</event>
<event>
 5    0  0.5452999E-005  0.3332743E+03  0.7546771E-02  0.1069697E+00
         21   -1    0    0  502  501  0.00000000000E+00  0.00000000000E+00  0.39575234841E+03  0.39575234841E+03  0.00000000000E+00 0. -1.
         21   -1    0    0  501  502 -0.00000000000E+00 -0.00000000000E+00 -0.28065968600E+03  0.28065968600E+03  0.00000000000E+00 0. -1.
         25    1    1    2    0    0  0.75162829552E+02 -0.14302606929E+03  0.20599493316E+03  0.29011173698E+03  0.12500000000E+03 0.  0.
         25    1    1    2    0    0 -0.10034384494E+03 -0.19856794934E+02 -0.30138722478E+01  0.16154647303E+03  0.12500000000E+03 0.  0.
         25    1    1    2    0    0  0.25181015391E+02  0.16288286422E+03 -0.87888398497E+02  0.22475382440E+03  0.12500000000E+03 0.  0.
</event>
<event>
 5    0  0.5452999E-005  0.2900324E+03  0.7546771E-02  0.1090332E+00
         21   -1    0    0  502  501  0.00000000000E+00  0.00000000000E+00  0.11292257502E+03  0.11292257502E+03  0.00000000000E+00 0.  1.
         21   -1    0    0  501  502 -0.00000000000E+00 -0.00000000000E+00 -0.74492464826E+03  0.74492464826E+03  0.00000000000E+00 0.  1.
         25    1    1    2    0    0 -0.88450521099E+02 -0.10930296955E+03 -0.42565073556E+03  0.46537531361E+03  0.12500000000E+03 0.  0.
         25    1    1    2    0    0  0.11635469270E+03  0.96646753955E+02 -0.79355258163E+02  0.21166309683E+03  0.12500000000E+03 0.  0.
         25    1    1    2    0    0 -0.27904171598E+02  0.12656215596E+02 -0.12699607952E+03  0.18080881283E+03  0.12500000000E+03 0.  0.
</event>
<event>
 5    0  0.5452999E-005  0.3729188E+03  0.7546771E-02  0.1053582E+00
         21   -1    0    0  502  501  0.00000000000E+00  0.00000000000E+00  0.13122746720E+04  0.13122746720E+04  0.00000000000E+00 0. -1.
         21   -1    0    0  501  502 -0.00000000000E+00 -0.00000000000E+00 -0.10597509542E+03  0.10597509542E+03  0.00000000000E+00 0. -1.
         25    1    1    2    0    0  0.81247621478E+02 -0.29862573144E+02  0.78242365625E+03  0.79706005240E+03  0.12500000000E+03 0.  0.
         25    1    1    2    0    0 -0.22846435645E+02  0.11789539185E+02  0.46004485370E+03  0.47741723919E+03  0.12500000000E+03 0.  0.
         25    1    1    2    0    0 -0.58401185833E+02  0.18073033960E+02 -0.36168933388E+02  0.14377247583E+03  0.12500000000E+03 0.  0.
</event>
<event>
 5    0  0.5452999E-005  0.2661517E+03  0.7546771E-02  0.1103502E+00
         21   -1    0    0  502  501  0.00000000000E+00  0.00000000000E+00  0.15044441104E+03  0.15044441104E+03  0.00000000000E+00 0. -1.
         21   -1    0    0  501  502 -0.00000000000E+00 -0.00000000000E+00 -0.47084987596E+03  0.47084987596E+03  0.00000000000E+00 0. -1.
         25    1    1    2    0    0  0.62422975736E+02  0.35857140981E+02 -0.12449494484E+03  0.19054226237E+03  0.12500000000E+03 0.  0.
         25    1    1    2    0    0 -0.16638947356E+03 -0.57090282300E+02 -0.80875387319E+02  0.23045733991E+03  0.12500000000E+03 0.  0.
         25    1    1    2    0    0  0.10396649782E+03  0.21233141319E+02 -0.11503513276E+03  0.20029468472E+03  0.12500000000E+03 0.  0.
</event>
<event>
 5    0  0.5452999E-005  0.2643622E+03  0.7546771E-02  0.1104550E+00
         21   -1    0    0  502  501  0.00000000000E+00  0.00000000000E+00  0.25576688059E+03  0.25576688059E+03  0.00000000000E+00 0.  1.
         21   -1    0    0  501  502 -0.00000000000E+00 -0.00000000000E+00 -0.27324629504E+03  0.27324629504E+03  0.00000000000E+00 0.  1.
         25    1    1    2    0    0  0.99606418363E+02 -0.91869062385E+02  0.13059768028E+02  0.18481591042E+03  0.12500000000E+03 0.  0.
         25    1    1    2    0    0 -0.26706082777E+02 -0.50222621030E+02  0.87908452943E+01  0.13761469937E+03  0.12500000000E+03 0.  0.
         25    1    1    2    0    0 -0.72900335586E+02  0.14209168342E+03 -0.39330027771E+02  0.20658256584E+03  0.12500000000E+03 0.  0.
</event>
<event>
 5    0  0.5452999E-005  0.4016393E+03  0.7546771E-02  0.1043214E+00
         21   -1    0    0  502  501  0.00000000000E+00  0.00000000000E+00  0.54833993064E+03  0.54833993064E+03  0.00000000000E+00 0.  1.
         21   -1    0    0  501  502 -0.00000000000E+00 -0.00000000000E+00 -0.29418633178E+03  0.29418633178E+03  0.00000000000E+00 0.  1.
         25    1    1    2    0    0  0.20245523944E+03  0.48826928656E+02  0.10660877960E+02  0.24312722443E+03  0.12500000000E+03 0.  0.
         25    1    1    2    0    0 -0.30295328192E+03 -0.30614482159E+02  0.28201469046E+03  0.43344575575E+03  0.12500000000E+03 0.  0.
         25    1    1    2    0    0  0.10049804248E+03 -0.18212446497E+02 -0.38521969557E+02  0.16595328225E+03  0.12500000000E+03 0.  0.
</event>
<event>
 5    0  0.5452999E-005  0.3168778E+03  0.7546771E-02  0.1077095E+00
         21   -1    0    0  502  501  0.00000000000E+00  0.00000000000E+00  0.98017029255E+03  0.98017029255E+03  0.00000000000E+00 0.  1.
         21   -1    0    0  501  502 -0.00000000000E+00 -0.00000000000E+00 -0.10244294794E+03  0.10244294794E+03  0.00000000000E+00 0.  1.
         25    1    1    2    0    0  0.19407603298E+02 -0.12100968016E+02  0.42686113100E+02  0.13405294754E+03  0.12500000000E+03 0.  0.
         25    1    1    2    0    0 -0.15042507448E+02  0.45511660944E+01  0.24441715750E+02  0.12833311191E+03  0.12500000000E+03 0.  0.
         25    1    1    2    0    0 -0.43650958498E+01  0.75498019214E+01  0.81059951575E+03  0.82022718104E+03  0.12500000000E+03 0.  0.
</event>
<event>
 5    0  0.5452999E-005  0.7342001E+03  0.7546771E-02  0.9660469E-01
         21   -1    0    0  502  501  0.00000000000E+00  0.00000000000E+00  0.31533129095E+03  0.31533129095E+03  0.00000000000E+00 0. -1.
         21   -1    0    0  501  502 -0.00000000000E+00 -0.00000000000E+00 -0.17094713595E+04  0.17094713595E+04  0.00000000000E+00 0. -1.
         25    1    1    2    0    0 -0.62332281851E+01 -0.35973960701E+03 -0.13043324705E+04  0.13588081659E+04  0.12500000000E+03 0.  0.
         25    1    1    2    0    0  0.53321749480E+02 -0.10777188630E+03 -0.31661187775E+02  0.17631057613E+03  0.12500000000E+03 0.  0.
         25    1    1    2    0    0 -0.47088521295E+02  0.46751149331E+03 -0.58146410318E+02  0.48968390850E+03  0.12500000000E+03 0.  0.
</event>
<event>
 5    0  0.5452999E-005  0.3974342E+03  0.7546771E-02  0.1044672E+00
         21   -1    0    0  502  501  0.00000000000E+00  0.00000000000E+00  0.18767231210E+03  0.18767231210E+03  0.00000000000E+00 0. -1.
         21   -1    0    0  501  502 -0.00000000000E+00 -0.00000000000E+00 -0.84164752116E+03  0.84164752116E+03  0.00000000000E+00 0. -1.
         25    1    1    2    0    0 -0.47957481353E+02  0.17608783286E+01 -0.15493914039E+03  0.20477831412E+03  0.12500000000E+03 0.  0.
         25    1    1    2    0    0 -0.52835915999E+02 -0.25921315379E+03 -0.41845440261E+03  0.51059982391E+03  0.12500000000E+03 0.  0.
         25    1    1    2    0    0  0.10079339735E+03  0.25745227546E+03 -0.80581666065E+02  0.31394169522E+03  0.12500000000E+03 0.  0.
</event>
<event>
 5    0  0.5452999E-005  0.3172818E+03  0.7546771E-02  0.1076907E+00
         21   -1    0    0  502  501  0.00000000000E+00  0.00000000000E+00  0.46739393314E+02  0.46739393314E+02  0.00000000000E+00 0. -1.
         21   -1    0    0  501  502 -0.00000000000E+00 -0.00000000000E+00 -0.21538098885E+04  0.21538098885E+04  0.00000000000E+00 0. -1.
         25    1    1    2    0    0  0.24126641724E+02  0.46982758780E+02 -0.10794274586E+04  0.10879237625E+04  0.12500000000E+03 0.  0.
         25    1    1    2    0    0 -0.53810925079E+02  0.83102260550E+02 -0.15986243043E+03  0.22579326391E+03  0.12500000000E+03 0.  0.
         25    1    1    2    0    0  0.29684283355E+02 -0.13008501933E+03 -0.86778060611E+03  0.88683225543E+03  0.12500000000E+03 0.  0.
</event>
<event>
 5    0  0.5452999E-005  0.3116439E+03  0.7546771E-02  0.1079561E+00
         21   -1    0    0  502  501  0.00000000000E+00  0.00000000000E+00  0.21578452181E+04  0.21578452181E+04  0.00000000000E+00 0.  1.
         21   -1    0    0  501  502 -0.00000000000E+00 -0.00000000000E+00 -0.45008756023E+02  0.45008756023E+02  0.00000000000E+00 0.  1.
         25    1    1    2    0    0 -0.13344523418E+03 -0.12372536665E+03  0.76597274231E+03  0.79715421271E+03  0.12500000000E+03 0.  0.
         25    1    1    2    0    0  0.38436092073E+02  0.46565822930E+02  0.18795856434E+03  0.23366456930E+03  0.12500000000E+03 0.  0.
         25    1    1    2    0    0  0.95009142109E+02  0.77159543715E+02  0.11589051554E+04  0.11720351921E+04  0.12500000000E+03 0.  0.
</event>
<event>
 5    0  0.5452999E-005  0.4645267E+03  0.7546771E-02  0.1023476E+00
         21   -1    0    0  502  501  0.00000000000E+00  0.00000000000E+00  0.91005577052E+03  0.91005577052E+03  0.00000000000E+00 0. -1.
         21   -1    0    0  501  502 -0.00000000000E+00 -0.00000000000E+00 -0.23711194140E+03  0.23711194140E+03  0.00000000000E+00 0. -1.
         25    1    1    2    0    0  0.35318163575E+03  0.30364606926E+02  0.25697380009E+03  0.45532385301E+03  0.12500000000E+03 0.  0.
         25    1    1    2    0    0 -0.20297431444E+03  0.88545133446E+02  0.48323115382E+02  0.25884152769E+03  0.12500000000E+03 0.  0.
         25    1    1    2    0    0 -0.15020732132E+03 -0.11890974037E+03  0.36764691364E+03  0.43300233122E+03  0.12500000000E+03 0.  0.
</event>
<event>
 5    0  0.5452999E-005  0.2693514E+03  0.7546771E-02  0.1101651E+00
         21   -1    0    0  502  501  0.00000000000E+00  0.00000000000E+00  0.67293260874E+03  0.67293260874E+03  0.00000000000E+00 0.  1.
         21   -1    0    0  501  502 -0.00000000000E+00 -0.00000000000E+00 -0.10781191630E+03  0.10781191630E+03  0.00000000000E+00 0.  1.
         25    1    1    2    0    0 -0.17386045115E+02 -0.19833109307E+02  0.27589723557E+03  0.30403932539E+03  0.12500000000E+03 0.  0.
         25    1    1    2    0    0  0.61011288897E+02  0.14122949700E+03  0.16975365300E+03  0.26097787435E+03  0.12500000000E+03 0.  0.
         25    1    1    2    0    0 -0.43625243782E+02 -0.12139638769E+03  0.11946980387E+03  0.21572732529E+03  0.12500000000E+03 0.  0.
</event>
<event>
 5    0  0.5452999E-005  0.2383449E+03  0.7546771E-02  0.1120900E+00
         21   -1    0    0  502  501  0.00000000000E+00  0.00000000000E+00  0.50546654065E+02  0.50546654065E+02  0.00000000000E+00 0. -1.
         21   -1    0    0  501  502 -0.00000000000E+00 -0.00000000000E+00 -0.11238780773E+04  0.11238780773E+04  0.00000000000E+00 0. -1.
         25    1    1    2    0    0 -0.28612185550E+02 -0.91130550625E+02 -0.18044686922E+03  0.23939404134E+03  0.12500000000E+03 0.  0.
         25    1    1    2    0    0  0.40475251145E+02  0.27303324354E+02 -0.49854764581E+03  0.51629301043E+03  0.12500000000E+03 0.  0.
         25    1    1    2    0    0 -0.11863065595E+02  0.63827226271E+02 -0.39433690823E+03  0.41873767962E+03  0.12500000000E+03 0.  0.
</event>
<event>
 5    0  0.5452999E-005  0.2426733E+03  0.7546771E-02  0.1118025E+00
         21   -1    0    0  502  501  0.00000000000E+00  0.00000000000E+00  0.20568618423E+03  0.20568618423E+03  0.00000000000E+00 0. -1.
         21   -1    0    0  501  502 -0.00000000000E+00 -0.00000000000E+00 -0.28631158436E+03  0.28631158436E+03  0.00000000000E+00 0. -1.
         25    1    1    2    0    0  0.52239723573E+02  0.71708416607E+02  0.36828197126E+02  0.15764644568E+03  0.12500000000E+03 0.  0.
         25    1    1    2    0    0  0.13280379006E+01 -0.18957720872E+02  0.26752223626E+02  0.12923560010E+03  0.12500000000E+03 0.  0.
         25    1    1    2    0    0 -0.53567761474E+02 -0.52750695735E+02 -0.14420582088E+03  0.20511572282E+03  0.12500000000E+03 0.  0.
</event>
<event>
 5    0  0.5452999E-005  0.3228757E+03  0.7546771E-02  0.1074333E+00
         21   -1    0    0  502  501  0.00000000000E+00  0.00000000000E+00  0.72413866289E+02  0.72413866289E+02  0.00000000000E+00 0. -1.
         21   -1    0    0  501  502 -0.00000000000E+00 -0.00000000000E+00 -0.14396239668E+04  0.14396239668E+04  0.00000000000E+00 0. -1.
         25    1    1    2    0    0 -0.13359530316E+03  0.22121261031E+02 -0.32920217450E+03  0.37727460412E+03  0.12500000000E+03 0.  0.
         25    1    1    2    0    0  0.15541158166E+03  0.84623552144E+02 -0.25601955947E+03  0.33538771612E+03  0.12500000000E+03 0.  0.
         25    1    1    2    0    0 -0.21816278493E+02 -0.10674481317E+03 -0.78198836650E+03  0.79937551281E+03  0.12500000000E+03 0.  0.
</event>
<event>
 5    0  0.5452999E-005  0.2970541E+03  0.7546771E-02  0.1086723E+00
         21   -1    0    0  502  501  0.00000000000E+00  0.00000000000E+00  0.10732820824E+04  0.10732820824E+04  0.00000000000E+00 0. -1.
         21   -1    0    0  501  502 -0.00000000000E+00 -0.00000000000E+00 -0.82216143883E+02  0.82216143883E+02  0.00000000000E+00 0. -1.
         25    1    1    2    0    0 -0.16733797419E+03  0.17822539946E+02  0.41988539824E+03  0.46930628399E+03  0.12500000000E+03 0.  0.
         25    1    1    2    0    0  0.17224758289E+03 -0.95239236474E+02  0.34891576705E+03  0.41965099127E+03  0.12500000000E+03 0.  0.
         25    1    1    2    0    0 -0.49096086992E+01  0.77416696528E+02  0.22226477323E+03  0.26654095104E+03  0.12500000000E+03 0.  0.
</event>
<event>
 5    0  0.5452999E-005  0.3836803E+03  0.7546771E-02  0.1049582E+00
         21   -1    0    0  502  501  0.00000000000E+00  0.00000000000E+00  0.11847527688E+04  0.11847527688E+04  0.00000000000E+00 0. -1.
         21   -1    0    0  501  502 -0.00000000000E+00 -0.00000000000E+00 -0.12425424918E+03  0.12425424918E+03  0.00000000000E+00 0. -1.
         25    1    1    2    0    0  0.58872571384E+02  0.10102586572E+03  0.22423762020E+03  0.28209876909E+03  0.12500000000E+03 0.  0.
         25    1    1    2    0    0 -0.19577883701E+03 -0.26165782387E+03  0.51777186196E+03  0.62490548953E+03  0.12500000000E+03 0.  0.
         25    1    1    2    0    0  0.13690626562E+03  0.16063195816E+03  0.31848903741E+03  0.40200275932E+03  0.12500000000E+03 0.  0.
</event>
<event>
 5    0  0.5452999E-005  0.2813285E+03  0.7546771E-02  0.1094966E+00
         21   -1    0    0  502  501  0.00000000000E+00  0.00000000000E+00  0.54606254644E+03  0.54606254644E+03  0.00000000000E+00 0. -1.
         21   -1    0    0  501  502 -0.00000000000E+00 -0.00000000000E+00 -0.14493896975E+03  0.14493896975E+03  0.00000000000E+00 0. -1.
         25    1    1    2    0    0  0.30713067650E+02 -0.15942909106E+03  0.16311645033E+03  0.26190247034E+03  0.12500000000E+03 0.  0.
         25    1    1    2    0    0 -0.25229353035E+02 -0.28465307309E+02  0.99750843144E+02  0.16438377256E+03  0.12500000000E+03 0.  0.
         25    1    1    2    0    0 -0.54837146148E+01  0.18789439836E+03  0.13825628321E+03  0.26471527328E+03  0.12500000000E+03 0.  0.
</event>
<event>
 5    0  0.5452999E-005  0.3247501E+03  0.7546771E-02  0.1073484E+00
         21   -1    0    0  502  501  0.00000000000E+00  0.00000000000E+00  0.85815062962E+03  0.85815062962E+03  0.00000000000E+00 0. -1.
         21   -1    0    0  501  502 -0.00000000000E+00 -0.00000000000E+00 -0.12289520892E+03  0.12289520892E+03  0.00000000000E+00 0. -1.
         25    1    1    2    0    0  0.13890787852E+03  0.19226429937E+02  0.12614825656E+03  0.22628176452E+03  0.12500000000E+03 0.  0.
         25    1    1    2    0    0 -0.24363239059E+03  0.21927179990E+02  0.33571168297E+03  0.43377975638E+03  0.12500000000E+03 0.  0.
         25    1    1    2    0    0  0.10472451207E+03 -0.41153609927E+02  0.27339548118E+03  0.32098431764E+03  0.12500000000E+03 0.  0.
</event>
<event>
 5    0  0.5452999E-005  0.3220519E+03  0.7546771E-02  0.1074709E+00
         21   -1    0    0  502  501  0.00000000000E+00  0.00000000000E+00  0.24774727324E+03  0.24774727324E+03  0.00000000000E+00 0. -1.
         21   -1    0    0  501  502 -0.00000000000E+00 -0.00000000000E+00 -0.41864196963E+03  0.41864196963E+03  0.00000000000E+00 0. -1.
         25    1    1    2    0    0 -0.66895480838E+02 -0.15514601328E+03 -0.18185220111E+03  0.27792177648E+03  0.12500000000E+03 0.  0.
         25    1    1    2    0    0 -0.72414777279E+02  0.39727273038E+02 -0.53872324642E+02  0.15921489740E+03  0.12500000000E+03 0.  0.
         25    1    1    2    0    0  0.13931025812E+03  0.11541874024E+03  0.64829829357E+02  0.22925256899E+03  0.12500000000E+03 0.  0.
</event>
<event>
 5    0  0.5452999E-005  0.3574293E+03  0.7546771E-02  0.1059606E+00
         21   -1    0    0  502  501  0.00000000000E+00  0.00000000000E+00  0.11619525520E+04  0.11619525520E+04  0.00000000000E+00 0. -1.
         21   -1    0    0  501  502 -0.00000000000E+00 -0.00000000000E+00 -0.10994917440E+03  0.10994917440E+03  0.00000000000E+00 0. -1.
         25    1    1    2    0    0 -0.24233812326E+03  0.45226598022E+02  0.31978984835E+03  0.42268635921E+03  0.12500000000E+03 0.  0.
         25    1    1    2    0    0  0.51727948800E+02  0.76865793153E+02  0.17039093173E+03  0.23074271485E+03  0.12500000000E+03 0.  0.
         25    1    1    2    0    0  0.19061017446E+03 -0.12209239117E+03  0.56182259757E+03  0.61847265237E+03  0.12500000000E+03 0.  0.
</event>
<event>
 5    0  0.5452999E-005  0.5506111E+03  0.7546771E-02  0.1001353E+00
         21   -1    0    0  502  501  0.00000000000E+00  0.00000000000E+00  0.16628898224E+04  0.16628898224E+04  0.00000000000E+00 0. -1.
         21   -1    0    0  501  502 -0.00000000000E+00 -0.00000000000E+00 -0.18231668167E+03  0.18231668167E+03  0.00000000000E+00 0. -1.
         25    1    1    2    0    0  0.88496090591E+02 -0.16110188828E+03  0.24731039844E+03  0.33252490077E+03  0.12500000000E+03 0.  0.
         25    1    1    2    0    0  0.16192444212E+03 -0.28160518770E+03  0.42176186947E+03  0.54683551570E+03  0.12500000000E+03 0.  0.
         25    1    1    2    0    0 -0.25042053271E+03  0.44270707598E+03  0.81150087282E+03  0.96584608759E+03  0.12500000000E+03 0.  0.
</event>
<event>
 5    0  0.5452999E-005  0.4164381E+03  0.7546771E-02  0.1038232E+00
         21   -1    0    0  502  501  0.00000000000E+00  0.00000000000E+00  0.35645663717E+03  0.35645663717E+03  0.00000000000E+00 0.  1.
         21   -1    0    0  501  502 -0.00000000000E+00 -0.00000000000E+00 -0.48651278923E+03  0.48651278923E+03  0.00000000000E+00 0.  1.
         25    1    1    2    0    0  0.17208224432E+03  0.53549808243E+02  0.35964011863E+02  0.22225726293E+03  0.12500000000E+03 0.  0.
         25    1    1    2    0    0  0.78287397115E+02 -0.17322070680E+01 -0.27813633250E+03  0.31482810635E+03  0.12500000000E+03 0.  0.
         25    1    1    2    0    0 -0.25036964144E+03 -0.51817601175E+02  0.11211616858E+03  0.30588405713E+03  0.12500000000E+03 0.  0.
</event>
<event>
 5    0  0.5452999E-005  0.2744366E+03  0.7546771E-02  0.1098767E+00
         21   -1    0    0  502  501  0.00000000000E+00  0.00000000000E+00  0.41422537179E+03  0.41422537179E+03  0.00000000000E+00 0.  1.
         21   -1    0    0  501  502 -0.00000000000E+00 -0.00000000000E+00 -0.18182233573E+03  0.18182233573E+03  0.00000000000E+00 0.  1.
         25    1    1    2    0    0 -0.42067449950E+02 -0.30055629147E+02 -0.20373558995E+02  0.13679580803E+03  0.12500000000E+03 0.  0.
         25    1    1    2    0    0  0.11594030642E+03  0.62370912094E+02  0.19500629478E+02  0.18258576034E+03  0.12500000000E+03 0.  0.
         25    1    1    2    0    0 -0.73872856473E+02 -0.32315282947E+02  0.23327596558E+03  0.27666613915E+03  0.12500000000E+03 0.  0.
</event>
<event>
 5    0  0.5452999E-005  0.7989192E+03  0.7546771E-02  0.9561583E-01
         21   -1    0    0  502  501  0.00000000000E+00  0.00000000000E+00  0.13110257052E+04  0.13110257052E+04  0.00000000000E+00 0.  1.
         21   -1    0    0  501  502 -0.00000000000E+00 -0.00000000000E+00 -0.48684921517E+03  0.48684921517E+03  0.00000000000E+00 0.  1.
         25    1    1    2    0    0 -0.49087802504E+00 -0.39831088204E+02  0.91986910624E+03  0.92917755524E+03  0.12500000000E+03 0.  0.
         25    1    1    2    0    0  0.18203187836E+03 -0.24864382734E+03  0.21067440097E+03  0.39365982883E+03  0.12500000000E+03 0.  0.
         25    1    1    2    0    0 -0.18154100033E+03  0.28847491554E+03 -0.30636701716E+03  0.47503753631E+03  0.12500000000E+03 0.  0.
</event>
<event>
 5    0  0.6376241E-005  0.4172278E+03  0.7546771E-02  0.1037972E+00
         21   -1    0    0  502  501  0.00000000000E+00  0.00000000000E+00  0.81660545295E+03  0.81660545295E+03  0.00000000000E+00 0. -1.
         21   -1    0    0  501  502 -0.00000000000E+00 -0.00000000000E+00 -0.21317395912E+03  0.21317395912E+03  0.00000000000E+00 0. -1.
         25    1    1    2    0    0 -0.55236246773E+01 -0.26529590953E+03  0.34842068676E+03  0.45544967340E+03  0.12500000000E+03 0.  0.
         25    1    1    2    0    0  0.15427012775E+03  0.14357285185E+03  0.24246382841E+03  0.34471168271E+03  0.12500000000E+03 0.  0.
         25    1    1    2    0    0 -0.14874650308E+03  0.12172305767E+03  0.12546978664E+02  0.22961805595E+03  0.12500000000E+03 0.  0.
</event>
<event>
 5    0  0.5452999E-005  0.4871464E+03  0.7546771E-02  0.1017189E+00
         21   -1    0    0  502  501  0.00000000000E+00  0.00000000000E+00  0.52457736484E+03  0.52457736484E+03  0.00000000000E+00 0.  1.
         21   -1    0    0  501  502 -0.00000000000E+00 -0.00000000000E+00 -0.45238626557E+03  0.45238626557E+03  0.00000000000E+00 0.  1.
         25    1    1    2    0    0 -0.21630582398E+02  0.44667000714E+02 -0.16767105222E+02  0.13553287005E+03  0.12500000000E+03 0.  0.
         25    1    1    2    0    0  0.23965640944E+03 -0.44301176432E+02  0.37261582533E+03  0.46245577313E+03  0.12500000000E+03 0.  0.
         25    1    1    2    0    0 -0.21802582704E+03 -0.36582428231E+00 -0.28365762084E+03  0.37897498723E+03  0.12500000000E+03 0.  0.
</event>
<event>
 5    0  0.5452999E-005  0.2766644E+03  0.7546771E-02  0.1097525E+00
         21   -1    0    0  502  501  0.00000000000E+00  0.00000000000E+00  0.79333323661E+03  0.79333323661E+03  0.00000000000E+00 0.  1.
         21   -1    0    0  501  502 -0.00000000000E+00 -0.00000000000E+00 -0.96483014118E+02  0.96483014118E+02  0.00000000000E+00 0.  1.
         25    1    1    2    0    0  0.10972050296E+02  0.30598820431E+02  0.23160220868E+02  0.13121764184E+03  0.12500000000E+03 0.  0.
         25    1    1    2    0    0  0.46674756254E+02 -0.21712885034E+02  0.98928553194E+02  0.16751668838E+03  0.12500000000E+03 0.  0.
         25    1    1    2    0    0 -0.57646806551E+02 -0.88859353971E+01  0.57476144843E+03  0.59108192051E+03  0.12500000000E+03 0.  0.
</event>
<event>
 5    0  0.5452999E-005  0.3661021E+03  0.7546771E-02  0.1056193E+00
         21   -1    0    0  502  501  0.00000000000E+00  0.00000000000E+00  0.34428855559E+03  0.34428855559E+03  0.00000000000E+00 0. -1.
         21   -1    0    0  501  502 -0.00000000000E+00 -0.00000000000E+00 -0.38929761968E+03  0.38929761968E+03  0.00000000000E+00 0. -1.
         25    1    1    2    0    0 -0.65475285131E+02 -0.28947011028E+02  0.18861666552E+03  0.23733139051E+03  0.12500000000E+03 0.  0.
         25    1    1    2    0    0  0.89423334425E+01  0.18911975886E+03 -0.12500284974E+03  0.25903081083E+03  0.12500000000E+03 0.  0.
         25    1    1    2    0    0  0.56532951688E+02 -0.16017274783E+03 -0.10862287988E+03  0.23722397393E+03  0.12500000000E+03 0.  0.
</event>
<event>
 5    0  0.5452999E-005  0.2900985E+03  0.7546771E-02  0.1090298E+00
         21   -1    0    0  502  501  0.00000000000E+00  0.00000000000E+00  0.83490840469E+02  0.83490840469E+02  0.00000000000E+00 0.  1.
         21   -1    0    0  501  502 -0.00000000000E+00 -0.00000000000E+00 -0.10079804440E+04  0.10079804440E+04  0.00000000000E+00 0.  1.
         25    1    1    2    0    0 -0.27273535599E+02  0.23182461742E+02 -0.56004654034E+03  0.57494208372E+03  0.12500000000E+03 0.  0.
         25    1    1    2    0    0  0.13822647783E+03 -0.30525115901E+02 -0.13313249475E+03  0.23105757514E+03  0.12500000000E+03 0.  0.
         25    1    1    2    0    0 -0.11095294223E+03  0.73426541592E+01 -0.23131056848E+03  0.28547162565E+03  0.12500000000E+03 0.  0.
</event>
<event>
 5    0  0.5452999E-005  0.2516150E+03  0.7546771E-02  0.1112288E+00
         21   -1    0    0  502  501  0.00000000000E+00  0.00000000000E+00  0.17010373102E+03  0.17010373102E+03  0.00000000000E+00 0.  1.
         21   -1    0    0  501  502 -0.00000000000E+00 -0.00000000000E+00 -0.37218531467E+03  0.37218531467E+03  0.00000000000E+00 0.  1.
         25    1    1    2    0    0 -0.28456000855E+02  0.38420849973E+02 -0.18798408343E+02  0.13514542483E+03  0.12500000000E+03 0.  0.
         25    1    1    2    0    0 -0.33165506913E+02 -0.57164209390E+00  0.45073344091E+02  0.13695577378E+03  0.12500000000E+03 0.  0.
         25    1    1    2    0    0  0.61621507768E+02 -0.37849207879E+02 -0.22835651940E+03  0.27018784708E+03  0.12500000000E+03 0.  0.
</event>
<event>
 5    0  0.5452999E-005  0.4532928E+03  0.7546771E-02  0.1026745E+00
         21   -1    0    0  502  501  0.00000000000E+00  0.00000000000E+00  0.19974935630E+04  0.19974935630E+04  0.00000000000E+00 0.  1.
         21   -1    0    0  501  502 -0.00000000000E+00 -0.00000000000E+00 -0.10286611396E+03  0.10286611396E+03  0.00000000000E+00 0.  1.
         25    1    1    2    0    0  0.18273109373E+02  0.17722098382E+03  0.25894743626E+03  0.33826019331E+03  0.12500000000E+03 0.  0.
         25    1    1    2    0    0 -0.14474527507E+03 -0.82509009371E+02  0.13557270289E+03  0.24852341751E+03  0.12500000000E+03 0.  0.
         25    1    1    2    0    0  0.12647216569E+03 -0.94711974453E+02  0.15001073099E+04  0.15135760661E+04  0.12500000000E+03 0.  0.
</event>
<event>
 5    0  0.5452999E-005  0.2727892E+03  0.7546771E-02  0.1099694E+00
         21   -1    0    0  502  501  0.00000000000E+00  0.00000000000E+00  0.76666741925E+03  0.76666741925E+03  0.00000000000E+00 0.  1.
         21   -1    0    0  501  502 -0.00000000000E+00 -0.00000000000E+00 -0.97061553183E+02  0.97061553183E+02  0.00000000000E+00 0.  1.
         25    1    1    2    0    0 -0.17414110704E+02  0.13236898174E+03  0.40335571961E+03  0.44288331999E+03  0.12500000000E+03 0.  0.
         25    1    1    2    0    0 -0.71019290108E+01 -0.37226275451E+02  0.21897811094E+03  0.25497577542E+03  0.12500000000E+03 0.  0.
         25    1    1    2    0    0  0.24516039715E+02 -0.95142706291E+02  0.47272035518E+02  0.16586987703E+03  0.12500000000E+03 0.  0.
</event>
<event>
 5    0  0.5452999E-005  0.2192011E+03  0.7546771E-02  0.1134480E+00
         21   -1    0    0  502  501  0.00000000000E+00  0.00000000000E+00  0.50591825854E+03  0.50591825854E+03  0.00000000000E+00 0.  1.
         21   -1    0    0  501  502 -0.00000000000E+00 -0.00000000000E+00 -0.94974056735E+02  0.94974056735E+02  0.00000000000E+00 0.  1.
         25    1    1    2    0    0 -0.71846727561E+02  0.15353307853E+02  0.13049234037E+03  0.19506646872E+03  0.12500000000E+03 0.  0.
         25    1    1    2    0    0  0.31885391108E+02  0.49402999137E+02  0.18587083835E+03  0.23158217341E+03  0.12500000000E+03 0.  0.
         25    1    1    2    0    0  0.39961336453E+02 -0.64756306990E+02  0.94581023087E+02  0.17424367315E+03  0.12500000000E+03 0.  0.
</event>
<event>
 5    0  0.5452999E-005  0.3256555E+03  0.7546771E-02  0.1073076E+00
         21   -1    0    0  502  501  0.00000000000E+00  0.00000000000E+00  0.22909978951E+03  0.22909978951E+03  0.00000000000E+00 0.  1.
         21   -1    0    0  501  502 -0.00000000000E+00 -0.00000000000E+00 -0.46290535631E+03  0.46290535631E+03  0.00000000000E+00 0.  1.
         25    1    1    2    0    0 -0.17774830918E+03 -0.78754053723E+02 -0.26489917850E+03  0.35155829838E+03  0.12500000000E+03 0.  0.
         25    1    1    2    0    0  0.15634061845E+03  0.60372678186E+02  0.36269005791E+02  0.21219729035E+03  0.12500000000E+03 0.  0.
         25    1    1    2    0    0  0.21407690727E+02  0.18381375537E+02 -0.51753940911E+01  0.12824955709E+03  0.12500000000E+03 0.  0.
</event>
<event>
 5    0  0.5452999E-005  0.2818217E+03  0.7546771E-02  0.1094698E+00
         21   -1    0    0  502  501  0.00000000000E+00  0.00000000000E+00  0.66475174998E+03  0.66475174998E+03  0.00000000000E+00 0.  1.
         21   -1    0    0  501  502 -0.00000000000E+00 -0.00000000000E+00 -0.11947837515E+03  0.11947837515E+03  0.00000000000E+00 0.  1.
         25    1    1    2    0    0  0.89655214862E+02  0.79726135187E+02  0.38010991190E+03  0.41773539389E+03  0.12500000000E+03 0.  0.
         25    1    1    2    0    0 -0.88040462715E+02 -0.27494922062E+01  0.10543311325E+02  0.15328027987E+03  0.12500000000E+03 0.  0.
         25    1    1    2    0    0 -0.16147521469E+01 -0.76976642980E+02  0.15462015161E+03  0.21321445137E+03  0.12500000000E+03 0.  0.
</event>
<event>
 5    0  0.5452999E-005  0.2576941E+03  0.7546771E-02  0.1108537E+00
         21   -1    0    0  502  501  0.00000000000E+00  0.00000000000E+00  0.96123935590E+02  0.96123935590E+02  0.00000000000E+00 0. -1.
         21   -1    0    0  501  502 -0.00000000000E+00 -0.00000000000E+00 -0.69083993291E+03  0.69083993291E+03  0.00000000000E+00 0.  1.
         25    1    1    2    0    0 -0.42182764854E+02  0.85562123540E+02 -0.19689691377E+03  0.25197947791E+03  0.12500000000E+03 0.  0.
         25    1    1    2    0    0 -0.60234566240E+02  0.38745856724E+02 -0.10538345362E+03  0.17849402421E+03  0.12500000000E+03 0.  0.
         25    1    1    2    0    0  0.10241733109E+03 -0.12430798026E+03 -0.29243562992E+03  0.35649036637E+03  0.12500000000E+03 0.  0.
</event>
<event>
 5    0  0.5452999E-005  0.4337329E+03  0.7546771E-02  0.1032687E+00
         21   -1    0    0  502  501  0.00000000000E+00  0.00000000000E+00  0.30524099087E+03  0.30524099087E+03  0.00000000000E+00 0.  1.
         21   -1    0    0  501  502 -0.00000000000E+00 -0.00000000000E+00 -0.61631390695E+03  0.61631390695E+03  0.00000000000E+00 0.  1.
         25    1    1    2    0    0 -0.20400028219E+01 -0.47881723179E+02 -0.21220427987E+03  0.25090332286E+03  0.12500000000E+03 0.  0.
         25    1    1    2    0    0 -0.18102219959E+03 -0.37002630071E+02 -0.29001907599E+03  0.36588836524E+03  0.12500000000E+03 0.  0.
         25    1    1    2    0    0  0.18306220241E+03  0.84884353249E+02  0.19115043978E+03  0.30476320973E+03  0.12500000000E+03 0.  0.
</event>
<event>
 5    0  0.5452999E-005  0.3304281E+03  0.7546771E-02  0.1070948E+00
         21   -1    0    0  502  501  0.00000000000E+00  0.00000000000E+00  0.13695697544E+03  0.13695697544E+03  0.00000000000E+00 0. -1.
         21   -1    0    0  501  502 -0.00000000000E+00 -0.00000000000E+00 -0.79720458359E+03  0.79720458359E+03  0.00000000000E+00 0. -1.
         25    1    1    2    0    0 -0.10649272144E+03 -0.19925207041E+03 -0.24528293826E+03  0.35613313112E+03  0.12500000000E+03 0.  0.
         25    1    1    2    0    0  0.10211629740E+03  0.48300303797E+01 -0.23464218285E+03  0.28483858826E+03  0.12500000000E+03 0.  0.
         25    1    1    2    0    0  0.43764240440E+01  0.19442204003E+03 -0.18032248704E+03  0.29318983964E+03  0.12500000000E+03 0.  0.
</event>
<event>
 5    0  0.5452999E-005  0.3140373E+03  0.7546771E-02  0.1078427E+00
         21   -1    0    0  502  501  0.00000000000E+00  0.00000000000E+00  0.34354164143E+03  0.34354164143E+03  0.00000000000E+00 0.  1.
         21   -1    0    0  501  502 -0.00000000000E+00 -0.00000000000E+00 -0.28706690207E+03  0.28706690207E+03  0.00000000000E+00 0.  1.
         25    1    1    2    0    0 -0.31410732601E+01 -0.12348113434E+03 -0.30776113542E+02  0.17840859297E+03  0.12500000000E+03 0.  0.
         25    1    1    2    0    0 -0.20751623037E+02  0.23883179997E+03  0.34703820610E+02  0.27258138913E+03  0.12500000000E+03 0.  0.
         25    1    1    2    0    0  0.23892696297E+02 -0.11535066563E+03  0.52547032288E+02  0.17961856140E+03  0.12500000000E+03 0.  0.
</event>
<event>
 5    0  0.5452999E-005  0.3030728E+03  0.7546771E-02  0.1083715E+00
         21   -1    0    0  502  501  0.00000000000E+00  0.00000000000E+00  0.48778413215E+03  0.48778413215E+03  0.00000000000E+00 0. -1.
         21   -1    0    0  501  502 -0.00000000000E+00 -0.00000000000E+00 -0.18830686841E+03  0.18830686841E+03  0.00000000000E+00 0. -1.
         25    1    1    2    0    0  0.15710100086E+03  0.38726730123E+02  0.17228086947E+03  0.26736899985E+03  0.12500000000E+03 0.  0.
         25    1    1    2    0    0  0.31420372905E+02  0.49482006306E+02  0.81041901358E+01  0.13829818032E+03  0.12500000000E+03 0.  0.
         25    1    1    2    0    0 -0.18852137376E+03 -0.88208736429E+02  0.11909220414E+03  0.27042382039E+03  0.12500000000E+03 0.  0.
</event>
<event>
 5    0  0.5452999E-005  0.5378843E+03  0.7546771E-02  0.1004338E+00
         21   -1    0    0  502  501  0.00000000000E+00  0.00000000000E+00  0.14147884243E+03  0.14147884243E+03  0.00000000000E+00 0. -1.
         21   -1    0    0  501  502 -0.00000000000E+00 -0.00000000000E+00 -0.20449669859E+04  0.20449669859E+04  0.00000000000E+00 0. -1.
         25    1    1    2    0    0  0.15384178728E+03 -0.28498501391E+03 -0.39871335035E+03  0.52865971042E+03  0.12500000000E+03 0.  0.
         25    1    1    2    0    0 -0.14163624932E+03  0.27714308256E+03 -0.31101036607E+03  0.45740743668E+03  0.12500000000E+03 0.  0.
         25    1    1    2    0    0 -0.12205537966E+02  0.78419313537E+01 -0.11937644270E+04  0.12003786812E+04  0.12500000000E+03 0.  0.
</event>
<event>
 5    0  0.5452999E-005  0.4006809E+03  0.7546771E-02  0.1043544E+00
         21   -1    0    0  502  501  0.00000000000E+00  0.00000000000E+00  0.44955393418E+03  0.44955393418E+03  0.00000000000E+00 0. -1.
         21   -1    0    0  501  502 -0.00000000000E+00 -0.00000000000E+00 -0.35712115572E+03  0.35712115572E+03  0.00000000000E+00 0. -1.
         25    1    1    2    0    0  0.77544720678E+01  0.19409372449E+03  0.50447030915E+02  0.23643690205E+03  0.12500000000E+03 0.  0.
         25    1    1    2    0    0  0.19836373007E+03 -0.21534175808E+03  0.72004654451E+02  0.32638920394E+03  0.12500000000E+03 0.  0.
         25    1    1    2    0    0 -0.20611820214E+03  0.21248033590E+02 -0.30018906906E+02  0.24384898392E+03  0.12500000000E+03 0.  0.
</event>
<event>
 5    0  0.5452999E-005  0.2866389E+03  0.7546771E-02  0.1092117E+00
         21   -1    0    0  502  501  0.00000000000E+00  0.00000000000E+00  0.14997799274E+04  0.14997799274E+04  0.00000000000E+00 0.  1.
         21   -1    0    0  501  502 -0.00000000000E+00 -0.00000000000E+00 -0.54782625282E+02  0.54782625282E+02  0.00000000000E+00 0.  1.
         25    1    1    2    0    0 -0.31853439805E+02  0.34608121873E+02  0.50141428776E+03  0.51889657129E+03  0.12500000000E+03 0.  0.
         25    1    1    2    0    0  0.11086546931E+03 -0.93136215840E+02  0.79613244059E+03  0.81879018677E+03  0.12500000000E+03 0.  0.
         25    1    1    2    0    0 -0.79012029500E+02  0.58528093967E+02  0.14745057376E+03  0.21687579462E+03  0.12500000000E+03 0.  0.
</event>
<event>
 5    0  0.5452999E-005  0.2440738E+03  0.7546771E-02  0.1117108E+00
         21   -1    0    0  502  501  0.00000000000E+00  0.00000000000E+00  0.87087397761E+03  0.87087397761E+03  0.00000000000E+00 0. -1.
         21   -1    0    0  501  502 -0.00000000000E+00 -0.00000000000E+00 -0.68404847758E+02  0.68404847758E+02  0.00000000000E+00 0.  1.
         25    1    1    2    0    0  0.64466776235E+02 -0.47227264367E+02  0.18088939522E+03  0.23394946685E+03  0.12500000000E+03 0.  0.
         25    1    1    2    0    0 -0.13338504363E+03  0.44652358786E+02  0.31080797671E+03  0.36333455850E+03  0.12500000000E+03 0.  0.
         25    1    1    2    0    0  0.68918267396E+02  0.25749055809E+01  0.31077175793E+03  0.34199480002E+03  0.12500000000E+03 0.  0.
</event>
<event>
 5    0  0.5452999E-005  0.2989960E+03  0.7546771E-02  0.1085744E+00
         21   -1    0    0  502  501  0.00000000000E+00  0.00000000000E+00  0.34444664166E+02  0.34444664166E+02  0.00000000000E+00 0. -1.
         21   -1    0    0  501  502 -0.00000000000E+00 -0.00000000000E+00 -0.25954271444E+04  0.25954271444E+04  0.00000000000E+00 0. -1.
         25    1    1    2    0    0  0.94962154514E+02 -0.17861527461E+03 -0.96681248368E+03  0.99562674016E+03  0.12500000000E+03 0.  0.
         25    1    1    2    0    0 -0.40845680040E+02  0.12190309411E+03 -0.12007944323E+04  0.12141091395E+04  0.12500000000E+03 0.  0.
         25    1    1    2    0    0 -0.54116474474E+02  0.56712180498E+02 -0.39337556430E+03  0.42013592898E+03  0.12500000000E+03 0.  0.
</event>
<event>
 5    0  0.5452999E-005  0.3463606E+03  0.7546771E-02  0.1064119E+00
         21   -1    0    0  502  501  0.00000000000E+00  0.00000000000E+00  0.43147006515E+03  0.43147006515E+03  0.00000000000E+00 0. -1.
         21   -1    0    0  501  502 -0.00000000000E+00 -0.00000000000E+00 -0.27803935554E+03  0.27803935554E+03  0.00000000000E+00 0. -1.
         25    1    1    2    0    0  0.50534495641E+01  0.20600221444E+03  0.12598392089E+03  0.27195477203E+03  0.12500000000E+03 0.  0.
         25    1    1    2    0    0  0.61437667713E+02 -0.22103346724E+03 -0.63168081162E+02  0.26878539233E+03  0.12500000000E+03 0.  0.
         25    1    1    2    0    0 -0.66491117277E+02  0.15031252799E+02  0.90614869882E+02  0.16876925633E+03  0.12500000000E+03 0.  0.
</event>
<event>
 5    0  0.5452999E-005  0.5759411E+03  0.7546771E-02  0.9956617E-01
         21   -1    0    0  502  501  0.00000000000E+00  0.00000000000E+00  0.10886158411E+04  0.10886158411E+04  0.00000000000E+00 0. -1.
         21   -1    0    0  501  502 -0.00000000000E+00 -0.00000000000E+00 -0.30470634199E+03  0.30470634199E+03  0.00000000000E+00 0. -1.
         25    1    1    2    0    0  0.55424514649E+02  0.22732991912E+03  0.55976072427E+03  0.61944155285E+03  0.12500000000E+03 0.  0.
         25    1    1    2    0    0 -0.89599131495E+02 -0.36044828319E+03 -0.96234749834E+02  0.40353078730E+03  0.12500000000E+03 0.  0.
         25    1    1    2    0    0  0.34174616846E+02  0.13311836407E+03  0.32038352468E+03  0.37034984295E+03  0.12500000000E+03 0.  0.
</event>
<event>
 5    0  0.5452999E-005  0.4225804E+03  0.7546771E-02  0.1036230E+00
         21   -1    0    0  502  501  0.00000000000E+00  0.00000000000E+00  0.26156941101E+03  0.26156941101E+03  0.00000000000E+00 0. -1.
         21   -1    0    0  501  502 -0.00000000000E+00 -0.00000000000E+00 -0.68270273805E+03  0.68270273805E+03  0.00000000000E+00 0. -1.
         25    1    1    2    0    0  0.12451215025E+03  0.18683749510E+03 -0.19654146610E+03  0.32351981861E+03  0.12500000000E+03 0.  0.
         25    1    1    2    0    0 -0.18810266199E+03  0.10626810721E+03 -0.13464936725E+03  0.28360355103E+03  0.12500000000E+03 0.  0.
         25    1    1    2    0    0  0.63590511740E+02 -0.29310560232E+03 -0.89942493692E+02  0.33714877942E+03  0.12500000000E+03 0.  0.
</event>
<event>
 5    0  0.5452999E-005  0.2042755E+03  0.7546771E-02  0.1146181E+00
         21   -1    0    0  502  501  0.00000000000E+00  0.00000000000E+00  0.19820291630E+03  0.19820291630E+03  0.00000000000E+00 0.  1.
         21   -1    0    0  501  502 -0.00000000000E+00 -0.00000000000E+00 -0.21053407987E+03  0.21053407987E+03  0.00000000000E+00 0.  1.
         25    1    1    2    0    0  0.32663219930E+02  0.16557074087E+02 -0.14171185821E+02  0.13102230782E+03  0.12500000000E+03 0.  0.
         25    1    1    2    0    0 -0.40373079826E+02  0.17851665081E+02  0.46328678484E+02  0.14042796720E+03  0.12500000000E+03 0.  0.
         25    1    1    2    0    0  0.77098598956E+01 -0.34408739168E+02 -0.44488656231E+02  0.13728672115E+03  0.12500000000E+03 0.  0.
</event>
<event>
 5    0  0.5452999E-005  0.3726140E+03  0.7546771E-02  0.1053698E+00
         21   -1    0    0  502  501  0.00000000000E+00  0.00000000000E+00  0.37868287495E+03  0.37868287495E+03  0.00000000000E+00 0. -1.
         21   -1    0    0  501  502 -0.00000000000E+00 -0.00000000000E+00 -0.36664230842E+03  0.36664230842E+03  0.00000000000E+00 0. -1.
         25    1    1    2    0    0  0.13224843758E+03  0.10878892625E+03  0.15849550712E+03  0.26470834043E+03  0.12500000000E+03 0.  0.
         25    1    1    2    0    0 -0.15297267507E+03  0.83042077968E+02 -0.12884248428E+03  0.25004401969E+03  0.12500000000E+03 0.  0.
         25    1    1    2    0    0  0.20724237490E+02 -0.19183100422E+03 -0.17612456324E+02  0.23057282324E+03  0.12500000000E+03 0.  0.
</event>
<event>
 5    0  0.5724160E-005  0.3972787E+03  0.7546771E-02  0.1044726E+00
         21   -1    0    0  502  501  0.00000000000E+00  0.00000000000E+00  0.10682267041E+04  0.10682267041E+04  0.00000000000E+00 0. -1.
         21   -1    0    0  501  502 -0.00000000000E+00 -0.00000000000E+00 -0.14774988144E+03  0.14774988144E+03  0.00000000000E+00 0. -1.
         25    1    1    2    0    0 -0.27606175545E+03 -0.19790637891E+02  0.50336127765E+03  0.58787697523E+03  0.12500000000E+03 0.  0.
         25    1    1    2    0    0  0.90152692745E+02 -0.46799219217E+02  0.13410817187E+02  0.16162464214E+03  0.12500000000E+03 0.  0.
         25    1    1    2    0    0  0.18590906270E+03  0.66589857108E+02  0.40370472778E+03  0.46647496814E+03  0.12500000000E+03 0.  0.
</event>
<event>
 5    0  0.5452999E-005  0.2854335E+03  0.7546771E-02  0.1092758E+00
         21   -1    0    0  502  501  0.00000000000E+00  0.00000000000E+00  0.13302392585E+03  0.13302392585E+03  0.00000000000E+00 0. -1.
         21   -1    0    0  501  502 -0.00000000000E+00 -0.00000000000E+00 -0.61246347536E+03  0.61246347536E+03  0.00000000000E+00 0. -1.
         25    1    1    2    0    0  0.74821832832E+02 -0.55525596499E+02 -0.75319649172E+02  0.17314574233E+03  0.12500000000E+03 0.  0.
         25    1    1    2    0    0 -0.82231935447E+02 -0.60767882716E+02 -0.36192135720E+03  0.39631666074E+03  0.12500000000E+03 0.  0.
         25    1    1    2    0    0  0.74101026152E+01  0.11629347921E+03 -0.42198543135E+02  0.17602499814E+03  0.12500000000E+03 0.  0.
</event>
<event>
 5    0  0.5797116E-005  0.3622252E+03  0.7546771E-02  0.1057706E+00
         21   -1    0    0  502  501  0.00000000000E+00  0.00000000000E+00  0.59820760436E+03  0.59820760436E+03  0.00000000000E+00 0.  1.
         21   -1    0    0  501  502 -0.00000000000E+00 -0.00000000000E+00 -0.21933367390E+03  0.21933367390E+03  0.00000000000E+00 0.  1.
         25    1    1    2    0    0  0.11328108560E+03 -0.18115465531E+03  0.36225480017E+03  0.43875181337E+03  0.12500000000E+03 0.  0.
         25    1    1    2    0    0 -0.10030619600E+03  0.44723113038E+02 -0.61670486274E+02  0.17745348313E+03  0.12500000000E+03 0.  0.
         25    1    1    2    0    0 -0.12974889597E+02  0.13643154227E+03  0.78289616569E+02  0.20133598175E+03  0.12500000000E+03 0.  0.
</event>
<event>
 5    0  0.5452999E-005  0.2940765E+03  0.7546771E-02  0.1088240E+00
         21   -1    0    0  502  501  0.00000000000E+00  0.00000000000E+00  0.47188529496E+03  0.47188529496E+03  0.00000000000E+00 0. -1.
         21   -1    0    0  501  502 -0.00000000000E+00 -0.00000000000E+00 -0.18326697481E+03  0.18326697481E+03  0.00000000000E+00 0. -1.
         25    1    1    2    0    0 -0.74221033052E+02 -0.10873131827E+03  0.89070153658E+02  0.20221214996E+03  0.12500000000E+03 0.  0.
         25    1    1    2    0    0  0.14729050845E+03  0.64959016010E+02  0.16044600785E+01  0.20381791367E+03  0.12500000000E+03 0.  0.
         25    1    1    2    0    0 -0.73069475399E+02  0.43772302256E+02  0.19794370642E+03  0.24912220614E+03  0.12500000000E+03 0.  0.
</event>
<event>
 5    0  0.5452999E-005  0.3607322E+03  0.7546771E-02  0.1058294E+00
         21   -1    0    0  502  501  0.00000000000E+00  0.00000000000E+00  0.32285382694E+03  0.32285382694E+03  0.00000000000E+00 0.  1.
         21   -1    0    0  501  502 -0.00000000000E+00 -0.00000000000E+00 -0.40305468952E+03  0.40305468952E+03  0.00000000000E+00 0.  1.
         25    1    1    2    0    0  0.94637242572E+02 -0.25224610305E+03 -0.24548637740E+02  0.29801332152E+03  0.12500000000E+03 0.  0.
         25    1    1    2    0    0 -0.76801858340E+02  0.16134900607E+03 -0.13166270041E+03  0.25473926647E+03  0.12500000000E+03 0.  0.
         25    1    1    2    0    0 -0.17835384233E+02  0.90897096983E+02  0.76010475567E+02  0.17315592848E+03  0.12500000000E+03 0.  0.
</event>
<event>
 5    0  0.5452999E-005  0.3951614E+03  0.7546771E-02  0.1045468E+00
         21   -1    0    0  502  501  0.00000000000E+00  0.00000000000E+00  0.55976832230E+03  0.55976832230E+03  0.00000000000E+00 0. -1.
         21   -1    0    0  501  502 -0.00000000000E+00 -0.00000000000E+00 -0.27895922797E+03  0.27895922797E+03  0.00000000000E+00 0. -1.
         25    1    1    2    0    0 -0.13795445456E+03  0.49278751799E+02  0.42344901745E+03  0.46518157454E+03  0.12500000000E+03 0.  0.
         25    1    1    2    0    0  0.27898483699E+02 -0.93488183988E+02 -0.15333767485E+02  0.15930627848E+03  0.12500000000E+03 0.  0.
         25    1    1    2    0    0  0.11005597086E+03  0.44209432189E+02 -0.12730615564E+03  0.21423969725E+03  0.12500000000E+03 0.  0.
</event>
<event>
 5    0  0.5452999E-005  0.2296632E+03  0.7546771E-02  0.1126877E+00
         21   -1    0    0  502  501  0.00000000000E+00  0.00000000000E+00  0.20395092050E+03  0.20395092050E+03  0.00000000000E+00 0. -1.
         21   -1    0    0  501  502 -0.00000000000E+00 -0.00000000000E+00 -0.25861714311E+03  0.25861714311E+03  0.00000000000E+00 0. -1.
         25    1    1    2    0    0 -0.79953738040E+02  0.21247087397E+02 -0.30676623431E+02  0.15300357569E+03  0.12500000000E+03 0.  0.
         25    1    1    2    0    0  0.35101967772E+02 -0.25143245331E+02  0.67277545372E+02  0.14837654477E+03  0.12500000000E+03 0.  0.
         25    1    1    2    0    0  0.44851770268E+02  0.38961579344E+01 -0.91267144547E+02  0.16118794315E+03  0.12500000000E+03 0.  0.
</event>
<event>
 5    0  0.5452999E-005  0.4271060E+03  0.7546771E-02  0.1034778E+00
         21   -1    0    0  502  501  0.00000000000E+00  0.00000000000E+00  0.98993570038E+02  0.98993570038E+02  0.00000000000E+00 0.  1.
         21   -1    0    0  501  502 -0.00000000000E+00 -0.00000000000E+00 -0.18427412859E+04  0.18427412859E+04  0.00000000000E+00 0.  1.
         25    1    1    2    0    0  0.68519039388E+02 -0.32211272354E+02 -0.11943758777E+03  0.18873993270E+03  0.12500000000E+03 0.  0.
         25    1    1    2    0    0  0.20162841692E+03 -0.17017024549E+03 -0.59953783849E+03  0.66684522248E+03  0.12500000000E+03 0.  0.
         25    1    1    2    0    0 -0.27014745631E+03  0.20238151784E+03 -0.10247722896E+04  0.10861497007E+04  0.12500000000E+03 0.  0.
</event>
<event>
 5    0  0.5452999E-005  0.2420907E+03  0.7546771E-02  0.1118408E+00
         21   -1    0    0  502  501  0.00000000000E+00  0.00000000000E+00  0.15919557402E+03  0.15919557402E+03  0.00000000000E+00 0. -1.
         21   -1    0    0  501  502 -0.00000000000E+00 -0.00000000000E+00 -0.36815020885E+03  0.36815020885E+03  0.00000000000E+00 0. -1.
         25    1    1    2    0    0 -0.82747903420E+01 -0.24623023633E+02 -0.32367695234E+02  0.13170965471E+03  0.12500000000E+03 0.  0.
         25    1    1    2    0    0 -0.58183363126E+02 -0.62439693559E+02 -0.17236133609E+03  0.22938493685E+03  0.12500000000E+03 0.  0.
         25    1    1    2    0    0  0.66458153468E+02  0.87062717192E+02 -0.42256035099E+01  0.16625119131E+03  0.12500000000E+03 0.  0.
</event>
<event>
 5    0  0.7828554E-005  0.4245022E+03  0.7546771E-02  0.1035611E+00
         21   -1    0    0  502  501  0.00000000000E+00  0.00000000000E+00  0.50325936313E+03  0.50325936313E+03  0.00000000000E+00 0. -1.
         21   -1    0    0  501  502 -0.00000000000E+00 -0.00000000000E+00 -0.35807003755E+03  0.35807003755E+03  0.00000000000E+00 0. -1.
         25    1    1    2    0    0  0.95808074653E+02  0.63842558131E+02  0.25603202189E+03  0.30729864241E+03  0.12500000000E+03 0.  0.
         25    1    1    2    0    0 -0.22094187485E+03 -0.66210366675E+02  0.98263963357E+02  0.28014269794E+03  0.12500000000E+03 0.  0.
         25    1    1    2    0    0  0.12513380020E+03  0.23678085440E+01 -0.20910665967E+03  0.27388806032E+03  0.12500000000E+03 0.  0.
</event>
<event>
 5    0  0.5452999E-005  0.3026327E+03  0.7546771E-02  0.1083932E+00
         21   -1    0    0  502  501  0.00000000000E+00  0.00000000000E+00  0.11622345923E+03  0.11622345923E+03  0.00000000000E+00 0.  1.
         21   -1    0    0  501  502 -0.00000000000E+00 -0.00000000000E+00 -0.78802118363E+03  0.78802118363E+03  0.00000000000E+00 0.  1.
         25    1    1    2    0    0  0.19743104357E+03  0.88937356026E+02 -0.30686568031E+03  0.39582877108E+03  0.12500000000E+03 0.  0.
         25    1    1    2    0    0 -0.11296864979E+03 -0.10735709320E+03 -0.17871219908E+03  0.26804945699E+03  0.12500000000E+03 0.  0.
         25    1    1    2    0    0 -0.84462393779E+02  0.18419737172E+02 -0.18621984501E+03  0.24036641478E+03  0.12500000000E+03 0.  0.
</event>
<event>
 5    0  0.5452999E-005  0.2835559E+03  0.7546771E-02  0.1093762E+00
         21   -1    0    0  502  501  0.00000000000E+00  0.00000000000E+00  0.21370644995E+03  0.21370644995E+03  0.00000000000E+00 0. -1.
         21   -1    0    0  501  502 -0.00000000000E+00 -0.00000000000E+00 -0.37623546086E+03  0.37623546086E+03  0.00000000000E+00 0. -1.
         25    1    1    2    0    0 -0.18451477862E+03 -0.23337988637E+02 -0.46434702830E+02  0.22884830537E+03  0.12500000000E+03 0.  0.
         25    1    1    2    0    0  0.12680414019E+03  0.20084415292E+02 -0.13186358252E+03  0.22247624165E+03  0.12500000000E+03 0.  0.
         25    1    1    2    0    0  0.57710638431E+02  0.32535733449E+01  0.15769274432E+02  0.13861736379E+03  0.12500000000E+03 0.  0.
</event>
<event>
 5    0  0.6224647E-005  0.2877356E+03  0.7546771E-02  0.1091537E+00
         21   -1    0    0  502  501  0.00000000000E+00  0.00000000000E+00  0.10933956458E+03  0.10933956458E+03  0.00000000000E+00 0.  1.
         21   -1    0    0  501  502 -0.00000000000E+00 -0.00000000000E+00 -0.75719888358E+03  0.75719888358E+03  0.00000000000E+00 0.  1.
         25    1    1    2    0    0 -0.18465710995E+03 -0.60757397325E+01 -0.15142044656E+03  0.26960770483E+03  0.12500000000E+03 0.  0.
         25    1    1    2    0    0  0.74238737860E+02 -0.17051176399E+02 -0.32594487870E+03  0.35730546702E+03  0.12500000000E+03 0.  0.
         25    1    1    2    0    0  0.11041837209E+03  0.23126916131E+02 -0.17049399375E+03  0.23962527632E+03  0.12500000000E+03 0.  0.
</event>
<event>
 5    0  0.5452999E-005  0.3647620E+03  0.7546771E-02  0.1056714E+00
         21   -1    0    0  502  501  0.00000000000E+00  0.00000000000E+00  0.24387890050E+03  0.24387890050E+03  0.00000000000E+00 0. -1.
         21   -1    0    0  501  502 -0.00000000000E+00 -0.00000000000E+00 -0.54556303971E+03  0.54556303971E+03  0.00000000000E+00 0. -1.
         25    1    1    2    0    0 -0.12170161065E+03  0.25258971046E+02 -0.10038218372E+03  0.20285679792E+03  0.12500000000E+03 0.  0.
         25    1    1    2    0    0 -0.11109889652E+03 -0.19778681629E+02 -0.26568782661E+03  0.31456188940E+03  0.12500000000E+03 0.  0.
         25    1    1    2    0    0  0.23280050717E+03 -0.54802894168E+01  0.64385871129E+02  0.27202325289E+03  0.12500000000E+03 0.  0.
</event>
<event>
 5    0  0.5452999E-005  0.3430499E+03  0.7546771E-02  0.1065504E+00
         21   -1    0    0  502  501  0.00000000000E+00  0.00000000000E+00  0.13885432581E+03  0.13885432581E+03  0.00000000000E+00 0. -1.
         21   -1    0    0  501  502 -0.00000000000E+00 -0.00000000000E+00 -0.84753016344E+03  0.84753016344E+03  0.00000000000E+00 0. -1.
         25    1    1    2    0    0 -0.43764257575E+02  0.39316481393E+02 -0.81852423765E+02  0.16057993407E+03  0.12500000000E+03 0.  0.
         25    1    1    2    0    0  0.13779913846E+03  0.11379171329E+03 -0.72485778382E+02  0.22981806857E+03  0.12500000000E+03 0.  0.
         25    1    1    2    0    0 -0.94034880887E+02 -0.15310819468E+03 -0.55433763549E+03  0.59598648661E+03  0.12500000000E+03 0.  0.
</event>
<event>
 5    0  0.5452999E-005  0.2523706E+03  0.7546771E-02  0.1111816E+00
         21   -1    0    0  502  501  0.00000000000E+00  0.00000000000E+00  0.42550387263E+02  0.42550387263E+02  0.00000000000E+00 0.  1.
         21   -1    0    0  501  502 -0.00000000000E+00 -0.00000000000E+00 -0.14968347064E+04  0.14968347064E+04  0.00000000000E+00 0.  1.
         25    1    1    2    0    0 -0.10389528383E+03 -0.21453231584E+02 -0.37781944571E+03  0.41185799094E+03  0.12500000000E+03 0.  0.
         25    1    1    2    0    0  0.11020270340E+03  0.38789654306E+02 -0.34352404234E+03  0.38377472661E+03  0.12500000000E+03 0.  0.
         25    1    1    2    0    0 -0.63074195722E+01 -0.17336422722E+02 -0.73294083105E+03  0.74375237607E+03  0.12500000000E+03 0.  0.
</event>
<event>
 5    0  0.5452999E-005  0.2886724E+03  0.7546771E-02  0.1091044E+00
         21   -1    0    0  502  501  0.00000000000E+00  0.00000000000E+00  0.11289212789E+03  0.11289212789E+03  0.00000000000E+00 0. -1.
         21   -1    0    0  501  502 -0.00000000000E+00 -0.00000000000E+00 -0.73815362810E+03  0.73815362810E+03  0.00000000000E+00 0. -1.
         25    1    1    2    0    0 -0.93590354001E+02  0.19322628652E+02 -0.12366676987E+03  0.20012743018E+03  0.12500000000E+03 0.  0.
         25    1    1    2    0    0  0.14606269744E+03 -0.13529207818E+03 -0.25883814715E+03  0.34965761027E+03  0.12500000000E+03 0.  0.
         25    1    1    2    0    0 -0.52472343442E+02  0.11596944953E+03 -0.24275658319E+03  0.30126071555E+03  0.12500000000E+03 0.  0.
</event>
<event>
 5    0  0.5452999E-005  0.3647498E+03  0.7546771E-02  0.1056719E+00
         21   -1    0    0  502  501  0.00000000000E+00  0.00000000000E+00  0.13347147002E+04  0.13347147002E+04  0.00000000000E+00 0.  1.
         21   -1    0    0  501  502 -0.00000000000E+00 -0.00000000000E+00 -0.99678565508E+02  0.99678565508E+02  0.00000000000E+00 0.  1.
         25    1    1    2    0    0 -0.10625791073E+02 -0.15112432030E+03  0.15118828111E+03  0.24785956501E+03  0.12500000000E+03 0.  0.
         25    1    1    2    0    0 -0.19797929499E+02  0.82196632952E+02  0.77477311472E+02  0.16963483803E+03  0.12500000000E+03 0.  0.
         25    1    1    2    0    0  0.30423720573E+02  0.68927687351E+02  0.10063705421E+04  0.10168988627E+04  0.12500000000E+03 0.  0.
</event>
<event>
 5    0  0.6361823E-005  0.2618806E+03  0.7546771E-02  0.1106019E+00
         21   -1    0    0  502  501  0.00000000000E+00  0.00000000000E+00  0.25761670083E+03  0.25761670083E+03  0.00000000000E+00 0.  1.
         21   -1    0    0  501  502 -0.00000000000E+00 -0.00000000000E+00 -0.26621510989E+03  0.26621510989E+03  0.00000000000E+00 0.  1.
         25    1    1    2    0    0  0.81907669198E+02 -0.49491050858E+02 -0.40399807071E+02  0.16252807388E+03  0.12500000000E+03 0.  0.
         25    1    1    2    0    0 -0.39031677752E+00 -0.46875311855E+02 -0.75894817141E+02  0.15356585062E+03  0.12500000000E+03 0.  0.
         25    1    1    2    0    0 -0.81517352421E+02  0.96366362714E+02  0.10769621516E+03  0.20773788621E+03  0.12500000000E+03 0.  0.
</event>
<event>
 5    0  0.5452999E-005  0.2744926E+03  0.7546771E-02  0.1098736E+00
         21   -1    0    0  502  501  0.00000000000E+00  0.00000000000E+00  0.15251786554E+03  0.15251786554E+03  0.00000000000E+00 0.  1.
         21   -1    0    0  501  502 -0.00000000000E+00 -0.00000000000E+00 -0.49401530876E+03  0.49401530876E+03  0.00000000000E+00 0.  1.
         25    1    1    2    0    0 -0.51262978682E+02 -0.33762714292E+02 -0.35274604380E+03  0.37923948275E+03  0.12500000000E+03 0.  0.
         25    1    1    2    0    0  0.18423973556E+02  0.47244663120E+02  0.22919741150E+02  0.13682768554E+03  0.12500000000E+03 0.  0.
         25    1    1    2    0    0  0.32839005126E+02 -0.13481948829E+02 -0.11671140569E+02  0.13046600601E+03  0.12500000000E+03 0.  0.
</event>
<event>
 5    0  0.5452999E-005  0.3536793E+03  0.7546771E-02  0.1061115E+00
         21   -1    0    0  502  501  0.00000000000E+00  0.00000000000E+00  0.13521970699E+04  0.13521970699E+04  0.00000000000E+00 0. -1.
         21   -1    0    0  501  502 -0.00000000000E+00 -0.00000000000E+00 -0.92507997289E+02  0.92507997289E+02  0.00000000000E+00 0. -1.
         25    1    1    2    0    0  0.48796690999E+02  0.13829654256E+03  0.92211377080E+03  0.94203283225E+03  0.12500000000E+03 0.  0.
         25    1    1    2    0    0 -0.95371296676E+02  0.27488212235E+02  0.14048180009E+03  0.21262977731E+03  0.12500000000E+03 0.  0.
         25    1    1    2    0    0  0.46574605678E+02 -0.16578475480E+03  0.19709350177E+03  0.29004245768E+03  0.12500000000E+03 0.  0.
</event>
<event>
 5    0  0.5636885E-005  0.3157957E+03  0.7546771E-02  0.1077601E+00
         21   -1    0    0  502  501  0.00000000000E+00  0.00000000000E+00  0.22791946149E+03  0.22791946149E+03  0.00000000000E+00 0.  1.
         21   -1    0    0  501  502 -0.00000000000E+00 -0.00000000000E+00 -0.43755344461E+03  0.43755344461E+03  0.00000000000E+00 0.  1.
         25    1    1    2    0    0 -0.40313156344E+01 -0.14347054806E+03 -0.90303750288E+02  0.21066517743E+03  0.12500000000E+03 0.  0.
         25    1    1    2    0    0 -0.12788087695E+03 -0.16539705854E+02 -0.11380245079E+03  0.21261015584E+03  0.12500000000E+03 0.  0.
         25    1    1    2    0    0  0.13191219259E+03  0.16001025392E+03 -0.55277820393E+01  0.24219757283E+03  0.12500000000E+03 0.  0.
</event>
<event>
 5    0  0.5452999E-005  0.2951830E+03  0.7546771E-02  0.1087674E+00
         21   -1    0    0  502  501  0.00000000000E+00  0.00000000000E+00  0.12434466822E+04  0.12434466822E+04  0.00000000000E+00 0.  1.
         21   -1    0    0  501  502 -0.00000000000E+00 -0.00000000000E+00 -0.70073773711E+02  0.70073773711E+02  0.00000000000E+00 0.  1.
         25    1    1    2    0    0  0.10007993262E+03  0.12246945628E+03  0.45773388777E+03  0.50016004704E+03  0.12500000000E+03 0.  0.
         25    1    1    2    0    0 -0.80757335534E+02 -0.18598384199E+03  0.51932052428E+03  0.57134100471E+03  0.12500000000E+03 0.  0.
         25    1    1    2    0    0 -0.19322597083E+02  0.63514385705E+02  0.19631849642E+03  0.24201940416E+03  0.12500000000E+03 0.  0.
</event>
<event>
 5    0  0.5452999E-005  0.3158515E+03  0.7546771E-02  0.1077575E+00
         21   -1    0    0  502  501  0.00000000000E+00  0.00000000000E+00  0.46651563166E+03  0.46651563166E+03  0.00000000000E+00 0.  1.
         21   -1    0    0  501  502 -0.00000000000E+00 -0.00000000000E+00 -0.21384529320E+03  0.21384529320E+03  0.00000000000E+00 0.  1.
         25    1    1    2    0    0 -0.72703251025E+02 -0.14419041596E+01  0.23127096692E+03  0.27276198771E+03  0.12500000000E+03 0.  0.
         25    1    1    2    0    0  0.18197234821E+03  0.24339467149E+02 -0.46236361313E+02  0.22686812531E+03  0.12500000000E+03 0.  0.
         25    1    1    2    0    0 -0.10926909719E+03 -0.22897562990E+02  0.67635732855E+02  0.18073081184E+03  0.12500000000E+03 0.  0.
</event>
<event>
 5    0  0.5452999E-005  0.3982071E+03  0.7546771E-02  0.1044402E+00
         21   -1    0    0  502  501  0.00000000000E+00  0.00000000000E+00  0.43603279104E+03  0.43603279104E+03  0.00000000000E+00 0. -1.
         21   -1    0    0  501  502 -0.00000000000E+00 -0.00000000000E+00 -0.36366284509E+03  0.36366284509E+03  0.00000000000E+00 0. -1.
         25    1    1    2    0    0 -0.18903275051E+03  0.68855775480E+02 -0.14811418560E+03  0.27935158950E+03  0.12500000000E+03 0.  0.
         25    1    1    2    0    0 -0.51023969175E+02  0.79019140823E+02  0.34512061303E+02  0.16019847821E+03  0.12500000000E+03 0.  0.
         25    1    1    2    0    0  0.24005671969E+03 -0.14787491630E+03  0.18597207024E+03  0.36014556841E+03  0.12500000000E+03 0.  0.
</event>
<event>
 5    0  0.5452999E-005  0.2628267E+03  0.7546771E-02  0.1105457E+00
         21   -1    0    0  502  501  0.00000000000E+00  0.00000000000E+00  0.50450596533E+03  0.50450596533E+03  0.00000000000E+00 0.  1.
         21   -1    0    0  501  502 -0.00000000000E+00 -0.00000000000E+00 -0.13692185641E+03  0.13692185641E+03  0.00000000000E+00 0.  1.
         25    1    1    2    0    0  0.16657604722E+02  0.65757019276E+02  0.26719142298E+03  0.30268418838E+03  0.12500000000E+03 0.  0.
         25    1    1    2    0    0 -0.38459362740E+02 -0.83138967639E+02  0.13559908603E+03  0.20592067078E+03  0.12500000000E+03 0.  0.
         25    1    1    2    0    0  0.21801758017E+02  0.17381948364E+02 -0.35206400096E+02  0.13282296258E+03  0.12500000000E+03 0.  0.
</event>
<event>
 5    0  0.5452999E-005  0.2506187E+03  0.7546771E-02  0.1112914E+00
         21   -1    0    0  502  501  0.00000000000E+00  0.00000000000E+00  0.80371370197E+03  0.80371370197E+03  0.00000000000E+00 0.  1.
         21   -1    0    0  501  502 -0.00000000000E+00 -0.00000000000E+00 -0.78149382242E+02  0.78149382242E+02  0.00000000000E+00 0.  1.
         25    1    1    2    0    0  0.38769731413E+02 -0.33842498312E+02  0.25418281949E+03  0.28789288371E+03  0.12500000000E+03 0.  0.
         25    1    1    2    0    0  0.44684042912E+02  0.60378790703E+02  0.64602187385E+02  0.15950142530E+03  0.12500000000E+03 0.  0.
         25    1    1    2    0    0 -0.83453774326E+02 -0.26536292391E+02  0.40677931285E+03  0.43446877521E+03  0.12500000000E+03 0.  0.
</event>
<event>
 5    0  0.5452999E-005  0.3390336E+03  0.7546771E-02  0.1067208E+00
         21   -1    0    0  502  501  0.00000000000E+00  0.00000000000E+00  0.21595804532E+04  0.21595804532E+04  0.00000000000E+00 0.  1.
         21   -1    0    0  501  502 -0.00000000000E+00 -0.00000000000E+00 -0.53225065685E+02  0.53225065685E+02  0.00000000000E+00 0.  1.
         25    1    1    2    0    0  0.24961182602E+03 -0.12161894085E+02  0.95309397024E+03  0.99321049706E+03  0.12500000000E+03 0.  0.
         25    1    1    2    0    0 -0.17142966573E+03 -0.41931901174E+02  0.45350728261E+03  0.50243434398E+03  0.12500000000E+03 0.  0.
         25    1    1    2    0    0 -0.78182160293E+02  0.54093795260E+02  0.69975413466E+03  0.71716067784E+03  0.12500000000E+03 0.  0.
</event>
<event>
 5    0  0.5452999E-005  0.2933484E+03  0.7546771E-02  0.1088614E+00
         21   -1    0    0  502  501  0.00000000000E+00  0.00000000000E+00  0.16148518826E+03  0.16148518826E+03  0.00000000000E+00 0. -1.
         21   -1    0    0  501  502 -0.00000000000E+00 -0.00000000000E+00 -0.53288659228E+03  0.53288659228E+03  0.00000000000E+00 0. -1.
         25    1    1    2    0    0  0.63653760901E+02  0.12139424035E+03 -0.11810779179E+03  0.21991546864E+03  0.12500000000E+03 0.  0.
         25    1    1    2    0    0  0.83731743679E+02 -0.14156325091E+03 -0.13969514263E+03  0.24938101728E+03  0.12500000000E+03 0.  0.
         25    1    1    2    0    0 -0.14738550458E+03  0.20169010561E+02 -0.11359846960E+03  0.22507529461E+03  0.12500000000E+03 0.  0.
</event>
<event>
 5    0  0.5452999E-005  0.3664346E+03  0.7546771E-02  0.1056065E+00
         21   -1    0    0  502  501  0.00000000000E+00  0.00000000000E+00  0.14815634580E+04  0.14815634580E+04  0.00000000000E+00 0. -1.
         21   -1    0    0  501  502 -0.00000000000E+00 -0.00000000000E+00 -0.90630135598E+02  0.90630135598E+02  0.00000000000E+00 0. -1.
         25    1    1    2    0    0 -0.17410325972E+03  0.16593827969E+03  0.25065493445E+03  0.36918877810E+03  0.12500000000E+03 0.  0.
         25    1    1    2    0    0  0.69045862440E+02 -0.32622698244E+02  0.26591973218E+03  0.30359492012E+03  0.12500000000E+03 0.  0.
         25    1    1    2    0    0  0.10505739728E+03 -0.13331558144E+03  0.87435865576E+03  0.89940989536E+03  0.12500000000E+03 0.  0.
</event>
<event>
 5    0  0.5452999E-005  0.3271350E+03  0.7546771E-02  0.1072412E+00
         21   -1    0    0  502  501  0.00000000000E+00  0.00000000000E+00  0.14157157576E+03  0.14157157576E+03  0.00000000000E+00 0. -1.
         21   -1    0    0  501  502 -0.00000000000E+00 -0.00000000000E+00 -0.75592357362E+03  0.75592357362E+03  0.00000000000E+00 0. -1.
         25    1    1    2    0    0 -0.48908565200E+02 -0.22951571094E+02 -0.24344069262E+03  0.27893940774E+03  0.12500000000E+03 0.  0.
         25    1    1    2    0    0  0.20617545234E+03  0.81036719840E+02 -0.93169721795E+02  0.27088902556E+03  0.12500000000E+03 0.  0.
         25    1    1    2    0    0 -0.15726688714E+03 -0.58085148746E+02 -0.27774158345E+03  0.34766671608E+03  0.12500000000E+03 0.  0.
</event>
<event>
 5    0  0.6713929E-005  0.3106303E+03  0.7546771E-02  0.1080044E+00
         21   -1    0    0  502  501  0.00000000000E+00  0.00000000000E+00  0.24018922564E+03  0.24018922564E+03  0.00000000000E+00 0.  1.
         21   -1    0    0  501  502 -0.00000000000E+00 -0.00000000000E+00 -0.40172997384E+03  0.40172997384E+03  0.00000000000E+00 0.  1.
         25    1    1    2    0    0 -0.30819517341E+01 -0.15707411753E+03 -0.28501581167E+02  0.20277849234E+03  0.12500000000E+03 0.  0.
         25    1    1    2    0    0  0.39689282010E+02  0.15304705259E+03 -0.20731877195E+03  0.28914479524E+03  0.12500000000E+03 0.  0.
         25    1    1    2    0    0 -0.36607330276E+02  0.40270649451E+01  0.74279604911E+02  0.14999591190E+03  0.12500000000E+03 0.  0.
</event>
<event>
 5    0  0.5452999E-005  0.3260262E+03  0.7546771E-02  0.1072909E+00
         21   -1    0    0  502  501  0.00000000000E+00  0.00000000000E+00  0.40754743687E+03  0.40754743687E+03  0.00000000000E+00 0. -1.
         21   -1    0    0  501  502 -0.00000000000E+00 -0.00000000000E+00 -0.26081149707E+03  0.26081149707E+03  0.00000000000E+00 0. -1.
         25    1    1    2    0    0 -0.28216290646E+01 -0.11114367925E+03  0.98782308119E+02  0.19427769668E+03  0.12500000000E+03 0.  0.
         25    1    1    2    0    0  0.60355332304E+02 -0.12306984509E+03 -0.37600082335E+02  0.18928211511E+03  0.12500000000E+03 0.  0.
         25    1    1    2    0    0 -0.57533703240E+02  0.23421352435E+03  0.85553714023E+02  0.28479912215E+03  0.12500000000E+03 0.  0.
</event>
<event>
 5    0  0.5452999E-005  0.3584842E+03  0.7546771E-02  0.1059186E+00
         21   -1    0    0  502  501  0.00000000000E+00  0.00000000000E+00  0.99332265153E+02  0.99332265153E+02  0.00000000000E+00 0.  1.
         21   -1    0    0  501  502 -0.00000000000E+00 -0.00000000000E+00 -0.12937479094E+04  0.12937479094E+04  0.00000000000E+00 0.  1.
         25    1    1    2    0    0 -0.55322629335E+02 -0.97477425278E+02 -0.22313163632E+03  0.27924034250E+03  0.12500000000E+03 0.  0.
         25    1    1    2    0    0  0.10970489813E+03 -0.15663384384E+03 -0.61131444090E+03  0.65260989217E+03  0.12500000000E+03 0.  0.
         25    1    1    2    0    0 -0.54382268797E+02  0.25411126912E+03 -0.35996956703E+03  0.46122993988E+03  0.12500000000E+03 0.  0.
</event>
<event>
 5    0  0.5452999E-005  0.2343079E+03  0.7546771E-02  0.1123644E+00
         21   -1    0    0  502  501  0.00000000000E+00  0.00000000000E+00  0.14549064318E+03  0.14549064318E+03  0.00000000000E+00 0. -1.
         21   -1    0    0  501  502 -0.00000000000E+00 -0.00000000000E+00 -0.37734524429E+03  0.37734524429E+03  0.00000000000E+00 0. -1.
         25    1    1    2    0    0  0.31594294871E+02 -0.17977436156E+02 -0.20753891019E+03  0.24498731992E+03  0.12500000000E+03 0.  0.
         25    1    1    2    0    0 -0.31551099758E+02 -0.32217459350E+02 -0.47592529122E+02  0.14115057708E+03  0.12500000000E+03 0.  0.
         25    1    1    2    0    0 -0.43195112612E-01  0.50194895506E+02  0.23276838198E+02  0.13669799046E+03  0.12500000000E+03 0.  0.
</event>
<event>
 5    0  0.5452999E-005  0.2990464E+03  0.7546771E-02  0.1085718E+00
         21   -1    0    0  502  501  0.00000000000E+00  0.00000000000E+00  0.51136348295E+03  0.51136348295E+03  0.00000000000E+00 0. -1.
         21   -1    0    0  501  502 -0.00000000000E+00 -0.00000000000E+00 -0.17488293405E+03  0.17488293405E+03  0.00000000000E+00 0.  1.
         25    1    1    2    0    0  0.66195009138E+01  0.95321813324E+01  0.14228092647E+03  0.18974599419E+03  0.12500000000E+03 0.  0.
         25    1    1    2    0    0 -0.13035079610E+02 -0.89314644401E+02 -0.88085929192E+02  0.17757012679E+03  0.12500000000E+03 0.  0.
         25    1    1    2    0    0  0.64155786960E+01  0.79782463069E+02  0.28228555162E+03  0.31893029602E+03  0.12500000000E+03 0.  0.
</event>
<event>
 5    0  0.5452999E-005  0.3750004E+03  0.7546771E-02  0.1052797E+00
         21   -1    0    0  502  501  0.00000000000E+00  0.00000000000E+00  0.13603736320E+04  0.13603736320E+04  0.00000000000E+00 0. -1.
         21   -1    0    0  501  502 -0.00000000000E+00 -0.00000000000E+00 -0.10337254424E+03  0.10337254424E+03  0.00000000000E+00 0. -1.
         25    1    1    2    0    0  0.14141669448E+03  0.55471464103E+02  0.44550541490E+03  0.48700702203E+03  0.12500000000E+03 0.  0.
         25    1    1    2    0    0  0.99625990757E+02 -0.17552337577E+03  0.27264511605E+03  0.36151646267E+03  0.12500000000E+03 0.  0.
         25    1    1    2    0    0 -0.24104268524E+03  0.12005191166E+03  0.53885055681E+03  0.61522269153E+03  0.12500000000E+03 0.  0.
</event>
<event>
 5    0  0.5452999E-005  0.2744711E+03  0.7546771E-02  0.1098748E+00
         21   -1    0    0  502  501  0.00000000000E+00  0.00000000000E+00  0.82926552611E+02  0.82926552611E+02  0.00000000000E+00 0. -1.
         21   -1    0    0  501  502 -0.00000000000E+00 -0.00000000000E+00 -0.90844722508E+03  0.90844722508E+03  0.00000000000E+00 0. -1.
         25    1    1    2    0    0 -0.76950665366E+02 -0.32280281374E+02 -0.64608286141E+02  0.16359294638E+03  0.12500000000E+03 0.  0.
         25    1    1    2    0    0  0.66761247328E+02 -0.18502789196E+02 -0.60358077592E+03  0.62026943372E+03  0.12500000000E+03 0.  0.
         25    1    1    2    0    0  0.10189418038E+02  0.50783070569E+02 -0.15733161041E+03  0.20751139759E+03  0.12500000000E+03 0.  0.
</event>
<event>
 5    0  0.5452999E-005  0.2334335E+03  0.7546771E-02  0.1124246E+00
         21   -1    0    0  502  501  0.00000000000E+00  0.00000000000E+00  0.93559402244E+03  0.93559402244E+03  0.00000000000E+00 0. -1.
         21   -1    0    0  501  502 -0.00000000000E+00 -0.00000000000E+00 -0.58242347187E+02  0.58242347187E+02  0.00000000000E+00 0. -1.
         25    1    1    2    0    0  0.13589663747E+02 -0.12633871821E+02  0.42339854118E+03  0.44185474802E+03  0.12500000000E+03 0.  0.
         25    1    1    2    0    0 -0.41823395695E+01  0.20043938220E+02  0.39200284221E+03  0.41195931805E+03  0.12500000000E+03 0.  0.
         25    1    1    2    0    0 -0.94073241774E+01 -0.74100663992E+01  0.61950291867E+02  0.14002230356E+03  0.12500000000E+03 0.  0.
</event>
<event>
 5    0  0.5452999E-005  0.3162441E+03  0.7546771E-02  0.1077391E+00
         21   -1    0    0  502  501  0.00000000000E+00  0.00000000000E+00  0.53467943611E+02  0.53467943611E+02  0.00000000000E+00 0. -1.
         21   -1    0    0  501  502 -0.00000000000E+00 -0.00000000000E+00 -0.18704730842E+04  0.18704730842E+04  0.00000000000E+00 0. -1.
         25    1    1    2    0    0  0.19975055867E+03 -0.26783436153E+02 -0.84602087116E+03  0.87863186408E+03  0.12500000000E+03 0.  0.
         25    1    1    2    0    0 -0.26874649825E+02  0.97032826561E+02 -0.45797417678E+03  0.48528647501E+03  0.12500000000E+03 0.  0.
         25    1    1    2    0    0 -0.17287590885E+03 -0.70249390408E+02 -0.51301009264E+03  0.56002268870E+03  0.12500000000E+03 0.  0.
</event>
<event>
 5    0  0.5452999E-005  0.3017755E+03  0.7546771E-02  0.1084356E+00
         21   -1    0    0  502  501  0.00000000000E+00  0.00000000000E+00  0.18860478689E+03  0.18860478689E+03  0.00000000000E+00 0. -1.
         21   -1    0    0  501  502 -0.00000000000E+00 -0.00000000000E+00 -0.48285342466E+03  0.48285342466E+03  0.00000000000E+00 0. -1.
         25    1    1    2    0    0  0.10202646116E+03  0.82241460389E+02  0.62478935813E+02  0.19157680967E+03  0.12500000000E+03 0.  0.
         25    1    1    2    0    0 -0.32256628839E+00  0.17920651933E+02 -0.10242747939E+03  0.16259656315E+03  0.12500000000E+03 0.  0.
         25    1    1    2    0    0 -0.10170389487E+03 -0.10016211232E+03 -0.25430009419E+03  0.31728483872E+03  0.12500000000E+03 0.  0.
</event>
<event>
 5    0  0.5452999E-005  0.2698437E+03  0.7546771E-02  0.1101369E+00
         21   -1    0    0  502  501  0.00000000000E+00  0.00000000000E+00  0.83503286400E+03  0.83503286400E+03  0.00000000000E+00 0. -1.
         21   -1    0    0  501  502 -0.00000000000E+00 -0.00000000000E+00 -0.87200887801E+02  0.87200887801E+02  0.00000000000E+00 0. -1.
         25    1    1    2    0    0 -0.15721242771E+03  0.15785933553E+02  0.32624013703E+03  0.38343522287E+03  0.12500000000E+03 0.  0.
         25    1    1    2    0    0  0.64326247996E+02 -0.60002609514E+02  0.11219397691E+03  0.18960661324E+03  0.12500000000E+03 0.  0.
         25    1    1    2    0    0  0.92886179718E+02  0.44216675960E+02  0.30939786225E+03  0.34919191569E+03  0.12500000000E+03 0.  0.
</event>
<event>
 5    0  0.5452999E-005  0.2278379E+03  0.7546771E-02  0.1128171E+00
         21   -1    0    0  502  501  0.00000000000E+00  0.00000000000E+00  0.64130488005E+02  0.64130488005E+02  0.00000000000E+00 0. -1.
         21   -1    0    0  501  502 -0.00000000000E+00 -0.00000000000E+00 -0.80944511128E+03  0.80944511128E+03  0.00000000000E+00 0. -1.
         25    1    1    2    0    0  0.15930400315E+02  0.77747371660E+02 -0.40146554155E+03  0.42789953553E+03  0.12500000000E+03 0.  0.
         25    1    1    2    0    0  0.27962818079E+02 -0.16950682093E+02 -0.21645846859E+03  0.25208830485E+03  0.12500000000E+03 0.  0.
         25    1    1    2    0    0 -0.43893218394E+02 -0.60796689567E+02 -0.12739061314E+03  0.19358775891E+03  0.12500000000E+03 0.  0.
</event>
<event>
 5    0  0.5452999E-005  0.3796681E+03  0.7546771E-02  0.1051056E+00
         21   -1    0    0  502  501  0.00000000000E+00  0.00000000000E+00  0.14339487134E+03  0.14339487134E+03  0.00000000000E+00 0.  1.
         21   -1    0    0  501  502 -0.00000000000E+00 -0.00000000000E+00 -0.10052513587E+04  0.10052513587E+04  0.00000000000E+00 0.  1.
         25    1    1    2    0    0 -0.24010220381E+03 -0.10236252433E+03 -0.13534557067E+03  0.31948486375E+03  0.12500000000E+03 0.  0.
         25    1    1    2    0    0  0.28489173487E+02  0.26158723603E+02 -0.15812340993E+03  0.20524113768E+03  0.12500000000E+03 0.  0.
         25    1    1    2    0    0  0.21161303032E+03  0.76203800728E+02 -0.56838750675E+03  0.62392022862E+03  0.12500000000E+03 0.  0.
</event>
<event>
 5    0  0.5452999E-005  0.3360830E+03  0.7546771E-02  0.1068477E+00
         21   -1    0    0  502  501  0.00000000000E+00  0.00000000000E+00  0.24546801528E+04  0.24546801528E+04  0.00000000000E+00 0. -1.
         21   -1    0    0  501  502 -0.00000000000E+00 -0.00000000000E+00 -0.46014874695E+02  0.46014874695E+02  0.00000000000E+00 0. -1.
         25    1    1    2    0    0 -0.19940363937E+03 -0.93663595045E+02  0.96546801597E+03  0.99814235973E+03  0.12500000000E+03 0.  0.
         25    1    1    2    0    0  0.20806420689E+03 -0.12135945290E+02  0.68532372729E+03  0.72713933090E+03  0.12500000000E+03 0.  0.
         25    1    1    2    0    0 -0.86605675197E+01  0.10579954034E+03  0.75787353488E+03  0.77541333689E+03  0.12500000000E+03 0.  0.
</event>
<event>
 5    0  0.5452999E-005  0.2729139E+03  0.7546771E-02  0.1099623E+00
         21   -1    0    0  502  501  0.00000000000E+00  0.00000000000E+00  0.66165660399E+03  0.66165660399E+03  0.00000000000E+00 0. -1.
         21   -1    0    0  501  502 -0.00000000000E+00 -0.00000000000E+00 -0.11256895915E+03  0.11256895915E+03  0.00000000000E+00 0. -1.
         25    1    1    2    0    0 -0.10521885431E+03  0.12527014477E+03  0.27789430561E+03  0.34585236961E+03  0.12500000000E+03 0.  0.
         25    1    1    2    0    0  0.94683578986E+02 -0.55537560681E+02  0.22038491445E+03  0.27612300030E+03  0.12500000000E+03 0.  0.
         25    1    1    2    0    0  0.10535275324E+02 -0.69732584093E+02  0.50808424768E+02  0.15225019323E+03  0.12500000000E+03 0.  0.
</event>
<event>
 5    0  0.5452999E-005  0.2530635E+03  0.7546771E-02  0.1111384E+00
         21   -1    0    0  502  501  0.00000000000E+00  0.00000000000E+00  0.77658444429E+03  0.77658444429E+03  0.00000000000E+00 0. -1.
         21   -1    0    0  501  502 -0.00000000000E+00 -0.00000000000E+00 -0.82465131616E+02  0.82465131616E+02  0.00000000000E+00 0. -1.
         25    1    1    2    0    0 -0.36410338031E+02  0.26110391732E+02  0.21335994312E+03  0.25130644759E+03  0.12500000000E+03 0.  0.
         25    1    1    2    0    0 -0.41425636319E+01 -0.12445883814E+03  0.12588375686E+03  0.21674612676E+03  0.12500000000E+03 0.  0.
         25    1    1    2    0    0  0.40552901663E+02  0.98348446404E+02  0.35487561269E+03  0.39099700155E+03  0.12500000000E+03 0.  0.
</event>
<event>
 5    0  0.5452999E-005  0.2944951E+03  0.7546771E-02  0.1088025E+00
         21   -1    0    0  502  501  0.00000000000E+00  0.00000000000E+00  0.21825238663E+03  0.21825238663E+03  0.00000000000E+00 0. -1.
         21   -1    0    0  501  502 -0.00000000000E+00 -0.00000000000E+00 -0.39737182249E+03  0.39737182249E+03  0.00000000000E+00 0. -1.
         25    1    1    2    0    0  0.17447757463E+02  0.44123384728E+02 -0.67100326569E+02  0.14959529119E+03  0.12500000000E+03 0.  0.
         25    1    1    2    0    0 -0.60649817917E+02  0.73970989316E+02  0.10241350394E+03  0.18778613757E+03  0.12500000000E+03 0.  0.
         25    1    1    2    0    0  0.43202060454E+02 -0.11809437404E+03 -0.21443261322E+03  0.27824278036E+03  0.12500000000E+03 0.  0.
</event>
<event>
 5    0  0.5452999E-005  0.6910713E+03  0.7546771E-02  0.9732624E-01
         21   -1    0    0  502  501  0.00000000000E+00  0.00000000000E+00  0.73104287241E+03  0.73104287241E+03  0.00000000000E+00 0. -1.
         21   -1    0    0  501  502 -0.00000000000E+00 -0.00000000000E+00 -0.65328527052E+03  0.65328527052E+03  0.00000000000E+00 0. -1.
         25    1    1    2    0    0  0.33775211939E+03  0.36346311364E+03  0.37815357184E+03  0.63624449154E+03  0.12500000000E+03 0.  0.
         25    1    1    2    0    0 -0.74013492138E+02 -0.27268706651E+03  0.14412307733E+02  0.30930397326E+03  0.12500000000E+03 0.  0.
         25    1    1    2    0    0 -0.26373862725E+03 -0.90776047121E+02 -0.31480827768E+03  0.43877967812E+03  0.12500000000E+03 0.  0.
</event>
<event>
 5    0  0.5452999E-005  0.2860445E+03  0.7546771E-02  0.1092433E+00
         21   -1    0    0  502  501  0.00000000000E+00  0.00000000000E+00  0.13911570840E+04  0.13911570840E+04  0.00000000000E+00 0. -1.
         21   -1    0    0  501  502 -0.00000000000E+00 -0.00000000000E+00 -0.58815397986E+02  0.58815397986E+02  0.00000000000E+00 0. -1.
         25    1    1    2    0    0  0.82401585048E+02  0.54165995951E+02  0.17203300826E+03  0.23440207394E+03  0.12500000000E+03 0.  0.
         25    1    1    2    0    0  0.85145719261E+01 -0.26763162045E+02  0.16985617324E+03  0.21275545673E+03  0.12500000000E+03 0.  0.
         25    1    1    2    0    0 -0.90916156974E+02 -0.27402833906E+02  0.99045250448E+03  0.10028149513E+04  0.12500000000E+03 0.  0.
</event>
<event>
 5    0  0.5452999E-005  0.6757157E+03  0.7546771E-02  0.9759687E-01
         21   -1    0    0  502  501  0.00000000000E+00  0.00000000000E+00  0.54380292962E+03  0.54380292962E+03  0.00000000000E+00 0.  1.
         21   -1    0    0  501  502 -0.00000000000E+00 -0.00000000000E+00 -0.83962707258E+03  0.83962707258E+03  0.00000000000E+00 0.  1.
         25    1    1    2    0    0  0.24401830329E+03 -0.23857667926E+03 -0.16146465534E+03  0.39769284524E+03  0.12500000000E+03 0.  0.
         25    1    1    2    0    0 -0.96820849986E+02 -0.27538033575E+03  0.16768583961E+03  0.35909907702E+03  0.12500000000E+03 0.  0.
         25    1    1    2    0    0 -0.14719745330E+03  0.51395701501E+03 -0.30204532723E+03  0.62663807994E+03  0.12500000000E+03 0.  0.
</event>
<event>
 5    0  0.5452999E-005  0.3959166E+03  0.7546771E-02  0.1045203E+00
         21   -1    0    0  502  501  0.00000000000E+00  0.00000000000E+00  0.95678051774E+02  0.95678051774E+02  0.00000000000E+00 0. -1.
         21   -1    0    0  501  502 -0.00000000000E+00 -0.00000000000E+00 -0.16383061048E+04  0.16383061048E+04  0.00000000000E+00 0. -1.
         25    1    1    2    0    0 -0.71665424126E+02 -0.24130024828E+03 -0.10787313456E+04  0.11147412519E+04  0.12500000000E+03 0.  0.
         25    1    1    2    0    0  0.52039080359E+02  0.34362884872E+02 -0.69002687177E+02  0.15580514940E+03  0.12500000000E+03 0.  0.
         25    1    1    2    0    0  0.19626343766E+02  0.20693736341E+03 -0.39489402033E+03  0.46343775530E+03  0.12500000000E+03 0.  0.
</event>
<event>
 5    0  0.5452999E-005  0.3754004E+03  0.7546771E-02  0.1052647E+00
         21   -1    0    0  502  501  0.00000000000E+00  0.00000000000E+00  0.12661059119E+03  0.12661059119E+03  0.00000000000E+00 0.  1.
         21   -1    0    0  501  502 -0.00000000000E+00 -0.00000000000E+00 -0.11130622956E+04  0.11130622956E+04  0.00000000000E+00 0.  1.
         25    1    1    2    0    0  0.60764211915E+01  0.11399714821E+03 -0.80748151491E+03  0.82503555658E+03  0.12500000000E+03 0.  0.
         25    1    1    2    0    0 -0.98422357891E+02  0.27022030614E+02 -0.52898391841E+02  0.16982458753E+03  0.12500000000E+03 0.  0.
         25    1    1    2    0    0  0.92345936699E+02 -0.14101917882E+03 -0.12607179768E+03  0.24481274270E+03  0.12500000000E+03 0.  0.
</event>
<event>
 5    0  0.5452999E-005  0.2658728E+03  0.7546771E-02  0.1103665E+00
         21   -1    0    0  502  501  0.00000000000E+00  0.00000000000E+00  0.26995403665E+03  0.26995403665E+03  0.00000000000E+00 0. -1.
         21   -1    0    0  501  502 -0.00000000000E+00 -0.00000000000E+00 -0.26185319632E+03  0.26185319632E+03  0.00000000000E+00 0. -1.
         25    1    1    2    0    0  0.12770650893E+03  0.65990674953E+02 -0.88276050085E+02  0.20995566823E+03  0.12500000000E+03 0.  0.
         25    1    1    2    0    0 -0.23129188057E+02 -0.52393679478E+02  0.12524382415E+02  0.13806490193E+03  0.12500000000E+03 0.  0.
         25    1    1    2    0    0 -0.10457732087E+03 -0.13596995475E+02  0.83852508004E+02  0.18378666281E+03  0.12500000000E+03 0.  0.
</event>
<event>
 5    0  0.5452999E-005  0.2646484E+03  0.7546771E-02  0.1104382E+00
         21   -1    0    0  502  501  0.00000000000E+00  0.00000000000E+00  0.42988205558E+03  0.42988205558E+03  0.00000000000E+00 0. -1.
         21   -1    0    0  501  502 -0.00000000000E+00 -0.00000000000E+00 -0.16292559076E+03  0.16292559076E+03  0.00000000000E+00 0. -1.
         25    1    1    2    0    0 -0.10673459480E+03  0.95558652411E+02  0.92800907924E+02  0.21156733748E+03  0.12500000000E+03 0.  0.
         25    1    1    2    0    0  0.65674093609E+02  0.33639587953E+02  0.32592340823E+02  0.14876817243E+03  0.12500000000E+03 0.  0.
         25    1    1    2    0    0  0.41060501188E+02 -0.12919824036E+03  0.14156321607E+03  0.23247213643E+03  0.12500000000E+03 0.  0.
</event>
<event>
 5    0  0.5452999E-005  0.2795355E+03  0.7546771E-02  0.1095943E+00
         21   -1    0    0  502  501  0.00000000000E+00  0.00000000000E+00  0.88696530461E+02  0.88696530461E+02  0.00000000000E+00 0. -1.
         21   -1    0    0  501  502 -0.00000000000E+00 -0.00000000000E+00 -0.88098260149E+03  0.88098260149E+03  0.00000000000E+00 0. -1.
         25    1    1    2    0    0  0.14717277503E+03 -0.27400576172E+02 -0.16797073046E+03  0.25739033311E+03  0.12500000000E+03 0.  0.
         25    1    1    2    0    0 -0.11514118121E+03 -0.46447900513E+02 -0.44953590251E+03  0.48282753310E+03  0.12500000000E+03 0.  0.
         25    1    1    2    0    0 -0.32031593814E+02  0.73848476685E+02 -0.17477943805E+03  0.22946126574E+03  0.12500000000E+03 0.  0.
</event>
<event>
 5    0  0.5452999E-005  0.5218010E+03  0.7546771E-02  0.1008240E+00
         21   -1    0    0  502  501  0.00000000000E+00  0.00000000000E+00  0.18897619622E+03  0.18897619622E+03  0.00000000000E+00 0. -1.
         21   -1    0    0  501  502 -0.00000000000E+00 -0.00000000000E+00 -0.14407969871E+04  0.14407969871E+04  0.00000000000E+00 0. -1.
         25    1    1    2    0    0  0.10457283160E+03 -0.11856075595E+02 -0.68864914728E+03  0.70777022520E+03  0.12500000000E+03 0.  0.
         25    1    1    2    0    0  0.56766583905E+02  0.29294610679E+03 -0.45478107690E+03  0.55811351394E+03  0.12500000000E+03 0.  0.
         25    1    1    2    0    0 -0.16133941551E+03 -0.28109003119E+03 -0.10839056669E+03  0.36388944417E+03  0.12500000000E+03 0.  0.
</event>
<event>
 5    0  0.5452999E-005  0.2321356E+03  0.7546771E-02  0.1125146E+00
         21   -1    0    0  502  501  0.00000000000E+00  0.00000000000E+00  0.37902719021E+03  0.37902719021E+03  0.00000000000E+00 0.  1.
         21   -1    0    0  501  502 -0.00000000000E+00 -0.00000000000E+00 -0.14217170935E+03  0.14217170935E+03  0.00000000000E+00 0.  1.
         25    1    1    2    0    0 -0.11812724451E+02  0.44699245149E+02 -0.22650668819E+02  0.13518733585E+03  0.12500000000E+03 0.  0.
         25    1    1    2    0    0 -0.56736967081E+02 -0.29654509290E+02  0.10581469113E+03  0.17584146898E+03  0.12500000000E+03 0.  0.
         25    1    1    2    0    0  0.68549691532E+02 -0.15044735858E+02  0.15369145856E+03  0.21017009473E+03  0.12500000000E+03 0.  0.
</event>
<event>
 5    0  0.5452999E-005  0.2595704E+03  0.7546771E-02  0.1107402E+00
         21   -1    0    0  502  501  0.00000000000E+00  0.00000000000E+00  0.81725946665E+02  0.81725946665E+02  0.00000000000E+00 0. -1.
         21   -1    0    0  501  502 -0.00000000000E+00 -0.00000000000E+00 -0.82442329595E+03  0.82442329595E+03  0.00000000000E+00 0. -1.
         25    1    1    2    0    0  0.64692266179E+02 -0.88667692980E+02 -0.10634235632E+03  0.19743542192E+03  0.12500000000E+03 0.  0.
         25    1    1    2    0    0 -0.51167711840E+01  0.10591727962E+03 -0.26039908783E+03  0.30769682549E+03  0.12500000000E+03 0.  0.
         25    1    1    2    0    0 -0.59575494995E+02 -0.17249586639E+02 -0.37595590513E+03  0.40101699521E+03  0.12500000000E+03 0.  0.
</event>
<event>
 5    0  0.5452999E-005  0.2185347E+03  0.7546771E-02  0.1134980E+00
         21   -1    0    0  502  501  0.00000000000E+00  0.00000000000E+00  0.31697133449E+03  0.31697133449E+03  0.00000000000E+00 0.  1.
         21   -1    0    0  501  502 -0.00000000000E+00 -0.00000000000E+00 -0.15066796671E+03  0.15066796671E+03  0.00000000000E+00 0.  1.
         25    1    1    2    0    0 -0.17825644774E+02  0.16860377514E+02  0.30376641819E+02  0.13095711630E+03  0.12500000000E+03 0.  0.
         25    1    1    2    0    0  0.44810687746E+02  0.58080259308E+02  0.15606875382E+02  0.14577341602E+03  0.12500000000E+03 0.  0.
         25    1    1    2    0    0 -0.26985042972E+02 -0.74940636822E+02  0.12031985058E+03  0.19090876888E+03  0.12500000000E+03 0.  0.
</event>
<event>
 5    0  0.5452999E-005  0.3564118E+03  0.7546771E-02  0.1060014E+00
         21   -1    0    0  502  501  0.00000000000E+00  0.00000000000E+00  0.18587065852E+03  0.18587065852E+03  0.00000000000E+00 0.  1.
         21   -1    0    0  501  502 -0.00000000000E+00 -0.00000000000E+00 -0.68342894637E+03  0.68342894637E+03  0.00000000000E+00 0.  1.
         25    1    1    2    0    0  0.15943131980E+03  0.44501545871E+02 -0.42412063575E+02  0.21171328833E+03  0.12500000000E+03 0.  0.
         25    1    1    2    0    0 -0.51378530912E+02 -0.89316354436E+02  0.96323489850E+01  0.16228045710E+03  0.12500000000E+03 0.  0.
         25    1    1    2    0    0 -0.10805278889E+03  0.44814808565E+02 -0.46477857326E+03  0.49530585946E+03  0.12500000000E+03 0.  0.
</event>
<event>
 5    0  0.5452999E-005  0.3846538E+03  0.7546771E-02  0.1049227E+00
         21   -1    0    0  502  501  0.00000000000E+00  0.00000000000E+00  0.13352465516E+03  0.13352465516E+03  0.00000000000E+00 0. -1.
         21   -1    0    0  501  502 -0.00000000000E+00 -0.00000000000E+00 -0.11080990469E+04  0.11080990469E+04  0.00000000000E+00 0. -1.
         25    1    1    2    0    0  0.35598901887E+02  0.31101155825E+03 -0.37891381975E+03  0.50714510150E+03  0.12500000000E+03 0.  0.
         25    1    1    2    0    0 -0.63966381971E+02 -0.77810148183E+02 -0.18273189459E+03  0.24323252760E+03  0.12500000000E+03 0.  0.
         25    1    1    2    0    0  0.28367480085E+02 -0.23320141007E+03 -0.41292867743E+03  0.49124607299E+03  0.12500000000E+03 0.  0.
</event>
<event>
 5    0  0.5452999E-005  0.2690304E+03  0.7546771E-02  0.1101836E+00
         21   -1    0    0  502  501  0.00000000000E+00  0.00000000000E+00  0.81595079007E+03  0.81595079007E+03  0.00000000000E+00 0. -1.
         21   -1    0    0  501  502 -0.00000000000E+00 -0.00000000000E+00 -0.88703079210E+02  0.88703079210E+02  0.00000000000E+00 0. -1.
         25    1    1    2    0    0  0.18246984979E+02  0.13836712271E+03  0.27799785650E+03  0.33524054249E+03  0.12500000000E+03 0.  0.
         25    1    1    2    0    0 -0.47641605313E+01  0.35842310876E+02  0.21707947988E+03  0.25309260965E+03  0.12500000000E+03 0.  0.
         25    1    1    2    0    0 -0.13482824448E+02 -0.17420943359E+03  0.23217037447E+03  0.31632071714E+03  0.12500000000E+03 0.  0.
</event>
<event>
 5    0  0.5452999E-005  0.4404052E+03  0.7546771E-02  0.1030623E+00
         21   -1    0    0  502  501  0.00000000000E+00  0.00000000000E+00  0.53745254846E+03  0.53745254846E+03  0.00000000000E+00 0. -1.
         21   -1    0    0  501  502 -0.00000000000E+00 -0.00000000000E+00 -0.36088161215E+03  0.36088161215E+03  0.00000000000E+00 0. -1.
         25    1    1    2    0    0  0.72650504896E+02  0.34202783680E+02  0.45206889290E+03  0.47585629154E+03  0.12500000000E+03 0.  0.
         25    1    1    2    0    0 -0.78864972977E+02  0.61364844396E+02 -0.11101137502E+03  0.19476615074E+03  0.12500000000E+03 0.  0.
         25    1    1    2    0    0  0.62144680813E+01 -0.95567628076E+02 -0.16448658157E+03  0.22771171833E+03  0.12500000000E+03 0.  0.
</event>
<event>
 5    0  0.5452999E-005  0.3043580E+03  0.7546771E-02  0.1083082E+00
         21   -1    0    0  502  501  0.00000000000E+00  0.00000000000E+00  0.58005198871E+02  0.58005198871E+02  0.00000000000E+00 0. -1.
         21   -1    0    0  501  502 -0.00000000000E+00 -0.00000000000E+00 -0.15969915503E+04  0.15969915503E+04  0.00000000000E+00 0. -1.
         25    1    1    2    0    0 -0.85733588233E+02 -0.93697685597E+01 -0.39885128395E+03  0.42678494282E+03  0.12500000000E+03 0.  0.
         25    1    1    2    0    0 -0.41879637131E+02  0.12527219407E+02 -0.97807607996E+03  0.98699982443E+03  0.12500000000E+03 0.  0.
         25    1    1    2    0    0  0.12761322536E+03 -0.31574508470E+01 -0.16205898752E+03  0.24121198191E+03  0.12500000000E+03 0.  0.
</event>
<event>
 5    0  0.5452999E-005  0.2379341E+03  0.7546771E-02  0.1121177E+00
         21   -1    0    0  502  501  0.00000000000E+00  0.00000000000E+00  0.90028575556E+02  0.90028575556E+02  0.00000000000E+00 0.  1.
         21   -1    0    0  501  502 -0.00000000000E+00 -0.00000000000E+00 -0.62882949277E+03  0.62882949277E+03  0.00000000000E+00 0.  1.
         25    1    1    2    0    0 -0.92780955606E+02  0.22565218823E+02 -0.25399136970E+03  0.29875426475E+03  0.12500000000E+03 0.  0.
         25    1    1    2    0    0 -0.17899452912E+02 -0.66158382499E+01 -0.18764192008E+03  0.22627118663E+03  0.12500000000E+03 0.  0.
         25    1    1    2    0    0  0.11068040852E+03 -0.15949380573E+02 -0.97167627443E+02  0.19383261695E+03  0.12500000000E+03 0.  0.
</event>
<event>
 5    0  0.5452999E-005  0.3979160E+03  0.7546771E-02  0.1044504E+00
         21   -1    0    0  502  501  0.00000000000E+00  0.00000000000E+00  0.20228061587E+03  0.20228061587E+03  0.00000000000E+00 0. -1.
         21   -1    0    0  501  502 -0.00000000000E+00 -0.00000000000E+00 -0.78275965749E+03  0.78275965749E+03  0.00000000000E+00 0. -1.
         25    1    1    2    0    0  0.91979288005E+02  0.52298773824E+02 -0.90467619049E+02  0.18709554046E+03  0.12500000000E+03 0.  0.
         25    1    1    2    0    0  0.15540620171E+03 -0.19932523734E+03 -0.36254248698E+03  0.45928606841E+03  0.12500000000E+03 0.  0.
         25    1    1    2    0    0 -0.24738548971E+03  0.14702646351E+03 -0.12746893559E+03  0.33865866449E+03  0.12500000000E+03 0.  0.
</event>
<event>
 5    0  0.5452999E-005  0.2312636E+03  0.7546771E-02  0.1125754E+00
         21   -1    0    0  502  501  0.00000000000E+00  0.00000000000E+00  0.32937528505E+02  0.32937528505E+02  0.00000000000E+00 0.  1.
         21   -1    0    0  501  502 -0.00000000000E+00 -0.00000000000E+00 -0.16237657350E+04  0.16237657350E+04  0.00000000000E+00 0.  1.
         25    1    1    2    0    0  0.33219947541E+02 -0.99262405359E+02 -0.49265620297E+03  0.51893325617E+03  0.12500000000E+03 0.  0.
         25    1    1    2    0    0 -0.31576019262E+02 -0.92979125069E+01 -0.55893464207E+03  0.57368670045E+03  0.12500000000E+03 0.  0.
         25    1    1    2    0    0 -0.16439282793E+01  0.10856031787E+03 -0.53923736141E+03  0.56408330684E+03  0.12500000000E+03 0.  0.
</event>
<event>
 5    0  0.5452999E-005  0.3711441E+03  0.7546771E-02  0.1054256E+00
         21   -1    0    0  502  501  0.00000000000E+00  0.00000000000E+00  0.15848154932E+04  0.15848154932E+04  0.00000000000E+00 0.  1.
         21   -1    0    0  501  502 -0.00000000000E+00 -0.00000000000E+00 -0.86917332231E+02  0.86917332231E+02  0.00000000000E+00 0.  1.
         25    1    1    2    0    0 -0.97302661973E+02  0.10071963513E+02  0.88728726814E+02  0.18184344761E+03  0.12500000000E+03 0.  0.
         25    1    1    2    0    0 -0.25053806577E+02  0.15685198012E+03  0.35654311419E+03  0.40985147208E+03  0.12500000000E+03 0.  0.
         25    1    1    2    0    0  0.12235646855E+03 -0.16692394363E+03  0.10526263199E+04  0.10800379057E+04  0.12500000000E+03 0.  0.
</event>
<event>
 5    0  0.5452999E-005  0.2475236E+03  0.7546771E-02  0.1114880E+00
         21   -1    0    0  502  501  0.00000000000E+00  0.00000000000E+00  0.33556362145E+03  0.33556362145E+03  0.00000000000E+00 0.  1.
         21   -1    0    0  501  502 -0.00000000000E+00 -0.00000000000E+00 -0.18258212054E+03  0.18258212054E+03  0.00000000000E+00 0.  1.
         25    1    1    2    0    0  0.14691215940E+02 -0.50617038271E+01 -0.96939647687E+02  0.15894573906E+03  0.12500000000E+03 0.  0.
         25    1    1    2    0    0  0.29358197935E+01  0.22842521027E+02  0.15389760400E+03  0.19959927936E+03  0.12500000000E+03 0.  0.
         25    1    1    2    0    0 -0.17627035733E+02 -0.17780817200E+02  0.96023544599E+02  0.15960072358E+03  0.12500000000E+03 0.  0.
</event>
<event>
 5    0  0.5452999E-005  0.2759769E+03  0.7546771E-02  0.1097907E+00
         21   -1    0    0  502  501  0.00000000000E+00  0.00000000000E+00  0.64269479305E+02  0.64269479305E+02  0.00000000000E+00 0.  1.
         21   -1    0    0  501  502 -0.00000000000E+00 -0.00000000000E+00 -0.11850609784E+04  0.11850609784E+04  0.00000000000E+00 0.  1.
         25    1    1    2    0    0  0.67420496073E+01  0.94749609896E+02 -0.42100826874E+03  0.44932828328E+03  0.12500000000E+03 0.  0.
         25    1    1    2    0    0  0.64038669144E+01  0.46403354212E+02 -0.52794853187E+03  0.54456306623E+03  0.12500000000E+03 0.  0.
         25    1    1    2    0    0 -0.13145916522E+02 -0.14115296411E+03 -0.17183469851E+03  0.25543910822E+03  0.12500000000E+03 0.  0.
</event>
<event>
 5    0  0.5452999E-005  0.3173915E+03  0.7546771E-02  0.1076856E+00
         21   -1    0    0  502  501  0.00000000000E+00  0.00000000000E+00  0.19818788827E+03  0.19818788827E+03  0.00000000000E+00 0. -1.
         21   -1    0    0  501  502 -0.00000000000E+00 -0.00000000000E+00 -0.50829210247E+03  0.50829210247E+03  0.00000000000E+00 0. -1.
         25    1    1    2    0    0  0.15632907245E+03  0.71795222284E+02 -0.15711656845E+03  0.26439354931E+03  0.12500000000E+03 0.  0.
         25    1    1    2    0    0  0.44051848090E+02  0.49324755827E+01  0.27059452770E+02  0.13535918373E+03  0.12500000000E+03 0.  0.
         25    1    1    2    0    0 -0.20038092054E+03 -0.76727697867E+02 -0.18004709851E+03  0.30672725770E+03  0.12500000000E+03 0.  0.
</event>
<event>
 5    0  0.5452999E-005  0.2925846E+03  0.7546771E-02  0.1089007E+00
         21   -1    0    0  502  501  0.00000000000E+00  0.00000000000E+00  0.60977099708E+03  0.60977099708E+03  0.00000000000E+00 0. -1.
         21   -1    0    0  501  502 -0.00000000000E+00 -0.00000000000E+00 -0.14039002004E+03  0.14039002004E+03  0.00000000000E+00 0. -1.
         25    1    1    2    0    0  0.33667485243E+02 -0.64349239115E+02  0.18349499149E+03  0.23360166103E+03  0.12500000000E+03 0.  0.
         25    1    1    2    0    0 -0.39456495210E+01  0.15614715972E+03  0.12004015933E+02  0.20041606732E+03  0.12500000000E+03 0.  0.
         25    1    1    2    0    0 -0.29721835722E+02 -0.91797920609E+02  0.27388196963E+03  0.31614328877E+03  0.12500000000E+03 0.  0.
</event>
<event>
 5    0  0.5452999E-005  0.3112432E+03  0.7546771E-02  0.1079752E+00
         21   -1    0    0  502  501  0.00000000000E+00  0.00000000000E+00  0.10868959589E+03  0.10868959589E+03  0.00000000000E+00 0. -1.
         21   -1    0    0  501  502 -0.00000000000E+00 -0.00000000000E+00 -0.89127500384E+03  0.89127500384E+03  0.00000000000E+00 0. -1.
         25    1    1    2    0    0  0.44880382262E+02 -0.18670728269E+03 -0.21285037201E+03  0.31273653286E+03  0.12500000000E+03 0.  0.
         25    1    1    2    0    0  0.46644445493E+02  0.91474246303E+02 -0.11790600384E+03  0.20017509279E+03  0.12500000000E+03 0.  0.
         25    1    1    2    0    0 -0.91524827755E+02  0.95233036383E+02 -0.45182903210E+03  0.48705297409E+03  0.12500000000E+03 0.  0.
</event>
<event>
 5    0  0.5452999E-005  0.3350138E+03  0.7546771E-02  0.1068940E+00
         21   -1    0    0  502  501  0.00000000000E+00  0.00000000000E+00  0.63127518601E+03  0.63127518601E+03  0.00000000000E+00 0.  1.
         21   -1    0    0  501  502 -0.00000000000E+00 -0.00000000000E+00 -0.17778974081E+03  0.17778974081E+03  0.00000000000E+00 0.  1.
         25    1    1    2    0    0  0.10298288493E+03  0.37729122776E+02  0.14048479435E+03  0.21769230289E+03  0.12500000000E+03 0.  0.
         25    1    1    2    0    0 -0.16371340456E+02 -0.22556936534E+03  0.13769013068E+03  0.29280220535E+03  0.12500000000E+03 0.  0.
         25    1    1    2    0    0 -0.86611544478E+02  0.18784024257E+03  0.17531052018E+03  0.29857041858E+03  0.12500000000E+03 0.  0.
</event>
<event>
 5    0  0.5452999E-005  0.2502799E+03  0.7546771E-02  0.1113128E+00
         21   -1    0    0  502  501  0.00000000000E+00  0.00000000000E+00  0.77210713656E+02  0.77210713656E+02  0.00000000000E+00 0.  1.
         21   -1    0    0  501  502 -0.00000000000E+00 -0.00000000000E+00 -0.81128699167E+03  0.81128699167E+03  0.00000000000E+00 0.  1.
         25    1    1    2    0    0 -0.11845652363E+03  0.31940470165E+02 -0.21056865744E+03  0.27389103877E+03  0.12500000000E+03 0.  0.
         25    1    1    2    0    0  0.94363325552E+02  0.31293834338E+01 -0.41539246599E+03  0.44394834277E+03  0.12500000000E+03 0.  0.
         25    1    1    2    0    0  0.24093198075E+02 -0.35069853599E+02 -0.10811515459E+03  0.17065832378E+03  0.12500000000E+03 0.  0.
</event>
<event>
 5    0  0.5452999E-005  0.4395473E+03  0.7546771E-02  0.1030886E+00
         21   -1    0    0  502  501  0.00000000000E+00  0.00000000000E+00  0.11799240716E+03  0.11799240716E+03  0.00000000000E+00 0.  1.
         21   -1    0    0  501  502 -0.00000000000E+00 -0.00000000000E+00 -0.16374089028E+04  0.16374089028E+04  0.00000000000E+00 0.  1.
         25    1    1    2    0    0 -0.37691121433E+02  0.20980002394E+03 -0.57078898258E+03  0.62198210048E+03  0.12500000000E+03 0.  0.
         25    1    1    2    0    0  0.31706807607E+02  0.12345264567E+03 -0.63291807007E+03  0.65761399072E+03  0.12500000000E+03 0.  0.
         25    1    1    2    0    0  0.59843138266E+01 -0.33325266961E+03 -0.31570944304E+03  0.47580521880E+03  0.12500000000E+03 0.  0.
</event>
<event>
 5    0  0.5452999E-005  0.2693518E+03  0.7546771E-02  0.1101651E+00
         21   -1    0    0  502  501  0.00000000000E+00  0.00000000000E+00  0.26804191324E+03  0.26804191324E+03  0.00000000000E+00 0. -1.
         21   -1    0    0  501  502 -0.00000000000E+00 -0.00000000000E+00 -0.27066806590E+03  0.27066806590E+03  0.00000000000E+00 0. -1.
         25    1    1    2    0    0  0.60513914581E+02  0.47140772493E+02 -0.98600163615E+02  0.17672345219E+03  0.12500000000E+03 0.  0.
         25    1    1    2    0    0  0.49001783648E+02  0.54537816330E+02  0.82361944773E+02  0.16668544675E+03  0.12500000000E+03 0.  0.
         25    1    1    2    0    0 -0.10951569823E+03 -0.10167858882E+03  0.13612066183E+02  0.19530108021E+03  0.12500000000E+03 0.  0.
</event>
<event>
 5    0  0.5452999E-005  0.5240057E+03  0.7546771E-02  0.1007696E+00
         21   -1    0    0  502  501  0.00000000000E+00  0.00000000000E+00  0.12919002827E+03  0.12919002827E+03  0.00000000000E+00 0.  1.
         21   -1    0    0  501  502 -0.00000000000E+00 -0.00000000000E+00 -0.21254111890E+04  0.21254111890E+04  0.00000000000E+00 0.  1.
         25    1    1    2    0    0  0.21084369029E+03  0.45523431914E+02 -0.25945299154E+03  0.35981703601E+03  0.12500000000E+03 0.  0.
         25    1    1    2    0    0  0.23419128088E+03 -0.66662447192E+02 -0.87263517575E+03  0.91455267091E+03  0.12500000000E+03 0.  0.
         25    1    1    2    0    0 -0.44503497117E+03  0.21139015279E+02 -0.86413299344E+03  0.98023151035E+03  0.12500000000E+03 0.  0.
</event>
<event>
 5    0  0.5452999E-005  0.2426983E+03  0.7546771E-02  0.1118008E+00
         21   -1    0    0  502  501  0.00000000000E+00  0.00000000000E+00  0.20296180863E+03  0.20296180863E+03  0.00000000000E+00 0. -1.
         21   -1    0    0  501  502 -0.00000000000E+00 -0.00000000000E+00 -0.29021460927E+03  0.29021460927E+03  0.00000000000E+00 0. -1.
         25    1    1    2    0    0  0.57728264773E+02  0.11008445234E+03 -0.31610334114E+02  0.17909593078E+03  0.12500000000E+03 0.  0.
         25    1    1    2    0    0 -0.15429256734E+02 -0.11141780847E+03 -0.68313257535E+02  0.18150397010E+03  0.12500000000E+03 0.  0.
         25    1    1    2    0    0 -0.42299008040E+02  0.13333561348E+01  0.12670791010E+02  0.13257651702E+03  0.12500000000E+03 0.  0.
</event>
<event>
 5    0  0.5452999E-005  0.4266435E+03  0.7546771E-02  0.1034926E+00
         21   -1    0    0  502  501  0.00000000000E+00  0.00000000000E+00  0.17936048858E+04  0.17936048858E+04  0.00000000000E+00 0. -1.
         21   -1    0    0  501  502 -0.00000000000E+00 -0.00000000000E+00 -0.10148538171E+03  0.10148538171E+03  0.00000000000E+00 0. -1.
         25    1    1    2    0    0  0.19615029824E+03 -0.23395595521E+02  0.10175557232E+04  0.10440627104E+04  0.12500000000E+03 0.  0.
         25    1    1    2    0    0 -0.18967928932E+03 -0.86586004392E+02  0.63475489103E+03  0.67971622067E+03  0.12500000000E+03 0.  0.
         25    1    1    2    0    0 -0.64710089191E+01  0.10998159991E+03  0.39808889817E+02  0.17131133641E+03  0.12500000000E+03 0.  0.
</event>
<event>
 5    0  0.5452999E-005  0.3963391E+03  0.7546771E-02  0.1045055E+00
         21   -1    0    0  502  501  0.00000000000E+00  0.00000000000E+00  0.10004004396E+04  0.10004004396E+04  0.00000000000E+00 0. -1.
         21   -1    0    0  501  502 -0.00000000000E+00 -0.00000000000E+00 -0.15702176675E+03  0.15702176675E+03  0.00000000000E+00 0. -1.
         25    1    1    2    0    0 -0.67821010447E+02  0.28066978320E+02 -0.93212431956E+02  0.17233978705E+03  0.12500000000E+03 0.  0.
         25    1    1    2    0    0  0.11154739364E+03 -0.20293239077E+02  0.44558272745E+03  0.47646993985E+03  0.12500000000E+03 0.  0.
         25    1    1    2    0    0 -0.43726383195E+02 -0.77737392431E+01  0.49100837737E+03  0.50861247946E+03  0.12500000000E+03 0.  0.
</event>
<event>
 5    0  0.5452999E-005  0.2625228E+03  0.7546771E-02  0.1105637E+00
         21   -1    0    0  502  501  0.00000000000E+00  0.00000000000E+00  0.25786075157E+03  0.25786075157E+03  0.00000000000E+00 0. -1.
         21   -1    0    0  501  502 -0.00000000000E+00 -0.00000000000E+00 -0.26726907105E+03  0.26726907105E+03  0.00000000000E+00 0. -1.
         25    1    1    2    0    0 -0.27593457883E+02  0.33149939057E+02 -0.60231694021E+02  0.14530373134E+03  0.12500000000E+03 0.  0.
         25    1    1    2    0    0  0.24264497605E+02  0.12055252267E+03  0.47452745513E+02  0.18165472640E+03  0.12500000000E+03 0.  0.
         25    1    1    2    0    0  0.33289602782E+01 -0.15370246173E+03  0.33706290241E+01  0.19817136488E+03  0.12500000000E+03 0.  0.
</event>
<event>
 5    0  0.5452999E-005  0.2384134E+03  0.7546771E-02  0.1120854E+00
         21   -1    0    0  502  501  0.00000000000E+00  0.00000000000E+00  0.60128441862E+03  0.60128441862E+03  0.00000000000E+00 0.  1.
         21   -1    0    0  501  502 -0.00000000000E+00 -0.00000000000E+00 -0.94532524077E+02  0.94532524077E+02  0.00000000000E+00 0.  1.
         25    1    1    2    0    0  0.21862553275E+02  0.82907865118E+02  0.10595328977E+03  0.18493994957E+03  0.12500000000E+03 0.  0.
         25    1    1    2    0    0  0.15413350871E+02  0.41680875227E+02  0.20928910614E+03  0.24779385928E+03  0.12500000000E+03 0.  0.
         25    1    1    2    0    0 -0.37275904146E+02 -0.12458874034E+03  0.19150949863E+03  0.26308313385E+03  0.12500000000E+03 0.  0.
</event>
<event>
 5    0  0.5660513E-005  0.2693412E+03  0.7546771E-02  0.1101657E+00
         21   -1    0    0  502  501  0.00000000000E+00  0.00000000000E+00  0.51499280417E+02  0.51499280417E+02  0.00000000000E+00 0.  1.
         21   -1    0    0  501  502 -0.00000000000E+00 -0.00000000000E+00 -0.14086546681E+04  0.14086546681E+04  0.00000000000E+00 0.  1.
         25    1    1    2    0    0 -0.21243682347E+02  0.73663482755E+02 -0.31859196901E+03  0.35071847036E+03  0.12500000000E+03 0.  0.
         25    1    1    2    0    0 -0.18877502948E+02  0.68706721259E+02 -0.73792948076E+03  0.75182570602E+03  0.12500000000E+03 0.  0.
         25    1    1    2    0    0  0.40121185295E+02 -0.14237020401E+03 -0.30063393789E+03  0.35760977211E+03  0.12500000000E+03 0.  0.
</event>
<event>
 5    0  0.5452999E-005  0.3912991E+03  0.7546771E-02  0.1046835E+00
         21   -1    0    0  502  501  0.00000000000E+00  0.00000000000E+00  0.18038832743E+04  0.18038832743E+04  0.00000000000E+00 0. -1.
         21   -1    0    0  501  502 -0.00000000000E+00 -0.00000000000E+00 -0.84880781154E+02  0.84880781154E+02  0.00000000000E+00 0. -1.
         25    1    1    2    0    0  0.14727103824E+02 -0.10274095529E+03  0.96733068480E+03  0.98088034196E+03  0.12500000000E+03 0.  0.
         25    1    1    2    0    0  0.21752781793E+02  0.20897477285E+03  0.68459801336E+03  0.72694090482E+03  0.12500000000E+03 0.  0.
         25    1    1    2    0    0 -0.36479885616E+02 -0.10623381756E+03  0.67073795025E+02  0.18094280872E+03  0.12500000000E+03 0.  0.
</event>
<event>
 5    0  0.5452999E-005  0.3052073E+03  0.7546771E-02  0.1082666E+00
         21   -1    0    0  502  501  0.00000000000E+00  0.00000000000E+00  0.61827140287E+03  0.61827140287E+03  0.00000000000E+00 0.  1.
         21   -1    0    0  501  502 -0.00000000000E+00 -0.00000000000E+00 -0.15066439382E+03  0.15066439382E+03  0.00000000000E+00 0.  1.
         25    1    1    2    0    0  0.31736563447E+02 -0.88695345466E+02  0.10316650083E+03  0.18746306479E+03  0.12500000000E+03 0.  0.
         25    1    1    2    0    0 -0.15209205479E+02  0.18209340068E+03  0.45493985023E+02  0.22601776296E+03  0.12500000000E+03 0.  0.
         25    1    1    2    0    0 -0.16527357967E+02 -0.93398055211E+02  0.31894652320E+03  0.35545496893E+03  0.12500000000E+03 0.  0.
</event>
<event>
 5    0  0.5452999E-005  0.3527669E+03  0.7546771E-02  0.1061485E+00
         21   -1    0    0  502  501  0.00000000000E+00  0.00000000000E+00  0.14079989198E+04  0.14079989198E+04  0.00000000000E+00 0.  1.
         21   -1    0    0  501  502 -0.00000000000E+00 -0.00000000000E+00 -0.88383922409E+02  0.88383922409E+02  0.00000000000E+00 0.  1.
         25    1    1    2    0    0 -0.16697295066E+02  0.22692218527E+03  0.92928117659E+03  0.96486319393E+03  0.12500000000E+03 0.  0.
         25    1    1    2    0    0 -0.30249143411E+02 -0.17300319904E+03  0.21255719419E+03  0.30273863043E+03  0.12500000000E+03 0.  0.
         25    1    1    2    0    0  0.46946438477E+02 -0.53918986235E+02  0.17777662665E+03  0.22878101788E+03  0.12500000000E+03 0.  0.
</event>
<event>
 5    0  0.5452999E-005  0.2411918E+03  0.7546771E-02  0.1119001E+00
         21   -1    0    0  502  501  0.00000000000E+00  0.00000000000E+00  0.26361482034E+03  0.26361482034E+03  0.00000000000E+00 0. -1.
         21   -1    0    0  501  502 -0.00000000000E+00 -0.00000000000E+00 -0.22067601903E+03  0.22067601903E+03  0.00000000000E+00 0. -1.
         25    1    1    2    0    0  0.71769778303E+02  0.92865474109E+02 -0.52398407427E+02  0.17929163522E+03  0.12500000000E+03 0.  0.
         25    1    1    2    0    0 -0.27026597543E+02 -0.80493296930E+02  0.79420224761E+02  0.17071080788E+03  0.12500000000E+03 0.  0.
         25    1    1    2    0    0 -0.44743180760E+02 -0.12372177179E+02  0.15916983978E+02  0.13428839627E+03  0.12500000000E+03 0.  0.
</event>
<event>
 5    0  0.5452999E-005  0.3269949E+03  0.7546771E-02  0.1072474E+00
         21   -1    0    0  502  501  0.00000000000E+00  0.00000000000E+00  0.73151580112E+02  0.73151580112E+02  0.00000000000E+00 0. -1.
         21   -1    0    0  501  502 -0.00000000000E+00 -0.00000000000E+00 -0.14617003700E+04  0.14617003700E+04  0.00000000000E+00 0. -1.
         25    1    1    2    0    0 -0.76421034059E+02 -0.64522968331E+02 -0.19703658895E+03  0.25387360098E+03  0.12500000000E+03 0.  0.
         25    1    1    2    0    0  0.56336946396E+02  0.12601289418E+03 -0.10940414717E+04  0.11097769338E+04  0.12500000000E+03 0.  0.
         25    1    1    2    0    0  0.20084087663E+02 -0.61489925844E+02 -0.97470729300E+02  0.17120141538E+03  0.12500000000E+03 0.  0.
</event>
<event>
 5    0  0.5452999E-005  0.3305255E+03  0.7546771E-02  0.1070905E+00
         21   -1    0    0  502  501  0.00000000000E+00  0.00000000000E+00  0.31712712981E+03  0.31712712981E+03  0.00000000000E+00 0.  1.
         21   -1    0    0  501  502 -0.00000000000E+00 -0.00000000000E+00 -0.34448996561E+03  0.34448996561E+03  0.00000000000E+00 0.  1.
         25    1    1    2    0    0 -0.73345883535E+02 -0.12846153621E+03  0.19337847379E+03  0.27368269774E+03  0.12500000000E+03 0.  0.
         25    1    1    2    0    0  0.22431503383E+02  0.10222883630E+03 -0.18354541801E+03  0.24549506673E+03  0.12500000000E+03 0.  0.
         25    1    1    2    0    0  0.50914380152E+02  0.26232699909E+02 -0.37195891581E+02  0.14243933095E+03  0.12500000000E+03 0.  0.
</event>
<event>
 5    0  0.5452999E-005  0.4705886E+03  0.7546771E-02  0.1021754E+00
         21   -1    0    0  502  501  0.00000000000E+00  0.00000000000E+00  0.49691349796E+03  0.49691349796E+03  0.00000000000E+00 0.  1.
         21   -1    0    0  501  502 -0.00000000000E+00 -0.00000000000E+00 -0.44565833706E+03  0.44565833706E+03  0.00000000000E+00 0.  1.
         25    1    1    2    0    0 -0.26481340189E+02  0.10190488332E+03 -0.21837544037E+03  0.27276125014E+03  0.12500000000E+03 0.  0.
         25    1    1    2    0    0  0.24656859078E+02 -0.21149992313E+03  0.39206873242E+03  0.46333904339E+03  0.12500000000E+03 0.  0.
         25    1    1    2    0    0  0.18244811107E+01  0.10959503981E+03 -0.12243813115E+03  0.20647154148E+03  0.12500000000E+03 0.  0.
</event>
<event>
 5    0  0.5452999E-005  0.2903441E+03  0.7546771E-02  0.1090170E+00
         21   -1    0    0  502  501  0.00000000000E+00  0.00000000000E+00  0.32658957108E+02  0.32658957108E+02  0.00000000000E+00 0. -1.
         21   -1    0    0  501  502 -0.00000000000E+00 -0.00000000000E+00 -0.25812114476E+04  0.25812114476E+04  0.00000000000E+00 0. -1.
         25    1    1    2    0    0 -0.54253249846E+02  0.22022836062E+02 -0.20593163595E+03  0.24791381388E+03  0.12500000000E+03 0.  0.
         25    1    1    2    0    0 -0.24104373176E+02 -0.85035904758E+02 -0.76275616596E+03  0.77796792646E+03  0.12500000000E+03 0.  0.
         25    1    1    2    0    0  0.78357623022E+02  0.63013068696E+02 -0.15798646886E+04  0.15879886644E+04  0.12500000000E+03 0.  0.
</event>
<event>
 5    0  0.5452999E-005  0.3467738E+03  0.7546771E-02  0.1063947E+00
         21   -1    0    0  502  501  0.00000000000E+00  0.00000000000E+00  0.24785372338E+03  0.24785372338E+03  0.00000000000E+00 0. -1.
         21   -1    0    0  501  502 -0.00000000000E+00 -0.00000000000E+00 -0.48517348815E+03  0.48517348815E+03  0.00000000000E+00 0. -1.
         25    1    1    2    0    0  0.61479854433E+02  0.42927622730E+02  0.17408367361E+02  0.14680124164E+03  0.12500000000E+03 0.  0.
         25    1    1    2    0    0  0.78164521692E+02  0.16193302753E+03 -0.15181876881E+02  0.21951648513E+03  0.12500000000E+03 0.  0.
         25    1    1    2    0    0 -0.13964437612E+03 -0.20486065026E+03 -0.23954625525E+03  0.36670948476E+03  0.12500000000E+03 0.  0.
</event>
<event>
 5    0  0.5452999E-005  0.2296466E+03  0.7546771E-02  0.1126889E+00
         21   -1    0    0  502  501  0.00000000000E+00  0.00000000000E+00  0.17475269346E+03  0.17475269346E+03  0.00000000000E+00 0. -1.
         21   -1    0    0  501  502 -0.00000000000E+00 -0.00000000000E+00 -0.30178399056E+03  0.30178399056E+03  0.00000000000E+00 0. -1.
         25    1    1    2    0    0 -0.10962407685E+02 -0.14196290174E+02  0.19572374998E+02  0.12778805461E+03  0.12500000000E+03 0.  0.
         25    1    1    2    0    0  0.63536892991E+02 -0.68156561216E+01 -0.15762975880E+03  0.21108181068E+03  0.12500000000E+03 0.  0.
         25    1    1    2    0    0 -0.52574485306E+02  0.21011946296E+02  0.11026086707E+02  0.13766681873E+03  0.12500000000E+03 0.  0.
</event>
<event>
 5    0  0.5452999E-005  0.3593267E+03  0.7546771E-02  0.1058851E+00
         21   -1    0    0  502  501  0.00000000000E+00  0.00000000000E+00  0.67418019974E+03  0.67418019974E+03  0.00000000000E+00 0.  1.
         21   -1    0    0  501  502 -0.00000000000E+00 -0.00000000000E+00 -0.19151511299E+03  0.19151511299E+03  0.00000000000E+00 0.  1.
         25    1    1    2    0    0  0.12548264553E+03  0.12268223500E+03  0.31916453582E+03  0.38508158362E+03  0.12500000000E+03 0.  0.
         25    1    1    2    0    0  0.27965650976E+02  0.40521547408E+02 -0.53506014379E+02  0.14460970581E+03  0.12500000000E+03 0.  0.
         25    1    1    2    0    0 -0.15344829651E+03 -0.16320378241E+03  0.21700656531E+03  0.33600402331E+03  0.12500000000E+03 0.  0.
</event>
<event>
 5    0  0.5452999E-005  0.3322681E+03  0.7546771E-02  0.1070138E+00
         21   -1    0    0  502  501  0.00000000000E+00  0.00000000000E+00  0.19841529390E+03  0.19841529390E+03  0.00000000000E+00 0. -1.
         21   -1    0    0  501  502 -0.00000000000E+00 -0.00000000000E+00 -0.55641940981E+03  0.55641940981E+03  0.00000000000E+00 0. -1.
         25    1    1    2    0    0  0.80841519524E+02  0.87173653267E+02  0.97046702637E+02  0.19793347265E+03  0.12500000000E+03 0.  0.
         25    1    1    2    0    0 -0.23262346894E+02 -0.10562469684E+01 -0.32467223140E+03  0.34868224831E+03  0.12500000000E+03 0.  0.
         25    1    1    2    0    0 -0.57579172630E+02 -0.86117406299E+02 -0.13037858714E+03  0.20821898274E+03  0.12500000000E+03 0.  0.
</event>
<event>
 5    0  0.5452999E-005  0.3836043E+03  0.7546771E-02  0.1049610E+00
         21   -1    0    0  502  501  0.00000000000E+00  0.00000000000E+00  0.34747081733E+03  0.34747081733E+03  0.00000000000E+00 0. -1.
         21   -1    0    0  501  502 -0.00000000000E+00 -0.00000000000E+00 -0.42349530636E+03  0.42349530636E+03  0.00000000000E+00 0. -1.
         25    1    1    2    0    0  0.52093986087E+02 -0.29556744024E+01 -0.35561596819E+03  0.38053940167E+03  0.12500000000E+03 0.  0.
         25    1    1    2    0    0  0.30394841882E+01 -0.34333315667E+02  0.11519429784E+03  0.17344376980E+03  0.12500000000E+03 0.  0.
         25    1    1    2    0    0 -0.55133470276E+02  0.37288990070E+02  0.16439718132E+03  0.21698295222E+03  0.12500000000E+03 0.  0.
</event>
<event>
 5    0  0.5458779E-005  0.4750630E+03  0.7546771E-02  0.1020501E+00
         21   -1    0    0  502  501  0.00000000000E+00  0.00000000000E+00  0.11478964172E+04  0.11478964172E+04  0.00000000000E+00 0. -1.
         21   -1    0    0  501  502 -0.00000000000E+00 -0.00000000000E+00 -0.19660729332E+03  0.19660729332E+03  0.00000000000E+00 0. -1.
         25    1    1    2    0    0 -0.15427126702E+03  0.24801711498E+03  0.64071798620E+03  0.71516197535E+03  0.12500000000E+03 0.  0.
         25    1    1    2    0    0 -0.64652331421E+01 -0.20863142249E+03  0.34186287468E+03  0.41959992228E+03  0.12500000000E+03 0.  0.
         25    1    1    2    0    0  0.16073650016E+03 -0.39385692488E+02 -0.31291737020E+02  0.20974181286E+03  0.12500000000E+03 0.  0.
</event>
<event>
 5    0  0.5452999E-005  0.3375353E+03  0.7546771E-02  0.1067851E+00
         21   -1    0    0  502  501  0.00000000000E+00  0.00000000000E+00  0.99462386194E+03  0.99462386194E+03  0.00000000000E+00 0. -1.
         21   -1    0    0  501  502 -0.00000000000E+00 -0.00000000000E+00 -0.11454586252E+03  0.11454586252E+03  0.00000000000E+00 0. -1.
         25    1    1    2    0    0  0.79446958734E+02  0.10203268101E+03  0.55377755342E+02  0.18818656443E+03  0.12500000000E+03 0.  0.
         25    1    1    2    0    0  0.80065965021E+02 -0.13878604973E+03  0.43828373575E+03  0.48310429452E+03  0.12500000000E+03 0.  0.
         25    1    1    2    0    0 -0.15951292376E+03  0.36753368718E+02  0.38641650833E+03  0.43787886552E+03  0.12500000000E+03 0.  0.
</event>
<event>
 5    0  0.5452999E-005  0.4864185E+03  0.7546771E-02  0.1017386E+00
         21   -1    0    0  502  501  0.00000000000E+00  0.00000000000E+00  0.12385621924E+03  0.12385621924E+03  0.00000000000E+00 0.  1.
         21   -1    0    0  501  502 -0.00000000000E+00 -0.00000000000E+00 -0.19103031079E+04  0.19103031079E+04  0.00000000000E+00 0.  1.
         25    1    1    2    0    0  0.12060841775E+02 -0.36476183036E+02  0.26258796239E+02  0.13338103393E+03  0.12500000000E+03 0.  0.
         25    1    1    2    0    0  0.15045359071E+03  0.21770487584E+03 -0.10685242850E+04  0.11078812407E+04  0.12500000000E+03 0.  0.
         25    1    1    2    0    0 -0.16251443248E+03 -0.18122869280E+03 -0.74418139987E+03  0.79289705245E+03  0.12500000000E+03 0.  0.
</event>
<event>
 5    0  0.5452999E-005  0.3219865E+03  0.7546771E-02  0.1074739E+00
         21   -1    0    0  502  501  0.00000000000E+00  0.00000000000E+00  0.58129807030E+02  0.58129807030E+02  0.00000000000E+00 0. -1.
         21   -1    0    0  501  502 -0.00000000000E+00 -0.00000000000E+00 -0.17835131670E+04  0.17835131670E+04  0.00000000000E+00 0. -1.
         25    1    1    2    0    0 -0.84363762914E+02  0.14309985943E+02 -0.14448017473E+03  0.20933595267E+03  0.12500000000E+03 0.  0.
         25    1    1    2    0    0 -0.26435487116E+02 -0.11895011787E+03 -0.10800201478E+04  0.10940367842E+04  0.12500000000E+03 0.  0.
         25    1    1    2    0    0  0.11079925003E+03  0.10464013192E+03 -0.50088303737E+03  0.53827023710E+03  0.12500000000E+03 0.  0.
</event>
<event>
 5    0  0.5452999E-005  0.2180468E+03  0.7546771E-02  0.1135348E+00
         21   -1    0    0  502  501  0.00000000000E+00  0.00000000000E+00  0.58440149798E+02  0.58440149798E+02  0.00000000000E+00 0.  1.
         21   -1    0    0  501  502 -0.00000000000E+00 -0.00000000000E+00 -0.81355711708E+03  0.81355711708E+03  0.00000000000E+00 0.  1.
         25    1    1    2    0    0 -0.70631387752E+02 -0.53359536122E+02 -0.28331502726E+03  0.32206899525E+03  0.12500000000E+03 0.  0.
         25    1    1    2    0    0 -0.11289295940E+02  0.12817511173E+02 -0.24037454262E+03  0.27147128307E+03  0.12500000000E+03 0.  0.
         25    1    1    2    0    0  0.81920683692E+02  0.40542024949E+02 -0.23142739740E+03  0.27845698855E+03  0.12500000000E+03 0.  0.
</event>
<event>
 5    0  0.5452999E-005  0.3292123E+03  0.7546771E-02  0.1071486E+00
         21   -1    0    0  502  501  0.00000000000E+00  0.00000000000E+00  0.87952336440E+02  0.87952336440E+02  0.00000000000E+00 0. -1.
         21   -1    0    0  501  502 -0.00000000000E+00 -0.00000000000E+00 -0.12322665984E+04  0.12322665984E+04  0.00000000000E+00 0. -1.
         25    1    1    2    0    0  0.16488427244E+03  0.11325051478E+03 -0.18386714138E+03  0.29907294775E+03  0.12500000000E+03 0.  0.
         25    1    1    2    0    0 -0.28019728248E+02 -0.95321877773E+02 -0.40655486191E+03  0.43678738683E+03  0.12500000000E+03 0.  0.
         25    1    1    2    0    0 -0.13686454419E+03 -0.17928637002E+02 -0.55389225864E+03  0.58435860023E+03  0.12500000000E+03 0.  0.
</event>
<event>
 5    0  0.5452999E-005  0.3532093E+03  0.7546771E-02  0.1061305E+00
         21   -1    0    0  502  501  0.00000000000E+00  0.00000000000E+00  0.94754258446E+03  0.94754258446E+03  0.00000000000E+00 0. -1.
         21   -1    0    0  501  502 -0.00000000000E+00 -0.00000000000E+00 -0.13166351768E+03  0.13166351768E+03  0.00000000000E+00 0. -1.
         25    1    1    2    0    0  0.26513259272E+02 -0.52118286467E+01 -0.12837009764E+02  0.12852978213E+03  0.12500000000E+03 0.  0.
         25    1    1    2    0    0  0.22849853062E+02 -0.10745599781E+03  0.85586149560E+02  0.18713336487E+03  0.12500000000E+03 0.  0.
         25    1    1    2    0    0 -0.49363112334E+02  0.11266782646E+03  0.74312992698E+03  0.76354295514E+03  0.12500000000E+03 0.  0.
</event>
<event>
 5    0  0.6805403E-005  0.4449473E+03  0.7546771E-02  0.1029240E+00
         21   -1    0    0  502  501  0.00000000000E+00  0.00000000000E+00  0.44981498093E+03  0.44981498093E+03  0.00000000000E+00 0. -1.
         21   -1    0    0  501  502 -0.00000000000E+00 -0.00000000000E+00 -0.44013230521E+03  0.44013230521E+03  0.00000000000E+00 0. -1.
         25    1    1    2    0    0  0.21411777722E+02 -0.17881515120E+03 -0.22597742613E+03  0.31483983173E+03  0.12500000000E+03 0.  0.
         25    1    1    2    0    0  0.42844826679E+02 -0.10436717329E+03  0.19295214061E+03  0.25609317562E+03  0.12500000000E+03 0.  0.
         25    1    1    2    0    0 -0.64256604401E+02  0.28318232450E+03  0.42707961242E+02  0.31901427879E+03  0.12500000000E+03 0.  0.
</event>
<event>
 5    0  0.5452999E-005  0.2588843E+03  0.7546771E-02  0.1107815E+00
         21   -1    0    0  502  501  0.00000000000E+00  0.00000000000E+00  0.21896259925E+03  0.21896259925E+03  0.00000000000E+00 0. -1.
         21   -1    0    0  501  502 -0.00000000000E+00 -0.00000000000E+00 -0.30608452437E+03  0.30608452437E+03  0.00000000000E+00 0. -1.
         25    1    1    2    0    0 -0.37106708128E+02  0.87068177668E+02  0.16421981224E+02  0.15764662006E+03  0.12500000000E+03 0.  0.
         25    1    1    2    0    0  0.61851568151E+02 -0.10608555791E+03  0.34481827015E+02  0.17858823722E+03  0.12500000000E+03 0.  0.
         25    1    1    2    0    0 -0.24744860023E+02  0.19017380238E+02 -0.13802573336E+03  0.18881226633E+03  0.12500000000E+03 0.  0.
</event>
<event>
 5    0  0.5452999E-005  0.2604756E+03  0.7546771E-02  0.1106858E+00
         21   -1    0    0  502  501  0.00000000000E+00  0.00000000000E+00  0.99234923137E+03  0.99234923137E+03  0.00000000000E+00 0.  1.
         21   -1    0    0  501  502 -0.00000000000E+00 -0.00000000000E+00 -0.68370608632E+02  0.68370608632E+02  0.00000000000E+00 0.  1.
         25    1    1    2    0    0 -0.11293764987E+03  0.30399979571E+02  0.48983176943E+03  0.51888267832E+03  0.12500000000E+03 0.  0.
         25    1    1    2    0    0  0.14396530126E+03 -0.31230181692E+02  0.29079296621E+03  0.34912301759E+03  0.12500000000E+03 0.  0.
         25    1    1    2    0    0 -0.31027651388E+02  0.83020212126E+00  0.14335388710E+03  0.19271414409E+03  0.12500000000E+03 0.  0.
</event>
<event>
 5    0  0.5452999E-005  0.3271249E+03  0.7546771E-02  0.1072416E+00
         21   -1    0    0  502  501  0.00000000000E+00  0.00000000000E+00  0.33801760625E+03  0.33801760625E+03  0.00000000000E+00 0. -1.
         21   -1    0    0  501  502 -0.00000000000E+00 -0.00000000000E+00 -0.31658321439E+03  0.31658321439E+03  0.00000000000E+00 0. -1.
         25    1    1    2    0    0  0.23522906950E+02 -0.15094349117E+03  0.11994309612E+03  0.23097318240E+03  0.12500000000E+03 0.  0.
         25    1    1    2    0    0  0.59273618500E+02 -0.54917353974E+01 -0.14662855045E+03  0.20166420806E+03  0.12500000000E+03 0.  0.
         25    1    1    2    0    0 -0.82796525450E+02  0.15643522657E+03  0.48119846179E+02  0.22196343017E+03  0.12500000000E+03 0.  0.
</event>
<event>
 5    0  0.5452999E-005  0.3632778E+03  0.7546771E-02  0.1057293E+00
         21   -1    0    0  502  501  0.00000000000E+00  0.00000000000E+00  0.15563487852E+03  0.15563487852E+03  0.00000000000E+00 0.  1.
         21   -1    0    0  501  502 -0.00000000000E+00 -0.00000000000E+00 -0.84795123000E+03  0.84795123000E+03  0.00000000000E+00 0.  1.
         25    1    1    2    0    0  0.11099155421E+03 -0.27944843075E+02 -0.18961531335E+03  0.25432067634E+03  0.12500000000E+03 0.  0.
         25    1    1    2    0    0  0.18921690570E+02 -0.68188383021E+02  0.56159010730E+02  0.15422879251E+03  0.12500000000E+03 0.  0.
         25    1    1    2    0    0 -0.12991324478E+03  0.96133226095E+02 -0.55886004886E+03  0.59503663967E+03  0.12500000000E+03 0.  0.
</event>
<event>
 5    0  0.5452999E-005  0.2804161E+03  0.7546771E-02  0.1095462E+00
         21   -1    0    0  502  501  0.00000000000E+00  0.00000000000E+00  0.80956857001E+03  0.80956857001E+03  0.00000000000E+00 0.  1.
         21   -1    0    0  501  502 -0.00000000000E+00 -0.00000000000E+00 -0.97129772569E+02  0.97129772569E+02  0.00000000000E+00 0.  1.
         25    1    1    2    0    0 -0.87544508374E+02  0.11813582841E+01  0.24425120700E+03  0.28800883437E+03  0.12500000000E+03 0.  0.
         25    1    1    2    0    0  0.73398915669E+02 -0.14739988879E+03  0.19439452154E+03  0.28377518926E+03  0.12500000000E+03 0.  0.
         25    1    1    2    0    0  0.14145592706E+02  0.14621853051E+03  0.27379306891E+03  0.33491431895E+03  0.12500000000E+03 0.  0.
</event>
<event>
 5    0  0.5506967E-005  0.4280644E+03  0.7546771E-02  0.1034473E+00
         21   -1    0    0  502  501  0.00000000000E+00  0.00000000000E+00  0.27972590625E+03  0.27972590625E+03  0.00000000000E+00 0. -1.
         21   -1    0    0  501  502 -0.00000000000E+00 -0.00000000000E+00 -0.65506669486E+03  0.65506669486E+03  0.00000000000E+00 0. -1.
         25    1    1    2    0    0 -0.10447653741E+03  0.12947852020E+03 -0.33364673314E+03  0.39322407937E+03  0.12500000000E+03 0.  0.
         25    1    1    2    0    0 -0.53531151305E+02  0.46999858656E+02  0.15332345946E+03  0.21025616304E+03  0.12500000000E+03 0.  0.
         25    1    1    2    0    0  0.15800768871E+03 -0.17647837885E+03 -0.19501751493E+03  0.33131235870E+03  0.12500000000E+03 0.  0.
</event>
<event>
 5    0  0.5452999E-005  0.2715951E+03  0.7546771E-02  0.1100370E+00
         21   -1    0    0  502  501  0.00000000000E+00  0.00000000000E+00  0.26794156960E+03  0.26794156960E+03  0.00000000000E+00 0. -1.
         21   -1    0    0  501  502 -0.00000000000E+00 -0.00000000000E+00 -0.27529849258E+03  0.27529849258E+03  0.00000000000E+00 0. -1.
         25    1    1    2    0    0  0.32430935664E+02  0.13295707746E+03 -0.47550228926E+02  0.19135144187E+03  0.12500000000E+03 0.  0.
         25    1    1    2    0    0  0.51291354029E+02 -0.14000751875E+03 -0.50206554319E+01  0.19463585303E+03  0.12500000000E+03 0.  0.
         25    1    1    2    0    0 -0.83722289694E+02  0.70504412864E+01  0.45213961378E+02  0.15725276728E+03  0.12500000000E+03 0.  0.
</event>
<event>
 5    0  0.5452999E-005  0.3116385E+03  0.7546771E-02  0.1079563E+00
         21   -1    0    0  502  501  0.00000000000E+00  0.00000000000E+00  0.26291650505E+03  0.26291650505E+03  0.00000000000E+00 0. -1.
         21   -1    0    0  501  502 -0.00000000000E+00 -0.00000000000E+00 -0.36938929488E+03  0.36938929488E+03  0.00000000000E+00 0. -1.
         25    1    1    2    0    0  0.13338940811E+02  0.67279248660E+01 -0.23284366315E+03  0.26469673928E+03  0.12500000000E+03 0.  0.
         25    1    1    2    0    0  0.10691147409E+03  0.19003307266E+01  0.98472477624E+02  0.19171724857E+03  0.12500000000E+03 0.  0.
         25    1    1    2    0    0 -0.12025041490E+03 -0.86282555926E+01  0.27898395694E+02  0.17589181209E+03  0.12500000000E+03 0.  0.
</event>
<event>
 5    0  0.5452999E-005  0.2178950E+03  0.7546771E-02  0.1135462E+00
         21   -1    0    0  502  501  0.00000000000E+00  0.00000000000E+00  0.17613113248E+03  0.17613113248E+03  0.00000000000E+00 0.  1.
         21   -1    0    0  501  502 -0.00000000000E+00 -0.00000000000E+00 -0.26956181010E+03  0.26956181010E+03  0.00000000000E+00 0.  1.
         25    1    1    2    0    0  0.52526683166E+02  0.21428816325E+02  0.36651516438E+02  0.14207948575E+03  0.12500000000E+03 0.  0.
         25    1    1    2    0    0 -0.14134472837E+02 -0.50852242133E+02 -0.37694720762E+02  0.14082480543E+03  0.12500000000E+03 0.  0.
         25    1    1    2    0    0 -0.38392210329E+02  0.29423425808E+02 -0.92387473301E+02  0.16278865140E+03  0.12500000000E+03 0.  0.
</event>
<event>
 5    0  0.5452999E-005  0.3121052E+03  0.7546771E-02  0.1079341E+00
         21   -1    0    0  502  501  0.00000000000E+00  0.00000000000E+00  0.31446113133E+03  0.31446113133E+03  0.00000000000E+00 0.  1.
         21   -1    0    0  501  502 -0.00000000000E+00 -0.00000000000E+00 -0.30976683079E+03  0.30976683079E+03  0.00000000000E+00 0.  1.
         25    1    1    2    0    0  0.12243361202E+03 -0.58500199947E+02  0.12823655625E+02  0.18493704034E+03  0.12500000000E+03 0.  0.
         25    1    1    2    0    0 -0.20035442264E+03  0.13307761361E+03 -0.30110363735E+02  0.27273279950E+03  0.12500000000E+03 0.  0.
         25    1    1    2    0    0  0.77920810621E+02 -0.74577413666E+02  0.21981008657E+02  0.16655812228E+03  0.12500000000E+03 0.  0.
</event>
<event>
 5    0  0.6124623E-005  0.3444802E+03  0.7546771E-02  0.1064904E+00
         21   -1    0    0  502  501  0.00000000000E+00  0.00000000000E+00  0.14273268098E+04  0.14273268098E+04  0.00000000000E+00 0.  1.
         21   -1    0    0  501  502 -0.00000000000E+00 -0.00000000000E+00 -0.83139041443E+02  0.83139041443E+02  0.00000000000E+00 0.  1.
         25    1    1    2    0    0 -0.19288457537E+03 -0.62509695017E+02  0.35576875121E+03  0.42814521570E+03  0.12500000000E+03 0.  0.
         25    1    1    2    0    0  0.93830000885E+02  0.11248920990E+03  0.82996149666E+03  0.85200878948E+03  0.12500000000E+03 0.  0.
         25    1    1    2    0    0  0.99054574488E+02 -0.49979514883E+02  0.15845752045E+03  0.23031184603E+03  0.12500000000E+03 0.  0.
</event>
<event>
 5    0  0.5452999E-005  0.2855673E+03  0.7546771E-02  0.1092686E+00
         21   -1    0    0  502  501  0.00000000000E+00  0.00000000000E+00  0.30499537869E+03  0.30499537869E+03  0.00000000000E+00 0.  1.
         21   -1    0    0  501  502 -0.00000000000E+00 -0.00000000000E+00 -0.26737671093E+03  0.26737671093E+03  0.00000000000E+00 0.  1.
         25    1    1    2    0    0  0.12952635812E+02 -0.11644619521E+03 -0.53087742176E+02  0.17936219090E+03  0.12500000000E+03 0.  0.
         25    1    1    2    0    0 -0.74048146709E+02  0.16811784809E+03  0.10133227093E+03  0.24421295627E+03  0.12500000000E+03 0.  0.
         25    1    1    2    0    0  0.61095510898E+02 -0.51671652876E+02 -0.10625861000E+02  0.14879694246E+03  0.12500000000E+03 0.  0.
</event>
<event>
 5    0  0.5452999E-005  0.3766279E+03  0.7546771E-02  0.1052187E+00
         21   -1    0    0  502  501  0.00000000000E+00  0.00000000000E+00  0.39575339092E+03  0.39575339092E+03  0.00000000000E+00 0. -1.
         21   -1    0    0  501  502 -0.00000000000E+00 -0.00000000000E+00 -0.35842659393E+03  0.35842659393E+03  0.00000000000E+00 0.  1.
         25    1    1    2    0    0 -0.64349747084E+02 -0.22755557318E+03 -0.17999138860E+01  0.26748956713E+03  0.12500000000E+03 0.  0.
         25    1    1    2    0    0  0.76900703170E+02 -0.68848957785E+02  0.28445377228E+02  0.16458443615E+03  0.12500000000E+03 0.  0.
         25    1    1    2    0    0 -0.12550956085E+02  0.29640453096E+03  0.10681333649E+02  0.32210598157E+03  0.12500000000E+03 0.  0.
</event>
<event>
 5    0  0.5452999E-005  0.2556812E+03  0.7546771E-02  0.1109766E+00
         21   -1    0    0  502  501  0.00000000000E+00  0.00000000000E+00  0.27901371420E+03  0.27901371420E+03  0.00000000000E+00 0.  1.
         21   -1    0    0  501  502 -0.00000000000E+00 -0.00000000000E+00 -0.23429985563E+03  0.23429985563E+03  0.00000000000E+00 0.  1.
         25    1    1    2    0    0  0.74920071479E+02 -0.50594570607E+02  0.14623687225E+02  0.15495702602E+03  0.12500000000E+03 0.  0.
         25    1    1    2    0    0  0.73512797219E+02 -0.28017922774E+02  0.14382250646E+02  0.14839469157E+03  0.12500000000E+03 0.  0.
         25    1    1    2    0    0 -0.14843286870E+03  0.78612493381E+02  0.15707920695E+02  0.20996185224E+03  0.12500000000E+03 0.  0.
</event>
<event>
 5    0  0.5452999E-005  0.3313465E+03  0.7546771E-02  0.1070543E+00
         21   -1    0    0  502  501  0.00000000000E+00  0.00000000000E+00  0.15112580027E+04  0.15112580027E+04  0.00000000000E+00 0. -1.
         21   -1    0    0  501  502 -0.00000000000E+00 -0.00000000000E+00 -0.72648418038E+02  0.72648418038E+02  0.00000000000E+00 0. -1.
         25    1    1    2    0    0 -0.50935217224E+02  0.10146923504E+03  0.92394738142E+03  0.93925191810E+03  0.12500000000E+03 0.  0.
         25    1    1    2    0    0  0.94341340586E+02  0.69444602632E+02  0.20787756364E+03  0.26937134748E+03  0.12500000000E+03 0.  0.
         25    1    1    2    0    0 -0.43406123363E+02 -0.17091383767E+03  0.30678463960E+03  0.37528315516E+03  0.12500000000E+03 0.  0.
</event>
<event>
 5    0  0.5452999E-005  0.6348657E+03  0.7546771E-02  0.9835599E-01
         21   -1    0    0  502  501  0.00000000000E+00  0.00000000000E+00  0.84436659441E+03  0.84436659441E+03  0.00000000000E+00 0.  1.
         21   -1    0    0  501  502 -0.00000000000E+00 -0.00000000000E+00 -0.47734537352E+03  0.47734537352E+03  0.00000000000E+00 0.  1.
         25    1    1    2    0    0 -0.13433756301E+03  0.18450112389E+03  0.16017902422E+03  0.30556433914E+03  0.12500000000E+03 0.  0.
         25    1    1    2    0    0 -0.36119880879E+03 -0.27445977151E+03  0.15125438989E+03  0.49426271972E+03  0.12500000000E+03 0.  0.
         25    1    1    2    0    0  0.49553637180E+03  0.89958647614E+02  0.55587806774E+02  0.52188490907E+03  0.12500000000E+03 0.  0.
</event>
<event>
 5    0  0.5452999E-005  0.2713452E+03  0.7546771E-02  0.1100512E+00
         21   -1    0    0  502  501  0.00000000000E+00  0.00000000000E+00  0.20845286124E+04  0.20845286124E+04  0.00000000000E+00 0.  1.
         21   -1    0    0  501  502 -0.00000000000E+00 -0.00000000000E+00 -0.35321291727E+02  0.35321291727E+02  0.00000000000E+00 0.  1.
         25    1    1    2    0    0  0.44116934508E+02 -0.30960361724E+02  0.62482042533E+03  0.63947667027E+03  0.12500000000E+03 0.  0.
         25    1    1    2    0    0  0.12071905048E+03  0.14648443599E+02  0.89371817671E+03  0.91057390992E+03  0.12500000000E+03 0.  0.
         25    1    1    2    0    0 -0.16483598499E+03  0.16311918126E+02  0.53066871859E+03  0.56979932390E+03  0.12500000000E+03 0.  0.
</event>
<event>
 5    0  0.5452999E-005  0.2431996E+03  0.7546771E-02  0.1117680E+00
         21   -1    0    0  502  501  0.00000000000E+00  0.00000000000E+00  0.14926659064E+04  0.14926659064E+04  0.00000000000E+00 0. -1.
         21   -1    0    0  501  502 -0.00000000000E+00 -0.00000000000E+00 -0.39624431786E+02  0.39624431786E+02  0.00000000000E+00 0. -1.
         25    1    1    2    0    0 -0.46663471018E+02  0.40709488127E+02  0.54749381619E+03  0.56498603586E+03  0.12500000000E+03 0.  0.
         25    1    1    2    0    0  0.38404477618E+02 -0.58334799142E+01  0.76384151130E+03  0.77497599174E+03  0.12500000000E+03 0.  0.
         25    1    1    2    0    0  0.82589933999E+01 -0.34876008212E+02  0.14170614713E+03  0.19232831059E+03  0.12500000000E+03 0.  0.
</event>
<event>
 5    0  0.5452999E-005  0.2224876E+03  0.7546771E-02  0.1132042E+00
         21   -1    0    0  502  501  0.00000000000E+00  0.00000000000E+00  0.12628151094E+04  0.12628151094E+04  0.00000000000E+00 0.  1.
         21   -1    0    0  501  502 -0.00000000000E+00 -0.00000000000E+00 -0.39198729592E+02  0.39198729592E+02  0.00000000000E+00 0.  1.
         25    1    1    2    0    0 -0.21420688896E+02  0.65340215413E+02  0.43110624763E+03  0.45409887294E+03  0.12500000000E+03 0.  0.
         25    1    1    2    0    0  0.48354836647E+02 -0.29791472821E+02  0.21310817387E+03  0.25350703313E+03  0.12500000000E+03 0.  0.
         25    1    1    2    0    0 -0.26934147751E+02 -0.35548742593E+02  0.57940195832E+03  0.59440793292E+03  0.12500000000E+03 0.  0.
</event>
<event>
 5    0  0.5452999E-005  0.2217699E+03  0.7546771E-02  0.1132570E+00
         21   -1    0    0  502  501  0.00000000000E+00  0.00000000000E+00  0.17677519065E+03  0.17677519065E+03  0.00000000000E+00 0. -1.
         21   -1    0    0  501  502 -0.00000000000E+00 -0.00000000000E+00 -0.27821711216E+03  0.27821711216E+03  0.00000000000E+00 0. -1.
         25    1    1    2    0    0  0.49711201155E+02 -0.23733908143E+02  0.79850601586E+01  0.13683297520E+03  0.12500000000E+03 0.  0.
         25    1    1    2    0    0 -0.56252727637E+02  0.71429113959E+02 -0.99535538949E+02  0.18384452997E+03  0.12500000000E+03 0.  0.
         25    1    1    2    0    0  0.65415264819E+01 -0.47695205816E+02 -0.98914427205E+01  0.13431479764E+03  0.12500000000E+03 0.  0.
</event>
<event>
 5    0  0.5631743E-005  0.2777332E+03  0.7546771E-02  0.1096934E+00
         21   -1    0    0  502  501  0.00000000000E+00  0.00000000000E+00  0.49535203086E+03  0.49535203086E+03  0.00000000000E+00 0.  1.
         21   -1    0    0  501  502 -0.00000000000E+00 -0.00000000000E+00 -0.15571896503E+03  0.15571896503E+03  0.00000000000E+00 0.  1.
         25    1    1    2    0    0 -0.11863764689E+03  0.49522108660E+02  0.23603222202E+03  0.29641784753E+03  0.12500000000E+03 0.  0.
         25    1    1    2    0    0  0.13579087160E+03 -0.90777993318E+02  0.51347584677E+02  0.21199381909E+03  0.12500000000E+03 0.  0.
         25    1    1    2    0    0 -0.17153224715E+02  0.41255884658E+02  0.52253259136E+02  0.14265932927E+03  0.12500000000E+03 0.  0.
</event>
<event>
 5    0  0.5452999E-005  0.2608573E+03  0.7546771E-02  0.1106629E+00
         21   -1    0    0  502  501  0.00000000000E+00  0.00000000000E+00  0.39727222580E+03  0.39727222580E+03  0.00000000000E+00 0. -1.
         21   -1    0    0  501  502 -0.00000000000E+00 -0.00000000000E+00 -0.17128443238E+03  0.17128443238E+03  0.00000000000E+00 0. -1.
         25    1    1    2    0    0  0.11935330896E+03  0.10367762108E+03  0.90634893793E+02  0.22098403890E+03  0.12500000000E+03 0.  0.
         25    1    1    2    0    0 -0.12381266009E+03 -0.50740838552E+02  0.92532310480E+02  0.20516197498E+03  0.12500000000E+03 0.  0.
         25    1    1    2    0    0  0.44593511259E+01 -0.52936782532E+02  0.42820589142E+02  0.14241064431E+03  0.12500000000E+03 0.  0.
</event>
<event>
 5    0  0.5452999E-005  0.3334957E+03  0.7546771E-02  0.1069601E+00
         21   -1    0    0  502  501  0.00000000000E+00  0.00000000000E+00  0.41652487158E+03  0.41652487158E+03  0.00000000000E+00 0.  1.
         21   -1    0    0  501  502 -0.00000000000E+00 -0.00000000000E+00 -0.26701742764E+03  0.26701742764E+03  0.00000000000E+00 0.  1.
         25    1    1    2    0    0  0.97669353421E+02  0.70162794913E+02 -0.17753651001E+03  0.24820623033E+03  0.12500000000E+03 0.  0.
         25    1    1    2    0    0 -0.61853630991E+02 -0.89275211984E+00  0.17230320421E+03  0.22167558020E+03  0.12500000000E+03 0.  0.
         25    1    1    2    0    0 -0.35815722431E+02 -0.69270042793E+02  0.15474074973E+03  0.21366048870E+03  0.12500000000E+03 0.  0.
</event>
<event>
 5    0  0.5452999E-005  0.3702638E+03  0.7546771E-02  0.1054592E+00
         21   -1    0    0  502  501  0.00000000000E+00  0.00000000000E+00  0.15694353805E+03  0.15694353805E+03  0.00000000000E+00 0. -1.
         21   -1    0    0  501  502 -0.00000000000E+00 -0.00000000000E+00 -0.87353273426E+03  0.87353273426E+03  0.00000000000E+00 0. -1.
         25    1    1    2    0    0  0.22932096406E+02  0.22989953729E+01 -0.92248659857E+01  0.12744122009E+03  0.12500000000E+03 0.  0.
         25    1    1    2    0    0 -0.14727766398E+03 -0.28517762698E+02 -0.69771130500E+03  0.72452055749E+03  0.12500000000E+03 0.  0.
         25    1    1    2    0    0  0.12434556757E+03  0.26218767325E+02 -0.96530252184E+01  0.17851449474E+03  0.12500000000E+03 0.  0.
</event>
<event>
 5    0  0.5759114E-005  0.2845302E+03  0.7546771E-02  0.1093240E+00
         21   -1    0    0  502  501  0.00000000000E+00  0.00000000000E+00  0.24172992444E+03  0.24172992444E+03  0.00000000000E+00 0.  1.
         21   -1    0    0  501  502 -0.00000000000E+00 -0.00000000000E+00 -0.33490873324E+03  0.33490873324E+03  0.00000000000E+00 0.  1.
         25    1    1    2    0    0 -0.29543731160E+02  0.25066637783E+02  0.13213969091E+03  0.18597598311E+03  0.12500000000E+03 0.  0.
         25    1    1    2    0    0  0.11151756809E+03 -0.12970541909E+02 -0.13555897740E+03  0.21588339284E+03  0.12500000000E+03 0.  0.
         25    1    1    2    0    0 -0.81973836932E+02 -0.12096095874E+02 -0.89759522307E+02  0.17477928173E+03  0.12500000000E+03 0.  0.
</event>
<event>
 5    0  0.5452999E-005  0.3189076E+03  0.7546771E-02  0.1076153E+00
         21   -1    0    0  502  501  0.00000000000E+00  0.00000000000E+00  0.64636462588E+03  0.64636462588E+03  0.00000000000E+00 0.  1.
         21   -1    0    0  501  502 -0.00000000000E+00 -0.00000000000E+00 -0.15734471255E+03  0.15734471255E+03  0.00000000000E+00 0.  1.
         25    1    1    2    0    0  0.14043987134E+03 -0.11212166869E+03  0.27611560857E+03  0.35236267587E+03  0.12500000000E+03 0.  0.
         25    1    1    2    0    0 -0.74294178814E+02  0.40794701056E+01 -0.31667006496E+02  0.14887601010E+03  0.12500000000E+03 0.  0.
         25    1    1    2    0    0 -0.66145692526E+02  0.10804219858E+03  0.24457131125E+03  0.30247065246E+03  0.12500000000E+03 0.  0.
</event>
<event>
 5    0  0.5452999E-005  0.3646235E+03  0.7546771E-02  0.1056768E+00
         21   -1    0    0  502  501  0.00000000000E+00  0.00000000000E+00  0.56908761339E+03  0.56908761339E+03  0.00000000000E+00 0.  1.
         21   -1    0    0  501  502 -0.00000000000E+00 -0.00000000000E+00 -0.23362011969E+03  0.23362011969E+03  0.00000000000E+00 0.  1.
         25    1    1    2    0    0 -0.16142021720E+03 -0.43115225141E+02  0.17359128278E+03  0.27143018000E+03  0.12500000000E+03 0.  0.
         25    1    1    2    0    0  0.27205389205E+03  0.11586067468E+03  0.75760023894E+02  0.32985087136E+03  0.12500000000E+03 0.  0.
         25    1    1    2    0    0 -0.11063367485E+03 -0.72745449536E+02  0.86116187025E+02  0.20142668171E+03  0.12500000000E+03 0.  0.
</event>
<event>
 5    0  0.5452999E-005  0.3075568E+03  0.7546771E-02  0.1081523E+00
         21   -1    0    0  502  501  0.00000000000E+00  0.00000000000E+00  0.86576337965E+03  0.86576337965E+03  0.00000000000E+00 0. -1.
         21   -1    0    0  501  502 -0.00000000000E+00 -0.00000000000E+00 -0.10925757255E+03  0.10925757255E+03  0.00000000000E+00 0. -1.
         25    1    1    2    0    0 -0.58295491800E+02 -0.36861740359E+01  0.63691151259E+02  0.15196550593E+03  0.12500000000E+03 0.  0.
         25    1    1    2    0    0  0.35895606741E+02 -0.16894305100E+03  0.23342471531E+03  0.31613659513E+03  0.12500000000E+03 0.  0.
         25    1    1    2    0    0  0.22399885059E+02  0.17262922504E+03  0.45938994053E+03  0.50691885115E+03  0.12500000000E+03 0.  0.
</event>
<event>
 5    0  0.5452999E-005  0.3914084E+03  0.7546771E-02  0.1046796E+00
         21   -1    0    0  502  501  0.00000000000E+00  0.00000000000E+00  0.13717700461E+04  0.13717700461E+04  0.00000000000E+00 0.  1.
         21   -1    0    0  501  502 -0.00000000000E+00 -0.00000000000E+00 -0.11168089566E+03  0.11168089566E+03  0.00000000000E+00 0.  1.
         25    1    1    2    0    0 -0.12041623668E+03 -0.17431124173E+03  0.62071462175E+03  0.66767965425E+03  0.12500000000E+03 0.  0.
         25    1    1    2    0    0  0.47923849155E+02  0.29120362389E+03  0.41760670318E+03  0.52641865889E+03  0.12500000000E+03 0.  0.
         25    1    1    2    0    0  0.72492387522E+02 -0.11689238216E+03  0.22176782549E+03  0.28935262860E+03  0.12500000000E+03 0.  0.
</event>
<event>
 5    0  0.5452999E-005  0.4534673E+03  0.7546771E-02  0.1026693E+00
         21   -1    0    0  502  501  0.00000000000E+00  0.00000000000E+00  0.48868310413E+03  0.48868310413E+03  0.00000000000E+00 0.  1.
         21   -1    0    0  501  502 -0.00000000000E+00 -0.00000000000E+00 -0.42078920698E+03  0.42078920698E+03  0.00000000000E+00 0.  1.
         25    1    1    2    0    0 -0.36590690873E+03 -0.41481228510E+01  0.38149537591E+02  0.38856847530E+03  0.12500000000E+03 0.  0.
         25    1    1    2    0    0  0.33319992353E+03 -0.40673581152E+02  0.93228787289E+02  0.37012583809E+03  0.12500000000E+03 0.  0.
         25    1    1    2    0    0  0.32706985198E+02  0.44821704003E+02 -0.63484427729E+02  0.15077799771E+03  0.12500000000E+03 0.  0.
</event>
<event>
 5    0  0.5452999E-005  0.2485501E+03  0.7546771E-02  0.1114225E+00
         21   -1    0    0  502  501  0.00000000000E+00  0.00000000000E+00  0.73408930991E+03  0.73408930991E+03  0.00000000000E+00 0. -1.
         21   -1    0    0  501  502 -0.00000000000E+00 -0.00000000000E+00 -0.84154824175E+02  0.84154824175E+02  0.00000000000E+00 0. -1.
         25    1    1    2    0    0 -0.39023815726E+02  0.37019622713E+02  0.19119963671E+03  0.23468193739E+03  0.12500000000E+03 0.  0.
         25    1    1    2    0    0  0.85112372780E+02 -0.24464845066E+02  0.41564923401E+03  0.44298073364E+03  0.12500000000E+03 0.  0.
         25    1    1    2    0    0 -0.46088557054E+02 -0.12554777647E+02  0.43085615018E+02  0.14058146305E+03  0.12500000000E+03 0.  0.
</event>
<event>
 5    0  0.5452999E-005  0.2621604E+03  0.7546771E-02  0.1105852E+00
         21   -1    0    0  502  501  0.00000000000E+00  0.00000000000E+00  0.37130591679E+03  0.37130591679E+03  0.00000000000E+00 0. -1.
         21   -1    0    0  501  502 -0.00000000000E+00 -0.00000000000E+00 -0.18509821780E+03  0.18509821780E+03  0.00000000000E+00 0. -1.
         25    1    1    2    0    0 -0.68551318539E+02 -0.47858449799E+02  0.21035438894E+02  0.15184598836E+03  0.12500000000E+03 0.  0.
         25    1    1    2    0    0 -0.63067301707E+02 -0.63889856706E+02  0.91415868822E+02  0.17900072460E+03  0.12500000000E+03 0.  0.
         25    1    1    2    0    0  0.13161862025E+03  0.11174830651E+03  0.73756391265E+02  0.22555742163E+03  0.12500000000E+03 0.  0.
</event>
<event>
 5    0  0.5452999E-005  0.3273544E+03  0.7546771E-02  0.1072314E+00
         21   -1    0    0  502  501  0.00000000000E+00  0.00000000000E+00  0.30465074446E+03  0.30465074446E+03  0.00000000000E+00 0.  1.
         21   -1    0    0  501  502 -0.00000000000E+00 -0.00000000000E+00 -0.35174996389E+03  0.35174996389E+03  0.00000000000E+00 0.  1.
         25    1    1    2    0    0  0.11132386230E+03  0.51995631296E+02 -0.16786614072E+03  0.24269443585E+03  0.12500000000E+03 0.  0.
         25    1    1    2    0    0 -0.12235237336E+03  0.93952897235E+02  0.92945393852E+02  0.21922841149E+03  0.12500000000E+03 0.  0.
         25    1    1    2    0    0  0.11028511057E+02 -0.14594852853E+03  0.27821527444E+02  0.19447786102E+03  0.12500000000E+03 0.  0.
</event>
<event>
 5    0  0.5452999E-005  0.3586127E+03  0.7546771E-02  0.1059135E+00
         21   -1    0    0  502  501  0.00000000000E+00  0.00000000000E+00  0.60826434254E+03  0.60826434254E+03  0.00000000000E+00 0. -1.
         21   -1    0    0  501  502 -0.00000000000E+00 -0.00000000000E+00 -0.21142629462E+03  0.21142629462E+03  0.00000000000E+00 0. -1.
         25    1    1    2    0    0 -0.42176408000E+02  0.13738383713E+01  0.42583940595E+01  0.13199951039E+03  0.12500000000E+03 0.  0.
         25    1    1    2    0    0  0.92589021940E+02  0.64929853182E+02 -0.83761773450E+02  0.18822764810E+03  0.12500000000E+03 0.  0.
         25    1    1    2    0    0 -0.50412613940E+02 -0.66303691553E+02  0.47634142731E+03  0.49946347867E+03  0.12500000000E+03 0.  0.
</event>
<event>
 5    0  0.5452999E-005  0.2842914E+03  0.7546771E-02  0.1093368E+00
         21   -1    0    0  502  501  0.00000000000E+00  0.00000000000E+00  0.13284265172E+03  0.13284265172E+03  0.00000000000E+00 0. -1.
         21   -1    0    0  501  502 -0.00000000000E+00 -0.00000000000E+00 -0.60840118961E+03  0.60840118961E+03  0.00000000000E+00 0. -1.
         25    1    1    2    0    0 -0.75117851499E+02 -0.55443031806E+02 -0.10569533060E+03  0.18844926187E+03  0.12500000000E+03 0.  0.
         25    1    1    2    0    0 -0.29117360359E+02  0.15730601149E+03 -0.11380107010E+03  0.23274167113E+03  0.12500000000E+03 0.  0.
         25    1    1    2    0    0  0.10423521186E+03 -0.10186297969E+03 -0.25606213719E+03  0.32005290832E+03  0.12500000000E+03 0.  0.
</event>
<event>
 5    0  0.5452999E-005  0.2741497E+03  0.7546771E-02  0.1098928E+00
         21   -1    0    0  502  501  0.00000000000E+00  0.00000000000E+00  0.11306736800E+04  0.11306736800E+04  0.00000000000E+00 0.  1.
         21   -1    0    0  501  502 -0.00000000000E+00 -0.00000000000E+00 -0.66471923221E+02  0.66471923221E+02  0.00000000000E+00 0.  1.
         25    1    1    2    0    0 -0.92635702388E+02  0.92268368901E+02  0.26475110049E+03  0.32064461708E+03  0.12500000000E+03 0.  0.
         25    1    1    2    0    0 -0.45913860690E+01 -0.27989770331E+02  0.60137529907E+03  0.61488353238E+03  0.12500000000E+03 0.  0.
         25    1    1    2    0    0  0.97227088457E+02 -0.64278598570E+02  0.19807535719E+03  0.26161745372E+03  0.12500000000E+03 0.  0.
</event>
<event>
 5    0  0.5452999E-005  0.2525557E+03  0.7546771E-02  0.1111700E+00
         21   -1    0    0  502  501  0.00000000000E+00  0.00000000000E+00  0.53170231946E+03  0.53170231946E+03  0.00000000000E+00 0.  1.
         21   -1    0    0  501  502 -0.00000000000E+00 -0.00000000000E+00 -0.11996253849E+03  0.11996253849E+03  0.00000000000E+00 0.  1.
         25    1    1    2    0    0  0.73008553671E+02 -0.76733294140E+02  0.17924779886E+02  0.16481670144E+03  0.12500000000E+03 0.  0.
         25    1    1    2    0    0  0.10342505164E+02  0.31272016343E+02  0.17747908380E+03  0.21956486879E+03  0.12500000000E+03 0.  0.
         25    1    1    2    0    0 -0.83351058835E+02  0.45461277798E+02  0.21633591729E+03  0.26728328772E+03  0.12500000000E+03 0.  0.
</event>
<event>
 5    0  0.5452999E-005  0.4571326E+03  0.7546771E-02  0.1025616E+00
         21   -1    0    0  502  501  0.00000000000E+00  0.00000000000E+00  0.97897928032E+03  0.97897928032E+03  0.00000000000E+00 0. -1.
         21   -1    0    0  501  502 -0.00000000000E+00 -0.00000000000E+00 -0.21345720690E+03  0.21345720690E+03  0.00000000000E+00 0. -1.
         25    1    1    2    0    0 -0.22347496688E+03 -0.69426520169E+02  0.47830578266E+03  0.54695751594E+03  0.12500000000E+03 0.  0.
         25    1    1    2    0    0  0.76136356172E+02  0.19960952240E+03  0.32596974053E+03  0.40929448800E+03  0.12500000000E+03 0.  0.
         25    1    1    2    0    0  0.14733861070E+03 -0.13018300223E+03 -0.38753449777E+02  0.23618448328E+03  0.12500000000E+03 0.  0.
</event>
<event>
 5    0  0.5452999E-005  0.3251216E+03  0.7546771E-02  0.1073316E+00
         21   -1    0    0  502  501  0.00000000000E+00  0.00000000000E+00  0.34212000298E+03  0.34212000298E+03  0.00000000000E+00 0. -1.
         21   -1    0    0  501  502 -0.00000000000E+00 -0.00000000000E+00 -0.30896780566E+03  0.30896780566E+03  0.00000000000E+00 0. -1.
         25    1    1    2    0    0 -0.10570035602E+03 -0.11588447642E+03 -0.97047930862E+02  0.22281175468E+03  0.12500000000E+03 0.  0.
         25    1    1    2    0    0 -0.46490202718E+02  0.79005461805E+02  0.16334224837E+03  0.22518634960E+03  0.12500000000E+03 0.  0.
         25    1    1    2    0    0  0.15219055874E+03  0.36879014619E+02 -0.33142120179E+02  0.20308970436E+03  0.12500000000E+03 0.  0.
</event>
<event>
 5    0  0.5452999E-005  0.3290346E+03  0.7546771E-02  0.1071565E+00
         21   -1    0    0  502  501  0.00000000000E+00  0.00000000000E+00  0.46488038577E+03  0.46488038577E+03  0.00000000000E+00 0. -1.
         21   -1    0    0  501  502 -0.00000000000E+00 -0.00000000000E+00 -0.23288527599E+03  0.23288527599E+03  0.00000000000E+00 0. -1.
         25    1    1    2    0    0 -0.19214166655E+02  0.22060484009E+03  0.12020934158E+03  0.28126671590E+03  0.12500000000E+03 0.  0.
         25    1    1    2    0    0  0.90782789795E+01 -0.86435293401E+02 -0.61311276479E+02  0.16412662099E+03  0.12500000000E+03 0.  0.
         25    1    1    2    0    0  0.10135887676E+02 -0.13416954669E+03  0.17309704468E+03  0.25237232486E+03  0.12500000000E+03 0.  0.
</event>
<event>
 5    0  0.5452999E-005  0.3065252E+03  0.7546771E-02  0.1082023E+00
         21   -1    0    0  502  501  0.00000000000E+00  0.00000000000E+00  0.65519372494E+03  0.65519372494E+03  0.00000000000E+00 0. -1.
         21   -1    0    0  501  502 -0.00000000000E+00 -0.00000000000E+00 -0.14340446653E+03  0.14340446653E+03  0.00000000000E+00 0. -1.
         25    1    1    2    0    0  0.19063946435E+03  0.10330275810E+03  0.29949066015E+03  0.39030055178E+03  0.12500000000E+03 0.  0.
         25    1    1    2    0    0 -0.56714750446E+02  0.16871447692E+01  0.92500387867E+02  0.16553166202E+03  0.12500000000E+03 0.  0.
         25    1    1    2    0    0 -0.13392471391E+03 -0.10498990287E+03  0.11979821040E+03  0.24276597767E+03  0.12500000000E+03 0.  0.
</event>
<event>
 5    0  0.5711547E-005  0.2614360E+03  0.7546771E-02  0.1106284E+00
         21   -1    0    0  502  501  0.00000000000E+00  0.00000000000E+00  0.12651868102E+03  0.12651868102E+03  0.00000000000E+00 0. -1.
         21   -1    0    0  501  502 -0.00000000000E+00 -0.00000000000E+00 -0.54022675602E+03  0.54022675602E+03  0.00000000000E+00 0. -1.
         25    1    1    2    0    0 -0.44763952452E+02  0.72741375089E+02  0.14547829955E+02  0.15209128327E+03  0.12500000000E+03 0.  0.
         25    1    1    2    0    0  0.59335381472E+02 -0.43736022247E+02 -0.15449680236E+03  0.21196176324E+03  0.12500000000E+03 0.  0.
         25    1    1    2    0    0 -0.14571429020E+02 -0.29005352842E+02 -0.27375910259E+03  0.30269239053E+03  0.12500000000E+03 0.  0.
</event>
<event>
 5    0  0.5452999E-005  0.2924159E+03  0.7546771E-02  0.1089094E+00
         21   -1    0    0  502  501  0.00000000000E+00  0.00000000000E+00  0.24965567560E+03  0.24965567560E+03  0.00000000000E+00 0. -1.
         21   -1    0    0  501  502 -0.00000000000E+00 -0.00000000000E+00 -0.34249991298E+03  0.34249991298E+03  0.00000000000E+00 0. -1.
         25    1    1    2    0    0 -0.76669494648E+02 -0.11223549284E+03 -0.42038393952E+02  0.18938649326E+03  0.12500000000E+03 0.  0.
         25    1    1    2    0    0  0.64067874128E+02  0.17966239928E+01  0.10405593091E+03  0.17481578049E+03  0.12500000000E+03 0.  0.
         25    1    1    2    0    0  0.12601620520E+02  0.11043886885E+03 -0.15486177433E+03  0.22795331483E+03  0.12500000000E+03 0.  0.
</event>
<event>
 5    0  0.5452999E-005  0.2217028E+03  0.7546771E-02  0.1132620E+00
         21   -1    0    0  502  501  0.00000000000E+00  0.00000000000E+00  0.62997289411E+03  0.62997289411E+03  0.00000000000E+00 0.  1.
         21   -1    0    0  501  502 -0.00000000000E+00 -0.00000000000E+00 -0.78022636694E+02  0.78022636694E+02  0.00000000000E+00 0.  1.
         25    1    1    2    0    0  0.68898797388E+02  0.79765174895E+02  0.19507517551E+03  0.25453654258E+03  0.12500000000E+03 0.  0.
         25    1    1    2    0    0 -0.63358515175E+02 -0.21664647341E+02  0.18097314784E+03  0.22991289357E+03  0.12500000000E+03 0.  0.
         25    1    1    2    0    0 -0.55402822131E+01 -0.58100527554E+02  0.17590193407E+03  0.22354609466E+03  0.12500000000E+03 0.  0.
</event>
<event>
 5    0  0.5452999E-005  0.1923997E+03  0.7546771E-02  0.1156315E+00
         21   -1    0    0  502  501  0.00000000000E+00  0.00000000000E+00  0.35025050249E+03  0.35025050249E+03  0.00000000000E+00 0.  1.
         21   -1    0    0  501  502 -0.00000000000E+00 -0.00000000000E+00 -0.10568903621E+03  0.10568903621E+03  0.00000000000E+00 0.  1.
         25    1    1    2    0    0  0.14875638462E+01 -0.30654266674E+02  0.73845397724E+02  0.14839150810E+03  0.12500000000E+03 0.  0.
         25    1    1    2    0    0 -0.13215530421E+02  0.22279277395E+02  0.10667842851E+03  0.16636196547E+03  0.12500000000E+03 0.  0.
         25    1    1    2    0    0  0.11727966574E+02  0.83749892782E+01  0.64037640043E+02  0.14118606513E+03  0.12500000000E+03 0.  0.
</event>
<event>
 5    0  0.5452999E-005  0.5127852E+03  0.7546771E-02  0.1010495E+00
         21   -1    0    0  502  501  0.00000000000E+00  0.00000000000E+00  0.29615231739E+03  0.29615231739E+03  0.00000000000E+00 0.  1.
         21   -1    0    0  501  502 -0.00000000000E+00 -0.00000000000E+00 -0.88788331678E+03  0.88788331678E+03  0.00000000000E+00 0.  1.
         25    1    1    2    0    0  0.22842416362E+03 -0.10868113158E+03 -0.14600450760E+03  0.31769718778E+03  0.12500000000E+03 0.  0.
         25    1    1    2    0    0 -0.39988070060E+03 -0.62547836122E+00 -0.75304568211E+02  0.42567680689E+03  0.12500000000E+03 0.  0.
         25    1    1    2    0    0  0.17145653698E+03  0.10930660994E+03 -0.37042192358E+03  0.44066163949E+03  0.12500000000E+03 0.  0.
</event>
<event>
 5    0  0.5452999E-005  0.2699381E+03  0.7546771E-02  0.1101315E+00
         21   -1    0    0  502  501  0.00000000000E+00  0.00000000000E+00  0.14997357556E+03  0.14997357556E+03  0.00000000000E+00 0. -1.
         21   -1    0    0  501  502 -0.00000000000E+00 -0.00000000000E+00 -0.48586272707E+03  0.48586272707E+03  0.00000000000E+00 0. -1.
         25    1    1    2    0    0  0.81663420240E+02  0.10084220126E+03 -0.56591724772E+02  0.18885361281E+03  0.12500000000E+03 0.  0.
         25    1    1    2    0    0 -0.52466771136E+02 -0.15779956659E+03 -0.15480132092E+03  0.25931045919E+03  0.12500000000E+03 0.  0.
         25    1    1    2    0    0 -0.29196649104E+02  0.56957365332E+02 -0.12449610582E+03  0.18767223063E+03  0.12500000000E+03 0.  0.
</event>
<event>
 5    0  0.5452999E-005  0.4211935E+03  0.7546771E-02  0.1036679E+00
         21   -1    0    0  502  501  0.00000000000E+00  0.00000000000E+00  0.54252625429E+03  0.54252625429E+03  0.00000000000E+00 0. -1.
         21   -1    0    0  501  502 -0.00000000000E+00 -0.00000000000E+00 -0.32699605834E+03  0.32699605834E+03  0.00000000000E+00 0. -1.
         25    1    1    2    0    0  0.81561964825E+02  0.38624857360E+02  0.29842016827E+03  0.33589258781E+03  0.12500000000E+03 0.  0.
         25    1    1    2    0    0  0.44937647744E+02 -0.21464597439E+03 -0.12201933179E+03  0.28036762266E+03  0.12500000000E+03 0.  0.
         25    1    1    2    0    0 -0.12649961257E+03  0.17602111703E+03  0.39129359469E+02  0.25326210216E+03  0.12500000000E+03 0.  0.
</event>
<event>
 5    0  0.5452999E-005  0.2897934E+03  0.7546771E-02  0.1090457E+00
         21   -1    0    0  502  501  0.00000000000E+00  0.00000000000E+00  0.75554699479E+02  0.75554699479E+02  0.00000000000E+00 0. -1.
         21   -1    0    0  501  502 -0.00000000000E+00 -0.00000000000E+00 -0.11115154114E+04  0.11115154114E+04  0.00000000000E+00 0. -1.
         25    1    1    2    0    0 -0.30540390926E+02 -0.13282846082E+03 -0.52167104088E+03  0.55348151765E+03  0.12500000000E+03 0.  0.
         25    1    1    2    0    0  0.90662951525E+02 -0.11261974200E+02 -0.13778851251E+03  0.20726137368E+03  0.12500000000E+03 0.  0.
         25    1    1    2    0    0 -0.60122560598E+02  0.14409043502E+03 -0.37650115858E+03  0.42632721959E+03  0.12500000000E+03 0.  0.
</event>
<event>
 5    0  0.5452999E-005  0.3660809E+03  0.7546771E-02  0.1056202E+00
         21   -1    0    0  502  501  0.00000000000E+00  0.00000000000E+00  0.11123180726E+04  0.11123180726E+04  0.00000000000E+00 0. -1.
         21   -1    0    0  501  502 -0.00000000000E+00 -0.00000000000E+00 -0.12048285903E+03  0.12048285903E+03  0.00000000000E+00 0. -1.
         25    1    1    2    0    0  0.23358905633E+02  0.16155817196E+03  0.49999578599E+03  0.54061767212E+03  0.12500000000E+03 0.  0.
         25    1    1    2    0    0 -0.74637324770E+02 -0.26812162111E+03  0.37840817297E+03  0.48608402497E+03  0.12500000000E+03 0.  0.
         25    1    1    2    0    0  0.51278419137E+02  0.10656344915E+03  0.11343125464E+03  0.20609923457E+03  0.12500000000E+03 0.  0.
</event>
<event>
 5    0  0.5452999E-005  0.2988291E+03  0.7546771E-02  0.1085827E+00
         21   -1    0    0  502  501  0.00000000000E+00  0.00000000000E+00  0.12522652509E+03  0.12522652509E+03  0.00000000000E+00 0. -1.
         21   -1    0    0  501  502 -0.00000000000E+00 -0.00000000000E+00 -0.71309852668E+03  0.71309852668E+03  0.00000000000E+00 0. -1.
         25    1    1    2    0    0 -0.90279156819E+01 -0.17440623047E+03 -0.23006624078E+03  0.31472926720E+03  0.12500000000E+03 0.  0.
         25    1    1    2    0    0  0.86227403487E-01  0.42670840544E+02 -0.30792248621E+03  0.33505531720E+03  0.12500000000E+03 0.  0.
         25    1    1    2    0    0  0.89416882784E+01  0.13173538993E+03 -0.49883274604E+02  0.18854046736E+03  0.12500000000E+03 0.  0.
</event>
<event>
 5    0  0.5452999E-005  0.3065366E+03  0.7546771E-02  0.1082018E+00
         21   -1    0    0  502  501  0.00000000000E+00  0.00000000000E+00  0.16721699888E+04  0.16721699888E+04  0.00000000000E+00 0. -1.
         21   -1    0    0  501  502 -0.00000000000E+00 -0.00000000000E+00 -0.56193252553E+02  0.56193252553E+02  0.00000000000E+00 0. -1.
         25    1    1    2    0    0  0.10999960543E+03 -0.16856828551E+03  0.92574868331E+03  0.95558924477E+03  0.12500000000E+03 0.  0.
         25    1    1    2    0    0 -0.33054900728E+02  0.95239935660E+02  0.20410031242E+03  0.25970215505E+03  0.12500000000E+03 0.  0.
         25    1    1    2    0    0 -0.76944704702E+02  0.73328349846E+02  0.48612774051E+03  0.51307184153E+03  0.12500000000E+03 0.  0.
</event>
<event>
 5    0  0.5452999E-005  0.3704472E+03  0.7546771E-02  0.1054522E+00
         21   -1    0    0  502  501  0.00000000000E+00  0.00000000000E+00  0.85744746519E+02  0.85744746519E+02  0.00000000000E+00 0.  1.
         21   -1    0    0  501  502 -0.00000000000E+00 -0.00000000000E+00 -0.16004613088E+04  0.16004613088E+04  0.00000000000E+00 0.  1.
         25    1    1    2    0    0  0.18241499239E+03 -0.17285662224E+03 -0.10763623557E+04  0.11123558613E+04  0.12500000000E+03 0.  0.
         25    1    1    2    0    0 -0.14060012805E+03  0.79209884500E+02 -0.28839420855E+03  0.35332537601E+03  0.12500000000E+03 0.  0.
         25    1    1    2    0    0 -0.41814864334E+02  0.93646737736E+02 -0.14995999804E+03  0.22052481806E+03  0.12500000000E+03 0.  0.
</event>
<event>
 5    0  0.5452999E-005  0.3010744E+03  0.7546771E-02  0.1084705E+00
         21   -1    0    0  502  501  0.00000000000E+00  0.00000000000E+00  0.14600663861E+03  0.14600663861E+03  0.00000000000E+00 0.  1.
         21   -1    0    0  501  502 -0.00000000000E+00 -0.00000000000E+00 -0.62083335458E+03  0.62083335458E+03  0.00000000000E+00 0.  1.
         25    1    1    2    0    0  0.33238786835E+02  0.37158259546E+02  0.39915095353E+01  0.13463463652E+03  0.12500000000E+03 0.  0.
         25    1    1    2    0    0 -0.38939728118E+02  0.62357342926E+02 -0.20073277357E+02  0.14639903383E+03  0.12500000000E+03 0.  0.
         25    1    1    2    0    0  0.57009412829E+01 -0.99515602472E+02 -0.45874494814E+03  0.48580632284E+03  0.12500000000E+03 0.  0.
</event>
<event>
 5    0  0.5452999E-005  0.2371240E+03  0.7546771E-02  0.1121724E+00
         21   -1    0    0  502  501  0.00000000000E+00  0.00000000000E+00  0.25659500852E+02  0.25659500852E+02  0.00000000000E+00 0. -1.
         21   -1    0    0  501  502 -0.00000000000E+00 -0.00000000000E+00 -0.21913054181E+04  0.21913054181E+04  0.00000000000E+00 0. -1.
         25    1    1    2    0    0 -0.63874392118E+02  0.76738810523E+02 -0.84137131809E+03  0.85644584061E+03  0.12500000000E+03 0.  0.
         25    1    1    2    0    0  0.12942319348E+02 -0.49934266687E+02 -0.32794450441E+03  0.35473022509E+03  0.12500000000E+03 0.  0.
         25    1    1    2    0    0  0.50932072770E+02 -0.26804543836E+02 -0.99633009477E+03  0.10057888533E+04  0.12500000000E+03 0.  0.
</event>
<event>
 5    0  0.5452999E-005  0.3079728E+03  0.7546771E-02  0.1081322E+00
         21   -1    0    0  502  501  0.00000000000E+00  0.00000000000E+00  0.61556775657E+02  0.61556775657E+02  0.00000000000E+00 0.  1.
         21   -1    0    0  501  502 -0.00000000000E+00 -0.00000000000E+00 -0.15408090387E+04  0.15408090387E+04  0.00000000000E+00 0.  1.
         25    1    1    2    0    0  0.59130906716E+02  0.60750374895E+02 -0.56269335489E+03  0.58261126303E+03  0.12500000000E+03 0.  0.
         25    1    1    2    0    0 -0.13824138752E+03  0.11361979965E+03 -0.43880380388E+03  0.49009582573E+03  0.12500000000E+03 0.  0.
         25    1    1    2    0    0  0.79110480807E+02 -0.17437017454E+03 -0.47775510431E+03  0.52965872564E+03  0.12500000000E+03 0.  0.
</event>
<event>
 5    0  0.5452999E-005  0.2669762E+03  0.7546771E-02  0.1103023E+00
         21   -1    0    0  502  501  0.00000000000E+00  0.00000000000E+00  0.12961253326E+03  0.12961253326E+03  0.00000000000E+00 0. -1.
         21   -1    0    0  501  502 -0.00000000000E+00 -0.00000000000E+00 -0.54991806598E+03  0.54991806598E+03  0.00000000000E+00 0. -1.
         25    1    1    2    0    0  0.43773216951E+02  0.93065200400E+02 -0.53271291799E+02  0.17041143324E+03  0.12500000000E+03 0.  0.
         25    1    1    2    0    0 -0.22384240987E+02  0.60416179322E+02 -0.22202076720E+03  0.26281055922E+03  0.12500000000E+03 0.  0.
         25    1    1    2    0    0 -0.21388975965E+02 -0.15348137972E+03 -0.14501347373E+03  0.24630860679E+03  0.12500000000E+03 0.  0.
</event>
<event>
 5    0  0.5452999E-005  0.3340234E+03  0.7546771E-02  0.1069370E+00
         21   -1    0    0  502  501  0.00000000000E+00  0.00000000000E+00  0.23556172280E+03  0.23556172280E+03  0.00000000000E+00 0.  1.
         21   -1    0    0  501  502 -0.00000000000E+00 -0.00000000000E+00 -0.47364085203E+03  0.47364085203E+03  0.00000000000E+00 0.  1.
         25    1    1    2    0    0 -0.88069741726E+02 -0.56247794443E+02 -0.78920749504E+02  0.18103474387E+03  0.12500000000E+03 0.  0.
         25    1    1    2    0    0  0.84707261339E+02 -0.68189528218E+02  0.11533653700E+03  0.20187285268E+03  0.12500000000E+03 0.  0.
         25    1    1    2    0    0  0.33624803878E+01  0.12443732266E+03 -0.27449491672E+03  0.32629497828E+03  0.12500000000E+03 0.  0.
</event>
<event>
 5    0  0.5512333E-005  0.2595193E+03  0.7546771E-02  0.1107432E+00
         21   -1    0    0  502  501  0.00000000000E+00  0.00000000000E+00  0.87022068306E+02  0.87022068306E+02  0.00000000000E+00 0.  1.
         21   -1    0    0  501  502 -0.00000000000E+00 -0.00000000000E+00 -0.77394444130E+03  0.77394444130E+03  0.00000000000E+00 0.  1.
         25    1    1    2    0    0  0.19082718615E+02 -0.10756993532E+03 -0.19937037313E+03  0.25943975566E+03  0.12500000000E+03 0.  0.
         25    1    1    2    0    0 -0.11111541102E+02 -0.62577451760E+02 -0.17477905505E+03  0.22408061473E+03  0.12500000000E+03 0.  0.
         25    1    1    2    0    0 -0.79711775138E+01  0.17014738708E+03 -0.31277294481E+03  0.37744613921E+03  0.12500000000E+03 0.  0.
</event>
<event>
 5    0  0.5452999E-005  0.2724146E+03  0.7546771E-02  0.1099906E+00
         21   -1    0    0  502  501  0.00000000000E+00  0.00000000000E+00  0.17349229097E+04  0.17349229097E+04  0.00000000000E+00 0. -1.
         21   -1    0    0  501  502 -0.00000000000E+00 -0.00000000000E+00 -0.42774062865E+02  0.42774062865E+02  0.00000000000E+00 0. -1.
         25    1    1    2    0    0 -0.13078267536E+02 -0.11460691281E+03  0.74040705630E+03  0.75969296072E+03  0.12500000000E+03 0.  0.
         25    1    1    2    0    0 -0.42722959685E+02  0.27578691260E+01  0.68752099250E+03  0.70010211559E+03  0.12500000000E+03 0.  0.
         25    1    1    2    0    0  0.55801227220E+02  0.11184904368E+03  0.26422079806E+03  0.31790189628E+03  0.12500000000E+03 0.  0.
</event>
<event>
 5    0  0.5452999E-005  0.3376360E+03  0.7546771E-02  0.1067807E+00
         21   -1    0    0  502  501  0.00000000000E+00  0.00000000000E+00  0.92105195751E+03  0.92105195751E+03  0.00000000000E+00 0.  1.
         21   -1    0    0  501  502 -0.00000000000E+00 -0.00000000000E+00 -0.12376942275E+03  0.12376942275E+03  0.00000000000E+00 0.  1.
         25    1    1    2    0    0 -0.67588295884E+02  0.14433685680E+03  0.16628429110E+03  0.26206253345E+03  0.12500000000E+03 0.  0.
         25    1    1    2    0    0 -0.13894294685E+03 -0.98869827785E+02  0.22933827480E+03  0.31193177077E+03  0.12500000000E+03 0.  0.
         25    1    1    2    0    0  0.20653124274E+03 -0.45467029011E+02  0.40165996885E+03  0.47082707604E+03  0.12500000000E+03 0.  0.
</event>
<event>
 5    0  0.5452999E-005  0.3881989E+03  0.7546771E-02  0.1047944E+00
         21   -1    0    0  502  501  0.00000000000E+00  0.00000000000E+00  0.24084438420E+04  0.24084438420E+04  0.00000000000E+00 0.  1.
         21   -1    0    0  501  502 -0.00000000000E+00 -0.00000000000E+00 -0.62570842648E+02  0.62570842648E+02  0.00000000000E+00 0.  1.
         25    1    1    2    0    0 -0.25564653581E+03 -0.67819489554E+02  0.54802402359E+03  0.62121652011E+03  0.12500000000E+03 0.  0.
         25    1    1    2    0    0  0.19857100379E+03  0.10183311537E+03  0.14787432634E+04  0.15007021910E+04  0.12500000000E+03 0.  0.
         25    1    1    2    0    0  0.57075532012E+02 -0.34013625814E+02  0.31910571237E+03  0.34909597357E+03  0.12500000000E+03 0.  0.
</event>
<event>
 5    0  0.5452999E-005  0.3537447E+03  0.7546771E-02  0.1061088E+00
         21   -1    0    0  502  501  0.00000000000E+00  0.00000000000E+00  0.12315096760E+04  0.12315096760E+04  0.00000000000E+00 0. -1.
         21   -1    0    0  501  502 -0.00000000000E+00 -0.00000000000E+00 -0.10161131954E+03  0.10161131954E+03  0.00000000000E+00 0. -1.
         25    1    1    2    0    0 -0.18306668387E+02 -0.17755685493E+03  0.63375886412E+03  0.67017674437E+03  0.12500000000E+03 0.  0.
         25    1    1    2    0    0 -0.12542594378E+03  0.65611906021E+02  0.11132979583E+03  0.21921658930E+03  0.12500000000E+03 0.  0.
         25    1    1    2    0    0  0.14373261216E+03  0.11194494891E+03  0.38480969657E+03  0.44372766192E+03  0.12500000000E+03 0.  0.
</event>
<event>
 5    0  0.5452999E-005  0.2474245E+03  0.7546771E-02  0.1114943E+00
         21   -1    0    0  502  501  0.00000000000E+00  0.00000000000E+00  0.57666067023E+02  0.57666067023E+02  0.00000000000E+00 0. -1.
         21   -1    0    0  501  502 -0.00000000000E+00 -0.00000000000E+00 -0.10616097570E+04  0.10616097570E+04  0.00000000000E+00 0. -1.
         25    1    1    2    0    0 -0.26285824483E+02 -0.84612397910E+01 -0.64981753346E+03  0.66230685028E+03  0.12500000000E+03 0.  0.
         25    1    1    2    0    0  0.41535661539E+02  0.69355187709E+02 -0.18782154102E+03  0.23966076966E+03  0.12500000000E+03 0.  0.
         25    1    1    2    0    0 -0.15249837056E+02 -0.60893947918E+02 -0.16630461549E+03  0.21730820407E+03  0.12500000000E+03 0.  0.
</event>
<event>
 5    0  0.5452999E-005  0.3166916E+03  0.7546771E-02  0.1077182E+00
         21   -1    0    0  502  501  0.00000000000E+00  0.00000000000E+00  0.18799298677E+04  0.18799298677E+04  0.00000000000E+00 0. -1.
         21   -1    0    0  501  502 -0.00000000000E+00 -0.00000000000E+00 -0.53349617397E+02  0.53349617397E+02  0.00000000000E+00 0. -1.
         25    1    1    2    0    0 -0.10419848049E+01 -0.79602038307E+02  0.21358487549E+03  0.25996359221E+03  0.12500000000E+03 0.  0.
         25    1    1    2    0    0  0.11944543183E+03 -0.69502238705E+02  0.10427151637E+04  0.10592344806E+04  0.12500000000E+03 0.  0.
         25    1    1    2    0    0 -0.11840344702E+03  0.14910427701E+03  0.57028021119E+03  0.61408141232E+03  0.12500000000E+03 0.  0.
</event>
<event>
 5    0  0.5452999E-005  0.2411607E+03  0.7546771E-02  0.1119022E+00
         21   -1    0    0  502  501  0.00000000000E+00  0.00000000000E+00  0.38614756412E+03  0.38614756412E+03  0.00000000000E+00 0.  1.
         21   -1    0    0  501  502 -0.00000000000E+00 -0.00000000000E+00 -0.15061207570E+03  0.15061207570E+03  0.00000000000E+00 0.  1.
         25    1    1    2    0    0  0.84907443221E+02  0.74670487480E+02  0.89429493021E+02  0.19080773002E+03  0.12500000000E+03 0.  0.
         25    1    1    2    0    0 -0.89180380276E+02 -0.15845831904E+02  0.13871977038E+03  0.20753892481E+03  0.12500000000E+03 0.  0.
         25    1    1    2    0    0  0.42729370550E+01 -0.58824655576E+02  0.73862250230E+01  0.13841298499E+03  0.12500000000E+03 0.  0.
</event>
<event>
 5    0  0.5452999E-005  0.2774785E+03  0.7546771E-02  0.1097074E+00
         21   -1    0    0  502  501  0.00000000000E+00  0.00000000000E+00  0.42820940591E+03  0.42820940591E+03  0.00000000000E+00 0. -1.
         21   -1    0    0  501  502 -0.00000000000E+00 -0.00000000000E+00 -0.17980533233E+03  0.17980533233E+03  0.00000000000E+00 0. -1.
         25    1    1    2    0    0  0.65167356747E+02 -0.42804218533E+02  0.11150028401E+03  0.18476011161E+03  0.12500000000E+03 0.  0.
         25    1    1    2    0    0  0.11457683372E+03  0.55127106817E+02  0.36138378168E+02  0.18192809324E+03  0.12500000000E+03 0.  0.
         25    1    1    2    0    0 -0.17974419047E+03 -0.12322888284E+02  0.10076541140E+03  0.24132653339E+03  0.12500000000E+03 0.  0.
</event>
<event>
 5    0  0.5452999E-005  0.3190646E+03  0.7546771E-02  0.1076081E+00
         21   -1    0    0  502  501  0.00000000000E+00  0.00000000000E+00  0.82527722470E+02  0.82527722470E+02  0.00000000000E+00 0. -1.
         21   -1    0    0  501  502 -0.00000000000E+00 -0.00000000000E+00 -0.12335516396E+04  0.12335516396E+04  0.00000000000E+00 0. -1.
         25    1    1    2    0    0  0.97499273660E+01  0.29592836380E+02 -0.29995334139E+03  0.32644724545E+03  0.12500000000E+03 0.  0.
         25    1    1    2    0    0  0.62072244558E+02  0.18020499412E+03 -0.55007597645E+03  0.59542873908E+03  0.12500000000E+03 0.  0.
         25    1    1    2    0    0 -0.71822171924E+02 -0.20979783050E+03 -0.30099459927E+03  0.39420337753E+03  0.12500000000E+03 0.  0.
</event>
<event>
 5    0  0.5452999E-005  0.2284422E+03  0.7546771E-02  0.1127741E+00
         21   -1    0    0  502  501  0.00000000000E+00  0.00000000000E+00  0.24642709365E+04  0.24642709365E+04  0.00000000000E+00 0.  1.
         21   -1    0    0  501  502 -0.00000000000E+00 -0.00000000000E+00 -0.21176986693E+02  0.21176986693E+02  0.00000000000E+00 0.  1.
         25    1    1    2    0    0 -0.58168594790E+02  0.23733553267E+02  0.55107352582E+03  0.56855421714E+03  0.12500000000E+03 0.  0.
         25    1    1    2    0    0 -0.15265373903E+02  0.60908582291E+02  0.84476152907E+03  0.85626510383E+03  0.12500000000E+03 0.  0.
         25    1    1    2    0    0  0.73433968694E+02 -0.84642135558E+02  0.10472588949E+04  0.10606286022E+04  0.12500000000E+03 0.  0.
</event>
<event>
 5    0  0.5452999E-005  0.3266927E+03  0.7546771E-02  0.1072610E+00
         21   -1    0    0  502  501  0.00000000000E+00  0.00000000000E+00  0.15166521032E+03  0.15166521032E+03  0.00000000000E+00 0.  1.
         21   -1    0    0  501  502 -0.00000000000E+00 -0.00000000000E+00 -0.70370849013E+03  0.70370849013E+03  0.00000000000E+00 0.  1.
         25    1    1    2    0    0  0.12656025907E+03 -0.20027393160E+03 -0.19405874795E+03  0.33077325241E+03  0.12500000000E+03 0.  0.
         25    1    1    2    0    0  0.10450591067E+02  0.55206130461E+02 -0.74174602516E+02  0.15583261325E+03  0.12500000000E+03 0.  0.
         25    1    1    2    0    0 -0.13701085013E+03  0.14506780114E+03 -0.28380992934E+03  0.36876783478E+03  0.12500000000E+03 0.  0.
</event>
<event>
 5    0  0.5452999E-005  0.2528423E+03  0.7546771E-02  0.1111522E+00
         21   -1    0    0  502  501  0.00000000000E+00  0.00000000000E+00  0.22864006574E+03  0.22864006574E+03  0.00000000000E+00 0. -1.
         21   -1    0    0  501  502 -0.00000000000E+00 -0.00000000000E+00 -0.27960639188E+03  0.27960639188E+03  0.00000000000E+00 0. -1.
         25    1    1    2    0    0 -0.21006933607E+02 -0.11584802022E+03 -0.40936042214E+02  0.17652992551E+03  0.12500000000E+03 0.  0.
         25    1    1    2    0    0 -0.52508556877E+02 -0.56528549622E+01 -0.36910149615E+02  0.14062881091E+03  0.12500000000E+03 0.  0.
         25    1    1    2    0    0  0.73515490483E+02  0.12150087519E+03  0.26879865683E+02  0.19108772119E+03  0.12500000000E+03 0.  0.
</event>
<event>
 5    0  0.5452999E-005  0.2406652E+03  0.7546771E-02  0.1119350E+00
         21   -1    0    0  502  501  0.00000000000E+00  0.00000000000E+00  0.53828776685E+03  0.53828776685E+03  0.00000000000E+00 0.  1.
         21   -1    0    0  501  502 -0.00000000000E+00 -0.00000000000E+00 -0.10759995505E+03  0.10759995505E+03  0.00000000000E+00 0.  1.
         25    1    1    2    0    0  0.24306311750E+02 -0.50813857987E+02  0.43273198878E+02  0.14377209290E+03  0.12500000000E+03 0.  0.
         25    1    1    2    0    0  0.57138309434E+02  0.43898394657E+02  0.28969437290E+03  0.32363511111E+03  0.12500000000E+03 0.  0.
         25    1    1    2    0    0 -0.81444621185E+02  0.69154633305E+01  0.97720240031E+02  0.17848051789E+03  0.12500000000E+03 0.  0.
</event>
<event>
 5    0  0.5452999E-005  0.2700140E+03  0.7546771E-02  0.1101272E+00
         21   -1    0    0  502  501  0.00000000000E+00  0.00000000000E+00  0.16073768392E+03  0.16073768392E+03  0.00000000000E+00 0. -1.
         21   -1    0    0  501  502 -0.00000000000E+00 -0.00000000000E+00 -0.45358116913E+03  0.45358116913E+03  0.00000000000E+00 0. -1.
         25    1    1    2    0    0  0.11177645010E+03 -0.44514686478E+01 -0.17297685987E+03  0.24095598026E+03  0.12500000000E+03 0.  0.
         25    1    1    2    0    0 -0.21024668793E+02  0.10716919871E+02  0.56188514293E+02  0.13906487050E+03  0.12500000000E+03 0.  0.
         25    1    1    2    0    0 -0.90751781307E+02 -0.62654512232E+01 -0.17605513962E+03  0.23429800229E+03  0.12500000000E+03 0.  0.
</event>
<event>
 5    0  0.5452999E-005  0.2427576E+03  0.7546771E-02  0.1117969E+00
         21   -1    0    0  502  501  0.00000000000E+00  0.00000000000E+00  0.26546214273E+04  0.26546214273E+04  0.00000000000E+00 0.  1.
         21   -1    0    0  501  502 -0.00000000000E+00 -0.00000000000E+00 -0.22199493812E+02  0.22199493812E+02  0.00000000000E+00 0.  1.
         25    1    1    2    0    0  0.12561446393E+03  0.20499001335E+02  0.13420648730E+04  0.13538693902E+04  0.12500000000E+03 0.  0.
         25    1    1    2    0    0 -0.44827345102E+02  0.27183221480E+02  0.60726467274E+03  0.62220880832E+03  0.12500000000E+03 0.  0.
         25    1    1    2    0    0 -0.80787118832E+02 -0.47682222815E+02  0.68309238777E+03  0.70074272252E+03  0.12500000000E+03 0.  0.
</event>
<event>
 5    0  0.5452999E-005  0.3786276E+03  0.7546771E-02  0.1051442E+00
         21   -1    0    0  502  501  0.00000000000E+00  0.00000000000E+00  0.35934204951E+03  0.35934204951E+03  0.00000000000E+00 0. -1.
         21   -1    0    0  501  502 -0.00000000000E+00 -0.00000000000E+00 -0.39894825240E+03  0.39894825240E+03  0.00000000000E+00 0. -1.
         25    1    1    2    0    0 -0.85264739601E+02 -0.15180933387E+03  0.33502181792E+01  0.21436504760E+03  0.12500000000E+03 0.  0.
         25    1    1    2    0    0  0.17660594664E+03  0.57689709645E+02  0.15746536750E+03  0.27374825104E+03  0.12500000000E+03 0.  0.
         25    1    1    2    0    0 -0.91341207042E+02  0.94119624223E+02 -0.20042178856E+03  0.27017700327E+03  0.12500000000E+03 0.  0.
</event>
<event>
 5    0  0.5452999E-005  0.2239592E+03  0.7546771E-02  0.1130965E+00
         21   -1    0    0  502  501  0.00000000000E+00  0.00000000000E+00  0.27676004555E+03  0.27676004555E+03  0.00000000000E+00 0.  1.
         21   -1    0    0  501  502 -0.00000000000E+00 -0.00000000000E+00 -0.18123180128E+03  0.18123180128E+03  0.00000000000E+00 0.  1.
         25    1    1    2    0    0 -0.52694882442E+02  0.66215839332E+02  0.96533763658E+02  0.17917883675E+03  0.12500000000E+03 0.  0.
         25    1    1    2    0    0  0.26869796642E+02 -0.77841416006E+02  0.10957134979E+02  0.15008774375E+03  0.12500000000E+03 0.  0.
         25    1    1    2    0    0  0.25825085800E+02  0.11625576674E+02 -0.11962654370E+02  0.12872526632E+03  0.12500000000E+03 0.  0.
</event>
<event>
 5    0  0.5452999E-005  0.3426381E+03  0.7546771E-02  0.1065678E+00
         21   -1    0    0  502  501  0.00000000000E+00  0.00000000000E+00  0.85187392859E+03  0.85187392859E+03  0.00000000000E+00 0.  1.
         21   -1    0    0  501  502 -0.00000000000E+00 -0.00000000000E+00 -0.13781483166E+03  0.13781483166E+03  0.00000000000E+00 0.  1.
         25    1    1    2    0    0 -0.48159052047E+02  0.42951020315E+02 -0.24114456101E+02  0.14272558086E+03  0.12500000000E+03 0.  0.
         25    1    1    2    0    0  0.91855560252E+02 -0.13980669403E+03  0.59010883587E+03  0.62596868438E+03  0.12500000000E+03 0.  0.
         25    1    1    2    0    0 -0.43696508205E+02  0.96855673719E+02  0.14806471716E+03  0.22099449502E+03  0.12500000000E+03 0.  0.
</event>
<event>
 5    0  0.5452999E-005  0.3970804E+03  0.7546771E-02  0.1044795E+00
         21   -1    0    0  502  501  0.00000000000E+00  0.00000000000E+00  0.22104591284E+04  0.22104591284E+04  0.00000000000E+00 0.  1.
         21   -1    0    0  501  502 -0.00000000000E+00 -0.00000000000E+00 -0.71330372787E+02  0.71330372787E+02  0.00000000000E+00 0.  1.
         25    1    1    2    0    0 -0.32629375691E+02 -0.17566706716E+03  0.11388563184E+04  0.11595440089E+04  0.12500000000E+03 0.  0.
         25    1    1    2    0    0 -0.87888237611E+02  0.20777607004E+03  0.85664488455E+03  0.89462880337E+03  0.12500000000E+03 0.  0.
         25    1    1    2    0    0  0.12051761330E+03 -0.32109002881E+02  0.14362755265E+03  0.22761668889E+03  0.12500000000E+03 0.  0.
</event>
<event>
 5    0  0.5452999E-005  0.2770975E+03  0.7546771E-02  0.1097285E+00
         21   -1    0    0  502  501  0.00000000000E+00  0.00000000000E+00  0.75182859914E+02  0.75182859914E+02  0.00000000000E+00 0.  1.
         21   -1    0    0  501  502 -0.00000000000E+00 -0.00000000000E+00 -0.10212833642E+04  0.10212833642E+04  0.00000000000E+00 0.  1.
         25    1    1    2    0    0 -0.12574604465E+03 -0.57095254460E+02 -0.47046981705E+03  0.50600275156E+03  0.12500000000E+03 0.  0.
         25    1    1    2    0    0  0.14393366888E+03  0.87963128448E+02 -0.35850376577E+03  0.41545681253E+03  0.12500000000E+03 0.  0.
         25    1    1    2    0    0 -0.18187624229E+02 -0.30867873988E+02 -0.11712692143E+03  0.17500666000E+03  0.12500000000E+03 0.  0.
</event>
<event>
 5    0  0.5452999E-005  0.3336169E+03  0.7546771E-02  0.1069548E+00
         21   -1    0    0  502  501  0.00000000000E+00  0.00000000000E+00  0.11760568647E+03  0.11760568647E+03  0.00000000000E+00 0. -1.
         21   -1    0    0  501  502 -0.00000000000E+00 -0.00000000000E+00 -0.94638482884E+03  0.94638482884E+03  0.00000000000E+00 0. -1.
         25    1    1    2    0    0 -0.80725252602E+02  0.10730653660E+03 -0.22987609006E+02  0.18489102026E+03  0.12500000000E+03 0.  0.
         25    1    1    2    0    0  0.14900400102E+02 -0.15552385712E+03 -0.50813214229E+03  0.54610710130E+03  0.12500000000E+03 0.  0.
         25    1    1    2    0    0  0.65824852499E+02  0.48217320521E+02 -0.29765939107E+03  0.33299239375E+03  0.12500000000E+03 0.  0.
</event>
<event>
 5    0  0.5452999E-005  0.2633973E+03  0.7546771E-02  0.1105119E+00
         21   -1    0    0  502  501  0.00000000000E+00  0.00000000000E+00  0.23368270784E+03  0.23368270784E+03  0.00000000000E+00 0. -1.
         21   -1    0    0  501  502 -0.00000000000E+00 -0.00000000000E+00 -0.29689032046E+03  0.29689032046E+03  0.00000000000E+00 0. -1.
         25    1    1    2    0    0  0.74414411463E+00  0.63750231879E+02  0.98970041112E+02  0.17171113782E+03  0.12500000000E+03 0.  0.
         25    1    1    2    0    0 -0.88551427553E+02 -0.14091837123E+02 -0.11299491994E+03  0.19087374656E+03  0.12500000000E+03 0.  0.
         25    1    1    2    0    0  0.87807283439E+02 -0.49658394756E+02 -0.49182733796E+02  0.16798814392E+03  0.12500000000E+03 0.  0.
</event>
<event>
 5    0  0.5452999E-005  0.5559252E+03  0.7546771E-02  0.1000132E+00
         21   -1    0    0  502  501  0.00000000000E+00  0.00000000000E+00  0.24962864047E+03  0.24962864047E+03  0.00000000000E+00 0.  1.
         21   -1    0    0  501  502 -0.00000000000E+00 -0.00000000000E+00 -0.12380502674E+04  0.12380502674E+04  0.00000000000E+00 0. -1.
         25    1    1    2    0    0 -0.57400893978E+02  0.45047226304E+03 -0.38978201044E+03  0.61137152212E+03  0.12500000000E+03 0.  0.
         25    1    1    2    0    0  0.46659611237E+02 -0.30120834712E+03 -0.10533897617E+03  0.34586830961E+03  0.12500000000E+03 0.  0.
         25    1    1    2    0    0  0.10741282741E+02 -0.14926391592E+03 -0.49330064035E+03  0.53043907616E+03  0.12500000000E+03 0.  0.
</event>
<event>
 5    0  0.5452999E-005  0.3059133E+03  0.7546771E-02  0.1082321E+00
         21   -1    0    0  502  501  0.00000000000E+00  0.00000000000E+00  0.18348333610E+03  0.18348333610E+03  0.00000000000E+00 0.  1.
         21   -1    0    0  501  502 -0.00000000000E+00 -0.00000000000E+00 -0.51003510290E+03  0.51003510290E+03  0.00000000000E+00 0.  1.
         25    1    1    2    0    0 -0.22982269881E+02  0.53563954082E+02 -0.45968394396E+02  0.14538010589E+03  0.12500000000E+03 0.  0.
         25    1    1    2    0    0  0.18550880110E+03 -0.58004042722E+02 -0.44358590780E+02  0.23530972958E+03  0.12500000000E+03 0.  0.
         25    1    1    2    0    0 -0.16252653122E+03  0.44400886400E+01 -0.23622478162E+03  0.31282860353E+03  0.12500000000E+03 0.  0.
</event>
<event>
 5    0  0.5452999E-005  0.2702946E+03  0.7546771E-02  0.1101111E+00
         21   -1    0    0  502  501  0.00000000000E+00  0.00000000000E+00  0.14855561296E+03  0.14855561296E+03  0.00000000000E+00 0. -1.
         21   -1    0    0  501  502 -0.00000000000E+00 -0.00000000000E+00 -0.49179678913E+03  0.49179678913E+03  0.00000000000E+00 0. -1.
         25    1    1    2    0    0 -0.11590989455E+03  0.82989629105E+02 -0.24134873401E+03  0.30691463569E+03  0.12500000000E+03 0.  0.
         25    1    1    2    0    0  0.86404864426E+02 -0.47768122442E+02  0.98494477065E+01  0.15959199773E+03  0.12500000000E+03 0.  0.
         25    1    1    2    0    0  0.29505030128E+02 -0.35221506663E+02 -0.11174188987E+03  0.17384576868E+03  0.12500000000E+03 0.  0.
</event>
<event>
 5    0  0.5452999E-005  0.4527902E+03  0.7546771E-02  0.1026893E+00
         21   -1    0    0  502  501  0.00000000000E+00  0.00000000000E+00  0.33416496312E+04  0.33416496312E+04  0.00000000000E+00 0. -1.
         21   -1    0    0  501  502 -0.00000000000E+00 -0.00000000000E+00 -0.61352622837E+02  0.61352622837E+02  0.00000000000E+00 0. -1.
         25    1    1    2    0    0  0.39674449563E+02 -0.21456496721E+03  0.56763327994E+03  0.62084195058E+03  0.12500000000E+03 0.  0.
         25    1    1    2    0    0 -0.23385381642E+03  0.83725750760E+02  0.71886518723E+03  0.77077218827E+03  0.12500000000E+03 0.  0.
         25    1    1    2    0    0  0.19417936686E+03  0.13083921645E+03  0.19937985412E+04  0.20113881152E+04  0.12500000000E+03 0.  0.
</event>
<event>
 5    0  0.5452999E-005  0.4955422E+03  0.7546771E-02  0.1014949E+00
         21   -1    0    0  502  501  0.00000000000E+00  0.00000000000E+00  0.45744267142E+03  0.45744267142E+03  0.00000000000E+00 0. -1.
         21   -1    0    0  501  502 -0.00000000000E+00 -0.00000000000E+00 -0.53681502331E+03  0.53681502331E+03  0.00000000000E+00 0. -1.
         25    1    1    2    0    0  0.80444522112E+02  0.69530323903E+02 -0.15212670114E+03  0.22377068682E+03  0.12500000000E+03 0.  0.
         25    1    1    2    0    0 -0.39702489607E+03 -0.44752136337E+02  0.92195298614E+02  0.42866828071E+03  0.12500000000E+03 0.  0.
         25    1    1    2    0    0  0.31658037395E+03 -0.24778187566E+02 -0.19440949356E+02  0.34181872720E+03  0.12500000000E+03 0.  0.
</event>
<event>
 5    0  0.6464459E-005  0.4931306E+03  0.7546771E-02  0.1015588E+00
         21   -1    0    0  502  501  0.00000000000E+00  0.00000000000E+00  0.67359424968E+03  0.67359424968E+03  0.00000000000E+00 0.  1.
         21   -1    0    0  501  502 -0.00000000000E+00 -0.00000000000E+00 -0.36101520192E+03  0.36101520192E+03  0.00000000000E+00 0.  1.
         25    1    1    2    0    0  0.99725978727E+02  0.21716108498E+03 -0.36858124710E+02  0.27219061156E+03  0.12500000000E+03 0.  0.
         25    1    1    2    0    0  0.16370052047E+03 -0.30947901300E+03  0.18828227596E+03  0.41671373307E+03  0.12500000000E+03 0.  0.
         25    1    1    2    0    0 -0.26342649920E+03  0.92317928024E+02  0.16115489651E+03  0.34570510696E+03  0.12500000000E+03 0.  0.
</event>
<event>
 5    0  0.5452999E-005  0.3265382E+03  0.7546771E-02  0.1072679E+00
         21   -1    0    0  502  501  0.00000000000E+00  0.00000000000E+00  0.11707144405E+03  0.11707144405E+03  0.00000000000E+00 0.  1.
         21   -1    0    0  501  502 -0.00000000000E+00 -0.00000000000E+00 -0.91078734128E+03  0.91078734128E+03  0.00000000000E+00 0.  1.
         25    1    1    2    0    0 -0.14193336884E+03 -0.18120951635E+03 -0.35400625520E+03  0.44037188684E+03  0.12500000000E+03 0.  0.
         25    1    1    2    0    0  0.14103896992E+03  0.38533316472E+02 -0.27892250652E+03  0.33882085556E+03  0.12500000000E+03 0.  0.
         25    1    1    2    0    0  0.89439892615E+00  0.14267619988E+03 -0.16078713552E+03  0.24866604293E+03  0.12500000000E+03 0.  0.
</event>
<event>
 5    0  0.5452999E-005  0.2700454E+03  0.7546771E-02  0.1101254E+00
         21   -1    0    0  502  501  0.00000000000E+00  0.00000000000E+00  0.13815293964E+03  0.13815293964E+03  0.00000000000E+00 0.  1.
         21   -1    0    0  501  502 -0.00000000000E+00 -0.00000000000E+00 -0.52785366406E+03  0.52785366406E+03  0.00000000000E+00 0.  1.
         25    1    1    2    0    0  0.15748867104E+03  0.62894404604E+02 -0.74752137442E+02  0.22354254559E+03  0.12500000000E+03 0.  0.
         25    1    1    2    0    0 -0.11951966121E+03 -0.36196435544E+02 -0.16423484130E+03  0.24123269774E+03  0.12500000000E+03 0.  0.
         25    1    1    2    0    0 -0.37969009832E+02 -0.26697969059E+02 -0.15071374568E+03  0.20123136037E+03  0.12500000000E+03 0.  0.
</event>
<event>
 5    0  0.5452999E-005  0.2689563E+03  0.7546771E-02  0.1101878E+00
         21   -1    0    0  502  501  0.00000000000E+00  0.00000000000E+00  0.37055079159E+03  0.37055079159E+03  0.00000000000E+00 0.  1.
         21   -1    0    0  501  502 -0.00000000000E+00 -0.00000000000E+00 -0.19521612203E+03  0.19521612203E+03  0.00000000000E+00 0. -1.
         25    1    1    2    0    0  0.86095031866E+02 -0.60388051888E+02  0.56552966658E+02  0.17286500328E+03  0.12500000000E+03 0.  0.
         25    1    1    2    0    0 -0.88796737668E+02 -0.46309282031E+01  0.18236014461E+03  0.23829924141E+03  0.12500000000E+03 0.  0.
         25    1    1    2    0    0  0.27017058025E+01  0.65018980091E+02 -0.63578441715E+02  0.15460266892E+03  0.12500000000E+03 0.  0.
</event>
<event>
 5    0  0.5452999E-005  0.2553459E+03  0.7546771E-02  0.1109972E+00
         21   -1    0    0  502  501  0.00000000000E+00  0.00000000000E+00  0.52251393573E+03  0.52251393573E+03  0.00000000000E+00 0.  1.
         21   -1    0    0  501  502 -0.00000000000E+00 -0.00000000000E+00 -0.12478426811E+03  0.12478426811E+03  0.00000000000E+00 0.  1.
         25    1    1    2    0    0  0.68163763352E+02 -0.28099067918E+02 -0.16466063256E+02  0.14605474142E+03  0.12500000000E+03 0.  0.
         25    1    1    2    0    0 -0.54983125444E+01 -0.13137691794E+02  0.12483019414E+03  0.17722981621E+03  0.12500000000E+03 0.  0.
         25    1    1    2    0    0 -0.62665450807E+02  0.41236759711E+02  0.28936553674E+03  0.32401364621E+03  0.12500000000E+03 0.  0.
</event>
<event>
 5    0  0.5452999E-005  0.2980757E+03  0.7546771E-02  0.1086207E+00
         21   -1    0    0  502  501  0.00000000000E+00  0.00000000000E+00  0.87363274847E+03  0.87363274847E+03  0.00000000000E+00 0.  1.
         21   -1    0    0  501  502 -0.00000000000E+00 -0.00000000000E+00 -0.10170075556E+03  0.10170075556E+03  0.00000000000E+00 0.  1.
         25    1    1    2    0    0 -0.74581553915E+02  0.12602338500E+03  0.15374316742E+03  0.24638641050E+03  0.12500000000E+03 0.  0.
         25    1    1    2    0    0  0.66780739861E+01 -0.14547054805E+03  0.16346596376E+03  0.25209601014E+03  0.12500000000E+03 0.  0.
         25    1    1    2    0    0  0.67903479928E+02  0.19447163047E+02  0.45472286174E+03  0.47685108338E+03  0.12500000000E+03 0.  0.
</event>
<event>
 5    0  0.5452999E-005  0.3959672E+03  0.7546771E-02  0.1045185E+00
         21   -1    0    0  502  501  0.00000000000E+00  0.00000000000E+00  0.71465737143E+03  0.71465737143E+03  0.00000000000E+00 0. -1.
         21   -1    0    0  501  502 -0.00000000000E+00 -0.00000000000E+00 -0.21939188366E+03  0.21939188366E+03  0.00000000000E+00 0. -1.
         25    1    1    2    0    0 -0.14385581149E+03 -0.20535292110E+03  0.99812050976E+02  0.29740840981E+03  0.12500000000E+03 0.  0.
         25    1    1    2    0    0  0.94221205153E+02  0.79725484031E+02  0.41589134289E+03  0.45146915442E+03  0.12500000000E+03 0.  0.
         25    1    1    2    0    0  0.49634606338E+02  0.12562743707E+03 -0.20437906094E+02  0.18517169086E+03  0.12500000000E+03 0.  0.
</event>
<event>
 5    0  0.5452999E-005  0.3732755E+03  0.7546771E-02  0.1053448E+00
         21   -1    0    0  502  501  0.00000000000E+00  0.00000000000E+00  0.10218306975E+04  0.10218306975E+04  0.00000000000E+00 0. -1.
         21   -1    0    0  501  502 -0.00000000000E+00 -0.00000000000E+00 -0.13635778918E+03  0.13635778918E+03  0.00000000000E+00 0. -1.
         25    1    1    2    0    0 -0.23988231605E+03  0.34513417944E+02  0.21093440914E+03  0.34475067300E+03  0.12500000000E+03 0.  0.
         25    1    1    2    0    0  0.12082911826E+02  0.40921068876E+02  0.42613021935E+03  0.44613058008E+03  0.12500000000E+03 0.  0.
         25    1    1    2    0    0  0.22779940423E+03 -0.75434486820E+02  0.24840827982E+03  0.36730723360E+03  0.12500000000E+03 0.  0.
</event>
<event>
 5    0  0.5452999E-005  0.2764047E+03  0.7546771E-02  0.1097669E+00
         21   -1    0    0  502  501  0.00000000000E+00  0.00000000000E+00  0.12644545960E+03  0.12644545960E+03  0.00000000000E+00 0.  1.
         21   -1    0    0  501  502 -0.00000000000E+00 -0.00000000000E+00 -0.60420950028E+03  0.60420950028E+03  0.00000000000E+00 0.  1.
         25    1    1    2    0    0  0.35691483351E+02  0.21498124388E+02 -0.33499851640E+02  0.13595326916E+03  0.12500000000E+03 0.  0.
         25    1    1    2    0    0  0.33009395162E+02 -0.12564709066E+03 -0.35190644047E+03  0.39539847547E+03  0.12500000000E+03 0.  0.
         25    1    1    2    0    0 -0.68700878513E+02  0.10414896627E+03 -0.92357748563E+02  0.19930321524E+03  0.12500000000E+03 0.  0.
</event>
<event>
 5    0  0.5452999E-005  0.2651852E+03  0.7546771E-02  0.1104067E+00
         21   -1    0    0  502  501  0.00000000000E+00  0.00000000000E+00  0.10301344870E+03  0.10301344870E+03  0.00000000000E+00 0.  1.
         21   -1    0    0  501  502 -0.00000000000E+00 -0.00000000000E+00 -0.68266037044E+03  0.68266037044E+03  0.00000000000E+00 0.  1.
         25    1    1    2    0    0  0.10547370700E+03  0.11146440994E+02 -0.18302742305E+03  0.24570914433E+03  0.12500000000E+03 0.  0.
         25    1    1    2    0    0 -0.20704882357E+02 -0.11711445142E+02 -0.36379463121E+03  0.38540547972E+03  0.12500000000E+03 0.  0.
         25    1    1    2    0    0 -0.84768824648E+02  0.56500414821E+00 -0.32824867467E+02  0.15455919509E+03  0.12500000000E+03 0.  0.
</event>
<event>
 5    0  0.5452999E-005  0.3226355E+03  0.7546771E-02  0.1074443E+00
         21   -1    0    0  502  501  0.00000000000E+00  0.00000000000E+00  0.66023813039E+02  0.66023813039E+02  0.00000000000E+00 0. -1.
         21   -1    0    0  501  502 -0.00000000000E+00 -0.00000000000E+00 -0.15766080952E+04  0.15766080952E+04  0.00000000000E+00 0. -1.
         25    1    1    2    0    0 -0.10577371091E+03  0.53462334253E+02 -0.11138298316E+04  0.11270706246E+04  0.12500000000E+03 0.  0.
         25    1    1    2    0    0  0.95661282289E+01 -0.10454530309E+03 -0.20550607960E+03  0.26244805193E+03  0.12500000000E+03 0.  0.
         25    1    1    2    0    0  0.96207582686E+02  0.51082968838E+02 -0.19124837101E+03  0.25311323175E+03  0.12500000000E+03 0.  0.
</event>
<event>
 5    0  0.5611970E-005  0.2973619E+03  0.7546771E-02  0.1086567E+00
         21   -1    0    0  502  501  0.00000000000E+00  0.00000000000E+00  0.11688706757E+03  0.11688706757E+03  0.00000000000E+00 0. -1.
         21   -1    0    0  501  502 -0.00000000000E+00 -0.00000000000E+00 -0.75649191426E+03  0.75649191426E+03  0.00000000000E+00 0. -1.
         25    1    1    2    0    0  0.92439471046E+02  0.69979074378E+02 -0.27341634551E+03  0.32221673552E+03  0.12500000000E+03 0.  0.
         25    1    1    2    0    0 -0.41456589605E+02 -0.92042481700E+02 -0.44108752109E+00  0.16067252975E+03  0.12500000000E+03 0.  0.
         25    1    1    2    0    0 -0.50982881440E+02  0.22063407322E+02 -0.36574741365E+03  0.39048971656E+03  0.12500000000E+03 0.  0.
</event>
<event>
 5    0  0.5452999E-005  0.3829118E+03  0.7546771E-02  0.1049863E+00
         21   -1    0    0  502  501  0.00000000000E+00  0.00000000000E+00  0.16719871768E+03  0.16719871768E+03  0.00000000000E+00 0.  1.
         21   -1    0    0  501  502 -0.00000000000E+00 -0.00000000000E+00 -0.87692920658E+03  0.87692920658E+03  0.00000000000E+00 0.  1.
         25    1    1    2    0    0  0.50192170183E+02  0.58809407105E+02 -0.42323020679E+03  0.44802523171E+03  0.12500000000E+03 0.  0.
         25    1    1    2    0    0  0.59994198013E+02 -0.23915788259E+03 -0.13574853690E+03  0.30797477473E+03  0.12500000000E+03 0.  0.
         25    1    1    2    0    0 -0.11018636820E+03  0.18034847548E+03 -0.15075174520E+03  0.28812791782E+03  0.12500000000E+03 0.  0.
</event>
<event>
 5    0  0.5452999E-005  0.2578266E+03  0.7546771E-02  0.1108456E+00
         21   -1    0    0  502  501  0.00000000000E+00  0.00000000000E+00  0.91998859710E+02  0.91998859710E+02  0.00000000000E+00 0. -1.
         21   -1    0    0  501  502 -0.00000000000E+00 -0.00000000000E+00 -0.72255824458E+03  0.72255824458E+03  0.00000000000E+00 0. -1.
         25    1    1    2    0    0 -0.29643054283E+02 -0.11577028756E+03 -0.31490906536E+03  0.35926896553E+03  0.12500000000E+03 0.  0.
         25    1    1    2    0    0  0.73294703502E+02 -0.95324269715E+01 -0.12643522402E+03  0.19254570002E+03  0.12500000000E+03 0.  0.
         25    1    1    2    0    0 -0.43651649220E+02  0.12530271453E+03 -0.18921509550E+03  0.26274243874E+03  0.12500000000E+03 0.  0.
</event>
<event>
 5    0  0.5452999E-005  0.2840195E+03  0.7546771E-02  0.1093514E+00
         21   -1    0    0  502  501  0.00000000000E+00  0.00000000000E+00  0.81507892168E+02  0.81507892168E+02  0.00000000000E+00 0. -1.
         21   -1    0    0  501  502 -0.00000000000E+00 -0.00000000000E+00 -0.98968424470E+03  0.98968424470E+03  0.00000000000E+00 0. -1.
         25    1    1    2    0    0 -0.13304271121E+03  0.54756238034E+02 -0.63426080471E+03  0.66227666198E+03  0.12500000000E+03 0.  0.
         25    1    1    2    0    0  0.25861149789E+02 -0.23234657761E+00 -0.14242960713E+03  0.19125910708E+03  0.12500000000E+03 0.  0.
         25    1    1    2    0    0  0.10718156142E+03 -0.54523891457E+02 -0.13148594069E+03  0.21765636781E+03  0.12500000000E+03 0.  0.
</event>
<event>
 5    0  0.5452999E-005  0.4234280E+03  0.7546771E-02  0.1035956E+00
         21   -1    0    0  502  501  0.00000000000E+00  0.00000000000E+00  0.18829702901E+03  0.18829702901E+03  0.00000000000E+00 0. -1.
         21   -1    0    0  501  502 -0.00000000000E+00 -0.00000000000E+00 -0.95217258103E+03  0.95217258103E+03  0.00000000000E+00 0. -1.
         25    1    1    2    0    0  0.45897534264E+02 -0.53687731486E+02  0.57170865774E+02  0.15453952264E+03  0.12500000000E+03 0.  0.
         25    1    1    2    0    0 -0.71660242036E+02  0.35942713406E+02 -0.84233821510E+03  0.85532785384E+03  0.12500000000E+03 0.  0.
         25    1    1    2    0    0  0.25762707772E+02  0.17745018080E+02  0.21291797306E+02  0.13060223356E+03  0.12500000000E+03 0.  0.
</event>
<event>
 5    0  0.5452999E-005  0.3520727E+03  0.7546771E-02  0.1061768E+00
         21   -1    0    0  502  501  0.00000000000E+00  0.00000000000E+00  0.30311019904E+03  0.30311019904E+03  0.00000000000E+00 0. -1.
         21   -1    0    0  501  502 -0.00000000000E+00 -0.00000000000E+00 -0.40894434742E+03  0.40894434742E+03  0.00000000000E+00 0.  1.
         25    1    1    2    0    0 -0.12343233157E+03  0.11324890913E+03 -0.14989483393E+03  0.25720481553E+03  0.12500000000E+03 0.  0.
         25    1    1    2    0    0  0.51651207756E+02  0.10143522100E+03  0.91062105431E+02  0.19202671264E+03  0.12500000000E+03 0.  0.
         25    1    1    2    0    0  0.71781123815E+02 -0.21468413013E+03 -0.47001419889E+02  0.26282301828E+03  0.12500000000E+03 0.  0.
</event>
<event>
 5    0  0.5452999E-005  0.2550898E+03  0.7546771E-02  0.1110130E+00
         21   -1    0    0  502  501  0.00000000000E+00  0.00000000000E+00  0.16988359783E+03  0.16988359783E+03  0.00000000000E+00 0.  1.
         21   -1    0    0  501  502 -0.00000000000E+00 -0.00000000000E+00 -0.38303172582E+03  0.38303172582E+03  0.00000000000E+00 0.  1.
         25    1    1    2    0    0 -0.51512745538E+02 -0.76852496230E+02 -0.26279044108E+02  0.15771955265E+03  0.12500000000E+03 0.  0.
         25    1    1    2    0    0  0.29851125592E+02  0.12487432864E+03 -0.18776034823E+03  0.25954505586E+03  0.12500000000E+03 0.  0.
         25    1    1    2    0    0  0.21661619946E+02 -0.48021832408E+02  0.89126434397E+00  0.13565071514E+03  0.12500000000E+03 0.  0.
</event>
<event>
 5    0  0.5452999E-005  0.5843345E+03  0.7546771E-02  0.9938451E-01
         21   -1    0    0  502  501  0.00000000000E+00  0.00000000000E+00  0.16466799055E+03  0.16466799055E+03  0.00000000000E+00 0. -1.
         21   -1    0    0  501  502 -0.00000000000E+00 -0.00000000000E+00 -0.20735470080E+04  0.20735470080E+04  0.00000000000E+00 0. -1.
         25    1    1    2    0    0  0.19664020465E+03  0.18463064873E+03 -0.14213268356E+03  0.32951865845E+03  0.12500000000E+03 0.  0.
         25    1    1    2    0    0 -0.32930639488E+03 -0.29789460069E+03 -0.84944016070E+03  0.96662168476E+03  0.12500000000E+03 0.  0.
         25    1    1    2    0    0  0.13266619023E+03  0.11326395197E+03 -0.91730617324E+03  0.94207465538E+03  0.12500000000E+03 0.  0.
</event>
<event>
 5    0  0.5452999E-005  0.3458679E+03  0.7546771E-02  0.1064324E+00
         21   -1    0    0  502  501  0.00000000000E+00  0.00000000000E+00  0.32630056856E+03  0.32630056856E+03  0.00000000000E+00 0.  1.
         21   -1    0    0  501  502 -0.00000000000E+00 -0.00000000000E+00 -0.36660868477E+03  0.36660868477E+03  0.00000000000E+00 0.  1.
         25    1    1    2    0    0 -0.13775071806E+03 -0.82144885052E+02 -0.89684619926E+02  0.22224170067E+03  0.12500000000E+03 0.  0.
         25    1    1    2    0    0 -0.74375984073E+02  0.11668945101E+03 -0.64345718316E+02  0.19726526925E+03  0.12500000000E+03 0.  0.
         25    1    1    2    0    0  0.21212670213E+03 -0.34544565962E+02  0.11372222203E+03  0.27340228341E+03  0.12500000000E+03 0.  0.
</event>
<event>
 5    0  0.5452999E-005  0.2824332E+03  0.7546771E-02  0.1094367E+00
         21   -1    0    0  502  501  0.00000000000E+00  0.00000000000E+00  0.61647383538E+03  0.61647383538E+03  0.00000000000E+00 0. -1.
         21   -1    0    0  501  502 -0.00000000000E+00 -0.00000000000E+00 -0.12939480440E+03  0.12939480440E+03  0.00000000000E+00 0. -1.
         25    1    1    2    0    0 -0.11385497793E+03  0.41707216565E+02  0.15207256762E+03  0.23120015946E+03  0.12500000000E+03 0.  0.
         25    1    1    2    0    0  0.80320083268E+02  0.48432608249E+02  0.13866240543E+02  0.15688947047E+03  0.12500000000E+03 0.  0.
         25    1    1    2    0    0  0.33534894658E+02 -0.90139824814E+02  0.32114022282E+03  0.35777900985E+03  0.12500000000E+03 0.  0.
</event>
<event>
 5    0  0.5452999E-005  0.2418973E+03  0.7546771E-02  0.1118535E+00
         21   -1    0    0  502  501  0.00000000000E+00  0.00000000000E+00  0.10939182688E+03  0.10939182688E+03  0.00000000000E+00 0. -1.
         21   -1    0    0  501  502 -0.00000000000E+00 -0.00000000000E+00 -0.53490564894E+03  0.53490564894E+03  0.00000000000E+00 0. -1.
         25    1    1    2    0    0  0.85117012658E+01 -0.36057565984E+02 -0.20639691935E+03  0.24412555262E+03  0.12500000000E+03 0.  0.
         25    1    1    2    0    0  0.47866095485E+01  0.13768543602E+02  0.21608021733E+02  0.12768864878E+03  0.12500000000E+03 0.  0.
         25    1    1    2    0    0 -0.13298310814E+02  0.22289022383E+02 -0.24072492445E+03  0.27248327443E+03  0.12500000000E+03 0.  0.
</event>
<event>
 5    0  0.5452999E-005  0.2758218E+03  0.7546771E-02  0.1097993E+00
         21   -1    0    0  502  501  0.00000000000E+00  0.00000000000E+00  0.15788138439E+03  0.15788138439E+03  0.00000000000E+00 0.  1.
         21   -1    0    0  501  502 -0.00000000000E+00 -0.00000000000E+00 -0.48186607808E+03  0.48186607808E+03  0.00000000000E+00 0.  1.
         25    1    1    2    0    0  0.13872283994E+03  0.63825846833E+02 -0.19284236514E+03  0.27591836263E+03  0.12500000000E+03 0.  0.
         25    1    1    2    0    0 -0.13226803709E+03  0.27599256360E+02 -0.78824807294E+02  0.20023711652E+03  0.12500000000E+03 0.  0.
         25    1    1    2    0    0 -0.64548028501E+01 -0.91425103193E+02 -0.52317521258E+02  0.16359198331E+03  0.12500000000E+03 0.  0.
</event>
<event>
 5    0  0.5452999E-005  0.2732330E+03  0.7546771E-02  0.1099443E+00
         21   -1    0    0  502  501  0.00000000000E+00  0.00000000000E+00  0.27213647888E+03  0.27213647888E+03  0.00000000000E+00 0.  1.
         21   -1    0    0  501  502 -0.00000000000E+00 -0.00000000000E+00 -0.27433392246E+03  0.27433392246E+03  0.00000000000E+00 0.  1.
         25    1    1    2    0    0 -0.87752676477E+01 -0.62106390515E+02  0.44287556856E+01  0.13992434721E+03  0.12500000000E+03 0.  0.
         25    1    1    2    0    0 -0.57964983888E+01  0.15236861705E+03  0.97469582441E+02  0.21994343445E+03  0.12500000000E+03 0.  0.
         25    1    1    2    0    0  0.14571766036E+02 -0.90262226533E+02 -0.10409578170E+03  0.18660261968E+03  0.12500000000E+03 0.  0.
</event>
<event>
 5    0  0.5452999E-005  0.2909562E+03  0.7546771E-02  0.1089851E+00
         21   -1    0    0  502  501  0.00000000000E+00  0.00000000000E+00  0.15878878936E+03  0.15878878936E+03  0.00000000000E+00 0. -1.
         21   -1    0    0  501  502 -0.00000000000E+00 -0.00000000000E+00 -0.53313292368E+03  0.53313292368E+03  0.00000000000E+00 0. -1.
         25    1    1    2    0    0 -0.31072566875E+02 -0.11926820679E+03 -0.23929729474E+03  0.29678039833E+03  0.12500000000E+03 0.  0.
         25    1    1    2    0    0  0.56440913089E+02  0.76741847936E+02  0.51328000317E+02  0.16533133856E+03  0.12500000000E+03 0.  0.
         25    1    1    2    0    0 -0.25368346214E+02  0.42526358852E+02 -0.18637483990E+03  0.22980997614E+03  0.12500000000E+03 0.  0.
</event>
<event>
 5    0  0.5452999E-005  0.2557100E+03  0.7546771E-02  0.1109749E+00
         21   -1    0    0  502  501  0.00000000000E+00  0.00000000000E+00  0.46867184509E+03  0.46867184509E+03  0.00000000000E+00 0.  1.
         21   -1    0    0  501  502 -0.00000000000E+00 -0.00000000000E+00 -0.13951677382E+03  0.13951677382E+03  0.00000000000E+00 0.  1.
         25    1    1    2    0    0  0.21583968499E+02  0.90955578138E+01  0.10598083511E+03  0.16554616963E+03  0.12500000000E+03 0.  0.
         25    1    1    2    0    0 -0.12953309808E+03 -0.50904544325E+02  0.37764799794E+02  0.19084359102E+03  0.12500000000E+03 0.  0.
         25    1    1    2    0    0  0.10794912958E+03  0.41808986511E+02  0.18540943637E+03  0.25179885827E+03  0.12500000000E+03 0.  0.
</event>
<event>
 5    0  0.5452999E-005  0.2394566E+03  0.7546771E-02  0.1120155E+00
         21   -1    0    0  502  501  0.00000000000E+00  0.00000000000E+00  0.22493984848E+03  0.22493984848E+03  0.00000000000E+00 0. -1.
         21   -1    0    0  501  502 -0.00000000000E+00 -0.00000000000E+00 -0.25491017504E+03  0.25491017504E+03  0.00000000000E+00 0. -1.
         25    1    1    2    0    0 -0.15398405727E+01 -0.93812630090E+02 -0.20634086823E+02  0.15765134383E+03  0.12500000000E+03 0.  0.
         25    1    1    2    0    0 -0.70729216549E+01  0.13848926957E+03  0.13701893500E+02  0.18719520799E+03  0.12500000000E+03 0.  0.
         25    1    1    2    0    0  0.86127622276E+01 -0.44676639484E+02 -0.23038133237E+02  0.13500347170E+03  0.12500000000E+03 0.  0.
</event>
<event>
 5    0  0.5452999E-005  0.2855934E+03  0.7546771E-02  0.1092673E+00
         21   -1    0    0  502  501  0.00000000000E+00  0.00000000000E+00  0.15400850336E+03  0.15400850336E+03  0.00000000000E+00 0. -1.
         21   -1    0    0  501  502 -0.00000000000E+00 -0.00000000000E+00 -0.52960445623E+03  0.52960445623E+03  0.00000000000E+00 0. -1.
         25    1    1    2    0    0 -0.12934990705E+03  0.70102040371E+02 -0.19747718947E+03  0.27616649847E+03  0.12500000000E+03 0.  0.
         25    1    1    2    0    0  0.17654909430E+03 -0.69772873569E+02 -0.77359371572E+02  0.24009854010E+03  0.12500000000E+03 0.  0.
         25    1    1    2    0    0 -0.47199187258E+02 -0.32916680208E+00 -0.10075939183E+03  0.16734792102E+03  0.12500000000E+03 0.  0.
</event>
<event>
 5    0  0.5452999E-005  0.2219291E+03  0.7546771E-02  0.1132453E+00
         21   -1    0    0  502  501  0.00000000000E+00  0.00000000000E+00  0.10635952717E+03  0.10635952717E+03  0.00000000000E+00 0. -1.
         21   -1    0    0  501  502 -0.00000000000E+00 -0.00000000000E+00 -0.46307593881E+03  0.46307593881E+03  0.00000000000E+00 0. -1.
         25    1    1    2    0    0  0.44479929626E+02 -0.10248376859E+03 -0.13588711414E+03  0.21580476073E+03  0.12500000000E+03 0.  0.
         25    1    1    2    0    0 -0.17558834504E+02  0.60398892514E+02 -0.13186731407E+03  0.19227669491E+03  0.12500000000E+03 0.  0.
         25    1    1    2    0    0 -0.26921095121E+02  0.42084876081E+02 -0.88961983422E+02  0.16135401034E+03  0.12500000000E+03 0.  0.
</event>
<event>
 5    0  0.5452999E-005  0.3097101E+03  0.7546771E-02  0.1080485E+00
         21   -1    0    0  502  501  0.00000000000E+00  0.00000000000E+00  0.63157321484E+03  0.63157321484E+03  0.00000000000E+00 0. -1.
         21   -1    0    0  501  502 -0.00000000000E+00 -0.00000000000E+00 -0.15187521917E+03  0.15187521917E+03  0.00000000000E+00 0. -1.
         25    1    1    2    0    0  0.14542163490E+01  0.10040629985E+03 -0.10430837043E+02  0.16067775875E+03  0.12500000000E+03 0.  0.
         25    1    1    2    0    0  0.45103270429E+02  0.58537917619E+01  0.41612236649E+03  0.43686542067E+03  0.12500000000E+03 0.  0.
         25    1    1    2    0    0 -0.46557486778E+02 -0.10626009161E+03  0.74006466219E+02  0.18590525459E+03  0.12500000000E+03 0.  0.
</event>
<event>
 5    0  0.5452999E-005  0.4968808E+03  0.7546771E-02  0.1014596E+00
         21   -1    0    0  502  501  0.00000000000E+00  0.00000000000E+00  0.63289481015E+03  0.63289481015E+03  0.00000000000E+00 0. -1.
         21   -1    0    0  501  502 -0.00000000000E+00 -0.00000000000E+00 -0.39009732671E+03  0.39009732671E+03  0.00000000000E+00 0. -1.
         25    1    1    2    0    0 -0.11557569296E+03 -0.18037924000E+03  0.17016990504E+03  0.30079429451E+03  0.12500000000E+03 0.  0.
         25    1    1    2    0    0 -0.25127771682E+03 -0.98444925551E+01 -0.16707836307E+02  0.28132109199E+03  0.12500000000E+03 0.  0.
         25    1    1    2    0    0  0.36685340978E+03  0.19022373255E+03  0.89335414704E+02  0.44087675037E+03  0.12500000000E+03 0.  0.
</event>
<event>
 5    0  0.5452999E-005  0.2256376E+03  0.7546771E-02  0.1129748E+00
         21   -1    0    0  502  501  0.00000000000E+00  0.00000000000E+00  0.11051556857E+04  0.11051556857E+04  0.00000000000E+00 0. -1.
         21   -1    0    0  501  502 -0.00000000000E+00 -0.00000000000E+00 -0.46068005579E+02  0.46068005579E+02  0.00000000000E+00 0. -1.
         25    1    1    2    0    0  0.27030277251E+02 -0.53784033038E+02  0.59087269634E+03  0.60694225539E+03  0.12500000000E+03 0.  0.
         25    1    1    2    0    0 -0.65856088233E+02  0.28352497367E+02  0.24958961377E+03  0.28820281707E+03  0.12500000000E+03 0.  0.
         25    1    1    2    0    0  0.38825810982E+02  0.25431535671E+02  0.21862537002E+03  0.25607861883E+03  0.12500000000E+03 0.  0.
</event>
<event>
 5    0  0.5452999E-005  0.2711075E+03  0.7546771E-02  0.1100647E+00
         21   -1    0    0  502  501  0.00000000000E+00  0.00000000000E+00  0.44000800624E+03  0.44000800624E+03  0.00000000000E+00 0. -1.
         21   -1    0    0  501  502 -0.00000000000E+00 -0.00000000000E+00 -0.16704082936E+03  0.16704082936E+03  0.00000000000E+00 0. -1.
         25    1    1    2    0    0 -0.87084284157E+02  0.10475026578E+03  0.98147930728E+02  0.20931867340E+03  0.12500000000E+03 0.  0.
         25    1    1    2    0    0  0.22191516873E+02  0.93979598465E+00  0.18152413215E+03  0.22151604274E+03  0.12500000000E+03 0.  0.
         25    1    1    2    0    0  0.64892767285E+02 -0.10569006177E+03 -0.67048860049E+01  0.17621411946E+03  0.12500000000E+03 0.  0.
</event>
<event>
 5    0  0.5452999E-005  0.2522429E+03  0.7546771E-02  0.1111896E+00
         21   -1    0    0  502  501  0.00000000000E+00  0.00000000000E+00  0.12186531953E+03  0.12186531953E+03  0.00000000000E+00 0. -1.
         21   -1    0    0  501  502 -0.00000000000E+00 -0.00000000000E+00 -0.52210481974E+03  0.52210481974E+03  0.00000000000E+00 0. -1.
         25    1    1    2    0    0 -0.49590004247E+02  0.63922787204E+02 -0.88371383980E+02  0.17314673763E+03  0.12500000000E+03 0.  0.
         25    1    1    2    0    0  0.66196016871E+02 -0.35686759444E+02 -0.30884906081E+03  0.34156726982E+03  0.12500000000E+03 0.  0.
         25    1    1    2    0    0 -0.16606012625E+02 -0.28236027760E+02 -0.30190554184E+01  0.12925613183E+03  0.12500000000E+03 0.  0.
</event>
<event>
 5    0  0.5452999E-005  0.3327735E+03  0.7546771E-02  0.1069916E+00
         21   -1    0    0  502  501  0.00000000000E+00  0.00000000000E+00  0.12322336202E+03  0.12322336202E+03  0.00000000000E+00 0. -1.
         21   -1    0    0  501  502 -0.00000000000E+00 -0.00000000000E+00 -0.89867851779E+03  0.89867851779E+03  0.00000000000E+00 0. -1.
         25    1    1    2    0    0  0.12623771465E+03 -0.44961586587E+02 -0.65588236322E+03  0.68100233425E+03  0.12500000000E+03 0.  0.
         25    1    1    2    0    0 -0.12168695096E+03  0.54357324072E+02 -0.11394321507E+03  0.21533808064E+03  0.12500000000E+03 0.  0.
         25    1    1    2    0    0 -0.45507636898E+01 -0.93957374851E+01 -0.56295774790E+01  0.12556146493E+03  0.12500000000E+03 0.  0.
</event>
<event>
 5    0  0.5452999E-005  0.2773563E+03  0.7546771E-02  0.1097142E+00
         21   -1    0    0  502  501  0.00000000000E+00  0.00000000000E+00  0.13516487482E+03  0.13516487482E+03  0.00000000000E+00 0. -1.
         21   -1    0    0  501  502 -0.00000000000E+00 -0.00000000000E+00 -0.56913111718E+03  0.56913111718E+03  0.00000000000E+00 0. -1.
         25    1    1    2    0    0 -0.88543229683E+02  0.10836100248E+03 -0.15691326952E+03  0.24459923248E+03  0.12500000000E+03 0.  0.
         25    1    1    2    0    0  0.15963533044E+02 -0.86375603009E+01 -0.25256805746E+03  0.28239168806E+03  0.12500000000E+03 0.  0.
         25    1    1    2    0    0  0.72579696638E+02 -0.99723442175E+02 -0.24484915382E+02  0.17730507146E+03  0.12500000000E+03 0.  0.
</event>
<event>
 5    0  0.5452999E-005  0.3777329E+03  0.7546771E-02  0.1051775E+00
         21   -1    0    0  502  501  0.00000000000E+00  0.00000000000E+00  0.28356981046E+03  0.28356981046E+03  0.00000000000E+00 0. -1.
         21   -1    0    0  501  502 -0.00000000000E+00 -0.00000000000E+00 -0.50316403388E+03  0.50316403388E+03  0.00000000000E+00 0.  1.
         25    1    1    2    0    0 -0.10115637404E+03 -0.10934833966E+03 -0.14153328934E+03  0.24051266783E+03  0.12500000000E+03 0.  0.
         25    1    1    2    0    0  0.27249647734E+03  0.12973286141E+03 -0.31975040175E+02  0.32822606339E+03  0.12500000000E+03 0.  0.
         25    1    1    2    0    0 -0.17134010330E+03 -0.20384521754E+02 -0.46085893905E+02  0.21799511312E+03  0.12500000000E+03 0.  0.
</event>
<event>
 5    0  0.5452999E-005  0.3280404E+03  0.7546771E-02  0.1072007E+00
         21   -1    0    0  502  501  0.00000000000E+00  0.00000000000E+00  0.76464437885E+02  0.76464437885E+02  0.00000000000E+00 0.  1.
         21   -1    0    0  501  502 -0.00000000000E+00 -0.00000000000E+00 -0.14073276830E+04  0.14073276830E+04  0.00000000000E+00 0.  1.
         25    1    1    2    0    0  0.37561721553E+02  0.25220677653E+02 -0.38480296900E+03  0.40711827576E+03  0.12500000000E+03 0.  0.
         25    1    1    2    0    0 -0.16890484218E+03  0.48809682622E+02 -0.80991866903E+03  0.83815540401E+03  0.12500000000E+03 0.  0.
         25    1    1    2    0    0  0.13134312063E+03 -0.74030360275E+02 -0.13614160712E+03  0.23851844115E+03  0.12500000000E+03 0.  0.
</event>
<event>
 5    0  0.5452999E-005  0.3082739E+03  0.7546771E-02  0.1081176E+00
         21   -1    0    0  502  501  0.00000000000E+00  0.00000000000E+00  0.88865965404E+02  0.88865965404E+02  0.00000000000E+00 0.  1.
         21   -1    0    0  501  502 -0.00000000000E+00 -0.00000000000E+00 -0.10693948330E+04  0.10693948330E+04  0.00000000000E+00 0.  1.
         25    1    1    2    0    0  0.37117370645E+02 -0.59743028008E+02 -0.10805784405E+03  0.17957846825E+03  0.12500000000E+03 0.  0.
         25    1    1    2    0    0 -0.76393732524E+02  0.18059342087E+03 -0.66855603271E+03  0.70784331240E+03  0.12500000000E+03 0.  0.
         25    1    1    2    0    0  0.39276361879E+02 -0.12085039286E+03 -0.20391499088E+03  0.27083901780E+03  0.12500000000E+03 0.  0.
</event>
<event>
 5    0  0.5452999E-005  0.3402080E+03  0.7546771E-02  0.1066707E+00
         21   -1    0    0  502  501  0.00000000000E+00  0.00000000000E+00  0.52777670339E+02  0.52777670339E+02  0.00000000000E+00 0.  1.
         21   -1    0    0  501  502 -0.00000000000E+00 -0.00000000000E+00 -0.21930015360E+04  0.21930015360E+04  0.00000000000E+00 0.  1.
         25    1    1    2    0    0 -0.13913585336E+03  0.10728197707E+03 -0.73343240581E+03  0.76447125662E+03  0.12500000000E+03 0.  0.
         25    1    1    2    0    0  0.55725525294E+01 -0.21656733753E+03 -0.80008676670E+03  0.83826982486E+03  0.12500000000E+03 0.  0.
         25    1    1    2    0    0  0.13356330083E+03  0.10928536046E+03 -0.60670469316E+03  0.64303812487E+03  0.12500000000E+03 0.  0.
</event>
<event>
 5    0  0.5452999E-005  0.5157437E+03  0.7546771E-02  0.1009749E+00
         21   -1    0    0  502  501  0.00000000000E+00  0.00000000000E+00  0.46078933957E+03  0.46078933957E+03  0.00000000000E+00 0. -1.
         21   -1    0    0  501  502 -0.00000000000E+00 -0.00000000000E+00 -0.57725192188E+03  0.57725192188E+03  0.00000000000E+00 0. -1.
         25    1    1    2    0    0 -0.97024204953E+02  0.15843102389E+03 -0.73732177813E+02  0.23574460698E+03  0.12500000000E+03 0.  0.
         25    1    1    2    0    0  0.88447060306E+01 -0.15518353284E+03 -0.38154429246E+03  0.43053595064E+03  0.12500000000E+03 0.  0.
         25    1    1    2    0    0  0.88179498922E+02 -0.32474910520E+01  0.33881388796E+03  0.37176070382E+03  0.12500000000E+03 0.  0.
</event>
<event>
 5    0  0.5452999E-005  0.4472550E+03  0.7546771E-02  0.1028544E+00
         21   -1    0    0  502  501  0.00000000000E+00  0.00000000000E+00  0.67020438762E+03  0.67020438762E+03  0.00000000000E+00 0.  1.
         21   -1    0    0  501  502 -0.00000000000E+00 -0.00000000000E+00 -0.29847173221E+03  0.29847173221E+03  0.00000000000E+00 0.  1.
         25    1    1    2    0    0  0.23661199926E+02 -0.28876245749E+03  0.46422397872E+03  0.56131320282E+03  0.12500000000E+03 0.  0.
         25    1    1    2    0    0 -0.57310425990E+02  0.14702684526E+03 -0.74155645371E+02  0.21453540010E+03  0.12500000000E+03 0.  0.
         25    1    1    2    0    0  0.33649226064E+02  0.14173561224E+03 -0.18335677940E+02  0.19282751691E+03  0.12500000000E+03 0.  0.
</event>
<event>
 5    0  0.6046492E-005  0.3325828E+03  0.7546771E-02  0.1070000E+00
         21   -1    0    0  502  501  0.00000000000E+00  0.00000000000E+00  0.38387341824E+03  0.38387341824E+03  0.00000000000E+00 0.  1.
         21   -1    0    0  501  502 -0.00000000000E+00 -0.00000000000E+00 -0.28814537942E+03  0.28814537942E+03  0.00000000000E+00 0.  1.
         25    1    1    2    0    0  0.93497886630E+02  0.31173870248E+02  0.19200401055E+03  0.24940770850E+03  0.12500000000E+03 0.  0.
         25    1    1    2    0    0 -0.15830364529E+03  0.91400133522E+02 -0.79069702682E+02  0.23514048227E+03  0.12500000000E+03 0.  0.
         25    1    1    2    0    0  0.64805758657E+02 -0.12257400377E+03 -0.17206269049E+02  0.18747060690E+03  0.12500000000E+03 0.  0.
</event>
<event>
 5    0  0.5452999E-005  0.2147372E+03  0.7546771E-02  0.1137869E+00
         21   -1    0    0  502  501  0.00000000000E+00  0.00000000000E+00  0.31614697721E+04  0.31614697721E+04  0.00000000000E+00 0.  1.
         21   -1    0    0  501  502 -0.00000000000E+00 -0.00000000000E+00 -0.14585642536E+02  0.14585642536E+02  0.00000000000E+00 0.  1.
         25    1    1    2    0    0  0.14056685995E+02 -0.32772858999E+02  0.63982387625E+03  0.65289451164E+03  0.12500000000E+03 0.  0.
         25    1    1    2    0    0  0.53479537787E+02  0.38982699586E+02  0.11479159095E+04  0.11565965792E+04  0.12500000000E+03 0.  0.
         25    1    1    2    0    0 -0.67536223783E+02 -0.62098405870E+01  0.13591443438E+04  0.13665643238E+04  0.12500000000E+03 0.  0.
</event>
<event>
 5    0  0.5452999E-005  0.2480326E+03  0.7546771E-02  0.1114554E+00
         21   -1    0    0  502  501  0.00000000000E+00  0.00000000000E+00  0.34717450433E+03  0.34717450433E+03  0.00000000000E+00 0. -1.
         21   -1    0    0  501  502 -0.00000000000E+00 -0.00000000000E+00 -0.17720250455E+03  0.17720250455E+03  0.00000000000E+00 0. -1.
         25    1    1    2    0    0  0.75813194465E+02  0.92147816913E+02  0.10258503756E+03  0.20096654087E+03  0.12500000000E+03 0.  0.
         25    1    1    2    0    0 -0.10264975990E+02  0.30551046212E+02  0.33230962737E+02  0.13329678556E+03  0.12500000000E+03 0.  0.
         25    1    1    2    0    0 -0.65548218475E+02 -0.12269886313E+03  0.34155999479E+02  0.19011368246E+03  0.12500000000E+03 0.  0.
</event>
<event>
 5    0  0.5452999E-005  0.4901353E+03  0.7546771E-02  0.1016386E+00
         21   -1    0    0  502  501  0.00000000000E+00  0.00000000000E+00  0.11837885589E+04  0.11837885589E+04  0.00000000000E+00 0.  1.
         21   -1    0    0  501  502 -0.00000000000E+00 -0.00000000000E+00 -0.20293539485E+03  0.20293539485E+03  0.00000000000E+00 0.  1.
         25    1    1    2    0    0 -0.87223187993E+02 -0.15589641097E+03  0.73240658339E+03  0.76417012430E+03  0.12500000000E+03 0.  0.
         25    1    1    2    0    0  0.23822126612E+03  0.22510727922E+03  0.92771408776E+02  0.36284182928E+03  0.12500000000E+03 0.  0.
         25    1    1    2    0    0 -0.15099807813E+03 -0.69210868251E+02  0.15567517183E+03  0.25971200012E+03  0.12500000000E+03 0.  0.
</event>
<event>
 5    0  0.5738785E-005  0.3350949E+03  0.7546771E-02  0.1068905E+00
         21   -1    0    0  502  501  0.00000000000E+00  0.00000000000E+00  0.20978311045E+03  0.20978311045E+03  0.00000000000E+00 0. -1.
         21   -1    0    0  501  502 -0.00000000000E+00 -0.00000000000E+00 -0.53526046170E+03  0.53526046170E+03  0.00000000000E+00 0. -1.
         25    1    1    2    0    0  0.75937888126E+01 -0.13116598092E+03 -0.17832535284E+03  0.25433661090E+03  0.12500000000E+03 0.  0.
         25    1    1    2    0    0  0.91291673246E+02  0.12806029369E+03  0.77428514453E+02  0.21529928768E+03  0.12500000000E+03 0.  0.
         25    1    1    2    0    0 -0.98885462058E+02  0.31056872297E+01 -0.22458051287E+03  0.27540767357E+03  0.12500000000E+03 0.  0.
</event>
<event>
 5    0  0.5452999E-005  0.2083915E+03  0.7546771E-02  0.1142846E+00
         21   -1    0    0  502  501  0.00000000000E+00  0.00000000000E+00  0.89378233878E+03  0.89378233878E+03  0.00000000000E+00 0.  1.
         21   -1    0    0  501  502 -0.00000000000E+00 -0.00000000000E+00 -0.48587901057E+02  0.48587901057E+02  0.00000000000E+00 0.  1.
         25    1    1    2    0    0 -0.10720613625E+02 -0.50491043136E+02  0.29559597336E+03  0.32506346528E+03  0.12500000000E+03 0.  0.
         25    1    1    2    0    0  0.48974795670E+02  0.37293834160E+02  0.19927897188E+03  0.24315934962E+03  0.12500000000E+03 0.  0.
         25    1    1    2    0    0 -0.38254182045E+02  0.13197208976E+02  0.35031949249E+03  0.37414742493E+03  0.12500000000E+03 0.  0.
</event>
<event>
 5    0  0.5452999E-005  0.4435267E+03  0.7546771E-02  0.1029670E+00
         21   -1    0    0  502  501  0.00000000000E+00  0.00000000000E+00  0.15244424274E+04  0.15244424274E+04  0.00000000000E+00 0. -1.
         21   -1    0    0  501  502 -0.00000000000E+00 -0.00000000000E+00 -0.12904122914E+03  0.12904122914E+03  0.00000000000E+00 0. -1.
         25    1    1    2    0    0  0.20358979515E+03  0.26069569581E+03  0.53758129364E+03  0.64345139504E+03  0.12500000000E+03 0.  0.
         25    1    1    2    0    0 -0.13093877640E+03 -0.24461625163E+03  0.27778402284E+03  0.41203281067E+03  0.12500000000E+03 0.  0.
         25    1    1    2    0    0 -0.72651018743E+02 -0.16079444183E+02  0.58003588182E+03  0.59799945088E+03  0.12500000000E+03 0.  0.
</event>
<event>
 5    0  0.5452999E-005  0.3485954E+03  0.7546771E-02  0.1063193E+00
         21   -1    0    0  502  501  0.00000000000E+00  0.00000000000E+00  0.28469289448E+03  0.28469289448E+03  0.00000000000E+00 0.  1.
         21   -1    0    0  501  502 -0.00000000000E+00 -0.00000000000E+00 -0.42684159485E+03  0.42684159485E+03  0.00000000000E+00 0.  1.
         25    1    1    2    0    0  0.14972796926E+03  0.73088994688E+01 -0.29572995581E+03  0.35433471683E+03  0.12500000000E+03 0.  0.
         25    1    1    2    0    0 -0.41643613071E+02 -0.62450737343E+02  0.92124179532E+02  0.17247072087E+03  0.12500000000E+03 0.  0.
         25    1    1    2    0    0 -0.10808435619E+03  0.55141837875E+02  0.61457075904E+02  0.18472905163E+03  0.12500000000E+03 0.  0.
</event>
<event>
 5    0  0.5452999E-005  0.3308808E+03  0.7546771E-02  0.1070748E+00
         21   -1    0    0  502  501  0.00000000000E+00  0.00000000000E+00  0.90195927275E+03  0.90195927275E+03  0.00000000000E+00 0.  1.
         21   -1    0    0  501  502 -0.00000000000E+00 -0.00000000000E+00 -0.12138254918E+03  0.12138254918E+03  0.00000000000E+00 0.  1.
         25    1    1    2    0    0 -0.41941006100E+02  0.92059381508E+02  0.26946752735E+03  0.31380204909E+03  0.12500000000E+03 0.  0.
         25    1    1    2    0    0  0.13348951104E+02 -0.24729561142E+03  0.21276954581E+03  0.34961291959E+03  0.12500000000E+03 0.  0.
         25    1    1    2    0    0  0.28592054996E+02  0.15523622991E+03  0.29833965041E+03  0.35992685325E+03  0.12500000000E+03 0.  0.
</event>
<event>
 5    0  0.5452999E-005  0.3248448E+03  0.7546771E-02  0.1073441E+00
         21   -1    0    0  502  501  0.00000000000E+00  0.00000000000E+00  0.23868188133E+03  0.23868188133E+03  0.00000000000E+00 0.  1.
         21   -1    0    0  501  502 -0.00000000000E+00 -0.00000000000E+00 -0.44211197439E+03  0.44211197439E+03  0.00000000000E+00 0.  1.
         25    1    1    2    0    0  0.52646496209E+02 -0.14410099776E+03  0.87476896245E+02  0.21636533571E+03  0.12500000000E+03 0.  0.
         25    1    1    2    0    0 -0.96144674662E+02  0.15603999230E+03 -0.13552326364E+03  0.25996890708E+03  0.12500000000E+03 0.  0.
         25    1    1    2    0    0  0.43498178453E+02 -0.11938994537E+02 -0.15538372567E+03  0.20445961294E+03  0.12500000000E+03 0.  0.
</event>
<event>
 5    0  0.5452999E-005  0.3465432E+03  0.7546771E-02  0.1064043E+00
         21   -1    0    0  502  501  0.00000000000E+00  0.00000000000E+00  0.13143879007E+04  0.13143879007E+04  0.00000000000E+00 0. -1.
         21   -1    0    0  501  502 -0.00000000000E+00 -0.00000000000E+00 -0.91367366858E+02  0.91367366858E+02  0.00000000000E+00 0. -1.
         25    1    1    2    0    0 -0.15884964674E+02 -0.11463107510E+03  0.10900091689E+03  0.20223455531E+03  0.12500000000E+03 0.  0.
         25    1    1    2    0    0 -0.26523718137E+02  0.23201532619E+03  0.51679637310E+03  0.58072205956E+03  0.12500000000E+03 0.  0.
         25    1    1    2    0    0  0.42408682812E+02 -0.11738425109E+03  0.59722324381E+03  0.62279865264E+03  0.12500000000E+03 0.  0.
</event>
<event>
 5    0  0.5452999E-005  0.2322908E+03  0.7546771E-02  0.1125038E+00
         21   -1    0    0  502  501  0.00000000000E+00  0.00000000000E+00  0.31376355141E+03  0.31376355141E+03  0.00000000000E+00 0.  1.
         21   -1    0    0  501  502 -0.00000000000E+00 -0.00000000000E+00 -0.17197351108E+03  0.17197351108E+03  0.00000000000E+00 0.  1.
         25    1    1    2    0    0 -0.29275992269E+02  0.45097646261E+02  0.70952983670E+02  0.15346076799E+03  0.12500000000E+03 0.  0.
         25    1    1    2    0    0  0.49734249393E+02 -0.10829239563E+03  0.80199387603E+02  0.19041449600E+03  0.12500000000E+03 0.  0.
         25    1    1    2    0    0 -0.20458257124E+02  0.63194749371E+02 -0.93623309373E+01  0.14186179850E+03  0.12500000000E+03 0.  0.
</event>
<event>
 5    0  0.5452999E-005  0.3352520E+03  0.7546771E-02  0.1068836E+00
         21   -1    0    0  502  501  0.00000000000E+00  0.00000000000E+00  0.22552390105E+04  0.22552390105E+04  0.00000000000E+00 0. -1.
         21   -1    0    0  501  502 -0.00000000000E+00 -0.00000000000E+00 -0.49836804876E+02  0.49836804876E+02  0.00000000000E+00 0. -1.
         25    1    1    2    0    0  0.79311954584E+02  0.11365416412E+03  0.10469892445E+04  0.10634938332E+04  0.12500000000E+03 0.  0.
         25    1    1    2    0    0 -0.22627555218E+02  0.18652488661E+02  0.91229779032E+02  0.15750490205E+03  0.12500000000E+03 0.  0.
         25    1    1    2    0    0 -0.56684399367E+02 -0.13230665278E+03  0.10671831821E+04  0.10840770801E+04  0.12500000000E+03 0.  0.
</event>
<event>
 5    0  0.5452999E-005  0.2416373E+03  0.7546771E-02  0.1118707E+00
         21   -1    0    0  502  501  0.00000000000E+00  0.00000000000E+00  0.34755201850E+03  0.34755201850E+03  0.00000000000E+00 0. -1.
         21   -1    0    0  501  502 -0.00000000000E+00 -0.00000000000E+00 -0.16799956465E+03  0.16799956465E+03  0.00000000000E+00 0. -1.
         25    1    1    2    0    0  0.26879709654E+02 -0.60551469500E+02  0.75403703909E+02  0.16031131530E+03  0.12500000000E+03 0.  0.
         25    1    1    2    0    0  0.78782761331E+02  0.59955090279E+02  0.10614045296E+03  0.19155190442E+03  0.12500000000E+03 0.  0.
         25    1    1    2    0    0 -0.10566247098E+03  0.59637922047E+00 -0.19917030181E+01  0.16368836343E+03  0.12500000000E+03 0.  0.
</event>
<event>
 5    0  0.5452999E-005  0.3981660E+03  0.7546771E-02  0.1044417E+00
         21   -1    0    0  502  501  0.00000000000E+00  0.00000000000E+00  0.83253162294E+03  0.83253162294E+03  0.00000000000E+00 0.  1.
         21   -1    0    0  501  502 -0.00000000000E+00 -0.00000000000E+00 -0.19042659980E+03  0.19042659980E+03  0.00000000000E+00 0.  1.
         25    1    1    2    0    0  0.63649947538E+02 -0.17419080468E+03  0.20914695401E+03  0.30620450785E+03  0.12500000000E+03 0.  0.
         25    1    1    2    0    0 -0.39673293639E+02 -0.79489370700E+02  0.40319941158E+03  0.43137836731E+03  0.12500000000E+03 0.  0.
         25    1    1    2    0    0 -0.23976653899E+02  0.25368017538E+03  0.29758657548E+02  0.28537534759E+03  0.12500000000E+03 0.  0.
</event>
<event>
 5    0  0.5452999E-005  0.3301740E+03  0.7546771E-02  0.1071060E+00
         21   -1    0    0  502  501  0.00000000000E+00  0.00000000000E+00  0.51268523482E+02  0.51268523482E+02  0.00000000000E+00 0. -1.
         21   -1    0    0  501  502 -0.00000000000E+00 -0.00000000000E+00 -0.21263505257E+04  0.21263505257E+04  0.00000000000E+00 0. -1.
         25    1    1    2    0    0  0.12245353749E+03  0.15496644172E+03 -0.37785708685E+03  0.44430895218E+03  0.12500000000E+03 0.  0.
         25    1    1    2    0    0 -0.10863084916E+03 -0.50888025182E+02 -0.11247660694E+04  0.11380307392E+04  0.12500000000E+03 0.  0.
         25    1    1    2    0    0 -0.13822688329E+02 -0.10407841653E+03 -0.57245884601E+03  0.59527935785E+03  0.12500000000E+03 0.  0.
</event>
<event>
 5    0  0.5452999E-005  0.2769417E+03  0.7546771E-02  0.1097371E+00
         21   -1    0    0  502  501  0.00000000000E+00  0.00000000000E+00  0.27082885344E+04  0.27082885344E+04  0.00000000000E+00 0.  1.
         21   -1    0    0  501  502 -0.00000000000E+00 -0.00000000000E+00 -0.28319248951E+02  0.28319248951E+02  0.00000000000E+00 0.  1.
         25    1    1    2    0    0  0.63918819421E+01  0.12755848677E+03  0.16903628881E+04  0.16997834324E+04  0.12500000000E+03 0.  0.
         25    1    1    2    0    0  0.49582027378E+02 -0.91670540670E+02  0.43552834308E+03  0.46494279550E+03  0.12500000000E+03 0.  0.
         25    1    1    2    0    0 -0.55973909320E+02 -0.35887946105E+02  0.55407805425E+03  0.57188155539E+03  0.12500000000E+03 0.  0.
</event>
<event>
 5    0  0.5452999E-005  0.5144798E+03  0.7546771E-02  0.1010067E+00
         21   -1    0    0  502  501  0.00000000000E+00  0.00000000000E+00  0.17011057180E+03  0.17011057180E+03  0.00000000000E+00 0.  1.
         21   -1    0    0  501  502 -0.00000000000E+00 -0.00000000000E+00 -0.15559846862E+04  0.15559846862E+04  0.00000000000E+00 0.  1.
         25    1    1    2    0    0  0.12306567378E+03  0.10027989840E+03  0.36651333495E+02  0.20535222992E+03  0.12500000000E+03 0.  0.
         25    1    1    2    0    0  0.84039287602E+02  0.11575958921E+03 -0.32656633036E+03  0.37780081059E+03  0.12500000000E+03 0.  0.
         25    1    1    2    0    0 -0.20710496138E+03 -0.21603948761E+03 -0.10959591175E+04  0.11429422175E+04  0.12500000000E+03 0.  0.
</event>
<event>
 5    0  0.6107828E-005  0.2904579E+03  0.7546771E-02  0.1090110E+00
         21   -1    0    0  502  501  0.00000000000E+00  0.00000000000E+00  0.10814762218E+04  0.10814762218E+04  0.00000000000E+00 0.  1.
         21   -1    0    0  501  502 -0.00000000000E+00 -0.00000000000E+00 -0.78009846597E+02  0.78009846597E+02  0.00000000000E+00 0.  1.
         25    1    1    2    0    0 -0.14278491919E+03  0.75475068511E+02  0.24537997588E+03  0.31924966982E+03  0.12500000000E+03 0.  0.
         25    1    1    2    0    0  0.10101157845E+03 -0.80355358965E+02  0.20940561323E+03  0.27592758751E+03  0.12500000000E+03 0.  0.
         25    1    1    2    0    0  0.41773340730E+02  0.48802904543E+01  0.54868078610E+03  0.56430881108E+03  0.12500000000E+03 0.  0.
</event>
<event>
 5    0  0.5452999E-005  0.4250521E+03  0.7546771E-02  0.1035434E+00
         21   -1    0    0  502  501  0.00000000000E+00  0.00000000000E+00  0.27410697872E+03  0.27410697872E+03  0.00000000000E+00 0.  1.
         21   -1    0    0  501  502 -0.00000000000E+00 -0.00000000000E+00 -0.65911965017E+03  0.65911965017E+03  0.00000000000E+00 0.  1.
         25    1    1    2    0    0 -0.25339390843E+03 -0.24505353785E+03 -0.43171195714E+02  0.37649496860E+03  0.12500000000E+03 0.  0.
         25    1    1    2    0    0  0.10423633342E+03  0.68280225700E+02 -0.13508744943E+03  0.22226340549E+03  0.12500000000E+03 0.  0.
         25    1    1    2    0    0  0.14915757501E+03  0.17677331215E+03 -0.20675402630E+03  0.33446825479E+03  0.12500000000E+03 0.  0.
</event>
<event>
 5    0  0.5452999E-005  0.2324309E+03  0.7546771E-02  0.1124940E+00
         21   -1    0    0  502  501  0.00000000000E+00  0.00000000000E+00  0.94533063740E+03  0.94533063740E+03  0.00000000000E+00 0. -1.
         21   -1    0    0  501  502 -0.00000000000E+00 -0.00000000000E+00 -0.57148412802E+02  0.57148412802E+02  0.00000000000E+00 0. -1.
         25    1    1    2    0    0 -0.43867615251E+02  0.17703604303E+02  0.12793820252E+03  0.18501613156E+03  0.12500000000E+03 0.  0.
         25    1    1    2    0    0 -0.35879948097E+02 -0.40065489739E+02  0.23840980334E+03  0.27451201881E+03  0.12500000000E+03 0.  0.
         25    1    1    2    0    0  0.79747563348E+02  0.22361885436E+02  0.52183421875E+03  0.54295089984E+03  0.12500000000E+03 0.  0.
</event>
<event>
 5    0  0.5452999E-005  0.3742632E+03  0.7546771E-02  0.1053075E+00
         21   -1    0    0  502  501  0.00000000000E+00  0.00000000000E+00  0.70097627541E+03  0.70097627541E+03  0.00000000000E+00 0. -1.
         21   -1    0    0  501  502 -0.00000000000E+00 -0.00000000000E+00 -0.19982552042E+03  0.19982552042E+03  0.00000000000E+00 0. -1.
         25    1    1    2    0    0 -0.24134737168E+03  0.15986475652E+03  0.14709849345E+03  0.34794864704E+03  0.12500000000E+03 0.  0.
         25    1    1    2    0    0  0.44255712952E+02 -0.13494964944E+03  0.14230682729E+03  0.23674080575E+03  0.12500000000E+03 0.  0.
         25    1    1    2    0    0  0.19709165873E+03 -0.24915107087E+02  0.21174543425E+03  0.31611234305E+03  0.12500000000E+03 0.  0.
</event>
<event>
 5    0  0.5452999E-005  0.2620706E+03  0.7546771E-02  0.1105906E+00
         21   -1    0    0  502  501  0.00000000000E+00  0.00000000000E+00  0.32609558191E+03  0.32609558191E+03  0.00000000000E+00 0.  1.
         21   -1    0    0  501  502 -0.00000000000E+00 -0.00000000000E+00 -0.21061616468E+03  0.21061616468E+03  0.00000000000E+00 0.  1.
         25    1    1    2    0    0  0.54307827430E+02 -0.98436176379E+01  0.45726434978E+02  0.14409074843E+03  0.12500000000E+03 0.  0.
         25    1    1    2    0    0  0.27933358269E+02  0.12634078943E+03  0.91334087710E+02  0.20176516834E+03  0.12500000000E+03 0.  0.
         25    1    1    2    0    0 -0.82241185698E+02 -0.11649717179E+03 -0.21581105457E+02  0.19085582981E+03  0.12500000000E+03 0.  0.
</event>
<event>
 5    0  0.5452999E-005  0.2617084E+03  0.7546771E-02  0.1106121E+00
         21   -1    0    0  502  501  0.00000000000E+00  0.00000000000E+00  0.23577058976E+03  0.23577058976E+03  0.00000000000E+00 0.  1.
         21   -1    0    0  501  502 -0.00000000000E+00 -0.00000000000E+00 -0.29049964961E+03  0.29049964961E+03  0.00000000000E+00 0.  1.
         25    1    1    2    0    0 -0.91663750874E+02  0.41313651039E+01  0.11859303503E+03  0.19521429087E+03  0.12500000000E+03 0.  0.
         25    1    1    2    0    0 -0.22877285475E+01  0.64257844643E+01 -0.82275756767E+02  0.14980261867E+03  0.12500000000E+03 0.  0.
         25    1    1    2    0    0  0.93951479422E+02 -0.10557149568E+02 -0.91046338112E+02  0.18125332983E+03  0.12500000000E+03 0.  0.
</event>
<event>
 5    0  0.5452999E-005  0.5589772E+03  0.7546771E-02  0.9994371E-01
         21   -1    0    0  502  501  0.00000000000E+00  0.00000000000E+00  0.28199402690E+03  0.28199402690E+03  0.00000000000E+00 0. -1.
         21   -1    0    0  501  502 -0.00000000000E+00 -0.00000000000E+00 -0.11080219105E+04  0.11080219105E+04  0.00000000000E+00 0. -1.
         25    1    1    2    0    0 -0.15374145249E+03 -0.22019863003E+03 -0.77388293425E+03  0.82863964835E+03  0.12500000000E+03 0.  0.
         25    1    1    2    0    0 -0.86543253325E+02 -0.38568108647E+02 -0.96507555980E+02  0.18416281400E+03  0.12500000000E+03 0.  0.
         25    1    1    2    0    0  0.24028470582E+03  0.25876673867E+03  0.44362606625E+02  0.37721347505E+03  0.12500000000E+03 0.  0.
</event>
<event>
 5    0  0.5452999E-005  0.3292351E+03  0.7546771E-02  0.1071476E+00
         21   -1    0    0  502  501  0.00000000000E+00  0.00000000000E+00  0.92570238471E+03  0.92570238471E+03  0.00000000000E+00 0.  1.
         21   -1    0    0  501  502 -0.00000000000E+00 -0.00000000000E+00 -0.11709570194E+03  0.11709570194E+03  0.00000000000E+00 0.  1.
         25    1    1    2    0    0 -0.26777855721E+02 -0.20106402951E+03  0.20438512740E+03  0.31391412492E+03  0.12500000000E+03 0.  0.
         25    1    1    2    0    0  0.72986346715E+02  0.22800831017E+03  0.43179070254E+03  0.50929658070E+03  0.12500000000E+03 0.  0.
         25    1    1    2    0    0 -0.46208490994E+02 -0.26944280661E+02  0.17243085282E+03  0.21958738103E+03  0.12500000000E+03 0.  0.
</event>
<event>
 5    0  0.5452999E-005  0.3559441E+03  0.7546771E-02  0.1060201E+00
         21   -1    0    0  502  501  0.00000000000E+00  0.00000000000E+00  0.25622964908E+03  0.25622964908E+03  0.00000000000E+00 0. -1.
         21   -1    0    0  501  502 -0.00000000000E+00 -0.00000000000E+00 -0.49446353440E+03  0.49446353440E+03  0.00000000000E+00 0. -1.
         25    1    1    2    0    0 -0.91855699262E+02 -0.16419327731E+03  0.11169751695E+03  0.25198856540E+03  0.12500000000E+03 0.  0.
         25    1    1    2    0    0  0.10123321426E+03  0.12741531062E+03 -0.28929626351E+03  0.35468317289E+03  0.12500000000E+03 0.  0.
         25    1    1    2    0    0 -0.93775149968E+01  0.36777966684E+02 -0.60635138754E+02  0.14402144518E+03  0.12500000000E+03 0.  0.
</event>
<event>
 5    0  0.5452999E-005  0.2298704E+03  0.7546771E-02  0.1126731E+00
         21   -1    0    0  502  501  0.00000000000E+00  0.00000000000E+00  0.34045406356E+03  0.34045406356E+03  0.00000000000E+00 0.  1.
         21   -1    0    0  501  502 -0.00000000000E+00 -0.00000000000E+00 -0.15520564206E+03  0.15520564206E+03  0.00000000000E+00 0.  1.
         25    1    1    2    0    0  0.25530812302E+02  0.17280062608E+02 -0.49227619023E-01  0.12874558386E+03  0.12500000000E+03 0.  0.
         25    1    1    2    0    0  0.69929892583E+02 -0.34541326690E+02  0.41408743518E+02  0.15304567020E+03  0.12500000000E+03 0.  0.
         25    1    1    2    0    0 -0.95460704885E+02  0.17261264082E+02  0.14388890561E+03  0.21386845156E+03  0.12500000000E+03 0.  0.
</event>
<event>
 5    0  0.5452999E-005  0.3355126E+03  0.7546771E-02  0.1068723E+00
         21   -1    0    0  502  501  0.00000000000E+00  0.00000000000E+00  0.13527991719E+04  0.13527991719E+04  0.00000000000E+00 0. -1.
         21   -1    0    0  501  502 -0.00000000000E+00 -0.00000000000E+00 -0.83211679027E+02  0.83211679027E+02  0.00000000000E+00 0. -1.
         25    1    1    2    0    0 -0.14151330368E+03 -0.20324489523E+03  0.61821450373E+03  0.67760510268E+03  0.12500000000E+03 0.  0.
         25    1    1    2    0    0  0.49856274108E+02  0.10171838979E+03  0.15699594129E+03  0.23044523096E+03  0.12500000000E+03 0.  0.
         25    1    1    2    0    0  0.91657029567E+02  0.10152650544E+03  0.49437704788E+03  0.52796051732E+03  0.12500000000E+03 0.  0.
</event>
<event>
 5    0  0.5452999E-005  0.2512769E+03  0.7546771E-02  0.1112500E+00
         21   -1    0    0  502  501  0.00000000000E+00  0.00000000000E+00  0.43719448336E+03  0.43719448336E+03  0.00000000000E+00 0.  1.
         21   -1    0    0  501  502 -0.00000000000E+00 -0.00000000000E+00 -0.14442107208E+03  0.14442107208E+03  0.00000000000E+00 0.  1.
         25    1    1    2    0    0  0.47656234075E+02 -0.72364938583E+02  0.37108399301E+01  0.15213997277E+03  0.12500000000E+03 0.  0.
         25    1    1    2    0    0  0.38199075347E+02  0.66121582185E+02  0.21612367088E+03  0.26108556855E+03  0.12500000000E+03 0.  0.
         25    1    1    2    0    0 -0.85855309422E+02  0.62433563978E+01  0.72938900464E+02  0.16839001412E+03  0.12500000000E+03 0.  0.
</event>
<event>
 5    0  0.5452999E-005  0.2591964E+03  0.7546771E-02  0.1107627E+00
         21   -1    0    0  502  501  0.00000000000E+00  0.00000000000E+00  0.51762840141E+03  0.51762840141E+03  0.00000000000E+00 0. -1.
         21   -1    0    0  501  502 -0.00000000000E+00 -0.00000000000E+00 -0.12978961350E+03  0.12978961350E+03  0.00000000000E+00 0. -1.
         25    1    1    2    0    0 -0.29730798218E+02  0.72894987492E+01 -0.11183242411E+02  0.12917864400E+03  0.12500000000E+03 0.  0.
         25    1    1    2    0    0  0.76909561943E+02 -0.16855853663E+02  0.70967683629E+02  0.16389207620E+03  0.12500000000E+03 0.  0.
         25    1    1    2    0    0 -0.47178763725E+02  0.95663549134E+01  0.32805434669E+03  0.35434729472E+03  0.12500000000E+03 0.  0.
</event>
<event>
 5    0  0.5452999E-005  0.3616736E+03  0.7546771E-02  0.1057923E+00
         21   -1    0    0  502  501  0.00000000000E+00  0.00000000000E+00  0.53779870373E+03  0.53779870373E+03  0.00000000000E+00 0.  1.
         21   -1    0    0  501  502 -0.00000000000E+00 -0.00000000000E+00 -0.24322816779E+03  0.24322816779E+03  0.00000000000E+00 0.  1.
         25    1    1    2    0    0 -0.11207642205E+03  0.88475164115E+02  0.50874950449E+02  0.19647452667E+03  0.12500000000E+03 0.  0.
         25    1    1    2    0    0  0.78273075801E+02 -0.24647770377E+03  0.24909026875E+03  0.38019586378E+03  0.12500000000E+03 0.  0.
         25    1    1    2    0    0  0.33803346252E+02  0.15800253965E+03 -0.53946832535E+01  0.20435648109E+03  0.12500000000E+03 0.  0.
</event>
<event>
 5    0  0.5452999E-005  0.2321859E+03  0.7546771E-02  0.1125111E+00
         21   -1    0    0  502  501  0.00000000000E+00  0.00000000000E+00  0.64517355274E+02  0.64517355274E+02  0.00000000000E+00 0. -1.
         21   -1    0    0  501  502 -0.00000000000E+00 -0.00000000000E+00 -0.83559340560E+03  0.83559340560E+03  0.00000000000E+00 0. -1.
         25    1    1    2    0    0  0.65050927295E+02  0.13594255568E+02 -0.12346752884E+03  0.18784476997E+03  0.12500000000E+03 0.  0.
         25    1    1    2    0    0 -0.58370462102E+02 -0.13163210415E+02 -0.49937591780E+03  0.51824867412E+03  0.12500000000E+03 0.  0.
         25    1    1    2    0    0 -0.66804651927E+01 -0.43104515342E+00 -0.14823260368E+03  0.19401731678E+03  0.12500000000E+03 0.  0.
</event>
<event>
 5    0  0.5452999E-005  0.3626064E+03  0.7546771E-02  0.1057557E+00
         21   -1    0    0  502  501  0.00000000000E+00  0.00000000000E+00  0.77625627866E+03  0.77625627866E+03  0.00000000000E+00 0. -1.
         21   -1    0    0  501  502 -0.00000000000E+00 -0.00000000000E+00 -0.16938145338E+03  0.16938145338E+03  0.00000000000E+00 0. -1.
         25    1    1    2    0    0  0.45954856976E+02 -0.77360273543E+02 -0.29417348022E+02  0.15680191698E+03  0.12500000000E+03 0.  0.
         25    1    1    2    0    0 -0.15339058248E+03  0.11605094258E+02  0.96174940987E+02  0.22031334113E+03  0.12500000000E+03 0.  0.
         25    1    1    2    0    0  0.10743572551E+03  0.65755179286E+02  0.54011723232E+03  0.56852247393E+03  0.12500000000E+03 0.  0.
</event>
<event>
 5    0  0.5452999E-005  0.2841415E+03  0.7546771E-02  0.1093448E+00
         21   -1    0    0  502  501  0.00000000000E+00  0.00000000000E+00  0.12564304701E+03  0.12564304701E+03  0.00000000000E+00 0.  1.
         21   -1    0    0  501  502 -0.00000000000E+00 -0.00000000000E+00 -0.64258541350E+03  0.64258541350E+03  0.00000000000E+00 0.  1.
         25    1    1    2    0    0 -0.31929095049E+02  0.83833508913E+02 -0.25297624312E+03  0.29609036443E+03  0.12500000000E+03 0.  0.
         25    1    1    2    0    0  0.50094377736E+02 -0.16898395171E+03 -0.23094149833E+03  0.31626570833E+03  0.12500000000E+03 0.  0.
         25    1    1    2    0    0 -0.18165282688E+02  0.85150442795E+02 -0.33024625030E+02  0.15587238775E+03  0.12500000000E+03 0.  0.
</event>
<event>
 5    0  0.5452999E-005  0.2946543E+03  0.7546771E-02  0.1087944E+00
         21   -1    0    0  502  501  0.00000000000E+00  0.00000000000E+00  0.10805281236E+03  0.10805281236E+03  0.00000000000E+00 0.  1.
         21   -1    0    0  501  502 -0.00000000000E+00 -0.00000000000E+00 -0.80350683912E+03  0.80350683912E+03  0.00000000000E+00 0.  1.
         25    1    1    2    0    0 -0.79270618222E+02 -0.15388272824E+02 -0.31997680983E+03  0.35288920171E+03  0.12500000000E+03 0.  0.
         25    1    1    2    0    0 -0.20132677292E+02  0.12631893416E+03 -0.61065315938E+02  0.18898616519E+03  0.12500000000E+03 0.  0.
         25    1    1    2    0    0  0.99403295514E+02 -0.11093066133E+03 -0.31441190100E+03  0.36968428459E+03  0.12500000000E+03 0.  0.
</event>
<event>
 5    0  0.5452999E-005  0.3924440E+03  0.7546771E-02  0.1046428E+00
         21   -1    0    0  502  501  0.00000000000E+00  0.00000000000E+00  0.13266703785E+03  0.13266703785E+03  0.00000000000E+00 0.  1.
         21   -1    0    0  501  502 -0.00000000000E+00 -0.00000000000E+00 -0.11608934153E+04  0.11608934153E+04  0.00000000000E+00 0.  1.
         25    1    1    2    0    0  0.33716302283E+02  0.10638529768E+03 -0.33681935321E+03  0.37620060779E+03  0.12500000000E+03 0.  0.
         25    1    1    2    0    0  0.49017564282E+02 -0.19948974412E+03 -0.70054111525E+03  0.74066303659E+03  0.12500000000E+03 0.  0.
         25    1    1    2    0    0 -0.82733866565E+02  0.93104446441E+02  0.91340909856E+01  0.17669680881E+03  0.12500000000E+03 0.  0.
</event>
<event>
 5    0  0.5452999E-005  0.2134979E+03  0.7546771E-02  0.1138826E+00
         21   -1    0    0  502  501  0.00000000000E+00  0.00000000000E+00  0.12609932066E+03  0.12609932066E+03  0.00000000000E+00 0. -1.
         21   -1    0    0  501  502 -0.00000000000E+00 -0.00000000000E+00 -0.36147167043E+03  0.36147167043E+03  0.00000000000E+00 0. -1.
         25    1    1    2    0    0 -0.31137203798E+02 -0.39952778561E+02 -0.29004300315E+02  0.13795651276E+03  0.12500000000E+03 0.  0.
         25    1    1    2    0    0  0.10842312740E+02  0.18791639125E+02 -0.17722644039E+03  0.21795617132E+03  0.12500000000E+03 0.  0.
         25    1    1    2    0    0  0.20294891058E+02  0.21161139436E+02 -0.29141609063E+02  0.13165830701E+03  0.12500000000E+03 0.  0.
</event>
<event>
 5    0  0.5452999E-005  0.2364551E+03  0.7546771E-02  0.1122177E+00
         21   -1    0    0  502  501  0.00000000000E+00  0.00000000000E+00  0.79176800179E+03  0.79176800179E+03  0.00000000000E+00 0. -1.
         21   -1    0    0  501  502 -0.00000000000E+00 -0.00000000000E+00 -0.70615417938E+02  0.70615417938E+02  0.00000000000E+00 0. -1.
         25    1    1    2    0    0  0.52074386490E+02  0.35892637432E+02  0.15446540351E+03  0.20852957591E+03  0.12500000000E+03 0.  0.
         25    1    1    2    0    0  0.70313960976E+02  0.96328150123E+01  0.28414201488E+03  0.31843135658E+03  0.12500000000E+03 0.  0.
         25    1    1    2    0    0 -0.12238834747E+03 -0.45525452444E+02  0.28254516547E+03  0.33542248724E+03  0.12500000000E+03 0.  0.
</event>
<event>
 5    0  0.5452999E-005  0.3975388E+03  0.7546771E-02  0.1044635E+00
         21   -1    0    0  502  501  0.00000000000E+00  0.00000000000E+00  0.15704872807E+04  0.15704872807E+04  0.00000000000E+00 0.  1.
         21   -1    0    0  501  502 -0.00000000000E+00 -0.00000000000E+00 -0.10062931724E+03  0.10062931724E+03  0.00000000000E+00 0.  1.
         25    1    1    2    0    0 -0.53315940337E+02  0.92889591857E+01  0.10549321685E+04  0.10636896890E+04  0.12500000000E+03 0.  0.
         25    1    1    2    0    0  0.17109646002E+03 -0.51359036536E+02  0.86767217108E+02  0.23465996512E+03  0.12500000000E+03 0.  0.
         25    1    1    2    0    0 -0.11778051968E+03  0.42070077350E+02  0.32815857785E+03  0.37276694387E+03  0.12500000000E+03 0.  0.
</event>
<event>
 5    0  0.5452999E-005  0.3128762E+03  0.7546771E-02  0.1078975E+00
         21   -1    0    0  502  501  0.00000000000E+00  0.00000000000E+00  0.13574692243E+04  0.13574692243E+04  0.00000000000E+00 0. -1.
         21   -1    0    0  501  502 -0.00000000000E+00 -0.00000000000E+00 -0.72113251533E+02  0.72113251533E+02  0.00000000000E+00 0. -1.
         25    1    1    2    0    0 -0.14781123348E+03 -0.13574124180E+03  0.41882360299E+03  0.48094911986E+03  0.12500000000E+03 0.  0.
         25    1    1    2    0    0  0.33846895821E+01  0.14515218545E+03  0.37258155045E+03  0.41895420370E+03  0.12500000000E+03 0.  0.
         25    1    1    2    0    0  0.14442654390E+03 -0.94109436463E+01  0.49395081937E+03  0.52967915232E+03  0.12500000000E+03 0.  0.
</event>
<event>
 5    0  0.5452999E-005  0.4104987E+03  0.7546771E-02  0.1040204E+00
         21   -1    0    0  502  501  0.00000000000E+00  0.00000000000E+00  0.21151423574E+03  0.21151423574E+03  0.00000000000E+00 0.  1.
         21   -1    0    0  501  502 -0.00000000000E+00 -0.00000000000E+00 -0.79668005128E+03  0.79668005128E+03  0.00000000000E+00 0.  1.
         25    1    1    2    0    0  0.24137944948E+02  0.11689172293E+03 -0.54877906710E+03  0.57535187473E+03  0.12500000000E+03 0.  0.
         25    1    1    2    0    0  0.16238714926E+02 -0.22693870456E+03 -0.30453396189E+02  0.26137574644E+03  0.12500000000E+03 0.  0.
         25    1    1    2    0    0 -0.40376659875E+02  0.11004698163E+03 -0.59333522485E+01  0.17146666585E+03  0.12500000000E+03 0.  0.
</event>
<event>
 5    0  0.5452999E-005  0.3779070E+03  0.7546771E-02  0.1051710E+00
         21   -1    0    0  502  501  0.00000000000E+00  0.00000000000E+00  0.41629573144E+03  0.41629573144E+03  0.00000000000E+00 0. -1.
         21   -1    0    0  501  502 -0.00000000000E+00 -0.00000000000E+00 -0.34305827290E+03  0.34305827290E+03  0.00000000000E+00 0. -1.
         25    1    1    2    0    0  0.12629184367E+03  0.50190289236E+02 -0.12405154697E+03  0.22244658059E+03  0.12500000000E+03 0.  0.
         25    1    1    2    0    0  0.74369597356E+02  0.13312214113E+03  0.49769740352E+02  0.20335773534E+03  0.12500000000E+03 0.  0.
         25    1    1    2    0    0 -0.20066144102E+03 -0.18331243037E+03  0.14751926516E+03  0.33354968840E+03  0.12500000000E+03 0.  0.
</event>
<event>
 5    0  0.5452999E-005  0.3269742E+03  0.7546771E-02  0.1072484E+00
         21   -1    0    0  502  501  0.00000000000E+00  0.00000000000E+00  0.56509341126E+03  0.56509341126E+03  0.00000000000E+00 0. -1.
         21   -1    0    0  501  502 -0.00000000000E+00 -0.00000000000E+00 -0.18919376683E+03  0.18919376683E+03  0.00000000000E+00 0. -1.
         25    1    1    2    0    0 -0.18469952785E+03  0.16832220163E+03  0.11216658222E+03  0.30108573748E+03  0.12500000000E+03 0.  0.
         25    1    1    2    0    0  0.51624057441E+02 -0.84129612224E+02  0.69928954698E+02  0.17394796252E+03  0.12500000000E+03 0.  0.
         25    1    1    2    0    0  0.13307547041E+03 -0.84192589404E+02  0.19380410752E+03  0.27925347809E+03  0.12500000000E+03 0.  0.
</event>
<event>
 5    0  0.5452999E-005  0.3344489E+03  0.7546771E-02  0.1069185E+00
         21   -1    0    0  502  501  0.00000000000E+00  0.00000000000E+00  0.18712311332E+03  0.18712311332E+03  0.00000000000E+00 0.  1.
         21   -1    0    0  501  502 -0.00000000000E+00 -0.00000000000E+00 -0.59776731752E+03  0.59776731752E+03  0.00000000000E+00 0.  1.
         25    1    1    2    0    0  0.11479107025E+03 -0.20950078156E+03 -0.17359334795E+03  0.32066683292E+03  0.12500000000E+03 0.  0.
         25    1    1    2    0    0 -0.14573748756E+03  0.18490535445E+03 -0.17735650328E+03  0.32017141447E+03  0.12500000000E+03 0.  0.
         25    1    1    2    0    0  0.30946417311E+02  0.24595427102E+02 -0.59694352971E+02  0.14405218345E+03  0.12500000000E+03 0.  0.
</event>
<event>
 5    0  0.5452999E-005  0.3798887E+03  0.7546771E-02  0.1050975E+00
         21   -1    0    0  502  501  0.00000000000E+00  0.00000000000E+00  0.27399734331E+03  0.27399734331E+03  0.00000000000E+00 0. -1.
         21   -1    0    0  501  502 -0.00000000000E+00 -0.00000000000E+00 -0.52670368117E+03  0.52670368117E+03  0.00000000000E+00 0. -1.
         25    1    1    2    0    0 -0.22572134642E+03 -0.15622934150E+03 -0.11196034870E+03  0.32174190441E+03  0.12500000000E+03 0.  0.
         25    1    1    2    0    0  0.20927483051E+03  0.20888455674E+03 -0.92880665256E+02  0.33418637122E+03  0.12500000000E+03 0.  0.
         25    1    1    2    0    0  0.16446515912E+02 -0.52655215242E+02 -0.47865323906E+02  0.14477274885E+03  0.12500000000E+03 0.  0.
</event>
<event>
 5    0  0.5452999E-005  0.4066190E+03  0.7546771E-02  0.1041512E+00
         21   -1    0    0  502  501  0.00000000000E+00  0.00000000000E+00  0.70120177401E+03  0.70120177401E+03  0.00000000000E+00 0.  1.
         21   -1    0    0  501  502 -0.00000000000E+00 -0.00000000000E+00 -0.23579374058E+03  0.23579374058E+03  0.00000000000E+00 0. -1.
         25    1    1    2    0    0  0.21034733861E+03  0.11111006706E+03  0.31644926815E+03  0.41515851090E+03  0.12500000000E+03 0.  0.
         25    1    1    2    0    0 -0.28254304853E+03 -0.11378539157E+03  0.17842654803E+03  0.37448460936E+03  0.12500000000E+03 0.  0.
         25    1    1    2    0    0  0.72195709922E+02  0.26753245047E+01 -0.29467782761E+02  0.14735239432E+03  0.12500000000E+03 0.  0.
</event>
<event>
 5    0  0.5452999E-005  0.2679249E+03  0.7546771E-02  0.1102473E+00
         21   -1    0    0  502  501  0.00000000000E+00  0.00000000000E+00  0.43746660415E+03  0.43746660415E+03  0.00000000000E+00 0. -1.
         21   -1    0    0  501  502 -0.00000000000E+00 -0.00000000000E+00 -0.16408969032E+03  0.16408969032E+03  0.00000000000E+00 0. -1.
         25    1    1    2    0    0  0.36753592169E+02 -0.95261600304E+02  0.11082780390E+03  0.19578917525E+03  0.12500000000E+03 0.  0.
         25    1    1    2    0    0 -0.53258531186E+02  0.17395423711E+03  0.11964969385E+03  0.25107289179E+03  0.12500000000E+03 0.  0.
         25    1    1    2    0    0  0.16504939016E+02 -0.78692636809E+02  0.42899416081E+02  0.15469422743E+03  0.12500000000E+03 0.  0.
</event>
<event>
 5    0  0.5452999E-005  0.3631818E+03  0.7546771E-02  0.1057331E+00
         21   -1    0    0  502  501  0.00000000000E+00  0.00000000000E+00  0.90346209402E+02  0.90346209402E+02  0.00000000000E+00 0.  1.
         21   -1    0    0  501  502 -0.00000000000E+00 -0.00000000000E+00 -0.14599508551E+04  0.14599508551E+04  0.00000000000E+00 0.  1.
         25    1    1    2    0    0 -0.10173968936E+03  0.66301943327E+02 -0.10485598934E+04  0.10629439130E+04  0.12500000000E+03 0.  0.
         25    1    1    2    0    0  0.14820846513E+03 -0.11100647911E+03 -0.16827152936E+03  0.27969357364E+03  0.12500000000E+03 0.  0.
         25    1    1    2    0    0 -0.46468775763E+02  0.44704535780E+02 -0.15277322290E+03  0.20765957786E+03  0.12500000000E+03 0.  0.
</event>
<event>
 5    0  0.5452999E-005  0.3232468E+03  0.7546771E-02  0.1074165E+00
         21   -1    0    0  502  501  0.00000000000E+00  0.00000000000E+00  0.16392497506E+03  0.16392497506E+03  0.00000000000E+00 0. -1.
         21   -1    0    0  501  502 -0.00000000000E+00 -0.00000000000E+00 -0.63741671966E+03  0.63741671966E+03  0.00000000000E+00 0. -1.
         25    1    1    2    0    0 -0.13148255471E+03 -0.61375166721E+02 -0.19954663492E+03  0.27658350057E+03  0.12500000000E+03 0.  0.
         25    1    1    2    0    0  0.18813897723E+03  0.15938204621E+03 -0.14297971448E+03  0.31123481515E+03  0.12500000000E+03 0.  0.
         25    1    1    2    0    0 -0.56656422523E+02 -0.98006879489E+02 -0.13096539520E+03  0.21352337900E+03  0.12500000000E+03 0.  0.
</event>
<event>
 5    0  0.5452999E-005  0.2593106E+03  0.7546771E-02  0.1107558E+00
         21   -1    0    0  502  501  0.00000000000E+00  0.00000000000E+00  0.21679677104E+03  0.21679677104E+03  0.00000000000E+00 0. -1.
         21   -1    0    0  501  502 -0.00000000000E+00 -0.00000000000E+00 -0.31016141441E+03  0.31016141441E+03  0.00000000000E+00 0. -1.
         25    1    1    2    0    0  0.60115833436E+02 -0.92661631563E+02  0.76279491133E+02  0.18342206018E+03  0.12500000000E+03 0.  0.
         25    1    1    2    0    0  0.80642416018E+01  0.93497213005E+02 -0.91324105490E+02  0.18102997839E+03  0.12500000000E+03 0.  0.
         25    1    1    2    0    0 -0.68180075037E+02 -0.83558144236E+00 -0.78320029020E+02  0.16250614688E+03  0.12500000000E+03 0.  0.
</event>
<event>
 5    0  0.5869674E-005  0.2960378E+03  0.7546771E-02  0.1087238E+00
         21   -1    0    0  502  501  0.00000000000E+00  0.00000000000E+00  0.56836294865E+03  0.56836294865E+03  0.00000000000E+00 0.  1.
         21   -1    0    0  501  502 -0.00000000000E+00 -0.00000000000E+00 -0.15419438400E+03  0.15419438400E+03  0.00000000000E+00 0.  1.
         25    1    1    2    0    0 -0.33727124633E+02 -0.84315392307E+02  0.24966992596E+02  0.15650864205E+03  0.12500000000E+03 0.  0.
         25    1    1    2    0    0  0.11122181117E+03  0.15843248886E+03  0.14757325756E+03  0.27363115896E+03  0.12500000000E+03 0.  0.
         25    1    1    2    0    0 -0.77494686535E+02 -0.74117096555E+02  0.24162831450E+03  0.29241753164E+03  0.12500000000E+03 0.  0.
</event>
<event>
 5    0  0.5452999E-005  0.2670476E+03  0.7546771E-02  0.1102981E+00
         21   -1    0    0  502  501  0.00000000000E+00  0.00000000000E+00  0.19891474603E+03  0.19891474603E+03  0.00000000000E+00 0. -1.
         21   -1    0    0  501  502 -0.00000000000E+00 -0.00000000000E+00 -0.35851753630E+03  0.35851753630E+03  0.00000000000E+00 0. -1.
         25    1    1    2    0    0 -0.13792288412E+03  0.27183388090E+02 -0.19053335568E+03  0.26774917026E+03  0.12500000000E+03 0.  0.
         25    1    1    2    0    0  0.81368382003E+02 -0.76097097505E+01  0.19762255527E+02  0.15064616827E+03  0.12500000000E+03 0.  0.
         25    1    1    2    0    0  0.56554502114E+02 -0.19573678339E+02  0.11168309877E+02  0.13903694379E+03  0.12500000000E+03 0.  0.
</event>
<event>
 5    0  0.5452999E-005  0.4533796E+03  0.7546771E-02  0.1026719E+00
         21   -1    0    0  502  501  0.00000000000E+00  0.00000000000E+00  0.45426875295E+03  0.45426875295E+03  0.00000000000E+00 0.  1.
         21   -1    0    0  501  502 -0.00000000000E+00 -0.00000000000E+00 -0.45249225496E+03  0.45249225496E+03  0.00000000000E+00 0.  1.
         25    1    1    2    0    0 -0.11003079611E+03 -0.14851487667E+03  0.58980721702E+02  0.23079681587E+03  0.12500000000E+03 0.  0.
         25    1    1    2    0    0 -0.21760981566E+03  0.12993156111E+03  0.87968274467E+02  0.29597239695E+03  0.12500000000E+03 0.  0.
         25    1    1    2    0    0  0.32764061178E+03  0.18583315560E+02 -0.14517249818E+03  0.37999179508E+03  0.12500000000E+03 0.  0.
</event>
<event>
 5    0  0.5452999E-005  0.2179077E+03  0.7546771E-02  0.1135453E+00
         21   -1    0    0  502  501  0.00000000000E+00  0.00000000000E+00  0.22559247409E+03  0.22559247409E+03  0.00000000000E+00 0.  1.
         21   -1    0    0  501  502 -0.00000000000E+00 -0.00000000000E+00 -0.21048479661E+03  0.21048479661E+03  0.00000000000E+00 0.  1.
         25    1    1    2    0    0  0.16422720432E+01  0.51101447217E+02  0.85890641522E+02  0.16005079589E+03  0.12500000000E+03 0.  0.
         25    1    1    2    0    0 -0.28538053314E+02 -0.23964601189E+02 -0.63611351540E+02  0.14512107580E+03  0.12500000000E+03 0.  0.
         25    1    1    2    0    0  0.26895781271E+02 -0.27136846028E+02 -0.71716124997E+01  0.13090539900E+03  0.12500000000E+03 0.  0.
</event>
<event>
 5    0  0.5630450E-005  0.2711704E+03  0.7546771E-02  0.1100612E+00
         21   -1    0    0  502  501  0.00000000000E+00  0.00000000000E+00  0.12878893105E+03  0.12878893105E+03  0.00000000000E+00 0. -1.
         21   -1    0    0  501  502 -0.00000000000E+00 -0.00000000000E+00 -0.57096055357E+03  0.57096055357E+03  0.00000000000E+00 0. -1.
         25    1    1    2    0    0 -0.95254577744E+02 -0.72247788149E+02 -0.13218611271E+03  0.21769553479E+03  0.12500000000E+03 0.  0.
         25    1    1    2    0    0  0.67882795016E+02  0.14846842081E+03 -0.11149275598E+03  0.23389437888E+03  0.12500000000E+03 0.  0.
         25    1    1    2    0    0  0.27371782728E+02 -0.76220632662E+02 -0.19849275383E+03  0.24815957095E+03  0.12500000000E+03 0.  0.
</event>
<event>
 5    0  0.5452999E-005  0.3465270E+03  0.7546771E-02  0.1064050E+00
         21   -1    0    0  502  501  0.00000000000E+00  0.00000000000E+00  0.85344222632E+02  0.85344222632E+02  0.00000000000E+00 0. -1.
         21   -1    0    0  501  502 -0.00000000000E+00 -0.00000000000E+00 -0.14070195757E+04  0.14070195757E+04  0.00000000000E+00 0. -1.
         25    1    1    2    0    0  0.70556914344E+02 -0.50467123843E+02 -0.10925050423E+03  0.18731225647E+03  0.12500000000E+03 0.  0.
         25    1    1    2    0    0 -0.15785471412E+03  0.74992918795E+02 -0.24710120735E+03  0.32745389800E+03  0.12500000000E+03 0.  0.
         25    1    1    2    0    0  0.87297799777E+02 -0.24525794952E+02 -0.96532364153E+03  0.97759764390E+03  0.12500000000E+03 0.  0.
</event>
<event>
 5    0  0.5452999E-005  0.2531416E+03  0.7546771E-02  0.1111335E+00
         21   -1    0    0  502  501  0.00000000000E+00  0.00000000000E+00  0.14927312900E+04  0.14927312900E+04  0.00000000000E+00 0.  1.
         21   -1    0    0  501  502 -0.00000000000E+00 -0.00000000000E+00 -0.42928480696E+02  0.42928480696E+02  0.00000000000E+00 0.  1.
         25    1    1    2    0    0 -0.12598358577E+03  0.28771421005E+02  0.50875986829E+03  0.53959360831E+03  0.12500000000E+03 0.  0.
         25    1    1    2    0    0 -0.77823718161E+01 -0.17238728011E+02  0.23810481094E+03  0.26958605314E+03  0.12500000000E+03 0.  0.
         25    1    1    2    0    0  0.13376595758E+03 -0.11532692994E+02  0.70293813013E+03  0.72648010930E+03  0.12500000000E+03 0.  0.
</event>
<event>
 5    0  0.5452999E-005  0.6739775E+03  0.7546771E-02  0.9762799E-01
         21   -1    0    0  502  501  0.00000000000E+00  0.00000000000E+00  0.75139220187E+03  0.75139220187E+03  0.00000000000E+00 0. -1.
         21   -1    0    0  501  502 -0.00000000000E+00 -0.00000000000E+00 -0.60453869052E+03  0.60453869052E+03  0.00000000000E+00 0. -1.
         25    1    1    2    0    0  0.10804852537E+03  0.14964004994E+03 -0.31784903568E+02  0.22517084286E+03  0.12500000000E+03 0.  0.
         25    1    1    2    0    0 -0.11915299650E+03 -0.61273686168E+03  0.92566019959E+02  0.64330192467E+03  0.12500000000E+03 0.  0.
         25    1    1    2    0    0  0.11104471130E+02  0.46309681173E+03  0.86072394958E+02  0.48745812486E+03  0.12500000000E+03 0.  0.
</event>
<event>
 5    0  0.5452999E-005  0.4333784E+03  0.7546771E-02  0.1032798E+00
         21   -1    0    0  502  501  0.00000000000E+00  0.00000000000E+00  0.45149259373E+03  0.45149259373E+03  0.00000000000E+00 0. -1.
         21   -1    0    0  501  502 -0.00000000000E+00 -0.00000000000E+00 -0.41599104324E+03  0.41599104324E+03  0.00000000000E+00 0. -1.
         25    1    1    2    0    0 -0.86730937372E+02 -0.17402596414E+03 -0.68334903087E+02  0.24104346220E+03  0.12500000000E+03 0.  0.
         25    1    1    2    0    0  0.20771055762E+03  0.88699118180E+02  0.26828245766E+03  0.37230590433E+03  0.12500000000E+03 0.  0.
         25    1    1    2    0    0 -0.12097962025E+03  0.85326845957E+02 -0.16444600408E+03  0.25413427044E+03  0.12500000000E+03 0.  0.
</event>
<event>
 5    0  0.5452999E-005  0.4957023E+03  0.7546771E-02  0.1014907E+00
         21   -1    0    0  502  501  0.00000000000E+00  0.00000000000E+00  0.32627701831E+03  0.32627701831E+03  0.00000000000E+00 0. -1.
         21   -1    0    0  501  502 -0.00000000000E+00 -0.00000000000E+00 -0.75310487804E+03  0.75310487804E+03  0.00000000000E+00 0.  1.
         25    1    1    2    0    0  0.89880180803E+02 -0.36240843430E+03 -0.38967810544E+03  0.55397865123E+03  0.12500000000E+03 0.  0.
         25    1    1    2    0    0 -0.35147640814E+02  0.35974908643E+03 -0.59614029922E+02  0.38708344630E+03  0.12500000000E+03 0.  0.
         25    1    1    2    0    0 -0.54732539989E+02  0.26593478775E+01  0.22464275631E+02  0.13831979882E+03  0.12500000000E+03 0.  0.
</event>
<event>
 5    0  0.5452999E-005  0.4000371E+03  0.7546771E-02  0.1043767E+00
         21   -1    0    0  502  501  0.00000000000E+00  0.00000000000E+00  0.71451175027E+03  0.71451175027E+03  0.00000000000E+00 0. -1.
         21   -1    0    0  501  502 -0.00000000000E+00 -0.00000000000E+00 -0.22397066751E+03  0.22397066751E+03  0.00000000000E+00 0. -1.
         25    1    1    2    0    0 -0.39718422657E+02  0.10168268218E+03 -0.22300025883E+02  0.16744913290E+03  0.12500000000E+03 0.  0.
         25    1    1    2    0    0 -0.14444706731E+03 -0.20842713588E+03  0.12013880734E+03  0.30718912620E+03  0.12500000000E+03 0.  0.
         25    1    1    2    0    0  0.18416548997E+03  0.10674445370E+03  0.39270230131E+03  0.46384415869E+03  0.12500000000E+03 0.  0.
</event>
<event>
 5    0  0.5452999E-005  0.3468223E+03  0.7546771E-02  0.1063927E+00
         21   -1    0    0  502  501  0.00000000000E+00  0.00000000000E+00  0.13344978336E+03  0.13344978336E+03  0.00000000000E+00 0. -1.
         21   -1    0    0  501  502 -0.00000000000E+00 -0.00000000000E+00 -0.90135557898E+03  0.90135557898E+03  0.00000000000E+00 0. -1.
         25    1    1    2    0    0  0.55860619354E+02 -0.19123522158E+03 -0.36379528543E+03  0.43320125631E+03  0.12500000000E+03 0.  0.
         25    1    1    2    0    0 -0.28688772831E+02 -0.47317007549E+02 -0.26286048946E+03  0.29628125457E+03  0.12500000000E+03 0.  0.
         25    1    1    2    0    0 -0.27171846523E+02  0.23855222912E+03 -0.14125002073E+03  0.30532285145E+03  0.12500000000E+03 0.  0.
</event>
<event>
 5    0  0.5452999E-005  0.2772636E+03  0.7546771E-02  0.1097193E+00
         21   -1    0    0  502  501  0.00000000000E+00  0.00000000000E+00  0.70710028671E+03  0.70710028671E+03  0.00000000000E+00 0. -1.
         21   -1    0    0  501  502 -0.00000000000E+00 -0.00000000000E+00 -0.10871884648E+03  0.10871884648E+03  0.00000000000E+00 0. -1.
         25    1    1    2    0    0 -0.69071997029E+02  0.32238566440E+02  0.36026219032E+02  0.15077517832E+03  0.12500000000E+03 0.  0.
         25    1    1    2    0    0  0.20599648176E+02 -0.58796591148E+02  0.49177110618E+03  0.51121933209E+03  0.12500000000E+03 0.  0.
         25    1    1    2    0    0  0.48472348853E+02  0.26558024707E+02  0.70584115026E+02  0.15382462278E+03  0.12500000000E+03 0.  0.
</event>
<event>
 5    0  0.5452999E-005  0.5561880E+03  0.7546771E-02  0.1000072E+00
         21   -1    0    0  502  501  0.00000000000E+00  0.00000000000E+00  0.41171562650E+04  0.41171562650E+04  0.00000000000E+00 0.  1.
         21   -1    0    0  501  502 -0.00000000000E+00 -0.00000000000E+00 -0.75135630453E+02  0.75135630453E+02  0.00000000000E+00 0.  1.
         25    1    1    2    0    0  0.18803544708E+03  0.45723316891E+03  0.19882876528E+04  0.20526403217E+04  0.12500000000E+03 0.  0.
         25    1    1    2    0    0 -0.38442449542E+02 -0.59124144867E+02  0.72061030835E+03  0.73476370550E+03  0.12500000000E+03 0.  0.
         25    1    1    2    0    0 -0.14959299754E+03 -0.39810902404E+03  0.13331226734E+04  0.14048878683E+04  0.12500000000E+03 0.  0.
</event>
<event>
 5    0  0.5452999E-005  0.4245720E+03  0.7546771E-02  0.1035588E+00
         21   -1    0    0  502  501  0.00000000000E+00  0.00000000000E+00  0.50516673316E+03  0.50516673316E+03  0.00000000000E+00 0.  1.
         21   -1    0    0  501  502 -0.00000000000E+00 -0.00000000000E+00 -0.35683546055E+03  0.35683546055E+03  0.00000000000E+00 0.  1.
         25    1    1    2    0    0  0.86792827277E+02 -0.24110647922E+03  0.21415398267E+03  0.35658415203E+03  0.12500000000E+03 0.  0.
         25    1    1    2    0    0  0.83847785374E+02  0.17782352574E+03  0.73563530587E+02  0.24431178942E+03  0.12500000000E+03 0.  0.
         25    1    1    2    0    0 -0.17064061265E+03  0.63282953474E+02 -0.13938624064E+03  0.26110625226E+03  0.12500000000E+03 0.  0.
</event>
<event>
 5    0  0.5452999E-005  0.3166015E+03  0.7546771E-02  0.1077224E+00
         21   -1    0    0  502  501  0.00000000000E+00  0.00000000000E+00  0.48399250049E+03  0.48399250049E+03  0.00000000000E+00 0.  1.
         21   -1    0    0  501  502 -0.00000000000E+00 -0.00000000000E+00 -0.20710349821E+03  0.20710349821E+03  0.00000000000E+00 0.  1.
         25    1    1    2    0    0  0.12784921773E+03 -0.18785158198E+03  0.76879918351E+02  0.27049798737E+03  0.12500000000E+03 0.  0.
         25    1    1    2    0    0 -0.13702013328E+03  0.97057897454E+02  0.15151673440E+03  0.25841260261E+03  0.12500000000E+03 0.  0.
         25    1    1    2    0    0  0.91709155449E+01  0.90793684521E+02  0.48492349515E+02  0.16218540872E+03  0.12500000000E+03 0.  0.
</event>
<event>
 5    0  0.8471338E-005  0.6481080E+03  0.7546771E-02  0.9810336E-01
         21   -1    0    0  502  501  0.00000000000E+00  0.00000000000E+00  0.54411311641E+03  0.54411311641E+03  0.00000000000E+00 0. -1.
         21   -1    0    0  501  502 -0.00000000000E+00 -0.00000000000E+00 -0.77197916161E+03  0.77197916161E+03  0.00000000000E+00 0. -1.
         25    1    1    2    0    0 -0.23487375199E+03  0.31095294211E+03  0.17893779124E+03  0.44665551011E+03  0.12500000000E+03 0.  0.
         25    1    1    2    0    0  0.86957557064E+02 -0.42384269753E+03 -0.56981128605E+02  0.45395605294E+03  0.12500000000E+03 0.  0.
         25    1    1    2    0    0  0.14791619492E+03  0.11288975542E+03 -0.34982270783E+03  0.41548071498E+03  0.12500000000E+03 0.  0.
</event>
<event>
 5    0  0.5672591E-005  0.3269685E+03  0.7546771E-02  0.1072486E+00
         21   -1    0    0  502  501  0.00000000000E+00  0.00000000000E+00  0.76427400188E+03  0.76427400188E+03  0.00000000000E+00 0.  1.
         21   -1    0    0  501  502 -0.00000000000E+00 -0.00000000000E+00 -0.13988232589E+03  0.13988232589E+03  0.00000000000E+00 0.  1.
         25    1    1    2    0    0 -0.19095933227E+03 -0.34934820660E+02  0.42994328406E+03  0.48801858139E+03  0.12500000000E+03 0.  0.
         25    1    1    2    0    0  0.67728394200E+02  0.53781526143E+02 -0.20068620953E+01  0.15201518158E+03  0.12500000000E+03 0.  0.
         25    1    1    2    0    0  0.12323093807E+03 -0.18846705483E+02  0.19645525402E+03  0.26412256480E+03  0.12500000000E+03 0.  0.
</event>
<event>
 5    0  0.5452999E-005  0.3365092E+03  0.7546771E-02  0.1068293E+00
         21   -1    0    0  502  501  0.00000000000E+00  0.00000000000E+00  0.13002294897E+04  0.13002294897E+04  0.00000000000E+00 0. -1.
         21   -1    0    0  501  502 -0.00000000000E+00 -0.00000000000E+00 -0.87091122667E+02  0.87091122667E+02  0.00000000000E+00 0. -1.
         25    1    1    2    0    0 -0.13641564274E+03  0.32257026399E+02  0.72288610025E+03  0.74688624118E+03  0.12500000000E+03 0.  0.
         25    1    1    2    0    0  0.16198579847E+03  0.10024105706E+03  0.28323671427E+03  0.36350475202E+03  0.12500000000E+03 0.  0.
         25    1    1    2    0    0 -0.25570155730E+02 -0.13249808346E+03  0.20701555249E+03  0.27692961914E+03  0.12500000000E+03 0.  0.
</event>
<event>
 5    0  0.5452999E-005  0.3313853E+03  0.7546771E-02  0.1070526E+00
         21   -1    0    0  502  501  0.00000000000E+00  0.00000000000E+00  0.10487620005E+04  0.10487620005E+04  0.00000000000E+00 0.  1.
         21   -1    0    0  501  502 -0.00000000000E+00 -0.00000000000E+00 -0.10471031506E+03  0.10471031506E+03  0.00000000000E+00 0.  1.
         25    1    1    2    0    0 -0.23036567431E+02 -0.12519174990E+03  0.34648447948E+03  0.38971804193E+03  0.12500000000E+03 0.  0.
         25    1    1    2    0    0 -0.37424852186E+02  0.25412418963E+03  0.37613387586E+03  0.47231495412E+03  0.12500000000E+03 0.  0.
         25    1    1    2    0    0  0.60461419617E+02 -0.12893243974E+03  0.22143333007E+03  0.29143931949E+03  0.12500000000E+03 0.  0.
</event>
<event>
 5    0  0.5452999E-005  0.2601730E+03  0.7546771E-02  0.1107039E+00
         21   -1    0    0  502  501  0.00000000000E+00  0.00000000000E+00  0.17448279417E+03  0.17448279417E+03  0.00000000000E+00 0. -1.
         21   -1    0    0  501  502 -0.00000000000E+00 -0.00000000000E+00 -0.38794637748E+03  0.38794637748E+03  0.00000000000E+00 0. -1.
         25    1    1    2    0    0 -0.24658401107E+02 -0.37382269952E+02 -0.16255001678E+03  0.20988801492E+03  0.12500000000E+03 0.  0.
         25    1    1    2    0    0  0.46287814139E+01 -0.10136139690E+03 -0.25713708824E+02  0.16303911562E+03  0.12500000000E+03 0.  0.
         25    1    1    2    0    0  0.20029619693E+02  0.13874366685E+03 -0.25199857711E+02  0.18950204111E+03  0.12500000000E+03 0.  0.
</event>
<event>
 5    0  0.5452999E-005  0.2396182E+03  0.7546771E-02  0.1120047E+00
         21   -1    0    0  502  501  0.00000000000E+00  0.00000000000E+00  0.18793617228E+03  0.18793617228E+03  0.00000000000E+00 0.  1.
         21   -1    0    0  501  502 -0.00000000000E+00 -0.00000000000E+00 -0.30551272692E+03  0.30551272692E+03  0.00000000000E+00 0.  1.
         25    1    1    2    0    0  0.62648694674E+02  0.47685879860E+02 -0.44925677833E+02  0.15440893307E+03  0.12500000000E+03 0.  0.
         25    1    1    2    0    0  0.11106434527E+02 -0.10871325153E+03 -0.94766976180E+00  0.16603560469E+03  0.12500000000E+03 0.  0.
         25    1    1    2    0    0 -0.73755129201E+02  0.61027371671E+02 -0.71703207052E+02  0.17300436144E+03  0.12500000000E+03 0.  0.
</event>
<event>
 5    0  0.5452999E-005  0.2906278E+03  0.7546771E-02  0.1090022E+00
         21   -1    0    0  502  501  0.00000000000E+00  0.00000000000E+00  0.65245504916E+02  0.65245504916E+02  0.00000000000E+00 0. -1.
         21   -1    0    0  501  502 -0.00000000000E+00 -0.00000000000E+00 -0.12945644070E+04  0.12945644070E+04  0.00000000000E+00 0. -1.
         25    1    1    2    0    0  0.54834624749E+02  0.82128990311E+02 -0.74746830310E+03  0.76425510876E+03  0.12500000000E+03 0.  0.
         25    1    1    2    0    0 -0.29759622905E+02  0.17574166378E+02 -0.38656828455E+03  0.40774320975E+03  0.12500000000E+03 0.  0.
         25    1    1    2    0    0 -0.25075001844E+02 -0.99703156689E+02 -0.95282314418E+02  0.18781159339E+03  0.12500000000E+03 0.  0.
</event>
<event>
 5    0  0.5452999E-005  0.4110571E+03  0.7546771E-02  0.1040017E+00
         21   -1    0    0  502  501  0.00000000000E+00  0.00000000000E+00  0.12601737895E+03  0.12601737895E+03  0.00000000000E+00 0. -1.
         21   -1    0    0  501  502 -0.00000000000E+00 -0.00000000000E+00 -0.13408305683E+04  0.13408305683E+04  0.00000000000E+00 0. -1.
         25    1    1    2    0    0 -0.29425752632E+03 -0.13271683022E+03 -0.32840422903E+03  0.47715362983E+03  0.12500000000E+03 0.  0.
         25    1    1    2    0    0  0.21583736839E+03  0.73102053751E+02 -0.68725397113E+03  0.73476030152E+03  0.12500000000E+03 0.  0.
         25    1    1    2    0    0  0.78420157930E+02  0.59614776468E+02 -0.19915498919E+03  0.25493401590E+03  0.12500000000E+03 0.  0.
</event>
<event>
 5    0  0.5694627E-005  0.2543337E+03  0.7546771E-02  0.1110596E+00
         21   -1    0    0  502  501  0.00000000000E+00  0.00000000000E+00  0.58728015613E+03  0.58728015613E+03  0.00000000000E+00 0. -1.
         21   -1    0    0  501  502 -0.00000000000E+00 -0.00000000000E+00 -0.11014439417E+03  0.11014439417E+03  0.00000000000E+00 0. -1.
         25    1    1    2    0    0  0.31587104641E+02  0.17116948481E+02  0.14886827512E+03  0.19768029351E+03  0.12500000000E+03 0.  0.
         25    1    1    2    0    0 -0.15226327462E+02 -0.12361535494E+03  0.63069356580E+02  0.18739087695E+03  0.12500000000E+03 0.  0.
         25    1    1    2    0    0 -0.16360777179E+02  0.10649840646E+03  0.26519813025E+03  0.31235337984E+03  0.12500000000E+03 0.  0.
</event>
<event>
 5    0  0.5452999E-005  0.1929732E+03  0.7546771E-02  0.1155807E+00
         21   -1    0    0  502  501  0.00000000000E+00  0.00000000000E+00  0.37671370529E+03  0.37671370529E+03  0.00000000000E+00 0. -1.
         21   -1    0    0  501  502 -0.00000000000E+00 -0.00000000000E+00 -0.98851319129E+02  0.98851319129E+02  0.00000000000E+00 0. -1.
         25    1    1    2    0    0  0.95163980830E+01  0.41223886945E+02  0.88747052968E+02  0.15903147518E+03  0.12500000000E+03 0.  0.
         25    1    1    2    0    0 -0.10114107196E+02 -0.18204959991E+02  0.93751705826E+02  0.15763279506E+03  0.12500000000E+03 0.  0.
         25    1    1    2    0    0  0.59770911283E+00 -0.23018926954E+02  0.95363627361E+02  0.15890075418E+03  0.12500000000E+03 0.  0.
</event>
<event>
 5    0  0.5452999E-005  0.2654788E+03  0.7546771E-02  0.1103895E+00
         21   -1    0    0  502  501  0.00000000000E+00  0.00000000000E+00  0.91741179165E+03  0.91741179165E+03  0.00000000000E+00 0. -1.
         21   -1    0    0  501  502 -0.00000000000E+00 -0.00000000000E+00 -0.76823753016E+02  0.76823753016E+02  0.00000000000E+00 0. -1.
         25    1    1    2    0    0  0.16639362404E+02  0.11210879200E+02  0.43676894661E+02  0.13392245264E+03  0.12500000000E+03 0.  0.
         25    1    1    2    0    0 -0.16907999054E+02  0.72985934531E+02  0.21887780804E+03  0.26295498079E+03  0.12500000000E+03 0.  0.
         25    1    1    2    0    0  0.26863665052E+00 -0.84196813731E+02  0.57803333593E+03  0.59735811123E+03  0.12500000000E+03 0.  0.
</event>
<event>
 5    0  0.5452999E-005  0.2922084E+03  0.7546771E-02  0.1089202E+00
         21   -1    0    0  502  501  0.00000000000E+00  0.00000000000E+00  0.65728067393E+03  0.65728067393E+03  0.00000000000E+00 0.  1.
         21   -1    0    0  501  502 -0.00000000000E+00 -0.00000000000E+00 -0.12990760711E+03  0.12990760711E+03  0.00000000000E+00 0.  1.
         25    1    1    2    0    0 -0.27317347341E+02  0.14343415267E+03  0.16747260011E+03  0.25493462967E+03  0.12500000000E+03 0.  0.
         25    1    1    2    0    0  0.69642686236E+02  0.23105250036E+02  0.25950602282E+03  0.29724120207E+03  0.12500000000E+03 0.  0.
         25    1    1    2    0    0 -0.42325338895E+02 -0.16653940271E+03  0.10039444389E+03  0.23501244931E+03  0.12500000000E+03 0.  0.
</event>
<event>
 5    0  0.6535457E-005  0.2821279E+03  0.7546771E-02  0.1094532E+00
         21   -1    0    0  502  501  0.00000000000E+00  0.00000000000E+00  0.63580230259E+02  0.63580230259E+02  0.00000000000E+00 0. -1.
         21   -1    0    0  501  502 -0.00000000000E+00 -0.00000000000E+00 -0.12519012604E+04  0.12519012604E+04  0.00000000000E+00 0. -1.
         25    1    1    2    0    0  0.42206746300E+02  0.71071648033E+02 -0.14963056139E+03  0.21177085137E+03  0.12500000000E+03 0.  0.
         25    1    1    2    0    0  0.32671179592E+02  0.88118054795E+02 -0.47738414256E+03  0.50234730727E+03  0.12500000000E+03 0.  0.
         25    1    1    2    0    0 -0.74877925891E+02 -0.15918970283E+03 -0.56130632619E+03  0.60136333201E+03  0.12500000000E+03 0.  0.
</event>
<event>
 5    0  0.5452999E-005  0.3428943E+03  0.7546771E-02  0.1065570E+00
         21   -1    0    0  502  501  0.00000000000E+00  0.00000000000E+00  0.12492998233E+04  0.12492998233E+04  0.00000000000E+00 0. -1.
         21   -1    0    0  501  502 -0.00000000000E+00 -0.00000000000E+00 -0.94113928006E+02  0.94113928006E+02  0.00000000000E+00 0. -1.
         25    1    1    2    0    0 -0.19219014427E+03  0.71307203301E+02  0.40475460761E+03  0.47060924468E+03  0.12500000000E+03 0.  0.
         25    1    1    2    0    0  0.18439861916E+03 -0.17436976304E+03  0.45500688320E+03  0.53578347191E+03  0.12500000000E+03 0.  0.
         25    1    1    2    0    0  0.77915251105E+01  0.10306255973E+03  0.29542440451E+03  0.33702103475E+03  0.12500000000E+03 0.  0.
</event>
<event>
 5    0  0.5785354E-005  0.2360757E+03  0.7546771E-02  0.1122435E+00
         21   -1    0    0  502  501  0.00000000000E+00  0.00000000000E+00  0.41438402108E+03  0.41438402108E+03  0.00000000000E+00 0.  1.
         21   -1    0    0  501  502 -0.00000000000E+00 -0.00000000000E+00 -0.13449297003E+03  0.13449297003E+03  0.00000000000E+00 0.  1.
         25    1    1    2    0    0 -0.17923630092E+01  0.50436090820E+02  0.13145108053E+03  0.18828541737E+03  0.12500000000E+03 0.  0.
         25    1    1    2    0    0 -0.18418627145E+02  0.65638530147E+02  0.15185218598E+02  0.14318957130E+03  0.12500000000E+03 0.  0.
         25    1    1    2    0    0  0.20210990154E+02 -0.11607462097E+03  0.13325475192E+03  0.21740200244E+03  0.12500000000E+03 0.  0.
</event>
<event>
 5    0  0.5452999E-005  0.4083853E+03  0.7546771E-02  0.1040914E+00
         21   -1    0    0  502  501  0.00000000000E+00  0.00000000000E+00  0.68014749632E+03  0.68014749632E+03  0.00000000000E+00 0. -1.
         21   -1    0    0  501  502 -0.00000000000E+00 -0.00000000000E+00 -0.24520939457E+03  0.24520939457E+03  0.00000000000E+00 0. -1.
         25    1    1    2    0    0 -0.52035852514E+02  0.23947393879E+03  0.30928607328E+03  0.41393039564E+03  0.12500000000E+03 0.  0.
         25    1    1    2    0    0 -0.81136056602E+02 -0.59827706900E+02 -0.83232918817E+02  0.18087325111E+03  0.12500000000E+03 0.  0.
         25    1    1    2    0    0  0.13317190912E+03 -0.17964623189E+03  0.20888494728E+03  0.33055324414E+03  0.12500000000E+03 0.  0.
</event>
<event>
 5    0  0.5452999E-005  0.2600769E+03  0.7546771E-02  0.1107097E+00
         21   -1    0    0  502  501  0.00000000000E+00  0.00000000000E+00  0.14258390658E+04  0.14258390658E+04  0.00000000000E+00 0.  1.
         21   -1    0    0  501  502 -0.00000000000E+00 -0.00000000000E+00 -0.47438718476E+02  0.47438718476E+02  0.00000000000E+00 0.  1.
         25    1    1    2    0    0  0.86937889007E+02 -0.15356812670E+02  0.19972467246E+03  0.25161274417E+03  0.12500000000E+03 0.  0.
         25    1    1    2    0    0 -0.10098872911E+02 -0.42246905211E+02  0.80949740162E+03  0.82024254429E+03  0.12500000000E+03 0.  0.
         25    1    1    2    0    0 -0.76839016096E+02  0.57603717882E+02  0.36917827321E+03  0.40142249578E+03  0.12500000000E+03 0.  0.
</event>
<event>
 5    0  0.5452999E-005  0.2507310E+03  0.7546771E-02  0.1112844E+00
         21   -1    0    0  502  501  0.00000000000E+00  0.00000000000E+00  0.16279786626E+03  0.16279786626E+03  0.00000000000E+00 0.  1.
         21   -1    0    0  501  502 -0.00000000000E+00 -0.00000000000E+00 -0.38615992759E+03  0.38615992759E+03  0.00000000000E+00 0.  1.
         25    1    1    2    0    0 -0.21027209163E+02 -0.17162143766E+02 -0.17657276666E+03  0.21803583336E+03  0.12500000000E+03 0.  0.
         25    1    1    2    0    0  0.88026259417E+02 -0.46766979538E+02  0.20956362023E+02  0.16124497459E+03  0.12500000000E+03 0.  0.
         25    1    1    2    0    0 -0.66999050254E+02  0.63929123304E+02 -0.67745656693E+02  0.16967698589E+03  0.12500000000E+03 0.  0.
</event>
<event>
 5    0  0.5452999E-005  0.2592273E+03  0.7546771E-02  0.1107608E+00
         21   -1    0    0  502  501  0.00000000000E+00  0.00000000000E+00  0.66002922506E+03  0.66002922506E+03  0.00000000000E+00 0.  1.
         21   -1    0    0  501  502 -0.00000000000E+00 -0.00000000000E+00 -0.10181186987E+03  0.10181186987E+03  0.00000000000E+00 0.  1.
         25    1    1    2    0    0  0.95587939988E+01  0.50060596731E+01  0.85929892309E+02  0.15207030469E+03  0.12500000000E+03 0.  0.
         25    1    1    2    0    0 -0.88085263954E+02 -0.36747297174E+02  0.55997770861E+02  0.16694348719E+03  0.12500000000E+03 0.  0.
         25    1    1    2    0    0  0.78526469955E+02  0.31741237500E+02  0.41628969202E+03  0.44282730305E+03  0.12500000000E+03 0.  0.
</event>
<event>
 5    0  0.5452999E-005  0.2548957E+03  0.7546771E-02  0.1110249E+00
         21   -1    0    0  502  501  0.00000000000E+00  0.00000000000E+00  0.12114446225E+03  0.12114446225E+03  0.00000000000E+00 0.  1.
         21   -1    0    0  501  502 -0.00000000000E+00 -0.00000000000E+00 -0.53631669262E+03  0.53631669262E+03  0.00000000000E+00 0.  1.
         25    1    1    2    0    0 -0.87321269261E+02  0.34373877696E+01 -0.13618173840E+03  0.20446829968E+03  0.12500000000E+03 0.  0.
         25    1    1    2    0    0  0.10940775417E+01  0.10730632458E+03 -0.16507479338E+03  0.23321777743E+03  0.12500000000E+03 0.  0.
         25    1    1    2    0    0  0.86227191719E+02 -0.11074371235E+03 -0.11391569858E+03  0.21977507775E+03  0.12500000000E+03 0.  0.
</event>
<event>
 5    0  0.5452999E-005  0.3552975E+03  0.7546771E-02  0.1060461E+00
         21   -1    0    0  502  501  0.00000000000E+00  0.00000000000E+00  0.52201653384E+03  0.52201653384E+03  0.00000000000E+00 0. -1.
         21   -1    0    0  501  502 -0.00000000000E+00 -0.00000000000E+00 -0.24182435561E+03  0.24182435561E+03  0.00000000000E+00 0. -1.
         25    1    1    2    0    0  0.40132348364E+02 -0.22453569224E+03  0.10590705517E+03  0.28083480342E+03  0.12500000000E+03 0.  0.
         25    1    1    2    0    0  0.28631994607E+02  0.14648826439E+03  0.23875772526E+03  0.30807280648E+03  0.12500000000E+03 0.  0.
         25    1    1    2    0    0 -0.68764342972E+02  0.78047427848E+02 -0.64472602201E+02  0.17493327955E+03  0.12500000000E+03 0.  0.
</event>
<event>
 5    0  0.5452999E-005  0.2571142E+03  0.7546771E-02  0.1108890E+00
         21   -1    0    0  502  501  0.00000000000E+00  0.00000000000E+00  0.10089654407E+04  0.10089654407E+04  0.00000000000E+00 0. -1.
         21   -1    0    0  501  502 -0.00000000000E+00 -0.00000000000E+00 -0.65520283559E+02  0.65520283559E+02  0.00000000000E+00 0. -1.
         25    1    1    2    0    0 -0.76100565691E+01  0.36117993231E+02  0.31214968000E+03  0.33826741658E+03  0.12500000000E+03 0.  0.
         25    1    1    2    0    0 -0.73737735479E+02  0.16216767148E+01  0.83957842600E+02  0.16767171140E+03  0.12500000000E+03 0.  0.
         25    1    1    2    0    0  0.81347792048E+02 -0.37739669946E+02  0.54733763457E+03  0.56854659631E+03  0.12500000000E+03 0.  0.
</event>
<event>
 5    0  0.5452999E-005  0.2214066E+03  0.7546771E-02  0.1132839E+00
         21   -1    0    0  502  501  0.00000000000E+00  0.00000000000E+00  0.35374314305E+02  0.35374314305E+02  0.00000000000E+00 0.  1.
         21   -1    0    0  501  502 -0.00000000000E+00 -0.00000000000E+00 -0.13857756623E+04  0.13857756623E+04  0.00000000000E+00 0.  1.
         25    1    1    2    0    0 -0.17307750753E+02  0.39700694372E+02 -0.58578861842E+03  0.60054059716E+03  0.12500000000E+03 0.  0.
         25    1    1    2    0    0  0.31208815218E+02  0.52090028348E+02 -0.30058558723E+03  0.33115563781E+03  0.12500000000E+03 0.  0.
         25    1    1    2    0    0 -0.13901064465E+02 -0.91790722719E+02 -0.46402714236E+03  0.48945374166E+03  0.12500000000E+03 0.  0.
</event>
<event>
 5    0  0.5452999E-005  0.2338669E+03  0.7546771E-02  0.1123947E+00
         21   -1    0    0  502  501  0.00000000000E+00  0.00000000000E+00  0.96550444371E+02  0.96550444371E+02  0.00000000000E+00 0.  1.
         21   -1    0    0  501  502 -0.00000000000E+00 -0.00000000000E+00 -0.56647809607E+03  0.56647809607E+03  0.00000000000E+00 0.  1.
         25    1    1    2    0    0 -0.48233621661E+02 -0.31917812325E+02 -0.13814378133E+03  0.19507417390E+03  0.12500000000E+03 0.  0.
         25    1    1    2    0    0  0.58856209052E+02  0.10483506492E+03 -0.11872895354E+03  0.21018089492E+03  0.12500000000E+03 0.  0.
         25    1    1    2    0    0 -0.10622587391E+02 -0.72917252592E+02 -0.21305491683E+03  0.25777347163E+03  0.12500000000E+03 0.  0.
</event>
<event>
 5    0  0.5452999E-005  0.3665508E+03  0.7546771E-02  0.1056020E+00
         21   -1    0    0  502  501  0.00000000000E+00  0.00000000000E+00  0.79893692140E+03  0.79893692140E+03  0.00000000000E+00 0. -1.
         21   -1    0    0  501  502 -0.00000000000E+00 -0.00000000000E+00 -0.16817286233E+03  0.16817286233E+03  0.00000000000E+00 0. -1.
         25    1    1    2    0    0  0.28246624337E+02 -0.31941323053E+02  0.51427553613E+03  0.53096369646E+03  0.12500000000E+03 0.  0.
         25    1    1    2    0    0  0.60087207274E+02 -0.30811339055E+02  0.20431134263E+03  0.24885324153E+03  0.12500000000E+03 0.  0.
         25    1    1    2    0    0 -0.88333831612E+02  0.62752662108E+02 -0.87822819683E+02  0.18729284574E+03  0.12500000000E+03 0.  0.
</event>
<event>
 5    0  0.5452999E-005  0.3081156E+03  0.7546771E-02  0.1081253E+00
         21   -1    0    0  502  501  0.00000000000E+00  0.00000000000E+00  0.39656022875E+03  0.39656022875E+03  0.00000000000E+00 0. -1.
         21   -1    0    0  501  502 -0.00000000000E+00 -0.00000000000E+00 -0.23939669133E+03  0.23939669133E+03  0.00000000000E+00 0. -1.
         25    1    1    2    0    0  0.10005797150E+03  0.41899916515E+02  0.10425406402E+03  0.19560447472E+03  0.12500000000E+03 0.  0.
         25    1    1    2    0    0  0.12186481689E+02 -0.34043635678E+02 -0.13545540124E+03  0.18783142759E+03  0.12500000000E+03 0.  0.
         25    1    1    2    0    0 -0.11224445319E+03 -0.78562808366E+01  0.18836487463E+03  0.25252101777E+03  0.12500000000E+03 0.  0.
</event>
<event>
 5    0  0.5452999E-005  0.2449271E+03  0.7546771E-02  0.1116553E+00
         21   -1    0    0  502  501  0.00000000000E+00  0.00000000000E+00  0.12027155346E+04  0.12027155346E+04  0.00000000000E+00 0. -1.
         21   -1    0    0  501  502 -0.00000000000E+00 -0.00000000000E+00 -0.49878184307E+02  0.49878184307E+02  0.00000000000E+00 0. -1.
         25    1    1    2    0    0  0.76801625876E+01 -0.38223444200E+02  0.13693300127E+03  0.18946150908E+03  0.12500000000E+03 0.  0.
         25    1    1    2    0    0  0.14742560395E+02 -0.83307953031E+01  0.78862630583E+03  0.79865085957E+03  0.12500000000E+03 0.  0.
         25    1    1    2    0    0 -0.22422722983E+02  0.46554239503E+02  0.22727804319E+03  0.26448135026E+03  0.12500000000E+03 0.  0.
</event>
<event>
 5    0  0.5452999E-005  0.2332624E+03  0.7546771E-02  0.1124364E+00
         21   -1    0    0  502  501  0.00000000000E+00  0.00000000000E+00  0.17634191320E+03  0.17634191320E+03  0.00000000000E+00 0. -1.
         21   -1    0    0  501  502 -0.00000000000E+00 -0.00000000000E+00 -0.30855596645E+03  0.30855596645E+03  0.00000000000E+00 0. -1.
         25    1    1    2    0    0 -0.49022080086E+02  0.21852200297E+02 -0.23792562886E+02  0.13810057582E+03  0.12500000000E+03 0.  0.
         25    1    1    2    0    0 -0.98555667004E+01  0.57306509724E+02  0.23696614284E+02  0.13988458736E+03  0.12500000000E+03 0.  0.
         25    1    1    2    0    0  0.58877646787E+02 -0.79158710021E+02 -0.13211810464E+03  0.20691271647E+03  0.12500000000E+03 0.  0.
</event>
<event>
 5    0  0.5452999E-005  0.2737793E+03  0.7546771E-02  0.1099136E+00
         21   -1    0    0  502  501  0.00000000000E+00  0.00000000000E+00  0.37823345412E+03  0.37823345412E+03  0.00000000000E+00 0.  1.
         21   -1    0    0  501  502 -0.00000000000E+00 -0.00000000000E+00 -0.19817148906E+03  0.19817148906E+03  0.00000000000E+00 0.  1.
         25    1    1    2    0    0 -0.11776396616E+03 -0.67656868918E+01  0.11473543239E+02  0.17225204916E+03  0.12500000000E+03 0.  0.
         25    1    1    2    0    0  0.22344810040E+02  0.97701742626E+02  0.59508078656E+01  0.16032882823E+03  0.12500000000E+03 0.  0.
         25    1    1    2    0    0  0.95419156117E+02 -0.90936055735E+02  0.16263761395E+03  0.24382406579E+03  0.12500000000E+03 0.  0.
</event>
<event>
 5    0  0.5452999E-005  0.2526116E+03  0.7546771E-02  0.1111665E+00
         21   -1    0    0  502  501  0.00000000000E+00  0.00000000000E+00  0.26268188845E+02  0.26268188845E+02  0.00000000000E+00 0. -1.
         21   -1    0    0  501  502 -0.00000000000E+00 -0.00000000000E+00 -0.24292735321E+04  0.24292735321E+04  0.00000000000E+00 0. -1.
         25    1    1    2    0    0 -0.57246908862E+01 -0.21607116081E+02 -0.13708093011E+04  0.13766781685E+04  0.12500000000E+03 0.  0.
         25    1    1    2    0    0  0.38703153687E+02 -0.75191353634E+02 -0.44692346018E+03  0.47171734442E+03  0.12500000000E+03 0.  0.
         25    1    1    2    0    0 -0.32978462800E+02  0.96798469715E+02 -0.58527258197E+03  0.60714620805E+03  0.12500000000E+03 0.  0.
</event>
<event>
 5    0  0.5452999E-005  0.2675255E+03  0.7546771E-02  0.1102704E+00
         21   -1    0    0  502  501  0.00000000000E+00  0.00000000000E+00  0.17827100946E+03  0.17827100946E+03  0.00000000000E+00 0.  1.
         21   -1    0    0  501  502 -0.00000000000E+00 -0.00000000000E+00 -0.40146674555E+03  0.40146674555E+03  0.00000000000E+00 0.  1.
         25    1    1    2    0    0  0.24516661791E+02 -0.98760238556E+02 -0.23442400151E+03  0.28448947944E+03  0.12500000000E+03 0.  0.
         25    1    1    2    0    0 -0.56017124127E+02  0.90719353230E+02 -0.88740571895E+01  0.16453470192E+03  0.12500000000E+03 0.  0.
         25    1    1    2    0    0  0.31500462336E+02  0.80408853262E+01  0.20102322611E+02  0.13071357366E+03  0.12500000000E+03 0.  0.
</event>
<event>
 5    0  0.5452999E-005  0.3406125E+03  0.7546771E-02  0.1066535E+00
         21   -1    0    0  502  501  0.00000000000E+00  0.00000000000E+00  0.10865375211E+04  0.10865375211E+04  0.00000000000E+00 0. -1.
         21   -1    0    0  501  502 -0.00000000000E+00 -0.00000000000E+00 -0.10677668012E+03  0.10677668012E+03  0.00000000000E+00 0. -1.
         25    1    1    2    0    0  0.10759693123E+03 -0.12712655892E+03  0.41155678329E+03  0.46123990229E+03  0.12500000000E+03 0.  0.
         25    1    1    2    0    0 -0.16401342078E+03  0.18475515766E+03  0.22071644756E+03  0.35408420001E+03  0.12500000000E+03 0.  0.
         25    1    1    2    0    0  0.56416489556E+02 -0.57628598732E+02  0.34748761011E+03  0.37799009890E+03  0.12500000000E+03 0.  0.
</event>
<event>
 5    0  0.5452999E-005  0.4187300E+03  0.7546771E-02  0.1037480E+00
         21   -1    0    0  502  501  0.00000000000E+00  0.00000000000E+00  0.46559987997E+03  0.46559987997E+03  0.00000000000E+00 0.  1.
         21   -1    0    0  501  502 -0.00000000000E+00 -0.00000000000E+00 -0.37657836688E+03  0.37657836688E+03  0.00000000000E+00 0.  1.
         25    1    1    2    0    0 -0.18450493637E+03 -0.12733637333E+03  0.10676180855E+02  0.25689609642E+03  0.12500000000E+03 0.  0.
         25    1    1    2    0    0  0.27113418686E+03  0.15548115853E+03 -0.98120716855E+02  0.35062916738E+03  0.12500000000E+03 0.  0.
         25    1    1    2    0    0 -0.86629250489E+02 -0.28144785208E+02  0.17646604909E+03  0.23465298306E+03  0.12500000000E+03 0.  0.
</event>
<event>
 5    0  0.5452999E-005  0.2327813E+03  0.7546771E-02  0.1124697E+00
         21   -1    0    0  502  501  0.00000000000E+00  0.00000000000E+00  0.46788113331E+03  0.46788113331E+03  0.00000000000E+00 0.  1.
         21   -1    0    0  501  502 -0.00000000000E+00 -0.00000000000E+00 -0.11581388408E+03  0.11581388408E+03  0.00000000000E+00 0.  1.
         25    1    1    2    0    0  0.74744168636E+02  0.54834686432E+02  0.70672251969E+02  0.17091840386E+03  0.12500000000E+03 0.  0.
         25    1    1    2    0    0  0.32597231974E+02 -0.28035818353E+02  0.96425375221E+02  0.16361980207E+03  0.12500000000E+03 0.  0.
         25    1    1    2    0    0 -0.10734140061E+03 -0.26798868079E+02  0.18496962204E+03  0.24915681145E+03  0.12500000000E+03 0.  0.
</event>
<event>
 5    0  0.5452999E-005  0.3505045E+03  0.7546771E-02  0.1062408E+00
         21   -1    0    0  502  501  0.00000000000E+00  0.00000000000E+00  0.31550540659E+03  0.31550540659E+03  0.00000000000E+00 0.  1.
         21   -1    0    0  501  502 -0.00000000000E+00 -0.00000000000E+00 -0.38938602509E+03  0.38938602509E+03  0.00000000000E+00 0.  1.
         25    1    1    2    0    0  0.13361507374E+02 -0.16673907211E+03  0.15711797740E+03  0.26132643737E+03  0.12500000000E+03 0.  0.
         25    1    1    2    0    0  0.41841892520E+02  0.74284465443E+02 -0.23387716310E+03  0.27855421949E+03  0.12500000000E+03 0.  0.
         25    1    1    2    0    0 -0.55203399895E+02  0.92454606670E+02  0.28785672051E+01  0.16501077481E+03  0.12500000000E+03 0.  0.
</event>
<event>
 5    0  0.5452999E-005  0.3087813E+03  0.7546771E-02  0.1080932E+00
         21   -1    0    0  502  501  0.00000000000E+00  0.00000000000E+00  0.24868498787E+03  0.24868498787E+03  0.00000000000E+00 0.  1.
         21   -1    0    0  501  502 -0.00000000000E+00 -0.00000000000E+00 -0.38340021407E+03  0.38340021407E+03  0.00000000000E+00 0.  1.
         25    1    1    2    0    0 -0.32487556575E+02 -0.58328224376E+02  0.14896410881E+03  0.20560381515E+03  0.12500000000E+03 0.  0.
         25    1    1    2    0    0 -0.45140005045E+02 -0.35404105784E+02 -0.83294358645E+02  0.16079185596E+03  0.12500000000E+03 0.  0.
         25    1    1    2    0    0  0.77627561620E+02  0.93732330160E+02 -0.20038497637E+03  0.26568953083E+03  0.12500000000E+03 0.  0.
</event>
<event>
 5    0  0.5452999E-005  0.2200195E+03  0.7546771E-02  0.1133868E+00
         21   -1    0    0  502  501  0.00000000000E+00  0.00000000000E+00  0.83581890366E+03  0.83581890366E+03  0.00000000000E+00 0.  1.
         21   -1    0    0  501  502 -0.00000000000E+00 -0.00000000000E+00 -0.57917565059E+02  0.57917565059E+02  0.00000000000E+00 0.  1.
         25    1    1    2    0    0 -0.86165841040E+01 -0.72385879098E+02  0.22835028406E+03  0.27033833107E+03  0.12500000000E+03 0.  0.
         25    1    1    2    0    0 -0.60449296057E+02  0.31298937396E+02  0.22194076360E+03  0.26365971142E+03  0.12500000000E+03 0.  0.
         25    1    1    2    0    0  0.69065880161E+02  0.41086941701E+02  0.32761029093E+03  0.35973842623E+03  0.12500000000E+03 0.  0.
</event>
<event>
 5    0  0.5452999E-005  0.2063214E+03  0.7546771E-02  0.1144513E+00
         21   -1    0    0  502  501  0.00000000000E+00  0.00000000000E+00  0.28274936242E+03  0.28274936242E+03  0.00000000000E+00 0.  1.
         21   -1    0    0  501  502 -0.00000000000E+00 -0.00000000000E+00 -0.15055211656E+03  0.15055211656E+03  0.00000000000E+00 0.  1.
         25    1    1    2    0    0  0.16518752131E+02 -0.19671283491E+02  0.35909528576E+01  0.12766253761E+03  0.12500000000E+03 0.  0.
         25    1    1    2    0    0 -0.14357138184E+02 -0.21717849873E+02  0.11743262017E+03  0.17347395395E+03  0.12500000000E+03 0.  0.
         25    1    1    2    0    0 -0.21616139468E+01  0.41389133364E+02  0.11173672827E+02  0.13216498742E+03  0.12500000000E+03 0.  0.
</event>
<event>
 5    0  0.5452999E-005  0.2879549E+03  0.7546771E-02  0.1091422E+00
         21   -1    0    0  502  501  0.00000000000E+00  0.00000000000E+00  0.10026359476E+03  0.10026359476E+03  0.00000000000E+00 0. -1.
         21   -1    0    0  501  502 -0.00000000000E+00 -0.00000000000E+00 -0.82700036807E+03  0.82700036807E+03  0.00000000000E+00 0. -1.
         25    1    1    2    0    0  0.96025239757E+02 -0.73999466098E+02 -0.40061470717E+03  0.43682251688E+03  0.12500000000E+03 0.  0.
         25    1    1    2    0    0 -0.95444256202E+02  0.15217328275E+03 -0.19185885114E+03  0.29103459036E+03  0.12500000000E+03 0.  0.
         25    1    1    2    0    0 -0.58098355489E+00 -0.78173816654E+02 -0.13426321501E+03  0.19940685559E+03  0.12500000000E+03 0.  0.
</event>
<event>
 5    0  0.5452999E-005  0.3188952E+03  0.7546771E-02  0.1076159E+00
         21   -1    0    0  502  501  0.00000000000E+00  0.00000000000E+00  0.40436473027E+03  0.40436473027E+03  0.00000000000E+00 0. -1.
         21   -1    0    0  501  502 -0.00000000000E+00 -0.00000000000E+00 -0.25149111945E+03  0.25149111945E+03  0.00000000000E+00 0. -1.
         25    1    1    2    0    0 -0.14970105935E+03 -0.10243760543E+03  0.15461161900E+03  0.26913495297E+03  0.12500000000E+03 0.  0.
         25    1    1    2    0    0  0.26880524678E+02  0.92913480220E+02  0.96908315652E+02  0.18539605998E+03  0.12500000000E+03 0.  0.
         25    1    1    2    0    0  0.12282053467E+03  0.95241252138E+01 -0.98646323825E+02  0.20132483678E+03  0.12500000000E+03 0.  0.
</event>
<event>
 5    0  0.5452999E-005  0.3622211E+03  0.7546771E-02  0.1057708E+00
         21   -1    0    0  502  501  0.00000000000E+00  0.00000000000E+00  0.43694423808E+03  0.43694423808E+03  0.00000000000E+00 0. -1.
         21   -1    0    0  501  502 -0.00000000000E+00 -0.00000000000E+00 -0.30027664443E+03  0.30027664443E+03  0.00000000000E+00 0. -1.
         25    1    1    2    0    0  0.12325748494E+03  0.18744219334E+03 -0.49801219644E+02  0.26159538397E+03  0.12500000000E+03 0.  0.
         25    1    1    2    0    0 -0.20151017127E+03 -0.16362679033E+03  0.12648028202E+03  0.31464636876E+03  0.12500000000E+03 0.  0.
         25    1    1    2    0    0  0.78252686329E+02 -0.23815403011E+02  0.59988531279E+02  0.16097912978E+03  0.12500000000E+03 0.  0.
</event>
<event>
 5    0  0.5452999E-005  0.2800123E+03  0.7546771E-02  0.1095682E+00
         21   -1    0    0  502  501  0.00000000000E+00  0.00000000000E+00  0.11316745004E+03  0.11316745004E+03  0.00000000000E+00 0. -1.
         21   -1    0    0  501  502 -0.00000000000E+00 -0.00000000000E+00 -0.69283935704E+03  0.69283935704E+03  0.00000000000E+00 0. -1.
         25    1    1    2    0    0 -0.12110328340E+03 -0.94577048959E+02 -0.14785363613E+03  0.24717710484E+03  0.12500000000E+03 0.  0.
         25    1    1    2    0    0  0.74302157585E+02 -0.35532991736E+02 -0.28361116350E+03  0.32069252592E+03  0.12500000000E+03 0.  0.
         25    1    1    2    0    0  0.46801125819E+02  0.13011004069E+03 -0.14820710737E+03  0.23813717631E+03  0.12500000000E+03 0.  0.
</event>
<event>
 5    0  0.5452999E-005  0.3369056E+03  0.7546771E-02  0.1068122E+00
         21   -1    0    0  502  501  0.00000000000E+00  0.00000000000E+00  0.76056137052E+02  0.76056137052E+02  0.00000000000E+00 0.  1.
         21   -1    0    0  501  502 -0.00000000000E+00 -0.00000000000E+00 -0.14923892769E+04  0.14923892769E+04  0.00000000000E+00 0.  1.
         25    1    1    2    0    0  0.44690194018E+02  0.47702407710E+02 -0.48841877470E+03  0.50838040149E+03  0.12500000000E+03 0.  0.
         25    1    1    2    0    0  0.15156333398E+03 -0.99207417364E+02 -0.21222726132E+03  0.30574330134E+03  0.12500000000E+03 0.  0.
         25    1    1    2    0    0 -0.19625352800E+03  0.51505009653E+02 -0.71568710379E+03  0.75432171108E+03  0.12500000000E+03 0.  0.
</event>
<event>
 5    0  0.5452999E-005  0.2264538E+03  0.7546771E-02  0.1129161E+00
         21   -1    0    0  502  501  0.00000000000E+00  0.00000000000E+00  0.46819972131E+03  0.46819972131E+03  0.00000000000E+00 0. -1.
         21   -1    0    0  501  502 -0.00000000000E+00 -0.00000000000E+00 -0.10952875031E+03  0.10952875031E+03  0.00000000000E+00 0. -1.
         25    1    1    2    0    0 -0.55293979649E+02  0.80338131772E+02  0.12173790901E+03  0.19989186600E+03  0.12500000000E+03 0.  0.
         25    1    1    2    0    0  0.16124528133E+02 -0.98243387365E+01  0.17686714001E+03  0.21740170941E+03  0.12500000000E+03 0.  0.
         25    1    1    2    0    0  0.39169451516E+02 -0.70513793036E+02  0.60065921982E+02  0.16043489622E+03  0.12500000000E+03 0.  0.
</event>
<event>
 5    0  0.5742673E-005  0.2806503E+03  0.7546771E-02  0.1095334E+00
         21   -1    0    0  502  501  0.00000000000E+00  0.00000000000E+00  0.86600856314E+03  0.86600856314E+03  0.00000000000E+00 0. -1.
         21   -1    0    0  501  502 -0.00000000000E+00 -0.00000000000E+00 -0.90951309774E+02  0.90951309774E+02  0.00000000000E+00 0. -1.
         25    1    1    2    0    0  0.76145235391E+02  0.92395729864E+02  0.18285196103E+03  0.25178345344E+03  0.12500000000E+03 0.  0.
         25    1    1    2    0    0 -0.10228235906E+01  0.42076183021E+02  0.42736447842E+03  0.44725479177E+03  0.12500000000E+03 0.  0.
         25    1    1    2    0    0 -0.75122411800E+02 -0.13447191289E+03  0.16484081392E+03  0.25792162771E+03  0.12500000000E+03 0.  0.
</event>
<event>
 5    0  0.5452999E-005  0.2835749E+03  0.7546771E-02  0.1093752E+00
         21   -1    0    0  502  501  0.00000000000E+00  0.00000000000E+00  0.19915364906E+03  0.19915364906E+03  0.00000000000E+00 0. -1.
         21   -1    0    0  501  502 -0.00000000000E+00 -0.00000000000E+00 -0.40378244662E+03  0.40378244662E+03  0.00000000000E+00 0.  1.
         25    1    1    2    0    0  0.16348798626E+03 -0.23641030369E+02 -0.82280931638E+02  0.22289542768E+03  0.12500000000E+03 0.  0.
         25    1    1    2    0    0 -0.12498708065E+03  0.64193499715E+01  0.29023344997E+02  0.17924935966E+03  0.12500000000E+03 0.  0.
         25    1    1    2    0    0 -0.38500905608E+02  0.17221680398E+02 -0.15137121092E+03  0.20079130834E+03  0.12500000000E+03 0.  0.
</event>
<event>
 5    0  0.5452999E-005  0.3440104E+03  0.7546771E-02  0.1065101E+00
         21   -1    0    0  502  501  0.00000000000E+00  0.00000000000E+00  0.59190582762E+03  0.59190582762E+03  0.00000000000E+00 0. -1.
         21   -1    0    0  501  502 -0.00000000000E+00 -0.00000000000E+00 -0.19993578977E+03  0.19993578977E+03  0.00000000000E+00 0. -1.
         25    1    1    2    0    0 -0.11264000143E+03  0.19880012970E+03  0.94940226340E+02  0.27721455241E+03  0.12500000000E+03 0.  0.
         25    1    1    2    0    0  0.60592335434E+01 -0.24162981569E+01  0.20950792083E+03  0.24405147346E+03  0.12500000000E+03 0.  0.
         25    1    1    2    0    0  0.10658076789E+03 -0.19638383155E+03  0.87521890678E+02  0.27057559152E+03  0.12500000000E+03 0.  0.
</event>
<event>
 5    0  0.5786575E-005  0.2794537E+03  0.7546771E-02  0.1095988E+00
         21   -1    0    0  502  501  0.00000000000E+00  0.00000000000E+00  0.51497385978E+03  0.51497385978E+03  0.00000000000E+00 0.  1.
         21   -1    0    0  501  502 -0.00000000000E+00 -0.00000000000E+00 -0.15164721279E+03  0.15164721279E+03  0.00000000000E+00 0.  1.
         25    1    1    2    0    0 -0.79918444131E+02  0.28678084674E+02  0.12515096504E+03  0.19620691706E+03  0.12500000000E+03 0.  0.
         25    1    1    2    0    0 -0.53970820469E+02  0.95068993420E+02  0.17334264056E+03  0.24004923247E+03  0.12500000000E+03 0.  0.
         25    1    1    2    0    0  0.13388926460E+03 -0.12374707809E+03  0.64833041403E+02  0.23036492304E+03  0.12500000000E+03 0.  0.
</event>
<event>
 5    0  0.5452999E-005  0.3390709E+03  0.7546771E-02  0.1067192E+00
         21   -1    0    0  502  501  0.00000000000E+00  0.00000000000E+00  0.12043331240E+04  0.12043331240E+04  0.00000000000E+00 0. -1.
         21   -1    0    0  501  502 -0.00000000000E+00 -0.00000000000E+00 -0.95462878677E+02  0.95462878677E+02  0.00000000000E+00 0. -1.
         25    1    1    2    0    0 -0.48301388453E+02 -0.13770251323E+03  0.29399975651E+03  0.35122053343E+03  0.12500000000E+03 0.  0.
         25    1    1    2    0    0  0.10088581436E+03 -0.10264617619E+03  0.20936951929E+03  0.28315151533E+03  0.12500000000E+03 0.  0.
         25    1    1    2    0    0 -0.52584425908E+02  0.24034868942E+03  0.60550096956E+03  0.66542395395E+03  0.12500000000E+03 0.  0.
</event>
<event>
 5    0  0.5452999E-005  0.2678749E+03  0.7546771E-02  0.1102502E+00
         21   -1    0    0  502  501  0.00000000000E+00  0.00000000000E+00  0.12422137120E+04  0.12422137120E+04  0.00000000000E+00 0. -1.
         21   -1    0    0  501  502 -0.00000000000E+00 -0.00000000000E+00 -0.57765396845E+02  0.57765396845E+02  0.00000000000E+00 0. -1.
         25    1    1    2    0    0  0.57456196157E+02  0.17069869957E+02  0.72761714118E+03  0.74070527140E+03  0.12500000000E+03 0.  0.
         25    1    1    2    0    0  0.18931054504E+02 -0.17591073623E-01  0.36321565008E+03  0.38458938310E+03  0.12500000000E+03 0.  0.
         25    1    1    2    0    0 -0.76387250661E+02 -0.17052278884E+02  0.93615523920E+02  0.17468445437E+03  0.12500000000E+03 0.  0.
</event>
<event>
 5    0  0.5452999E-005  0.8593962E+03  0.7546771E-02  0.9477812E-01
         21   -1    0    0  502  501  0.00000000000E+00  0.00000000000E+00  0.32102722663E+03  0.32102722663E+03  0.00000000000E+00 0. -1.
         21   -1    0    0  501  502 -0.00000000000E+00 -0.00000000000E+00 -0.23006207586E+04  0.23006207586E+04  0.00000000000E+00 0. -1.
         25    1    1    2    0    0 -0.40486520299E+03 -0.55619518743E+03 -0.27290554732E+03  0.75058067979E+03  0.12500000000E+03 0.  0.
         25    1    1    2    0    0  0.11697203215E+03  0.17579641044E+03 -0.82626499674E+03  0.86193136564E+03  0.12500000000E+03 0.  0.
         25    1    1    2    0    0  0.28789317084E+03  0.38039877699E+03 -0.88042298788E+03  0.10091359398E+04  0.12500000000E+03 0.  0.
</event>
<event>
 5    0  0.5452999E-005  0.2736413E+03  0.7546771E-02  0.1099214E+00
         21   -1    0    0  502  501  0.00000000000E+00  0.00000000000E+00  0.41642001166E+03  0.41642001166E+03  0.00000000000E+00 0.  1.
         21   -1    0    0  501  502 -0.00000000000E+00 -0.00000000000E+00 -0.17981735452E+03  0.17981735452E+03  0.00000000000E+00 0.  1.
         25    1    1    2    0    0 -0.38610432942E+01  0.45000769995E+02  0.67724420241E+02  0.14916961504E+03  0.12500000000E+03 0.  0.
         25    1    1    2    0    0 -0.10683300117E+03 -0.68143125323E+02  0.20826491189E+03  0.27396359100E+03  0.12500000000E+03 0.  0.
         25    1    1    2    0    0  0.11069404447E+03  0.23142355328E+02 -0.39386674992E+02  0.17310416014E+03  0.12500000000E+03 0.  0.
</event>
<event>
 5    0  0.5452999E-005  0.4455938E+03  0.7546771E-02  0.1029044E+00
         21   -1    0    0  502  501  0.00000000000E+00  0.00000000000E+00  0.27922493091E+03  0.27922493091E+03  0.00000000000E+00 0. -1.
         21   -1    0    0  501  502 -0.00000000000E+00 -0.00000000000E+00 -0.71108906644E+03  0.71108906644E+03  0.00000000000E+00 0. -1.
         25    1    1    2    0    0 -0.16728355942E+03  0.68078176651E+02 -0.76532653934E+02  0.23259551695E+03  0.12500000000E+03 0.  0.
         25    1    1    2    0    0 -0.73532947146E+02 -0.83929727419E+02  0.12279822951E+03  0.20773949704E+03  0.12500000000E+03 0.  0.
         25    1    1    2    0    0  0.24081650657E+03  0.15851550768E+02 -0.47812971110E+03  0.54997898335E+03  0.12500000000E+03 0.  0.
</event>
<event>
 5    0  0.5452999E-005  0.5465695E+03  0.7546771E-02  0.1002291E+00
         21   -1    0    0  502  501  0.00000000000E+00  0.00000000000E+00  0.14676484087E+03  0.14676484087E+03  0.00000000000E+00 0. -1.
         21   -1    0    0  501  502 -0.00000000000E+00 -0.00000000000E+00 -0.20354888503E+04  0.20354888503E+04  0.00000000000E+00 0. -1.
         25    1    1    2    0    0 -0.18763583315E+03 -0.10324878244E+03 -0.64853882221E+03  0.69433069993E+03  0.12500000000E+03 0.  0.
         25    1    1    2    0    0  0.18224892566E+03 -0.25377847236E+03 -0.22570559618E+03  0.40519896359E+03  0.12500000000E+03 0.  0.
         25    1    1    2    0    0  0.53869074860E+01  0.35702725480E+03 -0.10144795910E+04  0.10827240277E+04  0.12500000000E+03 0.  0.
</event>
<event>
 5    0  0.5452999E-005  0.3076780E+03  0.7546771E-02  0.1081464E+00
         21   -1    0    0  502  501  0.00000000000E+00  0.00000000000E+00  0.45253755386E+03  0.45253755386E+03  0.00000000000E+00 0.  1.
         21   -1    0    0  501  502 -0.00000000000E+00 -0.00000000000E+00 -0.20918872524E+03  0.20918872524E+03  0.00000000000E+00 0.  1.
         25    1    1    2    0    0 -0.14982474177E+03 -0.28350118931E+02  0.10350679579E+03  0.22268776182E+03  0.12500000000E+03 0.  0.
         25    1    1    2    0    0  0.17329018275E+03 -0.40233453501E+01  0.20178292837E+03  0.29391669725E+03  0.12500000000E+03 0.  0.
         25    1    1    2    0    0 -0.23465440981E+02  0.32373464281E+02 -0.61940895533E+02  0.14512182003E+03  0.12500000000E+03 0.  0.
</event>
<event>
 5    0  0.5452999E-005  0.2136677E+03  0.7546771E-02  0.1138694E+00
         21   -1    0    0  502  501  0.00000000000E+00  0.00000000000E+00  0.44722892528E+02  0.44722892528E+02  0.00000000000E+00 0.  1.
         21   -1    0    0  501  502 -0.00000000000E+00 -0.00000000000E+00 -0.10208167527E+04  0.10208167527E+04  0.00000000000E+00 0.  1.
         25    1    1    2    0    0 -0.60423829787E+02 -0.44702741579E+02 -0.26922758315E+03  0.30619906244E+03  0.12500000000E+03 0.  0.
         25    1    1    2    0    0  0.75291514973E+01  0.30562161384E+02 -0.45468258249E+03  0.47260129565E+03  0.12500000000E+03 0.  0.
         25    1    1    2    0    0  0.52894678290E+02  0.14140580196E+02 -0.25218369452E+03  0.28673928712E+03  0.12500000000E+03 0.  0.
</event>
<event>
 5    0  0.5452999E-005  0.3120743E+03  0.7546771E-02  0.1079356E+00
         21   -1    0    0  502  501  0.00000000000E+00  0.00000000000E+00  0.74425676570E+03  0.74425676570E+03  0.00000000000E+00 0. -1.
         21   -1    0    0  501  502 -0.00000000000E+00 -0.00000000000E+00 -0.13085588690E+03  0.13085588690E+03  0.00000000000E+00 0. -1.
         25    1    1    2    0    0  0.29977225557E+02 -0.43294395485E+02  0.37302527451E+02  0.14067521916E+03  0.12500000000E+03 0.  0.
         25    1    1    2    0    0 -0.79711987883E+01 -0.16656977952E+03  0.29791734145E+03  0.36357774106E+03  0.12500000000E+03 0.  0.
         25    1    1    2    0    0 -0.22006026769E+02  0.20986417501E+03  0.27818100990E+03  0.37085969238E+03  0.12500000000E+03 0.  0.
</event>
<event>
 5    0  0.5452999E-005  0.3123059E+03  0.7546771E-02  0.1079246E+00
         21   -1    0    0  502  501  0.00000000000E+00  0.00000000000E+00  0.14334113369E+03  0.14334113369E+03  0.00000000000E+00 0. -1.
         21   -1    0    0  501  502 -0.00000000000E+00 -0.00000000000E+00 -0.68043940987E+03  0.68043940987E+03  0.00000000000E+00 0. -1.
         25    1    1    2    0    0 -0.72333867498E+02  0.97380969501E+02 -0.33801260378E+02  0.17743383784E+03  0.12500000000E+03 0.  0.
         25    1    1    2    0    0 -0.39350281190E+02 -0.64012424656E+01 -0.41672997741E+03  0.43689620576E+03  0.12500000000E+03 0.  0.
         25    1    1    2    0    0  0.11168414869E+03 -0.90979727035E+02 -0.86567038387E+02  0.20945049996E+03  0.12500000000E+03 0.  0.
</event>
<event>
 5    0  0.5452999E-005  0.2421955E+03  0.7546771E-02  0.1118339E+00
         21   -1    0    0  502  501  0.00000000000E+00  0.00000000000E+00  0.24206562184E+03  0.24206562184E+03  0.00000000000E+00 0. -1.
         21   -1    0    0  501  502 -0.00000000000E+00 -0.00000000000E+00 -0.24232543345E+03  0.24232543345E+03  0.00000000000E+00 0. -1.
         25    1    1    2    0    0  0.40786027255E+02  0.11197569005E+02 -0.11269817961E+03  0.17353606328E+03  0.12500000000E+03 0.  0.
         25    1    1    2    0    0 -0.27304667775E+02  0.10571999399E+01  0.13106800620E+03  0.18316791423E+03  0.12500000000E+03 0.  0.
         25    1    1    2    0    0 -0.13481359480E+02 -0.12254768945E+02 -0.18629638195E+02  0.12768707779E+03  0.12500000000E+03 0.  0.
</event>
<event>
 5    0  0.5452999E-005  0.2774790E+03  0.7546771E-02  0.1097074E+00
         21   -1    0    0  502  501  0.00000000000E+00  0.00000000000E+00  0.83577078106E+02  0.83577078106E+02  0.00000000000E+00 0. -1.
         21   -1    0    0  501  502 -0.00000000000E+00 -0.00000000000E+00 -0.92124073061E+03  0.92124073061E+03  0.00000000000E+00 0. -1.
         25    1    1    2    0    0  0.34969504833E+02  0.12051033913E+03 -0.99934401763E+02  0.20336541683E+03  0.12500000000E+03 0.  0.
         25    1    1    2    0    0 -0.73692701778E+01 -0.60348005023E+02 -0.54465146907E+03  0.56210889569E+03  0.12500000000E+03 0.  0.
         25    1    1    2    0    0 -0.27600234655E+02 -0.60162334105E+02 -0.19307778167E+03  0.23934349620E+03  0.12500000000E+03 0.  0.
</event>
<event>
 5    0  0.5452999E-005  0.2486396E+03  0.7546771E-02  0.1114168E+00
         21   -1    0    0  502  501  0.00000000000E+00  0.00000000000E+00  0.20946077597E+03  0.20946077597E+03  0.00000000000E+00 0. -1.
         21   -1    0    0  501  502 -0.00000000000E+00 -0.00000000000E+00 -0.29514666728E+03  0.29514666728E+03  0.00000000000E+00 0. -1.
         25    1    1    2    0    0  0.10983735022E+03  0.46860693018E+02  0.61209930911E+00  0.17287435530E+03  0.12500000000E+03 0.  0.
         25    1    1    2    0    0 -0.50842995795E+02 -0.10437288591E+03 -0.46768845110E+02  0.17689272005E+03  0.12500000000E+03 0.  0.
         25    1    1    2    0    0 -0.58994354424E+02  0.57512192893E+02 -0.39529145512E+02  0.15484036790E+03  0.12500000000E+03 0.  0.
</event>
<event>
 5    0  0.5452999E-005  0.3743171E+03  0.7546771E-02  0.1053054E+00
         21   -1    0    0  502  501  0.00000000000E+00  0.00000000000E+00  0.32103777420E+03  0.32103777420E+03  0.00000000000E+00 0.  1.
         21   -1    0    0  501  502 -0.00000000000E+00 -0.00000000000E+00 -0.43643861150E+03  0.43643861150E+03  0.00000000000E+00 0.  1.
         25    1    1    2    0    0 -0.20573025985E+03  0.83785944794E+02  0.15188198584E+03  0.29671225453E+03  0.12500000000E+03 0.  0.
         25    1    1    2    0    0  0.43667028195E+02 -0.27047997638E+02 -0.19330586353E+03  0.23586131604E+03  0.12500000000E+03 0.  0.
         25    1    1    2    0    0  0.16206323165E+03 -0.56737947156E+02 -0.73976959621E+02  0.22490281514E+03  0.12500000000E+03 0.  0.
</event>
<event>
 5    0  0.5452999E-005  0.2746577E+03  0.7546771E-02  0.1098643E+00
         21   -1    0    0  502  501  0.00000000000E+00  0.00000000000E+00  0.88561566207E+02  0.88561566207E+02  0.00000000000E+00 0. -1.
         21   -1    0    0  501  502 -0.00000000000E+00 -0.00000000000E+00 -0.85180138932E+03  0.85180138932E+03  0.00000000000E+00 0. -1.
         25    1    1    2    0    0 -0.15470072996E+03  0.37464476150E+02 -0.27647212245E+03  0.34263353209E+03  0.12500000000E+03 0.  0.
         25    1    1    2    0    0  0.38488979064E+02  0.37842493236E+02 -0.31897719207E+03  0.34682114247E+03  0.12500000000E+03 0.  0.
         25    1    1    2    0    0  0.11621175089E+03 -0.75306969386E+02 -0.16779050860E+03  0.25090828097E+03  0.12500000000E+03 0.  0.
</event>
<event>
 5    0  0.5452999E-005  0.2985912E+03  0.7546771E-02  0.1085947E+00
         21   -1    0    0  502  501  0.00000000000E+00  0.00000000000E+00  0.18260651781E+04  0.18260651781E+04  0.00000000000E+00 0.  1.
         21   -1    0    0  501  502 -0.00000000000E+00 -0.00000000000E+00 -0.48824496315E+02  0.48824496315E+02  0.00000000000E+00 0.  1.
         25    1    1    2    0    0  0.13930960028E+03 -0.21386883957E+02  0.67712101967E+03  0.70283884271E+03  0.12500000000E+03 0.  0.
         25    1    1    2    0    0 -0.39524534935E+02  0.67424285489E+02  0.16100780422E+03  0.21830422844E+03  0.12500000000E+03 0.  0.
         25    1    1    2    0    0 -0.99785065349E+02 -0.46037401532E+02  0.93911185792E+03  0.95374660329E+03  0.12500000000E+03 0.  0.
</event>
<event>
 5    0  0.5452999E-005  0.2784679E+03  0.7546771E-02  0.1096529E+00
         21   -1    0    0  502  501  0.00000000000E+00  0.00000000000E+00  0.44348044806E+03  0.44348044806E+03  0.00000000000E+00 0.  1.
         21   -1    0    0  501  502 -0.00000000000E+00 -0.00000000000E+00 -0.17485407669E+03  0.17485407669E+03  0.00000000000E+00 0.  1.
         25    1    1    2    0    0  0.47924598813E+02  0.90255120187E+02 -0.25050561756E+02  0.16338691666E+03  0.12500000000E+03 0.  0.
         25    1    1    2    0    0 -0.60652254413E+02 -0.12756799827E+03  0.81328830679E+02  0.20540610713E+03  0.12500000000E+03 0.  0.
         25    1    1    2    0    0  0.12727655601E+02  0.37312878081E+02  0.21234810244E+03  0.24954150096E+03  0.12500000000E+03 0.  0.
</event>
<event>
 5    0  0.5452999E-005  0.3915808E+03  0.7546771E-02  0.1046735E+00
         21   -1    0    0  502  501  0.00000000000E+00  0.00000000000E+00  0.25230918168E+03  0.25230918168E+03  0.00000000000E+00 0.  1.
         21   -1    0    0  501  502 -0.00000000000E+00 -0.00000000000E+00 -0.60772875913E+03  0.60772875913E+03  0.00000000000E+00 0.  1.
         25    1    1    2    0    0 -0.10246109351E+03 -0.32806737074E+02  0.14486057506E+03  0.21950886972E+03  0.12500000000E+03 0.  0.
         25    1    1    2    0    0 -0.78409602229E+02 -0.78312715300E+01 -0.89261111795E+02  0.17263238576E+03  0.12500000000E+03 0.  0.
         25    1    1    2    0    0  0.18087069574E+03  0.40638008604E+02 -0.41101904071E+03  0.46789668533E+03  0.12500000000E+03 0.  0.
</event>
<event>
 5    0  0.5452999E-005  0.3411009E+03  0.7546771E-02  0.1066328E+00
         21   -1    0    0  502  501  0.00000000000E+00  0.00000000000E+00  0.61793314654E+03  0.61793314654E+03  0.00000000000E+00 0. -1.
         21   -1    0    0  501  502 -0.00000000000E+00 -0.00000000000E+00 -0.18828874534E+03  0.18828874534E+03  0.00000000000E+00 0. -1.
         25    1    1    2    0    0  0.17018882204E+03  0.17951050568E+02 -0.96594713839E+01  0.21214330240E+03  0.12500000000E+03 0.  0.
         25    1    1    2    0    0 -0.13114767049E+03  0.43214128359E+01  0.57973946220E+02  0.19027444527E+03  0.12500000000E+03 0.  0.
         25    1    1    2    0    0 -0.39041151553E+02 -0.22272463404E+02  0.38132992636E+03  0.40380414421E+03  0.12500000000E+03 0.  0.
</event>
<event>
 5    0  0.5452999E-005  0.2968671E+03  0.7546771E-02  0.1086817E+00
         21   -1    0    0  502  501  0.00000000000E+00  0.00000000000E+00  0.84510195075E+03  0.84510195075E+03  0.00000000000E+00 0. -1.
         21   -1    0    0  501  502 -0.00000000000E+00 -0.00000000000E+00 -0.10428334789E+03  0.10428334789E+03  0.00000000000E+00 0. -1.
         25    1    1    2    0    0  0.49780265983E+01  0.32592962108E+02  0.34564685691E+03  0.36903093586E+03  0.12500000000E+03 0.  0.
         25    1    1    2    0    0  0.77314408983E+02 -0.15427601729E+03  0.29239242957E+03  0.36179682174E+03  0.12500000000E+03 0.  0.
         25    1    1    2    0    0 -0.82292435581E+02  0.12168305519E+03  0.10277931637E+03  0.21855754104E+03  0.12500000000E+03 0.  0.
</event>
<event>
 5    0  0.5452999E-005  0.2922067E+03  0.7546771E-02  0.1089203E+00
         21   -1    0    0  502  501  0.00000000000E+00  0.00000000000E+00  0.18809361922E+03  0.18809361922E+03  0.00000000000E+00 0. -1.
         21   -1    0    0  501  502 -0.00000000000E+00 -0.00000000000E+00 -0.45394830884E+03  0.45394830884E+03  0.00000000000E+00 0. -1.
         25    1    1    2    0    0  0.95369017367E+02 -0.17910043415E+03 -0.14375168803E+03  0.27831953362E+03  0.12500000000E+03 0.  0.
         25    1    1    2    0    0 -0.69765524764E+02  0.13662085083E+03 -0.28619520412E+02  0.19994139710E+03  0.12500000000E+03 0.  0.
         25    1    1    2    0    0 -0.25603492603E+02  0.42479583322E+02 -0.93483481185E+02  0.16378099733E+03  0.12500000000E+03 0.  0.
</event>
<event>
 5    0  0.5976192E-005  0.2766254E+03  0.7546771E-02  0.1097547E+00
         21   -1    0    0  502  501  0.00000000000E+00  0.00000000000E+00  0.55110951588E+03  0.55110951588E+03  0.00000000000E+00 0. -1.
         21   -1    0    0  501  502 -0.00000000000E+00 -0.00000000000E+00 -0.13885005282E+03  0.13885005282E+03  0.00000000000E+00 0. -1.
         25    1    1    2    0    0 -0.11984565158E+03 -0.30296482819E+02  0.17547730777E+03  0.24839110817E+03  0.12500000000E+03 0.  0.
         25    1    1    2    0    0 -0.57452402327E+02 -0.49001254397E+01  0.32330837764E+02  0.14140393500E+03  0.12500000000E+03 0.  0.
         25    1    1    2    0    0  0.17729805390E+03  0.35196608258E+02  0.20445131753E+03  0.30016452553E+03  0.12500000000E+03 0.  0.
</event>
<event>
 5    0  0.5452999E-005  0.2667483E+03  0.7546771E-02  0.1103155E+00
         21   -1    0    0  502  501  0.00000000000E+00  0.00000000000E+00  0.44737603025E+03  0.44737603025E+03  0.00000000000E+00 0.  1.
         21   -1    0    0  501  502 -0.00000000000E+00 -0.00000000000E+00 -0.15904890744E+03  0.15904890744E+03  0.00000000000E+00 0.  1.
         25    1    1    2    0    0  0.13719663276E+03 -0.24963991600E+02  0.66802583403E+02  0.19883083782E+03  0.12500000000E+03 0.  0.
         25    1    1    2    0    0 -0.65943236264E+02  0.85240979732E+02  0.43076598120E+02  0.17057294141E+03  0.12500000000E+03 0.  0.
         25    1    1    2    0    0 -0.71253396495E+02 -0.60276988131E+02  0.17844794128E+03  0.23702115846E+03  0.12500000000E+03 0.  0.
</event>
<event>
 5    0  0.5452999E-005  0.2382544E+03  0.7546771E-02  0.1120961E+00
         21   -1    0    0  502  501  0.00000000000E+00  0.00000000000E+00  0.92499463247E+02  0.92499463247E+02  0.00000000000E+00 0. -1.
         21   -1    0    0  501  502 -0.00000000000E+00 -0.00000000000E+00 -0.61368100343E+03  0.61368100343E+03  0.00000000000E+00 0. -1.
         25    1    1    2    0    0  0.95463610991E+02 -0.40402424578E+02 -0.21189891439E+03  0.26696780116E+03  0.12500000000E+03 0.  0.
         25    1    1    2    0    0 -0.90694479108E+02  0.30030789394E+01 -0.25431949518E+03  0.29755320978E+03  0.12500000000E+03 0.  0.
         25    1    1    2    0    0 -0.47691318830E+01  0.37399345639E+02 -0.54963130617E+02  0.14165945574E+03  0.12500000000E+03 0.  0.
</event>
<event>
 5    0  0.5452999E-005  0.2267609E+03  0.7546771E-02  0.1128941E+00
         21   -1    0    0  502  501  0.00000000000E+00  0.00000000000E+00  0.17340029732E+03  0.17340029732E+03  0.00000000000E+00 0. -1.
         21   -1    0    0  501  502 -0.00000000000E+00 -0.00000000000E+00 -0.29654214607E+03  0.29654214607E+03  0.00000000000E+00 0. -1.
         25    1    1    2    0    0 -0.22008890194E+02 -0.65942796915E+02 -0.13237903956E+03  0.19488985050E+03  0.12500000000E+03 0.  0.
         25    1    1    2    0    0 -0.16316418340E+02  0.81492351831E+01 -0.23286844992E+02  0.12845198594E+03  0.12500000000E+03 0.  0.
         25    1    1    2    0    0  0.38325308534E+02  0.57793561731E+02  0.32524035804E+02  0.14660060695E+03  0.12500000000E+03 0.  0.
</event>
<event>
 5    0  0.5452999E-005  0.2431126E+03  0.7546771E-02  0.1117736E+00
         21   -1    0    0  502  501  0.00000000000E+00  0.00000000000E+00  0.47405578146E+02  0.47405578146E+02  0.00000000000E+00 0.  1.
         21   -1    0    0  501  502 -0.00000000000E+00 -0.00000000000E+00 -0.12467679273E+04  0.12467679273E+04  0.00000000000E+00 0.  1.
         25    1    1    2    0    0 -0.89608864984E+02 -0.10245004989E+03 -0.38189324381E+03  0.42425606781E+03  0.12500000000E+03 0.  0.
         25    1    1    2    0    0  0.60758109257E+02  0.49064979835E+02 -0.53781020818E+03  0.55764122885E+03  0.12500000000E+03 0.  0.
         25    1    1    2    0    0  0.28850755727E+02  0.53385070052E+02 -0.27965889713E+03  0.31227620875E+03  0.12500000000E+03 0.  0.
</event>
<event>
 5    0  0.5452999E-005  0.2197081E+03  0.7546771E-02  0.1134101E+00
         21   -1    0    0  502  501  0.00000000000E+00  0.00000000000E+00  0.69000242949E+02  0.69000242949E+02  0.00000000000E+00 0.  1.
         21   -1    0    0  501  502 -0.00000000000E+00 -0.00000000000E+00 -0.69958671689E+03  0.69958671689E+03  0.00000000000E+00 0.  1.
         25    1    1    2    0    0  0.36409284481E+01 -0.39366729145E+02 -0.13162797565E+03  0.18577922300E+03  0.12500000000E+03 0.  0.
         25    1    1    2    0    0 -0.18132877546E+02  0.93711054295E+02 -0.20428088812E+03  0.25781048116E+03  0.12500000000E+03 0.  0.
         25    1    1    2    0    0  0.14491949098E+02 -0.54344325150E+02 -0.29467761017E+03  0.32499725568E+03  0.12500000000E+03 0.  0.
</event>
<event>
 5    0  0.5452999E-005  0.2663682E+03  0.7546771E-02  0.1103376E+00
         21   -1    0    0  502  501  0.00000000000E+00  0.00000000000E+00  0.75209926539E+03  0.75209926539E+03  0.00000000000E+00 0. -1.
         21   -1    0    0  501  502 -0.00000000000E+00 -0.00000000000E+00 -0.94338619249E+02  0.94338619249E+02  0.00000000000E+00 0. -1.
         25    1    1    2    0    0  0.12060513660E+03 -0.71148030595E+02  0.13890400672E+03  0.23351009467E+03  0.12500000000E+03 0.  0.
         25    1    1    2    0    0 -0.63869099578E+02  0.28704617077E+01  0.11680619355E+03  0.18263676597E+03  0.12500000000E+03 0.  0.
         25    1    1    2    0    0 -0.56736037017E+02  0.68277568887E+02  0.40205044587E+03  0.43029102400E+03  0.12500000000E+03 0.  0.
</event>
<event>
 5    0  0.5452999E-005  0.3844273E+03  0.7546771E-02  0.1049309E+00
         21   -1    0    0  502  501  0.00000000000E+00  0.00000000000E+00  0.38877319854E+03  0.38877319854E+03  0.00000000000E+00 0. -1.
         21   -1    0    0  501  502 -0.00000000000E+00 -0.00000000000E+00 -0.38012998405E+03  0.38012998405E+03  0.00000000000E+00 0. -1.
         25    1    1    2    0    0 -0.11828393278E+03  0.12793948172E+03  0.17517392008E+03  0.27689438783E+03  0.12500000000E+03 0.  0.
         25    1    1    2    0    0 -0.12942877821E+02 -0.16909672819E+03  0.39705203562E+02  0.21438918994E+03  0.12500000000E+03 0.  0.
         25    1    1    2    0    0  0.13122681060E+03  0.41157246469E+02 -0.20623590916E+03  0.27761960482E+03  0.12500000000E+03 0.  0.
</event>
<event>
 5    0  0.5452999E-005  0.2475640E+03  0.7546771E-02  0.1114854E+00
         21   -1    0    0  502  501  0.00000000000E+00  0.00000000000E+00  0.31978478437E+03  0.31978478437E+03  0.00000000000E+00 0.  1.
         21   -1    0    0  501  502 -0.00000000000E+00 -0.00000000000E+00 -0.19165375845E+03  0.19165375845E+03  0.00000000000E+00 0.  1.
         25    1    1    2    0    0 -0.72290813172E+01  0.22177678863E+02  0.18127933333E+03  0.22143013740E+03  0.12500000000E+03 0.  0.
         25    1    1    2    0    0  0.48457431983E+02 -0.39559189093E+02  0.15340051501E+02  0.14061781301E+03  0.12500000000E+03 0.  0.
         25    1    1    2    0    0 -0.41228350666E+02  0.17381510230E+02 -0.68488358903E+02  0.14939059241E+03  0.12500000000E+03 0.  0.
</event>
<event>
 5    0  0.5452999E-005  0.5653508E+03  0.7546771E-02  0.9980020E-01
         21   -1    0    0  502  501  0.00000000000E+00  0.00000000000E+00  0.75634814612E+03  0.75634814612E+03  0.00000000000E+00 0.  1.
         21   -1    0    0  501  502 -0.00000000000E+00 -0.00000000000E+00 -0.42258522855E+03  0.42258522855E+03  0.00000000000E+00 0.  1.
         25    1    1    2    0    0 -0.16701721579E+03 -0.25663222753E+03  0.60460854236E+02  0.33620732513E+03  0.12500000000E+03 0.  0.
         25    1    1    2    0    0 -0.17285396216E+03 -0.12711777312E+03 -0.40879359598E+00  0.24831952720E+03  0.12500000000E+03 0.  0.
         25    1    1    2    0    0  0.33987117795E+03  0.38375000065E+03  0.27371085693E+03  0.59440652234E+03  0.12500000000E+03 0.  0.
</event>
<event>
 5    0  0.5452999E-005  0.2565221E+03  0.7546771E-02  0.1109251E+00
         21   -1    0    0  502  501  0.00000000000E+00  0.00000000000E+00  0.43738414524E+03  0.43738414524E+03  0.00000000000E+00 0.  1.
         21   -1    0    0  501  502 -0.00000000000E+00 -0.00000000000E+00 -0.15044799938E+03  0.15044799938E+03  0.00000000000E+00 0.  1.
         25    1    1    2    0    0 -0.24359423025E+02 -0.47719176228E+02  0.25083329926E+03  0.28532936282E+03  0.12500000000E+03 0.  0.
         25    1    1    2    0    0  0.88563702388E+02  0.30508999599E+02 -0.77172956546E+00  0.15620475026E+03  0.12500000000E+03 0.  0.
         25    1    1    2    0    0 -0.64204279363E+02  0.17210176629E+02  0.36874576167E+02  0.14629803155E+03  0.12500000000E+03 0.  0.
</event>
<event>
 5    0  0.5452999E-005  0.2602360E+03  0.7546771E-02  0.1107002E+00
         21   -1    0    0  502  501  0.00000000000E+00  0.00000000000E+00  0.11512942346E+04  0.11512942346E+04  0.00000000000E+00 0. -1.
         21   -1    0    0  501  502 -0.00000000000E+00 -0.00000000000E+00 -0.58823164594E+02  0.58823164594E+02  0.00000000000E+00 0. -1.
         25    1    1    2    0    0  0.45403519024E+01  0.73474644075E+02  0.52694161736E+03  0.54654515479E+03  0.12500000000E+03 0.  0.
         25    1    1    2    0    0 -0.29083512762E+02  0.11678899135E+02  0.73761658357E+02  0.14848578936E+03  0.12500000000E+03 0.  0.
         25    1    1    2    0    0  0.24543160859E+02 -0.85153543211E+02  0.49176779428E+03  0.51508645503E+03  0.12500000000E+03 0.  0.
</event>
<event>
 5    0  0.5452999E-005  0.3053949E+03  0.7546771E-02  0.1082574E+00
         21   -1    0    0  502  501  0.00000000000E+00  0.00000000000E+00  0.19316773667E+03  0.19316773667E+03  0.00000000000E+00 0.  1.
         21   -1    0    0  501  502 -0.00000000000E+00 -0.00000000000E+00 -0.48282408508E+03  0.48282408508E+03  0.00000000000E+00 0.  1.
         25    1    1    2    0    0  0.98163849038E+02 -0.18741463828E+03 -0.61996795188E+02  0.25343439094E+03  0.12500000000E+03 0.  0.
         25    1    1    2    0    0 -0.10998348466E+02  0.16393171304E+02 -0.90315271934E+02  0.15547201703E+03  0.12500000000E+03 0.  0.
         25    1    1    2    0    0 -0.87165500572E+02  0.17102146697E+03 -0.13734428129E+03  0.26708541379E+03  0.12500000000E+03 0.  0.
</event>
<event>
 5    0  0.5452999E-005  0.3280416E+03  0.7546771E-02  0.1072007E+00
         21   -1    0    0  502  501  0.00000000000E+00  0.00000000000E+00  0.68407737002E+03  0.68407737002E+03  0.00000000000E+00 0. -1.
         21   -1    0    0  501  502 -0.00000000000E+00 -0.00000000000E+00 -0.15730869090E+03  0.15730869090E+03  0.00000000000E+00 0. -1.
         25    1    1    2    0    0 -0.44933899758E+02  0.76262622409E+02  0.18716692716E+03  0.24185016342E+03  0.12500000000E+03 0.  0.
         25    1    1    2    0    0 -0.16571775814E+03 -0.10464727882E+03  0.23844236472E+03  0.33300629066E+03  0.12500000000E+03 0.  0.
         25    1    1    2    0    0  0.21065165789E+03  0.28384656412E+02  0.10115938723E+03  0.26652960683E+03  0.12500000000E+03 0.  0.
</event>
<event>
 5    0  0.5452999E-005  0.3836337E+03  0.7546771E-02  0.1049599E+00
         21   -1    0    0  502  501  0.00000000000E+00  0.00000000000E+00  0.11294144764E+03  0.11294144764E+03  0.00000000000E+00 0.  1.
         21   -1    0    0  501  502 -0.00000000000E+00 -0.00000000000E+00 -0.13031072862E+04  0.13031072862E+04  0.00000000000E+00 0.  1.
         25    1    1    2    0    0  0.95360530567E+02  0.15898259886E+03 -0.96830617471E+03  0.99378616689E+03  0.12500000000E+03 0.  0.
         25    1    1    2    0    0  0.18774612690E+01 -0.88304269726E+02 -0.19321130799E+03  0.24648890127E+03  0.12500000000E+03 0.  0.
         25    1    1    2    0    0 -0.97237991836E+02 -0.70678329130E+02 -0.28648355898E+02  0.17577366572E+03  0.12500000000E+03 0.  0.
</event>
<event>
 5    0  0.5452999E-005  0.2434434E+03  0.7546771E-02  0.1117520E+00
         21   -1    0    0  502  501  0.00000000000E+00  0.00000000000E+00  0.87178047860E+03  0.87178047860E+03  0.00000000000E+00 0. -1.
         21   -1    0    0  501  502 -0.00000000000E+00 -0.00000000000E+00 -0.67981224004E+02  0.67981224004E+02  0.00000000000E+00 0. -1.
         25    1    1    2    0    0 -0.36918993202E+02 -0.91956158382E+02  0.13020300451E+03  0.20590475834E+03  0.12500000000E+03 0.  0.
         25    1    1    2    0    0  0.62125159447E+02  0.74723289589E+02  0.30864896994E+03  0.34688945226E+03  0.12500000000E+03 0.  0.
         25    1    1    2    0    0 -0.25206166244E+02  0.17232868793E+02  0.36494728014E+03  0.38696749200E+03  0.12500000000E+03 0.  0.
</event>
<event>
 5    0  0.5452999E-005  0.5348426E+03  0.7546771E-02  0.1005064E+00
         21   -1    0    0  502  501  0.00000000000E+00  0.00000000000E+00  0.91809023549E+03  0.91809023549E+03  0.00000000000E+00 0. -1.
         21   -1    0    0  501  502 -0.00000000000E+00 -0.00000000000E+00 -0.31157790085E+03  0.31157790085E+03  0.00000000000E+00 0. -1.
         25    1    1    2    0    0 -0.80936369454E+02  0.18629433280E+03  0.30023537416E+03  0.38343520213E+03  0.12500000000E+03 0.  0.
         25    1    1    2    0    0 -0.20959490264E+02  0.16023661628E+03  0.40312036785E+03  0.45193595166E+03  0.12500000000E+03 0.  0.
         25    1    1    2    0    0  0.10189585972E+03 -0.34653094908E+03 -0.96843407369E+02  0.39429698255E+03  0.12500000000E+03 0.  0.
</event>
<event>
 5    0  0.5452999E-005  0.3245391E+03  0.7546771E-02  0.1073579E+00
         21   -1    0    0  502  501  0.00000000000E+00  0.00000000000E+00  0.73419944167E+02  0.73419944167E+02  0.00000000000E+00 0. -1.
         21   -1    0    0  501  502 -0.00000000000E+00 -0.00000000000E+00 -0.14345639229E+04  0.14345639229E+04  0.00000000000E+00 0. -1.
         25    1    1    2    0    0  0.11386950139E+03 -0.18120814995E+02 -0.28892155153E+03  0.33525406817E+03  0.12500000000E+03 0.  0.
         25    1    1    2    0    0  0.12629747168E+03 -0.45167877775E+02 -0.56887440323E+03  0.59769078560E+03  0.12500000000E+03 0.  0.
         25    1    1    2    0    0 -0.24016697307E+03  0.63288692770E+02 -0.50334802394E+03  0.57503901328E+03  0.12500000000E+03 0.  0.
</event>
<event>
 5    0  0.5452999E-005  0.3380082E+03  0.7546771E-02  0.1067647E+00
         21   -1    0    0  502  501  0.00000000000E+00  0.00000000000E+00  0.52638949899E+03  0.52638949899E+03  0.00000000000E+00 0.  1.
         21   -1    0    0  501  502 -0.00000000000E+00 -0.00000000000E+00 -0.21704369996E+03  0.21704369996E+03  0.00000000000E+00 0.  1.
         25    1    1    2    0    0  0.10828863922E+03 -0.56962628921E+02 -0.40082411029E+02  0.17945130301E+03  0.12500000000E+03 0.  0.
         25    1    1    2    0    0  0.21030892820E+02  0.16902724709E+02 -0.39309142935E+02  0.13378418918E+03  0.12500000000E+03 0.  0.
         25    1    1    2    0    0 -0.12931953204E+03  0.40059904213E+02  0.38873735299E+03  0.43019770676E+03  0.12500000000E+03 0.  0.
</event>
<event>
 5    0  0.5452999E-005  0.4499056E+03  0.7546771E-02  0.1027750E+00
         21   -1    0    0  502  501  0.00000000000E+00  0.00000000000E+00  0.19739051925E+03  0.19739051925E+03  0.00000000000E+00 0.  1.
         21   -1    0    0  501  502 -0.00000000000E+00 -0.00000000000E+00 -0.10254545725E+04  0.10254545725E+04  0.00000000000E+00 0.  1.
         25    1    1    2    0    0 -0.30361589038E+02 -0.21431858438E+03 -0.81756817796E+03  0.85492514720E+03  0.12500000000E+03 0.  0.
         25    1    1    2    0    0 -0.15742408806E+02  0.13092504128E+03 -0.76885533865E+02  0.19729565425E+03  0.12500000000E+03 0.  0.
         25    1    1    2    0    0  0.46103997845E+02  0.83393543104E+02  0.66389658629E+02  0.17062429025E+03  0.12500000000E+03 0.  0.
</event>
<event>
 5    0  0.5452999E-005  0.3390841E+03  0.7546771E-02  0.1067187E+00
         21   -1    0    0  502  501  0.00000000000E+00  0.00000000000E+00  0.91766340920E+02  0.91766340920E+02  0.00000000000E+00 0.  1.
         21   -1    0    0  501  502 -0.00000000000E+00 -0.00000000000E+00 -0.12529436650E+04  0.12529436650E+04  0.00000000000E+00 0.  1.
         25    1    1    2    0    0  0.15106657318E+03  0.76321002713E+02 -0.25797257285E+03  0.33289766195E+03  0.12500000000E+03 0.  0.
         25    1    1    2    0    0  0.72111912083E+02  0.67156630800E+02 -0.25925874507E+03  0.30422070577E+03  0.12500000000E+03 0.  0.
         25    1    1    2    0    0 -0.22317848527E+03 -0.14347763351E+03 -0.64394600618E+03  0.70759163822E+03  0.12500000000E+03 0.  0.
</event>
<event>
 5    0  0.5452999E-005  0.2925035E+03  0.7546771E-02  0.1089049E+00
         21   -1    0    0  502  501  0.00000000000E+00  0.00000000000E+00  0.27689589414E+02  0.27689589414E+02  0.00000000000E+00 0.  1.
         21   -1    0    0  501  502 -0.00000000000E+00 -0.00000000000E+00 -0.30899080511E+04  0.30899080511E+04  0.00000000000E+00 0.  1.
         25    1    1    2    0    0  0.33423195305E+02  0.19074266439E+03 -0.12512269554E+04  0.12722789662E+04  0.12500000000E+03 0.  0.
         25    1    1    2    0    0  0.54856434456E+02 -0.11502468850E+03 -0.10799512448E+04  0.10946047681E+04  0.12500000000E+03 0.  0.
         25    1    1    2    0    0 -0.88279629761E+02 -0.75717975892E+02 -0.73104026154E+03  0.75071390616E+03  0.12500000000E+03 0.  0.
</event>
<event>
 5    0  0.5662427E-005  0.2611746E+03  0.7546771E-02  0.1106440E+00
         21   -1    0    0  502  501  0.00000000000E+00  0.00000000000E+00  0.19540359282E+03  0.19540359282E+03  0.00000000000E+00 0.  1.
         21   -1    0    0  501  502 -0.00000000000E+00 -0.00000000000E+00 -0.34908340858E+03  0.34908340858E+03  0.00000000000E+00 0.  1.
         25    1    1    2    0    0 -0.13883806714E+03 -0.91949134254E+02 -0.54492018052E+02  0.21523250733E+03  0.12500000000E+03 0.  0.
         25    1    1    2    0    0  0.45807322137E+02  0.79931714471E+02 -0.29140676927E+02  0.15799230611E+03  0.12500000000E+03 0.  0.
         25    1    1    2    0    0  0.93030745006E+02  0.12017419783E+02 -0.70047120787E+02  0.17126218796E+03  0.12500000000E+03 0.  0.
</event>
<event>
 5    0  0.5452999E-005  0.3254390E+03  0.7546771E-02  0.1073173E+00
         21   -1    0    0  502  501  0.00000000000E+00  0.00000000000E+00  0.16882770235E+04  0.16882770235E+04  0.00000000000E+00 0. -1.
         21   -1    0    0  501  502 -0.00000000000E+00 -0.00000000000E+00 -0.62732900133E+02  0.62732900133E+02  0.00000000000E+00 0. -1.
         25    1    1    2    0    0 -0.81677399242E+02 -0.14726392158E+01  0.87783810380E+03  0.89044825941E+03  0.12500000000E+03 0.  0.
         25    1    1    2    0    0  0.18426664954E+03 -0.35999104353E+02  0.58980449103E+03  0.63146216932E+03  0.12500000000E+03 0.  0.
         25    1    1    2    0    0 -0.10258925030E+03  0.37471743569E+02  0.15790152852E+03  0.22909949487E+03  0.12500000000E+03 0.  0.
</event>
<event>
 5    0  0.5452999E-005  0.3877142E+03  0.7546771E-02  0.1048119E+00
         21   -1    0    0  502  501  0.00000000000E+00  0.00000000000E+00  0.66915136832E+02  0.66915136832E+02  0.00000000000E+00 0. -1.
         21   -1    0    0  501  502 -0.00000000000E+00 -0.00000000000E+00 -0.22464619289E+04  0.22464619289E+04  0.00000000000E+00 0. -1.
         25    1    1    2    0    0 -0.88348534029E+02 -0.17802307228E+03 -0.16107362306E+04  0.16277573167E+04  0.12500000000E+03 0.  0.
         25    1    1    2    0    0  0.11060820852E+03  0.15834014836E+03 -0.47084951950E+03  0.52405157035E+03  0.12500000000E+03 0.  0.
         25    1    1    2    0    0 -0.22259674491E+02  0.19682923920E+02 -0.97961042015E+02  0.16156817866E+03  0.12500000000E+03 0.  0.
</event>
<event>
 5    0  0.5452999E-005  0.2760793E+03  0.7546771E-02  0.1097850E+00
         21   -1    0    0  502  501  0.00000000000E+00  0.00000000000E+00  0.14671447554E+03  0.14671447554E+03  0.00000000000E+00 0.  1.
         21   -1    0    0  501  502 -0.00000000000E+00 -0.00000000000E+00 -0.51951111547E+03  0.51951111547E+03  0.00000000000E+00 0.  1.
         25    1    1    2    0    0 -0.75735625225E+02  0.97310361210E+02 -0.20728506185E+02  0.17680458788E+03  0.12500000000E+03 0.  0.
         25    1    1    2    0    0  0.84556679970E+01 -0.14028184672E+03 -0.16127829970E+03  0.24776235548E+03  0.12500000000E+03 0.  0.
         25    1    1    2    0    0  0.67279957228E+02  0.42971485510E+02 -0.19078983404E+03  0.24165864765E+03  0.12500000000E+03 0.  0.
</event>
<event>
 5    0  0.5452999E-005  0.2910160E+03  0.7546771E-02  0.1089820E+00
         21   -1    0    0  502  501  0.00000000000E+00  0.00000000000E+00  0.97248141154E+03  0.97248141154E+03  0.00000000000E+00 0. -1.
         21   -1    0    0  501  502 -0.00000000000E+00 -0.00000000000E+00 -0.87086802977E+02  0.87086802977E+02  0.00000000000E+00 0. -1.
         25    1    1    2    0    0  0.50840959226E+02  0.72872385359E+02  0.82792544684E+02  0.17428365712E+03  0.12500000000E+03 0.  0.
         25    1    1    2    0    0 -0.66588573817E+02 -0.12057939524E+03  0.67342546659E+03  0.69864174494E+03  0.12500000000E+03 0.  0.
         25    1    1    2    0    0  0.15747614590E+02  0.47707009876E+02  0.12917659729E+03  0.18664281246E+03  0.12500000000E+03 0.  0.
</event>
<event>
 5    0  0.5452999E-005  0.4977141E+03  0.7546771E-02  0.1014377E+00
         21   -1    0    0  502  501  0.00000000000E+00  0.00000000000E+00  0.29128641149E+03  0.29128641149E+03  0.00000000000E+00 0.  1.
         21   -1    0    0  501  502 -0.00000000000E+00 -0.00000000000E+00 -0.85043219962E+03  0.85043219962E+03  0.00000000000E+00 0.  1.
         25    1    1    2    0    0 -0.23966264058E+03  0.38318972385E+03 -0.24597838737E+03  0.52953084217E+03  0.12500000000E+03 0.  0.
         25    1    1    2    0    0  0.10012189226E+03 -0.13053569132E+03 -0.84055180646E+02  0.22305656998E+03  0.12500000000E+03 0.  0.
         25    1    1    2    0    0  0.13954074832E+03 -0.25265403253E+03 -0.22911222011E+03  0.38913119896E+03  0.12500000000E+03 0.  0.
</event>
<event>
 5    0  0.5452999E-005  0.2726859E+03  0.7546771E-02  0.1099752E+00
         21   -1    0    0  502  501  0.00000000000E+00  0.00000000000E+00  0.34451379737E+04  0.34451379737E+04  0.00000000000E+00 0. -1.
         21   -1    0    0  501  502 -0.00000000000E+00 -0.00000000000E+00 -0.21583337275E+02  0.21583337275E+02  0.00000000000E+00 0. -1.
         25    1    1    2    0    0  0.86652437226E+01  0.15355203765E+03  0.12925606944E+04  0.13076664190E+04  0.12500000000E+03 0.  0.
         25    1    1    2    0    0 -0.77050509859E+02 -0.72258398758E+02  0.14190739362E+04  0.14284795741E+04  0.12500000000E+03 0.  0.
         25    1    1    2    0    0  0.68385266136E+02 -0.81293638890E+02  0.71192000581E+03  0.73057531783E+03  0.12500000000E+03 0.  0.
</event>
<event>
 5    0  0.5452999E-005  0.3124385E+03  0.7546771E-02  0.1079183E+00
         21   -1    0    0  502  501  0.00000000000E+00  0.00000000000E+00  0.17575975272E+04  0.17575975272E+04  0.00000000000E+00 0. -1.
         21   -1    0    0  501  502 -0.00000000000E+00 -0.00000000000E+00 -0.55540484459E+02  0.55540484459E+02  0.00000000000E+00 0. -1.
         25    1    1    2    0    0  0.12232421727E+03 -0.38901206935E+02  0.58667106861E+03  0.61342029701E+03  0.12500000000E+03 0.  0.
         25    1    1    2    0    0 -0.16832046122E+03  0.12532689438E+03  0.41489585160E+03  0.48145838428E+03  0.12500000000E+03 0.  0.
         25    1    1    2    0    0  0.45996243946E+02 -0.86425687448E+02  0.70049012248E+03  0.71825933033E+03  0.12500000000E+03 0.  0.
</event>
<event>
 5    0  0.5452999E-005  0.2442467E+03  0.7546771E-02  0.1116996E+00
         21   -1    0    0  502  501  0.00000000000E+00  0.00000000000E+00  0.47930371972E+02  0.47930371972E+02  0.00000000000E+00 0.  1.
         21   -1    0    0  501  502 -0.00000000000E+00 -0.00000000000E+00 -0.12446483751E+04  0.12446483751E+04  0.00000000000E+00 0.  1.
         25    1    1    2    0    0 -0.84409496559E+00  0.24311414038E+02 -0.39131094851E+03  0.41151065087E+03  0.12500000000E+03 0.  0.
         25    1    1    2    0    0  0.83518289384E+02 -0.33997345506E+02 -0.63719222633E+03  0.65556849944E+03  0.12500000000E+03 0.  0.
         25    1    1    2    0    0 -0.82674194419E+02  0.96859314680E+01 -0.16821482832E+03  0.22549959680E+03  0.12500000000E+03 0.  0.
</event>
<event>
 5    0  0.5452999E-005  0.3181828E+03  0.7546771E-02  0.1076489E+00
         21   -1    0    0  502  501  0.00000000000E+00  0.00000000000E+00  0.23338967383E+03  0.23338967383E+03  0.00000000000E+00 0.  1.
         21   -1    0    0  501  502 -0.00000000000E+00 -0.00000000000E+00 -0.43378221996E+03  0.43378221996E+03  0.00000000000E+00 0.  1.
         25    1    1    2    0    0 -0.97250327927E+01  0.56767908860E+02 -0.24704682364E+03  0.28279728572E+03  0.12500000000E+03 0.  0.
         25    1    1    2    0    0  0.86994130342E+02  0.67424841081E+02  0.86822317821E+02  0.18782226380E+03  0.12500000000E+03 0.  0.
         25    1    1    2    0    0 -0.77269097550E+02 -0.12419274994E+03 -0.40168040313E+02  0.19655234427E+03  0.12500000000E+03 0.  0.
</event>
<event>
 5    0  0.5452999E-005  0.2094669E+03  0.7546771E-02  0.1141989E+00
         21   -1    0    0  502  501  0.00000000000E+00  0.00000000000E+00  0.32680036909E+03  0.32680036909E+03  0.00000000000E+00 0. -1.
         21   -1    0    0  501  502 -0.00000000000E+00 -0.00000000000E+00 -0.13426046248E+03  0.13426046248E+03  0.00000000000E+00 0. -1.
         25    1    1    2    0    0 -0.35434989033E+01  0.49888556899E+01  0.38649985865E+02  0.13098193186E+03  0.12500000000E+03 0.  0.
         25    1    1    2    0    0 -0.64030028861E+02 -0.24179752233E+01  0.34931287029E+02  0.14474420891E+03  0.12500000000E+03 0.  0.
         25    1    1    2    0    0  0.67573527764E+02 -0.25708804666E+01  0.11895863371E+03  0.18533469080E+03  0.12500000000E+03 0.  0.
</event>
<event>
 5    0  0.5452999E-005  0.3599415E+03  0.7546771E-02  0.1058607E+00
         21   -1    0    0  502  501  0.00000000000E+00  0.00000000000E+00  0.45740760934E+02  0.45740760934E+02  0.00000000000E+00 0.  1.
         21   -1    0    0  501  502 -0.00000000000E+00 -0.00000000000E+00 -0.28324375736E+04  0.28324375736E+04  0.00000000000E+00 0. -1.
         25    1    1    2    0    0 -0.16772694645E+03 -0.71414848290E+02 -0.11307132734E+04  0.11521154090E+04  0.12500000000E+03 0.  0.
         25    1    1    2    0    0 -0.11026050877E+02 -0.13291880172E+03 -0.51091652761E+03  0.54263217729E+03  0.12500000000E+03 0.  0.
         25    1    1    2    0    0  0.17875299733E+03  0.20433365001E+03 -0.11450670116E+04  0.11834307482E+04  0.12500000000E+03 0.  0.
</event>
<event>
 5    0  0.5452999E-005  0.6428527E+03  0.7546771E-02  0.9820284E-01
         21   -1    0    0  502  501  0.00000000000E+00  0.00000000000E+00  0.19833443344E+03  0.19833443344E+03  0.00000000000E+00 0.  1.
         21   -1    0    0  501  502 -0.00000000000E+00 -0.00000000000E+00 -0.20836501490E+04  0.20836501490E+04  0.00000000000E+00 0.  1.
         25    1    1    2    0    0 -0.16291721401E+03  0.11029222786E+02 -0.12026455775E+04  0.12201004252E+04  0.12500000000E+03 0.  0.
         25    1    1    2    0    0 -0.29923478285E+03 -0.42284245888E+02 -0.21171958849E+03  0.38958901020E+03  0.12500000000E+03 0.  0.
         25    1    1    2    0    0  0.46215199686E+03  0.31255023102E+02 -0.47095054956E+03  0.67229514709E+03  0.12500000000E+03 0.  0.
</event>
<event>
 5    0  0.5452999E-005  0.3148939E+03  0.7546771E-02  0.1078024E+00
         21   -1    0    0  502  501  0.00000000000E+00  0.00000000000E+00  0.88878492050E+03  0.88878492050E+03  0.00000000000E+00 0.  1.
         21   -1    0    0  501  502 -0.00000000000E+00 -0.00000000000E+00 -0.11156599298E+03  0.11156599298E+03  0.00000000000E+00 0.  1.
         25    1    1    2    0    0  0.86240015026E+02  0.23640658374E+02 -0.20759755844E+02  0.15508767966E+03  0.12500000000E+03 0.  0.
         25    1    1    2    0    0 -0.10077124693E+02  0.14892405155E+02  0.40056132148E+03  0.41999726718E+03  0.12500000000E+03 0.  0.
         25    1    1    2    0    0 -0.76162890333E+02 -0.38533063529E+02  0.39741736188E+03  0.42526596663E+03  0.12500000000E+03 0.  0.
</event>
<event>
 5    0  0.5800170E-005  0.4092999E+03  0.7546771E-02  0.1040606E+00
         21   -1    0    0  502  501  0.00000000000E+00  0.00000000000E+00  0.66909641804E+03  0.66909641804E+03  0.00000000000E+00 0. -1.
         21   -1    0    0  501  502 -0.00000000000E+00 -0.00000000000E+00 -0.25037705228E+03  0.25037705228E+03  0.00000000000E+00 0. -1.
         25    1    1    2    0    0  0.14286321856E+03  0.77784411991E+02  0.41979012015E+03  0.46723554974E+03  0.12500000000E+03 0.  0.
         25    1    1    2    0    0  0.45327469449E+02 -0.14818335224E+03 -0.60819396998E+02  0.20817512920E+03  0.12500000000E+03 0.  0.
         25    1    1    2    0    0 -0.18819068801E+03  0.70398940246E+02  0.59748642611E+02  0.24406279138E+03  0.12500000000E+03 0.  0.
</event>
<event>
 5    0  0.5452999E-005  0.3073021E+03  0.7546771E-02  0.1081646E+00
         21   -1    0    0  502  501  0.00000000000E+00  0.00000000000E+00  0.47551600283E+03  0.47551600283E+03  0.00000000000E+00 0.  1.
         21   -1    0    0  501  502 -0.00000000000E+00 -0.00000000000E+00 -0.19859397014E+03  0.19859397014E+03  0.00000000000E+00 0.  1.
         25    1    1    2    0    0  0.33928494323E+02  0.90260407281E+02  0.14240463771E+03  0.21260800712E+03  0.12500000000E+03 0.  0.
         25    1    1    2    0    0  0.20645018133E+02  0.67566795285E+02 -0.78262954373E+02  0.16352852542E+03  0.12500000000E+03 0.  0.
         25    1    1    2    0    0 -0.54573512456E+02 -0.15782720257E+03  0.21278034935E+03  0.29797344043E+03  0.12500000000E+03 0.  0.
</event>
<event>
 5    0  0.5452999E-005  0.3052167E+03  0.7546771E-02  0.1082662E+00
         21   -1    0    0  502  501  0.00000000000E+00  0.00000000000E+00  0.16173224086E+03  0.16173224086E+03  0.00000000000E+00 0. -1.
         21   -1    0    0  501  502 -0.00000000000E+00 -0.00000000000E+00 -0.57599678670E+03  0.57599678670E+03  0.00000000000E+00 0. -1.
         25    1    1    2    0    0 -0.17306723275E+03 -0.13294043850E+02 -0.12628241714E+03  0.24839735814E+03  0.12500000000E+03 0.  0.
         25    1    1    2    0    0  0.27232977923E+02 -0.80560497766E+02 -0.21621405952E+03  0.26382787651E+03  0.12500000000E+03 0.  0.
         25    1    1    2    0    0  0.14583425482E+03  0.93854541616E+02 -0.71768069181E+02  0.22550379291E+03  0.12500000000E+03 0.  0.
</event>
<event>
 5    0  0.5452999E-005  0.6019143E+03  0.7546771E-02  0.9901442E-01
         21   -1    0    0  502  501  0.00000000000E+00  0.00000000000E+00  0.51567685178E+03  0.51567685178E+03  0.00000000000E+00 0.  1.
         21   -1    0    0  501  502 -0.00000000000E+00 -0.00000000000E+00 -0.70257343840E+03  0.70257343840E+03  0.00000000000E+00 0.  1.
         25    1    1    2    0    0 -0.30728016356E+03  0.28593779513E+03  0.26889169969E+03  0.51391562319E+03  0.12500000000E+03 0.  0.
         25    1    1    2    0    0  0.27219517534E+03 -0.22186545184E+03 -0.40618145006E+03  0.55129199393E+03  0.12500000000E+03 0.  0.
         25    1    1    2    0    0  0.35084988216E+02 -0.64072343297E+02 -0.49606836246E+02  0.15304267306E+03  0.12500000000E+03 0.  0.
</event>
<event>
 5    0  0.5452999E-005  0.2738230E+03  0.7546771E-02  0.1099111E+00
         21   -1    0    0  502  501  0.00000000000E+00  0.00000000000E+00  0.59414608387E+03  0.59414608387E+03  0.00000000000E+00 0. -1.
         21   -1    0    0  501  502 -0.00000000000E+00 -0.00000000000E+00 -0.12619630357E+03  0.12619630357E+03  0.00000000000E+00 0. -1.
         25    1    1    2    0    0 -0.19994142540E+02  0.10872780493E+03  0.20670570081E+03  0.26565720025E+03  0.12500000000E+03 0.  0.
         25    1    1    2    0    0 -0.55423355635E+02  0.19897657540E+02  0.12295691736E+02  0.13872220140E+03  0.12500000000E+03 0.  0.
         25    1    1    2    0    0  0.75417498176E+02 -0.12862546247E+03  0.24894838776E+03  0.31596298580E+03  0.12500000000E+03 0.  0.
</event>
<event>
 5    0  0.5452999E-005  0.2534003E+03  0.7546771E-02  0.1111175E+00
         21   -1    0    0  502  501  0.00000000000E+00  0.00000000000E+00  0.16859791261E+03  0.16859791261E+03  0.00000000000E+00 0. -1.
         21   -1    0    0  501  502 -0.00000000000E+00 -0.00000000000E+00 -0.38085698015E+03  0.38085698015E+03  0.00000000000E+00 0. -1.
         25    1    1    2    0    0 -0.64778829887E+02 -0.45332051995E+02 -0.15569752280E+02  0.14872359909E+03  0.12500000000E+03 0.  0.
         25    1    1    2    0    0 -0.51387529800E+02  0.18025979460E+02 -0.18183778382E+03  0.22727866987E+03  0.12500000000E+03 0.  0.
         25    1    1    2    0    0  0.11616635969E+03  0.27306072535E+02 -0.14851531443E+02  0.17345262381E+03  0.12500000000E+03 0.  0.
</event>
<event>
 5    0  0.5452999E-005  0.3141399E+03  0.7546771E-02  0.1078378E+00
         21   -1    0    0  502  501  0.00000000000E+00  0.00000000000E+00  0.13412279517E+03  0.13412279517E+03  0.00000000000E+00 0. -1.
         21   -1    0    0  501  502 -0.00000000000E+00 -0.00000000000E+00 -0.73577265226E+03  0.73577265226E+03  0.00000000000E+00 0. -1.
         25    1    1    2    0    0 -0.67452767323E+02 -0.21279273962E+02 -0.53361731113E+03  0.55260756243E+03  0.12500000000E+03 0.  0.
         25    1    1    2    0    0  0.55123158776E+02 -0.25227527067E+01 -0.11749768277E+03  0.18020996746E+03  0.12500000000E+03 0.  0.
         25    1    1    2    0    0  0.12329608547E+02  0.23802026669E+02  0.49465136810E+02  0.13707791755E+03  0.12500000000E+03 0.  0.
</event>
<event>
 5    0  0.5606392E-005  0.3166910E+03  0.7546771E-02  0.1077182E+00
         21   -1    0    0  502  501  0.00000000000E+00  0.00000000000E+00  0.66294595401E+03  0.66294595401E+03  0.00000000000E+00 0. -1.
         21   -1    0    0  501  502 -0.00000000000E+00 -0.00000000000E+00 -0.15128409446E+03  0.15128409446E+03  0.00000000000E+00 0. -1.
         25    1    1    2    0    0 -0.82685458375E+02  0.21586073347E+03  0.23000344705E+03  0.34922675576E+03  0.12500000000E+03 0.  0.
         25    1    1    2    0    0  0.10767981804E+03 -0.94378193883E+02  0.11273637620E+03  0.22099021972E+03  0.12500000000E+03 0.  0.
         25    1    1    2    0    0 -0.24994359665E+02 -0.12148253959E+03  0.16892203630E+03  0.24401307298E+03  0.12500000000E+03 0.  0.
</event>
<event>
 5    0  0.5452999E-005  0.2938209E+03  0.7546771E-02  0.1088371E+00
         21   -1    0    0  502  501  0.00000000000E+00  0.00000000000E+00  0.25020729575E+04  0.25020729575E+04  0.00000000000E+00 0. -1.
         21   -1    0    0  501  502 -0.00000000000E+00 -0.00000000000E+00 -0.34503687973E+02  0.34503687973E+02  0.00000000000E+00 0. -1.
         25    1    1    2    0    0 -0.19946534432E+03 -0.11794970933E+02  0.92498143393E+03  0.95453716430E+03  0.12500000000E+03 0.  0.
         25    1    1    2    0    0  0.47165497575E+02 -0.27993527062E+02  0.42083335871E+03  0.44241828344E+03  0.12500000000E+03 0.  0.
         25    1    1    2    0    0  0.15229984675E+03  0.39788497995E+02  0.11217544769E+04  0.11396211977E+04  0.12500000000E+03 0.  0.
</event>
<event>
 5    0  0.5452999E-005  0.2155559E+03  0.7546771E-02  0.1137240E+00
         21   -1    0    0  502  501  0.00000000000E+00  0.00000000000E+00  0.11590575806E+03  0.11590575806E+03  0.00000000000E+00 0.  1.
         21   -1    0    0  501  502 -0.00000000000E+00 -0.00000000000E+00 -0.40088055050E+03  0.40088055050E+03  0.00000000000E+00 0.  1.
         25    1    1    2    0    0  0.47024986606E+02  0.22689538792E+02 -0.65542262112E+02  0.15048904498E+03  0.12500000000E+03 0.  0.
         25    1    1    2    0    0  0.46865107746E+02 -0.25705572819E+02 -0.11706444696E+03  0.17940512685E+03  0.12500000000E+03 0.  0.
         25    1    1    2    0    0 -0.93890094352E+02  0.30160340270E+01 -0.10236808337E+03  0.18689213673E+03  0.12500000000E+03 0.  0.
</event>
<event>
 5    0  0.5452999E-005  0.5787109E+03  0.7546771E-02  0.9950586E-01
         21   -1    0    0  502  501  0.00000000000E+00  0.00000000000E+00  0.60516382462E+03  0.60516382462E+03  0.00000000000E+00 0. -1.
         21   -1    0    0  501  502 -0.00000000000E+00 -0.00000000000E+00 -0.55341435148E+03  0.55341435148E+03  0.00000000000E+00 0.  1.
         25    1    1    2    0    0 -0.70749157621E+02  0.19048071714E+03 -0.26193890897E+03  0.35429555309E+03  0.12500000000E+03 0.  0.
         25    1    1    2    0    0 -0.34497847880E+02  0.23975255435E+03  0.61232315271E+02  0.27936675761E+03  0.12500000000E+03 0.  0.
         25    1    1    2    0    0  0.10524700550E+03 -0.43023327149E+03  0.25245606684E+03  0.52491586540E+03  0.12500000000E+03 0.  0.
</event>
<event>
 5    0  0.5452999E-005  0.3637864E+03  0.7546771E-02  0.1057095E+00
         21   -1    0    0  502  501  0.00000000000E+00  0.00000000000E+00  0.13852373331E+03  0.13852373331E+03  0.00000000000E+00 0.  1.
         21   -1    0    0  501  502 -0.00000000000E+00 -0.00000000000E+00 -0.95536344917E+03  0.95536344917E+03  0.00000000000E+00 0.  1.
         25    1    1    2    0    0  0.70153663153E+02  0.10506545758E+03  0.25280784296E+02  0.17951157312E+03  0.12500000000E+03 0.  0.
         25    1    1    2    0    0 -0.55704392879E+02  0.57951502904E+02 -0.39773183174E+03  0.42459035088E+03  0.12500000000E+03 0.  0.
         25    1    1    2    0    0 -0.14449270273E+02 -0.16301696049E+03 -0.44438866841E+03  0.48978525849E+03  0.12500000000E+03 0.  0.
</event>
<event>
 5    0  0.5452999E-005  0.3215321E+03  0.7546771E-02  0.1074946E+00
         21   -1    0    0  502  501  0.00000000000E+00  0.00000000000E+00  0.29051212367E+03  0.29051212367E+03  0.00000000000E+00 0.  1.
         21   -1    0    0  501  502 -0.00000000000E+00 -0.00000000000E+00 -0.35586427464E+03  0.35586427464E+03  0.00000000000E+00 0.  1.
         25    1    1    2    0    0  0.64469585510E+02 -0.10297753370E+03 -0.10073846738E+02  0.17460579112E+03  0.12500000000E+03 0.  0.
         25    1    1    2    0    0  0.25028743043E+02  0.23234472806E+03 -0.69293936867E+01  0.26511040555E+03  0.12500000000E+03 0.  0.
         25    1    1    2    0    0 -0.89498328553E+02 -0.12936719436E+03 -0.48348910547E+02  0.20666020164E+03  0.12500000000E+03 0.  0.
</event>
<event>
 5    0  0.5452999E-005  0.4079618E+03  0.7546771E-02  0.1041057E+00
         21   -1    0    0  502  501  0.00000000000E+00  0.00000000000E+00  0.10554410340E+04  0.10554410340E+04  0.00000000000E+00 0.  1.
         21   -1    0    0  501  502 -0.00000000000E+00 -0.00000000000E+00 -0.15769031476E+03  0.15769031476E+03  0.00000000000E+00 0.  1.
         25    1    1    2    0    0  0.95731032573E+02 -0.56749260951E+02  0.13475781149E+03  0.21487107058E+03  0.12500000000E+03 0.  0.
         25    1    1    2    0    0  0.39952145590E+02 -0.23002030135E+03  0.50657740388E+03  0.57162153484E+03  0.12500000000E+03 0.  0.
         25    1    1    2    0    0 -0.13568317816E+03  0.28676956230E+03  0.25641550387E+03  0.42663874335E+03  0.12500000000E+03 0.  0.
</event>
<event>
 5    0  0.5452999E-005  0.7680125E+03  0.7546771E-02  0.9607508E-01
         21   -1    0    0  502  501  0.00000000000E+00  0.00000000000E+00  0.88044138725E+03  0.88044138725E+03  0.00000000000E+00 0. -1.
         21   -1    0    0  501  502 -0.00000000000E+00 -0.00000000000E+00 -0.66994033886E+03  0.66994033886E+03  0.00000000000E+00 0. -1.
         25    1    1    2    0    0  0.42755272428E+03  0.29588338276E+03  0.57437136920E+03  0.78477753408E+03  0.12500000000E+03 0.  0.
         25    1    1    2    0    0 -0.28411749772E+03  0.80672556094E+01 -0.21318022447E+03  0.37664126331E+03  0.12500000000E+03 0.  0.
         25    1    1    2    0    0 -0.14343522656E+03 -0.30395063837E+03 -0.15069009634E+03  0.38896292872E+03  0.12500000000E+03 0.  0.
</event>
<event>
 5    0  0.5452999E-005  0.2665969E+03  0.7546771E-02  0.1103243E+00
         21   -1    0    0  502  501  0.00000000000E+00  0.00000000000E+00  0.15553488093E+04  0.15553488093E+04  0.00000000000E+00 0.  1.
         21   -1    0    0  501  502 -0.00000000000E+00 -0.00000000000E+00 -0.45696445762E+02  0.45696445762E+02  0.00000000000E+00 0.  1.
         25    1    1    2    0    0  0.11290050989E+03  0.39572272760E+02  0.58199439255E+03  0.60716963269E+03  0.12500000000E+03 0.  0.
         25    1    1    2    0    0  0.59257744291E+02  0.83480729259E+01  0.35340892741E+03  0.37961037994E+03  0.12500000000E+03 0.  0.
         25    1    1    2    0    0 -0.17215825418E+03 -0.47920345686E+02  0.57424904358E+03  0.61426524243E+03  0.12500000000E+03 0.  0.
</event>
<event>
 5    0  0.5452999E-005  0.2739763E+03  0.7546771E-02  0.1099025E+00
         21   -1    0    0  502  501  0.00000000000E+00  0.00000000000E+00  0.44671040554E+03  0.44671040554E+03  0.00000000000E+00 0.  1.
         21   -1    0    0  501  502 -0.00000000000E+00 -0.00000000000E+00 -0.16803506415E+03  0.16803506415E+03  0.00000000000E+00 0.  1.
         25    1    1    2    0    0 -0.10416080258E+03  0.74374575714E+02  0.10748337609E+03  0.20870727453E+03  0.12500000000E+03 0.  0.
         25    1    1    2    0    0  0.15529387560E+03  0.18828687927E+02  0.12306492667E+03  0.23503336670E+03  0.12500000000E+03 0.  0.
         25    1    1    2    0    0 -0.51133073023E+02 -0.93203263642E+02  0.48127038635E+02  0.17100482846E+03  0.12500000000E+03 0.  0.
</event>
<event>
 5    0  0.5452999E-005  0.3490518E+03  0.7546771E-02  0.1063005E+00
         21   -1    0    0  502  501  0.00000000000E+00  0.00000000000E+00  0.71288420296E+03  0.71288420296E+03  0.00000000000E+00 0.  1.
         21   -1    0    0  501  502 -0.00000000000E+00 -0.00000000000E+00 -0.17090733757E+03  0.17090733757E+03  0.00000000000E+00 0.  1.
         25    1    1    2    0    0  0.39870658729E+02  0.75362845729E+02  0.32696886532E+03  0.36028164931E+03  0.12500000000E+03 0.  0.
         25    1    1    2    0    0  0.14971603086E+03  0.67317137339E+02  0.65573855596E+02  0.21649807716E+03  0.12500000000E+03 0.  0.
         25    1    1    2    0    0 -0.18958668959E+03 -0.14267998307E+03  0.14943414447E+03  0.30701181406E+03  0.12500000000E+03 0.  0.
</event>
<event>
 5    0  0.5452999E-005  0.2486053E+03  0.7546771E-02  0.1114189E+00
         21   -1    0    0  502  501  0.00000000000E+00  0.00000000000E+00  0.37424129200E+02  0.37424129200E+02  0.00000000000E+00 0.  1.
         21   -1    0    0  501  502 -0.00000000000E+00 -0.00000000000E+00 -0.16514633397E+04  0.16514633397E+04  0.00000000000E+00 0.  1.
         25    1    1    2    0    0 -0.88058380157E+02  0.56617331512E+02 -0.42452438465E+03  0.45475900619E+03  0.12500000000E+03 0.  0.
         25    1    1    2    0    0  0.66637939609E+02 -0.79046720450E+02 -0.36242779203E+03  0.39707417877E+03  0.12500000000E+03 0.  0.
         25    1    1    2    0    0  0.21420440548E+02  0.22429388938E+02 -0.82708703384E+03  0.83705428396E+03  0.12500000000E+03 0.  0.
</event>
<event>
 5    0  0.5452999E-005  0.2691810E+03  0.7546771E-02  0.1101749E+00
         21   -1    0    0  502  501  0.00000000000E+00  0.00000000000E+00  0.12760199153E+04  0.12760199153E+04  0.00000000000E+00 0.  1.
         21   -1    0    0  501  502 -0.00000000000E+00 -0.00000000000E+00 -0.56784711759E+02  0.56784711759E+02  0.00000000000E+00 0.  1.
         25    1    1    2    0    0 -0.76503124515E+02 -0.29248642088E+02  0.10763337050E+03  0.18416881813E+03  0.12500000000E+03 0.  0.
         25    1    1    2    0    0  0.91667502071E+02  0.27712561568E+02  0.73010914171E+03  0.74689709854E+03  0.12500000000E+03 0.  0.
         25    1    1    2    0    0 -0.15164377556E+02  0.15360805199E+01  0.38149269137E+03  0.40173871043E+03  0.12500000000E+03 0.  0.
</event>
<event>
 5    0  0.6605338E-005  0.2658556E+03  0.7546771E-02  0.1103675E+00
         21   -1    0    0  502  501  0.00000000000E+00  0.00000000000E+00  0.50410964773E+03  0.50410964773E+03  0.00000000000E+00 0. -1.
         21   -1    0    0  501  502 -0.00000000000E+00 -0.00000000000E+00 -0.14020595863E+03  0.14020595863E+03  0.00000000000E+00 0. -1.
         25    1    1    2    0    0  0.99817639542E+02 -0.53733029076E+01  0.65162133340E+02  0.17281069750E+03  0.12500000000E+03 0.  0.
         25    1    1    2    0    0  0.48510049363E+02  0.47852284848E+02  0.45015644276E+02  0.14931334262E+03  0.12500000000E+03 0.  0.
         25    1    1    2    0    0 -0.14832768890E+03 -0.42478981940E+02  0.25372591148E+03  0.32219156625E+03  0.12500000000E+03 0.  0.
</event>
<event>
 5    0  0.5452999E-005  0.2829947E+03  0.7546771E-02  0.1094064E+00
         21   -1    0    0  502  501  0.00000000000E+00  0.00000000000E+00  0.39041904421E+03  0.39041904421E+03  0.00000000000E+00 0.  1.
         21   -1    0    0  501  502 -0.00000000000E+00 -0.00000000000E+00 -0.20512826171E+03  0.20512826171E+03  0.00000000000E+00 0.  1.
         25    1    1    2    0    0 -0.15793566360E+03  0.12567256455E+03  0.11917531570E+03  0.26564077848E+03  0.12500000000E+03 0.  0.
         25    1    1    2    0    0  0.87876754336E+02 -0.81787143046E+02  0.32884454581E+02  0.17640251720E+03  0.12500000000E+03 0.  0.
         25    1    1    2    0    0  0.70058909267E+02 -0.43885421503E+02  0.33231012216E+02  0.15350401024E+03  0.12500000000E+03 0.  0.
</event>
<event>
 5    0  0.5452999E-005  0.3526736E+03  0.7546771E-02  0.1061523E+00
         21   -1    0    0  502  501  0.00000000000E+00  0.00000000000E+00  0.21658217007E+03  0.21658217007E+03  0.00000000000E+00 0.  1.
         21   -1    0    0  501  502 -0.00000000000E+00 -0.00000000000E+00 -0.57427926851E+03  0.57427926851E+03  0.00000000000E+00 0.  1.
         25    1    1    2    0    0  0.37964794635E+02 -0.15187862738E+03  0.80819853245E+02  0.21602150765E+03  0.12500000000E+03 0.  0.
         25    1    1    2    0    0 -0.24214237711E+02  0.16019069458E+03 -0.38879770175E+03  0.43935866990E+03  0.12500000000E+03 0.  0.
         25    1    1    2    0    0 -0.13750556924E+02 -0.83120671920E+01 -0.49719249931E+02  0.13548126103E+03  0.12500000000E+03 0.  0.
</event>
<event>
 5    0  0.5757162E-005  0.2609152E+03  0.7546771E-02  0.1106595E+00
         21   -1    0    0  502  501  0.00000000000E+00  0.00000000000E+00  0.73257850103E+03  0.73257850103E+03  0.00000000000E+00 0.  1.
         21   -1    0    0  501  502 -0.00000000000E+00 -0.00000000000E+00 -0.92927563502E+02  0.92927563502E+02  0.00000000000E+00 0.  1.
         25    1    1    2    0    0 -0.58756410177E+02  0.40290950322E+02  0.23673874450E+03  0.27703052099E+03  0.12500000000E+03 0.  0.
         25    1    1    2    0    0  0.71857644479E+02 -0.10543953305E+03  0.79654564496E+02  0.19557828572E+03  0.12500000000E+03 0.  0.
         25    1    1    2    0    0 -0.13101234302E+02  0.65148582727E+02  0.32325762854E+03  0.35289725782E+03  0.12500000000E+03 0.  0.
</event>
<event>
 5    0  0.5452999E-005  0.2799861E+03  0.7546771E-02  0.1095697E+00
         21   -1    0    0  502  501  0.00000000000E+00  0.00000000000E+00  0.61930783571E+03  0.61930783571E+03  0.00000000000E+00 0. -1.
         21   -1    0    0  501  502 -0.00000000000E+00 -0.00000000000E+00 -0.12658038083E+03  0.12658038083E+03  0.00000000000E+00 0. -1.
         25    1    1    2    0    0 -0.42968772728E+01 -0.16118058151E+03  0.79477836123E+02  0.21895060960E+03  0.12500000000E+03 0.  0.
         25    1    1    2    0    0  0.15666278013E+02  0.11432719681E+03  0.13171719342E+03  0.21515240933E+03  0.12500000000E+03 0.  0.
         25    1    1    2    0    0 -0.11369400740E+02  0.46853384694E+02  0.28153242534E+03  0.31178519761E+03  0.12500000000E+03 0.  0.
</event>
<event>
 5    0  0.6390615E-005  0.2877629E+03  0.7546771E-02  0.1091523E+00
         21   -1    0    0  502  501  0.00000000000E+00  0.00000000000E+00  0.41848936038E+03  0.41848936038E+03  0.00000000000E+00 0.  1.
         21   -1    0    0  501  502 -0.00000000000E+00 -0.00000000000E+00 -0.19787241608E+03  0.19787241608E+03  0.00000000000E+00 0.  1.
         25    1    1    2    0    0  0.14205437820E+02 -0.83857876818E+02  0.26688687050E+03  0.30673692248E+03  0.12500000000E+03 0.  0.
         25    1    1    2    0    0  0.28438882427E+02  0.10337516539E+03  0.94559990806E+01  0.16495335938E+03  0.12500000000E+03 0.  0.
         25    1    1    2    0    0 -0.42644320247E+02 -0.19517288572E+02 -0.55725925281E+02  0.14467149460E+03  0.12500000000E+03 0.  0.
</event>
<event>
 5    0  0.5452999E-005  0.2940015E+03  0.7546771E-02  0.1088278E+00
         21   -1    0    0  502  501  0.00000000000E+00  0.00000000000E+00  0.41160012874E+02  0.41160012874E+02  0.00000000000E+00 0.  1.
         21   -1    0    0  501  502 -0.00000000000E+00 -0.00000000000E+00 -0.21000201544E+04  0.21000201544E+04  0.00000000000E+00 0.  1.
         25    1    1    2    0    0 -0.27035592997E+02 -0.27221747625E+02 -0.35838301570E+03  0.38149093407E+03  0.12500000000E+03 0.  0.
         25    1    1    2    0    0  0.18382294022E+03  0.91157202445E+02 -0.82528577670E+03  0.85954762645E+03  0.12500000000E+03 0.  0.
         25    1    1    2    0    0 -0.15678734723E+03 -0.63935454821E+02 -0.87519134909E+03  0.90014160673E+03  0.12500000000E+03 0.  0.
</event>
<event>
 5    0  0.5452999E-005  0.3227151E+03  0.7546771E-02  0.1074406E+00
         21   -1    0    0  502  501  0.00000000000E+00  0.00000000000E+00  0.32051070202E+03  0.32051070202E+03  0.00000000000E+00 0.  1.
         21   -1    0    0  501  502 -0.00000000000E+00 -0.00000000000E+00 -0.32493458172E+03  0.32493458172E+03  0.00000000000E+00 0.  1.
         25    1    1    2    0    0  0.91367636679E+02  0.12719691009E+03 -0.26374982674E+00  0.20038006021E+03  0.12500000000E+03 0.  0.
         25    1    1    2    0    0  0.67868574737E+02 -0.14000519964E+03  0.92962605464E+02  0.22016958323E+03  0.12500000000E+03 0.  0.
         25    1    1    2    0    0 -0.15923621142E+03  0.12808289559E+02 -0.97122735332E+02  0.22489564030E+03  0.12500000000E+03 0.  0.
</event>
<event>
 5    0  0.5452999E-005  0.2828261E+03  0.7546771E-02  0.1094155E+00
         21   -1    0    0  502  501  0.00000000000E+00  0.00000000000E+00  0.42694712581E+03  0.42694712581E+03  0.00000000000E+00 0.  1.
         21   -1    0    0  501  502 -0.00000000000E+00 -0.00000000000E+00 -0.18735477505E+03  0.18735477505E+03  0.00000000000E+00 0.  1.
         25    1    1    2    0    0 -0.26109531391E+02  0.98036899469E+02  0.56376873830E+02  0.17057635589E+03  0.12500000000E+03 0.  0.
         25    1    1    2    0    0  0.11850415991E+02 -0.24907053649E+01  0.24402699645E+03  0.27444637175E+03  0.12500000000E+03 0.  0.
         25    1    1    2    0    0  0.14259115400E+02 -0.95546194104E+02 -0.60811519520E+02  0.16927917322E+03  0.12500000000E+03 0.  0.
</event>
<event>
 5    0  0.5452999E-005  0.3403350E+03  0.7546771E-02  0.1066653E+00
         21   -1    0    0  502  501  0.00000000000E+00  0.00000000000E+00  0.43158860026E+02  0.43158860026E+02  0.00000000000E+00 0. -1.
         21   -1    0    0  501  502 -0.00000000000E+00 -0.00000000000E+00 -0.26837566886E+04  0.26837566886E+04  0.00000000000E+00 0. -1.
         25    1    1    2    0    0 -0.26771225422E+03 -0.25369429803E+02 -0.12034038358E+04  0.12394027800E+04  0.12500000000E+03 0.  0.
         25    1    1    2    0    0  0.81050329286E+02  0.51103754630E+02 -0.59438014674E+03  0.61489308701E+03  0.12500000000E+03 0.  0.
         25    1    1    2    0    0  0.18666192493E+03 -0.25734324827E+02 -0.84281384597E+03  0.87261968157E+03  0.12500000000E+03 0.  0.
</event>
<event>
 5    0  0.5523675E-005  0.2954223E+03  0.7546771E-02  0.1087552E+00
         21   -1    0    0  502  501  0.00000000000E+00  0.00000000000E+00  0.41016518459E+03  0.41016518459E+03  0.00000000000E+00 0. -1.
         21   -1    0    0  501  502 -0.00000000000E+00 -0.00000000000E+00 -0.21277855095E+03  0.21277855095E+03  0.00000000000E+00 0.  1.
         25    1    1    2    0    0 -0.12868336718E+03 -0.74048094056E+02  0.16644819106E+03  0.25568052239E+03  0.12500000000E+03 0.  0.
         25    1    1    2    0    0 -0.13362987864E+02  0.66438113524E+02 -0.63417798676E+02  0.15569010746E+03  0.12500000000E+03 0.  0.
         25    1    1    2    0    0  0.14204635505E+03  0.76099805320E+01  0.94356241255E+02  0.21157310569E+03  0.12500000000E+03 0.  0.
</event>
<event>
 5    0  0.5452999E-005  0.2677689E+03  0.7546771E-02  0.1102563E+00
         21   -1    0    0  502  501  0.00000000000E+00  0.00000000000E+00  0.11441521491E+03  0.11441521491E+03  0.00000000000E+00 0. -1.
         21   -1    0    0  501  502 -0.00000000000E+00 -0.00000000000E+00 -0.62666645262E+03  0.62666645262E+03  0.00000000000E+00 0. -1.
         25    1    1    2    0    0  0.91956728202E+02  0.79236127785E+01 -0.24461555710E+03  0.28979405493E+03  0.12500000000E+03 0.  0.
         25    1    1    2    0    0 -0.40519772106E+02 -0.52328843009E+02 -0.27455224292E+03  0.30884315410E+03  0.12500000000E+03 0.  0.
         25    1    1    2    0    0 -0.51436956096E+02  0.44405230230E+02  0.69165623023E+01  0.14244445850E+03  0.12500000000E+03 0.  0.
</event>
<event>
 5    0  0.5452999E-005  0.4185486E+03  0.7546771E-02  0.1037540E+00
         21   -1    0    0  502  501  0.00000000000E+00  0.00000000000E+00  0.51975472199E+03  0.51975472199E+03  0.00000000000E+00 0.  1.
         21   -1    0    0  501  502 -0.00000000000E+00 -0.00000000000E+00 -0.33704925157E+03  0.33704925157E+03  0.00000000000E+00 0.  1.
         25    1    1    2    0    0  0.11017013491E+01 -0.24465336148E+03  0.66976047259E+02  0.28278485096E+03  0.12500000000E+03 0.  0.
         25    1    1    2    0    0 -0.98416643052E+02 -0.88693290301E+02  0.92313547838E+02  0.20420363975E+03  0.12500000000E+03 0.  0.
         25    1    1    2    0    0  0.97314941703E+02  0.33334665178E+03  0.23415875327E+02  0.36981548284E+03  0.12500000000E+03 0.  0.
</event>
<event>
 5    0  0.5452999E-005  0.3078935E+03  0.7546771E-02  0.1081360E+00
         21   -1    0    0  502  501  0.00000000000E+00  0.00000000000E+00  0.51554759308E+03  0.51554759308E+03  0.00000000000E+00 0.  1.
         21   -1    0    0  501  502 -0.00000000000E+00 -0.00000000000E+00 -0.18387908366E+03  0.18387908366E+03  0.00000000000E+00 0.  1.
         25    1    1    2    0    0 -0.18638440984E+01  0.28304627449E+02  0.28700030290E+03  0.31432276360E+03  0.12500000000E+03 0.  0.
         25    1    1    2    0    0 -0.28564590899E+02 -0.13558016472E+03 -0.49336950473E+02  0.19302085794E+03  0.12500000000E+03 0.  0.
         25    1    1    2    0    0  0.30428434997E+02  0.10727553727E+03  0.94005157000E+02  0.19208305520E+03  0.12500000000E+03 0.  0.
</event>
<event>
 5    0  0.5452999E-005  0.2955330E+03  0.7546771E-02  0.1087495E+00
         21   -1    0    0  502  501  0.00000000000E+00  0.00000000000E+00  0.91416541260E+02  0.91416541260E+02  0.00000000000E+00 0.  1.
         21   -1    0    0  501  502 -0.00000000000E+00 -0.00000000000E+00 -0.95540416568E+03  0.95540416568E+03  0.00000000000E+00 0.  1.
         25    1    1    2    0    0  0.48059623480E+02 -0.18927642960E+03 -0.27180188146E+03  0.35726258827E+03  0.12500000000E+03 0.  0.
         25    1    1    2    0    0 -0.90262937372E+02  0.11270531900E+03 -0.24744617206E+03  0.31257718224E+03  0.12500000000E+03 0.  0.
         25    1    1    2    0    0  0.42203313892E+02  0.76571110606E+02 -0.34473957089E+03  0.37698093642E+03  0.12500000000E+03 0.  0.
</event>
<event>
 5    0  0.5452999E-005  0.2441664E+03  0.7546771E-02  0.1117048E+00
         21   -1    0    0  502  501  0.00000000000E+00  0.00000000000E+00  0.62767959539E+03  0.62767959539E+03  0.00000000000E+00 0.  1.
         21   -1    0    0  501  502 -0.00000000000E+00 -0.00000000000E+00 -0.94980353164E+02  0.94980353164E+02  0.00000000000E+00 0.  1.
         25    1    1    2    0    0 -0.84616566019E+02  0.59569938327E+01  0.10437115920E+03  0.18361314739E+03  0.12500000000E+03 0.  0.
         25    1    1    2    0    0  0.12153466491E+03 -0.50907033047E+02  0.18423433352E+03  0.25870734515E+03  0.12500000000E+03 0.  0.
         25    1    1    2    0    0 -0.36918098891E+02  0.44950039214E+02  0.24409374950E+03  0.28033945601E+03  0.12500000000E+03 0.  0.
</event>
<event>
 5    0  0.5452999E-005  0.3571686E+03  0.7546771E-02  0.1059711E+00
         21   -1    0    0  502  501  0.00000000000E+00  0.00000000000E+00  0.23759358204E+03  0.23759358204E+03  0.00000000000E+00 0.  1.
         21   -1    0    0  501  502 -0.00000000000E+00 -0.00000000000E+00 -0.53692291415E+03  0.53692291415E+03  0.00000000000E+00 0.  1.
         25    1    1    2    0    0 -0.44863620296E+02  0.15784321496E+03 -0.38742543913E+03  0.43891991959E+03  0.12500000000E+03 0.  0.
         25    1    1    2    0    0  0.83611819202E+02 -0.71422384014E+02  0.54814394985E+02  0.17527609976E+03  0.12500000000E+03 0.  0.
         25    1    1    2    0    0 -0.38748198906E+02 -0.86420830945E+02  0.33281712026E+02  0.16032047684E+03  0.12500000000E+03 0.  0.
</event>
<event>
 5    0  0.5452999E-005  0.5724610E+03  0.7546771E-02  0.9964248E-01
         21   -1    0    0  502  501  0.00000000000E+00  0.00000000000E+00  0.68858506682E+03  0.68858506682E+03  0.00000000000E+00 0. -1.
         21   -1    0    0  501  502 -0.00000000000E+00 -0.00000000000E+00 -0.47592025687E+03  0.47592025687E+03  0.00000000000E+00 0. -1.
         25    1    1    2    0    0  0.51937598557E+03 -0.43601228072E+02  0.49370948892E+02  0.53825177387E+03  0.12500000000E+03 0.  0.
         25    1    1    2    0    0 -0.19675665042E+03  0.79870196980E+02  0.11451181915E+02  0.24667500363E+03  0.12500000000E+03 0.  0.
         25    1    1    2    0    0 -0.32261933515E+03 -0.36268968908E+02  0.15184267914E+03  0.37957854619E+03  0.12500000000E+03 0.  0.
</event>
<event>
 5    0  0.5452999E-005  0.3272722E+03  0.7546771E-02  0.1072350E+00
         21   -1    0    0  502  501  0.00000000000E+00  0.00000000000E+00  0.51098548561E+03  0.51098548561E+03  0.00000000000E+00 0.  1.
         21   -1    0    0  501  502 -0.00000000000E+00 -0.00000000000E+00 -0.20960889453E+03  0.20960889453E+03  0.00000000000E+00 0.  1.
         25    1    1    2    0    0 -0.23841711285E+03  0.10140012284E+02  0.10385585691E+03  0.28871539371E+03  0.12500000000E+03 0.  0.
         25    1    1    2    0    0  0.71076501696E+02  0.56636096764E+02  0.33755983633E+02  0.15818970567E+03  0.12500000000E+03 0.  0.
         25    1    1    2    0    0  0.16734061115E+03 -0.66776109048E+02  0.16376475054E+03  0.27368928076E+03  0.12500000000E+03 0.  0.
</event>
<event>
 5    0  0.5452999E-005  0.2934249E+03  0.7546771E-02  0.1088574E+00
         21   -1    0    0  502  501  0.00000000000E+00  0.00000000000E+00  0.20841099293E+04  0.20841099293E+04  0.00000000000E+00 0. -1.
         21   -1    0    0  501  502 -0.00000000000E+00 -0.00000000000E+00 -0.41311715131E+02  0.41311715131E+02  0.00000000000E+00 0. -1.
         25    1    1    2    0    0 -0.19424668658E+03  0.31789385142E+00  0.90562077904E+03  0.93461536031E+03  0.12500000000E+03 0.  0.
         25    1    1    2    0    0  0.39742387794E+02 -0.29411545827E+01  0.67614300378E+03  0.68875428808E+03  0.12500000000E+03 0.  0.
         25    1    1    2    0    0  0.15450429879E+03  0.26232607313E+01  0.46103443131E+03  0.50205199600E+03  0.12500000000E+03 0.  0.
</event>
<event>
 5    0  0.5452999E-005  0.2490929E+03  0.7546771E-02  0.1113879E+00
         21   -1    0    0  502  501  0.00000000000E+00  0.00000000000E+00  0.10626456919E+03  0.10626456919E+03  0.00000000000E+00 0. -1.
         21   -1    0    0  501  502 -0.00000000000E+00 -0.00000000000E+00 -0.58389440988E+03  0.58389440988E+03  0.00000000000E+00 0. -1.
         25    1    1    2    0    0  0.75305273986E+02 -0.95660971608E+02 -0.75083675839E+02  0.18995911180E+03  0.12500000000E+03 0.  0.
         25    1    1    2    0    0 -0.47146366209E+02  0.10052127266E+03 -0.25242433168E+03  0.30277111706E+03  0.12500000000E+03 0.  0.
         25    1    1    2    0    0 -0.28158907778E+02 -0.48603010497E+01 -0.15012183317E+03  0.19742875021E+03  0.12500000000E+03 0.  0.
</event>
<event>
 5    0  0.5452999E-005  0.3251141E+03  0.7546771E-02  0.1073319E+00
         21   -1    0    0  502  501  0.00000000000E+00  0.00000000000E+00  0.81953801534E+03  0.81953801534E+03  0.00000000000E+00 0. -1.
         21   -1    0    0  501  502 -0.00000000000E+00 -0.00000000000E+00 -0.12897406212E+03  0.12897406212E+03  0.00000000000E+00 0. -1.
         25    1    1    2    0    0 -0.14669675850E+03  0.61022123026E+02  0.47734002230E+03  0.51838415808E+03  0.12500000000E+03 0.  0.
         25    1    1    2    0    0 -0.33314148214E+02  0.18232369118E+02  0.12538971456E+03  0.18107962965E+03  0.12500000000E+03 0.  0.
         25    1    1    2    0    0  0.18001090671E+03 -0.79254492143E+02  0.87834216353E+02  0.24904828974E+03  0.12500000000E+03 0.  0.
</event>
<event>
 5    0  0.5452999E-005  0.2519527E+03  0.7546771E-02  0.1112077E+00
         21   -1    0    0  502  501  0.00000000000E+00  0.00000000000E+00  0.70316380659E+03  0.70316380659E+03  0.00000000000E+00 0. -1.
         21   -1    0    0  501  502 -0.00000000000E+00 -0.00000000000E+00 -0.90277922251E+02  0.90277922251E+02  0.00000000000E+00 0. -1.
         25    1    1    2    0    0 -0.14401000173E+03 -0.18938473382E+02  0.27072000847E+03  0.33168037229E+03  0.12500000000E+03 0.  0.
         25    1    1    2    0    0  0.23608872696E+02  0.40554429798E+02  0.17202084926E+03  0.21775723462E+03  0.12500000000E+03 0.  0.
         25    1    1    2    0    0  0.12040112904E+03 -0.21615956416E+02  0.17014502660E+03  0.24400412193E+03  0.12500000000E+03 0.  0.
</event>
<event>
 5    0  0.5452999E-005  0.3905083E+03  0.7546771E-02  0.1047117E+00
         21   -1    0    0  502  501  0.00000000000E+00  0.00000000000E+00  0.41034292564E+03  0.41034292564E+03  0.00000000000E+00 0. -1.
         21   -1    0    0  501  502 -0.00000000000E+00 -0.00000000000E+00 -0.37163235488E+03  0.37163235488E+03  0.00000000000E+00 0. -1.
         25    1    1    2    0    0 -0.16160961210E+03 -0.87713587778E+02 -0.14129166715E+03  0.26343818138E+03  0.12500000000E+03 0.  0.
         25    1    1    2    0    0 -0.46784128496E+02  0.17627532869E+03  0.40877305004E+02  0.22485039526E+03  0.12500000000E+03 0.  0.
         25    1    1    2    0    0  0.20839374060E+03 -0.88561740916E+02  0.13912493291E+03  0.29368670387E+03  0.12500000000E+03 0.  0.
</event>
<event>
 5    0  0.5452999E-005  0.3617367E+03  0.7546771E-02  0.1057898E+00
         21   -1    0    0  502  501  0.00000000000E+00  0.00000000000E+00  0.24559511511E+03  0.24559511511E+03  0.00000000000E+00 0. -1.
         21   -1    0    0  501  502 -0.00000000000E+00 -0.00000000000E+00 -0.53280155105E+03  0.53280155105E+03  0.00000000000E+00 0. -1.
         25    1    1    2    0    0  0.19596924053E+03 -0.95650061476E+02 -0.11502394396E+03  0.27642066706E+03  0.12500000000E+03 0.  0.
         25    1    1    2    0    0 -0.42756892117E+02  0.18118596298E+03 -0.17824465473E+03  0.28644835825E+03  0.12500000000E+03 0.  0.
         25    1    1    2    0    0 -0.15321234841E+03 -0.85535901504E+02  0.60621627552E+01  0.21552764085E+03  0.12500000000E+03 0.  0.
</event>
<event>
 5    0  0.5452999E-005  0.4096194E+03  0.7546771E-02  0.1040499E+00
         21   -1    0    0  502  501  0.00000000000E+00  0.00000000000E+00  0.14171415286E+03  0.14171415286E+03  0.00000000000E+00 0. -1.
         21   -1    0    0  501  502 -0.00000000000E+00 -0.00000000000E+00 -0.11839893522E+04  0.11839893522E+04  0.00000000000E+00 0. -1.
         25    1    1    2    0    0 -0.85898176586E+02 -0.17778880414E+02  0.52801214835E+02  0.16157832038E+03  0.12500000000E+03 0.  0.
         25    1    1    2    0    0  0.14458938358E+00  0.86219050831E+02 -0.87601406376E+03  0.88907782873E+03  0.12500000000E+03 0.  0.
         25    1    1    2    0    0  0.85753587203E+02 -0.68440170417E+02 -0.21906235045E+03  0.27504735597E+03  0.12500000000E+03 0.  0.
</event>
<event>
 5    0  0.5452999E-005  0.3534867E+03  0.7546771E-02  0.1061193E+00
         21   -1    0    0  502  501  0.00000000000E+00  0.00000000000E+00  0.45565524683E+03  0.45565524683E+03  0.00000000000E+00 0.  1.
         21   -1    0    0  501  502 -0.00000000000E+00 -0.00000000000E+00 -0.27422669548E+03  0.27422669548E+03  0.00000000000E+00 0.  1.
         25    1    1    2    0    0 -0.18722366575E+03  0.18404062424E+03  0.78821893167E+01  0.29087932428E+03  0.12500000000E+03 0.  0.
         25    1    1    2    0    0  0.61636030400E+02 -0.17212278222E+03  0.64792775427E+02  0.23075605333E+03  0.12500000000E+03 0.  0.
         25    1    1    2    0    0  0.12558763535E+03 -0.11917842021E+02  0.10875358660E+03  0.20824656470E+03  0.12500000000E+03 0.  0.
</event>
<event>
 5    0  0.5452999E-005  0.2939528E+03  0.7546771E-02  0.1088303E+00
         21   -1    0    0  502  501  0.00000000000E+00  0.00000000000E+00  0.59702345043E+03  0.59702345043E+03  0.00000000000E+00 0. -1.
         21   -1    0    0  501  502 -0.00000000000E+00 -0.00000000000E+00 -0.14473174988E+03  0.14473174988E+03  0.00000000000E+00 0. -1.
         25    1    1    2    0    0 -0.54527473278E+02  0.10830910117E+03  0.38004588398E+03  0.41804782103E+03  0.12500000000E+03 0.  0.
         25    1    1    2    0    0  0.24845520126E+02  0.77257806296E+01  0.79552168826E+02  0.15043448781E+03  0.12500000000E+03 0.  0.
         25    1    1    2    0    0  0.29681953152E+02 -0.11603488180E+03 -0.73063522639E+01  0.17327289147E+03  0.12500000000E+03 0.  0.
</event>
<event>
 5    0  0.5452999E-005  0.3038316E+03  0.7546771E-02  0.1083341E+00
         21   -1    0    0  502  501  0.00000000000E+00  0.00000000000E+00  0.15560472227E+03  0.15560472227E+03  0.00000000000E+00 0. -1.
         21   -1    0    0  501  502 -0.00000000000E+00 -0.00000000000E+00 -0.59325729206E+03  0.59325729206E+03  0.00000000000E+00 0. -1.
         25    1    1    2    0    0 -0.47133852066E+02 -0.11608200563E+03  0.34353454033E+02  0.18028253339E+03  0.12500000000E+03 0.  0.
         25    1    1    2    0    0  0.55591158936E+01  0.12576693659E+03 -0.32982943208E+03  0.37451392547E+03  0.12500000000E+03 0.  0.
         25    1    1    2    0    0  0.41574736172E+02 -0.96849309637E+01 -0.14217659175E+03  0.19406555546E+03  0.12500000000E+03 0.  0.
</event>
<event>
 5    0  0.5452999E-005  0.4927696E+03  0.7546771E-02  0.1015684E+00
         21   -1    0    0  502  501  0.00000000000E+00  0.00000000000E+00  0.15036951082E+03  0.15036951082E+03  0.00000000000E+00 0. -1.
         21   -1    0    0  501  502 -0.00000000000E+00 -0.00000000000E+00 -0.16148343895E+04  0.16148343895E+04  0.00000000000E+00 0. -1.
         25    1    1    2    0    0  0.23921718804E+02 -0.10220781656E+03 -0.12029449000E+01  0.16323337120E+03  0.12500000000E+03 0.  0.
         25    1    1    2    0    0  0.69755797005E+02 -0.19816682113E+03 -0.28229753281E+03  0.37343387265E+03  0.12500000000E+03 0.  0.
         25    1    1    2    0    0 -0.93677515810E+02  0.30037463769E+03 -0.11809644010E+04  0.12285366565E+04  0.12500000000E+03 0.  0.
</event>
<event>
 5    0  0.5452999E-005  0.4208166E+03  0.7546771E-02  0.1036801E+00
         21   -1    0    0  502  501  0.00000000000E+00  0.00000000000E+00  0.15897449821E+03  0.15897449821E+03  0.00000000000E+00 0. -1.
         21   -1    0    0  501  502 -0.00000000000E+00 -0.00000000000E+00 -0.11139310203E+04  0.11139310203E+04  0.00000000000E+00 0. -1.
         25    1    1    2    0    0 -0.19728960766E+03 -0.25555139330E+03 -0.44849194821E+03  0.56656838203E+03  0.12500000000E+03 0.  0.
         25    1    1    2    0    0 -0.20438611081E+02 -0.96951989700E+01 -0.12464759794E+03  0.17797122627E+03  0.12500000000E+03 0.  0.
         25    1    1    2    0    0  0.21772821874E+03  0.26524659227E+03 -0.38181697590E+03  0.52836591017E+03  0.12500000000E+03 0.  0.
</event>
<event>
 5    0  0.5452999E-005  0.5285476E+03  0.7546771E-02  0.1006585E+00
         21   -1    0    0  502  501  0.00000000000E+00  0.00000000000E+00  0.79829605781E+03  0.79829605781E+03  0.00000000000E+00 0. -1.
         21   -1    0    0  501  502 -0.00000000000E+00 -0.00000000000E+00 -0.34994861278E+03  0.34994861278E+03  0.00000000000E+00 0.  1.
         25    1    1    2    0    0 -0.20497448161E+03  0.24782103567E+03  0.68187135664E+02  0.35171620563E+03  0.12500000000E+03 0.  0.
         25    1    1    2    0    0  0.15255494623E+03 -0.34781658822E+03  0.21659650472E+02  0.40042918365E+03  0.12500000000E+03 0.  0.
         25    1    1    2    0    0  0.52419535387E+02  0.99995552550E+02  0.35850065890E+03  0.39609928131E+03  0.12500000000E+03 0.  0.
</event>
<event>
 5    0  0.5452999E-005  0.2715967E+03  0.7546771E-02  0.1100369E+00
         21   -1    0    0  502  501  0.00000000000E+00  0.00000000000E+00  0.39414383059E+03  0.39414383059E+03  0.00000000000E+00 0. -1.
         21   -1    0    0  501  502 -0.00000000000E+00 -0.00000000000E+00 -0.18715194464E+03  0.18715194464E+03  0.00000000000E+00 0. -1.
         25    1    1    2    0    0  0.13944875086E+03  0.73896213222E+02  0.48493480295E+02  0.20708264552E+03  0.12500000000E+03 0.  0.
         25    1    1    2    0    0 -0.14328898210E+03 -0.47650953466E+01  0.12449367518E+03  0.22732820697E+03  0.12500000000E+03 0.  0.
         25    1    1    2    0    0  0.38402312340E+01 -0.69131117875E+02  0.34004730476E+02  0.14688492274E+03  0.12500000000E+03 0.  0.
</event>
<event>
 5    0  0.5452999E-005  0.2518968E+03  0.7546771E-02  0.1112112E+00
         21   -1    0    0  502  501  0.00000000000E+00  0.00000000000E+00  0.45320583412E+03  0.45320583412E+03  0.00000000000E+00 0. -1.
         21   -1    0    0  501  502 -0.00000000000E+00 -0.00000000000E+00 -0.14000699958E+03  0.14000699958E+03  0.00000000000E+00 0. -1.
         25    1    1    2    0    0 -0.83013949678E+02 -0.34201526781E+02  0.80221549087E+02  0.17355563147E+03  0.12500000000E+03 0.  0.
         25    1    1    2    0    0  0.10739811857E+02 -0.53164427842E+02  0.20857315655E+03  0.24913763581E+03  0.12500000000E+03 0.  0.
         25    1    1    2    0    0  0.72274137822E+02  0.87365954622E+02  0.24404128896E+02  0.17051956642E+03  0.12500000000E+03 0.  0.
</event>
<event>
 5    0  0.5452999E-005  0.4742010E+03  0.7546771E-02  0.1020741E+00
         21   -1    0    0  502  501  0.00000000000E+00  0.00000000000E+00  0.14718819484E+03  0.14718819484E+03  0.00000000000E+00 0.  1.
         21   -1    0    0  501  502 -0.00000000000E+00 -0.00000000000E+00 -0.15277486572E+04  0.15277486572E+04  0.00000000000E+00 0.  1.
         25    1    1    2    0    0  0.33497052366E+02  0.98020012936E+02 -0.13273194398E+03  0.20969679160E+03  0.12500000000E+03 0.  0.
         25    1    1    2    0    0 -0.28933595824E+03 -0.24650731855E+03 -0.93455574186E+03  0.10166123103E+04  0.12500000000E+03 0.  0.
         25    1    1    2    0    0  0.25583890587E+03  0.14848730562E+03 -0.31327277657E+03  0.44862775017E+03  0.12500000000E+03 0.  0.
</event>
<event>
 5    0  0.5452999E-005  0.2251089E+03  0.7546771E-02  0.1130131E+00
         21   -1    0    0  502  501  0.00000000000E+00  0.00000000000E+00  0.85369130589E+03  0.85369130589E+03  0.00000000000E+00 0.  1.
         21   -1    0    0  501  502 -0.00000000000E+00 -0.00000000000E+00 -0.59358687564E+02  0.59358687564E+02  0.00000000000E+00 0.  1.
         25    1    1    2    0    0  0.34909805502E+02 -0.82536412419E+02  0.40361085335E+03  0.43192322794E+03  0.12500000000E+03 0.  0.
         25    1    1    2    0    0  0.10900058303E+02  0.73539478408E+02  0.23140895117E+03  0.27331660915E+03  0.12500000000E+03 0.  0.
         25    1    1    2    0    0 -0.45809863804E+02  0.89969340102E+01  0.15931281381E+03  0.20781015636E+03  0.12500000000E+03 0.  0.
</event>
<event>
 5    0  0.5452999E-005  0.4721481E+03  0.7546771E-02  0.1021316E+00
         21   -1    0    0  502  501  0.00000000000E+00  0.00000000000E+00  0.46471991232E+03  0.46471991232E+03  0.00000000000E+00 0. -1.
         21   -1    0    0  501  502 -0.00000000000E+00 -0.00000000000E+00 -0.47969511691E+03  0.47969511691E+03  0.00000000000E+00 0. -1.
         25    1    1    2    0    0 -0.16893027514E+03  0.26453645533E+02 -0.14537117457E+03  0.25689494276E+03  0.12500000000E+03 0.  0.
         25    1    1    2    0    0 -0.69129788788E+02  0.14659912344E+03 -0.15670754167E+03  0.25778379373E+03  0.12500000000E+03 0.  0.
         25    1    1    2    0    0  0.23806006393E+03 -0.17305276898E+03  0.28710351165E+03  0.42973629273E+03  0.12500000000E+03 0.  0.
</event>
<event>
 5    0  0.5481436E-005  0.3589207E+03  0.7546771E-02  0.1059012E+00
         21   -1    0    0  502  501  0.00000000000E+00  0.00000000000E+00  0.29436986697E+03  0.29436986697E+03  0.00000000000E+00 0.  1.
         21   -1    0    0  501  502 -0.00000000000E+00 -0.00000000000E+00 -0.43762655560E+03  0.43762655560E+03  0.00000000000E+00 0.  1.
         25    1    1    2    0    0 -0.14774638230E+03  0.14459092823E+03 -0.23465691555E+03  0.33678538867E+03  0.12500000000E+03 0.  0.
         25    1    1    2    0    0  0.15643707453E+03 -0.12888383806E+03 -0.19956995463E+01  0.23814404216E+03  0.12500000000E+03 0.  0.
         25    1    1    2    0    0 -0.86906922320E+01 -0.15707090163E+02  0.93395926465E+02  0.15706699174E+03  0.12500000000E+03 0.  0.
</event>
<event>
 5    0  0.5452999E-005  0.2573882E+03  0.7546771E-02  0.1108723E+00
         21   -1    0    0  502  501  0.00000000000E+00  0.00000000000E+00  0.22428779405E+03  0.22428779405E+03  0.00000000000E+00 0.  1.
         21   -1    0    0  501  502 -0.00000000000E+00 -0.00000000000E+00 -0.29537367893E+03  0.29537367893E+03  0.00000000000E+00 0.  1.
         25    1    1    2    0    0  0.10482159370E+03 -0.61041883902E+02 -0.32563062457E+02  0.17719771763E+03  0.12500000000E+03 0.  0.
         25    1    1    2    0    0 -0.63347975934E+02  0.81210657206E+02 -0.10554447903E+03  0.19332039197E+03  0.12500000000E+03 0.  0.
         25    1    1    2    0    0 -0.41473617763E+02 -0.20168773304E+02  0.67021656607E+02  0.14914336338E+03  0.12500000000E+03 0.  0.
</event>
<event>
 5    0  0.5452999E-005  0.2421126E+03  0.7546771E-02  0.1118393E+00
         21   -1    0    0  502  501  0.00000000000E+00  0.00000000000E+00  0.11749241893E+04  0.11749241893E+04  0.00000000000E+00 0.  1.
         21   -1    0    0  501  502 -0.00000000000E+00 -0.00000000000E+00 -0.49891315357E+02  0.49891315357E+02  0.00000000000E+00 0.  1.
         25    1    1    2    0    0  0.36582218532E+02 -0.33853681820E+02  0.15589631388E+03  0.20594414574E+03  0.12500000000E+03 0.  0.
         25    1    1    2    0    0 -0.28225413744E+02  0.54131583706E+02  0.77188477740E+03  0.78432009531E+03  0.12500000000E+03 0.  0.
         25    1    1    2    0    0 -0.83568047885E+01 -0.20277901886E+02  0.19725178268E+03  0.23455126361E+03  0.12500000000E+03 0.  0.
</event>
<event>
 5    0  0.5452999E-005  0.3793177E+03  0.7546771E-02  0.1051186E+00
         21   -1    0    0  502  501  0.00000000000E+00  0.00000000000E+00  0.60932233354E+02  0.60932233354E+02  0.00000000000E+00 0.  1.
         21   -1    0    0  501  502 -0.00000000000E+00 -0.00000000000E+00 -0.23613431326E+04  0.23613431326E+04  0.00000000000E+00 0.  1.
         25    1    1    2    0    0 -0.71703231396E+02 -0.26198772175E+03 -0.10078465363E+04  0.10512652189E+04  0.12500000000E+03 0.  0.
         25    1    1    2    0    0 -0.33527523146E+02  0.14063594457E+03 -0.97689176902E+03  0.99541202128E+03  0.12500000000E+03 0.  0.
         25    1    1    2    0    0  0.10523075454E+03  0.12135177718E+03 -0.31567259387E+03  0.37559812572E+03  0.12500000000E+03 0.  0.
</event>
<event>
 5    0  0.5452999E-005  0.3862932E+03  0.7546771E-02  0.1048632E+00
         21   -1    0    0  502  501  0.00000000000E+00  0.00000000000E+00  0.44875514714E+03  0.44875514714E+03  0.00000000000E+00 0.  1.
         21   -1    0    0  501  502 -0.00000000000E+00 -0.00000000000E+00 -0.33252531736E+03  0.33252531736E+03  0.00000000000E+00 0.  1.
         25    1    1    2    0    0  0.12050745236E+03  0.40707979155E+02  0.88340845118E+02  0.19901831714E+03  0.12500000000E+03 0.  0.
         25    1    1    2    0    0 -0.28789693783E+03  0.93665992966E+02  0.55953667162E+02  0.33228568720E+03  0.12500000000E+03 0.  0.
         25    1    1    2    0    0  0.16738948547E+03 -0.13437397212E+03 -0.28064682507E+02  0.24997646016E+03  0.12500000000E+03 0.  0.
</event>
<event>
 5    0  0.5588370E-005  0.3580059E+03  0.7546771E-02  0.1059376E+00
         21   -1    0    0  502  501  0.00000000000E+00  0.00000000000E+00  0.11431691710E+03  0.11431691710E+03  0.00000000000E+00 0. -1.
         21   -1    0    0  501  502 -0.00000000000E+00 -0.00000000000E+00 -0.11211659233E+04  0.11211659233E+04  0.00000000000E+00 0. -1.
         25    1    1    2    0    0  0.26024205324E+02 -0.25655177937E+02 -0.39023086323E+02  0.13595311208E+03  0.12500000000E+03 0.  0.
         25    1    1    2    0    0  0.67202377611E+02 -0.11456329395E+03 -0.82712161784E+03  0.84699237220E+03  0.12500000000E+03 0.  0.
         25    1    1    2    0    0 -0.93226582935E+02  0.14021847188E+03 -0.14070430206E+03  0.25253735613E+03  0.12500000000E+03 0.  0.
</event>
<event>
 5    0  0.5452999E-005  0.2668025E+03  0.7546771E-02  0.1103124E+00
         21   -1    0    0  502  501  0.00000000000E+00  0.00000000000E+00  0.58894417196E+03  0.58894417196E+03  0.00000000000E+00 0.  1.
         21   -1    0    0  501  502 -0.00000000000E+00 -0.00000000000E+00 -0.12086639824E+03  0.12086639824E+03  0.00000000000E+00 0.  1.
         25    1    1    2    0    0 -0.10887857968E+03 -0.29461619801E+02  0.73658236706E+02  0.18377450310E+03  0.12500000000E+03 0.  0.
         25    1    1    2    0    0  0.21198590264E+02  0.11180909605E+03  0.24148648885E+03  0.29477343585E+03  0.12500000000E+03 0.  0.
         25    1    1    2    0    0  0.87679989414E+02 -0.82347476250E+02  0.15293304817E+03  0.23126263125E+03  0.12500000000E+03 0.  0.
</event>
<event>
 5    0  0.5452999E-005  0.4597849E+03  0.7546771E-02  0.1024844E+00
         21   -1    0    0  502  501  0.00000000000E+00  0.00000000000E+00  0.29925804393E+03  0.29925804393E+03  0.00000000000E+00 0. -1.
         21   -1    0    0  501  502 -0.00000000000E+00 -0.00000000000E+00 -0.70642087660E+03  0.70642087660E+03  0.00000000000E+00 0. -1.
         25    1    1    2    0    0  0.36394377464E+02  0.27556733442E+02 -0.13559240745E+03  0.18998480262E+03  0.12500000000E+03 0.  0.
         25    1    1    2    0    0  0.31053952645E+02 -0.97577510548E+02 -0.50690677708E+03  0.53203871964E+03  0.12500000000E+03 0.  0.
         25    1    1    2    0    0 -0.67448330109E+02  0.70020777106E+02  0.23533635186E+03  0.28365539827E+03  0.12500000000E+03 0.  0.
</event>
<event>
 5    0  0.5452999E-005  0.2861303E+03  0.7546771E-02  0.1092387E+00
         21   -1    0    0  502  501  0.00000000000E+00  0.00000000000E+00  0.26417146760E+03  0.26417146760E+03  0.00000000000E+00 0. -1.
         21   -1    0    0  501  502 -0.00000000000E+00 -0.00000000000E+00 -0.30991441448E+03  0.30991441448E+03  0.00000000000E+00 0. -1.
         25    1    1    2    0    0 -0.15252992756E+03 -0.41936972223E+01 -0.22907473521E+02  0.19857673137E+03  0.12500000000E+03 0.  0.
         25    1    1    2    0    0  0.10620500650E+03 -0.66257537087E+02  0.78814657010E+02  0.19366547133E+03  0.12500000000E+03 0.  0.
         25    1    1    2    0    0  0.46324921057E+02  0.70451234310E+02 -0.10165013037E+03  0.18184367938E+03  0.12500000000E+03 0.  0.
</event>
<event>
 5    0  0.5452999E-005  0.3416216E+03  0.7546771E-02  0.1066107E+00
         21   -1    0    0  502  501  0.00000000000E+00  0.00000000000E+00  0.86272316933E+03  0.86272316933E+03  0.00000000000E+00 0.  1.
         21   -1    0    0  501  502 -0.00000000000E+00 -0.00000000000E+00 -0.13527552738E+03  0.13527552738E+03  0.00000000000E+00 0.  1.
         25    1    1    2    0    0  0.14428460988E+03 -0.23227034382E+02  0.32286327431E+03  0.37579680370E+03  0.12500000000E+03 0.  0.
         25    1    1    2    0    0  0.11628260343E+02 -0.12380436032E+03  0.31010311184E+03  0.35672352887E+03  0.12500000000E+03 0.  0.
         25    1    1    2    0    0 -0.15591287023E+03  0.14703139470E+03  0.94481255795E+02  0.26547836414E+03  0.12500000000E+03 0.  0.
</event>
<event>
 5    0  0.5452999E-005  0.6742225E+03  0.7546771E-02  0.9762360E-01
         21   -1    0    0  502  501  0.00000000000E+00  0.00000000000E+00  0.24804970038E+04  0.24804970038E+04  0.00000000000E+00 0.  1.
         21   -1    0    0  501  502 -0.00000000000E+00 -0.00000000000E+00 -0.18326003707E+03  0.18326003707E+03  0.00000000000E+00 0.  1.
         25    1    1    2    0    0 -0.11802672844E+03 -0.12325172554E+03  0.16161560410E+04  0.16299406877E+04  0.12500000000E+03 0.  0.
         25    1    1    2    0    0  0.25796711391E+03  0.15699815689E+02  0.75301958899E+03  0.80588896101E+03  0.12500000000E+03 0.  0.
         25    1    1    2    0    0 -0.13994038547E+03  0.10755190985E+03 -0.71938663331E+02  0.22792739212E+03  0.12500000000E+03 0.  0.
</event>
<event>
 5    0  0.5452999E-005  0.2977494E+03  0.7546771E-02  0.1086371E+00
         21   -1    0    0  502  501  0.00000000000E+00  0.00000000000E+00  0.21323593570E+04  0.21323593570E+04  0.00000000000E+00 0.  1.
         21   -1    0    0  501  502 -0.00000000000E+00 -0.00000000000E+00 -0.41575861002E+02  0.41575861002E+02  0.00000000000E+00 0.  1.
         25    1    1    2    0    0  0.10099162770E+03  0.18218575968E+02  0.55473497407E+03  0.57782966074E+03  0.12500000000E+03 0.  0.
         25    1    1    2    0    0  0.16197328291E+02 -0.29717215231E+02  0.14464995262E+03  0.19414962044E+03  0.12500000000E+03 0.  0.
         25    1    1    2    0    0 -0.11718895599E+03  0.11498639262E+02  0.13913985693E+04  0.14019559368E+04  0.12500000000E+03 0.  0.
</event>
<event>
 5    0  0.5452999E-005  0.2310641E+03  0.7546771E-02  0.1125893E+00
         21   -1    0    0  502  501  0.00000000000E+00  0.00000000000E+00  0.10390883651E+04  0.10390883651E+04  0.00000000000E+00 0.  1.
         21   -1    0    0  501  502 -0.00000000000E+00 -0.00000000000E+00 -0.51382179198E+02  0.51382179198E+02  0.00000000000E+00 0.  1.
         25    1    1    2    0    0  0.84817801540E+02  0.39289788594E+02  0.31511174840E+03  0.35165062338E+03  0.12500000000E+03 0.  0.
         25    1    1    2    0    0 -0.38451377168E+01 -0.70449078901E+02  0.42095472485E+03  0.44475357017E+03  0.12500000000E+03 0.  0.
         25    1    1    2    0    0 -0.80972663823E+02  0.31159290308E+02  0.25163971265E+03  0.29406635075E+03  0.12500000000E+03 0.  0.
</event>
<event>
 5    0  0.5452999E-005  0.2374572E+03  0.7546771E-02  0.1121498E+00
         21   -1    0    0  502  501  0.00000000000E+00  0.00000000000E+00  0.27486208987E+04  0.27486208987E+04  0.00000000000E+00 0. -1.
         21   -1    0    0  501  502 -0.00000000000E+00 -0.00000000000E+00 -0.20514258980E+02  0.20514258980E+02  0.00000000000E+00 0. -1.
         25    1    1    2    0    0  0.30267583982E+02 -0.31040810479E+02  0.63573153352E+03  0.64935294045E+03  0.12500000000E+03 0.  0.
         25    1    1    2    0    0 -0.53792369381E+02  0.12245800092E+03  0.11075244150E+04  0.11225528544E+04  0.12500000000E+03 0.  0.
         25    1    1    2    0    0  0.23524785399E+02 -0.91417190440E+02  0.98485069119E+03  0.99722936287E+03  0.12500000000E+03 0.  0.
</event>
<event>
 5    0  0.5452999E-005  0.3542323E+03  0.7546771E-02  0.1060891E+00
         21   -1    0    0  502  501  0.00000000000E+00  0.00000000000E+00  0.99345952099E+03  0.99345952099E+03  0.00000000000E+00 0. -1.
         21   -1    0    0  501  502 -0.00000000000E+00 -0.00000000000E+00 -0.12630664893E+03  0.12630664893E+03  0.00000000000E+00 0. -1.
         25    1    1    2    0    0 -0.34318586220E+02  0.32924850516E+02  0.55545407743E+03  0.57132831478E+03  0.12500000000E+03 0.  0.
         25    1    1    2    0    0 -0.23898662056E+01  0.16569351510E+03  0.19065910529E+03  0.28184383413E+03  0.12500000000E+03 0.  0.
         25    1    1    2    0    0  0.36708452426E+02 -0.19861836562E+03  0.12103968936E+03  0.26659402101E+03  0.12500000000E+03 0.  0.
</event>
<event>
 5    0  0.5658593E-005  0.3322427E+03  0.7546771E-02  0.1070149E+00
         21   -1    0    0  502  501  0.00000000000E+00  0.00000000000E+00  0.29156117468E+03  0.29156117468E+03  0.00000000000E+00 0. -1.
         21   -1    0    0  501  502 -0.00000000000E+00 -0.00000000000E+00 -0.37860048935E+03  0.37860048935E+03  0.00000000000E+00 0. -1.
         25    1    1    2    0    0  0.13675197981E+03 -0.24626084621E+02 -0.72496980559E+02  0.20047034747E+03  0.12500000000E+03 0.  0.
         25    1    1    2    0    0 -0.20899895141E+03  0.11083875317E+03 -0.94143832646E+02  0.28364388257E+03  0.12500000000E+03 0.  0.
         25    1    1    2    0    0  0.72246971605E+02 -0.86212668550E+02  0.79601498528E+02  0.18604743399E+03  0.12500000000E+03 0.  0.
</event>
<event>
 5    0  0.5452999E-005  0.4695381E+03  0.7546771E-02  0.1022051E+00
         21   -1    0    0  502  501  0.00000000000E+00  0.00000000000E+00  0.46048824051E+03  0.46048824051E+03  0.00000000000E+00 0.  1.
         21   -1    0    0  501  502 -0.00000000000E+00 -0.00000000000E+00 -0.47876589097E+03  0.47876589097E+03  0.00000000000E+00 0.  1.
         25    1    1    2    0    0  0.15714838331E+03 -0.10494631483E+03 -0.83411113812E+02  0.24143685982E+03  0.12500000000E+03 0.  0.
         25    1    1    2    0    0 -0.29193150701E+03  0.27445636226E+03  0.13015888344E+03  0.43945037775E+03  0.12500000000E+03 0.  0.
         25    1    1    2    0    0  0.13478312370E+03 -0.16951004743E+03 -0.65025420085E+02  0.25836689391E+03  0.12500000000E+03 0.  0.
</event>
<event>
 5    0  0.5452999E-005  0.2834323E+03  0.7546771E-02  0.1093829E+00
         21   -1    0    0  502  501  0.00000000000E+00  0.00000000000E+00  0.43158413386E+03  0.43158413386E+03  0.00000000000E+00 0.  1.
         21   -1    0    0  501  502 -0.00000000000E+00 -0.00000000000E+00 -0.18613724953E+03  0.18613724953E+03  0.00000000000E+00 0.  1.
         25    1    1    2    0    0  0.72538057626E+02 -0.20636341112E+02 -0.40686297695E+02  0.15155198184E+03  0.12500000000E+03 0.  0.
         25    1    1    2    0    0  0.64435959003E+02  0.47666951468E+02  0.22398732689E+03  0.26873677396E+03  0.12500000000E+03 0.  0.
         25    1    1    2    0    0 -0.13697401663E+03 -0.27030610356E+02  0.62145855134E+02  0.19743262759E+03  0.12500000000E+03 0.  0.
</event>
<event>
 5    0  0.5452999E-005  0.2081265E+03  0.7546771E-02  0.1143058E+00
         21   -1    0    0  502  501  0.00000000000E+00  0.00000000000E+00  0.15406864946E+03  0.15406864946E+03  0.00000000000E+00 0.  1.
         21   -1    0    0  501  502 -0.00000000000E+00 -0.00000000000E+00 -0.28115146153E+03  0.28115146153E+03  0.00000000000E+00 0.  1.
         25    1    1    2    0    0  0.26503070186E+02  0.45966184952E+02 -0.11148492676E+03  0.17569630554E+03  0.12500000000E+03 0.  0.
         25    1    1    2    0    0  0.26810675991E+01 -0.13769793980E+02 -0.18596229042E+02  0.12715193701E+03  0.12500000000E+03 0.  0.
         25    1    1    2    0    0 -0.29184137785E+02 -0.32196390972E+02  0.29983437225E+01  0.13237186844E+03  0.12500000000E+03 0.  0.
</event>
<event>
 5    0  0.5452999E-005  0.4099211E+03  0.7546771E-02  0.1040397E+00
         21   -1    0    0  502  501  0.00000000000E+00  0.00000000000E+00  0.61454282987E+03  0.61454282987E+03  0.00000000000E+00 0.  1.
         21   -1    0    0  501  502 -0.00000000000E+00 -0.00000000000E+00 -0.27343141134E+03  0.27343141134E+03  0.00000000000E+00 0.  1.
         25    1    1    2    0    0  0.57805512734E+02  0.10452228130E+03  0.21962729553E+03  0.27951302927E+03  0.12500000000E+03 0.  0.
         25    1    1    2    0    0 -0.55068466452E+02  0.10986422775E+03 -0.15708058574E+03  0.23537628375E+03  0.12500000000E+03 0.  0.
         25    1    1    2    0    0 -0.27370462819E+01 -0.21438650904E+03  0.27856470874E+03  0.37308492819E+03  0.12500000000E+03 0.  0.
</event>
<event>
 5    0  0.5452999E-005  0.2205034E+03  0.7546771E-02  0.1133508E+00
         21   -1    0    0  502  501  0.00000000000E+00  0.00000000000E+00  0.43293143121E+02  0.43293143121E+02  0.00000000000E+00 0. -1.
         21   -1    0    0  501  502 -0.00000000000E+00 -0.00000000000E+00 -0.11230818361E+04  0.11230818361E+04  0.00000000000E+00 0. -1.
         25    1    1    2    0    0 -0.48263566595E+02  0.18820850401E+02 -0.17274963031E+03  0.21943343192E+03  0.12500000000E+03 0.  0.
         25    1    1    2    0    0  0.46457392520E+02 -0.13410517676E+02 -0.61129566639E+03  0.62581588590E+03  0.12500000000E+03 0.  0.
         25    1    1    2    0    0  0.18061740750E+01 -0.54103327254E+01 -0.29574339624E+03  0.32112566136E+03  0.12500000000E+03 0.  0.
</event>
<event>
 5    0  0.5452999E-005  0.5217814E+03  0.7546771E-02  0.1008245E+00
         21   -1    0    0  502  501  0.00000000000E+00  0.00000000000E+00  0.11016812941E+04  0.11016812941E+04  0.00000000000E+00 0. -1.
         21   -1    0    0  501  502 -0.00000000000E+00 -0.00000000000E+00 -0.24712753964E+03  0.24712753964E+03  0.00000000000E+00 0. -1.
         25    1    1    2    0    0  0.17678071510E+03 -0.13734360078E+03 -0.74181432611E+01  0.25650480455E+03  0.12500000000E+03 0.  0.
         25    1    1    2    0    0 -0.13953380616E+03 -0.23100995515E+02 -0.16830607341E+02  0.18950358413E+03  0.12500000000E+03 0.  0.
         25    1    1    2    0    0 -0.37246908945E+02  0.16044459629E+03  0.87880250504E+03  0.90280044505E+03  0.12500000000E+03 0.  0.
</event>
<event>
 5    0  0.5452999E-005  0.3246374E+03  0.7546771E-02  0.1073535E+00
         21   -1    0    0  502  501  0.00000000000E+00  0.00000000000E+00  0.10349735655E+03  0.10349735655E+03  0.00000000000E+00 0.  1.
         21   -1    0    0  501  502 -0.00000000000E+00 -0.00000000000E+00 -0.10182814955E+04  0.10182814955E+04  0.00000000000E+00 0.  1.
         25    1    1    2    0    0  0.27324926801E+00  0.79711171316E+01 -0.59420708568E+02  0.13863417320E+03  0.12500000000E+03 0.  0.
         25    1    1    2    0    0  0.24003829623E+02 -0.21002670875E+03 -0.41709844676E+03  0.48402842532E+03  0.12500000000E+03 0.  0.
         25    1    1    2    0    0 -0.24277078891E+02  0.20205559162E+03 -0.43826498366E+03  0.49911625356E+03  0.12500000000E+03 0.  0.
</event>
<event>
 5    0  0.5452999E-005  0.2423027E+03  0.7546771E-02  0.1118268E+00
         21   -1    0    0  502  501  0.00000000000E+00  0.00000000000E+00  0.85051339866E+02  0.85051339866E+02  0.00000000000E+00 0.  1.
         21   -1    0    0  501  502 -0.00000000000E+00 -0.00000000000E+00 -0.69029591542E+03  0.69029591542E+03  0.00000000000E+00 0.  1.
         25    1    1    2    0    0 -0.85019064512E+02  0.54884692009E+02 -0.23425259113E+03  0.28414757996E+03  0.12500000000E+03 0.  0.
         25    1    1    2    0    0  0.63576740799E+02  0.22499401230E+01 -0.30813741684E+03  0.33855683697E+03  0.12500000000E+03 0.  0.
         25    1    1    2    0    0  0.21442323714E+02 -0.57134632132E+02 -0.62854567586E+02  0.15264283836E+03  0.12500000000E+03 0.  0.
</event>
<event>
 5    0  0.5452999E-005  0.4151819E+03  0.7546771E-02  0.1038646E+00
         21   -1    0    0  502  501  0.00000000000E+00  0.00000000000E+00  0.28696701741E+03  0.28696701741E+03  0.00000000000E+00 0. -1.
         21   -1    0    0  501  502 -0.00000000000E+00 -0.00000000000E+00 -0.60068228615E+03  0.60068228615E+03  0.00000000000E+00 0. -1.
         25    1    1    2    0    0 -0.66099567511E+02  0.25561446281E+03 -0.25589714362E+03  0.38835068500E+03  0.12500000000E+03 0.  0.
         25    1    1    2    0    0  0.24436061365E+02  0.34539307756E+02  0.77554334272E+02  0.15306782693E+03  0.12500000000E+03 0.  0.
         25    1    1    2    0    0  0.41663506145E+02 -0.29015377057E+03 -0.13537245939E+03  0.34623079164E+03  0.12500000000E+03 0.  0.
</event>
<event>
 5    0  0.5452999E-005  0.2162172E+03  0.7546771E-02  0.1136735E+00
         21   -1    0    0  502  501  0.00000000000E+00  0.00000000000E+00  0.89176660918E+03  0.89176660918E+03  0.00000000000E+00 0.  1.
         21   -1    0    0  501  502 -0.00000000000E+00 -0.00000000000E+00 -0.52423891739E+02  0.52423891739E+02  0.00000000000E+00 0.  1.
         25    1    1    2    0    0 -0.37414134715E+01 -0.75246224284E+02  0.29723126233E+03  0.33113051166E+03  0.12500000000E+03 0.  0.
         25    1    1    2    0    0  0.36129929319E+01  0.78116487386E+02  0.38499992306E+03  0.41226833504E+03  0.12500000000E+03 0.  0.
         25    1    1    2    0    0  0.12842053958E+00 -0.28702631023E+01  0.15711153205E+03  0.20079165422E+03  0.12500000000E+03 0.  0.
</event>
<event>
 5    0  0.5566939E-005  0.3344039E+03  0.7546771E-02  0.1069205E+00
         21   -1    0    0  502  501  0.00000000000E+00  0.00000000000E+00  0.74072663318E+02  0.74072663318E+02  0.00000000000E+00 0. -1.
         21   -1    0    0  501  502 -0.00000000000E+00 -0.00000000000E+00 -0.15096791515E+04  0.15096791515E+04  0.00000000000E+00 0. -1.
         25    1    1    2    0    0  0.94507834331E+02 -0.13202033718E+03 -0.30579812502E+03  0.36810133583E+03  0.12500000000E+03 0.  0.
         25    1    1    2    0    0 -0.86029824572E+02  0.16326934262E+03 -0.10261098849E+04  0.10500402396E+04  0.12500000000E+03 0.  0.
         25    1    1    2    0    0 -0.84780097589E+01 -0.31249005437E+02 -0.10369847832E+03  0.16561023940E+03  0.12500000000E+03 0.  0.
</event>
<event>
 5    0  0.5452999E-005  0.5425030E+03  0.7546771E-02  0.1003244E+00
         21   -1    0    0  502  501  0.00000000000E+00  0.00000000000E+00  0.23704713530E+03  0.23704713530E+03  0.00000000000E+00 0.  1.
         21   -1    0    0  501  502 -0.00000000000E+00 -0.00000000000E+00 -0.12415653741E+04  0.12415653741E+04  0.00000000000E+00 0.  1.
         25    1    1    2    0    0  0.16286085151E+02  0.26388806244E+03 -0.70946208445E+03  0.76737448182E+03  0.12500000000E+03 0.  0.
         25    1    1    2    0    0  0.16756825646E+03 -0.35085223781E+03 -0.18438011341E+03  0.44810427310E+03  0.12500000000E+03 0.  0.
         25    1    1    2    0    0 -0.18385434161E+03  0.86964175364E+02 -0.11067604097E+03  0.26313375453E+03  0.12500000000E+03 0.  0.
</event>
<event>
 5    0  0.5452999E-005  0.3933936E+03  0.7546771E-02  0.1046092E+00
         21   -1    0    0  502  501  0.00000000000E+00  0.00000000000E+00  0.26674646705E+03  0.26674646705E+03  0.00000000000E+00 0.  1.
         21   -1    0    0  501  502 -0.00000000000E+00 -0.00000000000E+00 -0.58017081869E+03  0.58017081869E+03  0.00000000000E+00 0.  1.
         25    1    1    2    0    0 -0.16299494321E+03  0.10339719767E+03 -0.18714261010E+03  0.29648893489E+03  0.12500000000E+03 0.  0.
         25    1    1    2    0    0 -0.19564547839E+00 -0.43656084696E+02 -0.26437938617E+03  0.29568116585E+03  0.12500000000E+03 0.  0.
         25    1    1    2    0    0  0.16319058869E+03 -0.59741112978E+02  0.13809764462E+03  0.25474718500E+03  0.12500000000E+03 0.  0.
</event>
<event>
 5    0  0.5452999E-005  0.2622538E+03  0.7546771E-02  0.1105797E+00
         21   -1    0    0  502  501  0.00000000000E+00  0.00000000000E+00  0.12967708454E+03  0.12967708454E+03  0.00000000000E+00 0.  1.
         21   -1    0    0  501  502 -0.00000000000E+00 -0.00000000000E+00 -0.53037169299E+03  0.53037169299E+03  0.00000000000E+00 0.  1.
         25    1    1    2    0    0 -0.11878291492E+01  0.16618726654E+03 -0.16777302771E+03  0.26719357651E+03  0.12500000000E+03 0.  0.
         25    1    1    2    0    0 -0.44889645356E+02 -0.10575520564E+03 -0.11666289821E+03  0.20599629997E+03  0.12500000000E+03 0.  0.
         25    1    1    2    0    0  0.46077474506E+02 -0.60432060905E+02 -0.11625868253E+03  0.18685890106E+03  0.12500000000E+03 0.  0.
</event>
<event>
 5    0  0.5452999E-005  0.2590525E+03  0.7546771E-02  0.1107714E+00
         21   -1    0    0  502  501  0.00000000000E+00  0.00000000000E+00  0.33271330584E+02  0.33271330584E+02  0.00000000000E+00 0. -1.
         21   -1    0    0  501  502 -0.00000000000E+00 -0.00000000000E+00 -0.20169971730E+04  0.20169971730E+04  0.00000000000E+00 0. -1.
         25    1    1    2    0    0 -0.46045855201E+02  0.14099192904E+03 -0.53267055056E+03  0.56688787275E+03  0.12500000000E+03 0.  0.
         25    1    1    2    0    0  0.53462652202E+02 -0.29491334547E+02 -0.59325359991E+03  0.60934622983E+03  0.12500000000E+03 0.  0.
         25    1    1    2    0    0 -0.74167970012E+01 -0.11150059449E+03 -0.85780169198E+03  0.87403440105E+03  0.12500000000E+03 0.  0.
</event>
<event>
 5    0  0.5452999E-005  0.3474951E+03  0.7546771E-02  0.1063648E+00
         21   -1    0    0  502  501  0.00000000000E+00  0.00000000000E+00  0.55384754171E+02  0.55384754171E+02  0.00000000000E+00 0. -1.
         21   -1    0    0  501  502 -0.00000000000E+00 -0.00000000000E+00 -0.21802544974E+04  0.21802544974E+04  0.00000000000E+00 0. -1.
         25    1    1    2    0    0 -0.40915180573E+02 -0.33247853930E+02 -0.25139570704E+03  0.28566461684E+03  0.12500000000E+03 0.  0.
         25    1    1    2    0    0  0.20543531804E+03  0.77532847088E+02 -0.14976791217E+04  0.15188425738E+04  0.12500000000E+03 0.  0.
         25    1    1    2    0    0 -0.16452013746E+03 -0.44284993158E+02 -0.37579491447E+03  0.43113206096E+03  0.12500000000E+03 0.  0.
</event>
<event>
 5    0  0.5452999E-005  0.3371026E+03  0.7546771E-02  0.1068037E+00
         21   -1    0    0  502  501  0.00000000000E+00  0.00000000000E+00  0.14268298535E+03  0.14268298535E+03  0.00000000000E+00 0. -1.
         21   -1    0    0  501  502 -0.00000000000E+00 -0.00000000000E+00 -0.79643791547E+03  0.79643791547E+03  0.00000000000E+00 0. -1.
         25    1    1    2    0    0  0.96798093701E+02 -0.97784393562E+02 -0.28673085638E+03  0.34171807469E+03  0.12500000000E+03 0.  0.
         25    1    1    2    0    0 -0.23108468071E+03  0.50739687035E+02 -0.14080452701E+03  0.30236659922E+03  0.12500000000E+03 0.  0.
         25    1    1    2    0    0  0.13428658701E+03  0.47044706527E+02 -0.22621954673E+03  0.29503622691E+03  0.12500000000E+03 0.  0.
</event>
<event>
 5    0  0.5547679E-005  0.4531315E+03  0.7546771E-02  0.1026792E+00
         21   -1    0    0  502  501  0.00000000000E+00  0.00000000000E+00  0.29182820486E+03  0.29182820486E+03  0.00000000000E+00 0.  1.
         21   -1    0    0  501  502 -0.00000000000E+00 -0.00000000000E+00 -0.70359265697E+03  0.70359265697E+03  0.00000000000E+00 0.  1.
         25    1    1    2    0    0  0.55937565951E+02  0.21367379975E+03 -0.10201522589E+03  0.27352807954E+03  0.12500000000E+03 0.  0.
         25    1    1    2    0    0 -0.29387382566E+03 -0.11713841483E+03 -0.26847161507E+03  0.43334194551E+03  0.12500000000E+03 0.  0.
         25    1    1    2    0    0  0.23793625971E+03 -0.96535384916E+02 -0.41277611149E+02  0.28855083678E+03  0.12500000000E+03 0.  0.
</event>
<event>
 5    0  0.5452999E-005  0.4276607E+03  0.7546771E-02  0.1034602E+00
         21   -1    0    0  502  501  0.00000000000E+00  0.00000000000E+00  0.22254170476E+04  0.22254170476E+04  0.00000000000E+00 0.  1.
         21   -1    0    0  501  502 -0.00000000000E+00 -0.00000000000E+00 -0.82183985907E+02  0.82183985907E+02  0.00000000000E+00 0.  1.
         25    1    1    2    0    0  0.43345016631E+02  0.24358420801E+03  0.16902228810E+04  0.17128019279E+04  0.12500000000E+03 0.  0.
         25    1    1    2    0    0 -0.73472581910E+02 -0.84497779246E+02  0.12919745981E+03  0.21179017591E+03  0.12500000000E+03 0.  0.
         25    1    1    2    0    0  0.30127565280E+02 -0.15908642876E+03  0.32381272092E+03  0.38300892971E+03  0.12500000000E+03 0.  0.
</event>
<event>
 5    0  0.5452999E-005  0.2118465E+03  0.7546771E-02  0.1140112E+00
         21   -1    0    0  502  501  0.00000000000E+00  0.00000000000E+00  0.90484871474E+03  0.90484871474E+03  0.00000000000E+00 0. -1.
         21   -1    0    0  501  502 -0.00000000000E+00 -0.00000000000E+00 -0.49598296110E+02  0.49598296110E+02  0.00000000000E+00 0. -1.
         25    1    1    2    0    0  0.60114975917E+02 -0.25856332187E+02  0.30735180117E+03  0.33819002044E+03  0.12500000000E+03 0.  0.
         25    1    1    2    0    0 -0.83814342856E+02  0.29070655767E+02  0.26694427851E+03  0.30782169340E+03  0.12500000000E+03 0.  0.
         25    1    1    2    0    0  0.23699366938E+02 -0.32143235807E+01  0.28095433895E+03  0.30843529701E+03  0.12500000000E+03 0.  0.
</event>
<event>
 5    0  0.5452999E-005  0.3915931E+03  0.7546771E-02  0.1046730E+00
         21   -1    0    0  502  501  0.00000000000E+00  0.00000000000E+00  0.18638745281E+03  0.18638745281E+03  0.00000000000E+00 0. -1.
         21   -1    0    0  501  502 -0.00000000000E+00 -0.00000000000E+00 -0.82272259743E+03  0.82272259743E+03  0.00000000000E+00 0. -1.
         25    1    1    2    0    0  0.15034982127E+03  0.22247752549E+03 -0.55401300355E+03  0.62821710117E+03  0.12500000000E+03 0.  0.
         25    1    1    2    0    0 -0.80260454263E+02 -0.92153796770E+02 -0.64649565871E+02  0.18638301732E+03  0.12500000000E+03 0.  0.
         25    1    1    2    0    0 -0.70089367011E+02 -0.13032372872E+03 -0.17672575210E+02  0.19450993175E+03  0.12500000000E+03 0.  0.
</event>
<event>
 5    0  0.5452999E-005  0.2824868E+03  0.7546771E-02  0.1094338E+00
         21   -1    0    0  502  501  0.00000000000E+00  0.00000000000E+00  0.15377774558E+03  0.15377774558E+03  0.00000000000E+00 0.  1.
         21   -1    0    0  501  502 -0.00000000000E+00 -0.00000000000E+00 -0.51892273356E+03  0.51892273356E+03  0.00000000000E+00 0.  1.
         25    1    1    2    0    0  0.32501338545E+02 -0.10923157944E+03 -0.75220866375E+00  0.16915507906E+03  0.12500000000E+03 0.  0.
         25    1    1    2    0    0 -0.83015423530E+02 -0.22403321175E+02 -0.21469524494E+03  0.26289259697E+03  0.12500000000E+03 0.  0.
         25    1    1    2    0    0  0.50514084985E+02  0.13163490061E+03 -0.14969753439E+03  0.24065280311E+03  0.12500000000E+03 0.  0.
</event>
<event>
 5    0  0.5452999E-005  0.2711943E+03  0.7546771E-02  0.1100598E+00
         21   -1    0    0  502  501  0.00000000000E+00  0.00000000000E+00  0.21004448244E+03  0.21004448244E+03  0.00000000000E+00 0. -1.
         21   -1    0    0  501  502 -0.00000000000E+00 -0.00000000000E+00 -0.35014641413E+03  0.35014641413E+03  0.00000000000E+00 0. -1.
         25    1    1    2    0    0 -0.19717929393E+02  0.98518952812E+02 -0.10692760147E+03  0.19275189431E+03  0.12500000000E+03 0.  0.
         25    1    1    2    0    0  0.89785537235E+02 -0.16362020298E+02  0.72954351642E+02  0.17110375749E+03  0.12500000000E+03 0.  0.
         25    1    1    2    0    0 -0.70067607842E+02 -0.82156932514E+02 -0.10612868186E+03  0.19633524478E+03  0.12500000000E+03 0.  0.
</event>
<event>
 5    0  0.5452999E-005  0.2423499E+03  0.7546771E-02  0.1118237E+00
         21   -1    0    0  502  501  0.00000000000E+00  0.00000000000E+00  0.21880912037E+03  0.21880912037E+03  0.00000000000E+00 0. -1.
         21   -1    0    0  501  502 -0.00000000000E+00 -0.00000000000E+00 -0.26842330862E+03  0.26842330862E+03  0.00000000000E+00 0. -1.
         25    1    1    2    0    0  0.33568498561E+02  0.84713746298E+02 -0.27429881039E+02  0.15710079975E+03  0.12500000000E+03 0.  0.
         25    1    1    2    0    0  0.42470149911E+02  0.37297006731E+02  0.71817552647E+01  0.13737306124E+03  0.12500000000E+03 0.  0.
         25    1    1    2    0    0 -0.76038648472E+02 -0.12201075303E+03 -0.29366062470E+02  0.19275856801E+03  0.12500000000E+03 0.  0.
</event>
<event>
 5    0  0.5452999E-005  0.3266102E+03  0.7546771E-02  0.1072647E+00
         21   -1    0    0  502  501  0.00000000000E+00  0.00000000000E+00  0.11979319294E+03  0.11979319294E+03  0.00000000000E+00 0.  1.
         21   -1    0    0  501  502 -0.00000000000E+00 -0.00000000000E+00 -0.89048635779E+03  0.89048635779E+03  0.00000000000E+00 0.  1.
         25    1    1    2    0    0  0.44294781123E+02 -0.25642602393E+02 -0.35208882439E+02  0.13958594519E+03  0.12500000000E+03 0.  0.
         25    1    1    2    0    0 -0.31166392340E+02  0.18126753767E+03 -0.20009182745E+03  0.29915046989E+03  0.12500000000E+03 0.  0.
         25    1    1    2    0    0 -0.13128388783E+02 -0.15562493527E+03 -0.53539245496E+03  0.57154313564E+03  0.12500000000E+03 0.  0.
</event>
<event>
 5    0  0.5452999E-005  0.2199494E+03  0.7546771E-02  0.1133921E+00
         21   -1    0    0  502  501  0.00000000000E+00  0.00000000000E+00  0.24393405189E+02  0.24393405189E+02  0.00000000000E+00 0. -1.
         21   -1    0    0  501  502 -0.00000000000E+00 -0.00000000000E+00 -0.19832308972E+04  0.19832308972E+04  0.00000000000E+00 0. -1.
         25    1    1    2    0    0 -0.34977377945E+02  0.38457570213E+02 -0.42687005170E+03  0.44782300378E+03  0.12500000000E+03 0.  0.
         25    1    1    2    0    0 -0.60743799697E+01  0.50037350143E+02 -0.71086522021E+03  0.72352954038E+03  0.12500000000E+03 0.  0.
         25    1    1    2    0    0  0.41051757914E+02 -0.88494920356E+02 -0.82110222014E+03  0.83627175827E+03  0.12500000000E+03 0.  0.
</event>
<event>
 5    0  0.5452999E-005  0.2748071E+03  0.7546771E-02  0.1098559E+00
         21   -1    0    0  502  501  0.00000000000E+00  0.00000000000E+00  0.29216736365E+03  0.29216736365E+03  0.00000000000E+00 0.  1.
         21   -1    0    0  501  502 -0.00000000000E+00 -0.00000000000E+00 -0.25847842312E+03  0.25847842312E+03  0.00000000000E+00 0.  1.
         25    1    1    2    0    0 -0.39587846950E+01  0.40367127095E+01  0.15962737532E+03  0.20282471737E+03  0.12500000000E+03 0.  0.
         25    1    1    2    0    0  0.84989963738E+02  0.58941201607E+02 -0.69853219628E+02  0.17664040159E+03  0.12500000000E+03 0.  0.
         25    1    1    2    0    0 -0.81031179043E+02 -0.62977914317E+02 -0.56085215159E+02  0.17118066780E+03  0.12500000000E+03 0.  0.
</event>
<event>
 5    0  0.5452999E-005  0.2212954E+03  0.7546771E-02  0.1132921E+00
         21   -1    0    0  502  501  0.00000000000E+00  0.00000000000E+00  0.30060428728E+02  0.30060428728E+02  0.00000000000E+00 0. -1.
         21   -1    0    0  501  502 -0.00000000000E+00 -0.00000000000E+00 -0.16291071157E+04  0.16291071157E+04  0.00000000000E+00 0. -1.
         25    1    1    2    0    0 -0.72655165888E+02 -0.28080817460E+02 -0.45216465795E+03  0.47554724617E+03  0.12500000000E+03 0.  0.
         25    1    1    2    0    0 -0.11359491597E+02  0.14588245750E+02 -0.34066012417E+03  0.36334030215E+03  0.12500000000E+03 0.  0.
         25    1    1    2    0    0  0.84014657485E+02  0.13492571710E+02 -0.80622190487E+03  0.82027999614E+03  0.12500000000E+03 0.  0.
</event>
<event>
 5    0  0.5452999E-005  0.2281253E+03  0.7546771E-02  0.1127966E+00
         21   -1    0    0  502  501  0.00000000000E+00  0.00000000000E+00  0.45746276128E+03  0.45746276128E+03  0.00000000000E+00 0.  1.
         21   -1    0    0  501  502 -0.00000000000E+00 -0.00000000000E+00 -0.11376039841E+03  0.11376039841E+03  0.00000000000E+00 0.  1.
         25    1    1    2    0    0  0.35567236681E+02 -0.22763759877E+02  0.36554708012E+02  0.13691042242E+03  0.12500000000E+03 0.  0.
         25    1    1    2    0    0 -0.68546327734E+02 -0.58533559296E+02  0.16283091634E+03  0.22419563761E+03  0.12500000000E+03 0.  0.
         25    1    1    2    0    0  0.32979091054E+02  0.81297319173E+02  0.14431673852E+03  0.21011709966E+03  0.12500000000E+03 0.  0.
</event>
<event>
 5    0  0.5452999E-005  0.2466417E+03  0.7546771E-02  0.1115446E+00
         21   -1    0    0  502  501  0.00000000000E+00  0.00000000000E+00  0.27475613562E+02  0.27475613562E+02  0.00000000000E+00 0.  1.
         21   -1    0    0  501  502 -0.00000000000E+00 -0.00000000000E+00 -0.22140410538E+04  0.22140410538E+04  0.00000000000E+00 0.  1.
         25    1    1    2    0    0  0.11169357787E+03 -0.30005344095E+02 -0.45785469408E+03  0.48849943388E+03  0.12500000000E+03 0.  0.
         25    1    1    2    0    0 -0.14235836325E+02  0.28021894335E+01 -0.61373033886E+03  0.62649855557E+03  0.12500000000E+03 0.  0.
         25    1    1    2    0    0 -0.97457741541E+02  0.27203154662E+02 -0.11149804073E+04  0.11265186779E+04  0.12500000000E+03 0.  0.
</event>
<event>
 5    0  0.5456663E-005  0.2934960E+03  0.7546771E-02  0.1088538E+00
         21   -1    0    0  502  501  0.00000000000E+00  0.00000000000E+00  0.48995691446E+03  0.48995691446E+03  0.00000000000E+00 0. -1.
         21   -1    0    0  501  502 -0.00000000000E+00 -0.00000000000E+00 -0.17581121398E+03  0.17581121398E+03  0.00000000000E+00 0. -1.
         25    1    1    2    0    0  0.56680282992E+02 -0.18504124214E+03  0.10328950049E+03  0.25248096301E+03  0.12500000000E+03 0.  0.
         25    1    1    2    0    0 -0.81366915171E+02  0.11591585265E+03  0.18805710991E+03  0.26654743737E+03  0.12500000000E+03 0.  0.
         25    1    1    2    0    0  0.24686632179E+02  0.69125389486E+02  0.22799090079E+02  0.14673972805E+03  0.12500000000E+03 0.  0.
</event>
<event>
 5    0  0.5452999E-005  0.3928514E+03  0.7546771E-02  0.1046283E+00
         21   -1    0    0  502  501  0.00000000000E+00  0.00000000000E+00  0.90639445743E+02  0.90639445743E+02  0.00000000000E+00 0. -1.
         21   -1    0    0  501  502 -0.00000000000E+00 -0.00000000000E+00 -0.17027052099E+04  0.17027052099E+04  0.00000000000E+00 0. -1.
         25    1    1    2    0    0 -0.60154555411E+02  0.34554093647E+02 -0.11785747808E+04  0.11872135738E+04  0.12500000000E+03 0.  0.
         25    1    1    2    0    0  0.81854759701E+02  0.17758773110E+02 -0.44370093852E+03  0.46852011542E+03  0.12500000000E+03 0.  0.
         25    1    1    2    0    0 -0.21700204290E+02 -0.52312866757E+02  0.10209955150E+02  0.13761096642E+03  0.12500000000E+03 0.  0.
</event>
<event>
 5    0  0.5452999E-005  0.2864127E+03  0.7546771E-02  0.1092237E+00
         21   -1    0    0  502  501  0.00000000000E+00  0.00000000000E+00  0.37830662915E+03  0.37830662915E+03  0.00000000000E+00 0.  1.
         21   -1    0    0  501  502 -0.00000000000E+00 -0.00000000000E+00 -0.21684058374E+03  0.21684058374E+03  0.00000000000E+00 0.  1.
         25    1    1    2    0    0 -0.11736696874E+03 -0.97475714509E+02  0.13351115811E+03  0.23817378027E+03  0.12500000000E+03 0.  0.
         25    1    1    2    0    0  0.53145720506E+02 -0.52394333264E+02 -0.17265621753E+02  0.14660400902E+03  0.12500000000E+03 0.  0.
         25    1    1    2    0    0  0.64221248236E+02  0.14987004777E+03  0.45220509053E+02  0.21036942359E+03  0.12500000000E+03 0.  0.
</event>
<event>
 5    0  0.5452999E-005  0.2809862E+03  0.7546771E-02  0.1095152E+00
         21   -1    0    0  502  501  0.00000000000E+00  0.00000000000E+00  0.56393208103E+02  0.56393208103E+02  0.00000000000E+00 0.  1.
         21   -1    0    0  501  502 -0.00000000000E+00 -0.00000000000E+00 -0.14000484842E+04  0.14000484842E+04  0.00000000000E+00 0.  1.
         25    1    1    2    0    0  0.77607876255E+02  0.78314849199E+02 -0.65126108026E+03  0.67225158439E+03  0.12500000000E+03 0.  0.
         25    1    1    2    0    0  0.74446777652E+02 -0.53869277438E+02 -0.41600723222E+03  0.44399463850E+03  0.12500000000E+03 0.  0.
         25    1    1    2    0    0 -0.15205465391E+03 -0.24445571760E+02 -0.27638696365E+03  0.34019546944E+03  0.12500000000E+03 0.  0.
</event>
<event>
 5    0  0.5452999E-005  0.2798946E+03  0.7546771E-02  0.1095747E+00
         21   -1    0    0  502  501  0.00000000000E+00  0.00000000000E+00  0.10317365966E+04  0.10317365966E+04  0.00000000000E+00 0. -1.
         21   -1    0    0  501  502 -0.00000000000E+00 -0.00000000000E+00 -0.75931202831E+02  0.75931202831E+02  0.00000000000E+00 0. -1.
         25    1    1    2    0    0  0.72684724447E+02  0.86894893377E+02  0.10220970516E+03  0.19724506456E+03  0.12500000000E+03 0.  0.
         25    1    1    2    0    0 -0.10657766609E+02 -0.67446351152E+02  0.63183213068E+03  0.64768776400E+03  0.12500000000E+03 0.  0.
         25    1    1    2    0    0 -0.62026957838E+02 -0.19448542225E+02  0.22176355789E+03  0.26273497084E+03  0.12500000000E+03 0.  0.
</event>
<event>
 5    0  0.6019113E-005  0.3149187E+03  0.7546771E-02  0.1078012E+00
         21   -1    0    0  502  501  0.00000000000E+00  0.00000000000E+00  0.46369066361E+03  0.46369066361E+03  0.00000000000E+00 0. -1.
         21   -1    0    0  501  502 -0.00000000000E+00 -0.00000000000E+00 -0.21387915328E+03  0.21387915328E+03  0.00000000000E+00 0. -1.
         25    1    1    2    0    0  0.75374205596E+02 -0.11388834921E+03  0.30303107440E+02  0.18760358545E+03  0.12500000000E+03 0.  0.
         25    1    1    2    0    0 -0.11613589527E+02 -0.32409623211E+02 -0.61475537187E+02  0.14349042062E+03  0.12500000000E+03 0.  0.
         25    1    1    2    0    0 -0.63760616069E+02  0.14629797242E+03  0.28098394008E+03  0.34647581081E+03  0.12500000000E+03 0.  0.
</event>
<event>
 5    0  0.5452999E-005  0.2924781E+03  0.7546771E-02  0.1089062E+00
         21   -1    0    0  502  501  0.00000000000E+00  0.00000000000E+00  0.16210285487E+03  0.16210285487E+03  0.00000000000E+00 0. -1.
         21   -1    0    0  501  502 -0.00000000000E+00 -0.00000000000E+00 -0.52771074415E+03  0.52771074415E+03  0.00000000000E+00 0. -1.
         25    1    1    2    0    0  0.64216274569E+01  0.91421269475E+02 -0.34492359846E+02  0.15878856602E+03  0.12500000000E+03 0.  0.
         25    1    1    2    0    0  0.10470870729E+03  0.14592423912E+02 -0.23799271866E+02  0.16543354424E+03  0.12500000000E+03 0.  0.
         25    1    1    2    0    0 -0.11113033474E+03 -0.10601369339E+03 -0.30731625758E+03  0.36559148876E+03  0.12500000000E+03 0.  0.
</event>
<event>
 5    0  0.5452999E-005  0.3640518E+03  0.7546771E-02  0.1056991E+00
         21   -1    0    0  502  501  0.00000000000E+00  0.00000000000E+00  0.70684186817E+03  0.70684186817E+03  0.00000000000E+00 0.  1.
         21   -1    0    0  501  502 -0.00000000000E+00 -0.00000000000E+00 -0.18750118215E+03  0.18750118215E+03  0.00000000000E+00 0.  1.
         25    1    1    2    0    0 -0.72266565087E+02 -0.69202312595E+02  0.15313328339E+03  0.22155409944E+03  0.12500000000E+03 0.  0.
         25    1    1    2    0    0  0.53231535438E+02  0.14491520021E+03 -0.71358161512E+02  0.21107107531E+03  0.12500000000E+03 0.  0.
         25    1    1    2    0    0  0.19035029648E+02 -0.75712887613E+02  0.43756556415E+03  0.46171787558E+03  0.12500000000E+03 0.  0.
</event>
<event>
 5    0  0.5452999E-005  0.5868213E+03  0.7546771E-02  0.9933131E-01
         21   -1    0    0  502  501  0.00000000000E+00  0.00000000000E+00  0.13458966203E+04  0.13458966203E+04  0.00000000000E+00 0.  1.
         21   -1    0    0  501  502 -0.00000000000E+00 -0.00000000000E+00 -0.25585858084E+03  0.25585858084E+03  0.00000000000E+00 0.  1.
         25    1    1    2    0    0 -0.17911872074E+03  0.62678792293E+02 -0.39128581567E+01  0.22727177032E+03  0.12500000000E+03 0.  0.
         25    1    1    2    0    0  0.11452244975E+03 -0.36128162645E+03  0.25669733844E+03  0.47450851275E+03  0.12500000000E+03 0.  0.
         25    1    1    2    0    0  0.64596270987E+02  0.29860283416E+03  0.83725355914E+03  0.89997491803E+03  0.12500000000E+03 0.  0.
</event>
<event>
 5    0  0.5452999E-005  0.4221882E+03  0.7546771E-02  0.1036356E+00
         21   -1    0    0  502  501  0.00000000000E+00  0.00000000000E+00  0.16065829032E+03  0.16065829032E+03  0.00000000000E+00 0. -1.
         21   -1    0    0  501  502 -0.00000000000E+00 -0.00000000000E+00 -0.11094531749E+04  0.11094531749E+04  0.00000000000E+00 0. -1.
         25    1    1    2    0    0  0.15346651538E+03  0.53481090846E+02 -0.10492084338E+03  0.23031626473E+03  0.12500000000E+03 0.  0.
         25    1    1    2    0    0  0.68792309487E+02  0.67810325917E+02 -0.70987314620E+03  0.72723827309E+03  0.12500000000E+03 0.  0.
         25    1    1    2    0    0 -0.22225882487E+03 -0.12129141676E+03 -0.13400089502E+03  0.31255692742E+03  0.12500000000E+03 0.  0.
</event>
<event>
 5    0  0.5452999E-005  0.2849326E+03  0.7546771E-02  0.1093025E+00
         21   -1    0    0  502  501  0.00000000000E+00  0.00000000000E+00  0.40753628989E+03  0.40753628989E+03  0.00000000000E+00 0.  1.
         21   -1    0    0  501  502 -0.00000000000E+00 -0.00000000000E+00 -0.19921316234E+03  0.19921316234E+03  0.00000000000E+00 0.  1.
         25    1    1    2    0    0  0.38999661362E+01 -0.19992597981E+02 -0.12382560157E+02  0.12725266797E+03  0.12500000000E+03 0.  0.
         25    1    1    2    0    0  0.14772706756E+03  0.89155071212E+02  0.77608596304E+02  0.22675980118E+03  0.12500000000E+03 0.  0.
         25    1    1    2    0    0 -0.15162703369E+03 -0.69162473231E+02  0.14309709140E+03  0.25273698308E+03  0.12500000000E+03 0.  0.
</event>
<event>
 5    0  0.5452999E-005  0.2284927E+03  0.7546771E-02  0.1127705E+00
         21   -1    0    0  502  501  0.00000000000E+00  0.00000000000E+00  0.39242946187E+03  0.39242946187E+03  0.00000000000E+00 0.  1.
         21   -1    0    0  501  502 -0.00000000000E+00 -0.00000000000E+00 -0.13304025081E+03  0.13304025081E+03  0.00000000000E+00 0.  1.
         25    1    1    2    0    0  0.21214406348E+02  0.81447844919E+02  0.27750952181E+02  0.15322831927E+03  0.12500000000E+03 0.  0.
         25    1    1    2    0    0 -0.53126114239E+02 -0.15824452516E+02  0.64642569268E+02  0.15124965809E+03  0.12500000000E+03 0.  0.
         25    1    1    2    0    0  0.31911707891E+02 -0.65623392402E+02  0.16699568961E+03  0.22099173532E+03  0.12500000000E+03 0.  0.
</event>
<event>
 5    0  0.5452999E-005  0.2260462E+03  0.7546771E-02  0.1129454E+00
         21   -1    0    0  502  501  0.00000000000E+00  0.00000000000E+00  0.11157935789E+04  0.11157935789E+04  0.00000000000E+00 0. -1.
         21   -1    0    0  501  502 -0.00000000000E+00 -0.00000000000E+00 -0.45794221008E+02  0.45794221008E+02  0.00000000000E+00 0. -1.
         25    1    1    2    0    0  0.89454808679E+01  0.11679557388E+02  0.11574857622E+03  0.17099463905E+03  0.12500000000E+03 0.  0.
         25    1    1    2    0    0  0.36028288831E+02 -0.11239815317E+02  0.40614867428E+03  0.42662174894E+03  0.12500000000E+03 0.  0.
         25    1    1    2    0    0 -0.44973769699E+02 -0.43974207132E+00  0.54810210741E+03  0.56397141194E+03  0.12500000000E+03 0.  0.
</event>
<event>
 5    0  0.5452999E-005  0.2691574E+03  0.7546771E-02  0.1101763E+00
         21   -1    0    0  502  501  0.00000000000E+00  0.00000000000E+00  0.15294026798E+03  0.15294026798E+03  0.00000000000E+00 0.  1.
         21   -1    0    0  501  502 -0.00000000000E+00 -0.00000000000E+00 -0.47368620350E+03  0.47368620350E+03  0.00000000000E+00 0.  1.
         25    1    1    2    0    0  0.30852387653E+02  0.73627558692E+01 -0.18574848736E+03  0.22612735473E+03  0.12500000000E+03 0.  0.
         25    1    1    2    0    0  0.30149890724E+02 -0.40691977015E+02 -0.20173557544E+03  0.24266663409E+03  0.12500000000E+03 0.  0.
         25    1    1    2    0    0 -0.61002278377E+02  0.33329221146E+02  0.66738127285E+02  0.15783248266E+03  0.12500000000E+03 0.  0.
</event>
<event>
 5    0  0.5452999E-005  0.3428891E+03  0.7546771E-02  0.1065572E+00
         21   -1    0    0  502  501  0.00000000000E+00  0.00000000000E+00  0.78548690969E+02  0.78548690969E+02  0.00000000000E+00 0.  1.
         21   -1    0    0  501  502 -0.00000000000E+00 -0.00000000000E+00 -0.14968162682E+04  0.14968162682E+04  0.00000000000E+00 0.  1.
         25    1    1    2    0    0 -0.69727919061E+02  0.26691280226E+02 -0.11140403034E+04  0.11235146660E+04  0.12500000000E+03 0.  0.
         25    1    1    2    0    0 -0.54277129138E+02 -0.15426605781E+02 -0.21271735614E+03  0.25309614876E+03  0.12500000000E+03 0.  0.
         25    1    1    2    0    0  0.12400504820E+03 -0.11264674445E+02 -0.91509917635E+02  0.19875414435E+03  0.12500000000E+03 0.  0.
</event>
<event>
 5    0  0.5452999E-005  0.2915104E+03  0.7546771E-02  0.1089563E+00
         21   -1    0    0  502  501  0.00000000000E+00  0.00000000000E+00  0.45799296543E+03  0.45799296543E+03  0.00000000000E+00 0. -1.
         21   -1    0    0  501  502 -0.00000000000E+00 -0.00000000000E+00 -0.18554497511E+03  0.18554497511E+03  0.00000000000E+00 0. -1.
         25    1    1    2    0    0  0.87468890322E+02  0.80543800237E+02  0.15756641335E+03  0.23364564012E+03  0.12500000000E+03 0.  0.
         25    1    1    2    0    0  0.58866711894E+02 -0.11245986821E+03 -0.97139604653E+01  0.17841488939E+03  0.12500000000E+03 0.  0.
         25    1    1    2    0    0 -0.14633560222E+03  0.31916067971E+02  0.12459553744E+03  0.23147741104E+03  0.12500000000E+03 0.  0.
</event>
<event>
 5    0  0.5452999E-005  0.2163222E+03  0.7546771E-02  0.1136655E+00
         21   -1    0    0  502  501  0.00000000000E+00  0.00000000000E+00  0.14788767726E+03  0.14788767726E+03  0.00000000000E+00 0.  1.
         21   -1    0    0  501  502 -0.00000000000E+00 -0.00000000000E+00 -0.31642445225E+03  0.31642445225E+03  0.00000000000E+00 0.  1.
         25    1    1    2    0    0 -0.41179921972E+02 -0.53851211000E+02 -0.61481104426E+02  0.15492148044E+03  0.12500000000E+03 0.  0.
         25    1    1    2    0    0 -0.29585147980E+02 -0.17875516366E+02 -0.45487412030E+02  0.13743696635E+03  0.12500000000E+03 0.  0.
         25    1    1    2    0    0  0.70765069952E+02  0.71726727366E+02 -0.61568258524E+02  0.17195368272E+03  0.12500000000E+03 0.  0.
</event>
<event>
 5    0  0.5452999E-005  0.2756386E+03  0.7546771E-02  0.1098095E+00
         21   -1    0    0  502  501  0.00000000000E+00  0.00000000000E+00  0.33919998782E+03  0.33919998782E+03  0.00000000000E+00 0. -1.
         21   -1    0    0  501  502 -0.00000000000E+00 -0.00000000000E+00 -0.22398779311E+03  0.22398779311E+03  0.00000000000E+00 0. -1.
         25    1    1    2    0    0 -0.71852711683E+02  0.80246185418E+02  0.94580255178E+02  0.19019118571E+03  0.12500000000E+03 0.  0.
         25    1    1    2    0    0 -0.42101632596E+02  0.66204174003E+02 -0.58467062658E+01  0.14769808427E+03  0.12500000000E+03 0.  0.
         25    1    1    2    0    0  0.11395434428E+03 -0.14645035942E+03  0.26478645806E+02  0.22529851095E+03  0.12500000000E+03 0.  0.
</event>
<event>
 5    0  0.5452999E-005  0.3432054E+03  0.7546771E-02  0.1065439E+00
         21   -1    0    0  502  501  0.00000000000E+00  0.00000000000E+00  0.78839850194E+02  0.78839850194E+02  0.00000000000E+00 0. -1.
         21   -1    0    0  501  502 -0.00000000000E+00 -0.00000000000E+00 -0.14940403854E+04  0.14940403854E+04  0.00000000000E+00 0. -1.
         25    1    1    2    0    0  0.10138554004E+03  0.23051844192E+03 -0.38940303577E+03  0.48028897975E+03  0.12500000000E+03 0.  0.
         25    1    1    2    0    0 -0.54482145335E+02 -0.10517070227E+03 -0.31965834196E+03  0.36309177402E+03  0.12500000000E+03 0.  0.
         25    1    1    2    0    0 -0.46903394708E+02 -0.12534773965E+03 -0.70613915751E+03  0.72949948186E+03  0.12500000000E+03 0.  0.
</event>
<event>
 5    0  0.5452999E-005  0.2255312E+03  0.7546771E-02  0.1129825E+00
         21   -1    0    0  502  501  0.00000000000E+00  0.00000000000E+00  0.28337861674E+03  0.28337861674E+03  0.00000000000E+00 0. -1.
         21   -1    0    0  501  502 -0.00000000000E+00 -0.00000000000E+00 -0.17949243623E+03  0.17949243623E+03  0.00000000000E+00 0. -1.
         25    1    1    2    0    0 -0.53890153468E+02  0.71058145611E+02  0.11176451623E+03  0.18992028798E+03  0.12500000000E+03 0.  0.
         25    1    1    2    0    0  0.46322449673E+02 -0.51998876086E+02  0.16226281172E+02  0.14400675213E+03  0.12500000000E+03 0.  0.
         25    1    1    2    0    0  0.75677037952E+01 -0.19059269524E+02 -0.24104616894E+02  0.12894401285E+03  0.12500000000E+03 0.  0.
</event>
<event>
 5    0  0.5452999E-005  0.2393419E+03  0.7546771E-02  0.1120232E+00
         21   -1    0    0  502  501  0.00000000000E+00  0.00000000000E+00  0.15493657156E+03  0.15493657156E+03  0.00000000000E+00 0. -1.
         21   -1    0    0  501  502 -0.00000000000E+00 -0.00000000000E+00 -0.36972909136E+03  0.36972909136E+03  0.00000000000E+00 0. -1.
         25    1    1    2    0    0 -0.61172067178E+02  0.44907460964E+02 -0.54813175877E+02  0.15616717358E+03  0.12500000000E+03 0.  0.
         25    1    1    2    0    0  0.65651505635E+02  0.58184505222E+02 -0.13629584481E+03  0.20468784564E+03  0.12500000000E+03 0.  0.
         25    1    1    2    0    0 -0.44794384562E+01 -0.10309196619E+03 -0.23683499127E+02  0.16381064371E+03  0.12500000000E+03 0.  0.
</event>
<event>
 5    0  0.5452999E-005  0.3448756E+03  0.7546771E-02  0.1064738E+00
         21   -1    0    0  502  501  0.00000000000E+00  0.00000000000E+00  0.87557958454E+03  0.87557958454E+03  0.00000000000E+00 0.  1.
         21   -1    0    0  501  502 -0.00000000000E+00 -0.00000000000E+00 -0.13584054265E+03  0.13584054265E+03  0.00000000000E+00 0.  1.
         25    1    1    2    0    0 -0.44192621949E+02 -0.12791193569E+03  0.11597732038E+02  0.18459132838E+03  0.12500000000E+03 0.  0.
         25    1    1    2    0    0 -0.28494364621E+02 -0.22758793039E+02  0.50371085868E+03  0.52026870041E+03  0.12500000000E+03 0.  0.
         25    1    1    2    0    0  0.72686986570E+02  0.15067072872E+03  0.22443045118E+03  0.30656009839E+03  0.12500000000E+03 0.  0.
</event>
<event>
 5    0  0.5452999E-005  0.2601780E+03  0.7546771E-02  0.1107036E+00
         21   -1    0    0  502  501  0.00000000000E+00  0.00000000000E+00  0.10603132029E+04  0.10603132029E+04  0.00000000000E+00 0.  1.
         21   -1    0    0  501  502 -0.00000000000E+00 -0.00000000000E+00 -0.63842065659E+02  0.63842065659E+02  0.00000000000E+00 0.  1.
         25    1    1    2    0    0 -0.11550861979E+03  0.25128263689E+02  0.54856503742E+03  0.57491066363E+03  0.12500000000E+03 0.  0.
         25    1    1    2    0    0  0.78764098274E+02 -0.89079622267E+02  0.23298007597E+03  0.28990287698E+03  0.12500000000E+03 0.  0.
         25    1    1    2    0    0  0.36744521515E+02  0.63951358578E+02  0.21492602383E+03  0.25934172793E+03  0.12500000000E+03 0.  0.
</event>
<event>
 5    0  0.5452999E-005  0.2698072E+03  0.7546771E-02  0.1101390E+00
         21   -1    0    0  502  501  0.00000000000E+00  0.00000000000E+00  0.26109871255E+03  0.26109871255E+03  0.00000000000E+00 0.  1.
         21   -1    0    0  501  502 -0.00000000000E+00 -0.00000000000E+00 -0.27880617331E+03  0.27880617331E+03  0.00000000000E+00 0.  1.
         25    1    1    2    0    0  0.71708689693E+02 -0.61557912845E+02 -0.99085383107E+02  0.18540341409E+03  0.12500000000E+03 0.  0.
         25    1    1    2    0    0  0.32141256499E+02  0.10294922348E+03 -0.63976754823E+01  0.16521965148E+03  0.12500000000E+03 0.  0.
         25    1    1    2    0    0 -0.10384994619E+03 -0.41391310632E+02  0.87775597826E+02  0.18928182029E+03  0.12500000000E+03 0.  0.
</event>
<event>
 5    0  0.5452999E-005  0.3987847E+03  0.7546771E-02  0.1044201E+00
         21   -1    0    0  502  501  0.00000000000E+00  0.00000000000E+00  0.75393612745E+03  0.75393612745E+03  0.00000000000E+00 0. -1.
         21   -1    0    0  501  502 -0.00000000000E+00 -0.00000000000E+00 -0.21093201342E+03  0.21093201342E+03  0.00000000000E+00 0. -1.
         25    1    1    2    0    0  0.18860324454E+02 -0.23231859068E+03  0.28770587007E+03  0.39080341233E+03  0.12500000000E+03 0.  0.
         25    1    1    2    0    0 -0.10013399918E+03  0.30611799251E+03  0.19746744286E+03  0.39793646996E+03  0.12500000000E+03 0.  0.
         25    1    1    2    0    0  0.81273674731E+02 -0.73799401836E+02  0.57830801094E+02  0.17612825858E+03  0.12500000000E+03 0.  0.
</event>
<event>
 5    0  0.5452999E-005  0.2921707E+03  0.7546771E-02  0.1089221E+00
         21   -1    0    0  502  501  0.00000000000E+00  0.00000000000E+00  0.35419606906E+04  0.35419606906E+04  0.00000000000E+00 0. -1.
         21   -1    0    0  501  502 -0.00000000000E+00 -0.00000000000E+00 -0.24100693177E+02  0.24100693177E+02  0.00000000000E+00 0. -1.
         25    1    1    2    0    0 -0.94164632132E+02  0.11001570634E+03  0.12482217331E+04  0.12627956796E+04  0.12500000000E+03 0.  0.
         25    1    1    2    0    0  0.16488456058E+03 -0.10804773133E+03  0.16926262188E+04  0.17086455885E+04  0.12500000000E+03 0.  0.
         25    1    1    2    0    0 -0.70719928452E+02 -0.19679750158E+01  0.57701204556E+03  0.59462011564E+03  0.12500000000E+03 0.  0.
</event>
<event>
 5    0  0.5452999E-005  0.3981676E+03  0.7546771E-02  0.1044416E+00
         21   -1    0    0  502  501  0.00000000000E+00  0.00000000000E+00  0.70004075426E+03  0.70004075426E+03  0.00000000000E+00 0. -1.
         21   -1    0    0  501  502 -0.00000000000E+00 -0.00000000000E+00 -0.22646891440E+03  0.22646891440E+03  0.00000000000E+00 0. -1.
         25    1    1    2    0    0 -0.20949797587E+03  0.46229703264E+02  0.11742895781E+03  0.27466551930E+03  0.12500000000E+03 0.  0.
         25    1    1    2    0    0 -0.58892689084E+02 -0.12829485036E+03  0.27612178748E+03  0.33435932615E+03  0.12500000000E+03 0.  0.
         25    1    1    2    0    0  0.26839066495E+03  0.82065147098E+02  0.80021094559E+02  0.31748482322E+03  0.12500000000E+03 0.  0.
</event>
<event>
 5    0  0.5452999E-005  0.3034903E+03  0.7546771E-02  0.1083509E+00
         21   -1    0    0  502  501  0.00000000000E+00  0.00000000000E+00  0.25536657201E+03  0.25536657201E+03  0.00000000000E+00 0.  1.
         21   -1    0    0  501  502 -0.00000000000E+00 -0.00000000000E+00 -0.36068286332E+03  0.36068286332E+03  0.00000000000E+00 0.  1.
         25    1    1    2    0    0 -0.18832824605E+03  0.69155199743E+02 -0.83447982894E+02  0.25067615714E+03  0.12500000000E+03 0.  0.
         25    1    1    2    0    0  0.10208569156E+03  0.29527020451E+02 -0.69380090751E+02  0.17813458494E+03  0.12500000000E+03 0.  0.
         25    1    1    2    0    0  0.86242554485E+02 -0.98682220194E+02  0.47511782335E+02  0.18723869324E+03  0.12500000000E+03 0.  0.
</event>
<event>
 5    0  0.5452999E-005  0.3335967E+03  0.7546771E-02  0.1069556E+00
         21   -1    0    0  502  501  0.00000000000E+00  0.00000000000E+00  0.21307488721E+04  0.21307488721E+04  0.00000000000E+00 0. -1.
         21   -1    0    0  501  502 -0.00000000000E+00 -0.00000000000E+00 -0.52228955726E+02  0.52228955726E+02  0.00000000000E+00 0. -1.
         25    1    1    2    0    0  0.21455870405E+03 -0.27889073775E+01  0.58628541990E+03  0.63670935997E+03  0.12500000000E+03 0.  0.
         25    1    1    2    0    0 -0.24598852649E+03 -0.11515389416E+01  0.10449300290E+04  0.10807476332E+04  0.12500000000E+03 0.  0.
         25    1    1    2    0    0  0.31429822433E+02  0.39404463191E+01  0.44730446748E+03  0.46552083464E+03  0.12500000000E+03 0.  0.
</event>
<event>
 5    0  0.5559900E-005  0.2878716E+03  0.7546771E-02  0.1091466E+00
         21   -1    0    0  502  501  0.00000000000E+00  0.00000000000E+00  0.26590265372E+03  0.26590265372E+03  0.00000000000E+00 0. -1.
         21   -1    0    0  501  502 -0.00000000000E+00 -0.00000000000E+00 -0.31165560957E+03  0.31165560957E+03  0.00000000000E+00 0. -1.
         25    1    1    2    0    0  0.63352007563E+01  0.46040459308E+02 -0.20028033180E+03  0.24061809983E+03  0.12500000000E+03 0.  0.
         25    1    1    2    0    0 -0.73219857999E+02 -0.25224979179E+02  0.11937669878E+03  0.18940233206E+03  0.12500000000E+03 0.  0.
         25    1    1    2    0    0  0.66884657243E+02 -0.20815480129E+02  0.35150677175E+02  0.14753783140E+03  0.12500000000E+03 0.  0.
</event>
<event>
 5    0  0.5452999E-005  0.2132710E+03  0.7546771E-02  0.1139002E+00
         21   -1    0    0  502  501  0.00000000000E+00  0.00000000000E+00  0.40140085323E+03  0.40140085323E+03  0.00000000000E+00 0.  1.
         21   -1    0    0  501  502 -0.00000000000E+00 -0.00000000000E+00 -0.11331446930E+03  0.11331446930E+03  0.00000000000E+00 0.  1.
         25    1    1    2    0    0  0.21137587923E+02 -0.21208117690E+02  0.77736990207E+02  0.15021525064E+03  0.12500000000E+03 0.  0.
         25    1    1    2    0    0  0.34711790306E+00  0.74339605143E+02  0.16444026200E+03  0.21952698501E+03  0.12500000000E+03 0.  0.
         25    1    1    2    0    0 -0.21484705826E+02 -0.53131487453E+02  0.45909131721E+02  0.14497308688E+03  0.12500000000E+03 0.  0.
</event>
<event>
 5    0  0.5452999E-005  0.2725833E+03  0.7546771E-02  0.1099810E+00
         21   -1    0    0  502  501  0.00000000000E+00  0.00000000000E+00  0.20023024021E+03  0.20023024021E+03  0.00000000000E+00 0.  1.
         21   -1    0    0  501  502 -0.00000000000E+00 -0.00000000000E+00 -0.37108100709E+03  0.37108100709E+03  0.00000000000E+00 0.  1.
         25    1    1    2    0    0  0.13388042679E+03  0.44474983586E+02 -0.72046785459E+02  0.20178635270E+03  0.12500000000E+03 0.  0.
         25    1    1    2    0    0 -0.15599378686E+03  0.10295931907E+02 -0.11414799516E+03  0.23042315976E+03  0.12500000000E+03 0.  0.
         25    1    1    2    0    0  0.22113360070E+02 -0.54770915494E+02  0.15344013748E+02  0.13910173484E+03  0.12500000000E+03 0.  0.
</event>
<event>
 5    0  0.5452999E-005  0.3220372E+03  0.7546771E-02  0.1074716E+00
         21   -1    0    0  502  501  0.00000000000E+00  0.00000000000E+00  0.58805956518E+03  0.58805956518E+03  0.00000000000E+00 0.  1.
         21   -1    0    0  501  502 -0.00000000000E+00 -0.00000000000E+00 -0.17635617193E+03  0.17635617193E+03  0.00000000000E+00 0.  1.
         25    1    1    2    0    0  0.12288376763E+03  0.25579570315E+02 -0.54827787137E+02  0.18543414197E+03  0.12500000000E+03 0.  0.
         25    1    1    2    0    0  0.37976238625E+02 -0.41778330469E+02  0.16244782187E+03  0.21260742797E+03  0.12500000000E+03 0.  0.
         25    1    1    2    0    0 -0.16086000626E+03  0.16198760155E+02  0.30408335852E+03  0.36637416718E+03  0.12500000000E+03 0.  0.
</event>
<event>
 5    0  0.5452999E-005  0.5140474E+03  0.7546771E-02  0.1010176E+00
         21   -1    0    0  502  501  0.00000000000E+00  0.00000000000E+00  0.14722042314E+03  0.14722042314E+03  0.00000000000E+00 0. -1.
         21   -1    0    0  501  502 -0.00000000000E+00 -0.00000000000E+00 -0.17948914844E+04  0.17948914844E+04  0.00000000000E+00 0. -1.
         25    1    1    2    0    0  0.30890750437E+03 -0.47827300142E+02 -0.68473876923E+03  0.76302259402E+03  0.12500000000E+03 0.  0.
         25    1    1    2    0    0 -0.67194783352E+01  0.17215902714E+03 -0.72597654984E+03  0.75653871873E+03  0.12500000000E+03 0.  0.
         25    1    1    2    0    0 -0.30218802603E+03 -0.12433172700E+03 -0.23695574220E+03  0.42255059482E+03  0.12500000000E+03 0.  0.
</event>
<event>
 5    0  0.5452999E-005  0.2971307E+03  0.7546771E-02  0.1086684E+00
         21   -1    0    0  502  501  0.00000000000E+00  0.00000000000E+00  0.24696022734E+03  0.24696022734E+03  0.00000000000E+00 0.  1.
         21   -1    0    0  501  502 -0.00000000000E+00 -0.00000000000E+00 -0.35749347003E+03  0.35749347003E+03  0.00000000000E+00 0.  1.
         25    1    1    2    0    0  0.68183664325E+02 -0.12639767102E+03 -0.11636368335E+03  0.22313872395E+03  0.12500000000E+03 0.  0.
         25    1    1    2    0    0  0.33345314837E+01  0.18188724451E+03 -0.30339294763E+02  0.22279937527E+03  0.12500000000E+03 0.  0.
         25    1    1    2    0    0 -0.71518195808E+02 -0.55489573483E+02  0.36169735417E+02  0.15851559815E+03  0.12500000000E+03 0.  0.
</event>
<event>
 5    0  0.5452999E-005  0.2465700E+03  0.7546771E-02  0.1115492E+00
         21   -1    0    0  502  501  0.00000000000E+00  0.00000000000E+00  0.10084981620E+03  0.10084981620E+03  0.00000000000E+00 0.  1.
         21   -1    0    0  501  502 -0.00000000000E+00 -0.00000000000E+00 -0.60284453478E+03  0.60284453478E+03  0.00000000000E+00 0.  1.
         25    1    1    2    0    0  0.65349877766E+02 -0.50503058551E+02 -0.26467462849E+03  0.30413619386E+03  0.12500000000E+03 0.  0.
         25    1    1    2    0    0 -0.11067934122E+03  0.68758862570E+02 -0.17547432026E+03  0.25178152201E+03  0.12500000000E+03 0.  0.
         25    1    1    2    0    0  0.45329463454E+02 -0.18255804020E+02 -0.61845769827E+02  0.14777663511E+03  0.12500000000E+03 0.  0.
</event>
<event>
 5    0  0.5452999E-005  0.2930640E+03  0.7546771E-02  0.1088760E+00
         21   -1    0    0  502  501  0.00000000000E+00  0.00000000000E+00  0.36595316696E+03  0.36595316696E+03  0.00000000000E+00 0.  1.
         21   -1    0    0  501  502 -0.00000000000E+00 -0.00000000000E+00 -0.23469267870E+03  0.23469267870E+03  0.00000000000E+00 0.  1.
         25    1    1    2    0    0 -0.15698949181E+03  0.21579493420E+01 -0.99349882802E+01  0.20093297708E+03  0.12500000000E+03 0.  0.
         25    1    1    2    0    0  0.19014529889E+03  0.21289198004E+02  0.14050188144E+03  0.26828015828E+03  0.12500000000E+03 0.  0.
         25    1    1    2    0    0 -0.33155807073E+02 -0.23447147346E+02  0.69359510138E+00  0.13143271030E+03  0.12500000000E+03 0.  0.
</event>
<event>
 5    0  0.5452999E-005  0.2082803E+03  0.7546771E-02  0.1142935E+00
         21   -1    0    0  502  501  0.00000000000E+00  0.00000000000E+00  0.96096145924E+02  0.96096145924E+02  0.00000000000E+00 0.  1.
         21   -1    0    0  501  502 -0.00000000000E+00 -0.00000000000E+00 -0.45142987115E+03  0.45142987115E+03  0.00000000000E+00 0.  1.
         25    1    1    2    0    0  0.19210435249E+02  0.46181922440E+02 -0.20060000649E+03  0.24159299118E+03  0.12500000000E+03 0.  0.
         25    1    1    2    0    0  0.67148746650E+01 -0.12920913022E+02 -0.10844894853E+03  0.16612710186E+03  0.12500000000E+03 0.  0.
         25    1    1    2    0    0 -0.25925309914E+02 -0.33261009419E+02 -0.46284770200E+02  0.13980592403E+03  0.12500000000E+03 0.  0.
</event>
<event>
 5    0  0.5452999E-005  0.3040033E+03  0.7546771E-02  0.1083256E+00
         21   -1    0    0  502  501  0.00000000000E+00  0.00000000000E+00  0.47218376315E+02  0.47218376315E+02  0.00000000000E+00 0. -1.
         21   -1    0    0  501  502 -0.00000000000E+00 -0.00000000000E+00 -0.19572469013E+04  0.19572469013E+04  0.00000000000E+00 0. -1.
         25    1    1    2    0    0 -0.28067622876E+02  0.65046727061E+02 -0.11935219082E+03  0.18678547483E+03  0.12500000000E+03 0.  0.
         25    1    1    2    0    0  0.53380423389E+02 -0.67297844937E+02 -0.13622610864E+04  0.13706782034E+04  0.12500000000E+03 0.  0.
         25    1    1    2    0    0 -0.25312800513E+02  0.22511178765E+01 -0.42841524769E+03  0.44700159939E+03  0.12500000000E+03 0.  0.
</event>
<event>
 5    0  0.6772390E-005  0.2877337E+03  0.7546771E-02  0.1091538E+00
         21   -1    0    0  502  501  0.00000000000E+00  0.00000000000E+00  0.57849203266E+03  0.57849203266E+03  0.00000000000E+00 0.  1.
         21   -1    0    0  501  502 -0.00000000000E+00 -0.00000000000E+00 -0.14311461296E+03  0.14311461296E+03  0.00000000000E+00 0.  1.
         25    1    1    2    0    0  0.89442852784E+02  0.92989087361E+02  0.20266310552E+03  0.27082158079E+03  0.12500000000E+03 0.  0.
         25    1    1    2    0    0  0.77905512622E+02 -0.23465684575E+02  0.16049341520E+03  0.21909596887E+03  0.12500000000E+03 0.  0.
         25    1    1    2    0    0 -0.16734836541E+03 -0.69523402786E+02  0.72220898978E+02  0.23168909596E+03  0.12500000000E+03 0.  0.
</event>
<event>
 5    0  0.5452999E-005  0.2931529E+03  0.7546771E-02  0.1088714E+00
         21   -1    0    0  502  501  0.00000000000E+00  0.00000000000E+00  0.15233519394E+03  0.15233519394E+03  0.00000000000E+00 0.  1.
         21   -1    0    0  501  502 -0.00000000000E+00 -0.00000000000E+00 -0.56414156059E+03  0.56414156059E+03  0.00000000000E+00 0.  1.
         25    1    1    2    0    0 -0.52166802989E+02 -0.36186664482E+02  0.45115625539E+02  0.14727956304E+03  0.12500000000E+03 0.  0.
         25    1    1    2    0    0 -0.67690958387E+02 -0.41814264189E+02 -0.17562874441E+03  0.22978458260E+03  0.12500000000E+03 0.  0.
         25    1    1    2    0    0  0.11985776138E+03  0.78000928671E+02 -0.28129324777E+03  0.33941260889E+03  0.12500000000E+03 0.  0.
</event>
<event>
 5    0  0.5452999E-005  0.2371703E+03  0.7546771E-02  0.1121692E+00
         21   -1    0    0  502  501  0.00000000000E+00  0.00000000000E+00  0.22925912783E+04  0.22925912783E+04  0.00000000000E+00 0. -1.
         21   -1    0    0  501  502 -0.00000000000E+00 -0.00000000000E+00 -0.24535441775E+02  0.24535441775E+02  0.00000000000E+00 0. -1.
         25    1    1    2    0    0 -0.23962813484E+01 -0.44547772934E+02  0.72827875403E+03  0.74027372627E+03  0.12500000000E+03 0.  0.
         25    1    1    2    0    0 -0.74712568532E+02 -0.62161592527E+02  0.70406127833E+03  0.72164625345E+03  0.12500000000E+03 0.  0.
         25    1    1    2    0    0  0.77108849880E+02  0.10670936546E+03  0.83571580421E+03  0.85520674039E+03  0.12500000000E+03 0.  0.
</event>
<event>
 5    0  0.5687549E-005  0.4567496E+03  0.7546771E-02  0.1025728E+00
         21   -1    0    0  502  501  0.00000000000E+00  0.00000000000E+00  0.20416684360E+03  0.20416684360E+03  0.00000000000E+00 0.  1.
         21   -1    0    0  501  502 -0.00000000000E+00 -0.00000000000E+00 -0.10218125053E+04  0.10218125053E+04  0.00000000000E+00 0.  1.
         25    1    1    2    0    0 -0.13735260717E+03 -0.25272966127E+03 -0.45511195286E+03  0.55271141658E+03  0.12500000000E+03 0.  0.
         25    1    1    2    0    0  0.17472492462E+03  0.24966912417E+03 -0.41739525385E+03  0.53170223695E+03  0.12500000000E+03 0.  0.
         25    1    1    2    0    0 -0.37372317453E+02  0.30605371014E+01  0.54861544964E+02  0.14156569540E+03  0.12500000000E+03 0.  0.
</event>
<event>
 5    0  0.5452999E-005  0.3273160E+03  0.7546771E-02  0.1072331E+00
         21   -1    0    0  502  501  0.00000000000E+00  0.00000000000E+00  0.45548089151E+03  0.45548089151E+03  0.00000000000E+00 0.  1.
         21   -1    0    0  501  502 -0.00000000000E+00 -0.00000000000E+00 -0.23521458473E+03  0.23521458473E+03  0.00000000000E+00 0.  1.
         25    1    1    2    0    0  0.25799108636E+02  0.22743430507E+03  0.62770279844E+02  0.26824814102E+03  0.12500000000E+03 0.  0.
         25    1    1    2    0    0  0.20360712306E+02 -0.20767889726E+03  0.45948638733E+02  0.24755072283E+03  0.12500000000E+03 0.  0.
         25    1    1    2    0    0 -0.46159820942E+02 -0.19755407813E+02  0.11154738820E+03  0.17489661238E+03  0.12500000000E+03 0.  0.
</event>
<event>
 5    0  0.5452999E-005  0.4844576E+03  0.7546771E-02  0.1017917E+00
         21   -1    0    0  502  501  0.00000000000E+00  0.00000000000E+00  0.96135257108E+03  0.96135257108E+03  0.00000000000E+00 0.  1.
         21   -1    0    0  501  502 -0.00000000000E+00 -0.00000000000E+00 -0.24413433799E+03  0.24413433799E+03  0.00000000000E+00 0.  1.
         25    1    1    2    0    0 -0.13732589792E+03 -0.35989673023E+02  0.70275181317E+02  0.20178518259E+03  0.12500000000E+03 0.  0.
         25    1    1    2    0    0 -0.19994836323E+03  0.24951058149E+03  0.35331127470E+03  0.49263448424E+03  0.12500000000E+03 0.  0.
         25    1    1    2    0    0  0.33727426114E+03 -0.21352090847E+03  0.29363177708E+03  0.51106724224E+03  0.12500000000E+03 0.  0.
</event>
<event>
 5    0  0.5452999E-005  0.2554452E+03  0.7546771E-02  0.1109911E+00
         21   -1    0    0  502  501  0.00000000000E+00  0.00000000000E+00  0.11648629528E+03  0.11648629528E+03  0.00000000000E+00 0.  1.
         21   -1    0    0  501  502 -0.00000000000E+00 -0.00000000000E+00 -0.56017088670E+03  0.56017088670E+03  0.00000000000E+00 0.  1.
         25    1    1    2    0    0 -0.86427023932E+02  0.12141542952E+03 -0.22881425753E+03  0.30032033138E+03  0.12500000000E+03 0.  0.
         25    1    1    2    0    0  0.59664347979E+02 -0.10858867445E+03 -0.15530542529E+03  0.23472560526E+03  0.12500000000E+03 0.  0.
         25    1    1    2    0    0  0.26762675952E+02 -0.12826755071E+02 -0.59564908600E+02  0.14161124534E+03  0.12500000000E+03 0.  0.
</event>
<event>
 5    0  0.5452999E-005  0.3154697E+03  0.7546771E-02  0.1077753E+00
         21   -1    0    0  502  501  0.00000000000E+00  0.00000000000E+00  0.39462177361E+03  0.39462177361E+03  0.00000000000E+00 0. -1.
         21   -1    0    0  501  502 -0.00000000000E+00 -0.00000000000E+00 -0.25219378404E+03  0.25219378404E+03  0.00000000000E+00 0. -1.
         25    1    1    2    0    0  0.14857933225E+02  0.74833217680E+02 -0.12744968986E+03  0.19413704462E+03  0.12500000000E+03 0.  0.
         25    1    1    2    0    0  0.30800069786E+02  0.52540529661E+02  0.22266323144E+03  0.26251298290E+03  0.12500000000E+03 0.  0.
         25    1    1    2    0    0 -0.45658003011E+02 -0.12737374734E+03  0.47214448002E+02  0.19016553013E+03  0.12500000000E+03 0.  0.
</event>
<event>
 5    0  0.5452999E-005  0.4563682E+03  0.7546771E-02  0.1025840E+00
         21   -1    0    0  502  501  0.00000000000E+00  0.00000000000E+00  0.99151371333E+02  0.99151371333E+02  0.00000000000E+00 0.  1.
         21   -1    0    0  501  502 -0.00000000000E+00 -0.00000000000E+00 -0.21005451251E+04  0.21005451251E+04  0.00000000000E+00 0.  1.
         25    1    1    2    0    0  0.65032066491E+02 -0.23858721022E+03 -0.24057101240E+03  0.36695018539E+03  0.12500000000E+03 0.  0.
         25    1    1    2    0    0 -0.73259924260E+02  0.13303195315E+03 -0.15655666998E+04  0.15778747126E+04  0.12500000000E+03 0.  0.
         25    1    1    2    0    0  0.82278577694E+01  0.10555525707E+03 -0.19525604159E+03  0.25487159849E+03  0.12500000000E+03 0.  0.
</event>
<event>
 5    0  0.5452999E-005  0.2405567E+03  0.7546771E-02  0.1119423E+00
         21   -1    0    0  502  501  0.00000000000E+00  0.00000000000E+00  0.12683062764E+03  0.12683062764E+03  0.00000000000E+00 0.  1.
         21   -1    0    0  501  502 -0.00000000000E+00 -0.00000000000E+00 -0.45625838800E+03  0.45625838800E+03  0.00000000000E+00 0.  1.
         25    1    1    2    0    0  0.31188801509E+02  0.42268425332E+02 -0.76554971264E+02  0.15570813962E+03  0.12500000000E+03 0.  0.
         25    1    1    2    0    0  0.39192331433E+02  0.77554146916E+02 -0.76432314567E+02  0.17034548206E+03  0.12500000000E+03 0.  0.
         25    1    1    2    0    0 -0.70381132943E+02 -0.11982257225E+03 -0.17644047454E+03  0.25703539396E+03  0.12500000000E+03 0.  0.
</event>
<event>
 5    0  0.5452999E-005  0.2808459E+03  0.7546771E-02  0.1095228E+00
         21   -1    0    0  502  501  0.00000000000E+00  0.00000000000E+00  0.10111210008E+03  0.10111210008E+03  0.00000000000E+00 0. -1.
         21   -1    0    0  501  502 -0.00000000000E+00 -0.00000000000E+00 -0.78006926590E+03  0.78006926590E+03  0.00000000000E+00 0. -1.
         25    1    1    2    0    0 -0.36816897825E+00 -0.24045267760E+02 -0.30450320464E+03  0.33003865241E+03  0.12500000000E+03 0.  0.
         25    1    1    2    0    0  0.24049431789E+02 -0.10123483161E+03 -0.32883121941E+03  0.36685397253E+03  0.12500000000E+03 0.  0.
         25    1    1    2    0    0 -0.23681262811E+02  0.12528009937E+03 -0.45622741770E+02  0.18428874103E+03  0.12500000000E+03 0.  0.
</event>
<event>
 5    0  0.5452999E-005  0.4171937E+03  0.7546771E-02  0.1037984E+00
         21   -1    0    0  502  501  0.00000000000E+00  0.00000000000E+00  0.12296289352E+04  0.12296289352E+04  0.00000000000E+00 0. -1.
         21   -1    0    0  501  502 -0.00000000000E+00 -0.00000000000E+00 -0.14154723952E+03  0.14154723952E+03  0.00000000000E+00 0. -1.
         25    1    1    2    0    0  0.32291836115E+03 -0.39143793241E+02  0.24016352004E+03  0.42321628144E+03  0.12500000000E+03 0.  0.
         25    1    1    2    0    0 -0.21441923024E+03  0.61583620524E+02  0.54596534298E+03  0.60288581369E+03  0.12500000000E+03 0.  0.
         25    1    1    2    0    0 -0.10849913091E+03 -0.22439827284E+02  0.30195283267E+03  0.34507407961E+03  0.12500000000E+03 0.  0.
</event>
<event>
 5    0  0.5452999E-005  0.3591342E+03  0.7546771E-02  0.1058927E+00
         21   -1    0    0  502  501  0.00000000000E+00  0.00000000000E+00  0.65195999614E+02  0.65195999614E+02  0.00000000000E+00 0. -1.
         21   -1    0    0  501  502 -0.00000000000E+00 -0.00000000000E+00 -0.19783014669E+04  0.19783014669E+04  0.00000000000E+00 0. -1.
         25    1    1    2    0    0  0.59666865556E+02  0.84855569298E+02 -0.10391095824E+03  0.19282917240E+03  0.12500000000E+03 0.  0.
         25    1    1    2    0    0  0.32033758307E+01 -0.16191049868E+03 -0.67615834801E+03  0.70642790345E+03  0.12500000000E+03 0.  0.
         25    1    1    2    0    0 -0.62870241387E+02  0.77054929382E+02 -0.11330361611E+04  0.11442403907E+04  0.12500000000E+03 0.  0.
</event>
<event>
 5    0  0.5452999E-005  0.2935128E+03  0.7546771E-02  0.1088529E+00
         21   -1    0    0  502  501  0.00000000000E+00  0.00000000000E+00  0.38320266666E+03  0.38320266666E+03  0.00000000000E+00 0.  1.
         21   -1    0    0  501  502 -0.00000000000E+00 -0.00000000000E+00 -0.22481518549E+03  0.22481518549E+03  0.00000000000E+00 0.  1.
         25    1    1    2    0    0  0.10767444954E+03 -0.80909823216E+02 -0.51441545509E+02  0.19081776432E+03  0.12500000000E+03 0.  0.
         25    1    1    2    0    0 -0.27150100701E+02 -0.20706401902E+02  0.19810676989E+03  0.23672172550E+03  0.12500000000E+03 0.  0.
         25    1    1    2    0    0 -0.80524348837E+02  0.10161622512E+03  0.11722256788E+02  0.18047836232E+03  0.12500000000E+03 0.  0.
</event>
<event>
 5    0  0.5452999E-005  0.3333218E+03  0.7546771E-02  0.1069676E+00
         21   -1    0    0  502  501  0.00000000000E+00  0.00000000000E+00  0.19075492822E+03  0.19075492822E+03  0.00000000000E+00 0. -1.
         21   -1    0    0  501  502 -0.00000000000E+00 -0.00000000000E+00 -0.58244059075E+03  0.58244059075E+03  0.00000000000E+00 0. -1.
         25    1    1    2    0    0 -0.50098068127E+02 -0.43149824034E+02 -0.25268741423E+03  0.28956459220E+03  0.12500000000E+03 0.  0.
         25    1    1    2    0    0 -0.70576325168E+01 -0.22476129792E+02  0.12532331913E+03  0.17856629274E+03  0.12500000000E+03 0.  0.
         25    1    1    2    0    0  0.57155700643E+02  0.65625953827E+02 -0.26432156742E+03  0.30506463403E+03  0.12500000000E+03 0.  0.
</event>
<event>
 5    0  0.5452999E-005  0.3444034E+03  0.7546771E-02  0.1064936E+00
         21   -1    0    0  502  501  0.00000000000E+00  0.00000000000E+00  0.87717620140E+03  0.87717620140E+03  0.00000000000E+00 0.  1.
         21   -1    0    0  501  502 -0.00000000000E+00 -0.00000000000E+00 -0.13522218810E+03  0.13522218810E+03  0.00000000000E+00 0.  1.
         25    1    1    2    0    0  0.11045621451E+02 -0.15332261268E+03  0.17891453345E+03  0.26695550115E+03  0.12500000000E+03 0.  0.
         25    1    1    2    0    0  0.47820831774E+01 -0.10738598345E+03  0.34699386410E+03  0.38416709839E+03  0.12500000000E+03 0.  0.
         25    1    1    2    0    0 -0.15827704629E+02  0.26070859613E+03  0.21604561575E+03  0.36127578996E+03  0.12500000000E+03 0.  0.
</event>
<event>
 5    0  0.5452999E-005  0.3430324E+03  0.7546771E-02  0.1065512E+00
         21   -1    0    0  502  501  0.00000000000E+00  0.00000000000E+00  0.74104681783E+02  0.74104681783E+02  0.00000000000E+00 0. -1.
         21   -1    0    0  501  502 -0.00000000000E+00 -0.00000000000E+00 -0.15879058771E+04  0.15879058771E+04  0.00000000000E+00 0. -1.
         25    1    1    2    0    0  0.90645738566E+02  0.10528572510E+03 -0.28666347415E+03  0.34220269029E+03  0.12500000000E+03 0.  0.
         25    1    1    2    0    0  0.84385788575E+02  0.94952064772E+02 -0.62301011913E+03  0.64799958677E+03  0.12500000000E+03 0.  0.
         25    1    1    2    0    0 -0.17503152714E+03 -0.20023778987E+03 -0.60412760206E+03  0.67180828184E+03  0.12500000000E+03 0.  0.
</event>
<event>
 5    0  0.5452999E-005  0.3075601E+03  0.7546771E-02  0.1081521E+00
         21   -1    0    0  502  501  0.00000000000E+00  0.00000000000E+00  0.10882544808E+03  0.10882544808E+03  0.00000000000E+00 0.  1.
         21   -1    0    0  501  502 -0.00000000000E+00 -0.00000000000E+00 -0.86921959544E+03  0.86921959544E+03  0.00000000000E+00 0.  1.
         25    1    1    2    0    0 -0.15955844816E+03 -0.37069924442E+02 -0.31640466681E+03  0.37758441554E+03  0.12500000000E+03 0.  0.
         25    1    1    2    0    0  0.19324265346E+02  0.12067723749E+03 -0.30731317441E+03  0.35355736457E+03  0.12500000000E+03 0.  0.
         25    1    1    2    0    0  0.14023418282E+03 -0.83607313043E+02 -0.13667630615E+03  0.24690326342E+03  0.12500000000E+03 0.  0.
</event>
<event>
 5    0  0.5452999E-005  0.3618045E+03  0.7546771E-02  0.1057872E+00
         21   -1    0    0  502  501  0.00000000000E+00  0.00000000000E+00  0.58765984437E+03  0.58765984437E+03  0.00000000000E+00 0.  1.
         21   -1    0    0  501  502 -0.00000000000E+00 -0.00000000000E+00 -0.22275216728E+03  0.22275216728E+03  0.00000000000E+00 0.  1.
         25    1    1    2    0    0  0.28071175041E+02  0.18532890885E+03 -0.15477056923E+02  0.22583032262E+03  0.12500000000E+03 0.  0.
         25    1    1    2    0    0 -0.62716749666E+02 -0.17834641347E+03  0.39341687291E+03  0.45402937105E+03  0.12500000000E+03 0.  0.
         25    1    1    2    0    0  0.34645574625E+02 -0.69824953766E+01 -0.13032138902E+02  0.13055231797E+03  0.12500000000E+03 0.  0.
</event>
<event>
 5    0  0.5452999E-005  0.2987685E+03  0.7546771E-02  0.1085858E+00
         21   -1    0    0  502  501  0.00000000000E+00  0.00000000000E+00  0.42799053113E+03  0.42799053113E+03  0.00000000000E+00 0. -1.
         21   -1    0    0  501  502 -0.00000000000E+00 -0.00000000000E+00 -0.20856219298E+03  0.20856219298E+03  0.00000000000E+00 0. -1.
         25    1    1    2    0    0 -0.18305080042E+03 -0.45275055561E+02  0.75586146295E+01  0.22636156663E+03  0.12500000000E+03 0.  0.
         25    1    1    2    0    0  0.17713721714E+03  0.42251052813E+02  0.16814577837E+03  0.27759817713E+03  0.12500000000E+03 0.  0.
         25    1    1    2    0    0  0.59135832803E+01  0.30240027482E+01  0.43723945144E+02  0.13259298035E+03  0.12500000000E+03 0.  0.
</event>
<event>
 5    0  0.5452999E-005  0.3893693E+03  0.7546771E-02  0.1047524E+00
         21   -1    0    0  502  501  0.00000000000E+00  0.00000000000E+00  0.25185634261E+03  0.25185634261E+03  0.00000000000E+00 0.  1.
         21   -1    0    0  501  502 -0.00000000000E+00 -0.00000000000E+00 -0.60196400600E+03  0.60196400600E+03  0.00000000000E+00 0.  1.
         25    1    1    2    0    0 -0.63079116084E+02  0.15608334433E+03 -0.22721940866E+03  0.30918383680E+03  0.12500000000E+03 0.  0.
         25    1    1    2    0    0  0.19092545130E+03 -0.14191435781E+03 -0.21393489324E+03  0.34348995830E+03  0.12500000000E+03 0.  0.
         25    1    1    2    0    0 -0.12784633521E+03 -0.14168986524E+02  0.91046638511E+02  0.20114655352E+03  0.12500000000E+03 0.  0.
</event>
<event>
 5    0  0.5452999E-005  0.3225997E+03  0.7546771E-02  0.1074459E+00
         21   -1    0    0  502  501  0.00000000000E+00  0.00000000000E+00  0.10129850124E+04  0.10129850124E+04  0.00000000000E+00 0.  1.
         21   -1    0    0  501  502 -0.00000000000E+00 -0.00000000000E+00 -0.10273651393E+03  0.10273651393E+03  0.00000000000E+00 0.  1.
         25    1    1    2    0    0 -0.23363350690E+03  0.10130462413E+02  0.35100142887E+03  0.43990254021E+03  0.12500000000E+03 0.  0.
         25    1    1    2    0    0  0.21672782852E+03 -0.27724605039E+02  0.38502457605E+03  0.46000927115E+03  0.12500000000E+03 0.  0.
         25    1    1    2    0    0  0.16905678381E+02  0.17594142625E+02  0.17422249356E+03  0.21580971498E+03  0.12500000000E+03 0.  0.
</event>
<event>
 5    0  0.5452999E-005  0.2320212E+03  0.7546771E-02  0.1125225E+00
         21   -1    0    0  502  501  0.00000000000E+00  0.00000000000E+00  0.53210177831E+03  0.53210177831E+03  0.00000000000E+00 0.  1.
         21   -1    0    0  501  502 -0.00000000000E+00 -0.00000000000E+00 -0.10117207865E+03  0.10117207865E+03  0.00000000000E+00 0.  1.
         25    1    1    2    0    0 -0.17062215302E+02 -0.26536755579E+02  0.21863839298E+03  0.25381699209E+03  0.12500000000E+03 0.  0.
         25    1    1    2    0    0  0.97102767814E+01  0.79435321392E+02  0.19096739021E+03  0.24186319249E+03  0.12500000000E+03 0.  0.
         25    1    1    2    0    0  0.73519385210E+01 -0.52898565813E+02  0.21323916481E+02  0.13759367238E+03  0.12500000000E+03 0.  0.
</event>
<event>
 5    0  0.5452999E-005  0.4403040E+03  0.7546771E-02  0.1030654E+00
         21   -1    0    0  502  501  0.00000000000E+00  0.00000000000E+00  0.18146778109E+03  0.18146778109E+03  0.00000000000E+00 0.  1.
         21   -1    0    0  501  502 -0.00000000000E+00 -0.00000000000E+00 -0.10683307235E+04  0.10683307235E+04  0.00000000000E+00 0.  1.
         25    1    1    2    0    0 -0.75765850810E+02  0.11801191181E+03 -0.85051703785E+02  0.20621849528E+03  0.12500000000E+03 0.  0.
         25    1    1    2    0    0 -0.13592704765E+03  0.10000768688E+03 -0.39804686840E+02  0.21374543928E+03  0.12500000000E+03 0.  0.
         25    1    1    2    0    0  0.21169289846E+03 -0.21801959868E+03 -0.76200655177E+03  0.82983457003E+03  0.12500000000E+03 0.  0.
</event>
<event>
 5    0  0.5452999E-005  0.4389472E+03  0.7546771E-02  0.1031070E+00
         21   -1    0    0  502  501  0.00000000000E+00  0.00000000000E+00  0.20904607426E+04  0.20904607426E+04  0.00000000000E+00 0.  1.
         21   -1    0    0  501  502 -0.00000000000E+00 -0.00000000000E+00 -0.92168523402E+02  0.92168523402E+02  0.00000000000E+00 0. -1.
         25    1    1    2    0    0  0.82631097084E+02  0.14655498665E+03  0.18543763577E+03  0.27985421040E+03  0.12500000000E+03 0.  0.
         25    1    1    2    0    0  0.27354923394E+02  0.17117430284E+03  0.55339342680E+03  0.59322695372E+03  0.12500000000E+03 0.  0.
         25    1    1    2    0    0 -0.10998602048E+03 -0.31772928949E+03  0.12594611566E+04  0.13095481019E+04  0.12500000000E+03 0.  0.
</event>
<event>
 5    0  0.5672575E-005  0.3242733E+03  0.7546771E-02  0.1073699E+00
         21   -1    0    0  502  501  0.00000000000E+00  0.00000000000E+00  0.50480899623E+03  0.50480899623E+03  0.00000000000E+00 0. -1.
         21   -1    0    0  501  502 -0.00000000000E+00 -0.00000000000E+00 -0.20830284685E+03  0.20830284685E+03  0.00000000000E+00 0. -1.
         25    1    1    2    0    0  0.12388038418E+03 -0.13057718381E+03  0.24889439107E+02  0.22054757921E+03  0.12500000000E+03 0.  0.
         25    1    1    2    0    0 -0.46043434614E+02  0.11476619991E+03 -0.81464187388E+01  0.17601887016E+03  0.12500000000E+03 0.  0.
         25    1    1    2    0    0 -0.77836949564E+02  0.15810983899E+02  0.27976312901E+03  0.31654539372E+03  0.12500000000E+03 0.  0.
</event>
<event>
 5    0  0.5452999E-005  0.3595526E+03  0.7546771E-02  0.1058761E+00
         21   -1    0    0  502  501  0.00000000000E+00  0.00000000000E+00  0.10600537049E+04  0.10600537049E+04  0.00000000000E+00 0.  1.
         21   -1    0    0  501  502 -0.00000000000E+00 -0.00000000000E+00 -0.12195424605E+03  0.12195424605E+03  0.00000000000E+00 0.  1.
         25    1    1    2    0    0 -0.53827466736E+02 -0.77909174888E+02  0.14068279053E+02  0.15744888752E+03  0.12500000000E+03 0.  0.
         25    1    1    2    0    0 -0.11949716071E+03  0.12185974964E+03  0.57793320340E+03  0.61543574611E+03  0.12500000000E+03 0.  0.
         25    1    1    2    0    0  0.17332462745E+03 -0.43950574752E+02  0.34609797639E+03  0.40912331731E+03  0.12500000000E+03 0.  0.
</event>
<event>
 5    0  0.5452999E-005  0.4405648E+03  0.7546771E-02  0.1030574E+00
         21   -1    0    0  502  501  0.00000000000E+00  0.00000000000E+00  0.62216067041E+03  0.62216067041E+03  0.00000000000E+00 0.  1.
         21   -1    0    0  501  502 -0.00000000000E+00 -0.00000000000E+00 -0.31197307558E+03  0.31197307558E+03  0.00000000000E+00 0.  1.
         25    1    1    2    0    0  0.84386196876E+02  0.16143290058E+02 -0.21301447836E+03  0.26149914728E+03  0.12500000000E+03 0.  0.
         25    1    1    2    0    0 -0.58860878123E+02 -0.47555475655E+02  0.52113067721E+03  0.54122851825E+03  0.12500000000E+03 0.  0.
         25    1    1    2    0    0 -0.25525318752E+02  0.31412185597E+02  0.20713959785E+01  0.13140608046E+03  0.12500000000E+03 0.  0.
</event>
<event>
 5    0  0.5452999E-005  0.3376257E+03  0.7546771E-02  0.1067812E+00
         21   -1    0    0  502  501  0.00000000000E+00  0.00000000000E+00  0.40989864174E+03  0.40989864174E+03  0.00000000000E+00 0. -1.
         21   -1    0    0  501  502 -0.00000000000E+00 -0.00000000000E+00 -0.27809586307E+03  0.27809586307E+03  0.00000000000E+00 0. -1.
         25    1    1    2    0    0 -0.11994634997E+03  0.89704943276E+01  0.62542820855E+02  0.18440228057E+03  0.12500000000E+03 0.  0.
         25    1    1    2    0    0  0.23296752821E+03  0.61632955321E+02  0.14267610462E+03  0.30668218274E+03  0.12500000000E+03 0.  0.
         25    1    1    2    0    0 -0.11302117823E+03 -0.70603449649E+02 -0.73416146803E+02  0.19691004150E+03  0.12500000000E+03 0.  0.
</event>
<event>
 5    0  0.5452999E-005  0.2497642E+03  0.7546771E-02  0.1113454E+00
         21   -1    0    0  502  501  0.00000000000E+00  0.00000000000E+00  0.25546639274E+03  0.25546639274E+03  0.00000000000E+00 0.  1.
         21   -1    0    0  501  502 -0.00000000000E+00 -0.00000000000E+00 -0.24418935436E+03  0.24418935436E+03  0.00000000000E+00 0.  1.
         25    1    1    2    0    0  0.80521728124E+02  0.30877248886E+01 -0.65305941489E+02  0.16242890364E+03  0.12500000000E+03 0.  0.
         25    1    1    2    0    0  0.34870520384E+02 -0.40424131044E+02 -0.21077025912E+02  0.13754746302E+03  0.12500000000E+03 0.  0.
         25    1    1    2    0    0 -0.11539224851E+03  0.37336406155E+02  0.97660005781E+02  0.19967938043E+03  0.12500000000E+03 0.  0.
</event>
<event>
 5    0  0.5452999E-005  0.4304847E+03  0.7546771E-02  0.1033707E+00
         21   -1    0    0  502  501  0.00000000000E+00  0.00000000000E+00  0.59541240743E+03  0.59541240743E+03  0.00000000000E+00 0. -1.
         21   -1    0    0  501  502 -0.00000000000E+00 -0.00000000000E+00 -0.31124154703E+03  0.31124154703E+03  0.00000000000E+00 0. -1.
         25    1    1    2    0    0  0.98370989030E+02  0.29273771940E+03 -0.13355172541E+02  0.33343002935E+03  0.12500000000E+03 0.  0.
         25    1    1    2    0    0 -0.35024932621E+02 -0.26704380931E+03  0.70472103438E+02  0.30517283523E+03  0.12500000000E+03 0.  0.
         25    1    1    2    0    0 -0.63346056409E+02 -0.25693910087E+02  0.22705392951E+03  0.26805108988E+03  0.12500000000E+03 0.  0.
</event>
<event>
 5    0  0.5452999E-005  0.4296244E+03  0.7546771E-02  0.1033979E+00
         21   -1    0    0  502  501  0.00000000000E+00  0.00000000000E+00  0.55884608474E+03  0.55884608474E+03  0.00000000000E+00 0.  1.
         21   -1    0    0  501  502 -0.00000000000E+00 -0.00000000000E+00 -0.33028255880E+03  0.33028255880E+03  0.00000000000E+00 0.  1.
         25    1    1    2    0    0  0.85144674150E+02  0.10907760063E+03 -0.80515859803E+02  0.20311411122E+03  0.12500000000E+03 0.  0.
         25    1    1    2    0    0 -0.15801604714E+03 -0.76421973370E+02  0.43886939511E+03  0.48891792270E+03  0.12500000000E+03 0.  0.
         25    1    1    2    0    0  0.72871372995E+02 -0.32655627261E+02 -0.12979000937E+03  0.19709660962E+03  0.12500000000E+03 0.  0.
</event>
<event>
 5    0  0.5452999E-005  0.3515001E+03  0.7546771E-02  0.1062001E+00
         21   -1    0    0  502  501  0.00000000000E+00  0.00000000000E+00  0.24479969421E+03  0.24479969421E+03  0.00000000000E+00 0.  1.
         21   -1    0    0  501  502 -0.00000000000E+00 -0.00000000000E+00 -0.50470780076E+03  0.50470780076E+03  0.00000000000E+00 0.  1.
         25    1    1    2    0    0 -0.13319089473E+03  0.28537415376E+02 -0.18396959608E+03  0.26081413075E+03  0.12500000000E+03 0.  0.
         25    1    1    2    0    0 -0.25641420277E+02 -0.15211075808E+03 -0.14040649935E+03  0.24317514309E+03  0.12500000000E+03 0.  0.
         25    1    1    2    0    0  0.15883231501E+03  0.12357334271E+03  0.64467988885E+02  0.24551822113E+03  0.12500000000E+03 0.  0.
</event>
<event>
 5    0  0.5452999E-005  0.3079679E+03  0.7546771E-02  0.1081324E+00
         21   -1    0    0  502  501  0.00000000000E+00  0.00000000000E+00  0.11902060653E+04  0.11902060653E+04  0.00000000000E+00 0. -1.
         21   -1    0    0  501  502 -0.00000000000E+00 -0.00000000000E+00 -0.79687208291E+02  0.79687208291E+02  0.00000000000E+00 0. -1.
         25    1    1    2    0    0 -0.18197753267E+03 -0.72557268177E+01  0.20966184406E+03  0.30455140259E+03  0.12500000000E+03 0.  0.
         25    1    1    2    0    0  0.33111538578E+02  0.34637099350E+02  0.51892581528E+03  0.53591520262E+03  0.12500000000E+03 0.  0.
         25    1    1    2    0    0  0.14886599409E+03 -0.27381372532E+02  0.38193119766E+03  0.42942666837E+03  0.12500000000E+03 0.  0.
</event>
<event>
 5    0  0.5452999E-005  0.2200748E+03  0.7546771E-02  0.1133827E+00
         21   -1    0    0  502  501  0.00000000000E+00  0.00000000000E+00  0.69394822643E+03  0.69394822643E+03  0.00000000000E+00 0.  1.
         21   -1    0    0  501  502 -0.00000000000E+00 -0.00000000000E+00 -0.69793260778E+02  0.69793260778E+02  0.00000000000E+00 0.  1.
         25    1    1    2    0    0 -0.55003823950E+02 -0.39779227027E+01  0.29559122823E+03  0.32563847857E+03  0.12500000000E+03 0.  0.
         25    1    1    2    0    0  0.60120332793E+02  0.53317324271E+02  0.21890923477E+03  0.26458164061E+03  0.12500000000E+03 0.  0.
         25    1    1    2    0    0 -0.51165088429E+01 -0.49339401568E+02  0.10965450266E+03  0.17352136803E+03  0.12500000000E+03 0.  0.
</event>
<event>
 5    0  0.5452999E-005  0.3257533E+03  0.7546771E-02  0.1073031E+00
         21   -1    0    0  502  501  0.00000000000E+00  0.00000000000E+00  0.24520759106E+04  0.24520759106E+04  0.00000000000E+00 0. -1.
         21   -1    0    0  501  502 -0.00000000000E+00 -0.00000000000E+00 -0.43275675659E+02  0.43275675659E+02  0.00000000000E+00 0. -1.
         25    1    1    2    0    0  0.21804182988E+03  0.38954920901E+02  0.13662253188E+04  0.13896964946E+04  0.12500000000E+03 0.  0.
         25    1    1    2    0    0 -0.14900865359E+03  0.25466358634E+02  0.73174828773E+03  0.75758344152E+03  0.12500000000E+03 0.  0.
         25    1    1    2    0    0 -0.69033176289E+02 -0.64421279535E+02  0.31082662841E+03  0.34807165011E+03  0.12500000000E+03 0.  0.
</event>
<event>
 5    0  0.5452999E-005  0.2353261E+03  0.7546771E-02  0.1122946E+00
         21   -1    0    0  502  501  0.00000000000E+00  0.00000000000E+00  0.12241741548E+03  0.12241741548E+03  0.00000000000E+00 0.  1.
         21   -1    0    0  501  502 -0.00000000000E+00 -0.00000000000E+00 -0.45237340926E+03  0.45237340926E+03  0.00000000000E+00 0.  1.
         25    1    1    2    0    0 -0.12088016716E+03  0.38542480800E+02 -0.13323972862E+03  0.22243058001E+03  0.12500000000E+03 0.  0.
         25    1    1    2    0    0  0.45999785053E+02 -0.54675939702E+01 -0.13784860313E+03  0.19176316694E+03  0.12500000000E+03 0.  0.
         25    1    1    2    0    0  0.74880382108E+02 -0.33074886830E+02 -0.58867662027E+02  0.16059707779E+03  0.12500000000E+03 0.  0.
</event>
