<event>
 5    0  0.5597833E-005  0.3980961E+03  0.7546771E-02  0.1044441E+00
         21   -1    0    0  502  501  0.00000000000E+00  0.00000000000E+00  0.17506747567E+03  0.17506747567E+03  0.00000000000E+00 0.  1.
         21   -1    0    0  501  502 -0.00000000000E+00 -0.00000000000E+00 -0.90525390587E+03  0.90525390587E+03  0.00000000000E+00 0.  1.
         25    1    1    2    0    0 -0.15496134027E+03  0.48128053642E+02  0.22451084305E+02  0.20605430768E+03  0.12500000000E+03 0.  0.
         25    1    1    2    0    0  0.18412453808E+02 -0.34358219572E+02 -0.64815578941E+03  0.66124914598E+03  0.12500000000E+03 0.  0.
         25    1    1    2    0    0  0.13654888646E+03 -0.13769834070E+02 -0.10448172509E+03  0.21301792789E+03  0.12500000000E+03 0.  0.
</event>
<event>
 5    0  0.5597833E-005  0.3197506E+03  0.7546771E-02  0.1075764E+00
         21   -1    0    0  502  501  0.00000000000E+00  0.00000000000E+00  0.33232083844E+03  0.33232083844E+03  0.00000000000E+00 0. -1.
         21   -1    0    0  501  502 -0.00000000000E+00 -0.00000000000E+00 -0.30765586031E+03  0.30765586031E+03  0.00000000000E+00 0. -1.
         25    1    1    2    0    0  0.37723079259E+02  0.10285600679E+01  0.33651328866E+02  0.13483879479E+03  0.12500000000E+03 0.  0.
         25    1    1    2    0    0  0.15019563120E+03  0.78768573044E+02  0.11015225915E+03  0.23774300395E+03  0.12500000000E+03 0.  0.
         25    1    1    2    0    0 -0.18791871046E+03 -0.79797133112E+02 -0.11913860988E+03  0.26739490002E+03  0.12500000000E+03 0.  0.
</event>
<event>
 5    0  0.5597833E-005  0.3495789E+03  0.7546771E-02  0.1062788E+00
         21   -1    0    0  502  501  0.00000000000E+00  0.00000000000E+00  0.20486407534E+03  0.20486407534E+03  0.00000000000E+00 0.  1.
         21   -1    0    0  501  502 -0.00000000000E+00 -0.00000000000E+00 -0.59651960882E+03  0.59651960882E+03  0.00000000000E+00 0.  1.
         25    1    1    2    0    0  0.12803480817E+03 -0.11508709944E+03 -0.40707553942E+03  0.45931845962E+03  0.12500000000E+03 0.  0.
         25    1    1    2    0    0  0.90025324507E+01  0.41868135678E+01 -0.18112745463E+00  0.12539381087E+03  0.12500000000E+03 0.  0.
         25    1    1    2    0    0 -0.13703734062E+03  0.11090028587E+03  0.15601133392E+02  0.21667141365E+03  0.12500000000E+03 0.  0.
</event>
<event>
 5    0  0.5597833E-005  0.2286856E+03  0.7546771E-02  0.1127568E+00
         21   -1    0    0  502  501  0.00000000000E+00  0.00000000000E+00  0.41339282762E+03  0.41339282762E+03  0.00000000000E+00 0.  1.
         21   -1    0    0  501  502 -0.00000000000E+00 -0.00000000000E+00 -0.12650707008E+03  0.12650707008E+03  0.00000000000E+00 0.  1.
         25    1    1    2    0    0 -0.64075931526E+01  0.66207664614E+02  0.15358871895E+02  0.14242684806E+03  0.12500000000E+03 0.  0.
         25    1    1    2    0    0 -0.51033785411E+02 -0.71135173222E+02  0.14127242388E+03  0.20796047190E+03  0.12500000000E+03 0.  0.
         25    1    1    2    0    0  0.57441378563E+02  0.49275086083E+01  0.13025446176E+03  0.18951257774E+03  0.12500000000E+03 0.  0.
</event>
<event>
 5    0  0.5597833E-005  0.7914451E+03  0.7546771E-02  0.9572483E-01
         21   -1    0    0  502  501  0.00000000000E+00  0.00000000000E+00  0.60277200465E+03  0.60277200465E+03  0.00000000000E+00 0.  1.
         21   -1    0    0  501  502 -0.00000000000E+00 -0.00000000000E+00 -0.10391744838E+04  0.10391744838E+04  0.00000000000E+00 0.  1.
         25    1    1    2    0    0 -0.42581481820E+03 -0.28593191993E+03  0.24502117049E+03  0.58201004822E+03  0.12500000000E+03 0.  0.
         25    1    1    2    0    0  0.49181716514E+03  0.10575854870E+03 -0.25906935444E+03  0.57949195418E+03  0.12500000000E+03 0.  0.
         25    1    1    2    0    0 -0.66002346933E+02  0.18017337124E+03 -0.42235429516E+03  0.48044448602E+03  0.12500000000E+03 0.  0.
</event>
<event>
 5    0  0.5597833E-005  0.4213806E+03  0.7546771E-02  0.1036618E+00
         21   -1    0    0  502  501  0.00000000000E+00  0.00000000000E+00  0.94994181613E+03  0.94994181613E+03  0.00000000000E+00 0. -1.
         21   -1    0    0  501  502 -0.00000000000E+00 -0.00000000000E+00 -0.18691837555E+03  0.18691837555E+03  0.00000000000E+00 0.  1.
         25    1    1    2    0    0  0.15951936167E+03 -0.18245052310E+02  0.16682523977E+03  0.26312538704E+03  0.12500000000E+03 0.  0.
         25    1    1    2    0    0 -0.12845807859E+03  0.26150476484E+03  0.47934732799E+03  0.57470434211E+03  0.12500000000E+03 0.  0.
         25    1    1    2    0    0 -0.31061283084E+02 -0.24325971253E+03  0.11685087282E+03  0.29903046253E+03  0.12500000000E+03 0.  0.
</event>
<event>
 5    0  0.5597833E-005  0.2495750E+03  0.7546771E-02  0.1113574E+00
         21   -1    0    0  502  501  0.00000000000E+00  0.00000000000E+00  0.95706397584E+03  0.95706397584E+03  0.00000000000E+00 0.  1.
         21   -1    0    0  501  502 -0.00000000000E+00 -0.00000000000E+00 -0.65082048675E+02  0.65082048675E+02  0.00000000000E+00 0.  1.
         25    1    1    2    0    0  0.21748128778E+02 -0.37323317337E+02  0.18081423341E+03  0.22401963781E+03  0.12500000000E+03 0.  0.
         25    1    1    2    0    0  0.10646188079E+03 -0.35043186726E+02  0.29775418035E+03  0.34182555333E+03  0.12500000000E+03 0.  0.
         25    1    1    2    0    0 -0.12821000957E+03  0.72366504062E+02  0.41341351341E+03  0.45630083337E+03  0.12500000000E+03 0.  0.
</event>
<event>
 5    0  0.5597833E-005  0.3584714E+03  0.7546771E-02  0.1059191E+00
         21   -1    0    0  502  501  0.00000000000E+00  0.00000000000E+00  0.12981180176E+04  0.12981180176E+04  0.00000000000E+00 0.  1.
         21   -1    0    0  501  502 -0.00000000000E+00 -0.00000000000E+00 -0.98990778849E+02  0.98990778849E+02  0.00000000000E+00 0.  1.
         25    1    1    2    0    0  0.91078909129E+02  0.23519058650E+03  0.63242960867E+03  0.69224431351E+03  0.12500000000E+03 0.  0.
         25    1    1    2    0    0 -0.10858154473E+03 -0.19615981037E+03  0.48716237041E+03  0.55065488121E+03  0.12500000000E+03 0.  0.
         25    1    1    2    0    0  0.17502635600E+02 -0.39030776129E+02  0.79535259702E+02  0.15420960176E+03  0.12500000000E+03 0.  0.
</event>
<event>
 5    0  0.5597833E-005  0.4778732E+03  0.7546771E-02  0.1019721E+00
         21   -1    0    0  502  501  0.00000000000E+00  0.00000000000E+00  0.13859192722E+04  0.13859192722E+04  0.00000000000E+00 0. -1.
         21   -1    0    0  501  502 -0.00000000000E+00 -0.00000000000E+00 -0.16477348931E+03  0.16477348931E+03  0.00000000000E+00 0. -1.
         25    1    1    2    0    0  0.80921728934E+02 -0.27716416599E+03  0.98290065932E+03  0.10320305263E+04  0.12500000000E+03 0.  0.
         25    1    1    2    0    0  0.82858238826E+02  0.11155496917E+03  0.47980423204E+02  0.19296922008E+03  0.12500000000E+03 0.  0.
         25    1    1    2    0    0 -0.16377996776E+03  0.16560919682E+03  0.19026470040E+03  0.32569301517E+03  0.12500000000E+03 0.  0.
</event>
<event>
 5    0  0.5597833E-005  0.2464081E+03  0.7546771E-02  0.1115596E+00
         21   -1    0    0  502  501  0.00000000000E+00  0.00000000000E+00  0.62276982416E+02  0.62276982416E+02  0.00000000000E+00 0.  1.
         21   -1    0    0  501  502 -0.00000000000E+00 -0.00000000000E+00 -0.97495044882E+03  0.97495044882E+03  0.00000000000E+00 0.  1.
         25    1    1    2    0    0 -0.67854556525E+02  0.32297878190E+02 -0.98580835292E+02  0.17604140099E+03  0.12500000000E+03 0.  0.
         25    1    1    2    0    0  0.67024194568E+01  0.67076710353E+01 -0.26130798871E+03  0.28982198025E+03  0.12500000000E+03 0.  0.
         25    1    1    2    0    0  0.61152137069E+02 -0.39005549225E+02 -0.55278464240E+03  0.57136404998E+03  0.12500000000E+03 0.  0.
</event>
<event>
 5    0  0.5597833E-005  0.2917451E+03  0.7546771E-02  0.1089442E+00
         21   -1    0    0  502  501  0.00000000000E+00  0.00000000000E+00  0.29221017428E+03  0.29221017428E+03  0.00000000000E+00 0. -1.
         21   -1    0    0  501  502 -0.00000000000E+00 -0.00000000000E+00 -0.29128081970E+03  0.29128081970E+03  0.00000000000E+00 0. -1.
         25    1    1    2    0    0  0.34736223631E+02 -0.83594057088E+02 -0.15487629790E+03  0.21864637949E+03  0.12500000000E+03 0.  0.
         25    1    1    2    0    0 -0.42783370118E+02 -0.42811933777E+02  0.18569606653E+02  0.14011819555E+03  0.12500000000E+03 0.  0.
         25    1    1    2    0    0  0.80471464862E+01  0.12640599087E+03  0.13723604584E+03  0.22472641894E+03  0.12500000000E+03 0.  0.
</event>
<event>
 5    0  0.6728500E-005  0.3457097E+03  0.7546771E-02  0.1064390E+00
         21   -1    0    0  502  501  0.00000000000E+00  0.00000000000E+00  0.36793542691E+03  0.36793542691E+03  0.00000000000E+00 0. -1.
         21   -1    0    0  501  502 -0.00000000000E+00 -0.00000000000E+00 -0.32482654540E+03  0.32482654540E+03  0.00000000000E+00 0. -1.
         25    1    1    2    0    0  0.15963435087E+03 -0.70825090473E+02  0.66824016528E+02  0.22492169438E+03  0.12500000000E+03 0.  0.
         25    1    1    2    0    0 -0.95961490714E+02  0.14361850598E+02  0.16326352953E+03  0.22736501606E+03  0.12500000000E+03 0.  0.
         25    1    1    2    0    0 -0.63672860152E+02  0.56463239875E+02 -0.18697866454E+03  0.24047526187E+03  0.12500000000E+03 0.  0.
</event>
<event>
 5    0  0.5597833E-005  0.2578227E+03  0.7546771E-02  0.1108458E+00
         21   -1    0    0  502  501  0.00000000000E+00  0.00000000000E+00  0.45719346311E+02  0.45719346311E+02  0.00000000000E+00 0.  1.
         21   -1    0    0  501  502 -0.00000000000E+00 -0.00000000000E+00 -0.14539258504E+04  0.14539258504E+04  0.00000000000E+00 0.  1.
         25    1    1    2    0    0 -0.81835956572E+02  0.10992924051E+03 -0.47268227360E+03  0.50777464832E+03  0.12500000000E+03 0.  0.
         25    1    1    2    0    0  0.46754589823E+02 -0.10841688781E+03 -0.32488741181E+03  0.36758270305E+03  0.12500000000E+03 0.  0.
         25    1    1    2    0    0  0.35081366748E+02 -0.15123526990E+01 -0.61063681868E+03  0.62428784533E+03  0.12500000000E+03 0.  0.
</event>
<event>
 5    0  0.5597833E-005  0.2470277E+03  0.7546771E-02  0.1115198E+00
         21   -1    0    0  502  501  0.00000000000E+00  0.00000000000E+00  0.57394639757E+02  0.57394639757E+02  0.00000000000E+00 0.  1.
         21   -1    0    0  501  502 -0.00000000000E+00 -0.00000000000E+00 -0.10632126533E+04  0.10632126533E+04  0.00000000000E+00 0.  1.
         25    1    1    2    0    0  0.28909969874E+02 -0.38030307018E+02 -0.98735540516E+02  0.16630032342E+03  0.12500000000E+03 0.  0.
         25    1    1    2    0    0  0.42146930981E+02  0.43156697946E+02 -0.30219934394E+03  0.33254820380E+03  0.12500000000E+03 0.  0.
         25    1    1    2    0    0 -0.71056900855E+02 -0.51263909276E+01 -0.60488312908E+03  0.62175876583E+03  0.12500000000E+03 0.  0.
</event>
<event>
 5    0  0.5597833E-005  0.3427846E+03  0.7546771E-02  0.1065616E+00
         21   -1    0    0  502  501  0.00000000000E+00  0.00000000000E+00  0.23980566498E+04  0.23980566498E+04  0.00000000000E+00 0.  1.
         21   -1    0    0  501  502 -0.00000000000E+00 -0.00000000000E+00 -0.48998549833E+02  0.48998549833E+02  0.00000000000E+00 0.  1.
         25    1    1    2    0    0 -0.11224103848E+03  0.14435190522E+03  0.14828615537E+04  0.14993128128E+04  0.12500000000E+03 0.  0.
         25    1    1    2    0    0  0.11493450736E+03  0.93203358700E+01  0.53952113178E+03  0.56568972174E+03  0.12500000000E+03 0.  0.
         25    1    1    2    0    0 -0.26934688785E+01 -0.15367224109E+03  0.32667541448E+03  0.38205266506E+03  0.12500000000E+03 0.  0.
</event>
<event>
 5    0  0.5597833E-005  0.3811806E+03  0.7546771E-02  0.1050498E+00
         21   -1    0    0  502  501  0.00000000000E+00  0.00000000000E+00  0.13485004751E+04  0.13485004751E+04  0.00000000000E+00 0. -1.
         21   -1    0    0  501  502 -0.00000000000E+00 -0.00000000000E+00 -0.10774832765E+03  0.10774832765E+03  0.00000000000E+00 0.  1.
         25    1    1    2    0    0 -0.21136521250E+03  0.12682625844E+03  0.65302461349E+03  0.70910245995E+03  0.12500000000E+03 0.  0.
         25    1    1    2    0    0  0.10776410648E+03 -0.21930061264E+03  0.34899990575E+03  0.44399526525E+03  0.12500000000E+03 0.  0.
         25    1    1    2    0    0  0.10360110602E+03  0.92474354201E+02  0.23872762820E+03  0.30315107755E+03  0.12500000000E+03 0.  0.
</event>
<event>
 5    0  0.5597833E-005  0.3632663E+03  0.7546771E-02  0.1057298E+00
         21   -1    0    0  502  501  0.00000000000E+00  0.00000000000E+00  0.21786645911E+03  0.21786645911E+03  0.00000000000E+00 0.  1.
         21   -1    0    0  501  502 -0.00000000000E+00 -0.00000000000E+00 -0.60570321172E+03  0.60570321172E+03  0.00000000000E+00 0.  1.
         25    1    1    2    0    0 -0.14210058396E+03  0.67978737756E+02 -0.81959063690E+01  0.20126067085E+03  0.12500000000E+03 0.  0.
         25    1    1    2    0    0 -0.49480054484E+02 -0.39680291651E+02  0.38047361707E+02  0.14524256632E+03  0.12500000000E+03 0.  0.
         25    1    1    2    0    0  0.19158063844E+03 -0.28298446105E+02 -0.41768820794E+03  0.47706643367E+03  0.12500000000E+03 0.  0.
</event>
<event>
 5    0  0.5597833E-005  0.3454300E+03  0.7546771E-02  0.1064507E+00
         21   -1    0    0  502  501  0.00000000000E+00  0.00000000000E+00  0.35002625046E+03  0.35002625046E+03  0.00000000000E+00 0. -1.
         21   -1    0    0  501  502 -0.00000000000E+00 -0.00000000000E+00 -0.34089413127E+03  0.34089413127E+03  0.00000000000E+00 0. -1.
         25    1    1    2    0    0  0.79517826752E+02 -0.17565940358E+03 -0.12000926086E+03  0.25924222945E+03  0.12500000000E+03 0.  0.
         25    1    1    2    0    0 -0.16038554904E+03  0.35423885179E+02  0.79723804925E+02  0.22126739718E+03  0.12500000000E+03 0.  0.
         25    1    1    2    0    0  0.80867722291E+02  0.14023551840E+03  0.49417575118E+02  0.21041075510E+03  0.12500000000E+03 0.  0.
</event>
<event>
 5    0  0.5597833E-005  0.2761699E+03  0.7546771E-02  0.1097799E+00
         21   -1    0    0  502  501  0.00000000000E+00  0.00000000000E+00  0.35755655153E+03  0.35755655153E+03  0.00000000000E+00 0. -1.
         21   -1    0    0  501  502 -0.00000000000E+00 -0.00000000000E+00 -0.21330836932E+03  0.21330836932E+03  0.00000000000E+00 0. -1.
         25    1    1    2    0    0  0.11744981249E+03 -0.10958649787E+03  0.26717981320E+02  0.20528640845E+03  0.12500000000E+03 0.  0.
         25    1    1    2    0    0 -0.13851311384E+03  0.15995195824E+02  0.79799065041E+02  0.20355495518E+03  0.12500000000E+03 0.  0.
         25    1    1    2    0    0  0.21063301353E+02  0.93591302045E+02  0.37731135842E+02  0.16202355722E+03  0.12500000000E+03 0.  0.
</event>
<event>
 5    0  0.5597833E-005  0.3891237E+03  0.7546771E-02  0.1047612E+00
         21   -1    0    0  502  501  0.00000000000E+00  0.00000000000E+00  0.14731060444E+03  0.14731060444E+03  0.00000000000E+00 0.  1.
         21   -1    0    0  501  502 -0.00000000000E+00 -0.00000000000E+00 -0.10278774568E+04  0.10278774568E+04  0.00000000000E+00 0.  1.
         25    1    1    2    0    0  0.63897166729E+02 -0.67237261915E+02 -0.70482374480E+03  0.72180690530E+03  0.12500000000E+03 0.  0.
         25    1    1    2    0    0 -0.10085291065E+03  0.57726852088E+02  0.62409081111E+02  0.18172394571E+03  0.12500000000E+03 0.  0.
         25    1    1    2    0    0  0.36955743918E+02  0.95104098269E+01 -0.23815218866E+03  0.27165721023E+03  0.12500000000E+03 0.  0.
</event>
<event>
 5    0  0.5597833E-005  0.3192407E+03  0.7546771E-02  0.1075999E+00
         21   -1    0    0  502  501  0.00000000000E+00  0.00000000000E+00  0.58851157299E+02  0.58851157299E+02  0.00000000000E+00 0. -1.
         21   -1    0    0  501  502 -0.00000000000E+00 -0.00000000000E+00 -0.17317356013E+04  0.17317356013E+04  0.00000000000E+00 0. -1.
         25    1    1    2    0    0  0.13180575184E+01  0.52235664931E+02 -0.51006394737E+03  0.52775044517E+03  0.12500000000E+03 0.  0.
         25    1    1    2    0    0 -0.13254121956E+03 -0.91074167523E+02 -0.21150773820E+03  0.29363617316E+03  0.12500000000E+03 0.  0.
         25    1    1    2    0    0  0.13122316204E+03  0.38838502592E+02 -0.95131275845E+03  0.96920014028E+03  0.12500000000E+03 0.  0.
</event>
<event>
 5    0  0.5597833E-005  0.2967667E+03  0.7546771E-02  0.1086868E+00
         21   -1    0    0  502  501  0.00000000000E+00  0.00000000000E+00  0.45694300440E+03  0.45694300440E+03  0.00000000000E+00 0.  1.
         21   -1    0    0  501  502 -0.00000000000E+00 -0.00000000000E+00 -0.19273837305E+03  0.19273837305E+03  0.00000000000E+00 0.  1.
         25    1    1    2    0    0 -0.17324284131E+03 -0.46707334347E+01  0.98366209866E+02  0.23523564581E+03  0.12500000000E+03 0.  0.
         25    1    1    2    0    0  0.79761040317E+02  0.11460763051E+03  0.10050964864E+03  0.21265916861E+03  0.12500000000E+03 0.  0.
         25    1    1    2    0    0  0.93481800991E+02 -0.10993689708E+03  0.65328772842E+02  0.20178656302E+03  0.12500000000E+03 0.  0.
</event>
<event>
 5    0  0.5934487E-005  0.3795080E+03  0.7546771E-02  0.1051116E+00
         21   -1    0    0  502  501  0.00000000000E+00  0.00000000000E+00  0.24304582625E+03  0.24304582625E+03  0.00000000000E+00 0. -1.
         21   -1    0    0  501  502 -0.00000000000E+00 -0.00000000000E+00 -0.59258907152E+03  0.59258907152E+03  0.00000000000E+00 0. -1.
         25    1    1    2    0    0  0.12318980915E+03  0.50756441849E+01 -0.31469738045E+03  0.36036222402E+03  0.12500000000E+03 0.  0.
         25    1    1    2    0    0 -0.12625757817E+03  0.11018586054E+03 -0.16071797849E+03  0.26369901122E+03  0.12500000000E+03 0.  0.
         25    1    1    2    0    0  0.30677690204E+01 -0.11526150472E+03  0.12587211367E+03  0.21157366253E+03  0.12500000000E+03 0.  0.
</event>
<event>
 5    0  0.5597833E-005  0.3129033E+03  0.7546771E-02  0.1078963E+00
         21   -1    0    0  502  501  0.00000000000E+00  0.00000000000E+00  0.54288834437E+03  0.54288834437E+03  0.00000000000E+00 0. -1.
         21   -1    0    0  501  502 -0.00000000000E+00 -0.00000000000E+00 -0.18034738275E+03  0.18034738275E+03  0.00000000000E+00 0. -1.
         25    1    1    2    0    0 -0.16140645394E+03 -0.80448347923E+02  0.23709500746E+03  0.32305266230E+03  0.12500000000E+03 0.  0.
         25    1    1    2    0    0  0.20248341540E+03  0.60715294295E+02  0.97516548415E+02  0.26423542096E+03  0.12500000000E+03 0.  0.
         25    1    1    2    0    0 -0.41076961457E+02  0.19733053628E+02  0.27929405745E+02  0.13594764387E+03  0.12500000000E+03 0.  0.
</event>
<event>
 5    0  0.5597833E-005  0.3781375E+03  0.7546771E-02  0.1051624E+00
         21   -1    0    0  502  501  0.00000000000E+00  0.00000000000E+00  0.58422979654E+03  0.58422979654E+03  0.00000000000E+00 0. -1.
         21   -1    0    0  501  502 -0.00000000000E+00 -0.00000000000E+00 -0.24474615660E+03  0.24474615660E+03  0.00000000000E+00 0. -1.
         25    1    1    2    0    0 -0.15964698425E+03  0.13094527227E+02  0.37558165060E+03  0.42701897205E+03  0.12500000000E+03 0.  0.
         25    1    1    2    0    0  0.53859754439E+02  0.11645850567E+03 -0.66238500636E+02  0.19098689918E+03  0.12500000000E+03 0.  0.
         25    1    1    2    0    0  0.10578722981E+03 -0.12955303290E+03  0.30140489982E+02  0.21097008191E+03  0.12500000000E+03 0.  0.
</event>
<event>
 5    0  0.5597833E-005  0.2322929E+03  0.7546771E-02  0.1125036E+00
         21   -1    0    0  502  501  0.00000000000E+00  0.00000000000E+00  0.11404996612E+03  0.11404996612E+03  0.00000000000E+00 0. -1.
         21   -1    0    0  501  502 -0.00000000000E+00 -0.00000000000E+00 -0.47312591859E+03  0.47312591859E+03  0.00000000000E+00 0. -1.
         25    1    1    2    0    0  0.13104253895E+02  0.67630416703E+02 -0.59127461754E+02  0.15448835382E+03  0.12500000000E+03 0.  0.
         25    1    1    2    0    0 -0.25472041866E+02  0.52352102494E+02 -0.12417729360E+03  0.18556553505E+03  0.12500000000E+03 0.  0.
         25    1    1    2    0    0  0.12367787970E+02 -0.11998251920E+03 -0.17577119712E+03  0.24712199584E+03  0.12500000000E+03 0.  0.
</event>
<event>
 5    0  0.5597833E-005  0.2645164E+03  0.7546771E-02  0.1104460E+00
         21   -1    0    0  502  501  0.00000000000E+00  0.00000000000E+00  0.19062337370E+03  0.19062337370E+03  0.00000000000E+00 0.  1.
         21   -1    0    0  501  502 -0.00000000000E+00 -0.00000000000E+00 -0.36705324289E+03  0.36705324289E+03  0.00000000000E+00 0.  1.
         25    1    1    2    0    0  0.94259443317E+02 -0.10649098822E+03  0.12673109418E+02  0.18976506772E+03  0.12500000000E+03 0.  0.
         25    1    1    2    0    0 -0.53115026232E+02  0.42539544593E+02 -0.16784289852E+03  0.22006148561E+03  0.12500000000E+03 0.  0.
         25    1    1    2    0    0 -0.41144417085E+02  0.63951443626E+02 -0.21260080084E+02  0.14785006325E+03  0.12500000000E+03 0.  0.
</event>
<event>
 5    0  0.5597833E-005  0.3364405E+03  0.7546771E-02  0.1068322E+00
         21   -1    0    0  502  501  0.00000000000E+00  0.00000000000E+00  0.45461606667E+03  0.45461606667E+03  0.00000000000E+00 0.  1.
         21   -1    0    0  501  502 -0.00000000000E+00 -0.00000000000E+00 -0.24898420228E+03  0.24898420228E+03  0.00000000000E+00 0.  1.
         25    1    1    2    0    0 -0.11303852663E+03 -0.50164208249E+02  0.18855937576E+03  0.25782512383E+03  0.12500000000E+03 0.  0.
         25    1    1    2    0    0  0.18742620203E+03  0.14216469337E+03 -0.28000404830E+02  0.26785892540E+03  0.12500000000E+03 0.  0.
         25    1    1    2    0    0 -0.74387675403E+02 -0.92000485119E+02  0.45072893451E+02  0.17791621972E+03  0.12500000000E+03 0.  0.
</event>
<event>
 5    0  0.5597833E-005  0.2938127E+03  0.7546771E-02  0.1088375E+00
         21   -1    0    0  502  501  0.00000000000E+00  0.00000000000E+00  0.66835950117E+03  0.66835950117E+03  0.00000000000E+00 0. -1.
         21   -1    0    0  501  502 -0.00000000000E+00 -0.00000000000E+00 -0.12916090718E+03  0.12916090718E+03  0.00000000000E+00 0. -1.
         25    1    1    2    0    0  0.34606394492E+02  0.29236492067E+02  0.22829036652E+02  0.13490196412E+03  0.12500000000E+03 0.  0.
         25    1    1    2    0    0 -0.82571409649E+02  0.98476495602E+01  0.50015763708E+03  0.52220463022E+03  0.12500000000E+03 0.  0.
         25    1    1    2    0    0  0.47965015157E+02 -0.39084141627E+02  0.16211920254E+02  0.14041381401E+03  0.12500000000E+03 0.  0.
</event>
<event>
 5    0  0.5597833E-005  0.2698801E+03  0.7546771E-02  0.1101348E+00
         21   -1    0    0  502  501  0.00000000000E+00  0.00000000000E+00  0.72619379377E+03  0.72619379377E+03  0.00000000000E+00 0.  1.
         21   -1    0    0  501  502 -0.00000000000E+00 -0.00000000000E+00 -0.10029729032E+03  0.10029729032E+03  0.00000000000E+00 0.  1.
         25    1    1    2    0    0 -0.94246763658E+02  0.92898238584E+02  0.40710060947E+03  0.44594668002E+03  0.12500000000E+03 0.  0.
         25    1    1    2    0    0  0.62484320916E+02 -0.10205138656E+03  0.79316350118E+02  0.19035456195E+03  0.12500000000E+03 0.  0.
         25    1    1    2    0    0  0.31762442742E+02  0.91531479710E+01  0.13947954387E+03  0.19018984212E+03  0.12500000000E+03 0.  0.
</event>
<event>
 5    0  0.5597833E-005  0.3231643E+03  0.7546771E-02  0.1074202E+00
         21   -1    0    0  502  501  0.00000000000E+00  0.00000000000E+00  0.28077349865E+03  0.28077349865E+03  0.00000000000E+00 0.  1.
         21   -1    0    0  501  502 -0.00000000000E+00 -0.00000000000E+00 -0.37195525197E+03  0.37195525197E+03  0.00000000000E+00 0.  1.
         25    1    1    2    0    0 -0.52038302464E+02  0.17094338201E+03 -0.10237215704E+03  0.24090388812E+03  0.12500000000E+03 0.  0.
         25    1    1    2    0    0  0.42433926930E+02 -0.22670615811E+02 -0.11808204400E+03  0.17855801324E+03  0.12500000000E+03 0.  0.
         25    1    1    2    0    0  0.96043755335E+01 -0.14827276620E+03  0.12927244771E+03  0.23326684926E+03  0.12500000000E+03 0.  0.
</event>
<event>
 5    0  0.5597833E-005  0.2675434E+03  0.7546771E-02  0.1102694E+00
         21   -1    0    0  502  501  0.00000000000E+00  0.00000000000E+00  0.78559844451E+03  0.78559844451E+03  0.00000000000E+00 0.  1.
         21   -1    0    0  501  502 -0.00000000000E+00 -0.00000000000E+00 -0.91114556453E+02  0.91114556453E+02  0.00000000000E+00 0.  1.
         25    1    1    2    0    0  0.14936907720E+03 -0.56823180691E+02  0.39820450697E+03  0.44691366555E+03  0.12500000000E+03 0.  0.
         25    1    1    2    0    0 -0.10602115015E+03  0.65132144562E+02  0.19532011957E+03  0.26316844348E+03  0.12500000000E+03 0.  0.
         25    1    1    2    0    0 -0.43347927051E+02 -0.83089638714E+01  0.10095926152E+03  0.16663089193E+03  0.12500000000E+03 0.  0.
</event>
<event>
 5    0  0.5597833E-005  0.2977517E+03  0.7546771E-02  0.1086370E+00
         21   -1    0    0  502  501  0.00000000000E+00  0.00000000000E+00  0.17218826220E+03  0.17218826220E+03  0.00000000000E+00 0. -1.
         21   -1    0    0  501  502 -0.00000000000E+00 -0.00000000000E+00 -0.51487884905E+03  0.51487884905E+03  0.00000000000E+00 0. -1.
         25    1    1    2    0    0  0.42600963156E+02 -0.12692678865E+03 -0.10090949889E+03  0.20912431400E+03  0.12500000000E+03 0.  0.
         25    1    1    2    0    0 -0.16611376244E+03  0.89316095698E+02 -0.92976508542E+02  0.24462374816E+03  0.12500000000E+03 0.  0.
         25    1    1    2    0    0  0.12351279929E+03  0.37610692951E+02 -0.14880457942E+03  0.23331904909E+03  0.12500000000E+03 0.  0.
</event>
<event>
 5    0  0.5597833E-005  0.3775093E+03  0.7546771E-02  0.1051858E+00
         21   -1    0    0  502  501  0.00000000000E+00  0.00000000000E+00  0.11896851383E+03  0.11896851383E+03  0.00000000000E+00 0.  1.
         21   -1    0    0  501  502 -0.00000000000E+00 -0.00000000000E+00 -0.11979076287E+04  0.11979076287E+04  0.00000000000E+00 0.  1.
         25    1    1    2    0    0 -0.83789010548E+02 -0.48192858191E+02 -0.16683745486E+03  0.22978878609E+03  0.12500000000E+03 0.  0.
         25    1    1    2    0    0 -0.59917058869E+01  0.18627807832E+02 -0.92144794291E+03  0.93009365510E+03  0.12500000000E+03 0.  0.
         25    1    1    2    0    0  0.89780716435E+02  0.29565050359E+02  0.93462829322E+01  0.15699370131E+03  0.12500000000E+03 0.  0.
</event>
<event>
 5    0  0.5597833E-005  0.2717943E+03  0.7546771E-02  0.1100257E+00
         21   -1    0    0  502  501  0.00000000000E+00  0.00000000000E+00  0.11321363569E+03  0.11321363569E+03  0.00000000000E+00 0.  1.
         21   -1    0    0  501  502 -0.00000000000E+00 -0.00000000000E+00 -0.65250212719E+03  0.65250212719E+03  0.00000000000E+00 0.  1.
         25    1    1    2    0    0 -0.93448821408E+02  0.84737361594E+01 -0.63114625256E+02  0.16856139044E+03  0.12500000000E+03 0.  0.
         25    1    1    2    0    0 -0.77610317808E+02  0.33856087806E+01 -0.21690241465E+03  0.26211921192E+03  0.12500000000E+03 0.  0.
         25    1    1    2    0    0  0.17105913922E+03 -0.11859344940E+02 -0.25927145158E+03  0.33503516051E+03  0.12500000000E+03 0.  0.
</event>
<event>
 5    0  0.5597833E-005  0.2774100E+03  0.7546771E-02  0.1097112E+00
         21   -1    0    0  502  501  0.00000000000E+00  0.00000000000E+00  0.11718944854E+03  0.11718944854E+03  0.00000000000E+00 0. -1.
         21   -1    0    0  501  502 -0.00000000000E+00 -0.00000000000E+00 -0.65668276522E+03  0.65668276522E+03  0.00000000000E+00 0. -1.
         25    1    1    2    0    0  0.13121506859E+03  0.18098870943E+02 -0.17055043519E+03  0.24951435690E+03  0.12500000000E+03 0.  0.
         25    1    1    2    0    0 -0.11642986075E+02  0.70243789283E+02 -0.27102633404E+03  0.30683875700E+03  0.12500000000E+03 0.  0.
         25    1    1    2    0    0 -0.11957208252E+03 -0.88342660226E+02 -0.97916547447E+02  0.21751909985E+03  0.12500000000E+03 0.  0.
</event>
<event>
 5    0  0.5597833E-005  0.3933021E+03  0.7546771E-02  0.1046124E+00
         21   -1    0    0  502  501  0.00000000000E+00  0.00000000000E+00  0.90933483988E+03  0.90933483988E+03  0.00000000000E+00 0. -1.
         21   -1    0    0  501  502 -0.00000000000E+00 -0.00000000000E+00 -0.17010958482E+03  0.17010958482E+03  0.00000000000E+00 0. -1.
         25    1    1    2    0    0 -0.85083554098E+01  0.21756765406E+03  0.52105548137E+03  0.57838731908E+03  0.12500000000E+03 0.  0.
         25    1    1    2    0    0 -0.14231360725E+03 -0.13291640234E+03  0.71780148023E+02  0.24227530305E+03  0.12500000000E+03 0.  0.
         25    1    1    2    0    0  0.15082196266E+03 -0.84651251725E+02  0.14638962566E+03  0.25878180257E+03  0.12500000000E+03 0.  0.
</event>
<event>
 5    0  0.5597833E-005  0.4239390E+03  0.7546771E-02  0.1035792E+00
         21   -1    0    0  502  501  0.00000000000E+00  0.00000000000E+00  0.22581288988E+04  0.22581288988E+04  0.00000000000E+00 0.  1.
         21   -1    0    0  501  502 -0.00000000000E+00 -0.00000000000E+00 -0.79589894351E+02  0.79589894351E+02  0.00000000000E+00 0.  1.
         25    1    1    2    0    0 -0.23110429910E+03 -0.64689133204E+01  0.10459823121E+04  0.10784966579E+04  0.12500000000E+03 0.  0.
         25    1    1    2    0    0  0.16537744807E+02 -0.19290645163E+03  0.52182723377E+03  0.57045162633E+03  0.12500000000E+03 0.  0.
         25    1    1    2    0    0  0.21456655429E+03  0.19937536495E+03  0.61072945863E+03  0.68877050895E+03  0.12500000000E+03 0.  0.
</event>
<event>
 5    0  0.5597833E-005  0.2804979E+03  0.7546771E-02  0.1095417E+00
         21   -1    0    0  502  501  0.00000000000E+00  0.00000000000E+00  0.17766389896E+03  0.17766389896E+03  0.00000000000E+00 0.  1.
         21   -1    0    0  501  502 -0.00000000000E+00 -0.00000000000E+00 -0.44285360200E+03  0.44285360200E+03  0.00000000000E+00 0.  1.
         25    1    1    2    0    0  0.28524611161E+02  0.32122130013E+02 -0.21586809840E+03  0.25311957764E+03  0.12500000000E+03 0.  0.
         25    1    1    2    0    0 -0.58375496579E+01 -0.10302730994E+03 -0.12379224395E+03  0.20395642486E+03  0.12500000000E+03 0.  0.
         25    1    1    2    0    0 -0.22687061503E+02  0.70905179923E+02  0.74470639313E+02  0.16344149846E+03  0.12500000000E+03 0.  0.
</event>
<event>
 5    0  0.5666692E-005  0.3540770E+03  0.7546771E-02  0.1060954E+00
         21   -1    0    0  502  501  0.00000000000E+00  0.00000000000E+00  0.30960109307E+03  0.30960109307E+03  0.00000000000E+00 0.  1.
         21   -1    0    0  501  502 -0.00000000000E+00 -0.00000000000E+00 -0.40494212935E+03  0.40494212935E+03  0.00000000000E+00 0.  1.
         25    1    1    2    0    0  0.25653391068E+02 -0.15122824119E+03  0.64216288715E+02  0.20803078893E+03  0.12500000000E+03 0.  0.
         25    1    1    2    0    0 -0.21919019617E+02 -0.80214867160E+02 -0.18947893743E+03  0.24174808389E+03  0.12500000000E+03 0.  0.
         25    1    1    2    0    0 -0.37343714513E+01  0.23144310835E+03  0.29921612433E+02  0.26476434961E+03  0.12500000000E+03 0.  0.
</event>
<event>
 5    0  0.5597833E-005  0.3684687E+03  0.7546771E-02  0.1055280E+00
         21   -1    0    0  502  501  0.00000000000E+00  0.00000000000E+00  0.19953401916E+03  0.19953401916E+03  0.00000000000E+00 0.  1.
         21   -1    0    0  501  502 -0.00000000000E+00 -0.00000000000E+00 -0.68043133406E+03  0.68043133406E+03  0.00000000000E+00 0. -1.
         25    1    1    2    0    0  0.17966420705E+03  0.38679368048E+02  0.11324370867E+02  0.22255013409E+03  0.12500000000E+03 0.  0.
         25    1    1    2    0    0  0.68890602461E+02 -0.23996705108E+02 -0.24692147402E+03  0.28621141014E+03  0.12500000000E+03 0.  0.
         25    1    1    2    0    0 -0.24855480951E+03 -0.14682662940E+02 -0.24530021175E+03  0.37120380899E+03  0.12500000000E+03 0.  0.
</event>
<event>
 5    0  0.5597833E-005  0.2440313E+03  0.7546771E-02  0.1117136E+00
         21   -1    0    0  502  501  0.00000000000E+00  0.00000000000E+00  0.69949071589E+03  0.69949071589E+03  0.00000000000E+00 0. -1.
         21   -1    0    0  501  502 -0.00000000000E+00 -0.00000000000E+00 -0.85135221567E+02  0.85135221567E+02  0.00000000000E+00 0. -1.
         25    1    1    2    0    0 -0.86515485174E+01  0.72063402658E+02  0.27587036278E+03  0.31144412076E+03  0.12500000000E+03 0.  0.
         25    1    1    2    0    0  0.73056597285E+00 -0.12847632815E+03  0.12214035980E+03  0.21691004614E+03  0.12500000000E+03 0.  0.
         25    1    1    2    0    0  0.79209825446E+01  0.56412925495E+02  0.21634477174E+03  0.25627177056E+03  0.12500000000E+03 0.  0.
</event>
<event>
 5    0  0.5597833E-005  0.3364223E+03  0.7546771E-02  0.1068330E+00
         21   -1    0    0  502  501  0.00000000000E+00  0.00000000000E+00  0.91793511553E+03  0.91793511553E+03  0.00000000000E+00 0. -1.
         21   -1    0    0  501  502 -0.00000000000E+00 -0.00000000000E+00 -0.12329841766E+03  0.12329841766E+03  0.00000000000E+00 0. -1.
         25    1    1    2    0    0 -0.12625420054E+03 -0.13714749771E+03  0.15856450860E+03  0.27480404413E+03  0.12500000000E+03 0.  0.
         25    1    1    2    0    0  0.49213062114E+02  0.20700901827E+03  0.48641892874E+03  0.54543838640E+03  0.12500000000E+03 0.  0.
         25    1    1    2    0    0  0.77041138426E+02 -0.69861520557E+02  0.14965326054E+03  0.22099110266E+03  0.12500000000E+03 0.  0.
</event>
<event>
 5    0  0.5597833E-005  0.3167343E+03  0.7546771E-02  0.1077162E+00
         21   -1    0    0  502  501  0.00000000000E+00  0.00000000000E+00  0.17416942409E+03  0.17416942409E+03  0.00000000000E+00 0. -1.
         21   -1    0    0  501  502 -0.00000000000E+00 -0.00000000000E+00 -0.57599448245E+03  0.57599448245E+03  0.00000000000E+00 0. -1.
         25    1    1    2    0    0 -0.66113202876E+02  0.12016695154E+03 -0.50488294084E+02  0.19231515717E+03  0.12500000000E+03 0.  0.
         25    1    1    2    0    0  0.13148791336E+03 -0.83793929739E+02 -0.26175144681E+02  0.20154560828E+03  0.12500000000E+03 0.  0.
         25    1    1    2    0    0 -0.65374710479E+02 -0.36373021801E+02 -0.32516161960E+03  0.35630314108E+03  0.12500000000E+03 0.  0.
</event>
<event>
 5    0  0.5597833E-005  0.4833633E+03  0.7546771E-02  0.1018215E+00
         21   -1    0    0  502  501  0.00000000000E+00  0.00000000000E+00  0.15103791670E+04  0.15103791670E+04  0.00000000000E+00 0. -1.
         21   -1    0    0  501  502 -0.00000000000E+00 -0.00000000000E+00 -0.15468967852E+03  0.15468967852E+03  0.00000000000E+00 0. -1.
         25    1    1    2    0    0  0.19516859309E+01 -0.23298797485E+03  0.31428293763E+03  0.41071397637E+03  0.12500000000E+03 0.  0.
         25    1    1    2    0    0 -0.22244593402E+03  0.15076078385E+03  0.16686152630E+03  0.34011582801E+03  0.12500000000E+03 0.  0.
         25    1    1    2    0    0  0.22049424809E+03  0.82227191002E+02  0.87454502452E+03  0.91423904111E+03  0.12500000000E+03 0.  0.
</event>
<event>
 5    0  0.5597833E-005  0.2572997E+03  0.7546771E-02  0.1108777E+00
         21   -1    0    0  502  501  0.00000000000E+00  0.00000000000E+00  0.16392108628E+03  0.16392108628E+03  0.00000000000E+00 0.  1.
         21   -1    0    0  501  502 -0.00000000000E+00 -0.00000000000E+00 -0.40387206544E+03  0.40387206544E+03  0.00000000000E+00 0.  1.
         25    1    1    2    0    0  0.11129479079E+03  0.72887402723E+02 -0.18494389434E+03  0.25986217113E+03  0.12500000000E+03 0.  0.
         25    1    1    2    0    0 -0.61300489970E+02 -0.79901019074E+02 -0.64029443314E+02  0.17281982679E+03  0.12500000000E+03 0.  0.
         25    1    1    2    0    0 -0.49994300822E+02  0.70136163514E+01  0.90223584799E+01  0.13511115380E+03  0.12500000000E+03 0.  0.
</event>
<event>
 5    0  0.5597833E-005  0.2415634E+03  0.7546771E-02  0.1118756E+00
         21   -1    0    0  502  501  0.00000000000E+00  0.00000000000E+00  0.40963309900E+02  0.40963309900E+02  0.00000000000E+00 0.  1.
         21   -1    0    0  501  502 -0.00000000000E+00 -0.00000000000E+00 -0.14245154357E+04  0.14245154357E+04  0.00000000000E+00 0.  1.
         25    1    1    2    0    0  0.53279762133E+02 -0.12647015047E+03 -0.44166629322E+03  0.47909033238E+03  0.12500000000E+03 0.  0.
         25    1    1    2    0    0 -0.44328239972E+02  0.93200144503E+02 -0.47896617474E+03  0.50565290105E+03  0.12500000000E+03 0.  0.
         25    1    1    2    0    0 -0.89515221608E+01  0.33270005971E+02 -0.46291965782E+03  0.48073551215E+03  0.12500000000E+03 0.  0.
</event>
<event>
 5    0  0.5597833E-005  0.2737351E+03  0.7546771E-02  0.1099161E+00
         21   -1    0    0  502  501  0.00000000000E+00  0.00000000000E+00  0.49563819650E+02  0.49563819650E+02  0.00000000000E+00 0. -1.
         21   -1    0    0  501  502 -0.00000000000E+00 -0.00000000000E+00 -0.15118064934E+04  0.15118064934E+04  0.00000000000E+00 0. -1.
         25    1    1    2    0    0  0.55274936712E+01 -0.88192778234E+02 -0.29676908067E+03  0.33392425273E+03  0.12500000000E+03 0.  0.
         25    1    1    2    0    0 -0.46225170947E+02  0.13816338056E+03 -0.95638933595E+03  0.97546473441E+03  0.12500000000E+03 0.  0.
         25    1    1    2    0    0  0.40697677276E+02 -0.49970602321E+02 -0.20908425717E+03  0.25198132595E+03  0.12500000000E+03 0.  0.
</event>
<event>
 5    0  0.5597833E-005  0.3165430E+03  0.7546771E-02  0.1077251E+00
         21   -1    0    0  502  501  0.00000000000E+00  0.00000000000E+00  0.14197125228E+03  0.14197125228E+03  0.00000000000E+00 0. -1.
         21   -1    0    0  501  502 -0.00000000000E+00 -0.00000000000E+00 -0.70577277565E+03  0.70577277565E+03  0.00000000000E+00 0. -1.
         25    1    1    2    0    0  0.20623903049E+03 -0.44575457225E+02 -0.29037612215E+03  0.38008525543E+03  0.12500000000E+03 0.  0.
         25    1    1    2    0    0 -0.75226769579E+02 -0.63758169749E+02 -0.16913087411E+03  0.23228091537E+03  0.12500000000E+03 0.  0.
         25    1    1    2    0    0 -0.13101226091E+03  0.10833362697E+03 -0.10429452711E+03  0.23537785713E+03  0.12500000000E+03 0.  0.
</event>
<event>
 5    0  0.5597833E-005  0.2643754E+03  0.7546771E-02  0.1104543E+00
         21   -1    0    0  502  501  0.00000000000E+00  0.00000000000E+00  0.25353039729E+03  0.25353039729E+03  0.00000000000E+00 0.  1.
         21   -1    0    0  501  502 -0.00000000000E+00 -0.00000000000E+00 -0.27568436053E+03  0.27568436053E+03  0.00000000000E+00 0.  1.
         25    1    1    2    0    0  0.12212421489E+03 -0.19978570620E+02 -0.62400868247E+02  0.18663422919E+03  0.12500000000E+03 0.  0.
         25    1    1    2    0    0 -0.13589957766E+03 -0.23598963096E+02 -0.35412805025E+02  0.18948528446E+03  0.12500000000E+03 0.  0.
         25    1    1    2    0    0  0.13775362775E+02  0.43577533716E+02  0.75659710032E+02  0.15309524417E+03  0.12500000000E+03 0.  0.
</event>
<event>
 5    0  0.5597833E-005  0.3254499E+03  0.7546771E-02  0.1073168E+00
         21   -1    0    0  502  501  0.00000000000E+00  0.00000000000E+00  0.41214305057E+03  0.41214305057E+03  0.00000000000E+00 0. -1.
         21   -1    0    0  501  502 -0.00000000000E+00 -0.00000000000E+00 -0.25699239757E+03  0.25699239757E+03  0.00000000000E+00 0. -1.
         25    1    1    2    0    0 -0.75534564460E+02  0.10724251392E+03 -0.41595808022E+01  0.18124218420E+03  0.12500000000E+03 0.  0.
         25    1    1    2    0    0 -0.13142197459E+03  0.28746623696E+02  0.58121294093E+02  0.19261668829E+03  0.12500000000E+03 0.  0.
         25    1    1    2    0    0  0.20695653905E+03 -0.13598913761E+03  0.10118893971E+03  0.29527657565E+03  0.12500000000E+03 0.  0.
</event>
<event>
 5    0  0.5597833E-005  0.2863302E+03  0.7546771E-02  0.1092281E+00
         21   -1    0    0  502  501  0.00000000000E+00  0.00000000000E+00  0.72105476970E+02  0.72105476970E+02  0.00000000000E+00 0.  1.
         21   -1    0    0  501  502 -0.00000000000E+00 -0.00000000000E+00 -0.11370146128E+04  0.11370146128E+04  0.00000000000E+00 0.  1.
         25    1    1    2    0    0 -0.15296055898E+02  0.70410605814E+02 -0.40817859089E+03  0.43292769003E+03  0.12500000000E+03 0.  0.
         25    1    1    2    0    0 -0.12175542240E+03  0.22228828061E+02 -0.15945514037E+03  0.23742250414E+03  0.12500000000E+03 0.  0.
         25    1    1    2    0    0  0.13705147830E+03 -0.92639433875E+02 -0.49727540458E+03  0.53876989560E+03  0.12500000000E+03 0.  0.
</event>
<event>
 5    0  0.5597833E-005  0.3464851E+03  0.7546771E-02  0.1064067E+00
         21   -1    0    0  502  501  0.00000000000E+00  0.00000000000E+00  0.39539388640E+03  0.39539388640E+03  0.00000000000E+00 0.  1.
         21   -1    0    0  501  502 -0.00000000000E+00 -0.00000000000E+00 -0.30362613636E+03  0.30362613636E+03  0.00000000000E+00 0.  1.
         25    1    1    2    0    0  0.68323841695E+02 -0.58313795655E+02  0.10347695076E+02  0.15427482264E+03  0.12500000000E+03 0.  0.
         25    1    1    2    0    0 -0.23782219871E+03 -0.77387078742E+02  0.90979776861E+02  0.29402462134E+03  0.12500000000E+03 0.  0.
         25    1    1    2    0    0  0.16949835701E+03  0.13570087440E+03 -0.95597218906E+01  0.25072057878E+03  0.12500000000E+03 0.  0.
</event>
<event>
 5    0  0.5597833E-005  0.3481092E+03  0.7546771E-02  0.1063394E+00
         21   -1    0    0  502  501  0.00000000000E+00  0.00000000000E+00  0.71897325128E+03  0.71897325128E+03  0.00000000000E+00 0.  1.
         21   -1    0    0  501  502 -0.00000000000E+00 -0.00000000000E+00 -0.16854593304E+03  0.16854593304E+03  0.00000000000E+00 0.  1.
         25    1    1    2    0    0  0.72338822234E+02 -0.31079503587E+02  0.85555878524E+02  0.17071511092E+03  0.12500000000E+03 0.  0.
         25    1    1    2    0    0  0.15699933990E+03 -0.41601578075E+02  0.38165782166E+03  0.43320569809E+03  0.12500000000E+03 0.  0.
         25    1    1    2    0    0 -0.22933816214E+03  0.72681081662E+02  0.83213618055E+02  0.28359837530E+03  0.12500000000E+03 0.  0.
</event>
<event>
 5    0  0.5597833E-005  0.2049868E+03  0.7546771E-02  0.1145599E+00
         21   -1    0    0  502  501  0.00000000000E+00  0.00000000000E+00  0.51586525014E+03  0.51586525014E+03  0.00000000000E+00 0.  1.
         21   -1    0    0  501  502 -0.00000000000E+00 -0.00000000000E+00 -0.81454606865E+02  0.81454606865E+02  0.00000000000E+00 0.  1.
         25    1    1    2    0    0  0.17721116256E+02  0.30994334439E+02  0.24193909397E+03  0.27465289352E+03  0.12500000000E+03 0.  0.
         25    1    1    2    0    0  0.40856731750E+01 -0.37985125656E+02  0.11301124393E+03  0.17278918876E+03  0.12500000000E+03 0.  0.
         25    1    1    2    0    0 -0.21806789431E+02  0.69907912172E+01  0.79460305378E+02  0.14987777473E+03  0.12500000000E+03 0.  0.
</event>
<event>
 5    0  0.5597833E-005  0.4447509E+03  0.7546771E-02  0.1029299E+00
         21   -1    0    0  502  501  0.00000000000E+00  0.00000000000E+00  0.16465503017E+03  0.16465503017E+03  0.00000000000E+00 0.  1.
         21   -1    0    0  501  502 -0.00000000000E+00 -0.00000000000E+00 -0.12013201211E+04  0.12013201211E+04  0.00000000000E+00 0.  1.
         25    1    1    2    0    0  0.14418680184E+03  0.27575671562E+03 -0.75682235941E+03  0.82779024139E+03  0.12500000000E+03 0.  0.
         25    1    1    2    0    0 -0.11270461619E+03 -0.28373699634E+03 -0.21387603765E+03  0.39316278192E+03  0.12500000000E+03 0.  0.
         25    1    1    2    0    0 -0.31482185656E+02  0.79802807235E+01 -0.65966693825E+02  0.14502212793E+03  0.12500000000E+03 0.  0.
</event>
<event>
 5    0  0.5597833E-005  0.3000908E+03  0.7546771E-02  0.1085195E+00
         21   -1    0    0  502  501  0.00000000000E+00  0.00000000000E+00  0.16034916469E+03  0.16034916469E+03  0.00000000000E+00 0.  1.
         21   -1    0    0  501  502 -0.00000000000E+00 -0.00000000000E+00 -0.56161485539E+03  0.56161485539E+03  0.00000000000E+00 0.  1.
         25    1    1    2    0    0 -0.16174303034E+03  0.57004876690E+02 -0.22808956886E+03  0.31154488481E+03  0.12500000000E+03 0.  0.
         25    1    1    2    0    0  0.11072567488E+03 -0.69434706338E+02  0.11618730942E+02  0.18122182106E+03  0.12500000000E+03 0.  0.
         25    1    1    2    0    0  0.51017355460E+02  0.12429829648E+02 -0.18479485278E+03  0.22919731420E+03  0.12500000000E+03 0.  0.
</event>
<event>
 5    0  0.5597833E-005  0.2563325E+03  0.7546771E-02  0.1109367E+00
         21   -1    0    0  502  501  0.00000000000E+00  0.00000000000E+00  0.33640465500E+03  0.33640465500E+03  0.00000000000E+00 0. -1.
         21   -1    0    0  501  502 -0.00000000000E+00 -0.00000000000E+00 -0.19531933954E+03  0.19531933954E+03  0.00000000000E+00 0. -1.
         25    1    1    2    0    0 -0.11694972010E+03 -0.11160801452E+02  0.10105228325E+03  0.19909385845E+03  0.12500000000E+03 0.  0.
         25    1    1    2    0    0  0.27624107329E+02 -0.62644506521E+02 -0.34443535156E+02  0.14662463169E+03  0.12500000000E+03 0.  0.
         25    1    1    2    0    0  0.89325612775E+02  0.73805307973E+02  0.74476567369E+02  0.18600550441E+03  0.12500000000E+03 0.  0.
</event>
<event>
 5    0  0.5597833E-005  0.3795654E+03  0.7546771E-02  0.1051094E+00
         21   -1    0    0  502  501  0.00000000000E+00  0.00000000000E+00  0.26801999536E+03  0.26801999536E+03  0.00000000000E+00 0. -1.
         21   -1    0    0  501  502 -0.00000000000E+00 -0.00000000000E+00 -0.53753424047E+03  0.53753424047E+03  0.00000000000E+00 0. -1.
         25    1    1    2    0    0  0.66556523461E+01 -0.29732790591E+03 -0.17281962547E+03  0.36597787405E+03  0.12500000000E+03 0.  0.
         25    1    1    2    0    0 -0.11971308102E+02  0.25678977233E+03 -0.11234269973E+03  0.30713218909E+03  0.12500000000E+03 0.  0.
         25    1    1    2    0    0  0.53156557561E+01  0.40538133580E+02  0.15648080095E+02  0.13244417270E+03  0.12500000000E+03 0.  0.
</event>
<event>
 5    0  0.5597833E-005  0.2481815E+03  0.7546771E-02  0.1114459E+00
         21   -1    0    0  502  501  0.00000000000E+00  0.00000000000E+00  0.56767638065E+03  0.56767638065E+03  0.00000000000E+00 0. -1.
         21   -1    0    0  501  502 -0.00000000000E+00 -0.00000000000E+00 -0.10850205750E+03  0.10850205750E+03  0.00000000000E+00 0. -1.
         25    1    1    2    0    0  0.72562212972E+01 -0.27044238317E+02  0.36312985815E+03  0.38506147230E+03  0.12500000000E+03 0.  0.
         25    1    1    2    0    0 -0.39669934679E+02  0.16162434366E+02  0.40605008894E+01  0.13219839511E+03  0.12500000000E+03 0.  0.
         25    1    1    2    0    0  0.32413713382E+02  0.10881803951E+02  0.91983964115E+02  0.15891857074E+03  0.12500000000E+03 0.  0.
</event>
<event>
 5    0  0.5597833E-005  0.3680828E+03  0.7546771E-02  0.1055428E+00
         21   -1    0    0  502  501  0.00000000000E+00  0.00000000000E+00  0.16786246287E+04  0.16786246287E+04  0.00000000000E+00 0. -1.
         21   -1    0    0  501  502 -0.00000000000E+00 -0.00000000000E+00 -0.80711864040E+02  0.80711864040E+02  0.00000000000E+00 0. -1.
         25    1    1    2    0    0 -0.79618596781E+02 -0.20275647135E+03  0.57618285560E+03  0.62853877423E+03  0.12500000000E+03 0.  0.
         25    1    1    2    0    0 -0.39806428703E+02  0.25034534770E+03  0.44803372732E+03  0.52973254166E+03  0.12500000000E+03 0.  0.
         25    1    1    2    0    0  0.11942502548E+03 -0.47588876346E+02  0.57369618170E+03  0.60106517680E+03  0.12500000000E+03 0.  0.
</event>
<event>
 5    0  0.5597833E-005  0.2679148E+03  0.7546771E-02  0.1102479E+00
         21   -1    0    0  502  501  0.00000000000E+00  0.00000000000E+00  0.17829432797E+03  0.17829432797E+03  0.00000000000E+00 0.  1.
         21   -1    0    0  501  502 -0.00000000000E+00 -0.00000000000E+00 -0.40258344212E+03  0.40258344212E+03  0.00000000000E+00 0.  1.
         25    1    1    2    0    0 -0.99934045480E+01  0.32982760249E+02  0.77164228654E+02  0.15088753690E+03  0.12500000000E+03 0.  0.
         25    1    1    2    0    0 -0.42468657625E+01 -0.96080023487E+02 -0.20804677134E+03  0.26107061468E+03  0.12500000000E+03 0.  0.
         25    1    1    2    0    0  0.14240270311E+02  0.63097263237E+02 -0.93406571467E+02  0.16891961852E+03  0.12500000000E+03 0.  0.
</event>
<event>
 5    0  0.5597833E-005  0.2784269E+03  0.7546771E-02  0.1096551E+00
         21   -1    0    0  502  501  0.00000000000E+00  0.00000000000E+00  0.13297998992E+04  0.13297998992E+04  0.00000000000E+00 0.  1.
         21   -1    0    0  501  502 -0.00000000000E+00 -0.00000000000E+00 -0.58295653506E+02  0.58295653506E+02  0.00000000000E+00 0.  1.
         25    1    1    2    0    0 -0.11853648761E+02 -0.80741094375E+02  0.67231006068E+03  0.68868385418E+03  0.12500000000E+03 0.  0.
         25    1    1    2    0    0 -0.87181809063E+02  0.87445980898E+02  0.44085788579E+03  0.47458207179E+03  0.12500000000E+03 0.  0.
         25    1    1    2    0    0  0.99035457824E+02 -0.67048865228E+01  0.15833629925E+03  0.22482962676E+03  0.12500000000E+03 0.  0.
</event>
<event>
 5    0  0.5597833E-005  0.4086954E+03  0.7546771E-02  0.1040810E+00
         21   -1    0    0  502  501  0.00000000000E+00  0.00000000000E+00  0.11544312416E+04  0.11544312416E+04  0.00000000000E+00 0.  1.
         21   -1    0    0  501  502 -0.00000000000E+00 -0.00000000000E+00 -0.14468760587E+03  0.14468760587E+03  0.00000000000E+00 0.  1.
         25    1    1    2    0    0 -0.18603120621E+03 -0.19476846885E+02  0.22561443749E+03  0.31861235326E+03  0.12500000000E+03 0.  0.
         25    1    1    2    0    0  0.34885551104E+03  0.20942436204E+01  0.40453636331E+03  0.54861573317E+03  0.12500000000E+03 0.  0.
         25    1    1    2    0    0 -0.16282430483E+03  0.17382603265E+02  0.37959283493E+03  0.43189076104E+03  0.12500000000E+03 0.  0.
</event>
<event>
 5    0  0.5597833E-005  0.2898064E+03  0.7546771E-02  0.1090450E+00
         21   -1    0    0  502  501  0.00000000000E+00  0.00000000000E+00  0.12444838893E+03  0.12444838893E+03  0.00000000000E+00 0.  1.
         21   -1    0    0  501  502 -0.00000000000E+00 -0.00000000000E+00 -0.67488035569E+03  0.67488035569E+03  0.00000000000E+00 0.  1.
         25    1    1    2    0    0 -0.34754443082E+02 -0.16406863500E+03 -0.26137641836E+03  0.33476711364E+03  0.12500000000E+03 0.  0.
         25    1    1    2    0    0 -0.13330393109E+02 -0.23042406584E+02 -0.14408373652E+03  0.19259744290E+03  0.12500000000E+03 0.  0.
         25    1    1    2    0    0  0.48084836191E+02  0.18711104158E+03 -0.14497181188E+03  0.27196418807E+03  0.12500000000E+03 0.  0.
</event>
<event>
 5    0  0.5597833E-005  0.2804534E+03  0.7546771E-02  0.1095442E+00
         21   -1    0    0  502  501  0.00000000000E+00  0.00000000000E+00  0.99509606134E+02  0.99509606134E+02  0.00000000000E+00 0.  1.
         21   -1    0    0  501  502 -0.00000000000E+00 -0.00000000000E+00 -0.79041718935E+03  0.79041718935E+03  0.00000000000E+00 0.  1.
         25    1    1    2    0    0 -0.13166162212E+03 -0.97272963881E+02 -0.46831215790E+03  0.51160344944E+03  0.12500000000E+03 0.  0.
         25    1    1    2    0    0  0.30680048752E+02  0.47069920511E+02 -0.11077356367E+03  0.17621755082E+03  0.12500000000E+03 0.  0.
         25    1    1    2    0    0  0.10098157336E+03  0.50203043371E+02 -0.11182186165E+03  0.20210579523E+03  0.12500000000E+03 0.  0.
</event>
<event>
 5    0  0.5748566E-005  0.2779359E+03  0.7546771E-02  0.1096822E+00
         21   -1    0    0  502  501  0.00000000000E+00  0.00000000000E+00  0.53910823168E+03  0.53910823168E+03  0.00000000000E+00 0. -1.
         21   -1    0    0  501  502 -0.00000000000E+00 -0.00000000000E+00 -0.14328911653E+03  0.14328911653E+03  0.00000000000E+00 0. -1.
         25    1    1    2    0    0 -0.11125993834E+03 -0.40852484889E+02  0.76741211927E+02  0.18857866531E+03  0.12500000000E+03 0.  0.
         25    1    1    2    0    0  0.17197951633E+03  0.55253482189E+02  0.11912414114E+03  0.24989090086E+03  0.12500000000E+03 0.  0.
         25    1    1    2    0    0 -0.60719577989E+02 -0.14400997299E+02  0.19995376208E+03  0.24392778203E+03  0.12500000000E+03 0.  0.
</event>
<event>
 5    0  0.5597833E-005  0.4383713E+03  0.7546771E-02  0.1031248E+00
         21   -1    0    0  502  501  0.00000000000E+00  0.00000000000E+00  0.25006724632E+03  0.25006724632E+03  0.00000000000E+00 0. -1.
         21   -1    0    0  501  502 -0.00000000000E+00 -0.00000000000E+00 -0.76847083097E+03  0.76847083097E+03  0.00000000000E+00 0. -1.
         25    1    1    2    0    0  0.16393192118E+03 -0.29342463280E+03 -0.44195823835E+03  0.56914301750E+03  0.12500000000E+03 0.  0.
         25    1    1    2    0    0 -0.80908570399E+02  0.11402843724E+03  0.34235988103E+02  0.19064570319E+03  0.12500000000E+03 0.  0.
         25    1    1    2    0    0 -0.83023350779E+02  0.17939619556E+03 -0.11068133440E+03  0.25874935660E+03  0.12500000000E+03 0.  0.
</event>
<event>
 5    0  0.5597833E-005  0.2636361E+03  0.7546771E-02  0.1104978E+00
         21   -1    0    0  502  501  0.00000000000E+00  0.00000000000E+00  0.62774204866E+03  0.62774204866E+03  0.00000000000E+00 0.  1.
         21   -1    0    0  501  502 -0.00000000000E+00 -0.00000000000E+00 -0.11072063218E+03  0.11072063218E+03  0.00000000000E+00 0.  1.
         25    1    1    2    0    0 -0.81319641955E+02 -0.68973975229E+01  0.36070483221E+02  0.15357909369E+03  0.12500000000E+03 0.  0.
         25    1    1    2    0    0 -0.41123481866E+01 -0.73816898999E+02  0.13298358410E+03  0.19691490453E+03  0.12500000000E+03 0.  0.
         25    1    1    2    0    0  0.85431990142E+02  0.80714296522E+02  0.34796734916E+03  0.38796868261E+03  0.12500000000E+03 0.  0.
</event>
<event>
 5    0  0.5597833E-005  0.1985557E+03  0.7546771E-02  0.1150963E+00
         21   -1    0    0  502  501  0.00000000000E+00  0.00000000000E+00  0.89861000029E+02  0.89861000029E+02  0.00000000000E+00 0. -1.
         21   -1    0    0  501  502 -0.00000000000E+00 -0.00000000000E+00 -0.43872611809E+03  0.43872611809E+03  0.00000000000E+00 0. -1.
         25    1    1    2    0    0 -0.11465274508E+02 -0.20686582281E+02 -0.12696502819E+03  0.17973454200E+03  0.12500000000E+03 0.  0.
         25    1    1    2    0    0  0.17996645080E+02 -0.35999747450E+02 -0.98329179157E+02  0.16405331001E+03  0.12500000000E+03 0.  0.
         25    1    1    2    0    0 -0.65313705721E+01  0.56686329730E+02 -0.12357091072E+03  0.18479926611E+03  0.12500000000E+03 0.  0.
</event>
<event>
 5    0  0.5597833E-005  0.2826630E+03  0.7546771E-02  0.1094243E+00
         21   -1    0    0  502  501  0.00000000000E+00  0.00000000000E+00  0.39182476118E+02  0.39182476118E+02  0.00000000000E+00 0. -1.
         21   -1    0    0  501  502 -0.00000000000E+00 -0.00000000000E+00 -0.20391356767E+04  0.20391356767E+04  0.00000000000E+00 0. -1.
         25    1    1    2    0    0 -0.13813333639E+02  0.42909885895E+02 -0.10276716167E+04  0.10362268179E+04  0.12500000000E+03 0.  0.
         25    1    1    2    0    0  0.53328356808E+02 -0.11845094275E+03 -0.27671445681E+03  0.33025812645E+03  0.12500000000E+03 0.  0.
         25    1    1    2    0    0 -0.39515023169E+02  0.75541056852E+02 -0.69556712708E+03  0.71183320841E+03  0.12500000000E+03 0.  0.
</event>
<event>
 5    0  0.5597833E-005  0.3139506E+03  0.7546771E-02  0.1078468E+00
         21   -1    0    0  502  501  0.00000000000E+00  0.00000000000E+00  0.85600861323E+03  0.85600861323E+03  0.00000000000E+00 0.  1.
         21   -1    0    0  501  502 -0.00000000000E+00 -0.00000000000E+00 -0.11514483701E+03  0.11514483701E+03  0.00000000000E+00 0.  1.
         25    1    1    2    0    0 -0.18255200091E+01  0.83836621691E+02  0.51534553009E+03  0.53687794427E+03  0.12500000000E+03 0.  0.
         25    1    1    2    0    0  0.12167658780E+03 -0.90102402630E+02  0.13922179389E+03  0.24068930776E+03  0.12500000000E+03 0.  0.
         25    1    1    2    0    0 -0.11985106779E+03  0.62657809382E+01  0.86296452243E+02  0.19358619820E+03  0.12500000000E+03 0.  0.
</event>
<event>
 5    0  0.5597833E-005  0.2793902E+03  0.7546771E-02  0.1096022E+00
         21   -1    0    0  502  501  0.00000000000E+00  0.00000000000E+00  0.25921334810E+03  0.25921334810E+03  0.00000000000E+00 0.  1.
         21   -1    0    0  501  502 -0.00000000000E+00 -0.00000000000E+00 -0.30113767540E+03  0.30113767540E+03  0.00000000000E+00 0.  1.
         25    1    1    2    0    0 -0.67962383291E+02 -0.15013319579E+03 -0.18189371409E+02  0.20764083233E+03  0.12500000000E+03 0.  0.
         25    1    1    2    0    0  0.33659983824E+02  0.17306940964E+03  0.11526267733E+02  0.21643444715E+03  0.12500000000E+03 0.  0.
         25    1    1    2    0    0  0.34302399467E+02 -0.22936213854E+02 -0.35261223627E+02  0.13627574402E+03  0.12500000000E+03 0.  0.
</event>
<event>
 5    0  0.5597833E-005  0.2695335E+03  0.7546771E-02  0.1101547E+00
         21   -1    0    0  502  501  0.00000000000E+00  0.00000000000E+00  0.66521266794E+02  0.66521266794E+02  0.00000000000E+00 0. -1.
         21   -1    0    0  501  502 -0.00000000000E+00 -0.00000000000E+00 -0.10921064669E+04  0.10921064669E+04  0.00000000000E+00 0. -1.
         25    1    1    2    0    0 -0.38935488654E+02  0.99374447076E+01 -0.71187273239E+02  0.14935646272E+03  0.12500000000E+03 0.  0.
         25    1    1    2    0    0  0.12422927903E+03 -0.11904679733E+02 -0.53483046149E+03  0.56324351546E+03  0.12500000000E+03 0.  0.
         25    1    1    2    0    0 -0.85293790379E+02  0.19672350258E+01 -0.41956746541E+03  0.44602775555E+03  0.12500000000E+03 0.  0.
</event>
<event>
 5    0  0.5597833E-005  0.3220128E+03  0.7546771E-02  0.1074727E+00
         21   -1    0    0  502  501  0.00000000000E+00  0.00000000000E+00  0.21103321841E+03  0.21103321841E+03  0.00000000000E+00 0. -1.
         21   -1    0    0  501  502 -0.00000000000E+00 -0.00000000000E+00 -0.49135503015E+03  0.49135503015E+03  0.00000000000E+00 0. -1.
         25    1    1    2    0    0  0.14012910136E+03  0.45666455692E+01 -0.55500450379E+02  0.19586301154E+03  0.12500000000E+03 0.  0.
         25    1    1    2    0    0 -0.11595148289E+03 -0.76149759339E+02  0.51737187804E+02  0.19376601568E+03  0.12500000000E+03 0.  0.
         25    1    1    2    0    0 -0.24177618466E+02  0.71583113770E+02 -0.27655854917E+03  0.31275922133E+03  0.12500000000E+03 0.  0.
</event>
<event>
 5    0  0.5597833E-005  0.3335279E+03  0.7546771E-02  0.1069586E+00
         21   -1    0    0  502  501  0.00000000000E+00  0.00000000000E+00  0.92521333553E+02  0.92521333553E+02  0.00000000000E+00 0.  1.
         21   -1    0    0  501  502 -0.00000000000E+00 -0.00000000000E+00 -0.12023263460E+04  0.12023263460E+04  0.00000000000E+00 0.  1.
         25    1    1    2    0    0  0.64193729317E+02 -0.20205072770E+02 -0.21510313230E+03  0.25772744785E+03  0.12500000000E+03 0.  0.
         25    1    1    2    0    0  0.11077317514E+03  0.15388457274E+03 -0.63512163314E+03  0.67450400069E+03  0.12500000000E+03 0.  0.
         25    1    1    2    0    0 -0.17496690445E+03 -0.13367949997E+03 -0.25958024703E+03  0.36261623104E+03  0.12500000000E+03 0.  0.
</event>
<event>
 5    0  0.5597833E-005  0.2753368E+03  0.7546771E-02  0.1098263E+00
         21   -1    0    0  502  501  0.00000000000E+00  0.00000000000E+00  0.12241407091E+03  0.12241407091E+03  0.00000000000E+00 0.  1.
         21   -1    0    0  501  502 -0.00000000000E+00 -0.00000000000E+00 -0.61929450453E+03  0.61929450453E+03  0.00000000000E+00 0.  1.
         25    1    1    2    0    0 -0.78758987730E+02  0.76943988059E+02 -0.27763631174E+03  0.32377504080E+03  0.12500000000E+03 0.  0.
         25    1    1    2    0    0  0.12071388029E+03 -0.12505524939E+03 -0.11439202521E+03  0.24273687755E+03  0.12500000000E+03 0.  0.
         25    1    1    2    0    0 -0.41954892557E+02  0.48111261328E+02 -0.10485209667E+03  0.17519665708E+03  0.12500000000E+03 0.  0.
</event>
<event>
 5    0  0.5597833E-005  0.4809062E+03  0.7546771E-02  0.1018886E+00
         21   -1    0    0  502  501  0.00000000000E+00  0.00000000000E+00  0.61352668123E+02  0.61352668123E+02  0.00000000000E+00 0. -1.
         21   -1    0    0  501  502 -0.00000000000E+00 -0.00000000000E+00 -0.37695302004E+04  0.37695302004E+04  0.00000000000E+00 0. -1.
         25    1    1    2    0    0  0.75055021794E+02  0.36456966978E+03 -0.16888452753E+04  0.17338880195E+04  0.12500000000E+03 0.  0.
         25    1    1    2    0    0  0.54331814870E+01 -0.23415901589E+03 -0.17055595873E+04  0.17260992063E+04  0.12500000000E+03 0.  0.
         25    1    1    2    0    0 -0.80488203281E+02 -0.13041065389E+03 -0.31377266967E+03  0.37089564267E+03  0.12500000000E+03 0.  0.
</event>
<event>
 5    0  0.5597833E-005  0.3337525E+03  0.7546771E-02  0.1069488E+00
         21   -1    0    0  502  501  0.00000000000E+00  0.00000000000E+00  0.92795353262E+03  0.92795353262E+03  0.00000000000E+00 0.  1.
         21   -1    0    0  501  502 -0.00000000000E+00 -0.00000000000E+00 -0.12003910112E+03  0.12003910112E+03  0.00000000000E+00 0.  1.
         25    1    1    2    0    0  0.79092413459E+02 -0.80574338936E+02  0.11040101774E+03  0.20139815957E+03  0.12500000000E+03 0.  0.
         25    1    1    2    0    0 -0.17778709462E+03 -0.75468655742E+02  0.21425554902E+03  0.31437908534E+03  0.12500000000E+03 0.  0.
         25    1    1    2    0    0  0.98694681159E+02  0.15604299468E+03  0.48325786475E+03  0.53221538884E+03  0.12500000000E+03 0.  0.
</event>
<event>
 5    0  0.5597833E-005  0.2532543E+03  0.7546771E-02  0.1111265E+00
         21   -1    0    0  502  501  0.00000000000E+00  0.00000000000E+00  0.95014498909E+03  0.95014498909E+03  0.00000000000E+00 0. -1.
         21   -1    0    0  501  502 -0.00000000000E+00 -0.00000000000E+00 -0.67503111501E+02  0.67503111501E+02  0.00000000000E+00 0. -1.
         25    1    1    2    0    0  0.12638542870E+03  0.18618425544E+02  0.42644187293E+03  0.46238251842E+03  0.12500000000E+03 0.  0.
         25    1    1    2    0    0  0.11345488347E+02 -0.24954323395E+01  0.13981755667E+03  0.18790661628E+03  0.12500000000E+03 0.  0.
         25    1    1    2    0    0 -0.13773091705E+03 -0.16122993205E+02  0.31638244799E+03  0.36735896589E+03  0.12500000000E+03 0.  0.
</event>
<event>
 5    0  0.5597833E-005  0.2005377E+03  0.7546771E-02  0.1149286E+00
         21   -1    0    0  502  501  0.00000000000E+00  0.00000000000E+00  0.87340399342E+02  0.87340399342E+02  0.00000000000E+00 0.  1.
         21   -1    0    0  501  502 -0.00000000000E+00 -0.00000000000E+00 -0.46044398283E+03  0.46044398283E+03  0.00000000000E+00 0.  1.
         25    1    1    2    0    0 -0.27493280616E+01 -0.26139537371E+02 -0.19226836559E+03  0.23083101747E+03  0.12500000000E+03 0.  0.
         25    1    1    2    0    0 -0.28416561338E+02  0.19327626206E+02 -0.72772219314E+02  0.14866692301E+03  0.12500000000E+03 0.  0.
         25    1    1    2    0    0  0.31165889400E+02  0.68119111645E+01 -0.10806299859E+03  0.16828644170E+03  0.12500000000E+03 0.  0.
</event>
<event>
 5    0  0.5597833E-005  0.4636631E+03  0.7546771E-02  0.1023724E+00
         21   -1    0    0  502  501  0.00000000000E+00  0.00000000000E+00  0.42268406056E+03  0.42268406056E+03  0.00000000000E+00 0.  1.
         21   -1    0    0  501  502 -0.00000000000E+00 -0.00000000000E+00 -0.50861496214E+03  0.50861496214E+03  0.00000000000E+00 0.  1.
         25    1    1    2    0    0  0.11617774028E+03  0.30805700546E+03  0.11502812722E+03  0.37047652558E+03  0.12500000000E+03 0.  0.
         25    1    1    2    0    0  0.82580679341E+02 -0.66957821879E+02 -0.14635703297E+03  0.21988246772E+03  0.12500000000E+03 0.  0.
         25    1    1    2    0    0 -0.19875841962E+03 -0.24109918359E+03 -0.54601995829E+02  0.34094002940E+03  0.12500000000E+03 0.  0.
</event>
<event>
 5    0  0.5597833E-005  0.3017128E+03  0.7546771E-02  0.1084388E+00
         21   -1    0    0  502  501  0.00000000000E+00  0.00000000000E+00  0.63866662595E+02  0.63866662595E+02  0.00000000000E+00 0. -1.
         21   -1    0    0  501  502 -0.00000000000E+00 -0.00000000000E+00 -0.14253232338E+04  0.14253232338E+04  0.00000000000E+00 0. -1.
         25    1    1    2    0    0 -0.58312705378E+01  0.14135607003E+03 -0.76672155089E+03  0.78962173150E+03  0.12500000000E+03 0.  0.
         25    1    1    2    0    0 -0.82909605208E+02 -0.15311827569E+03 -0.33323894909E+03  0.39622267247E+03  0.12500000000E+03 0.  0.
         25    1    1    2    0    0  0.88740875746E+02  0.11762205665E+02 -0.26149607120E+03  0.30334549240E+03  0.12500000000E+03 0.  0.
</event>
<event>
 5    0  0.5597833E-005  0.2592497E+03  0.7546771E-02  0.1107595E+00
         21   -1    0    0  502  501  0.00000000000E+00  0.00000000000E+00  0.13591777836E+03  0.13591777836E+03  0.00000000000E+00 0.  1.
         21   -1    0    0  501  502 -0.00000000000E+00 -0.00000000000E+00 -0.49449326626E+03  0.49449326626E+03  0.00000000000E+00 0.  1.
         25    1    1    2    0    0 -0.46931613566E+01 -0.68270420485E+02 -0.21184760436E+03  0.25531800475E+03  0.12500000000E+03 0.  0.
         25    1    1    2    0    0 -0.74976302001E+02  0.71443328863E+01 -0.15709279219E+03  0.21441929183E+03  0.12500000000E+03 0.  0.
         25    1    1    2    0    0  0.79669463357E+02  0.61126087598E+02  0.10364908651E+02  0.16067374804E+03  0.12500000000E+03 0.  0.
</event>
<event>
 5    0  0.5597833E-005  0.2831382E+03  0.7546771E-02  0.1093987E+00
         21   -1    0    0  502  501  0.00000000000E+00  0.00000000000E+00  0.38909225358E+03  0.38909225358E+03  0.00000000000E+00 0.  1.
         21   -1    0    0  501  502 -0.00000000000E+00 -0.00000000000E+00 -0.20603661392E+03  0.20603661392E+03  0.00000000000E+00 0.  1.
         25    1    1    2    0    0 -0.47820012444E+02 -0.35736345854E+02 -0.87542497546E+02  0.16386741251E+03  0.12500000000E+03 0.  0.
         25    1    1    2    0    0  0.77010477166E+02 -0.15932003280E+02  0.25139619335E+03  0.29156386668E+03  0.12500000000E+03 0.  0.
         25    1    1    2    0    0 -0.29190464722E+02  0.51668349134E+02  0.19201943860E+02  0.13969758831E+03  0.12500000000E+03 0.  0.
</event>
<event>
 5    0  0.5597833E-005  0.3086951E+03  0.7546771E-02  0.1080973E+00
         21   -1    0    0  502  501  0.00000000000E+00  0.00000000000E+00  0.46605107587E+03  0.46605107587E+03  0.00000000000E+00 0. -1.
         21   -1    0    0  501  502 -0.00000000000E+00 -0.00000000000E+00 -0.20446832227E+03  0.20446832227E+03  0.00000000000E+00 0. -1.
         25    1    1    2    0    0  0.11823090283E+02 -0.34936750138E+02  0.28990397356E+03  0.31785165700E+03  0.12500000000E+03 0.  0.
         25    1    1    2    0    0  0.79137123931E+02  0.19491530430E+02 -0.10196730814E+03  0.18073443522E+03  0.12500000000E+03 0.  0.
         25    1    1    2    0    0 -0.90960214214E+02  0.15445219708E+02  0.73646088181E+02  0.17193330592E+03  0.12500000000E+03 0.  0.
</event>
<event>
 5    0  0.5952976E-005  0.3121879E+03  0.7546771E-02  0.1079302E+00
         21   -1    0    0  502  501  0.00000000000E+00  0.00000000000E+00  0.68468437002E+03  0.68468437002E+03  0.00000000000E+00 0.  1.
         21   -1    0    0  501  502 -0.00000000000E+00 -0.00000000000E+00 -0.14234480030E+03  0.14234480030E+03  0.00000000000E+00 0.  1.
         25    1    1    2    0    0  0.10816522834E+03 -0.78013407676E+02  0.16764956971E+03  0.24802658451E+03  0.12500000000E+03 0.  0.
         25    1    1    2    0    0 -0.12320393756E+03 -0.83436702494E+02  0.59655775518E+02  0.20328478818E+03  0.12500000000E+03 0.  0.
         25    1    1    2    0    0  0.15038709223E+02  0.16145011017E+03  0.31503422449E+03  0.37571779762E+03  0.12500000000E+03 0.  0.
</event>
<event>
 5    0  0.5597833E-005  0.3979380E+03  0.7546771E-02  0.1044496E+00
         21   -1    0    0  502  501  0.00000000000E+00  0.00000000000E+00  0.49877666814E+03  0.49877666814E+03  0.00000000000E+00 0.  1.
         21   -1    0    0  501  502 -0.00000000000E+00 -0.00000000000E+00 -0.31748603079E+03  0.31748603079E+03  0.00000000000E+00 0.  1.
         25    1    1    2    0    0 -0.67464084351E+02  0.10177325754E+02  0.37641042214E+02  0.14729843413E+03  0.12500000000E+03 0.  0.
         25    1    1    2    0    0  0.28458925041E+03 -0.98526771180E+02 -0.63364201460E+02  0.33217252764E+03  0.12500000000E+03 0.  0.
         25    1    1    2    0    0 -0.21712516606E+03  0.88349445426E+02  0.20701379659E+03  0.33679173717E+03  0.12500000000E+03 0.  0.
</event>
<event>
 5    0  0.5597833E-005  0.3930212E+03  0.7546771E-02  0.1046223E+00
         21   -1    0    0  502  501  0.00000000000E+00  0.00000000000E+00  0.34455019163E+03  0.34455019163E+03  0.00000000000E+00 0.  1.
         21   -1    0    0  501  502 -0.00000000000E+00 -0.00000000000E+00 -0.44831103744E+03  0.44831103744E+03  0.00000000000E+00 0.  1.
         25    1    1    2    0    0  0.74021171643E+02 -0.75340241585E+02  0.51520953926E+02  0.17156542352E+03  0.12500000000E+03 0.  0.
         25    1    1    2    0    0 -0.27991459415E+03  0.15892521696E+03 -0.68966730611E+02  0.35212329451E+03  0.12500000000E+03 0.  0.
         25    1    1    2    0    0  0.20589342251E+03 -0.83584975378E+02 -0.86315069126E+02  0.26917251104E+03  0.12500000000E+03 0.  0.
</event>
<event>
 5    0  0.5597833E-005  0.3051866E+03  0.7546771E-02  0.1082676E+00
         21   -1    0    0  502  501  0.00000000000E+00  0.00000000000E+00  0.10752571784E+03  0.10752571784E+03  0.00000000000E+00 0.  1.
         21   -1    0    0  501  502 -0.00000000000E+00 -0.00000000000E+00 -0.86620087819E+03  0.86620087819E+03  0.00000000000E+00 0.  1.
         25    1    1    2    0    0 -0.42646067832E+02  0.10091323045E+03 -0.53109806072E+02  0.17449303333E+03  0.12500000000E+03 0.  0.
         25    1    1    2    0    0 -0.62745903355E+02  0.46679104621E+02 -0.20665763258E+03  0.25386682394E+03  0.12500000000E+03 0.  0.
         25    1    1    2    0    0  0.10539197119E+03 -0.14759233507E+03 -0.49890772171E+03  0.54536673875E+03  0.12500000000E+03 0.  0.
</event>
<event>
 5    0  0.5597833E-005  0.2720463E+03  0.7546771E-02  0.1100114E+00
         21   -1    0    0  502  501  0.00000000000E+00  0.00000000000E+00  0.65021348914E+03  0.65021348914E+03  0.00000000000E+00 0. -1.
         21   -1    0    0  501  502 -0.00000000000E+00 -0.00000000000E+00 -0.11382291043E+03  0.11382291043E+03  0.00000000000E+00 0. -1.
         25    1    1    2    0    0 -0.99659332003E+02 -0.11047264427E+03  0.24547251721E+03  0.31307817601E+03  0.12500000000E+03 0.  0.
         25    1    1    2    0    0  0.82754561169E+02  0.37902602205E+02  0.25950782058E+03  0.30208315675E+03  0.12500000000E+03 0.  0.
         25    1    1    2    0    0  0.16904770834E+02  0.72570042068E+02  0.31410240915E+02  0.14887506681E+03  0.12500000000E+03 0.  0.
</event>
<event>
 5    0  0.5597833E-005  0.3504411E+03  0.7546771E-02  0.1062434E+00
         21   -1    0    0  502  501  0.00000000000E+00  0.00000000000E+00  0.31360204045E+02  0.31360204045E+02  0.00000000000E+00 0. -1.
         21   -1    0    0  501  502 -0.00000000000E+00 -0.00000000000E+00 -0.39160776563E+04  0.39160776563E+04  0.00000000000E+00 0. -1.
         25    1    1    2    0    0 -0.21095118158E+03 -0.69395326892E+02 -0.98156287823E+03  0.10141039376E+04  0.12500000000E+03 0.  0.
         25    1    1    2    0    0  0.65526714763E+02 -0.22334856779E+02 -0.47851721964E+03  0.49939596080E+03  0.12500000000E+03 0.  0.
         25    1    1    2    0    0  0.14542446681E+03  0.91730183671E+02 -0.24246373544E+04  0.24339379620E+04  0.12500000000E+03 0.  0.
</event>
<event>
 5    0  0.5597833E-005  0.2327287E+03  0.7546771E-02  0.1124734E+00
         21   -1    0    0  502  501  0.00000000000E+00  0.00000000000E+00  0.18213503372E+03  0.18213503372E+03  0.00000000000E+00 0. -1.
         21   -1    0    0  501  502 -0.00000000000E+00 -0.00000000000E+00 -0.29737629309E+03  0.29737629309E+03  0.00000000000E+00 0. -1.
         25    1    1    2    0    0  0.28238053756E+02  0.59711270628E+02 -0.17135729693E+02  0.14241297958E+03  0.12500000000E+03 0.  0.
         25    1    1    2    0    0 -0.10416977645E+03 -0.57870030510E+02 -0.28208888039E+02  0.17498863997E+03  0.12500000000E+03 0.  0.
         25    1    1    2    0    0  0.75931722689E+02 -0.18412401180E+01 -0.69896641635E+02  0.16210970726E+03  0.12500000000E+03 0.  0.
</event>
<event>
 5    0  0.5597833E-005  0.2613467E+03  0.7546771E-02  0.1106337E+00
         21   -1    0    0  502  501  0.00000000000E+00  0.00000000000E+00  0.35398285451E+02  0.35398285451E+02  0.00000000000E+00 0. -1.
         21   -1    0    0  501  502 -0.00000000000E+00 -0.00000000000E+00 -0.19295306259E+04  0.19295306259E+04  0.00000000000E+00 0. -1.
         25    1    1    2    0    0 -0.36141599693E+02  0.66186079072E+02 -0.27203303221E+03  0.30872930360E+03  0.12500000000E+03 0.  0.
         25    1    1    2    0    0 -0.31165100574E+02 -0.11814920644E+03 -0.68324103345E+03  0.70524733837E+03  0.12500000000E+03 0.  0.
         25    1    1    2    0    0  0.67306700267E+02  0.51963127364E+02 -0.93885827476E+03  0.95095226936E+03  0.12500000000E+03 0.  0.
</event>
<event>
 5    0  0.5738260E-005  0.3246449E+03  0.7546771E-02  0.1073531E+00
         21   -1    0    0  502  501  0.00000000000E+00  0.00000000000E+00  0.38273253156E+03  0.38273253156E+03  0.00000000000E+00 0.  1.
         21   -1    0    0  501  502 -0.00000000000E+00 -0.00000000000E+00 -0.27537328677E+03  0.27537328677E+03  0.00000000000E+00 0.  1.
         25    1    1    2    0    0 -0.10339270517E+03  0.17455349175E+03  0.15514541780E+03  0.28434850734E+03  0.12500000000E+03 0.  0.
         25    1    1    2    0    0 -0.25914611795E+02 -0.13126451535E+03 -0.45874291260E+02  0.18876278948E+03  0.12500000000E+03 0.  0.
         25    1    1    2    0    0  0.12930731696E+03 -0.43288976395E+02 -0.19118817403E+01  0.18499452151E+03  0.12500000000E+03 0.  0.
</event>
<event>
 5    0  0.5597833E-005  0.2919967E+03  0.7546771E-02  0.1089311E+00
         21   -1    0    0  502  501  0.00000000000E+00  0.00000000000E+00  0.55455219335E+02  0.55455219335E+02  0.00000000000E+00 0.  1.
         21   -1    0    0  501  502 -0.00000000000E+00 -0.00000000000E+00 -0.15374944685E+04  0.15374944685E+04  0.00000000000E+00 0.  1.
         25    1    1    2    0    0  0.31721671758E+02 -0.95595114304E+02 -0.35363770120E+03  0.38836749870E+03  0.12500000000E+03 0.  0.
         25    1    1    2    0    0  0.54648177755E+02  0.18992752756E+03 -0.75827134398E+03  0.79351075617E+03  0.12500000000E+03 0.  0.
         25    1    1    2    0    0 -0.86369849513E+02 -0.94332413256E+02 -0.37013020399E+03  0.41107143297E+03  0.12500000000E+03 0.  0.
</event>
<event>
 5    0  0.5597833E-005  0.2952499E+03  0.7546771E-02  0.1087640E+00
         21   -1    0    0  502  501  0.00000000000E+00  0.00000000000E+00  0.57051244473E+02  0.57051244473E+02  0.00000000000E+00 0.  1.
         21   -1    0    0  501  502 -0.00000000000E+00 -0.00000000000E+00 -0.15279683049E+04  0.15279683049E+04  0.00000000000E+00 0.  1.
         25    1    1    2    0    0  0.16451776770E+03 -0.18286269531E+02 -0.61788483993E+03  0.65177232141E+03  0.12500000000E+03 0.  0.
         25    1    1    2    0    0 -0.63622529811E+02  0.28234954012E+02 -0.13265183071E+03  0.19510650199E+03  0.12500000000E+03 0.  0.
         25    1    1    2    0    0 -0.10089523789E+03 -0.99486844813E+01 -0.72038038976E+03  0.73814072594E+03  0.12500000000E+03 0.  0.
</event>
<event>
 5    0  0.5597833E-005  0.2743677E+03  0.7546771E-02  0.1098806E+00
         21   -1    0    0  502  501  0.00000000000E+00  0.00000000000E+00  0.38493396445E+03  0.38493396445E+03  0.00000000000E+00 0. -1.
         21   -1    0    0  501  502 -0.00000000000E+00 -0.00000000000E+00 -0.19555989107E+03  0.19555989107E+03  0.00000000000E+00 0. -1.
         25    1    1    2    0    0 -0.20525789968E+01  0.15582642516E+02  0.18258237363E+03  0.22182956292E+03  0.12500000000E+03 0.  0.
         25    1    1    2    0    0  0.10363993251E+03  0.67089909369E+02 -0.14881011044E+02  0.17631998196E+03  0.12500000000E+03 0.  0.
         25    1    1    2    0    0 -0.10158735351E+03 -0.82672551885E+02  0.21672710804E+02  0.18234431064E+03  0.12500000000E+03 0.  0.
</event>
<event>
 5    0  0.5597833E-005  0.2538894E+03  0.7546771E-02  0.1110871E+00
         21   -1    0    0  502  501  0.00000000000E+00  0.00000000000E+00  0.95593500363E+02  0.95593500363E+02  0.00000000000E+00 0. -1.
         21   -1    0    0  501  502 -0.00000000000E+00 -0.00000000000E+00 -0.67431174113E+03  0.67431174113E+03  0.00000000000E+00 0. -1.
         25    1    1    2    0    0  0.41995213118E+02  0.67508689221E+02 -0.20591160111E+03  0.25366436194E+03  0.12500000000E+03 0.  0.
         25    1    1    2    0    0  0.19026892806E+02 -0.14114997553E+03 -0.26371435514E+03  0.32473927904E+03  0.12500000000E+03 0.  0.
         25    1    1    2    0    0 -0.61022105925E+02  0.73641286311E+02 -0.10909228452E+03  0.19150160052E+03  0.12500000000E+03 0.  0.
</event>
<event>
 5    0  0.5597833E-005  0.3115639E+03  0.7546771E-02  0.1079599E+00
         21   -1    0    0  502  501  0.00000000000E+00  0.00000000000E+00  0.13266016059E+04  0.13266016059E+04  0.00000000000E+00 0.  1.
         21   -1    0    0  501  502 -0.00000000000E+00 -0.00000000000E+00 -0.73173498976E+02  0.73173498976E+02  0.00000000000E+00 0.  1.
         25    1    1    2    0    0 -0.47837363098E+02  0.20479204313E+03  0.66886189847E+03  0.71220041664E+03  0.12500000000E+03 0.  0.
         25    1    1    2    0    0  0.25404883343E+02 -0.15470303940E+03  0.21689058034E+03  0.29537258224E+03  0.12500000000E+03 0.  0.
         25    1    1    2    0    0  0.22432479754E+02 -0.50089003730E+02  0.36767562813E+03  0.39220210601E+03  0.12500000000E+03 0.  0.
</event>
<event>
 5    0  0.5597833E-005  0.2165253E+03  0.7546771E-02  0.1136500E+00
         21   -1    0    0  502  501  0.00000000000E+00  0.00000000000E+00  0.21307701107E+03  0.21307701107E+03  0.00000000000E+00 0. -1.
         21   -1    0    0  501  502 -0.00000000000E+00 -0.00000000000E+00 -0.22002948741E+03  0.22002948741E+03  0.00000000000E+00 0. -1.
         25    1    1    2    0    0 -0.18007886006E+00 -0.98712115984E+02  0.59869134561E+01  0.15938932650E+03  0.12500000000E+03 0.  0.
         25    1    1    2    0    0  0.14762519029E+02  0.69184168650E+02  0.15871689009E+01  0.14363808779E+03  0.12500000000E+03 0.  0.
         25    1    1    2    0    0 -0.14582440169E+02  0.29527947334E+02 -0.14526558694E+02  0.13007908419E+03  0.12500000000E+03 0.  0.
</event>
<event>
 5    0  0.5597833E-005  0.3689964E+03  0.7546771E-02  0.1055077E+00
         21   -1    0    0  502  501  0.00000000000E+00  0.00000000000E+00  0.19537041789E+03  0.19537041789E+03  0.00000000000E+00 0. -1.
         21   -1    0    0  501  502 -0.00000000000E+00 -0.00000000000E+00 -0.69692413415E+03  0.69692413415E+03  0.00000000000E+00 0. -1.
         25    1    1    2    0    0 -0.47323278593E+02 -0.10784432697E+03 -0.19564676776E+03  0.26033161408E+03  0.12500000000E+03 0.  0.
         25    1    1    2    0    0  0.11418462004E+03 -0.12608983752E+03 -0.28902787211E+03  0.35790904632E+03  0.12500000000E+03 0.  0.
         25    1    1    2    0    0 -0.66861341451E+02  0.23393416450E+03 -0.16879076379E+02  0.27405389163E+03  0.12500000000E+03 0.  0.
</event>
<event>
 5    0  0.5597833E-005  0.3295906E+03  0.7546771E-02  0.1071318E+00
         21   -1    0    0  502  501  0.00000000000E+00  0.00000000000E+00  0.73850944061E+03  0.73850944061E+03  0.00000000000E+00 0.  1.
         21   -1    0    0  501  502 -0.00000000000E+00 -0.00000000000E+00 -0.14709351962E+03  0.14709351962E+03  0.00000000000E+00 0.  1.
         25    1    1    2    0    0  0.19258513451E+03 -0.50309090765E+02  0.64708940234E+02  0.24378737784E+03  0.12500000000E+03 0.  0.
         25    1    1    2    0    0 -0.17911830710E+03  0.56180087361E+02  0.24348757383E+03  0.33188969367E+03  0.12500000000E+03 0.  0.
         25    1    1    2    0    0 -0.13466827412E+02 -0.58709965968E+01  0.28321940692E+03  0.30992588872E+03  0.12500000000E+03 0.  0.
</event>
<event>
 5    0  0.5597833E-005  0.3546603E+03  0.7546771E-02  0.1060718E+00
         21   -1    0    0  502  501  0.00000000000E+00  0.00000000000E+00  0.22005227526E+03  0.22005227526E+03  0.00000000000E+00 0.  1.
         21   -1    0    0  501  502 -0.00000000000E+00 -0.00000000000E+00 -0.57160931671E+03  0.57160931671E+03  0.00000000000E+00 0.  1.
         25    1    1    2    0    0 -0.14802163111E+03 -0.49463324128E+02  0.72152569323E+02  0.21257473267E+03  0.12500000000E+03 0.  0.
         25    1    1    2    0    0  0.16070463723E+02 -0.80237364893E+02 -0.80708230088E+02  0.16980904844E+03  0.12500000000E+03 0.  0.
         25    1    1    2    0    0  0.13195116738E+03  0.12970068902E+03 -0.34300138068E+03  0.40927781085E+03  0.12500000000E+03 0.  0.
</event>
<event>
 5    0  0.5597833E-005  0.3594190E+03  0.7546771E-02  0.1058814E+00
         21   -1    0    0  502  501  0.00000000000E+00  0.00000000000E+00  0.53619712252E+03  0.53619712252E+03  0.00000000000E+00 0. -1.
         21   -1    0    0  501  502 -0.00000000000E+00 -0.00000000000E+00 -0.24092259411E+03  0.24092259411E+03  0.00000000000E+00 0. -1.
         25    1    1    2    0    0 -0.23751199153E+03  0.94463403435E+02  0.71566302590E+02  0.29339736941E+03  0.12500000000E+03 0.  0.
         25    1    1    2    0    0  0.10625623932E+03 -0.15056535205E+03  0.18629843014E+03  0.29033156684E+03  0.12500000000E+03 0.  0.
         25    1    1    2    0    0  0.13125575221E+03  0.56101948614E+02  0.37409795682E+02  0.19339078039E+03  0.12500000000E+03 0.  0.
</event>
<event>
 5    0  0.5597833E-005  0.3727558E+03  0.7546771E-02  0.1053644E+00
         21   -1    0    0  502  501  0.00000000000E+00  0.00000000000E+00  0.11688985175E+03  0.11688985175E+03  0.00000000000E+00 0. -1.
         21   -1    0    0  501  502 -0.00000000000E+00 -0.00000000000E+00 -0.11886992039E+04  0.11886992039E+04  0.00000000000E+00 0. -1.
         25    1    1    2    0    0  0.75296206462E+02 -0.12845613814E+03 -0.21852709616E+03  0.29248861498E+03  0.12500000000E+03 0.  0.
         25    1    1    2    0    0  0.15918783182E+03  0.47474823515E+02 -0.14831203112E+03  0.25537439817E+03  0.12500000000E+03 0.  0.
         25    1    1    2    0    0 -0.23448403828E+03  0.80981314627E+02 -0.70497022483E+03  0.75772604246E+03  0.12500000000E+03 0.  0.
</event>
<event>
 5    0  0.5597833E-005  0.2584749E+03  0.7546771E-02  0.1108063E+00
         21   -1    0    0  502  501  0.00000000000E+00  0.00000000000E+00  0.65021450598E+03  0.65021450598E+03  0.00000000000E+00 0. -1.
         21   -1    0    0  501  502 -0.00000000000E+00 -0.00000000000E+00 -0.10274962652E+03  0.10274962652E+03  0.00000000000E+00 0. -1.
         25    1    1    2    0    0 -0.68613200422E+02  0.53149487857E+02  0.83139433506E+02  0.17340647259E+03  0.12500000000E+03 0.  0.
         25    1    1    2    0    0  0.17945709208E+01 -0.13408008741E+03  0.25748343876E+03  0.31607500939E+03  0.12500000000E+03 0.  0.
         25    1    1    2    0    0  0.66818629501E+02  0.80930599549E+02  0.20684200719E+03  0.26348265053E+03  0.12500000000E+03 0.  0.
</event>
<event>
 5    0  0.5597833E-005  0.2531339E+03  0.7546771E-02  0.1111340E+00
         21   -1    0    0  502  501  0.00000000000E+00  0.00000000000E+00  0.78230497816E+03  0.78230497816E+03  0.00000000000E+00 0. -1.
         21   -1    0    0  501  502 -0.00000000000E+00 -0.00000000000E+00 -0.81907642302E+02  0.81907642302E+02  0.00000000000E+00 0. -1.
         25    1    1    2    0    0 -0.37055827648E+02  0.60124777061E+02  0.19912365381E+03  0.24548595212E+03  0.12500000000E+03 0.  0.
         25    1    1    2    0    0 -0.50709488454E+02  0.65594726653E+02  0.13201676464E+03  0.19981878423E+03  0.12500000000E+03 0.  0.
         25    1    1    2    0    0  0.87765316102E+02 -0.12571950371E+03  0.36925691741E+03  0.41890788412E+03  0.12500000000E+03 0.  0.
</event>
<event>
 5    0  0.5597833E-005  0.4368533E+03  0.7546771E-02  0.1031717E+00
         21   -1    0    0  502  501  0.00000000000E+00  0.00000000000E+00  0.39486306318E+03  0.39486306318E+03  0.00000000000E+00 0. -1.
         21   -1    0    0  501  502 -0.00000000000E+00 -0.00000000000E+00 -0.48330883510E+03  0.48330883510E+03  0.00000000000E+00 0. -1.
         25    1    1    2    0    0 -0.21270563115E+03  0.10000114512E+02 -0.32194474081E+03  0.40573033403E+03  0.12500000000E+03 0.  0.
         25    1    1    2    0    0  0.25821805222E+02  0.13588916601E+02  0.20870315383E+03  0.24501720490E+03  0.12500000000E+03 0.  0.
         25    1    1    2    0    0  0.18688382592E+03 -0.23589031113E+02  0.24795815060E+02  0.22742435935E+03  0.12500000000E+03 0.  0.
</event>
<event>
 5    0  0.6211126E-005  0.4111877E+03  0.7546771E-02  0.1039973E+00
         21   -1    0    0  502  501  0.00000000000E+00  0.00000000000E+00  0.32513102052E+03  0.32513102052E+03  0.00000000000E+00 0. -1.
         21   -1    0    0  501  502 -0.00000000000E+00 -0.00000000000E+00 -0.52002219370E+03  0.52002219370E+03  0.00000000000E+00 0. -1.
         25    1    1    2    0    0 -0.76523413510E+02 -0.10274682743E+03 -0.22868345602E+03  0.29040293804E+03  0.12500000000E+03 0.  0.
         25    1    1    2    0    0 -0.68648115118E+02  0.21392228047E+03 -0.12137737215E+03  0.28431104843E+03  0.12500000000E+03 0.  0.
         25    1    1    2    0    0  0.14517152863E+03 -0.11117545304E+03  0.15516965498E+03  0.27043922776E+03  0.12500000000E+03 0.  0.
</event>
<event>
 5    0  0.5597833E-005  0.3167369E+03  0.7546771E-02  0.1077161E+00
         21   -1    0    0  502  501  0.00000000000E+00  0.00000000000E+00  0.68096785365E+03  0.68096785365E+03  0.00000000000E+00 0.  1.
         21   -1    0    0  501  502 -0.00000000000E+00 -0.00000000000E+00 -0.14732304277E+03  0.14732304277E+03  0.00000000000E+00 0.  1.
         25    1    1    2    0    0  0.15630632477E+03 -0.15008716889E+03  0.21952404321E+03  0.33282672816E+03  0.12500000000E+03 0.  0.
         25    1    1    2    0    0 -0.79727994370E+02  0.14087091174E+03  0.81086989187E+02  0.22000287879E+03  0.12500000000E+03 0.  0.
         25    1    1    2    0    0 -0.76578330399E+02  0.92162571555E+01  0.23303377849E+03  0.27546128947E+03  0.12500000000E+03 0.  0.
</event>
<event>
 5    0  0.5597833E-005  0.6482556E+03  0.7546771E-02  0.9810058E-01
         21   -1    0    0  502  501  0.00000000000E+00  0.00000000000E+00  0.33581723821E+03  0.33581723821E+03  0.00000000000E+00 0. -1.
         21   -1    0    0  501  502 -0.00000000000E+00 -0.00000000000E+00 -0.12513808776E+04  0.12513808776E+04  0.00000000000E+00 0. -1.
         25    1    1    2    0    0 -0.31494070898E+03 -0.38525495544E+03 -0.64402676367E+03  0.82341028849E+03  0.12500000000E+03 0.  0.
         25    1    1    2    0    0  0.28570674387E+03  0.57842940664E+02 -0.26296047307E+03  0.41200407726E+03  0.12500000000E+03 0.  0.
         25    1    1    2    0    0  0.29233965105E+02  0.32741201478E+03 -0.85764026556E+01  0.35178375008E+03  0.12500000000E+03 0.  0.
</event>
<event>
 5    0  0.5597833E-005  0.3254258E+03  0.7546771E-02  0.1073179E+00
         21   -1    0    0  502  501  0.00000000000E+00  0.00000000000E+00  0.10177359329E+04  0.10177359329E+04  0.00000000000E+00 0.  1.
         21   -1    0    0  501  502 -0.00000000000E+00 -0.00000000000E+00 -0.10405643122E+03  0.10405643122E+03  0.00000000000E+00 0.  1.
         25    1    1    2    0    0  0.60113658818E+02 -0.89026150500E+02  0.53424189221E+02  0.17325833730E+03  0.12500000000E+03 0.  0.
         25    1    1    2    0    0 -0.12711221637E+03  0.14895702246E+03  0.63070512122E+03  0.67213068672E+03  0.12500000000E+03 0.  0.
         25    1    1    2    0    0  0.66998557553E+02 -0.59930871960E+02  0.22955019123E+03  0.27640334011E+03  0.12500000000E+03 0.  0.
</event>
<event>
 5    0  0.5597833E-005  0.3777983E+03  0.7546771E-02  0.1051751E+00
         21   -1    0    0  502  501  0.00000000000E+00  0.00000000000E+00  0.35330589936E+03  0.35330589936E+03  0.00000000000E+00 0.  1.
         21   -1    0    0  501  502 -0.00000000000E+00 -0.00000000000E+00 -0.40398855430E+03  0.40398855430E+03  0.00000000000E+00 0.  1.
         25    1    1    2    0    0  0.24474963800E+03 -0.51183594977E+02 -0.21415336730E+03  0.35214884697E+03  0.12500000000E+03 0.  0.
         25    1    1    2    0    0 -0.17570780424E+03 -0.66145735315E+01  0.10931466616E+03  0.24185053503E+03  0.12500000000E+03 0.  0.
         25    1    1    2    0    0 -0.69041833758E+02  0.57798168508E+02  0.54156046198E+02  0.16329507167E+03  0.12500000000E+03 0.  0.
</event>
<event>
 5    0  0.5597833E-005  0.2702070E+03  0.7546771E-02  0.1101161E+00
         21   -1    0    0  502  501  0.00000000000E+00  0.00000000000E+00  0.19806349529E+03  0.19806349529E+03  0.00000000000E+00 0.  1.
         21   -1    0    0  501  502 -0.00000000000E+00 -0.00000000000E+00 -0.36862847945E+03  0.36862847945E+03  0.00000000000E+00 0.  1.
         25    1    1    2    0    0 -0.24340185492E+02  0.30352368669E+02 -0.92415227806E+01  0.13124068217E+03  0.12500000000E+03 0.  0.
         25    1    1    2    0    0 -0.10662639328E+02 -0.15676018401E+03 -0.12832505333E+02  0.20118926502E+03  0.12500000000E+03 0.  0.
         25    1    1    2    0    0  0.35002824819E+02  0.12640781534E+03 -0.14849095604E+03  0.23426202755E+03  0.12500000000E+03 0.  0.
</event>
<event>
 5    0  0.5597833E-005  0.2815144E+03  0.7546771E-02  0.1094865E+00
         21   -1    0    0  502  501  0.00000000000E+00  0.00000000000E+00  0.23634811596E+03  0.23634811596E+03  0.00000000000E+00 0. -1.
         21   -1    0    0  501  502 -0.00000000000E+00 -0.00000000000E+00 -0.33531203574E+03  0.33531203574E+03  0.00000000000E+00 0. -1.
         25    1    1    2    0    0 -0.10149817785E+03  0.13643426619E+03 -0.73857633789E+02  0.22359816450E+03  0.12500000000E+03 0.  0.
         25    1    1    2    0    0 -0.37428771228E+02 -0.44381182604E+02 -0.22970764807E+02  0.13972565377E+03  0.12500000000E+03 0.  0.
         25    1    1    2    0    0  0.13892694908E+03 -0.92053083590E+02 -0.21355211902E+01  0.20833633343E+03  0.12500000000E+03 0.  0.
</event>
<event>
 5    0  0.5597833E-005  0.2822065E+03  0.7546771E-02  0.1094490E+00
         21   -1    0    0  502  501  0.00000000000E+00  0.00000000000E+00  0.12293076613E+04  0.12293076613E+04  0.00000000000E+00 0. -1.
         21   -1    0    0  501  502 -0.00000000000E+00 -0.00000000000E+00 -0.64784830812E+02  0.64784830812E+02  0.00000000000E+00 0. -1.
         25    1    1    2    0    0 -0.33984369311E+02  0.34372022411E+02  0.89305306260E+03  0.90305323537E+03  0.12500000000E+03 0.  0.
         25    1    1    2    0    0 -0.38012691687E+01 -0.66213480654E+01  0.20899132387E+03  0.24364044276E+03  0.12500000000E+03 0.  0.
         25    1    1    2    0    0  0.37785638480E+02 -0.27750674345E+02  0.62478444049E+02  0.14739881401E+03  0.12500000000E+03 0.  0.
</event>
<event>
 5    0  0.5597833E-005  0.2706399E+03  0.7546771E-02  0.1100914E+00
         21   -1    0    0  502  501  0.00000000000E+00  0.00000000000E+00  0.70567054888E+03  0.70567054888E+03  0.00000000000E+00 0.  1.
         21   -1    0    0  501  502 -0.00000000000E+00 -0.00000000000E+00 -0.10379621692E+03  0.10379621692E+03  0.00000000000E+00 0.  1.
         25    1    1    2    0    0 -0.43454560197E+02  0.66768509534E+02  0.26123796774E+03  0.30036079714E+03  0.12500000000E+03 0.  0.
         25    1    1    2    0    0  0.12064378497E+03 -0.87650495489E+02  0.29585300491E+03  0.35410666857E+03  0.12500000000E+03 0.  0.
         25    1    1    2    0    0 -0.77189224773E+02  0.20881985955E+02  0.44783359313E+02  0.15499930009E+03  0.12500000000E+03 0.  0.
</event>
<event>
 5    0  0.5597833E-005  0.3891013E+03  0.7546771E-02  0.1047620E+00
         21   -1    0    0  502  501  0.00000000000E+00  0.00000000000E+00  0.20601006207E+03  0.20601006207E+03  0.00000000000E+00 0. -1.
         21   -1    0    0  501  502 -0.00000000000E+00 -0.00000000000E+00 -0.73491453159E+03  0.73491453159E+03  0.00000000000E+00 0. -1.
         25    1    1    2    0    0  0.16599357404E+03 -0.11255623703E+02 -0.22684261200E+02  0.20933258560E+03  0.12500000000E+03 0.  0.
         25    1    1    2    0    0  0.61588956393E+02  0.74860308642E+02 -0.42300044748E+03  0.45161005738E+03  0.12500000000E+03 0.  0.
         25    1    1    2    0    0 -0.22758253044E+03 -0.63604684939E+02 -0.83219760843E+02  0.27998195067E+03  0.12500000000E+03 0.  0.
</event>
<event>
 5    0  0.5597833E-005  0.2625037E+03  0.7546771E-02  0.1105648E+00
         21   -1    0    0  502  501  0.00000000000E+00  0.00000000000E+00  0.33806016373E+03  0.33806016373E+03  0.00000000000E+00 0. -1.
         21   -1    0    0  501  502 -0.00000000000E+00 -0.00000000000E+00 -0.20383415454E+03  0.20383415454E+03  0.00000000000E+00 0. -1.
         25    1    1    2    0    0  0.89251216281E+02 -0.22664879782E+01  0.13700843277E+02  0.15421942057E+03  0.12500000000E+03 0.  0.
         25    1    1    2    0    0 -0.70830926230E+02  0.22053882376E+02  0.19227301891E+03  0.24103383090E+03  0.12500000000E+03 0.  0.
         25    1    1    2    0    0 -0.18420290051E+02 -0.19787394397E+02 -0.71747852993E+02  0.14664106680E+03  0.12500000000E+03 0.  0.
</event>
<event>
 5    0  0.5597833E-005  0.2720865E+03  0.7546771E-02  0.1100091E+00
         21   -1    0    0  502  501  0.00000000000E+00  0.00000000000E+00  0.31092572910E+03  0.31092572910E+03  0.00000000000E+00 0.  1.
         21   -1    0    0  501  502 -0.00000000000E+00 -0.00000000000E+00 -0.23809886925E+03  0.23809886925E+03  0.00000000000E+00 0.  1.
         25    1    1    2    0    0  0.62655765573E+02 -0.13559474636E+02 -0.86027813102E+02  0.16472822751E+03  0.12500000000E+03 0.  0.
         25    1    1    2    0    0  0.96676384166E+01 -0.17973925224E+02  0.19462934162E+03  0.23221133874E+03  0.12500000000E+03 0.  0.
         25    1    1    2    0    0 -0.72323403989E+02  0.31533399860E+02 -0.35774668661E+02  0.15208503210E+03  0.12500000000E+03 0.  0.
</event>
<event>
 5    0  0.5597833E-005  0.3434910E+03  0.7546771E-02  0.1065319E+00
         21   -1    0    0  502  501  0.00000000000E+00  0.00000000000E+00  0.97339435981E+03  0.97339435981E+03  0.00000000000E+00 0.  1.
         21   -1    0    0  501  502 -0.00000000000E+00 -0.00000000000E+00 -0.12121095615E+03  0.12121095615E+03  0.00000000000E+00 0.  1.
         25    1    1    2    0    0  0.89960691599E+01  0.19668244441E+03  0.42351887084E+03  0.48348541566E+03  0.12500000000E+03 0.  0.
         25    1    1    2    0    0  0.12609803445E+03 -0.11835237987E+03  0.31672639695E+03  0.38190131008E+03  0.12500000000E+03 0.  0.
         25    1    1    2    0    0 -0.13509410361E+03 -0.78330064543E+02  0.11193813587E+03  0.22921859022E+03  0.12500000000E+03 0.  0.
</event>
<event>
 5    0  0.5597833E-005  0.6295722E+03  0.7546771E-02  0.9845884E-01
         21   -1    0    0  502  501  0.00000000000E+00  0.00000000000E+00  0.33008994244E+03  0.33008994244E+03  0.00000000000E+00 0. -1.
         21   -1    0    0  501  502 -0.00000000000E+00 -0.00000000000E+00 -0.12007672046E+04  0.12007672046E+04  0.00000000000E+00 0. -1.
         25    1    1    2    0    0 -0.74331993039E+02 -0.26069595968E+03 -0.44511774280E+03  0.53595002896E+03  0.12500000000E+03 0.  0.
         25    1    1    2    0    0 -0.18975453444E+03  0.41997413640E+03 -0.30649540671E+02  0.47848662775E+03  0.12500000000E+03 0.  0.
         25    1    1    2    0    0  0.26408652748E+03 -0.15927817672E+03 -0.39490997871E+03  0.51642049035E+03  0.12500000000E+03 0.  0.
</event>
<event>
 5    0  0.5597833E-005  0.2473180E+03  0.7546771E-02  0.1115012E+00
         21   -1    0    0  502  501  0.00000000000E+00  0.00000000000E+00  0.23725407718E+04  0.23725407718E+04  0.00000000000E+00 0. -1.
         21   -1    0    0  501  502 -0.00000000000E+00 -0.00000000000E+00 -0.25780877803E+02  0.25780877803E+02  0.00000000000E+00 0. -1.
         25    1    1    2    0    0 -0.79631730953E+02  0.12536594425E+02  0.55805419349E+03  0.57753602628E+03  0.12500000000E+03 0.  0.
         25    1    1    2    0    0 -0.67437577271E+02 -0.28712772770E+02  0.85638768131E+03  0.86856036684E+03  0.12500000000E+03 0.  0.
         25    1    1    2    0    0  0.14706930822E+03  0.16176178345E+02  0.93231801915E+03  0.95222525644E+03  0.12500000000E+03 0.  0.
</event>
<event>
 5    0  0.5597833E-005  0.3418864E+03  0.7546771E-02  0.1065995E+00
         21   -1    0    0  502  501  0.00000000000E+00  0.00000000000E+00  0.38513871640E+03  0.38513871640E+03  0.00000000000E+00 0.  1.
         21   -1    0    0  501  502 -0.00000000000E+00 -0.00000000000E+00 -0.30349153272E+03  0.30349153272E+03  0.00000000000E+00 0.  1.
         25    1    1    2    0    0 -0.38917452611E+02 -0.10160767187E+02 -0.50097291617E+02  0.14054375808E+03  0.12500000000E+03 0.  0.
         25    1    1    2    0    0  0.11065402486E+03  0.12619706426E+03 -0.11568982778E+03  0.23912161863E+03  0.12500000000E+03 0.  0.
         25    1    1    2    0    0 -0.71736572247E+02 -0.11603629708E+03  0.24743430308E+03  0.30896487240E+03  0.12500000000E+03 0.  0.
</event>
<event>
 5    0  0.5597833E-005  0.2384375E+03  0.7546771E-02  0.1120838E+00
         21   -1    0    0  502  501  0.00000000000E+00  0.00000000000E+00  0.55758279684E+03  0.55758279684E+03  0.00000000000E+00 0.  1.
         21   -1    0    0  501  502 -0.00000000000E+00 -0.00000000000E+00 -0.10196232661E+03  0.10196232661E+03  0.00000000000E+00 0.  1.
         25    1    1    2    0    0 -0.26736774729E+02 -0.74562381760E+02  0.58844002914E+02  0.15925457788E+03  0.12500000000E+03 0.  0.
         25    1    1    2    0    0  0.77985008095E+02 -0.56995990516E+01  0.18437516464E+03  0.23607911439E+03  0.12500000000E+03 0.  0.
         25    1    1    2    0    0 -0.51248233366E+02  0.80261980812E+02  0.21240130267E+03  0.26421143118E+03  0.12500000000E+03 0.  0.
</event>
<event>
 5    0  0.5597833E-005  0.2906641E+03  0.7546771E-02  0.1090003E+00
         21   -1    0    0  502  501  0.00000000000E+00  0.00000000000E+00  0.23049628637E+03  0.23049628637E+03  0.00000000000E+00 0. -1.
         21   -1    0    0  501  502 -0.00000000000E+00 -0.00000000000E+00 -0.36653780384E+03  0.36653780384E+03  0.00000000000E+00 0. -1.
         25    1    1    2    0    0 -0.37933670830E+01 -0.82120811651E+02  0.64298782283E+01  0.14974832445E+03  0.12500000000E+03 0.  0.
         25    1    1    2    0    0 -0.19782700233E+02 -0.96756798394E+02  0.37246631465E+02  0.16360178734E+03  0.12500000000E+03 0.  0.
         25    1    1    2    0    0  0.23576067316E+02  0.17887761005E+03 -0.17971802717E+03  0.28368397842E+03  0.12500000000E+03 0.  0.
</event>
<event>
 5    0  0.5597833E-005  0.3519565E+03  0.7546771E-02  0.1061815E+00
         21   -1    0    0  502  501  0.00000000000E+00  0.00000000000E+00  0.84816672583E+03  0.84816672583E+03  0.00000000000E+00 0.  1.
         21   -1    0    0  501  502 -0.00000000000E+00 -0.00000000000E+00 -0.14604838146E+03  0.14604838146E+03  0.00000000000E+00 0.  1.
         25    1    1    2    0    0 -0.67297294278E+02 -0.19993408633E+03  0.24520536204E+03  0.34677548106E+03  0.12500000000E+03 0.  0.
         25    1    1    2    0    0  0.30493098077E+00 -0.62424811509E+02  0.62755748688E+02  0.15316734008E+03  0.12500000000E+03 0.  0.
         25    1    1    2    0    0  0.66992363297E+02  0.26235889784E+03  0.39415723364E+03  0.49427228614E+03  0.12500000000E+03 0.  0.
</event>
<event>
 5    0  0.5597833E-005  0.2823892E+03  0.7546771E-02  0.1094391E+00
         21   -1    0    0  502  501  0.00000000000E+00  0.00000000000E+00  0.21486559243E+03  0.21486559243E+03  0.00000000000E+00 0.  1.
         21   -1    0    0  501  502 -0.00000000000E+00 -0.00000000000E+00 -0.37113264782E+03  0.37113264782E+03  0.00000000000E+00 0.  1.
         25    1    1    2    0    0  0.71121008767E+02  0.12873776329E+03 -0.97722558675E+02  0.21634765555E+03  0.12500000000E+03 0.  0.
         25    1    1    2    0    0  0.24113634986E+02 -0.19524807104E+02  0.62557849845E+02  0.14318229661E+03  0.12500000000E+03 0.  0.
         25    1    1    2    0    0 -0.95234643754E+02 -0.10921295619E+03 -0.12110234657E+03  0.22646828810E+03  0.12500000000E+03 0.  0.
</event>
<event>
 5    0  0.5597833E-005  0.2836357E+03  0.7546771E-02  0.1093720E+00
         21   -1    0    0  502  501  0.00000000000E+00  0.00000000000E+00  0.12156041512E+03  0.12156041512E+03  0.00000000000E+00 0. -1.
         21   -1    0    0  501  502 -0.00000000000E+00 -0.00000000000E+00 -0.66180413757E+03  0.66180413757E+03  0.00000000000E+00 0. -1.
         25    1    1    2    0    0  0.11524769288E+03  0.45676256780E+02 -0.39094556800E+02  0.18033783718E+03  0.12500000000E+03 0.  0.
         25    1    1    2    0    0 -0.10911406001E+03 -0.10329153766E+03 -0.32713421710E+03  0.38107324209E+03  0.12500000000E+03 0.  0.
         25    1    1    2    0    0 -0.61336328621E+01  0.57615280880E+02 -0.17401494856E+03  0.22195347342E+03  0.12500000000E+03 0.  0.
</event>
<event>
 5    0  0.5597833E-005  0.3408442E+03  0.7546771E-02  0.1066437E+00
         21   -1    0    0  502  501  0.00000000000E+00  0.00000000000E+00  0.71774719260E+02  0.71774719260E+02  0.00000000000E+00 0.  1.
         21   -1    0    0  501  502 -0.00000000000E+00 -0.00000000000E+00 -0.16186025123E+04  0.16186025123E+04  0.00000000000E+00 0.  1.
         25    1    1    2    0    0 -0.60654707612E+02  0.94431333782E+02 -0.57677394132E+03  0.60074075085E+03  0.12500000000E+03 0.  0.
         25    1    1    2    0    0 -0.60129176097E+02  0.18317209119E+01 -0.84177509963E+03  0.85312905903E+03  0.12500000000E+03 0.  0.
         25    1    1    2    0    0  0.12078388371E+03 -0.96263054694E+02 -0.12827875209E+03  0.23650742166E+03  0.12500000000E+03 0.  0.
</event>
<event>
 5    0  0.5597833E-005  0.2202379E+03  0.7546771E-02  0.1133706E+00
         21   -1    0    0  502  501  0.00000000000E+00  0.00000000000E+00  0.18669731913E+04  0.18669731913E+04  0.00000000000E+00 0. -1.
         21   -1    0    0  501  502 -0.00000000000E+00 -0.00000000000E+00 -0.25980414068E+02  0.25980414068E+02  0.00000000000E+00 0. -1.
         25    1    1    2    0    0 -0.32483172085E+02 -0.38548904177E+02  0.10612596012E+04  0.10697841444E+04  0.12500000000E+03 0.  0.
         25    1    1    2    0    0  0.19671925817E+02 -0.92702081415E+01  0.32184358605E+03  0.34594972945E+03  0.12500000000E+03 0.  0.
         25    1    1    2    0    0  0.12811246268E+02  0.47819112318E+02  0.45788959003E+03  0.47721973156E+03  0.12500000000E+03 0.  0.
</event>
<event>
 5    0  0.5597833E-005  0.3256497E+03  0.7546771E-02  0.1073078E+00
         21   -1    0    0  502  501  0.00000000000E+00  0.00000000000E+00  0.11054315883E+03  0.11054315883E+03  0.00000000000E+00 0. -1.
         21   -1    0    0  501  502 -0.00000000000E+00 -0.00000000000E+00 -0.95933349165E+03  0.95933349165E+03  0.00000000000E+00 0. -1.
         25    1    1    2    0    0  0.16105749854E+03 -0.63506832444E+02 -0.34232879285E+03  0.40346826147E+03  0.12500000000E+03 0.  0.
         25    1    1    2    0    0 -0.35121469769E+02 -0.91019565207E+02 -0.76003057286E+02  0.17583953937E+03  0.12500000000E+03 0.  0.
         25    1    1    2    0    0 -0.12593602877E+03  0.15452639765E+03 -0.43045848268E+03  0.49056884963E+03  0.12500000000E+03 0.  0.
</event>
<event>
 5    0  0.5597833E-005  0.3019481E+03  0.7546771E-02  0.1084271E+00
         21   -1    0    0  502  501  0.00000000000E+00  0.00000000000E+00  0.18004633148E+03  0.18004633148E+03  0.00000000000E+00 0.  1.
         21   -1    0    0  501  502 -0.00000000000E+00 -0.00000000000E+00 -0.50638430022E+03  0.50638430022E+03  0.00000000000E+00 0.  1.
         25    1    1    2    0    0 -0.62429156727E+02  0.14086945736E+02  0.36432756872E+02  0.14507993460E+03  0.12500000000E+03 0.  0.
         25    1    1    2    0    0  0.14108560710E+03 -0.11469354248E+03 -0.17038629006E+03  0.27877633518E+03  0.12500000000E+03 0.  0.
         25    1    1    2    0    0 -0.78656450369E+02  0.10060659675E+03 -0.19238443556E+03  0.26257436192E+03  0.12500000000E+03 0.  0.
</event>
<event>
 5    0  0.5597833E-005  0.3017922E+03  0.7546771E-02  0.1084348E+00
         21   -1    0    0  502  501  0.00000000000E+00  0.00000000000E+00  0.11475354895E+03  0.11475354895E+03  0.00000000000E+00 0.  1.
         21   -1    0    0  501  502 -0.00000000000E+00 -0.00000000000E+00 -0.79368811157E+03  0.79368811157E+03  0.00000000000E+00 0.  1.
         25    1    1    2    0    0 -0.11024362707E+02 -0.98914063529E+02 -0.44627803751E+03  0.47401963598E+03  0.12500000000E+03 0.  0.
         25    1    1    2    0    0 -0.83082827854E+02  0.10705542960E+03 -0.44650258151E+02  0.18968992289E+03  0.12500000000E+03 0.  0.
         25    1    1    2    0    0  0.94107190561E+02 -0.81413660755E+01 -0.18800626697E+03  0.24473210165E+03  0.12500000000E+03 0.  0.
</event>
<event>
 5    0  0.5597833E-005  0.2785732E+03  0.7546771E-02  0.1096471E+00
         21   -1    0    0  502  501  0.00000000000E+00  0.00000000000E+00  0.98661801932E+03  0.98661801932E+03  0.00000000000E+00 0. -1.
         21   -1    0    0  501  502 -0.00000000000E+00 -0.00000000000E+00 -0.78655573583E+02  0.78655573583E+02  0.00000000000E+00 0. -1.
         25    1    1    2    0    0  0.10188333315E+02 -0.40186883543E+02  0.11623127119E+03  0.17565163292E+03  0.12500000000E+03 0.  0.
         25    1    1    2    0    0 -0.58357628694E+02 -0.86818610882E+02  0.60686200997E+03  0.62837057790E+03  0.12500000000E+03 0.  0.
         25    1    1    2    0    0  0.48169295378E+02  0.12700549442E+03  0.18486916458E+03  0.26125138209E+03  0.12500000000E+03 0.  0.
</event>
<event>
 5    0  0.5597833E-005  0.4889367E+03  0.7546771E-02  0.1016708E+00
         21   -1    0    0  502  501  0.00000000000E+00  0.00000000000E+00  0.37020758814E+03  0.37020758814E+03  0.00000000000E+00 0. -1.
         21   -1    0    0  501  502 -0.00000000000E+00 -0.00000000000E+00 -0.64574325761E+03  0.64574325761E+03  0.00000000000E+00 0. -1.
         25    1    1    2    0    0  0.34040743317E+03  0.19865546067E+03  0.25279313434E+02  0.41425264791E+03  0.12500000000E+03 0.  0.
         25    1    1    2    0    0 -0.84032794137E+02 -0.74444323756E+02 -0.22621273522E+03  0.28178124388E+03  0.12500000000E+03 0.  0.
         25    1    1    2    0    0 -0.25637463903E+03 -0.12421113692E+03 -0.74602247695E+02  0.31991695396E+03  0.12500000000E+03 0.  0.
</event>
<event>
 5    0  0.5597833E-005  0.2642685E+03  0.7546771E-02  0.1104605E+00
         21   -1    0    0  502  501  0.00000000000E+00  0.00000000000E+00  0.23788780802E+03  0.23788780802E+03  0.00000000000E+00 0.  1.
         21   -1    0    0  501  502 -0.00000000000E+00 -0.00000000000E+00 -0.29357469336E+03  0.29357469336E+03  0.00000000000E+00 0.  1.
         25    1    1    2    0    0  0.11347426521E+03  0.18630219783E+02 -0.58358605580E+02  0.17959460125E+03  0.12500000000E+03 0.  0.
         25    1    1    2    0    0  0.34430194182E+02 -0.12936754801E+02 -0.66331988223E+02  0.14621125318E+03  0.12500000000E+03 0.  0.
         25    1    1    2    0    0 -0.14790445939E+03 -0.56934649826E+01  0.69003708458E+02  0.20565664695E+03  0.12500000000E+03 0.  0.
</event>
<event>
 5    0  0.5597833E-005  0.2725465E+03  0.7546771E-02  0.1099831E+00
         21   -1    0    0  502  501  0.00000000000E+00  0.00000000000E+00  0.20112044960E+03  0.20112044960E+03  0.00000000000E+00 0. -1.
         21   -1    0    0  501  502 -0.00000000000E+00 -0.00000000000E+00 -0.36933893799E+03  0.36933893799E+03  0.00000000000E+00 0. -1.
         25    1    1    2    0    0 -0.69979946359E+02 -0.59970425318E+01 -0.21088622733E+03  0.25501207479E+03  0.12500000000E+03 0.  0.
         25    1    1    2    0    0  0.14060225904E+02 -0.58348201271E+02  0.79351173073E+02  0.15976173263E+03  0.12500000000E+03 0.  0.
         25    1    1    2    0    0  0.55919720455E+02  0.64345243803E+02 -0.36683434133E+02  0.15568558018E+03  0.12500000000E+03 0.  0.
</event>
<event>
 5    0  0.5597833E-005  0.2549189E+03  0.7546771E-02  0.1110235E+00
         21   -1    0    0  502  501  0.00000000000E+00  0.00000000000E+00  0.68113254188E+03  0.68113254188E+03  0.00000000000E+00 0. -1.
         21   -1    0    0  501  502 -0.00000000000E+00 -0.00000000000E+00 -0.95405290554E+02  0.95405290554E+02  0.00000000000E+00 0. -1.
         25    1    1    2    0    0  0.11992374295E+02  0.17966827868E+02  0.13525219885E+03  0.18543133834E+03  0.12500000000E+03 0.  0.
         25    1    1    2    0    0  0.10451137931E+03 -0.10207102401E+03  0.22833119454E+03  0.29849833626E+03  0.12500000000E+03 0.  0.
         25    1    1    2    0    0 -0.11650375361E+03  0.84104196146E+02  0.22214385793E+03  0.29260815783E+03  0.12500000000E+03 0.  0.
</event>
<event>
 5    0  0.5597833E-005  0.2097290E+03  0.7546771E-02  0.1141781E+00
         21   -1    0    0  502  501  0.00000000000E+00  0.00000000000E+00  0.16443317802E+03  0.16443317802E+03  0.00000000000E+00 0.  1.
         21   -1    0    0  501  502 -0.00000000000E+00 -0.00000000000E+00 -0.26750219251E+03  0.26750219251E+03  0.00000000000E+00 0.  1.
         25    1    1    2    0    0 -0.66530092509E+02 -0.50808503006E+02 -0.49294187961E+01  0.15052261078E+03  0.12500000000E+03 0.  0.
         25    1    1    2    0    0  0.30502627906E+02  0.27587085328E+02 -0.47807146249E+02  0.14000707417E+03  0.12500000000E+03 0.  0.
         25    1    1    2    0    0  0.36027464603E+02  0.23221417678E+02 -0.50332449442E+02  0.14140568557E+03  0.12500000000E+03 0.  0.
</event>
<event>
 5    0  0.5597833E-005  0.2167197E+03  0.7546771E-02  0.1136353E+00
         21   -1    0    0  502  501  0.00000000000E+00  0.00000000000E+00  0.68412682097E+03  0.68412682097E+03  0.00000000000E+00 0.  1.
         21   -1    0    0  501  502 -0.00000000000E+00 -0.00000000000E+00 -0.68653074766E+02  0.68653074766E+02  0.00000000000E+00 0.  1.
         25    1    1    2    0    0  0.56250313073E+02  0.13058258969E+02  0.26806336040E+03  0.30135955442E+03  0.12500000000E+03 0.  0.
         25    1    1    2    0    0  0.31000516765E+02 -0.18056624843E+02  0.11597901469E+03  0.17425041058E+03  0.12500000000E+03 0.  0.
         25    1    1    2    0    0 -0.87250829838E+02  0.49983658741E+01  0.23143137112E+03  0.27716993074E+03  0.12500000000E+03 0.  0.
</event>
<event>
 5    0  0.5597833E-005  0.3678751E+03  0.7546771E-02  0.1055508E+00
         21   -1    0    0  502  501  0.00000000000E+00  0.00000000000E+00  0.10634856707E+03  0.10634856707E+03  0.00000000000E+00 0. -1.
         21   -1    0    0  501  502 -0.00000000000E+00 -0.00000000000E+00 -0.12725334567E+04  0.12725334567E+04  0.00000000000E+00 0. -1.
         25    1    1    2    0    0  0.28356647370E+03  0.56878128375E-01 -0.32184511607E+03  0.44678767550E+03  0.12500000000E+03 0.  0.
         25    1    1    2    0    0 -0.80917915752E+02 -0.27241601975E+02 -0.39162143755E+03  0.41985969598E+03  0.12500000000E+03 0.  0.
         25    1    1    2    0    0 -0.20264855795E+03  0.27184723847E+02 -0.45271833606E+03  0.51223465234E+03  0.12500000000E+03 0.  0.
</event>
<event>
 5    0  0.5597833E-005  0.3026703E+03  0.7546771E-02  0.1083913E+00
         21   -1    0    0  502  501  0.00000000000E+00  0.00000000000E+00  0.32430863698E+03  0.32430863698E+03  0.00000000000E+00 0.  1.
         21   -1    0    0  501  502 -0.00000000000E+00 -0.00000000000E+00 -0.28247575235E+03  0.28247575235E+03  0.00000000000E+00 0.  1.
         25    1    1    2    0    0  0.45132405504E+02  0.23791177459E+02  0.17186838678E+02  0.13610048338E+03  0.12500000000E+03 0.  0.
         25    1    1    2    0    0  0.14458628528E+03  0.77811743495E+02 -0.47101916832E+02  0.21166825904E+03  0.12500000000E+03 0.  0.
         25    1    1    2    0    0 -0.18971869079E+03 -0.10160292095E+03  0.71747962788E+02  0.25901564691E+03  0.12500000000E+03 0.  0.
</event>
<event>
 5    0  0.5597833E-005  0.4025001E+03  0.7546771E-02  0.1042917E+00
         21   -1    0    0  502  501  0.00000000000E+00  0.00000000000E+00  0.26289156195E+03  0.26289156195E+03  0.00000000000E+00 0. -1.
         21   -1    0    0  501  502 -0.00000000000E+00 -0.00000000000E+00 -0.61624768728E+03  0.61624768728E+03  0.00000000000E+00 0. -1.
         25    1    1    2    0    0 -0.18309016469E+03 -0.15771130516E+03 -0.23704876240E+03  0.36084897109E+03  0.12500000000E+03 0.  0.
         25    1    1    2    0    0  0.18769959661E+03  0.11049817019E+03 -0.23169464467E+03  0.34168463904E+03  0.12500000000E+03 0.  0.
         25    1    1    2    0    0 -0.46094319188E+01  0.47213134973E+02  0.11538728174E+03  0.17660563910E+03  0.12500000000E+03 0.  0.
</event>
<event>
 5    0  0.5597833E-005  0.3727876E+03  0.7546771E-02  0.1053632E+00
         21   -1    0    0  502  501  0.00000000000E+00  0.00000000000E+00  0.19662777519E+03  0.19662777519E+03  0.00000000000E+00 0.  1.
         21   -1    0    0  501  502 -0.00000000000E+00 -0.00000000000E+00 -0.70677008433E+03  0.70677008433E+03  0.00000000000E+00 0.  1.
         25    1    1    2    0    0  0.91494092842E+02  0.13069772230E+03 -0.23886659831E+03  0.31326556693E+03  0.12500000000E+03 0.  0.
         25    1    1    2    0    0 -0.20990883574E+03 -0.34879760480E+02  0.96667020841E+01  0.24697522576E+03  0.12500000000E+03 0.  0.
         25    1    1    2    0    0  0.11841474289E+03 -0.95817961819E+02 -0.28094241291E+03  0.34315706683E+03  0.12500000000E+03 0.  0.
</event>
<event>
 5    0  0.5597833E-005  0.2684097E+03  0.7546771E-02  0.1102193E+00
         21   -1    0    0  502  501  0.00000000000E+00  0.00000000000E+00  0.49877006843E+02  0.49877006843E+02  0.00000000000E+00 0. -1.
         21   -1    0    0  501  502 -0.00000000000E+00 -0.00000000000E+00 -0.14444285447E+04  0.14444285447E+04  0.00000000000E+00 0. -1.
         25    1    1    2    0    0  0.24331634823E+02 -0.46396099584E+02 -0.45419475670E+03  0.47398576300E+03  0.12500000000E+03 0.  0.
         25    1    1    2    0    0  0.11630511306E+02  0.60912027603E+02 -0.84977013418E+03  0.86115029167E+03  0.12500000000E+03 0.  0.
         25    1    1    2    0    0 -0.35962146129E+02 -0.14515928018E+02 -0.90586646944E+02  0.15916949684E+03  0.12500000000E+03 0.  0.
</event>
<event>
 5    0  0.5597833E-005  0.3944892E+03  0.7546771E-02  0.1045705E+00
         21   -1    0    0  502  501  0.00000000000E+00  0.00000000000E+00  0.39126434195E+03  0.39126434195E+03  0.00000000000E+00 0. -1.
         21   -1    0    0  501  502 -0.00000000000E+00 -0.00000000000E+00 -0.39774058242E+03  0.39774058242E+03  0.00000000000E+00 0. -1.
         25    1    1    2    0    0  0.10387062249E+03 -0.21567572503E+03  0.46399469063E+02  0.27401283786E+03  0.12500000000E+03 0.  0.
         25    1    1    2    0    0 -0.20250719368E+02 -0.79965504405E+02  0.64607882701E+02  0.16310656650E+03  0.12500000000E+03 0.  0.
         25    1    1    2    0    0 -0.83619903123E+02  0.29564122944E+03 -0.11748359223E+03  0.35188552000E+03  0.12500000000E+03 0.  0.
</event>
<event>
 5    0  0.5597833E-005  0.3729851E+03  0.7546771E-02  0.1053557E+00
         21   -1    0    0  502  501  0.00000000000E+00  0.00000000000E+00  0.63991841228E+03  0.63991841228E+03  0.00000000000E+00 0.  1.
         21   -1    0    0  501  502 -0.00000000000E+00 -0.00000000000E+00 -0.21739938223E+03  0.21739938223E+03  0.00000000000E+00 0.  1.
         25    1    1    2    0    0 -0.12206846507E+03 -0.63381268881E+02  0.51428680623E+02  0.19284139753E+03  0.12500000000E+03 0.  0.
         25    1    1    2    0    0  0.13330382115E+03 -0.15380963310E+03  0.29493318375E+02  0.24067024701E+03  0.12500000000E+03 0.  0.
         25    1    1    2    0    0 -0.11235356079E+02  0.21719090198E+03  0.34159703105E+03  0.42380614997E+03  0.12500000000E+03 0.  0.
</event>
<event>
 5    0  0.5597833E-005  0.2149062E+03  0.7546771E-02  0.1137739E+00
         21   -1    0    0  502  501  0.00000000000E+00  0.00000000000E+00  0.24727152619E+03  0.24727152619E+03  0.00000000000E+00 0. -1.
         21   -1    0    0  501  502 -0.00000000000E+00 -0.00000000000E+00 -0.18677719489E+03  0.18677719489E+03  0.00000000000E+00 0. -1.
         25    1    1    2    0    0  0.40085983275E+02 -0.27083459672E+01 -0.21637800801E+02  0.13306921363E+03  0.12500000000E+03 0.  0.
         25    1    1    2    0    0 -0.11866844883E+02 -0.49460742978E+02  0.90305973626E+02  0.16238028198E+03  0.12500000000E+03 0.  0.
         25    1    1    2    0    0 -0.28219138393E+02  0.52169088945E+02 -0.81738415255E+01  0.13859922546E+03  0.12500000000E+03 0.  0.
</event>
<event>
 5    0  0.5597833E-005  0.2096080E+03  0.7546771E-02  0.1141877E+00
         21   -1    0    0  502  501  0.00000000000E+00  0.00000000000E+00  0.65746331215E+02  0.65746331215E+02  0.00000000000E+00 0. -1.
         21   -1    0    0  501  502 -0.00000000000E+00 -0.00000000000E+00 -0.66825826523E+03  0.66825826523E+03  0.00000000000E+00 0. -1.
         25    1    1    2    0    0  0.51408159654E+01 -0.29334261543E+02 -0.26016612772E+03  0.29016950374E+03  0.12500000000E+03 0.  0.
         25    1    1    2    0    0  0.13066045241E+02  0.59497188341E+02 -0.10860737823E+03  0.17644035696E+03  0.12500000000E+03 0.  0.
         25    1    1    2    0    0 -0.18206861206E+02 -0.30162926798E+02 -0.23373842806E+03  0.26739473573E+03  0.12500000000E+03 0.  0.
</event>
<event>
 5    0  0.5807018E-005  0.4409500E+03  0.7546771E-02  0.1030456E+00
         21   -1    0    0  502  501  0.00000000000E+00  0.00000000000E+00  0.53050874428E+03  0.53050874428E+03  0.00000000000E+00 0. -1.
         21   -1    0    0  501  502 -0.00000000000E+00 -0.00000000000E+00 -0.36651026753E+03  0.36651026753E+03  0.00000000000E+00 0. -1.
         25    1    1    2    0    0  0.35791442024E+02  0.22483749594E+03  0.50263694114E+02  0.26454558369E+03  0.12500000000E+03 0.  0.
         25    1    1    2    0    0 -0.67044982995E+02 -0.59321063864E+02 -0.20172848116E+03  0.25364029347E+03  0.12500000000E+03 0.  0.
         25    1    1    2    0    0  0.31253540971E+02 -0.16551643207E+03  0.31546326379E+03  0.37883313465E+03  0.12500000000E+03 0.  0.
</event>
<event>
 5    0  0.5597833E-005  0.3997703E+03  0.7546771E-02  0.1043859E+00
         21   -1    0    0  502  501  0.00000000000E+00  0.00000000000E+00  0.62725629346E+03  0.62725629346E+03  0.00000000000E+00 0. -1.
         21   -1    0    0  501  502 -0.00000000000E+00 -0.00000000000E+00 -0.25478628055E+03  0.25478628055E+03  0.00000000000E+00 0. -1.
         25    1    1    2    0    0 -0.94408423978E+02  0.85154868315E+01  0.27261862319E+02  0.15922836798E+03  0.12500000000E+03 0.  0.
         25    1    1    2    0    0  0.33485259176E+03 -0.38116037759E+02  0.23082981807E+03  0.42718438110E+03  0.12500000000E+03 0.  0.
         25    1    1    2    0    0 -0.24044416778E+03  0.29600550928E+02  0.11437833252E+03  0.29562982493E+03  0.12500000000E+03 0.  0.
</event>
<event>
 5    0  0.5597833E-005  0.2115050E+03  0.7546771E-02  0.1140380E+00
         21   -1    0    0  502  501  0.00000000000E+00  0.00000000000E+00  0.93625556235E+02  0.93625556235E+02  0.00000000000E+00 0. -1.
         21   -1    0    0  501  502 -0.00000000000E+00 -0.00000000000E+00 -0.47780100657E+03  0.47780100657E+03  0.00000000000E+00 0. -1.
         25    1    1    2    0    0 -0.46050819722E+02 -0.91565222586E+01 -0.10619746350E+03  0.17060897149E+03  0.12500000000E+03 0.  0.
         25    1    1    2    0    0  0.42249299421E+02 -0.59747872675E+02 -0.15771228829E+03  0.21413308355E+03  0.12500000000E+03 0.  0.
         25    1    1    2    0    0  0.38015203003E+01  0.68904394934E+02 -0.12026569855E+03  0.18668450778E+03  0.12500000000E+03 0.  0.
</event>
<event>
 5    0  0.5597833E-005  0.2591347E+03  0.7546771E-02  0.1107664E+00
         21   -1    0    0  502  501  0.00000000000E+00  0.00000000000E+00  0.76307857671E+02  0.76307857671E+02  0.00000000000E+00 0. -1.
         21   -1    0    0  501  502 -0.00000000000E+00 -0.00000000000E+00 -0.87999808895E+03  0.87999808895E+03  0.00000000000E+00 0. -1.
         25    1    1    2    0    0  0.10849945684E+03 -0.77717548469E+02 -0.30211445618E+03  0.35314344693E+03  0.12500000000E+03 0.  0.
         25    1    1    2    0    0 -0.29014637859E+01  0.11301009262E+02 -0.87577339512E+02  0.15307162277E+03  0.12500000000E+03 0.  0.
         25    1    1    2    0    0 -0.10559799306E+03  0.66416539208E+02 -0.41399843558E+03  0.45009087691E+03  0.12500000000E+03 0.  0.
</event>
<event>
 5    0  0.5597833E-005  0.2302870E+03  0.7546771E-02  0.1126438E+00
         21   -1    0    0  502  501  0.00000000000E+00  0.00000000000E+00  0.92519810781E+03  0.92519810781E+03  0.00000000000E+00 0.  1.
         21   -1    0    0  501  502 -0.00000000000E+00 -0.00000000000E+00 -0.57319739820E+02  0.57319739820E+02  0.00000000000E+00 0.  1.
         25    1    1    2    0    0 -0.53205491181E+02 -0.18880735447E+02  0.47746318883E+03  0.49677298955E+03  0.12500000000E+03 0.  0.
         25    1    1    2    0    0 -0.31700743288E+02  0.38722913460E+02  0.21142754144E+03  0.25066113865E+03  0.12500000000E+03 0.  0.
         25    1    1    2    0    0  0.84906234469E+02 -0.19842178013E+02  0.17898763772E+03  0.23508371942E+03  0.12500000000E+03 0.  0.
</event>
<event>
 5    0  0.5597833E-005  0.2426829E+03  0.7546771E-02  0.1118018E+00
         21   -1    0    0  502  501  0.00000000000E+00  0.00000000000E+00  0.27978420483E+03  0.27978420483E+03  0.00000000000E+00 0.  1.
         21   -1    0    0  501  502 -0.00000000000E+00 -0.00000000000E+00 -0.21050153702E+03  0.21050153702E+03  0.00000000000E+00 0.  1.
         25    1    1    2    0    0 -0.15061269181E+02  0.54439204602E+02  0.41734713769E+02  0.14337801491E+03  0.12500000000E+03 0.  0.
         25    1    1    2    0    0  0.73311573617E+02 -0.38123461343E+02  0.10956583613E+03  0.18562773925E+03  0.12500000000E+03 0.  0.
         25    1    1    2    0    0 -0.58250304436E+02 -0.16315743259E+02 -0.82017882088E+02  0.16127998768E+03  0.12500000000E+03 0.  0.
</event>
<event>
 5    0  0.5597833E-005  0.3098940E+03  0.7546771E-02  0.1080397E+00
         21   -1    0    0  502  501  0.00000000000E+00  0.00000000000E+00  0.17380531584E+03  0.17380531584E+03  0.00000000000E+00 0.  1.
         21   -1    0    0  501  502 -0.00000000000E+00 -0.00000000000E+00 -0.55253959987E+03  0.55253959987E+03  0.00000000000E+00 0.  1.
         25    1    1    2    0    0 -0.11039360417E+03 -0.94614812184E+02 -0.21003708343E+03  0.28439283912E+03  0.12500000000E+03 0.  0.
         25    1    1    2    0    0  0.30290804534E+02  0.11111924679E+03  0.49942076416E+02  0.17715595063E+03  0.12500000000E+03 0.  0.
         25    1    1    2    0    0  0.80102799633E+02 -0.16504434605E+02 -0.21863927702E+03  0.26479612597E+03  0.12500000000E+03 0.  0.
</event>
<event>
 5    0  0.5597833E-005  0.3476099E+03  0.7546771E-02  0.1063600E+00
         21   -1    0    0  502  501  0.00000000000E+00  0.00000000000E+00  0.19258340342E+04  0.19258340342E+04  0.00000000000E+00 0.  1.
         21   -1    0    0  501  502 -0.00000000000E+00 -0.00000000000E+00 -0.62743021916E+02  0.62743021916E+02  0.00000000000E+00 0.  1.
         25    1    1    2    0    0  0.14552000723E+03  0.59113050149E+02  0.62566077750E+03  0.65707445066E+03  0.12500000000E+03 0.  0.
         25    1    1    2    0    0  0.24508017435E+02 -0.19690347420E+03  0.50178798491E+03  0.55388428654E+03  0.12500000000E+03 0.  0.
         25    1    1    2    0    0 -0.17002802466E+03  0.13779042405E+03  0.73564224986E+03  0.77761831891E+03  0.12500000000E+03 0.  0.
</event>
<event>
 5    0  0.5597833E-005  0.3730087E+03  0.7546771E-02  0.1053548E+00
         21   -1    0    0  502  501  0.00000000000E+00  0.00000000000E+00  0.61628757440E+02  0.61628757440E+02  0.00000000000E+00 0. -1.
         21   -1    0    0  501  502 -0.00000000000E+00 -0.00000000000E+00 -0.22576387973E+04  0.22576387973E+04  0.00000000000E+00 0. -1.
         25    1    1    2    0    0 -0.22529295923E+02 -0.46159634145E+02 -0.15207945756E+04  0.15267872878E+04  0.12500000000E+03 0.  0.
         25    1    1    2    0    0  0.81541220394E+02  0.16410667296E+03 -0.27782870215E+03  0.35551899875E+03  0.12500000000E+03 0.  0.
         25    1    1    2    0    0 -0.59011924471E+02 -0.11794703882E+03 -0.39738676204E+03  0.43696126813E+03  0.12500000000E+03 0.  0.
</event>
<event>
 5    0  0.5597833E-005  0.3016752E+03  0.7546771E-02  0.1084406E+00
         21   -1    0    0  502  501  0.00000000000E+00  0.00000000000E+00  0.24516725049E+03  0.24516725049E+03  0.00000000000E+00 0.  1.
         21   -1    0    0  501  502 -0.00000000000E+00 -0.00000000000E+00 -0.37120746662E+03  0.37120746662E+03  0.00000000000E+00 0.  1.
         25    1    1    2    0    0 -0.10180334146E+03 -0.66251962974E+02 -0.17452134326E+03  0.24664943175E+03  0.12500000000E+03 0.  0.
         25    1    1    2    0    0  0.86102119378E+02  0.15026902712E+03  0.11769834838E+02  0.21391092652E+03  0.12500000000E+03 0.  0.
         25    1    1    2    0    0  0.15701222078E+02 -0.84017064142E+02  0.36711292283E+02  0.15581435885E+03  0.12500000000E+03 0.  0.
</event>
<event>
 5    0  0.5597833E-005  0.3939415E+03  0.7546771E-02  0.1045898E+00
         21   -1    0    0  502  501  0.00000000000E+00  0.00000000000E+00  0.47493660322E+02  0.47493660322E+02  0.00000000000E+00 0.  1.
         21   -1    0    0  501  502 -0.00000000000E+00 -0.00000000000E+00 -0.32675917932E+04  0.32675917932E+04  0.00000000000E+00 0.  1.
         25    1    1    2    0    0  0.12278497436E+03 -0.58814317625E+02 -0.79641371115E+03  0.81757878715E+03  0.12500000000E+03 0.  0.
         25    1    1    2    0    0 -0.27702440243E+03 -0.12717386221E+03 -0.12472827683E+04  0.12900600819E+04  0.12500000000E+03 0.  0.
         25    1    1    2    0    0  0.15423942807E+03  0.18598817983E+03 -0.11764016534E+04  0.12074465845E+04  0.12500000000E+03 0.  0.
</event>
<event>
 5    0  0.5597833E-005  0.2698522E+03  0.7546771E-02  0.1101364E+00
         21   -1    0    0  502  501  0.00000000000E+00  0.00000000000E+00  0.21689549825E+03  0.21689549825E+03  0.00000000000E+00 0.  1.
         21   -1    0    0  501  502 -0.00000000000E+00 -0.00000000000E+00 -0.33573869027E+03  0.33573869027E+03  0.00000000000E+00 0.  1.
         25    1    1    2    0    0 -0.39610715978E+02  0.41265151617E+02  0.22559188691E+02  0.13930448145E+03  0.12500000000E+03 0.  0.
         25    1    1    2    0    0 -0.69528544469E+02 -0.56617636820E+02  0.47905680001E+02  0.16112023297E+03  0.12500000000E+03 0.  0.
         25    1    1    2    0    0  0.10913926045E+03  0.15352485202E+02 -0.18930806072E+03  0.25220947410E+03  0.12500000000E+03 0.  0.
</event>
<event>
 5    0  0.5597833E-005  0.3146353E+03  0.7546771E-02  0.1078145E+00
         21   -1    0    0  502  501  0.00000000000E+00  0.00000000000E+00  0.57982277333E+03  0.57982277333E+03  0.00000000000E+00 0.  1.
         21   -1    0    0  501  502 -0.00000000000E+00 -0.00000000000E+00 -0.17073381298E+03  0.17073381298E+03  0.00000000000E+00 0.  1.
         25    1    1    2    0    0  0.16594218554E+03  0.12132252385E+03  0.17313777159E+03  0.29640791434E+03  0.12500000000E+03 0.  0.
         25    1    1    2    0    0 -0.80710228333E+01  0.34786703432E+02  0.10813216668E+03  0.16909412058E+03  0.12500000000E+03 0.  0.
         25    1    1    2    0    0 -0.15787116271E+03 -0.15610922728E+03  0.12781902208E+03  0.28505455138E+03  0.12500000000E+03 0.  0.
</event>
<event>
 5    0  0.5597833E-005  0.3437814E+03  0.7546771E-02  0.1065197E+00
         21   -1    0    0  502  501  0.00000000000E+00  0.00000000000E+00  0.14700353894E+03  0.14700353894E+03  0.00000000000E+00 0. -1.
         21   -1    0    0  501  502 -0.00000000000E+00 -0.00000000000E+00 -0.80396466706E+03  0.80396466706E+03  0.00000000000E+00 0.  1.
         25    1    1    2    0    0 -0.13674991754E+03  0.16228394982E+03 -0.25094416716E+03  0.35161711470E+03  0.12500000000E+03 0.  0.
         25    1    1    2    0    0  0.11120502105E+02 -0.16706737592E+03 -0.35990887751E+03  0.41616652169E+03  0.12500000000E+03 0.  0.
         25    1    1    2    0    0  0.12562941543E+03  0.47834261057E+01 -0.46108083450E+02  0.18318456962E+03  0.12500000000E+03 0.  0.
</event>
<event>
 5    0  0.6180120E-005  0.3448924E+03  0.7546771E-02  0.1064731E+00
         21   -1    0    0  502  501  0.00000000000E+00  0.00000000000E+00  0.72765238371E+03  0.72765238371E+03  0.00000000000E+00 0. -1.
         21   -1    0    0  501  502 -0.00000000000E+00 -0.00000000000E+00 -0.16347198387E+03  0.16347198387E+03  0.00000000000E+00 0. -1.
         25    1    1    2    0    0  0.16158330633E+03  0.12201080462E+03  0.25072231162E+03  0.34566237700E+03  0.12500000000E+03 0.  0.
         25    1    1    2    0    0  0.12494821452E+01 -0.66258452717E+01 -0.30285574132E+02  0.12879316376E+03  0.12500000000E+03 0.  0.
         25    1    1    2    0    0 -0.16283278847E+03 -0.11538495934E+03  0.34374366235E+03  0.41666882682E+03  0.12500000000E+03 0.  0.
</event>
<event>
 5    0  0.5597833E-005  0.3718938E+03  0.7546771E-02  0.1053971E+00
         21   -1    0    0  502  501  0.00000000000E+00  0.00000000000E+00  0.20726261875E+03  0.20726261875E+03  0.00000000000E+00 0. -1.
         21   -1    0    0  501  502 -0.00000000000E+00 -0.00000000000E+00 -0.66729349518E+03  0.66729349518E+03  0.00000000000E+00 0. -1.
         25    1    1    2    0    0 -0.13664303482E+03 -0.33310406329E+02 -0.26244370188E+03  0.32292816351E+03  0.12500000000E+03 0.  0.
         25    1    1    2    0    0  0.11264712100E+03  0.21074461754E+03 -0.19578279162E+03  0.33325451113E+03  0.12500000000E+03 0.  0.
         25    1    1    2    0    0  0.23995913817E+02 -0.17743421121E+03 -0.18043829350E+01  0.21837343929E+03  0.12500000000E+03 0.  0.
</event>
<event>
 5    0  0.5597833E-005  0.4778848E+03  0.7546771E-02  0.1019718E+00
         21   -1    0    0  502  501  0.00000000000E+00  0.00000000000E+00  0.19685934387E+04  0.19685934387E+04  0.00000000000E+00 0.  1.
         21   -1    0    0  501  502 -0.00000000000E+00 -0.00000000000E+00 -0.11600865155E+03  0.11600865155E+03  0.00000000000E+00 0.  1.
         25    1    1    2    0    0  0.17028290098E+02  0.11701697259E+03  0.12591966804E+02  0.17252968488E+03  0.12500000000E+03 0.  0.
         25    1    1    2    0    0 -0.18562474765E+03 -0.19365873579E+03  0.10958372126E+04  0.11350966697E+04  0.12500000000E+03 0.  0.
         25    1    1    2    0    0  0.16859645756E+03  0.76641763201E+02  0.74415560768E+03  0.77697573566E+03  0.12500000000E+03 0.  0.
</event>
<event>
 5    0  0.5938998E-005  0.3015584E+03  0.7546771E-02  0.1084464E+00
         21   -1    0    0  502  501  0.00000000000E+00  0.00000000000E+00  0.73268540176E+03  0.73268540176E+03  0.00000000000E+00 0. -1.
         21   -1    0    0  501  502 -0.00000000000E+00 -0.00000000000E+00 -0.12411533145E+03  0.12411533145E+03  0.00000000000E+00 0. -1.
         25    1    1    2    0    0 -0.85335979608E+02  0.69580949754E+02  0.21257798026E+03  0.27007061239E+03  0.12500000000E+03 0.  0.
         25    1    1    2    0    0  0.22758070734E+02 -0.16644581304E+03  0.73104232124E+02  0.22179126948E+03  0.12500000000E+03 0.  0.
         25    1    1    2    0    0  0.62577908874E+02  0.96864863287E+02  0.32288785793E+03  0.36493885134E+03  0.12500000000E+03 0.  0.
</event>
<event>
 5    0  0.5597833E-005  0.2608980E+03  0.7546771E-02  0.1106605E+00
         21   -1    0    0  502  501  0.00000000000E+00  0.00000000000E+00  0.77115041331E+02  0.77115041331E+02  0.00000000000E+00 0. -1.
         21   -1    0    0  501  502 -0.00000000000E+00 -0.00000000000E+00 -0.88267797078E+03  0.88267797078E+03  0.00000000000E+00 0. -1.
         25    1    1    2    0    0  0.15849888948E+03 -0.22380719015E+02 -0.30622781945E+03  0.36745512917E+03  0.12500000000E+03 0.  0.
         25    1    1    2    0    0 -0.16925447307E+02  0.29507354560E+02 -0.21021807547E+03  0.24692872250E+03  0.12500000000E+03 0.  0.
         25    1    1    2    0    0 -0.14157344217E+03 -0.71266355446E+01 -0.28911703453E+03  0.34540916044E+03  0.12500000000E+03 0.  0.
</event>
<event>
 5    0  0.5597833E-005  0.2087456E+03  0.7546771E-02  0.1142563E+00
         21   -1    0    0  502  501  0.00000000000E+00  0.00000000000E+00  0.56154032543E+02  0.56154032543E+02  0.00000000000E+00 0.  1.
         21   -1    0    0  501  502 -0.00000000000E+00 -0.00000000000E+00 -0.77598539816E+03  0.77598539816E+03  0.00000000000E+00 0.  1.
         25    1    1    2    0    0 -0.76897804258E+02  0.24422413275E+02 -0.25405861825E+03  0.29441553641E+03  0.12500000000E+03 0.  0.
         25    1    1    2    0    0  0.57454765280E+02  0.89457007995E+01 -0.23631314259E+03  0.27358723833E+03  0.12500000000E+03 0.  0.
         25    1    1    2    0    0  0.19443038978E+02 -0.33368114074E+02 -0.22945960478E+03  0.26413665597E+03  0.12500000000E+03 0.  0.
</event>
<event>
 5    0  0.5597833E-005  0.3076044E+03  0.7546771E-02  0.1081500E+00
         21   -1    0    0  502  501  0.00000000000E+00  0.00000000000E+00  0.13190568703E+04  0.13190568703E+04  0.00000000000E+00 0.  1.
         21   -1    0    0  501  502 -0.00000000000E+00 -0.00000000000E+00 -0.71733425008E+02  0.71733425008E+02  0.00000000000E+00 0.  1.
         25    1    1    2    0    0  0.12918628681E+02 -0.25599152821E+02  0.10332237692E+03  0.16468977249E+03  0.12500000000E+03 0.  0.
         25    1    1    2    0    0 -0.11588182035E+03  0.61354227970E+02  0.20934764889E+03  0.27684720637E+03  0.12500000000E+03 0.  0.
         25    1    1    2    0    0  0.10296319167E+03 -0.35755075149E+02  0.93465341951E+03  0.94925331647E+03  0.12500000000E+03 0.  0.
</event>
<event>
 5    0  0.5597833E-005  0.2168935E+03  0.7546771E-02  0.1136220E+00
         21   -1    0    0  502  501  0.00000000000E+00  0.00000000000E+00  0.15056899377E+03  0.15056899377E+03  0.00000000000E+00 0.  1.
         21   -1    0    0  501  502 -0.00000000000E+00 -0.00000000000E+00 -0.31243358375E+03  0.31243358375E+03  0.00000000000E+00 0.  1.
         25    1    1    2    0    0 -0.31423559061E+02  0.22207719906E+02 -0.69919340087E+02  0.14830487856E+03  0.12500000000E+03 0.  0.
         25    1    1    2    0    0  0.84937329673E+02  0.11716752924E+02 -0.89951393903E+01  0.15184710996E+03  0.12500000000E+03 0.  0.
         25    1    1    2    0    0 -0.53513770612E+02 -0.33924472830E+02 -0.82950110504E+02  0.16285058899E+03  0.12500000000E+03 0.  0.
</event>
<event>
 5    0  0.5597833E-005  0.3026408E+03  0.7546771E-02  0.1083928E+00
         21   -1    0    0  502  501  0.00000000000E+00  0.00000000000E+00  0.34400785833E+03  0.34400785833E+03  0.00000000000E+00 0. -1.
         21   -1    0    0  501  502 -0.00000000000E+00 -0.00000000000E+00 -0.26624813913E+03  0.26624813913E+03  0.00000000000E+00 0. -1.
         25    1    1    2    0    0 -0.17414546452E+02  0.11563852342E+03 -0.34031541437E+02  0.17452415403E+03  0.12500000000E+03 0.  0.
         25    1    1    2    0    0  0.16184756184E+03 -0.81829042891E+02  0.98533308736E+02  0.24129740667E+03  0.12500000000E+03 0.  0.
         25    1    1    2    0    0 -0.14443301539E+03 -0.33809480530E+02  0.13257951902E+02  0.19443443676E+03  0.12500000000E+03 0.  0.
</event>
<event>
 5    0  0.5597833E-005  0.3167721E+03  0.7546771E-02  0.1077145E+00
         21   -1    0    0  502  501  0.00000000000E+00  0.00000000000E+00  0.65996150102E+03  0.65996150102E+03  0.00000000000E+00 0.  1.
         21   -1    0    0  501  502 -0.00000000000E+00 -0.00000000000E+00 -0.15204611116E+03  0.15204611116E+03  0.00000000000E+00 0.  1.
         25    1    1    2    0    0  0.34112534460E+01 -0.14915383170E+03  0.36500846839E+03  0.41366010704E+03  0.12500000000E+03 0.  0.
         25    1    1    2    0    0 -0.75795296958E+01 -0.50152094395E+02  0.34285094275E+02  0.13918746184E+03  0.12500000000E+03 0.  0.
         25    1    1    2    0    0  0.41682762498E+01  0.19930592610E+03  0.10862182719E+03  0.25916004331E+03  0.12500000000E+03 0.  0.
</event>
<event>
 5    0  0.5597833E-005  0.2130814E+03  0.7546771E-02  0.1139149E+00
         21   -1    0    0  502  501  0.00000000000E+00  0.00000000000E+00  0.81484517092E+03  0.81484517092E+03  0.00000000000E+00 0.  1.
         21   -1    0    0  501  502 -0.00000000000E+00 -0.00000000000E+00 -0.55720629441E+02  0.55720629441E+02  0.00000000000E+00 0.  1.
         25    1    1    2    0    0 -0.31847758162E+01  0.38321134340E+01  0.32520725042E+03  0.34843878030E+03  0.12500000000E+03 0.  0.
         25    1    1    2    0    0 -0.68163283318E+02 -0.44939100015E+01  0.17256849396E+03  0.22376620283E+03  0.12500000000E+03 0.  0.
         25    1    1    2    0    0  0.71348059134E+02  0.66179656757E+00  0.26134879710E+03  0.29836081724E+03  0.12500000000E+03 0.  0.
</event>
<event>
 5    0  0.5597833E-005  0.2440864E+03  0.7546771E-02  0.1117100E+00
         21   -1    0    0  502  501  0.00000000000E+00  0.00000000000E+00  0.77929303171E+03  0.77929303171E+03  0.00000000000E+00 0.  1.
         21   -1    0    0  501  502 -0.00000000000E+00 -0.00000000000E+00 -0.76451575247E+02  0.76451575247E+02  0.00000000000E+00 0.  1.
         25    1    1    2    0    0 -0.52142979107E+01  0.91867906525E+02  0.14875122242E+03  0.21498564446E+03  0.12500000000E+03 0.  0.
         25    1    1    2    0    0  0.63890157522E+02 -0.68630768346E+02  0.41477473386E+03  0.44323268657E+03  0.12500000000E+03 0.  0.
         25    1    1    2    0    0 -0.58675859611E+02 -0.23237138179E+02  0.13931550018E+03  0.19752627593E+03  0.12500000000E+03 0.  0.
</event>
<event>
 5    0  0.5597833E-005  0.2796798E+03  0.7546771E-02  0.1095864E+00
         21   -1    0    0  502  501  0.00000000000E+00  0.00000000000E+00  0.22627941029E+03  0.22627941029E+03  0.00000000000E+00 0.  1.
         21   -1    0    0  501  502 -0.00000000000E+00 -0.00000000000E+00 -0.34568229240E+03  0.34568229240E+03  0.00000000000E+00 0.  1.
         25    1    1    2    0    0 -0.84765983434E+02  0.36094364312E+02 -0.46554629119E+02  0.16211233320E+03  0.12500000000E+03 0.  0.
         25    1    1    2    0    0  0.13695011706E+03 -0.21669342767E+02 -0.16189703637E+03  0.24710432081E+03  0.12500000000E+03 0.  0.
         25    1    1    2    0    0 -0.52184133629E+02 -0.14425021545E+02  0.89048783372E+02  0.16274504868E+03  0.12500000000E+03 0.  0.
</event>
<event>
 5    0  0.5597833E-005  0.2590887E+03  0.7546771E-02  0.1107692E+00
         21   -1    0    0  502  501  0.00000000000E+00  0.00000000000E+00  0.44730582935E+03  0.44730582935E+03  0.00000000000E+00 0.  1.
         21   -1    0    0  501  502 -0.00000000000E+00 -0.00000000000E+00 -0.15006950721E+03  0.15006950721E+03  0.00000000000E+00 0.  1.
         25    1    1    2    0    0  0.14940149877E+03  0.56040134143E+02  0.65042835725E+02  0.21287760556E+03  0.12500000000E+03 0.  0.
         25    1    1    2    0    0 -0.99875101913E+02 -0.14903110284E+02  0.15867324422E+03  0.22583032814E+03  0.12500000000E+03 0.  0.
         25    1    1    2    0    0 -0.49526396862E+02 -0.41137023859E+02  0.73520242195E+02  0.15866740286E+03  0.12500000000E+03 0.  0.
</event>
<event>
 5    0  0.5597833E-005  0.2300027E+03  0.7546771E-02  0.1126638E+00
         21   -1    0    0  502  501  0.00000000000E+00  0.00000000000E+00  0.40249526048E+03  0.40249526048E+03  0.00000000000E+00 0. -1.
         21   -1    0    0  501  502 -0.00000000000E+00 -0.00000000000E+00 -0.13143317265E+03  0.13143317265E+03  0.00000000000E+00 0. -1.
         25    1    1    2    0    0 -0.31350944098E+00  0.75309934687E+02  0.13291063077E+02  0.14653783439E+03  0.12500000000E+03 0.  0.
         25    1    1    2    0    0 -0.18259604330E+02  0.22870575761E+02  0.12887063965E+03  0.18190414550E+03  0.12500000000E+03 0.  0.
         25    1    1    2    0    0  0.18573113771E+02 -0.98180510448E+02  0.12890038511E+03  0.20548645325E+03  0.12500000000E+03 0.  0.
</event>
<event>
 5    0  0.5597833E-005  0.3363030E+03  0.7546771E-02  0.1068382E+00
         21   -1    0    0  502  501  0.00000000000E+00  0.00000000000E+00  0.40129310318E+03  0.40129310318E+03  0.00000000000E+00 0. -1.
         21   -1    0    0  501  502 -0.00000000000E+00 -0.00000000000E+00 -0.28183812341E+03  0.28183812341E+03  0.00000000000E+00 0. -1.
         25    1    1    2    0    0 -0.16224695407E+02 -0.13390425897E+03 -0.12555164035E+03  0.22266972337E+03  0.12500000000E+03 0.  0.
         25    1    1    2    0    0  0.65777974610E+02 -0.34169672036E+02  0.18833145720E+03  0.23788242096E+03  0.12500000000E+03 0.  0.
         25    1    1    2    0    0 -0.49553279203E+02  0.16807393101E+03  0.56675162928E+02  0.22257908226E+03  0.12500000000E+03 0.  0.
</event>
<event>
 5    0  0.5597833E-005  0.3881143E+03  0.7546771E-02  0.1047975E+00
         21   -1    0    0  502  501  0.00000000000E+00  0.00000000000E+00  0.44966434905E+03  0.44966434905E+03  0.00000000000E+00 0. -1.
         21   -1    0    0  501  502 -0.00000000000E+00 -0.00000000000E+00 -0.33498927424E+03  0.33498927424E+03  0.00000000000E+00 0. -1.
         25    1    1    2    0    0  0.48175999628E+02  0.73788867846E+02 -0.14095835797E+03  0.20799034266E+03  0.12500000000E+03 0.  0.
         25    1    1    2    0    0 -0.10857181311E+02  0.51654920623E+02 -0.10605848097E+03  0.17221936766E+03  0.12500000000E+03 0.  0.
         25    1    1    2    0    0 -0.37318818317E+02 -0.12544378847E+03  0.36169191376E+03  0.40444391297E+03  0.12500000000E+03 0.  0.
</event>
<event>
 5    0  0.5597833E-005  0.2968022E+03  0.7546771E-02  0.1086850E+00
         21   -1    0    0  502  501  0.00000000000E+00  0.00000000000E+00  0.14637869447E+03  0.14637869447E+03  0.00000000000E+00 0.  1.
         21   -1    0    0  501  502 -0.00000000000E+00 -0.00000000000E+00 -0.60180573099E+03  0.60180573099E+03  0.00000000000E+00 0.  1.
         25    1    1    2    0    0  0.11718032659E+03 -0.13514193358E+03 -0.13732412401E+03  0.25783228306E+03  0.12500000000E+03 0.  0.
         25    1    1    2    0    0 -0.14180174566E+03  0.17320141669E+02 -0.22162179435E+03  0.29180291655E+03  0.12500000000E+03 0.  0.
         25    1    1    2    0    0  0.24621419068E+02  0.11782179191E+03 -0.96481118158E+02  0.19854922585E+03  0.12500000000E+03 0.  0.
</event>
<event>
 5    0  0.6012711E-005  0.3294071E+03  0.7546771E-02  0.1071400E+00
         21   -1    0    0  502  501  0.00000000000E+00  0.00000000000E+00  0.22813905838E+03  0.22813905838E+03  0.00000000000E+00 0. -1.
         21   -1    0    0  501  502 -0.00000000000E+00 -0.00000000000E+00 -0.47562669794E+03  0.47562669794E+03  0.00000000000E+00 0. -1.
         25    1    1    2    0    0  0.25143956955E+01  0.75511237767E+02 -0.21960361545E+03  0.26374043515E+03  0.12500000000E+03 0.  0.
         25    1    1    2    0    0 -0.26013310333E+02 -0.17254511597E+03 -0.12932585504E+03  0.25059666028E+03  0.12500000000E+03 0.  0.
         25    1    1    2    0    0  0.23498914638E+02  0.97033878206E+02  0.10144183092E+03  0.18942866090E+03  0.12500000000E+03 0.  0.
</event>
<event>
 5    0  0.5597833E-005  0.3205574E+03  0.7546771E-02  0.1075393E+00
         21   -1    0    0  502  501  0.00000000000E+00  0.00000000000E+00  0.12895524096E+04  0.12895524096E+04  0.00000000000E+00 0.  1.
         21   -1    0    0  501  502 -0.00000000000E+00 -0.00000000000E+00 -0.79684266790E+02  0.79684266790E+02  0.00000000000E+00 0.  1.
         25    1    1    2    0    0  0.12580104578E+03 -0.16024837533E+03  0.30171796981E+03  0.38492100257E+03  0.12500000000E+03 0.  0.
         25    1    1    2    0    0 -0.11193842160E+03  0.14917789281E+03  0.38078141116E+03  0.44204494910E+03  0.12500000000E+03 0.  0.
         25    1    1    2    0    0 -0.13862624180E+02  0.11070482512E+02  0.52736876187E+03  0.54227072476E+03  0.12500000000E+03 0.  0.
</event>
<event>
 5    0  0.5597833E-005  0.2998529E+03  0.7546771E-02  0.1085314E+00
         21   -1    0    0  502  501  0.00000000000E+00  0.00000000000E+00  0.10441955148E+03  0.10441955148E+03  0.00000000000E+00 0.  1.
         21   -1    0    0  501  502 -0.00000000000E+00 -0.00000000000E+00 -0.86106243085E+03  0.86106243085E+03  0.00000000000E+00 0.  1.
         25    1    1    2    0    0 -0.32353671911E+02 -0.39728528400E+02 -0.28402501194E+02  0.13804643468E+03  0.12500000000E+03 0.  0.
         25    1    1    2    0    0  0.27185041173E+02 -0.89783869317E+02 -0.13191550110E+03  0.20451618294E+03  0.12500000000E+03 0.  0.
         25    1    1    2    0    0  0.51686307378E+01  0.12951239772E+03 -0.59632487708E+03  0.62291936471E+03  0.12500000000E+03 0.  0.
</event>
<event>
 5    0  0.5597833E-005  0.2471470E+03  0.7546771E-02  0.1115121E+00
         21   -1    0    0  502  501  0.00000000000E+00  0.00000000000E+00  0.10326976480E+04  0.10326976480E+04  0.00000000000E+00 0. -1.
         21   -1    0    0  501  502 -0.00000000000E+00 -0.00000000000E+00 -0.59147642014E+02  0.59147642014E+02  0.00000000000E+00 0. -1.
         25    1    1    2    0    0  0.62882539739E+02 -0.34045892335E+02  0.27817275900E+03  0.31323859985E+03  0.12500000000E+03 0.  0.
         25    1    1    2    0    0 -0.59865202126E+02 -0.31644501314E+02  0.11966653742E+03  0.18582329528E+03  0.12500000000E+03 0.  0.
         25    1    1    2    0    0 -0.30173376134E+01  0.65690393649E+02  0.57571070958E+03  0.59278339490E+03  0.12500000000E+03 0.  0.
</event>
<event>
 5    0  0.5597833E-005  0.2779001E+03  0.7546771E-02  0.1096841E+00
         21   -1    0    0  502  501  0.00000000000E+00  0.00000000000E+00  0.23361353328E+03  0.23361353328E+03  0.00000000000E+00 0.  1.
         21   -1    0    0  501  502 -0.00000000000E+00 -0.00000000000E+00 -0.33058226956E+03  0.33058226956E+03  0.00000000000E+00 0.  1.
         25    1    1    2    0    0  0.91839826050E+02 -0.41209262441E+02 -0.28929147021E+02  0.16307866969E+03  0.12500000000E+03 0.  0.
         25    1    1    2    0    0 -0.96815938093E+02  0.12414871222E+02 -0.17344108383E+03  0.23501971078E+03  0.12500000000E+03 0.  0.
         25    1    1    2    0    0  0.49761120430E+01  0.28794391219E+02  0.10540149457E+03  0.16609742236E+03  0.12500000000E+03 0.  0.
</event>
<event>
 5    0  0.5597833E-005  0.6130776E+03  0.7546771E-02  0.9878640E-01
         21   -1    0    0  502  501  0.00000000000E+00  0.00000000000E+00  0.44963790499E+03  0.44963790499E+03  0.00000000000E+00 0.  1.
         21   -1    0    0  501  502 -0.00000000000E+00 -0.00000000000E+00 -0.83592628407E+03  0.83592628407E+03  0.00000000000E+00 0. -1.
         25    1    1    2    0    0  0.36829262628E+03  0.27579294773E+03 -0.12783816375E+03  0.49362820493E+03  0.12500000000E+03 0.  0.
         25    1    1    2    0    0  0.12653572315E+03 -0.36856118575E+02 -0.96009373914E+02  0.20545671707E+03  0.12500000000E+03 0.  0.
         25    1    1    2    0    0 -0.49482834943E+03 -0.23893682916E+03 -0.16244084141E+03  0.58647926706E+03  0.12500000000E+03 0.  0.
</event>
<event>
 5    0  0.5597833E-005  0.6430399E+03  0.7546771E-02  0.9819928E-01
         21   -1    0    0  502  501  0.00000000000E+00  0.00000000000E+00  0.46379534558E+03  0.46379534558E+03  0.00000000000E+00 0.  1.
         21   -1    0    0  501  502 -0.00000000000E+00 -0.00000000000E+00 -0.89155767968E+03  0.89155767968E+03  0.00000000000E+00 0.  1.
         25    1    1    2    0    0 -0.29411522850E+03 -0.33494977945E+03  0.97027365021E+02  0.47300574199E+03  0.12500000000E+03 0.  0.
         25    1    1    2    0    0  0.24576041838E+03 -0.37692260572E+02 -0.35600512324E+03  0.45186672540E+03  0.12500000000E+03 0.  0.
         25    1    1    2    0    0  0.48354810119E+02  0.37264204002E+03 -0.16878457588E+03  0.43048055787E+03  0.12500000000E+03 0.  0.
</event>
<event>
 5    0  0.5597833E-005  0.3152224E+03  0.7546771E-02  0.1077869E+00
         21   -1    0    0  502  501  0.00000000000E+00  0.00000000000E+00  0.25443542077E+03  0.25443542077E+03  0.00000000000E+00 0.  1.
         21   -1    0    0  501  502 -0.00000000000E+00 -0.00000000000E+00 -0.39053199507E+03  0.39053199507E+03  0.00000000000E+00 0.  1.
         25    1    1    2    0    0  0.50738840393E+02  0.14793174585E+02 -0.47690694150E+02  0.14384947079E+03  0.12500000000E+03 0.  0.
         25    1    1    2    0    0  0.18237851540E+03 -0.29706830320E+02 -0.42286814320E+01  0.22313068008E+03  0.12500000000E+03 0.  0.
         25    1    1    2    0    0 -0.23311735579E+03  0.14913655734E+02 -0.84177198724E+02  0.27798726497E+03  0.12500000000E+03 0.  0.
</event>
<event>
 5    0  0.5597833E-005  0.4625091E+03  0.7546771E-02  0.1024056E+00
         21   -1    0    0  502  501  0.00000000000E+00  0.00000000000E+00  0.34624514209E+04  0.34624514209E+04  0.00000000000E+00 0. -1.
         21   -1    0    0  501  502 -0.00000000000E+00 -0.00000000000E+00 -0.61781286355E+02  0.61781286355E+02  0.00000000000E+00 0. -1.
         25    1    1    2    0    0 -0.20396119747E+03 -0.11975534479E+03  0.76023625906E+03  0.80593156177E+03  0.12500000000E+03 0.  0.
         25    1    1    2    0    0 -0.13967219681E+03  0.18838578565E+03  0.13182363944E+04  0.13447563788E+04  0.12500000000E+03 0.  0.
         25    1    1    2    0    0  0.34363339428E+03 -0.68630440860E+02  0.13221974811E+04  0.13735447667E+04  0.12500000000E+03 0.  0.
</event>
<event>
 5    0  0.5794798E-005  0.2728020E+03  0.7546771E-02  0.1099687E+00
         21   -1    0    0  502  501  0.00000000000E+00  0.00000000000E+00  0.42289251898E+03  0.42289251898E+03  0.00000000000E+00 0. -1.
         21   -1    0    0  501  502 -0.00000000000E+00 -0.00000000000E+00 -0.17598072145E+03  0.17598072145E+03  0.00000000000E+00 0. -1.
         25    1    1    2    0    0  0.58240092440E+01 -0.12728579338E+03  0.11253107374E+03  0.21100671752E+03  0.12500000000E+03 0.  0.
         25    1    1    2    0    0  0.51629041982E+02 -0.24888190098E+02  0.11950820731E+03  0.18218724323E+03  0.12500000000E+03 0.  0.
         25    1    1    2    0    0 -0.57453051226E+02  0.15217398348E+03  0.14872516483E+02  0.20567927968E+03  0.12500000000E+03 0.  0.
</event>
<event>
 5    0  0.6489478E-005  0.5780727E+03  0.7546771E-02  0.9951972E-01
         21   -1    0    0  502  501  0.00000000000E+00  0.00000000000E+00  0.67700272151E+03  0.67700272151E+03  0.00000000000E+00 0. -1.
         21   -1    0    0  501  502 -0.00000000000E+00 -0.00000000000E+00 -0.49359933803E+03  0.49359933803E+03  0.00000000000E+00 0. -1.
         25    1    1    2    0    0  0.89398936161E+02  0.33320528595E+03  0.23938842874E+03  0.43812070505E+03  0.12500000000E+03 0.  0.
         25    1    1    2    0    0  0.15617065297E+02 -0.24440974398E+03  0.25186684191E+03  0.37288325484E+03  0.12500000000E+03 0.  0.
         25    1    1    2    0    0 -0.10501600146E+03 -0.88795541968E+02 -0.30785188718E+03  0.35959809966E+03  0.12500000000E+03 0.  0.
</event>
<event>
 5    0  0.5597833E-005  0.4464628E+03  0.7546771E-02  0.1028782E+00
         21   -1    0    0  502  501  0.00000000000E+00  0.00000000000E+00  0.37212143475E+03  0.37212143475E+03  0.00000000000E+00 0.  1.
         21   -1    0    0  501  502 -0.00000000000E+00 -0.00000000000E+00 -0.53565582120E+03  0.53565582120E+03  0.00000000000E+00 0.  1.
         25    1    1    2    0    0  0.78082272653E+02 -0.14229375532E+03  0.91341025999E+02  0.22430456334E+03  0.12500000000E+03 0.  0.
         25    1    1    2    0    0 -0.16365351821E+03 -0.17452640453E+03 -0.17987710687E+03  0.32438050724E+03  0.12500000000E+03 0.  0.
         25    1    1    2    0    0  0.85571245555E+02  0.31682015985E+03 -0.74998305586E+02  0.35909218537E+03  0.12500000000E+03 0.  0.
</event>
<event>
 5    0  0.5597833E-005  0.2498559E+03  0.7546771E-02  0.1113396E+00
         21   -1    0    0  502  501  0.00000000000E+00  0.00000000000E+00  0.35510229250E+03  0.35510229250E+03  0.00000000000E+00 0. -1.
         21   -1    0    0  501  502 -0.00000000000E+00 -0.00000000000E+00 -0.17580280678E+03  0.17580280678E+03  0.00000000000E+00 0. -1.
         25    1    1    2    0    0 -0.89592514920E+01 -0.14534249625E+03  0.38694155557E+02  0.19577269237E+03  0.12500000000E+03 0.  0.
         25    1    1    2    0    0  0.33537180349E+02  0.11490515126E+03  0.85440449967E+02  0.19301037988E+03  0.12500000000E+03 0.  0.
         25    1    1    2    0    0 -0.24577928857E+02  0.30437344993E+02  0.55164880196E+02  0.14212202702E+03  0.12500000000E+03 0.  0.
</event>
<event>
 5    0  0.5597833E-005  0.2918430E+03  0.7546771E-02  0.1089391E+00
         21   -1    0    0  502  501  0.00000000000E+00  0.00000000000E+00  0.26121926050E+03  0.26121926050E+03  0.00000000000E+00 0.  1.
         21   -1    0    0  501  502 -0.00000000000E+00 -0.00000000000E+00 -0.32605688725E+03  0.32605688725E+03  0.00000000000E+00 0.  1.
         25    1    1    2    0    0 -0.73074961107E+01  0.21890221896E+02 -0.10910789050E+03  0.16751750083E+03  0.12500000000E+03 0.  0.
         25    1    1    2    0    0  0.72656797471E+02  0.10615332217E+03  0.11886053400E+03  0.21517519506E+03  0.12500000000E+03 0.  0.
         25    1    1    2    0    0 -0.65349301360E+02 -0.12804354406E+03 -0.74590270249E+02  0.20458345187E+03  0.12500000000E+03 0.  0.
</event>
<event>
 5    0  0.5597833E-005  0.3144058E+03  0.7546771E-02  0.1078253E+00
         21   -1    0    0  502  501  0.00000000000E+00  0.00000000000E+00  0.30092257727E+03  0.30092257727E+03  0.00000000000E+00 0. -1.
         21   -1    0    0  501  502 -0.00000000000E+00 -0.00000000000E+00 -0.32849306257E+03  0.32849306257E+03  0.00000000000E+00 0. -1.
         25    1    1    2    0    0  0.98258083137E+02 -0.30527946611E+02 -0.65077353239E+02  0.17448973704E+03  0.12500000000E+03 0.  0.
         25    1    1    2    0    0  0.33681525351E+02 -0.11914410494E+03 -0.78257899398E+02  0.19255924208E+03  0.12500000000E+03 0.  0.
         25    1    1    2    0    0 -0.13193960849E+03  0.14967205155E+03  0.11576476734E+03  0.26236666073E+03  0.12500000000E+03 0.  0.
</event>
<event>
 5    0  0.5597833E-005  0.3115821E+03  0.7546771E-02  0.1079590E+00
         21   -1    0    0  502  501  0.00000000000E+00  0.00000000000E+00  0.20136953482E+03  0.20136953482E+03  0.00000000000E+00 0.  1.
         21   -1    0    0  501  502 -0.00000000000E+00 -0.00000000000E+00 -0.48211568759E+03  0.48211568759E+03  0.00000000000E+00 0.  1.
         25    1    1    2    0    0 -0.10921312240E+03  0.10837404291E+03 -0.16516896225E+03  0.25802756708E+03  0.12500000000E+03 0.  0.
         25    1    1    2    0    0 -0.89822233719E+02 -0.44282887672E+02 -0.80731012553E+02  0.17936416643E+03  0.12500000000E+03 0.  0.
         25    1    1    2    0    0  0.19903535612E+03 -0.64091155236E+02 -0.34846177968E+02  0.24609348891E+03  0.12500000000E+03 0.  0.
</event>
<event>
 5    0  0.5597833E-005  0.3837963E+03  0.7546771E-02  0.1049539E+00
         21   -1    0    0  502  501  0.00000000000E+00  0.00000000000E+00  0.38866557351E+03  0.38866557351E+03  0.00000000000E+00 0. -1.
         21   -1    0    0  501  502 -0.00000000000E+00 -0.00000000000E+00 -0.37898799447E+03  0.37898799447E+03  0.00000000000E+00 0. -1.
         25    1    1    2    0    0  0.15063730894E+03 -0.34556618066E+02 -0.10329989405E+03  0.22401255949E+03  0.12500000000E+03 0.  0.
         25    1    1    2    0    0 -0.23114314509E+03 -0.12756773655E+03  0.13646877013E+03  0.32241185795E+03  0.12500000000E+03 0.  0.
         25    1    1    2    0    0  0.80505836143E+02  0.16212435461E+03 -0.23491297034E+02  0.22122915054E+03  0.12500000000E+03 0.  0.
</event>
<event>
 5    0  0.5597833E-005  0.3778556E+03  0.7546771E-02  0.1051729E+00
         21   -1    0    0  502  501  0.00000000000E+00  0.00000000000E+00  0.10500098605E+03  0.10500098605E+03  0.00000000000E+00 0.  1.
         21   -1    0    0  501  502 -0.00000000000E+00 -0.00000000000E+00 -0.13597475337E+04  0.13597475337E+04  0.00000000000E+00 0.  1.
         25    1    1    2    0    0  0.50758350204E+01  0.22192960335E+03 -0.44368623117E+03  0.51162582488E+03  0.12500000000E+03 0.  0.
         25    1    1    2    0    0  0.15995189760E+03 -0.20005159278E+03 -0.38597361607E+03  0.47979775075E+03  0.12500000000E+03 0.  0.
         25    1    1    2    0    0 -0.16502773262E+03 -0.21878010576E+02 -0.42508670037E+03  0.47332494411E+03  0.12500000000E+03 0.  0.
</event>
<event>
 5    0  0.5597833E-005  0.2540896E+03  0.7546771E-02  0.1110747E+00
         21   -1    0    0  502  501  0.00000000000E+00  0.00000000000E+00  0.50239967467E+03  0.50239967467E+03  0.00000000000E+00 0. -1.
         21   -1    0    0  501  502 -0.00000000000E+00 -0.00000000000E+00 -0.12850627535E+03  0.12850627535E+03  0.00000000000E+00 0. -1.
         25    1    1    2    0    0 -0.78170791275E+02 -0.30975197677E+02  0.10959113774E+03  0.18629372762E+03  0.12500000000E+03 0.  0.
         25    1    1    2    0    0 -0.10861578454E+02  0.87730376210E+02  0.25618334694E+02  0.15522851500E+03  0.12500000000E+03 0.  0.
         25    1    1    2    0    0  0.89032369729E+02 -0.56755178533E+02  0.23868392689E+03  0.28938370740E+03  0.12500000000E+03 0.  0.
</event>
<event>
 5    0  0.5597833E-005  0.2999733E+03  0.7546771E-02  0.1085254E+00
         21   -1    0    0  502  501  0.00000000000E+00  0.00000000000E+00  0.18284984365E+03  0.18284984365E+03  0.00000000000E+00 0. -1.
         21   -1    0    0  501  502 -0.00000000000E+00 -0.00000000000E+00 -0.49211947014E+03  0.49211947014E+03  0.00000000000E+00 0. -1.
         25    1    1    2    0    0 -0.66108416589E+02 -0.40452108107E+02 -0.30567558851E+03  0.33921860386E+03  0.12500000000E+03 0.  0.
         25    1    1    2    0    0  0.70499911888E+02  0.12035999105E+03 -0.95647688855E+00  0.18730371024E+03  0.12500000000E+03 0.  0.
         25    1    1    2    0    0 -0.43914952991E+01 -0.79907882941E+02 -0.26375610891E+01  0.14844699969E+03  0.12500000000E+03 0.  0.
</event>
<event>
 5    0  0.5597833E-005  0.4393178E+03  0.7546771E-02  0.1030956E+00
         21   -1    0    0  502  501  0.00000000000E+00  0.00000000000E+00  0.18492888794E+03  0.18492888794E+03  0.00000000000E+00 0.  1.
         21   -1    0    0  501  502 -0.00000000000E+00 -0.00000000000E+00 -0.10436448739E+04  0.10436448739E+04  0.00000000000E+00 0.  1.
         25    1    1    2    0    0 -0.89839378811E+02 -0.24250590066E+03 -0.39863532116E+02  0.28999021886E+03  0.12500000000E+03 0.  0.
         25    1    1    2    0    0  0.19005516188E+03  0.14221401374E+03 -0.44352218392E+03  0.51834613714E+03  0.12500000000E+03 0.  0.
         25    1    1    2    0    0 -0.10021578307E+03  0.10029188692E+03 -0.37533026996E+03  0.42023740589E+03  0.12500000000E+03 0.  0.
</event>
<event>
 5    0  0.5597833E-005  0.2690527E+03  0.7546771E-02  0.1101823E+00
         21   -1    0    0  502  501  0.00000000000E+00  0.00000000000E+00  0.31131262566E+03  0.31131262566E+03  0.00000000000E+00 0. -1.
         21   -1    0    0  501  502 -0.00000000000E+00 -0.00000000000E+00 -0.23252937471E+03  0.23252937471E+03  0.00000000000E+00 0. -1.
         25    1    1    2    0    0  0.25840222783E+02  0.65804884278E+02  0.40373873706E+02  0.14917456079E+03  0.12500000000E+03 0.  0.
         25    1    1    2    0    0 -0.15097630107E+03 -0.27566815096E+02  0.71985514709E+02  0.21061976903E+03  0.12500000000E+03 0.  0.
         25    1    1    2    0    0  0.12513607829E+03 -0.38238069182E+02 -0.33576137465E+02  0.18404767054E+03  0.12500000000E+03 0.  0.
</event>
<event>
 5    0  0.5597833E-005  0.5183104E+03  0.7546771E-02  0.1009107E+00
         21   -1    0    0  502  501  0.00000000000E+00  0.00000000000E+00  0.50355242539E+03  0.50355242539E+03  0.00000000000E+00 0. -1.
         21   -1    0    0  501  502 -0.00000000000E+00 -0.00000000000E+00 -0.53350095257E+03  0.53350095257E+03  0.00000000000E+00 0. -1.
         25    1    1    2    0    0  0.21269833025E+03 -0.20728917496E+03  0.87412753493E+02  0.33387927642E+03  0.12500000000E+03 0.  0.
         25    1    1    2    0    0 -0.30625202377E+03  0.16636710612E+03  0.14293810243E+03  0.39689371019E+03  0.12500000000E+03 0.  0.
         25    1    1    2    0    0  0.93553693511E+02  0.40922068843E+02 -0.26029938310E+03  0.30628039136E+03  0.12500000000E+03 0.  0.
</event>
<event>
 5    0  0.5597833E-005  0.4050533E+03  0.7546771E-02  0.1042044E+00
         21   -1    0    0  502  501  0.00000000000E+00  0.00000000000E+00  0.10808166850E+03  0.10808166850E+03  0.00000000000E+00 0.  1.
         21   -1    0    0  501  502 -0.00000000000E+00 -0.00000000000E+00 -0.15180021886E+04  0.15180021886E+04  0.00000000000E+00 0.  1.
         25    1    1    2    0    0 -0.38795797479E+02  0.90404943408E+02 -0.74703504605E+03  0.76378303707E+03  0.12500000000E+03 0.  0.
         25    1    1    2    0    0  0.12393303431E+03 -0.26597536751E+03 -0.36060677623E+03  0.48141929768E+03  0.12500000000E+03 0.  0.
         25    1    1    2    0    0 -0.85137236831E+02  0.17557042410E+03 -0.30227869783E+03  0.38088152236E+03  0.12500000000E+03 0.  0.
</event>
<event>
 5    0  0.5597833E-005  0.2587569E+03  0.7546771E-02  0.1107892E+00
         21   -1    0    0  502  501  0.00000000000E+00  0.00000000000E+00  0.22054906264E+03  0.22054906264E+03  0.00000000000E+00 0.  1.
         21   -1    0    0  501  502 -0.00000000000E+00 -0.00000000000E+00 -0.30358395683E+03  0.30358395683E+03  0.00000000000E+00 0.  1.
         25    1    1    2    0    0 -0.23182623293E+02 -0.30865896812E+02 -0.48069832155E+02  0.13937663496E+03  0.12500000000E+03 0.  0.
         25    1    1    2    0    0  0.10685457965E+03  0.11200652401E+03  0.31369400720E+02  0.20142592166E+03  0.12500000000E+03 0.  0.
         25    1    1    2    0    0 -0.83671956360E+02 -0.81140627199E+02 -0.66334462757E+02  0.18333046286E+03  0.12500000000E+03 0.  0.
</event>
<event>
 5    0  0.5597833E-005  0.3866633E+03  0.7546771E-02  0.1048498E+00
         21   -1    0    0  502  501  0.00000000000E+00  0.00000000000E+00  0.27816775487E+04  0.27816775487E+04  0.00000000000E+00 0. -1.
         21   -1    0    0  501  502 -0.00000000000E+00 -0.00000000000E+00 -0.53747613829E+02  0.53747613829E+02  0.00000000000E+00 0. -1.
         25    1    1    2    0    0  0.32017482294E+02 -0.10571775384E+03  0.19754517882E+03  0.25855455967E+03  0.12500000000E+03 0.  0.
         25    1    1    2    0    0  0.10670490255E+03 -0.11237786659E+03  0.11199320694E+04  0.11374917852E+04  0.12500000000E+03 0.  0.
         25    1    1    2    0    0 -0.13872238485E+03  0.21809562043E+03  0.14104526866E+04  0.14393788177E+04  0.12500000000E+03 0.  0.
</event>
<event>
 5    0  0.5597833E-005  0.2925109E+03  0.7546771E-02  0.1089045E+00
         21   -1    0    0  502  501  0.00000000000E+00  0.00000000000E+00  0.60153825543E+02  0.60153825543E+02  0.00000000000E+00 0. -1.
         21   -1    0    0  501  502 -0.00000000000E+00 -0.00000000000E+00 -0.14223966269E+04  0.14223966269E+04  0.00000000000E+00 0. -1.
         25    1    1    2    0    0 -0.86512782547E+02 -0.43951043282E+02 -0.41179539731E+03  0.44115372037E+03  0.12500000000E+03 0.  0.
         25    1    1    2    0    0  0.15390854223E+03  0.14102830718E+03 -0.44070428935E+03  0.50341046220E+03  0.12500000000E+03 0.  0.
         25    1    1    2    0    0 -0.67395759685E+02 -0.97077263903E+02 -0.50974311465E+03  0.53798626982E+03  0.12500000000E+03 0.  0.
</event>
<event>
 5    0  0.5597833E-005  0.4753291E+03  0.7546771E-02  0.1020427E+00
         21   -1    0    0  502  501  0.00000000000E+00  0.00000000000E+00  0.62310800693E+03  0.62310800693E+03  0.00000000000E+00 0.  1.
         21   -1    0    0  501  502 -0.00000000000E+00 -0.00000000000E+00 -0.36259809791E+03  0.36259809791E+03  0.00000000000E+00 0.  1.
         25    1    1    2    0    0 -0.10847394519E+03  0.34094048249E+02  0.15146977649E+03  0.22692971181E+03  0.12500000000E+03 0.  0.
         25    1    1    2    0    0  0.11459056077E+03  0.32592857393E+03  0.83464517324E+02  0.37676485713E+03  0.12500000000E+03 0.  0.
         25    1    1    2    0    0 -0.61166155775E+01 -0.36002262218E+03  0.25575615203E+02  0.38201153590E+03  0.12500000000E+03 0.  0.
</event>
<event>
 5    0  0.5597833E-005  0.4459704E+03  0.7546771E-02  0.1028931E+00
         21   -1    0    0  502  501  0.00000000000E+00  0.00000000000E+00  0.11755670984E+04  0.11755670984E+04  0.00000000000E+00 0. -1.
         21   -1    0    0  501  502 -0.00000000000E+00 -0.00000000000E+00 -0.16918607120E+03  0.16918607120E+03  0.00000000000E+00 0. -1.
         25    1    1    2    0    0 -0.26192697133E+03 -0.41715340210E+02  0.36565116360E+03  0.46869145646E+03  0.12500000000E+03 0.  0.
         25    1    1    2    0    0 -0.12813692815E+02  0.19314372816E+03  0.39903723643E+03  0.46078672562E+03  0.12500000000E+03 0.  0.
         25    1    1    2    0    0  0.27474066415E+03 -0.15142838795E+03  0.24169262713E+03  0.41527498747E+03  0.12500000000E+03 0.  0.
</event>
<event>
 5    0  0.6007068E-005  0.4968233E+03  0.7546771E-02  0.1014611E+00
         21   -1    0    0  502  501  0.00000000000E+00  0.00000000000E+00  0.15515587411E+03  0.15515587411E+03  0.00000000000E+00 0.  1.
         21   -1    0    0  501  502 -0.00000000000E+00 -0.00000000000E+00 -0.15908738455E+04  0.15908738455E+04  0.00000000000E+00 0.  1.
         25    1    1    2    0    0  0.29521208936E+03  0.59852395942E+02 -0.70029987220E+03  0.77251368791E+03  0.12500000000E+03 0.  0.
         25    1    1    2    0    0 -0.79506857187E+02 -0.94785951051E+02  0.20236070086E+02  0.17703167905E+03  0.12500000000E+03 0.  0.
         25    1    1    2    0    0 -0.21570523217E+03  0.34933555108E+02 -0.75565416926E+03  0.79648435263E+03  0.12500000000E+03 0.  0.
</event>
<event>
 5    0  0.5597833E-005  0.2753185E+03  0.7546771E-02  0.1098274E+00
         21   -1    0    0  502  501  0.00000000000E+00  0.00000000000E+00  0.37660243546E+03  0.37660243546E+03  0.00000000000E+00 0.  1.
         21   -1    0    0  501  502 -0.00000000000E+00 -0.00000000000E+00 -0.20127399218E+03  0.20127399218E+03  0.00000000000E+00 0.  1.
         25    1    1    2    0    0 -0.14829438119E+02 -0.16379605341E+03  0.11201849336E+03  0.23499404716E+03  0.12500000000E+03 0.  0.
         25    1    1    2    0    0 -0.67133047613E+02  0.88030792742E+02  0.52148265217E+02  0.17493058085E+03  0.12500000000E+03 0.  0.
         25    1    1    2    0    0  0.81962485733E+02  0.75765260670E+02  0.11161684703E+02  0.16795179962E+03  0.12500000000E+03 0.  0.
</event>
<event>
 5    0  0.5597833E-005  0.3021239E+03  0.7546771E-02  0.1084184E+00
         21   -1    0    0  502  501  0.00000000000E+00  0.00000000000E+00  0.20935068449E+03  0.20935068449E+03  0.00000000000E+00 0. -1.
         21   -1    0    0  501  502 -0.00000000000E+00 -0.00000000000E+00 -0.43600940899E+03  0.43600940899E+03  0.00000000000E+00 0. -1.
         25    1    1    2    0    0  0.36610041421E+02  0.88021083959E+02 -0.16645091319E+03  0.22895176971E+03  0.12500000000E+03 0.  0.
         25    1    1    2    0    0  0.11966681932E+03 -0.10158075988E+03 -0.77459858574E+02  0.21509027899E+03  0.12500000000E+03 0.  0.
         25    1    1    2    0    0 -0.15627686075E+03  0.13559675921E+02  0.17252047258E+02  0.20131804477E+03  0.12500000000E+03 0.  0.
</event>
<event>
 5    0  0.5597833E-005  0.3625463E+03  0.7546771E-02  0.1057580E+00
         21   -1    0    0  502  501  0.00000000000E+00  0.00000000000E+00  0.89900514227E+03  0.89900514227E+03  0.00000000000E+00 0.  1.
         21   -1    0    0  501  502 -0.00000000000E+00 -0.00000000000E+00 -0.14620585095E+03  0.14620585095E+03  0.00000000000E+00 0.  1.
         25    1    1    2    0    0 -0.99938639712E+02 -0.24286281243E+02 -0.25655231224E+02  0.16389248321E+03  0.12500000000E+03 0.  0.
         25    1    1    2    0    0 -0.39214481068E+01 -0.12662699001E+03  0.23845274828E+03  0.29754745087E+03  0.12500000000E+03 0.  0.
         25    1    1    2    0    0  0.10386008782E+03  0.15091327125E+03  0.54000177426E+03  0.58377105914E+03  0.12500000000E+03 0.  0.
</event>
<event>
 5    0  0.5597833E-005  0.2469974E+03  0.7546771E-02  0.1115217E+00
         21   -1    0    0  502  501  0.00000000000E+00  0.00000000000E+00  0.39738381500E+02  0.39738381500E+02  0.00000000000E+00 0. -1.
         21   -1    0    0  501  502 -0.00000000000E+00 -0.00000000000E+00 -0.15352342144E+04  0.15352342144E+04  0.00000000000E+00 0. -1.
         25    1    1    2    0    0 -0.30800276450E+01 -0.48234864443E+02 -0.60023593159E+03  0.61501566019E+03  0.12500000000E+03 0.  0.
         25    1    1    2    0    0 -0.53976320796E+02  0.93636447824E+02 -0.25732542825E+03  0.30581465562E+03  0.12500000000E+03 0.  0.
         25    1    1    2    0    0  0.57056348441E+02 -0.45401583381E+02 -0.63793447306E+03  0.65414228008E+03  0.12500000000E+03 0.  0.
</event>
<event>
 5    0  0.5597833E-005  0.2459468E+03  0.7546771E-02  0.1115893E+00
         21   -1    0    0  502  501  0.00000000000E+00  0.00000000000E+00  0.12666627511E+03  0.12666627511E+03  0.00000000000E+00 0.  1.
         21   -1    0    0  501  502 -0.00000000000E+00 -0.00000000000E+00 -0.47755280067E+03  0.47755280067E+03  0.00000000000E+00 0.  1.
         25    1    1    2    0    0 -0.67367721500E+02  0.16730374263E+02 -0.11891040112E+03  0.18596504730E+03  0.12500000000E+03 0.  0.
         25    1    1    2    0    0  0.52642750411E+02  0.10504850610E+03 -0.96480609055E+02  0.19682468272E+03  0.12500000000E+03 0.  0.
         25    1    1    2    0    0  0.14724971089E+02 -0.12177888036E+03 -0.13549551538E+03  0.22142934576E+03  0.12500000000E+03 0.  0.
</event>
<event>
 5    0  0.5597833E-005  0.3292787E+03  0.7546771E-02  0.1071456E+00
         21   -1    0    0  502  501  0.00000000000E+00  0.00000000000E+00  0.90431680928E+03  0.90431680928E+03  0.00000000000E+00 0.  1.
         21   -1    0    0  501  502 -0.00000000000E+00 -0.00000000000E+00 -0.11989654190E+03  0.11989654190E+03  0.00000000000E+00 0.  1.
         25    1    1    2    0    0 -0.79313213624E+02 -0.75884890995E+02  0.11495979114E+03  0.20221240346E+03  0.12500000000E+03 0.  0.
         25    1    1    2    0    0  0.12945320129E+03 -0.98301936578E+02  0.13917999696E+03  0.24782549024E+03  0.12500000000E+03 0.  0.
         25    1    1    2    0    0 -0.50139987662E+02  0.17418682757E+03  0.53028047928E+03  0.57417545748E+03  0.12500000000E+03 0.  0.
</event>
<event>
 5    0  0.5597833E-005  0.3958691E+03  0.7546771E-02  0.1045220E+00
         21   -1    0    0  502  501  0.00000000000E+00  0.00000000000E+00  0.19853826744E+03  0.19853826744E+03  0.00000000000E+00 0. -1.
         21   -1    0    0  501  502 -0.00000000000E+00 -0.00000000000E+00 -0.78933061413E+03  0.78933061413E+03  0.00000000000E+00 0.  1.
         25    1    1    2    0    0 -0.61081464297E+02 -0.24199199066E+03 -0.51058965166E+03  0.58190880833E+03  0.12500000000E+03 0.  0.
         25    1    1    2    0    0 -0.87592870917E+01  0.18891192747E+03 -0.10740084552E+03  0.25084733020E+03  0.12500000000E+03 0.  0.
         25    1    1    2    0    0  0.69840751388E+02  0.53080063188E+02  0.27198150497E+02  0.15511274304E+03  0.12500000000E+03 0.  0.
</event>
<event>
 5    0  0.5597833E-005  0.3411540E+03  0.7546771E-02  0.1066306E+00
         21   -1    0    0  502  501  0.00000000000E+00  0.00000000000E+00  0.12168763149E+03  0.12168763149E+03  0.00000000000E+00 0.  1.
         21   -1    0    0  501  502 -0.00000000000E+00 -0.00000000000E+00 -0.95643267981E+03  0.95643267981E+03  0.00000000000E+00 0.  1.
         25    1    1    2    0    0  0.48060593044E+02 -0.23570544847E+03 -0.15903350104E+03  0.31429847835E+03  0.12500000000E+03 0.  0.
         25    1    1    2    0    0 -0.48241907578E+02  0.12110863796E+03 -0.41764965928E+03  0.45502837465E+03  0.12500000000E+03 0.  0.
         25    1    1    2    0    0  0.18131453356E+00  0.11459681051E+03 -0.25806188800E+03  0.30879345831E+03  0.12500000000E+03 0.  0.
</event>
<event>
 5    0  0.5781464E-005  0.5386368E+03  0.7546771E-02  0.1004159E+00
         21   -1    0    0  502  501  0.00000000000E+00  0.00000000000E+00  0.54591796467E+03  0.54591796467E+03  0.00000000000E+00 0. -1.
         21   -1    0    0  501  502 -0.00000000000E+00 -0.00000000000E+00 -0.53145283920E+03  0.53145283920E+03  0.00000000000E+00 0. -1.
         25    1    1    2    0    0 -0.22538024232E+03  0.11244106899E+03 -0.10393457005E+03  0.29977765506E+03  0.12500000000E+03 0.  0.
         25    1    1    2    0    0  0.39699096304E+02  0.15692381627E+03  0.31529299308E+03  0.37581348279E+03  0.12500000000E+03 0.  0.
         25    1    1    2    0    0  0.18568114602E+03 -0.26936488526E+03 -0.19689329756E+03  0.40177966602E+03  0.12500000000E+03 0.  0.
</event>
<event>
 5    0  0.5597833E-005  0.3356268E+03  0.7546771E-02  0.1068674E+00
         21   -1    0    0  502  501  0.00000000000E+00  0.00000000000E+00  0.12092520067E+04  0.12092520067E+04  0.00000000000E+00 0. -1.
         21   -1    0    0  501  502 -0.00000000000E+00 -0.00000000000E+00 -0.93152933437E+02  0.93152933437E+02  0.00000000000E+00 0. -1.
         25    1    1    2    0    0  0.12841234311E+03  0.13835799201E+03  0.14821170980E+03  0.27060002723E+03  0.12500000000E+03 0.  0.
         25    1    1    2    0    0 -0.86037120601E+02  0.17450677259E+02  0.38567871499E+03  0.41482524448E+03  0.12500000000E+03 0.  0.
         25    1    1    2    0    0 -0.42375222508E+02 -0.15580866927E+03  0.58220864847E+03  0.61697966843E+03  0.12500000000E+03 0.  0.
</event>
<event>
 5    0  0.5597833E-005  0.3046517E+03  0.7546771E-02  0.1082938E+00
         21   -1    0    0  502  501  0.00000000000E+00  0.00000000000E+00  0.32066430085E+02  0.32066430085E+02  0.00000000000E+00 0. -1.
         21   -1    0    0  501  502 -0.00000000000E+00 -0.00000000000E+00 -0.28943865796E+04  0.28943865796E+04  0.00000000000E+00 0. -1.
         25    1    1    2    0    0  0.11717425590E+03  0.10854959544E+03 -0.76120789328E+03  0.78776600441E+03  0.12500000000E+03 0.  0.
         25    1    1    2    0    0 -0.16769353769E+02  0.32865166831E+02 -0.13909784023E+04  0.13970709524E+04  0.12500000000E+03 0.  0.
         25    1    1    2    0    0 -0.10040490213E+03 -0.14141476227E+03 -0.71013385402E+03  0.74161605294E+03  0.12500000000E+03 0.  0.
</event>
<event>
 5    0  0.5597833E-005  0.3871836E+03  0.7546771E-02  0.1048310E+00
         21   -1    0    0  502  501  0.00000000000E+00  0.00000000000E+00  0.45407654326E+03  0.45407654326E+03  0.00000000000E+00 0.  1.
         21   -1    0    0  501  502 -0.00000000000E+00 -0.00000000000E+00 -0.33014502316E+03  0.33014502316E+03  0.00000000000E+00 0.  1.
         25    1    1    2    0    0 -0.13982040014E+03 -0.14748033650E+03  0.27876864344E+03  0.36692935357E+03  0.12500000000E+03 0.  0.
         25    1    1    2    0    0  0.54303220397E+02  0.10328670218E+03 -0.19003205589E+03  0.25564460655E+03  0.12500000000E+03 0.  0.
         25    1    1    2    0    0  0.85517179740E+02  0.44193634324E+02  0.35194932553E+02  0.16164760630E+03  0.12500000000E+03 0.  0.
</event>
<event>
 5    0  0.5597833E-005  0.2980621E+03  0.7546771E-02  0.1086213E+00
         21   -1    0    0  502  501  0.00000000000E+00  0.00000000000E+00  0.12408987019E+04  0.12408987019E+04  0.00000000000E+00 0.  1.
         21   -1    0    0  501  502 -0.00000000000E+00 -0.00000000000E+00 -0.71594106237E+02  0.71594106237E+02  0.00000000000E+00 0.  1.
         25    1    1    2    0    0  0.10404662024E+03 -0.14695892032E+03  0.39428807624E+03  0.45112161388E+03  0.12500000000E+03 0.  0.
         25    1    1    2    0    0  0.38879520663E+01  0.68020589758E+02  0.13684808125E+03  0.19746978033E+03  0.12500000000E+03 0.  0.
         25    1    1    2    0    0 -0.10793457231E+03  0.78938330559E+02  0.63816843816E+03  0.66390141391E+03  0.12500000000E+03 0.  0.
</event>
<event>
 5    0  0.5597833E-005  0.6878328E+03  0.7546771E-02  0.9738269E-01
         21   -1    0    0  502  501  0.00000000000E+00  0.00000000000E+00  0.35532451995E+03  0.35532451995E+03  0.00000000000E+00 0.  1.
         21   -1    0    0  501  502 -0.00000000000E+00 -0.00000000000E+00 -0.13314981530E+04  0.13314981530E+04  0.00000000000E+00 0.  1.
         25    1    1    2    0    0  0.32426410843E+03 -0.72421308641E+02 -0.41251501409E+03  0.54422945052E+03  0.12500000000E+03 0.  0.
         25    1    1    2    0    0 -0.12985355036E+03  0.16307078293E+03  0.21549954397E+03  0.32483700256E+03  0.12500000000E+03 0.  0.
         25    1    1    2    0    0 -0.19441055807E+03 -0.90649474285E+02 -0.77915816297E+03  0.81775621990E+03  0.12500000000E+03 0.  0.
</event>
<event>
 5    0  0.5597833E-005  0.2615273E+03  0.7546771E-02  0.1106229E+00
         21   -1    0    0  502  501  0.00000000000E+00  0.00000000000E+00  0.32792979308E+03  0.32792979308E+03  0.00000000000E+00 0.  1.
         21   -1    0    0  501  502 -0.00000000000E+00 -0.00000000000E+00 -0.20857069227E+03  0.20857069227E+03  0.00000000000E+00 0.  1.
         25    1    1    2    0    0 -0.56190487155E+02  0.70830353999E+02  0.73457150936E+02  0.17086621351E+03  0.12500000000E+03 0.  0.
         25    1    1    2    0    0 -0.25275203334E+02  0.69704001624E+02 -0.27510704290E+02  0.14791660690E+03  0.12500000000E+03 0.  0.
         25    1    1    2    0    0  0.81465690489E+02 -0.14053435562E+03  0.73412654166E+02  0.21771766494E+03  0.12500000000E+03 0.  0.
</event>
<event>
 5    0  0.5597833E-005  0.2973157E+03  0.7546771E-02  0.1086590E+00
         21   -1    0    0  502  501  0.00000000000E+00  0.00000000000E+00  0.82107006156E+03  0.82107006156E+03  0.00000000000E+00 0.  1.
         21   -1    0    0  501  502 -0.00000000000E+00 -0.00000000000E+00 -0.10766024700E+03  0.10766024700E+03  0.00000000000E+00 0.  1.
         25    1    1    2    0    0 -0.59539837901E+02 -0.11783768661E+03  0.16206431486E+03  0.24355811388E+03  0.12500000000E+03 0.  0.
         25    1    1    2    0    0  0.48465712301E+02 -0.78653518457E+02  0.12588000300E+03  0.20001519040E+03  0.12500000000E+03 0.  0.
         25    1    1    2    0    0  0.11074125601E+02  0.19649120507E+03  0.42546549670E+03  0.48515700429E+03  0.12500000000E+03 0.  0.
</event>
<event>
 5    0  0.5597833E-005  0.2642927E+03  0.7546771E-02  0.1104591E+00
         21   -1    0    0  502  501  0.00000000000E+00  0.00000000000E+00  0.71009724015E+03  0.71009724015E+03  0.00000000000E+00 0. -1.
         21   -1    0    0  501  502 -0.00000000000E+00 -0.00000000000E+00 -0.98367722906E+02  0.98367722906E+02  0.00000000000E+00 0. -1.
         25    1    1    2    0    0  0.65948148229E+02  0.12280897692E+03  0.11244141681E+03  0.21840163754E+03  0.12500000000E+03 0.  0.
         25    1    1    2    0    0  0.19151624662E+02 -0.24815984301E+02  0.15589923567E+03  0.20226761848E+03  0.12500000000E+03 0.  0.
         25    1    1    2    0    0 -0.85099772891E+02 -0.97992992618E+02  0.34338886477E+03  0.38779570703E+03  0.12500000000E+03 0.  0.
</event>
<event>
 5    0  0.5597833E-005  0.3834552E+03  0.7546771E-02  0.1049664E+00
         21   -1    0    0  502  501  0.00000000000E+00  0.00000000000E+00  0.11607271223E+03  0.11607271223E+03  0.00000000000E+00 0.  1.
         21   -1    0    0  501  502 -0.00000000000E+00 -0.00000000000E+00 -0.12667737769E+04  0.12667737769E+04  0.00000000000E+00 0.  1.
         25    1    1    2    0    0  0.11388639934E+03 -0.22996277918E+02 -0.43541843375E+03  0.46766778080E+03  0.12500000000E+03 0.  0.
         25    1    1    2    0    0 -0.11810396463E+03  0.23017898410E+03 -0.21310222801E+03  0.35772681024E+03  0.12500000000E+03 0.  0.
         25    1    1    2    0    0  0.42175652942E+01 -0.20718270618E+03 -0.50218040288E+03  0.55745189804E+03  0.12500000000E+03 0.  0.
</event>
<event>
 5    0  0.5597833E-005  0.2688052E+03  0.7546771E-02  0.1101965E+00
         21   -1    0    0  502  501  0.00000000000E+00  0.00000000000E+00  0.28261930021E+03  0.28261930021E+03  0.00000000000E+00 0.  1.
         21   -1    0    0  501  502 -0.00000000000E+00 -0.00000000000E+00 -0.25566633108E+03  0.25566633108E+03  0.00000000000E+00 0.  1.
         25    1    1    2    0    0  0.39957743114E+02  0.10756234442E+02  0.10738617584E+03  0.16990911858E+03  0.12500000000E+03 0.  0.
         25    1    1    2    0    0 -0.11258005484E+03  0.32562626809E+02  0.39225800495E+02  0.17577899999E+03  0.12500000000E+03 0.  0.
         25    1    1    2    0    0  0.72622311723E+02 -0.43318861251E+02 -0.11965900721E+03  0.19259751272E+03  0.12500000000E+03 0.  0.
</event>
<event>
 5    0  0.5597833E-005  0.3178517E+03  0.7546771E-02  0.1076642E+00
         21   -1    0    0  502  501  0.00000000000E+00  0.00000000000E+00  0.99024385338E+03  0.99024385338E+03  0.00000000000E+00 0.  1.
         21   -1    0    0  501  502 -0.00000000000E+00 -0.00000000000E+00 -0.10202507878E+03  0.10202507878E+03  0.00000000000E+00 0.  1.
         25    1    1    2    0    0  0.76559459503E+02 -0.12011734916E+03  0.36121357689E+03  0.40790902973E+03  0.12500000000E+03 0.  0.
         25    1    1    2    0    0  0.84243801463E+02 -0.14888935246E+02  0.35375128238E+03  0.38481640851E+03  0.12500000000E+03 0.  0.
         25    1    1    2    0    0 -0.16080326097E+03  0.13500628440E+03  0.17325391534E+03  0.29954349391E+03  0.12500000000E+03 0.  0.
</event>
<event>
 5    0  0.5597833E-005  0.3457395E+03  0.7546771E-02  0.1064377E+00
         21   -1    0    0  502  501  0.00000000000E+00  0.00000000000E+00  0.20617268883E+03  0.20617268883E+03  0.00000000000E+00 0.  1.
         21   -1    0    0  501  502 -0.00000000000E+00 -0.00000000000E+00 -0.57978487224E+03  0.57978487224E+03  0.00000000000E+00 0.  1.
         25    1    1    2    0    0  0.88046152711E+02  0.23242003759E+03 -0.90074829282E+01  0.27834750516E+03  0.12500000000E+03 0.  0.
         25    1    1    2    0    0 -0.35842657378E+02 -0.11929075828E+03 -0.17335619850E+03  0.24737088078E+03  0.12500000000E+03 0.  0.
         25    1    1    2    0    0 -0.52203495334E+02 -0.11312927931E+03 -0.19124850198E+03  0.26023917513E+03  0.12500000000E+03 0.  0.
</event>
<event>
 5    0  0.5597833E-005  0.2979794E+03  0.7546771E-02  0.1086255E+00
         21   -1    0    0  502  501  0.00000000000E+00  0.00000000000E+00  0.10950119717E+03  0.10950119717E+03  0.00000000000E+00 0.  1.
         21   -1    0    0  501  502 -0.00000000000E+00 -0.00000000000E+00 -0.81087460149E+03  0.81087460149E+03  0.00000000000E+00 0.  1.
         25    1    1    2    0    0 -0.15627074142E+03 -0.52108822353E+02 -0.36449448768E+03  0.41906694637E+03  0.12500000000E+03 0.  0.
         25    1    1    2    0    0  0.48980129680E+02  0.99607055092E+02 -0.26942705896E+03  0.31707500474E+03  0.12500000000E+03 0.  0.
         25    1    1    2    0    0  0.10729061174E+03 -0.47498232739E+02 -0.67451857674E+02  0.18423384755E+03  0.12500000000E+03 0.  0.
</event>
<event>
 5    0  0.5597833E-005  0.3058381E+03  0.7546771E-02  0.1082358E+00
         21   -1    0    0  502  501  0.00000000000E+00  0.00000000000E+00  0.11556111176E+03  0.11556111176E+03  0.00000000000E+00 0.  1.
         21   -1    0    0  501  502 -0.00000000000E+00 -0.00000000000E+00 -0.80941558737E+03  0.80941558737E+03  0.00000000000E+00 0.  1.
         25    1    1    2    0    0  0.16786071194E+02  0.64691695040E+02 -0.77628689745E+02  0.16161064651E+03  0.12500000000E+03 0.  0.
         25    1    1    2    0    0  0.28985330569E+02 -0.15496621822E+03 -0.10400758475E+03  0.22648897515E+03  0.12500000000E+03 0.  0.
         25    1    1    2    0    0 -0.45771401763E+02  0.90274523184E+02 -0.51221820112E+03  0.53687707747E+03  0.12500000000E+03 0.  0.
</event>
<event>
 5    0  0.6250887E-005  0.2819127E+03  0.7546771E-02  0.1094649E+00
         21   -1    0    0  502  501  0.00000000000E+00  0.00000000000E+00  0.41046652691E+03  0.41046652691E+03  0.00000000000E+00 0.  1.
         21   -1    0    0  501  502 -0.00000000000E+00 -0.00000000000E+00 -0.19362065406E+03  0.19362065406E+03  0.00000000000E+00 0.  1.
         25    1    1    2    0    0  0.35974308282E+02  0.66388512713E+02 -0.43788842905E+02  0.15245998898E+03  0.12500000000E+03 0.  0.
         25    1    1    2    0    0 -0.84259460270E+02  0.65517515670E+02  0.55817315987E+02  0.17358794390E+03  0.12500000000E+03 0.  0.
         25    1    1    2    0    0  0.48285151987E+02 -0.13190602838E+03  0.20481739977E+03  0.27803924808E+03  0.12500000000E+03 0.  0.
</event>
<event>
 5    0  0.5597833E-005  0.2709425E+03  0.7546771E-02  0.1100741E+00
         21   -1    0    0  502  501  0.00000000000E+00  0.00000000000E+00  0.14247788331E+03  0.14247788331E+03  0.00000000000E+00 0. -1.
         21   -1    0    0  501  502 -0.00000000000E+00 -0.00000000000E+00 -0.51523669600E+03  0.51523669600E+03  0.00000000000E+00 0. -1.
         25    1    1    2    0    0 -0.15163310577E+02  0.14467647400E+02 -0.86183308764E+02  0.15327035434E+03  0.12500000000E+03 0.  0.
         25    1    1    2    0    0  0.11627954169E+03  0.11653432148E+03 -0.16091529804E+03  0.26195402849E+03  0.12500000000E+03 0.  0.
         25    1    1    2    0    0 -0.10111623111E+03 -0.13100196888E+03 -0.12566020589E+03  0.24249019648E+03  0.12500000000E+03 0.  0.
</event>
<event>
 5    0  0.5597833E-005  0.2432274E+03  0.7546771E-02  0.1117661E+00
         21   -1    0    0  502  501  0.00000000000E+00  0.00000000000E+00  0.27451366850E+03  0.27451366850E+03  0.00000000000E+00 0. -1.
         21   -1    0    0  501  502 -0.00000000000E+00 -0.00000000000E+00 -0.21550690568E+03  0.21550690568E+03  0.00000000000E+00 0. -1.
         25    1    1    2    0    0  0.48314940628E+02 -0.67526997758E+02  0.45595052779E+02  0.15683793467E+03  0.12500000000E+03 0.  0.
         25    1    1    2    0    0  0.60078893841E+02  0.71843561590E+02 -0.36330119059E+02  0.16036161753E+03  0.12500000000E+03 0.  0.
         25    1    1    2    0    0 -0.10839383447E+03 -0.43165638321E+01  0.49741829107E+02  0.17282102198E+03  0.12500000000E+03 0.  0.
</event>
<event>
 5    0  0.5597833E-005  0.2412271E+03  0.7546771E-02  0.1118978E+00
         21   -1    0    0  502  501  0.00000000000E+00  0.00000000000E+00  0.34175501098E+03  0.34175501098E+03  0.00000000000E+00 0. -1.
         21   -1    0    0  501  502 -0.00000000000E+00 -0.00000000000E+00 -0.17026971315E+03  0.17026971315E+03  0.00000000000E+00 0. -1.
         25    1    1    2    0    0  0.39726771519E+01  0.13901135366E+02  0.63154081356E+02  0.14079226442E+03  0.12500000000E+03 0.  0.
         25    1    1    2    0    0  0.90361252282E+02  0.60990590228E+02  0.10748328796E+03  0.19764277169E+03  0.12500000000E+03 0.  0.
         25    1    1    2    0    0 -0.94333929434E+02 -0.74891725594E+02  0.84792850489E+00  0.17358968802E+03  0.12500000000E+03 0.  0.
</event>
<event>
 5    0  0.5597833E-005  0.3549462E+03  0.7546771E-02  0.1060603E+00
         21   -1    0    0  502  501  0.00000000000E+00  0.00000000000E+00  0.15327285705E+03  0.15327285705E+03  0.00000000000E+00 0. -1.
         21   -1    0    0  501  502 -0.00000000000E+00 -0.00000000000E+00 -0.82197726295E+03  0.82197726295E+03  0.00000000000E+00 0. -1.
         25    1    1    2    0    0 -0.52983387858E+02 -0.14834193991E+03 -0.48602219248E+03  0.52598017273E+03  0.12500000000E+03 0.  0.
         25    1    1    2    0    0  0.13159805482E+03  0.11687835908E+03 -0.47731305585E+01  0.21593142807E+03  0.12500000000E+03 0.  0.
         25    1    1    2    0    0 -0.78614666958E+02  0.31463580822E+02 -0.17790908286E+03  0.23333851920E+03  0.12500000000E+03 0.  0.
</event>
<event>
 5    0  0.6221935E-005  0.3101496E+03  0.7546771E-02  0.1080274E+00
         21   -1    0    0  502  501  0.00000000000E+00  0.00000000000E+00  0.83040307532E+03  0.83040307532E+03  0.00000000000E+00 0. -1.
         21   -1    0    0  501  502 -0.00000000000E+00 -0.00000000000E+00 -0.11583861955E+03  0.11583861955E+03  0.00000000000E+00 0. -1.
         25    1    1    2    0    0  0.19724859589E+03 -0.36485282968E+02  0.45781270221E+03  0.51522388800E+03  0.12500000000E+03 0.  0.
         25    1    1    2    0    0 -0.57280904984E+02  0.20212019854E+02  0.41617545386E+02  0.14507462875E+03  0.12500000000E+03 0.  0.
         25    1    1    2    0    0 -0.13996769091E+03  0.16273263114E+02  0.21513420817E+03  0.28594317813E+03  0.12500000000E+03 0.  0.
</event>
<event>
 5    0  0.5597833E-005  0.3323238E+03  0.7546771E-02  0.1070113E+00
         21   -1    0    0  502  501  0.00000000000E+00  0.00000000000E+00  0.12468351456E+04  0.12468351456E+04  0.00000000000E+00 0. -1.
         21   -1    0    0  501  502 -0.00000000000E+00 -0.00000000000E+00 -0.88575542992E+02  0.88575542992E+02  0.00000000000E+00 0. -1.
         25    1    1    2    0    0  0.16933848451E+02  0.12880904654E+03  0.80776188877E+03  0.82763687366E+03  0.12500000000E+03 0.  0.
         25    1    1    2    0    0 -0.65286049510E+02 -0.13271707080E+03  0.87361865700E+02  0.21244572182E+03  0.12500000000E+03 0.  0.
         25    1    1    2    0    0  0.48352201059E+02  0.39080242641E+01  0.26313584810E+03  0.29532809307E+03  0.12500000000E+03 0.  0.
</event>
<event>
 5    0  0.5597833E-005  0.2034409E+03  0.7546771E-02  0.1146868E+00
         21   -1    0    0  502  501  0.00000000000E+00  0.00000000000E+00  0.26633564982E+03  0.26633564982E+03  0.00000000000E+00 0.  1.
         21   -1    0    0  501  502 -0.00000000000E+00 -0.00000000000E+00 -0.15539870939E+03  0.15539870939E+03  0.00000000000E+00 0.  1.
         25    1    1    2    0    0 -0.43649033874E+02 -0.28716207614E+02 -0.96675067183E+01  0.13582459065E+03  0.12500000000E+03 0.  0.
         25    1    1    2    0    0  0.68227842372E+01 -0.14525708789E+01  0.51736695439E+02  0.13546344895E+03  0.12500000000E+03 0.  0.
         25    1    1    2    0    0  0.36826249637E+02  0.30168778493E+02  0.68867751713E+02  0.15044631961E+03  0.12500000000E+03 0.  0.
</event>
<event>
 5    0  0.5597833E-005  0.3730040E+03  0.7546771E-02  0.1053550E+00
         21   -1    0    0  502  501  0.00000000000E+00  0.00000000000E+00  0.33333579128E+03  0.33333579128E+03  0.00000000000E+00 0. -1.
         21   -1    0    0  501  502 -0.00000000000E+00 -0.00000000000E+00 -0.41739288554E+03  0.41739288554E+03  0.00000000000E+00 0. -1.
         25    1    1    2    0    0 -0.27685898322E+03  0.84143988499E+01 -0.64730435005E+02  0.31070360139E+03  0.12500000000E+03 0.  0.
         25    1    1    2    0    0  0.99171781620E+02  0.82196585476E+02 -0.80654754566E+02  0.19677781981E+03  0.12500000000E+03 0.  0.
         25    1    1    2    0    0  0.17768720160E+03 -0.90610984326E+02  0.61328095311E+02  0.24324725562E+03  0.12500000000E+03 0.  0.
</event>
<event>
 5    0  0.5597833E-005  0.6666373E+03  0.7546771E-02  0.9776052E-01
         21   -1    0    0  502  501  0.00000000000E+00  0.00000000000E+00  0.22354133103E+03  0.22354133103E+03  0.00000000000E+00 0. -1.
         21   -1    0    0  501  502 -0.00000000000E+00 -0.00000000000E+00 -0.19880230154E+04  0.19880230154E+04  0.00000000000E+00 0. -1.
         25    1    1    2    0    0 -0.13188738476E+02 -0.14684190446E+03 -0.89805708500E+03  0.91862289088E+03  0.12500000000E+03 0.  0.
         25    1    1    2    0    0  0.83723248391E+02 -0.37151301970E+03 -0.50586491307E+03  0.64541135441E+03  0.12500000000E+03 0.  0.
         25    1    1    2    0    0 -0.70534509915E+02  0.51835492415E+03 -0.36055968627E+03  0.64753010111E+03  0.12500000000E+03 0.  0.
</event>
<event>
 5    0  0.5597833E-005  0.3105590E+03  0.7546771E-02  0.1080078E+00
         21   -1    0    0  502  501  0.00000000000E+00  0.00000000000E+00  0.14485341892E+04  0.14485341892E+04  0.00000000000E+00 0. -1.
         21   -1    0    0  501  502 -0.00000000000E+00 -0.00000000000E+00 -0.66582412119E+02  0.66582412119E+02  0.00000000000E+00 0. -1.
         25    1    1    2    0    0  0.26549560413E+02 -0.59342743713E+02  0.23115608433E+03  0.27071124046E+03  0.12500000000E+03 0.  0.
         25    1    1    2    0    0 -0.10846071912E+03  0.17246187735E+03  0.36305295905E+03  0.43467145962E+03  0.12500000000E+03 0.  0.
         25    1    1    2    0    0  0.81911158709E+02 -0.11311913364E+03  0.78774273372E+03  0.80973390125E+03  0.12500000000E+03 0.  0.
</event>
<event>
 5    0  0.5597833E-005  0.2977649E+03  0.7546771E-02  0.1086363E+00
         21   -1    0    0  502  501  0.00000000000E+00  0.00000000000E+00  0.40798919490E+03  0.40798919490E+03  0.00000000000E+00 0. -1.
         21   -1    0    0  501  502 -0.00000000000E+00 -0.00000000000E+00 -0.21731925663E+03  0.21731925663E+03  0.00000000000E+00 0. -1.
         25    1    1    2    0    0  0.94126654004E+01  0.15088948950E+02  0.99757357140E+02  0.16091241392E+03  0.12500000000E+03 0.  0.
         25    1    1    2    0    0  0.61464432628E+02 -0.35717384648E+02 -0.13409574885E+03  0.19662217043E+03  0.12500000000E+03 0.  0.
         25    1    1    2    0    0 -0.70877098028E+02  0.20628435698E+02  0.22500832998E+03  0.26777386718E+03  0.12500000000E+03 0.  0.
</event>
<event>
 5    0  0.5597833E-005  0.2936036E+03  0.7546771E-02  0.1088483E+00
         21   -1    0    0  502  501  0.00000000000E+00  0.00000000000E+00  0.70081796976E+02  0.70081796976E+02  0.00000000000E+00 0. -1.
         21   -1    0    0  501  502 -0.00000000000E+00 -0.00000000000E+00 -0.12300349166E+04  0.12300349166E+04  0.00000000000E+00 0. -1.
         25    1    1    2    0    0  0.93528873476E+02  0.61549273413E+02 -0.36879057346E+03  0.40517582641E+03  0.12500000000E+03 0.  0.
         25    1    1    2    0    0 -0.13475766457E+03 -0.13498394540E+03 -0.64841943319E+03  0.68735220594E+03  0.12500000000E+03 0.  0.
         25    1    1    2    0    0  0.41228791098E+02  0.73434671988E+02 -0.14274311293E+03  0.20758868118E+03  0.12500000000E+03 0.  0.
</event>
<event>
 5    0  0.5597833E-005  0.2331114E+03  0.7546771E-02  0.1124469E+00
         21   -1    0    0  502  501  0.00000000000E+00  0.00000000000E+00  0.13424722167E+03  0.13424722167E+03  0.00000000000E+00 0. -1.
         21   -1    0    0  501  502 -0.00000000000E+00 -0.00000000000E+00 -0.40478231849E+03  0.40478231849E+03  0.00000000000E+00 0. -1.
         25    1    1    2    0    0  0.86066416611E+02 -0.82463600995E+02 -0.61180742842E+02  0.18323688726E+03  0.12500000000E+03 0.  0.
         25    1    1    2    0    0 -0.32743972220E+02  0.30098796320E+02 -0.14508895965E+03  0.19660598024E+03  0.12500000000E+03 0.  0.
         25    1    1    2    0    0 -0.53322444391E+02  0.52364804675E+02 -0.64265394328E+02  0.15918667266E+03  0.12500000000E+03 0.  0.
</event>
<event>
 5    0  0.5597833E-005  0.2668990E+03  0.7546771E-02  0.1103068E+00
         21   -1    0    0  502  501  0.00000000000E+00  0.00000000000E+00  0.19889148988E+03  0.19889148988E+03  0.00000000000E+00 0. -1.
         21   -1    0    0  501  502 -0.00000000000E+00 -0.00000000000E+00 -0.35816046187E+03  0.35816046187E+03  0.00000000000E+00 0. -1.
         25    1    1    2    0    0 -0.54673158192E+02  0.58494805776E+02 -0.18772429927E+02  0.14962687143E+03  0.12500000000E+03 0.  0.
         25    1    1    2    0    0 -0.45612703695E+02  0.44944332409E+02  0.38732576094E+02  0.14569050829E+03  0.12500000000E+03 0.  0.
         25    1    1    2    0    0  0.10028586189E+03 -0.10343913819E+03 -0.17922911815E+03  0.26173457203E+03  0.12500000000E+03 0.  0.
</event>
<event>
 5    0  0.5677059E-005  0.4957485E+03  0.7546771E-02  0.1014895E+00
         21   -1    0    0  502  501  0.00000000000E+00  0.00000000000E+00  0.30110931450E+03  0.30110931450E+03  0.00000000000E+00 0.  1.
         21   -1    0    0  501  502 -0.00000000000E+00 -0.00000000000E+00 -0.81620374934E+03  0.81620374934E+03  0.00000000000E+00 0.  1.
         25    1    1    2    0    0  0.35613138484E+02  0.16838785701E+03 -0.40919501968E+03  0.46118145036E+03  0.12500000000E+03 0.  0.
         25    1    1    2    0    0  0.13726255322E+03 -0.24076642072E+03 -0.24578780918E+03  0.39095540027E+03  0.12500000000E+03 0.  0.
         25    1    1    2    0    0 -0.17287569170E+03  0.72378563707E+02  0.13988839403E+03  0.26517621321E+03  0.12500000000E+03 0.  0.
</event>
<event>
 5    0  0.5597833E-005  0.2909487E+03  0.7546771E-02  0.1089855E+00
         21   -1    0    0  502  501  0.00000000000E+00  0.00000000000E+00  0.87198899198E+03  0.87198899198E+03  0.00000000000E+00 0.  1.
         21   -1    0    0  501  502 -0.00000000000E+00 -0.00000000000E+00 -0.97078234045E+02  0.97078234045E+02  0.00000000000E+00 0.  1.
         25    1    1    2    0    0 -0.13511526664E+03  0.11900091165E+03  0.26940249105E+03  0.34730397988E+03  0.12500000000E+03 0.  0.
         25    1    1    2    0    0  0.27604352292E+02 -0.10075123260E+03  0.12077148672E+03  0.20278945520E+03  0.12500000000E+03 0.  0.
         25    1    1    2    0    0  0.10751091435E+03 -0.18249679054E+02  0.38473678017E+03  0.41897379095E+03  0.12500000000E+03 0.  0.
</event>
<event>
 5    0  0.5597833E-005  0.3620147E+03  0.7546771E-02  0.1057789E+00
         21   -1    0    0  502  501  0.00000000000E+00  0.00000000000E+00  0.80492184509E+03  0.80492184509E+03  0.00000000000E+00 0.  1.
         21   -1    0    0  501  502 -0.00000000000E+00 -0.00000000000E+00 -0.16281658031E+03  0.16281658031E+03  0.00000000000E+00 0.  1.
         25    1    1    2    0    0 -0.78754244790E+02 -0.17082069836E+03  0.68448388097E+02  0.23599178777E+03  0.12500000000E+03 0.  0.
         25    1    1    2    0    0  0.90611625923E+02 -0.11507599902E+02  0.49143780568E+02  0.16242845433E+03  0.12500000000E+03 0.  0.
         25    1    1    2    0    0 -0.11857381133E+02  0.18232829826E+03  0.52451309612E+03  0.56931818330E+03  0.12500000000E+03 0.  0.
</event>
<event>
 5    0  0.5597833E-005  0.4020139E+03  0.7546771E-02  0.1043085E+00
         21   -1    0    0  502  501  0.00000000000E+00  0.00000000000E+00  0.76287354144E+03  0.76287354144E+03  0.00000000000E+00 0.  1.
         21   -1    0    0  501  502 -0.00000000000E+00 -0.00000000000E+00 -0.21185051765E+03  0.21185051765E+03  0.00000000000E+00 0.  1.
         25    1    1    2    0    0  0.89140897474E+01 -0.14750069462E+02  0.58688361142E+03  0.60029525976E+03  0.12500000000E+03 0.  0.
         25    1    1    2    0    0  0.29133582009E+02  0.10493736036E+02 -0.15223939159E+03  0.19940089380E+03  0.12500000000E+03 0.  0.
         25    1    1    2    0    0 -0.38047671756E+02  0.42563334264E+01  0.11637880396E+03  0.17502790553E+03  0.12500000000E+03 0.  0.
</event>
<event>
 5    0  0.5597833E-005  0.2022542E+03  0.7546771E-02  0.1147851E+00
         21   -1    0    0  502  501  0.00000000000E+00  0.00000000000E+00  0.34298504727E+03  0.34298504727E+03  0.00000000000E+00 0. -1.
         21   -1    0    0  501  502 -0.00000000000E+00 -0.00000000000E+00 -0.11926687800E+03  0.11926687800E+03  0.00000000000E+00 0. -1.
         25    1    1    2    0    0  0.37455247671E+02 -0.11499810886E+02  0.51305307732E+02  0.14068537888E+03  0.12500000000E+03 0.  0.
         25    1    1    2    0    0  0.13212615560E+02  0.78083270366E+01  0.39053994164E+02  0.13185506301E+03  0.12500000000E+03 0.  0.
         25    1    1    2    0    0 -0.50667863231E+02  0.36914838490E+01  0.13335886738E+03  0.18971148338E+03  0.12500000000E+03 0.  0.
</event>
<event>
 5    0  0.5597833E-005  0.2572638E+03  0.7546771E-02  0.1108798E+00
         21   -1    0    0  502  501  0.00000000000E+00  0.00000000000E+00  0.23522522071E+03  0.23522522071E+03  0.00000000000E+00 0.  1.
         21   -1    0    0  501  502 -0.00000000000E+00 -0.00000000000E+00 -0.28136725060E+03  0.28136725060E+03  0.00000000000E+00 0.  1.
         25    1    1    2    0    0  0.24496661131E+02  0.89294888835E+02  0.82718394792E+01  0.15577896812E+03  0.12500000000E+03 0.  0.
         25    1    1    2    0    0  0.18254829464E+02 -0.79913524525E+02  0.82157489845E+02  0.17057040581E+03  0.12500000000E+03 0.  0.
         25    1    1    2    0    0 -0.42751490595E+02 -0.93813643105E+01 -0.13657135922E+03  0.19024309738E+03  0.12500000000E+03 0.  0.
</event>
<event>
 5    0  0.5597833E-005  0.2074267E+03  0.7546771E-02  0.1143620E+00
         21   -1    0    0  502  501  0.00000000000E+00  0.00000000000E+00  0.97324451738E+02  0.97324451738E+02  0.00000000000E+00 0.  1.
         21   -1    0    0  501  502 -0.00000000000E+00 -0.00000000000E+00 -0.44208674960E+03  0.44208674960E+03  0.00000000000E+00 0.  1.
         25    1    1    2    0    0  0.16290656022E+02 -0.13185529612E+02 -0.46142949088E+02  0.13488296933E+03  0.12500000000E+03 0.  0.
         25    1    1    2    0    0 -0.14238963462E+01 -0.44773330724E+02 -0.12481451342E+03  0.18223704724E+03  0.12500000000E+03 0.  0.
         25    1    1    2    0    0 -0.14866759676E+02  0.57958860336E+02 -0.17380483535E+03  0.22229118477E+03  0.12500000000E+03 0.  0.
</event>
<event>
 5    0  0.5597833E-005  0.3314459E+03  0.7546771E-02  0.1070499E+00
         21   -1    0    0  502  501  0.00000000000E+00  0.00000000000E+00  0.84638723358E+03  0.84638723358E+03  0.00000000000E+00 0.  1.
         21   -1    0    0  501  502 -0.00000000000E+00 -0.00000000000E+00 -0.12979444227E+03  0.12979444227E+03  0.00000000000E+00 0.  1.
         25    1    1    2    0    0  0.14545271807E+03 -0.18029084452E+03  0.44462361474E+03  0.51669762975E+03  0.12500000000E+03 0.  0.
         25    1    1    2    0    0 -0.11343985606E+03  0.67488829208E+02  0.70516282013E+02  0.19498945879E+03  0.12500000000E+03 0.  0.
         25    1    1    2    0    0 -0.32012862005E+02  0.11280201531E+03  0.20145289456E+03  0.26449458731E+03  0.12500000000E+03 0.  0.
</event>
<event>
 5    0  0.5597833E-005  0.3019160E+03  0.7546771E-02  0.1084287E+00
         21   -1    0    0  502  501  0.00000000000E+00  0.00000000000E+00  0.34504356405E+03  0.34504356405E+03  0.00000000000E+00 0. -1.
         21   -1    0    0  501  502 -0.00000000000E+00 -0.00000000000E+00 -0.26417894433E+03  0.26417894433E+03  0.00000000000E+00 0. -1.
         25    1    1    2    0    0 -0.47627200679E+02  0.13696165736E+01 -0.37852870973E+02  0.13902541471E+03  0.12500000000E+03 0.  0.
         25    1    1    2    0    0 -0.48983293017E+02 -0.11017818821E+03  0.19734079522E+03  0.26288207548E+03  0.12500000000E+03 0.  0.
         25    1    1    2    0    0  0.96610493696E+02  0.10880857163E+03 -0.78623304527E+02  0.20731501819E+03  0.12500000000E+03 0.  0.
</event>
<event>
 5    0  0.5597833E-005  0.3777623E+03  0.7546771E-02  0.1051764E+00
         21   -1    0    0  502  501  0.00000000000E+00  0.00000000000E+00  0.12039251259E+03  0.12039251259E+03  0.00000000000E+00 0.  1.
         21   -1    0    0  501  502 -0.00000000000E+00 -0.00000000000E+00 -0.11853258009E+04  0.11853258009E+04  0.00000000000E+00 0.  1.
         25    1    1    2    0    0  0.13755429298E+03  0.13304035677E+03 -0.58389848748E+03  0.62704335075E+03  0.12500000000E+03 0.  0.
         25    1    1    2    0    0 -0.16880958236E+03 -0.15481254330E+03 -0.10621120639E+03  0.28172578693E+03  0.12500000000E+03 0.  0.
         25    1    1    2    0    0  0.31255289388E+02  0.21772186532E+02 -0.37482359442E+03  0.39694917578E+03  0.12500000000E+03 0.  0.
</event>
<event>
 5    0  0.5597833E-005  0.3121561E+03  0.7546771E-02  0.1079317E+00
         21   -1    0    0  502  501  0.00000000000E+00  0.00000000000E+00  0.75789888719E+02  0.75789888719E+02  0.00000000000E+00 0.  1.
         21   -1    0    0  501  502 -0.00000000000E+00 -0.00000000000E+00 -0.12856784852E+04  0.12856784852E+04  0.00000000000E+00 0.  1.
         25    1    1    2    0    0 -0.16173979121E+03 -0.82472026643E+01 -0.69240717263E+03  0.72199755479E+03  0.12500000000E+03 0.  0.
         25    1    1    2    0    0  0.20063887071E+03 -0.28962773300E+02 -0.30200747327E+03  0.38461449867E+03  0.12500000000E+03 0.  0.
         25    1    1    2    0    0 -0.38899079503E+02  0.37209975964E+02 -0.21547395056E+03  0.25485632044E+03  0.12500000000E+03 0.  0.
</event>
<event>
 5    0  0.5597833E-005  0.4319010E+03  0.7546771E-02  0.1033261E+00
         21   -1    0    0  502  501  0.00000000000E+00  0.00000000000E+00  0.46571968706E+03  0.46571968706E+03  0.00000000000E+00 0. -1.
         21   -1    0    0  501  502 -0.00000000000E+00 -0.00000000000E+00 -0.40053815839E+03  0.40053815839E+03  0.00000000000E+00 0. -1.
         25    1    1    2    0    0  0.18613384482E+02 -0.14114689634E+02 -0.33370069739E+03  0.35710900015E+03  0.12500000000E+03 0.  0.
         25    1    1    2    0    0 -0.36638519350E+02  0.64332183659E+02  0.32138524840E+03  0.35269602896E+03  0.12500000000E+03 0.  0.
         25    1    1    2    0    0  0.18025134868E+02 -0.50217494025E+02  0.77496977663E+02  0.15645281634E+03  0.12500000000E+03 0.  0.
</event>
<event>
 5    0  0.5597833E-005  0.2842574E+03  0.7546771E-02  0.1093386E+00
         21   -1    0    0  502  501  0.00000000000E+00  0.00000000000E+00  0.13348772316E+04  0.13348772316E+04  0.00000000000E+00 0.  1.
         21   -1    0    0  501  502 -0.00000000000E+00 -0.00000000000E+00 -0.60531609951E+02  0.60531609951E+02  0.00000000000E+00 0.  1.
         25    1    1    2    0    0  0.12416346090E+03 -0.61624090582E+00  0.64482825130E+03  0.66846497175E+03  0.12500000000E+03 0.  0.
         25    1    1    2    0    0 -0.10409433579E+03  0.96671434344E+02  0.23561410110E+03  0.30219199460E+03  0.12500000000E+03 0.  0.
         25    1    1    2    0    0 -0.20069125104E+02 -0.96055193438E+02  0.39390326928E+03  0.42475187524E+03  0.12500000000E+03 0.  0.
</event>
<event>
 5    0  0.5597833E-005  0.2280890E+03  0.7546771E-02  0.1127992E+00
         21   -1    0    0  502  501  0.00000000000E+00  0.00000000000E+00  0.24145875532E+03  0.24145875532E+03  0.00000000000E+00 0. -1.
         21   -1    0    0  501  502 -0.00000000000E+00 -0.00000000000E+00 -0.21545955142E+03  0.21545955142E+03  0.00000000000E+00 0. -1.
         25    1    1    2    0    0  0.32511888228E+02  0.29419136820E+02  0.70008551272E+02  0.14982892157E+03  0.12500000000E+03 0.  0.
         25    1    1    2    0    0  0.66583126640E+02 -0.21015176475E+02 -0.33273490184E+02  0.14699345409E+03  0.12500000000E+03 0.  0.
         25    1    1    2    0    0 -0.99095014868E+02 -0.84039603451E+01 -0.10735857191E+02  0.16009593109E+03  0.12500000000E+03 0.  0.
</event>
<event>
 5    0  0.5597833E-005  0.2919437E+03  0.7546771E-02  0.1089339E+00
         21   -1    0    0  502  501  0.00000000000E+00  0.00000000000E+00  0.51045081320E+02  0.51045081320E+02  0.00000000000E+00 0.  1.
         21   -1    0    0  501  502 -0.00000000000E+00 -0.00000000000E+00 -0.16697225565E+04  0.16697225565E+04  0.00000000000E+00 0.  1.
         25    1    1    2    0    0  0.30463648854E+02 -0.13775530899E+03 -0.10682523552E+04  0.10847546513E+04  0.12500000000E+03 0.  0.
         25    1    1    2    0    0 -0.15865120922E+01  0.11060828084E+03 -0.19232355001E+03  0.25465674289E+03  0.12500000000E+03 0.  0.
         25    1    1    2    0    0 -0.28877136762E+02  0.27147028153E+02 -0.35810156994E+03  0.38135624363E+03  0.12500000000E+03 0.  0.
</event>
<event>
 5    0  0.5597833E-005  0.2915160E+03  0.7546771E-02  0.1089560E+00
         21   -1    0    0  502  501  0.00000000000E+00  0.00000000000E+00  0.41539971156E+03  0.41539971156E+03  0.00000000000E+00 0.  1.
         21   -1    0    0  501  502 -0.00000000000E+00 -0.00000000000E+00 -0.20457782937E+03  0.20457782937E+03  0.00000000000E+00 0.  1.
         25    1    1    2    0    0 -0.15003470746E+03  0.21641316817E+02  0.19699827323E+03  0.27823026379E+03  0.12500000000E+03 0.  0.
         25    1    1    2    0    0  0.53634143201E+02 -0.26603546254E+02 -0.78022279876E+02  0.15904982285E+03  0.12500000000E+03 0.  0.
         25    1    1    2    0    0  0.96400564258E+02  0.49622294369E+01  0.91845888831E+02  0.18269745429E+03  0.12500000000E+03 0.  0.
</event>
<event>
 5    0  0.5597833E-005  0.3280637E+03  0.7546771E-02  0.1071997E+00
         21   -1    0    0  502  501  0.00000000000E+00  0.00000000000E+00  0.12007255700E+04  0.12007255700E+04  0.00000000000E+00 0. -1.
         21   -1    0    0  501  502 -0.00000000000E+00 -0.00000000000E+00 -0.89633953902E+02  0.89633953902E+02  0.00000000000E+00 0. -1.
         25    1    1    2    0    0 -0.75049319677E+02 -0.11709992824E+03  0.18677632198E+03  0.26430132052E+03  0.12500000000E+03 0.  0.
         25    1    1    2    0    0  0.28194977646E+02 -0.11851426082E+03  0.35092686550E+03  0.39193781613E+03  0.12500000000E+03 0.  0.
         25    1    1    2    0    0  0.46854342032E+02  0.23561418906E+03  0.57338842867E+03  0.63412038729E+03  0.12500000000E+03 0.  0.
</event>
<event>
 5    0  0.5597833E-005  0.5000522E+03  0.7546771E-02  0.1013765E+00
         21   -1    0    0  502  501  0.00000000000E+00  0.00000000000E+00  0.55275176151E+03  0.55275176151E+03  0.00000000000E+00 0.  1.
         21   -1    0    0  501  502 -0.00000000000E+00 -0.00000000000E+00 -0.45237703968E+03  0.45237703968E+03  0.00000000000E+00 0.  1.
         25    1    1    2    0    0  0.61971506547E+02 -0.22856417686E+03  0.15820659494E+03  0.31102472128E+03  0.12500000000E+03 0.  0.
         25    1    1    2    0    0  0.17872213248E+03 -0.10681099692E+02  0.16108758000E+03  0.27134829087E+03  0.12500000000E+03 0.  0.
         25    1    1    2    0    0 -0.24069363903E+03  0.23924527655E+03 -0.21891945310E+03  0.42275578904E+03  0.12500000000E+03 0.  0.
</event>
<event>
 5    0  0.5597833E-005  0.2203860E+03  0.7546771E-02  0.1133596E+00
         21   -1    0    0  502  501  0.00000000000E+00  0.00000000000E+00  0.68662863678E+02  0.68662863678E+02  0.00000000000E+00 0. -1.
         21   -1    0    0  501  502 -0.00000000000E+00 -0.00000000000E+00 -0.70736928567E+03  0.70736928567E+03  0.00000000000E+00 0. -1.
         25    1    1    2    0    0  0.38224534352E+02 -0.54236650368E+02 -0.37298404559E+03  0.39892960223E+03  0.12500000000E+03 0.  0.
         25    1    1    2    0    0  0.14513483143E+02  0.25025935038E+02 -0.13912471735E+03  0.18925545063E+03  0.12500000000E+03 0.  0.
         25    1    1    2    0    0 -0.52738017495E+02  0.29210715330E+02 -0.12659765905E+03  0.18784709648E+03  0.12500000000E+03 0.  0.
</event>
<event>
 5    0  0.5597833E-005  0.2586388E+03  0.7546771E-02  0.1107964E+00
         21   -1    0    0  502  501  0.00000000000E+00  0.00000000000E+00  0.18066902137E+03  0.18066902137E+03  0.00000000000E+00 0. -1.
         21   -1    0    0  501  502 -0.00000000000E+00 -0.00000000000E+00 -0.37025724352E+03  0.37025724352E+03  0.00000000000E+00 0. -1.
         25    1    1    2    0    0  0.12112132207E+03 -0.86069342200E+02 -0.22195071871E+02  0.19543778432E+03  0.12500000000E+03 0.  0.
         25    1    1    2    0    0 -0.25939259024E+02  0.80327637628E+02 -0.11533668118E+03  0.18987607683E+03  0.12500000000E+03 0.  0.
         25    1    1    2    0    0 -0.95182063041E+02  0.57417045716E+01 -0.52056469098E+02  0.16561240374E+03  0.12500000000E+03 0.  0.
</event>
<event>
 5    0  0.5597833E-005  0.4480626E+03  0.7546771E-02  0.1028301E+00
         21   -1    0    0  502  501  0.00000000000E+00  0.00000000000E+00  0.58150224752E+03  0.58150224752E+03  0.00000000000E+00 0. -1.
         21   -1    0    0  501  502 -0.00000000000E+00 -0.00000000000E+00 -0.34524390777E+03  0.34524390777E+03  0.00000000000E+00 0. -1.
         25    1    1    2    0    0 -0.77556985211E+02 -0.16688656179E+03  0.92338294742E+02  0.24086836890E+03  0.12500000000E+03 0.  0.
         25    1    1    2    0    0 -0.19430918867E+03  0.27919957909E+02  0.24783881775E+03  0.33997744695E+03  0.12500000000E+03 0.  0.
         25    1    1    2    0    0  0.27186617388E+03  0.13896660388E+03 -0.10391877274E+03  0.34590033944E+03  0.12500000000E+03 0.  0.
</event>
<event>
 5    0  0.5597833E-005  0.4028786E+03  0.7546771E-02  0.1042787E+00
         21   -1    0    0  502  501  0.00000000000E+00  0.00000000000E+00  0.17863928054E+03  0.17863928054E+03  0.00000000000E+00 0. -1.
         21   -1    0    0  501  502 -0.00000000000E+00 -0.00000000000E+00 -0.90859729850E+03  0.90859729850E+03  0.00000000000E+00 0. -1.
         25    1    1    2    0    0  0.12071064261E+03 -0.60754656079E+02 -0.33131762775E+03  0.37902316279E+03  0.12500000000E+03 0.  0.
         25    1    1    2    0    0 -0.51294124094E+02  0.61282300417E+02  0.10688588748E+03  0.18285568204E+03  0.12500000000E+03 0.  0.
         25    1    1    2    0    0 -0.69416518513E+02 -0.52764433772E+00 -0.50552627770E+03  0.52535773421E+03  0.12500000000E+03 0.  0.
</event>
<event>
 5    0  0.6210717E-005  0.2861880E+03  0.7546771E-02  0.1092356E+00
         21   -1    0    0  502  501  0.00000000000E+00  0.00000000000E+00  0.19270325083E+03  0.19270325083E+03  0.00000000000E+00 0. -1.
         21   -1    0    0  501  502 -0.00000000000E+00 -0.00000000000E+00 -0.42502421294E+03  0.42502421294E+03  0.00000000000E+00 0. -1.
         25    1    1    2    0    0 -0.12422011346E+03  0.47929127869E+02 -0.72478922743E+02  0.19648417781E+03  0.12500000000E+03 0.  0.
         25    1    1    2    0    0 -0.68009799673E+02 -0.49422783670E+02 -0.18238984185E+02  0.15174190239E+03  0.12500000000E+03 0.  0.
         25    1    1    2    0    0  0.19222991313E+03  0.14936558013E+01 -0.14160305518E+03  0.26950138357E+03  0.12500000000E+03 0.  0.
</event>
<event>
 5    0  0.5971388E-005  0.3961078E+03  0.7546771E-02  0.1045136E+00
         21   -1    0    0  502  501  0.00000000000E+00  0.00000000000E+00  0.99563434022E+03  0.99563434022E+03  0.00000000000E+00 0.  1.
         21   -1    0    0  501  502 -0.00000000000E+00 -0.00000000000E+00 -0.15758939165E+03  0.15758939165E+03  0.00000000000E+00 0.  1.
         25    1    1    2    0    0  0.18146143217E+03 -0.10993025853E+03  0.20744531371E+03  0.32198054489E+03  0.12500000000E+03 0.  0.
         25    1    1    2    0    0 -0.90451855513E+02  0.21111104810E+03  0.11898980673E+03  0.28728554941E+03  0.12500000000E+03 0.  0.
         25    1    1    2    0    0 -0.91009576660E+02 -0.10118078957E+03  0.51160982814E+03  0.54395763757E+03  0.12500000000E+03 0.  0.
</event>
<event>
 5    0  0.5597833E-005  0.2980853E+03  0.7546771E-02  0.1086202E+00
         21   -1    0    0  502  501  0.00000000000E+00  0.00000000000E+00  0.28393708532E+03  0.28393708532E+03  0.00000000000E+00 0. -1.
         21   -1    0    0  501  502 -0.00000000000E+00 -0.00000000000E+00 -0.31293849395E+03  0.31293849395E+03  0.00000000000E+00 0. -1.
         25    1    1    2    0    0  0.46933997209E+01  0.21505228895E+02  0.38698341470E+02  0.13269161429E+03  0.12500000000E+03 0.  0.
         25    1    1    2    0    0  0.44702671830E+02  0.16901224979E+03  0.18253513064E+02  0.21568880403E+03  0.12500000000E+03 0.  0.
         25    1    1    2    0    0 -0.49396071551E+02 -0.19051747868E+03 -0.85953263162E+02  0.24849516095E+03  0.12500000000E+03 0.  0.
</event>
<event>
 5    0  0.5597833E-005  0.4078081E+03  0.7546771E-02  0.1041109E+00
         21   -1    0    0  502  501  0.00000000000E+00  0.00000000000E+00  0.12902960427E+03  0.12902960427E+03  0.00000000000E+00 0. -1.
         21   -1    0    0  501  502 -0.00000000000E+00 -0.00000000000E+00 -0.12889092888E+04  0.12889092888E+04  0.00000000000E+00 0. -1.
         25    1    1    2    0    0 -0.57860693215E+02  0.13750910197E+03 -0.29370686606E+03  0.35234264022E+03  0.12500000000E+03 0.  0.
         25    1    1    2    0    0 -0.24120710862E+03 -0.42184933556E+02 -0.30551715368E+03  0.41100628834E+03  0.12500000000E+03 0.  0.
         25    1    1    2    0    0  0.29906780183E+03 -0.95324168417E+02 -0.56065566484E+03  0.65458996456E+03  0.12500000000E+03 0.  0.
</event>
<event>
 5    0  0.5597833E-005  0.2721490E+03  0.7546771E-02  0.1100056E+00
         21   -1    0    0  502  501  0.00000000000E+00  0.00000000000E+00  0.56725557462E+02  0.56725557462E+02  0.00000000000E+00 0. -1.
         21   -1    0    0  501  502 -0.00000000000E+00 -0.00000000000E+00 -0.13056735350E+04  0.13056735350E+04  0.00000000000E+00 0. -1.
         25    1    1    2    0    0  0.37825549374E+02 -0.59577453137E+02 -0.51290810317E+03  0.53261615391E+03  0.12500000000E+03 0.  0.
         25    1    1    2    0    0 -0.49735104367E+02  0.15741536523E+03 -0.29118145988E+03  0.35730214160E+03  0.12500000000E+03 0.  0.
         25    1    1    2    0    0  0.11909554993E+02 -0.97837912094E+02 -0.44485841446E+03  0.47248079692E+03  0.12500000000E+03 0.  0.
</event>
<event>
 5    0  0.5597833E-005  0.3800557E+03  0.7546771E-02  0.1050913E+00
         21   -1    0    0  502  501  0.00000000000E+00  0.00000000000E+00  0.84670280781E+02  0.84670280781E+02  0.00000000000E+00 0.  1.
         21   -1    0    0  501  502 -0.00000000000E+00 -0.00000000000E+00 -0.17059387514E+04  0.17059387514E+04  0.00000000000E+00 0.  1.
         25    1    1    2    0    0  0.20983542520E+03  0.11228467434E+03 -0.46492344690E+03  0.53704521713E+03  0.12500000000E+03 0.  0.
         25    1    1    2    0    0 -0.22597394541E+03 -0.41062630956E+02 -0.36449434368E+03  0.44858833048E+03  0.12500000000E+03 0.  0.
         25    1    1    2    0    0  0.16138520207E+02 -0.71222043384E+02 -0.79185068000E+03  0.80497548454E+03  0.12500000000E+03 0.  0.
</event>
<event>
 5    0  0.5597833E-005  0.3076752E+03  0.7546771E-02  0.1081466E+00
         21   -1    0    0  502  501  0.00000000000E+00  0.00000000000E+00  0.25301440982E+03  0.25301440982E+03  0.00000000000E+00 0.  1.
         21   -1    0    0  501  502 -0.00000000000E+00 -0.00000000000E+00 -0.37414474444E+03  0.37414474444E+03  0.00000000000E+00 0.  1.
         25    1    1    2    0    0 -0.63756662945E+02  0.12450345552E+03 -0.23420497332E+02  0.18904904708E+03  0.12500000000E+03 0.  0.
         25    1    1    2    0    0 -0.31804225767E+02 -0.10609707836E+02  0.98027859832E+02  0.16235312125E+03  0.12500000000E+03 0.  0.
         25    1    1    2    0    0  0.95560888712E+02 -0.11389374769E+03 -0.19573769712E+03  0.27575698593E+03  0.12500000000E+03 0.  0.
</event>
<event>
 5    0  0.5597833E-005  0.2925708E+03  0.7546771E-02  0.1089015E+00
         21   -1    0    0  502  501  0.00000000000E+00  0.00000000000E+00  0.17050679129E+04  0.17050679129E+04  0.00000000000E+00 0. -1.
         21   -1    0    0  501  502 -0.00000000000E+00 -0.00000000000E+00 -0.50201897644E+02  0.50201897644E+02  0.00000000000E+00 0. -1.
         25    1    1    2    0    0  0.54059790691E+02 -0.11638182961E+03  0.40396980670E+03  0.44190926213E+03  0.12500000000E+03 0.  0.
         25    1    1    2    0    0  0.13978375853E+02  0.56030681537E+02  0.15797578818E+03  0.20956188088E+03  0.12500000000E+03 0.  0.
         25    1    1    2    0    0 -0.68038166544E+02  0.60351148072E+02  0.10929204204E+04  0.11037986675E+04  0.12500000000E+03 0.  0.
</event>
<event>
 5    0  0.5724646E-005  0.3293706E+03  0.7546771E-02  0.1071416E+00
         21   -1    0    0  502  501  0.00000000000E+00  0.00000000000E+00  0.12485163076E+03  0.12485163076E+03  0.00000000000E+00 0. -1.
         21   -1    0    0  501  502 -0.00000000000E+00 -0.00000000000E+00 -0.86891106518E+03  0.86891106518E+03  0.00000000000E+00 0. -1.
         25    1    1    2    0    0 -0.47057808089E+02 -0.15189724928E+03 -0.35891003623E+03  0.41198134150E+03  0.12500000000E+03 0.  0.
         25    1    1    2    0    0 -0.10743872896E+03  0.14827281136E+03 -0.27927586791E+03  0.35657806644E+03  0.12500000000E+03 0.  0.
         25    1    1    2    0    0  0.15449653705E+03  0.36244379212E+01 -0.10587353028E+03  0.22520328800E+03  0.12500000000E+03 0.  0.
</event>
<event>
 5    0  0.5597833E-005  0.3231644E+03  0.7546771E-02  0.1074202E+00
         21   -1    0    0  502  501  0.00000000000E+00  0.00000000000E+00  0.13459731987E+04  0.13459731987E+04  0.00000000000E+00 0. -1.
         21   -1    0    0  501  502 -0.00000000000E+00 -0.00000000000E+00 -0.77590864022E+02  0.77590864022E+02  0.00000000000E+00 0. -1.
         25    1    1    2    0    0  0.58608486355E+02 -0.18091891967E+03  0.45900356334E+03  0.51232400034E+03  0.12500000000E+03 0.  0.
         25    1    1    2    0    0 -0.39529052644E+02  0.23104758357E+03  0.64702430654E+03  0.69943619089E+03  0.12500000000E+03 0.  0.
         25    1    1    2    0    0 -0.19079433711E+02 -0.50128663906E+02  0.16235446478E+03  0.21180387147E+03  0.12500000000E+03 0.  0.
</event>
<event>
 5    0  0.6587799E-005  0.3348838E+03  0.7546771E-02  0.1068996E+00
         21   -1    0    0  502  501  0.00000000000E+00  0.00000000000E+00  0.57927350267E+03  0.57927350267E+03  0.00000000000E+00 0.  1.
         21   -1    0    0  501  502 -0.00000000000E+00 -0.00000000000E+00 -0.19359972553E+03  0.19359972553E+03  0.00000000000E+00 0.  1.
         25    1    1    2    0    0 -0.19363428595E+01 -0.11768662678E+03  0.20794948682E+02  0.17294889834E+03  0.12500000000E+03 0.  0.
         25    1    1    2    0    0  0.70405090098E+02  0.66273109029E+01 -0.46219474006E+02  0.15087093073E+03  0.12500000000E+03 0.  0.
         25    1    1    2    0    0 -0.68468747238E+02  0.11105931587E+03  0.41109830246E+03  0.44905339914E+03  0.12500000000E+03 0.  0.
</event>
<event>
 5    0  0.5597833E-005  0.3716306E+03  0.7546771E-02  0.1054071E+00
         21   -1    0    0  502  501  0.00000000000E+00  0.00000000000E+00  0.34410378060E+03  0.34410378060E+03  0.00000000000E+00 0.  1.
         21   -1    0    0  501  502 -0.00000000000E+00 -0.00000000000E+00 -0.40135948582E+03  0.40135948582E+03  0.00000000000E+00 0.  1.
         25    1    1    2    0    0  0.21132856778E+03  0.28563675980E+02  0.14686936738E+03  0.28752610007E+03  0.12500000000E+03 0.  0.
         25    1    1    2    0    0 -0.40253074659E+02 -0.44441499495E+02 -0.20255973647E+03  0.24546039138E+03  0.12500000000E+03 0.  0.
         25    1    1    2    0    0 -0.17107549312E+03  0.15877823515E+02 -0.15653361298E+01  0.21247677497E+03  0.12500000000E+03 0.  0.
</event>
<event>
 5    0  0.5597833E-005  0.3299174E+03  0.7546771E-02  0.1071173E+00
         21   -1    0    0  502  501  0.00000000000E+00  0.00000000000E+00  0.10010556312E+03  0.10010556312E+03  0.00000000000E+00 0.  1.
         21   -1    0    0  501  502 -0.00000000000E+00 -0.00000000000E+00 -0.10873074098E+04  0.10873074098E+04  0.00000000000E+00 0.  1.
         25    1    1    2    0    0  0.25332358892E+02 -0.18957562044E+03 -0.29294322043E+03  0.37151228064E+03  0.12500000000E+03 0.  0.
         25    1    1    2    0    0 -0.57032928290E+02  0.11764133103E+03 -0.10655727526E+03  0.20993258581E+03  0.12500000000E+03 0.  0.
         25    1    1    2    0    0  0.31700569398E+02  0.71934289410E+02 -0.58770135100E+03  0.60596810648E+03  0.12500000000E+03 0.  0.
</event>
<event>
 5    0  0.5627306E-005  0.3438984E+03  0.7546771E-02  0.1065148E+00
         21   -1    0    0  502  501  0.00000000000E+00  0.00000000000E+00  0.92849005614E+02  0.92849005614E+02  0.00000000000E+00 0.  1.
         21   -1    0    0  501  502 -0.00000000000E+00 -0.00000000000E+00 -0.12737463827E+04  0.12737463827E+04  0.00000000000E+00 0.  1.
         25    1    1    2    0    0 -0.14567159448E+03  0.95906468971E+02 -0.28734368349E+03  0.35862188537E+03  0.12500000000E+03 0.  0.
         25    1    1    2    0    0  0.53015080678E+02  0.14822396699E+02 -0.53833064838E+02  0.14681042570E+03  0.12500000000E+03 0.  0.
         25    1    1    2    0    0  0.92656513802E+02 -0.11072886567E+03 -0.83972062874E+03  0.86116307723E+03  0.12500000000E+03 0.  0.
</event>
<event>
 5    0  0.5597833E-005  0.3498494E+03  0.7546771E-02  0.1062677E+00
         21   -1    0    0  502  501  0.00000000000E+00  0.00000000000E+00  0.35078882809E+03  0.35078882809E+03  0.00000000000E+00 0. -1.
         21   -1    0    0  501  502 -0.00000000000E+00 -0.00000000000E+00 -0.34891246206E+03  0.34891246206E+03  0.00000000000E+00 0. -1.
         25    1    1    2    0    0  0.19918209024E+02 -0.31748132145E+01  0.27804951862E+03  0.30552143836E+03  0.12500000000E+03 0.  0.
         25    1    1    2    0    0 -0.70696309252E+02  0.52084707764E+01 -0.16918305114E+03  0.22197522633E+03  0.12500000000E+03 0.  0.
         25    1    1    2    0    0  0.50778100228E+02 -0.20336575619E+01 -0.10699010145E+03  0.17220462547E+03  0.12500000000E+03 0.  0.
</event>
<event>
 5    0  0.5597833E-005  0.3108331E+03  0.7546771E-02  0.1079947E+00
         21   -1    0    0  502  501  0.00000000000E+00  0.00000000000E+00  0.77195366143E+02  0.77195366143E+02  0.00000000000E+00 0. -1.
         21   -1    0    0  501  502 -0.00000000000E+00 -0.00000000000E+00 -0.12515937889E+04  0.12515937889E+04  0.00000000000E+00 0. -1.
         25    1    1    2    0    0  0.89171166764E+02 -0.41452210390E+02 -0.10884540164E+03  0.19272286887E+03  0.12500000000E+03 0.  0.
         25    1    1    2    0    0  0.21301970472E+02 -0.11213116706E+02 -0.12160919757E+03  0.17604915468E+03  0.12500000000E+03 0.  0.
         25    1    1    2    0    0 -0.11047313724E+03  0.52665327096E+02 -0.94394382358E+03  0.96001713152E+03  0.12500000000E+03 0.  0.
</event>
<event>
 5    0  0.5597833E-005  0.3481607E+03  0.7546771E-02  0.1063372E+00
         21   -1    0    0  502  501  0.00000000000E+00  0.00000000000E+00  0.38068621121E+03  0.38068621121E+03  0.00000000000E+00 0.  1.
         21   -1    0    0  501  502 -0.00000000000E+00 -0.00000000000E+00 -0.31841415715E+03  0.31841415715E+03  0.00000000000E+00 0.  1.
         25    1    1    2    0    0  0.22246280912E+03  0.14061901318E+03 -0.66807802692E+02  0.29891753179E+03  0.12500000000E+03 0.  0.
         25    1    1    2    0    0 -0.12926619985E+03 -0.22511256659E+02  0.41738562749E+02  0.18596670326E+03  0.12500000000E+03 0.  0.
         25    1    1    2    0    0 -0.93196609274E+02 -0.11810775652E+03  0.87341294006E+02  0.21421613331E+03  0.12500000000E+03 0.  0.
</event>
<event>
 5    0  0.5597833E-005  0.2854405E+03  0.7546771E-02  0.1092754E+00
         21   -1    0    0  502  501  0.00000000000E+00  0.00000000000E+00  0.41605464939E+02  0.41605464939E+02  0.00000000000E+00 0.  1.
         21   -1    0    0  501  502 -0.00000000000E+00 -0.00000000000E+00 -0.19583077510E+04  0.19583077510E+04  0.00000000000E+00 0.  1.
         25    1    1    2    0    0 -0.97135307837E+01  0.10346364769E+03 -0.94505446099E+03  0.95893274702E+03  0.12500000000E+03 0.  0.
         25    1    1    2    0    0  0.11507543481E+03 -0.96219810468E+02 -0.38150230822E+03  0.42856693619E+03  0.12500000000E+03 0.  0.
         25    1    1    2    0    0 -0.10536190403E+03 -0.72438372255E+01 -0.59014551686E+03  0.61241353273E+03  0.12500000000E+03 0.  0.
</event>
<event>
 5    0  0.5597833E-005  0.3813324E+03  0.7546771E-02  0.1050442E+00
         21   -1    0    0  502  501  0.00000000000E+00  0.00000000000E+00  0.16908033958E+03  0.16908033958E+03  0.00000000000E+00 0.  1.
         21   -1    0    0  501  502 -0.00000000000E+00 -0.00000000000E+00 -0.86003141126E+03  0.86003141126E+03  0.00000000000E+00 0.  1.
         25    1    1    2    0    0  0.80078608410E+02 -0.18234589914E+03 -0.44086552336E+03  0.49964989757E+03  0.12500000000E+03 0.  0.
         25    1    1    2    0    0  0.18181684030E+02  0.10812258705E+03  0.57008605050E+02  0.17577271834E+03  0.12500000000E+03 0.  0.
         25    1    1    2    0    0 -0.98260292440E+02  0.74223312093E+02 -0.30709415338E+03  0.35368913493E+03  0.12500000000E+03 0.  0.
</event>
<event>
 5    0  0.5597833E-005  0.4403586E+03  0.7546771E-02  0.1030637E+00
         21   -1    0    0  502  501  0.00000000000E+00  0.00000000000E+00  0.11410182530E+04  0.11410182530E+04  0.00000000000E+00 0. -1.
         21   -1    0    0  501  502 -0.00000000000E+00 -0.00000000000E+00 -0.16994965353E+03  0.16994965353E+03  0.00000000000E+00 0. -1.
         25    1    1    2    0    0 -0.10528685709E+03 -0.57316187338E+02  0.18988725300E+03  0.25700707472E+03  0.12500000000E+03 0.  0.
         25    1    1    2    0    0 -0.17633399000E+03  0.79322231144E+02  0.69663816247E+03  0.73369981722E+03  0.12500000000E+03 0.  0.
         25    1    1    2    0    0  0.28162084710E+03 -0.22006043805E+02  0.84543183964E+02  0.32026101455E+03  0.12500000000E+03 0.  0.
</event>
<event>
 5    0  0.5597833E-005  0.2463234E+03  0.7546771E-02  0.1115651E+00
         21   -1    0    0  502  501  0.00000000000E+00  0.00000000000E+00  0.32612941787E+03  0.32612941787E+03  0.00000000000E+00 0. -1.
         21   -1    0    0  501  502 -0.00000000000E+00 -0.00000000000E+00 -0.18604644270E+03  0.18604644270E+03  0.00000000000E+00 0. -1.
         25    1    1    2    0    0 -0.88231036172E+02  0.83833523379E+00 -0.51142995308E+02  0.16132583339E+03  0.12500000000E+03 0.  0.
         25    1    1    2    0    0  0.16830409146E+02  0.47859483124E+02  0.51468293944E+02  0.14438759669E+03  0.12500000000E+03 0.  0.
         25    1    1    2    0    0  0.71400627025E+02 -0.48697818358E+02  0.13975767654E+03  0.20646243049E+03  0.12500000000E+03 0.  0.
</event>
<event>
 5    0  0.5597833E-005  0.4360981E+03  0.7546771E-02  0.1031951E+00
         21   -1    0    0  502  501  0.00000000000E+00  0.00000000000E+00  0.23970615967E+03  0.23970615967E+03  0.00000000000E+00 0. -1.
         21   -1    0    0  501  502 -0.00000000000E+00 -0.00000000000E+00 -0.79339457182E+03  0.79339457182E+03  0.00000000000E+00 0. -1.
         25    1    1    2    0    0 -0.22687134143E+03 -0.20138197227E+03 -0.50279452274E+03  0.60037707852E+03  0.12500000000E+03 0.  0.
         25    1    1    2    0    0  0.90600899976E+02  0.18949204184E+03 -0.28410545606E+02  0.24606486157E+03  0.12500000000E+03 0.  0.
         25    1    1    2    0    0  0.13627044145E+03  0.11889930432E+02 -0.22483343811E+02  0.18665879140E+03  0.12500000000E+03 0.  0.
</event>
<event>
 5    0  0.5597833E-005  0.2717938E+03  0.7546771E-02  0.1100257E+00
         21   -1    0    0  502  501  0.00000000000E+00  0.00000000000E+00  0.44240575461E+03  0.44240575461E+03  0.00000000000E+00 0. -1.
         21   -1    0    0  501  502 -0.00000000000E+00 -0.00000000000E+00 -0.16697760060E+03  0.16697760060E+03  0.00000000000E+00 0. -1.
         25    1    1    2    0    0  0.16832739627E+03 -0.17225049754E+02  0.15217173498E+03  0.25963830919E+03  0.12500000000E+03 0.  0.
         25    1    1    2    0    0 -0.11882786496E+03 -0.13023761519E+02  0.12248685273E+03  0.21193798373E+03  0.12500000000E+03 0.  0.
         25    1    1    2    0    0 -0.49499531309E+02  0.30248811272E+02  0.76956630295E+00  0.13780706228E+03  0.12500000000E+03 0.  0.
</event>
<event>
 5    0  0.5597833E-005  0.3389205E+03  0.7546771E-02  0.1067257E+00
         21   -1    0    0  502  501  0.00000000000E+00  0.00000000000E+00  0.85434582818E+03  0.85434582818E+03  0.00000000000E+00 0. -1.
         21   -1    0    0  501  502 -0.00000000000E+00 -0.00000000000E+00 -0.13445034640E+03  0.13445034640E+03  0.00000000000E+00 0. -1.
         25    1    1    2    0    0 -0.18328423603E+02  0.67677738010E+02  0.47824386799E+03  0.49925785383E+03  0.12500000000E+03 0.  0.
         25    1    1    2    0    0  0.15931864562E+03  0.36218139778E+02  0.81333194349E+02  0.22121092422E+03  0.12500000000E+03 0.  0.
         25    1    1    2    0    0 -0.14099022201E+03 -0.10389587779E+03  0.16031841944E+03  0.26832739654E+03  0.12500000000E+03 0.  0.
</event>
<event>
 5    0  0.5597833E-005  0.2792835E+03  0.7546771E-02  0.1096081E+00
         21   -1    0    0  502  501  0.00000000000E+00  0.00000000000E+00  0.53234166526E+03  0.53234166526E+03  0.00000000000E+00 0. -1.
         21   -1    0    0  501  502 -0.00000000000E+00 -0.00000000000E+00 -0.14652105386E+03  0.14652105386E+03  0.00000000000E+00 0. -1.
         25    1    1    2    0    0 -0.51436025641E+02 -0.26363674702E+02 -0.43891461459E+02  0.14454123449E+03  0.12500000000E+03 0.  0.
         25    1    1    2    0    0 -0.37771953703E+02  0.49498962670E+02  0.30391310890E+03  0.33446232307E+03  0.12500000000E+03 0.  0.
         25    1    1    2    0    0  0.89207979345E+02 -0.23135287968E+02  0.12579896395E+03  0.19985916156E+03  0.12500000000E+03 0.  0.
</event>
<event>
 5    0  0.5597833E-005  0.2754438E+03  0.7546771E-02  0.1098204E+00
         21   -1    0    0  502  501  0.00000000000E+00  0.00000000000E+00  0.11001479888E+03  0.11001479888E+03  0.00000000000E+00 0.  1.
         21   -1    0    0  501  502 -0.00000000000E+00 -0.00000000000E+00 -0.68962790475E+03  0.68962790475E+03  0.00000000000E+00 0.  1.
         25    1    1    2    0    0  0.53017250431E+02 -0.10813080452E+03 -0.90681117770E+02  0.19583453437E+03  0.12500000000E+03 0.  0.
         25    1    1    2    0    0 -0.93314681345E+02  0.64277977517E+02 -0.41245930469E+03  0.44563097533E+03  0.12500000000E+03 0.  0.
         25    1    1    2    0    0  0.40297430914E+02  0.43852827007E+02 -0.76472683405E+02  0.15817719394E+03  0.12500000000E+03 0.  0.
</event>
<event>
 5    0  0.5597833E-005  0.3432017E+03  0.7546771E-02  0.1065440E+00
         21   -1    0    0  502  501  0.00000000000E+00  0.00000000000E+00  0.41449017848E+03  0.41449017848E+03  0.00000000000E+00 0. -1.
         21   -1    0    0  501  502 -0.00000000000E+00 -0.00000000000E+00 -0.28417415315E+03  0.28417415315E+03  0.00000000000E+00 0. -1.
         25    1    1    2    0    0 -0.44407649314E+02  0.15437529947E+02  0.22656722453E+03  0.26299822030E+03  0.12500000000E+03 0.  0.
         25    1    1    2    0    0  0.30394560847E+02 -0.13220141335E+03 -0.16813925520E+03  0.24959337363E+03  0.12500000000E+03 0.  0.
         25    1    1    2    0    0  0.14013088467E+02  0.11676388341E+03  0.71888055998E+02  0.18607273769E+03  0.12500000000E+03 0.  0.
</event>
<event>
 5    0  0.5597833E-005  0.2831775E+03  0.7546771E-02  0.1093966E+00
         21   -1    0    0  502  501  0.00000000000E+00  0.00000000000E+00  0.36261704870E+03  0.36261704870E+03  0.00000000000E+00 0. -1.
         21   -1    0    0  501  502 -0.00000000000E+00 -0.00000000000E+00 -0.22114096085E+03  0.22114096085E+03  0.00000000000E+00 0. -1.
         25    1    1    2    0    0  0.16739020179E+03 -0.91151961327E+00  0.47840720556E+02  0.21432229251E+03  0.12500000000E+03 0.  0.
         25    1    1    2    0    0 -0.50692261138E+02  0.32449427610E+02 -0.46272456656E+02  0.14624913995E+03  0.12500000000E+03 0.  0.
         25    1    1    2    0    0 -0.11669794065E+03 -0.31537907997E+02  0.13990782395E+03  0.22318657709E+03  0.12500000000E+03 0.  0.
</event>
<event>
 5    0  0.5597833E-005  0.2252752E+03  0.7546771E-02  0.1130010E+00
         21   -1    0    0  502  501  0.00000000000E+00  0.00000000000E+00  0.83406648764E+02  0.83406648764E+02  0.00000000000E+00 0.  1.
         21   -1    0    0  501  502 -0.00000000000E+00 -0.00000000000E+00 -0.60845177629E+03  0.60845177629E+03  0.00000000000E+00 0.  1.
         25    1    1    2    0    0 -0.36826198609E+02 -0.42831474761E+02 -0.16006420379E+03  0.21079908318E+03  0.12500000000E+03 0.  0.
         25    1    1    2    0    0 -0.36350083573E+02  0.55441323261E+02 -0.27720025445E+03  0.31122347271E+03  0.12500000000E+03 0.  0.
         25    1    1    2    0    0  0.73176282181E+02 -0.12609848500E+02 -0.87780669283E+02  0.16983586916E+03  0.12500000000E+03 0.  0.
</event>
<event>
 5    0  0.5597833E-005  0.3943448E+03  0.7546771E-02  0.1045756E+00
         21   -1    0    0  502  501  0.00000000000E+00  0.00000000000E+00  0.39516791714E+03  0.39516791714E+03  0.00000000000E+00 0.  1.
         21   -1    0    0  501  502 -0.00000000000E+00 -0.00000000000E+00 -0.39352345268E+03  0.39352345268E+03  0.00000000000E+00 0.  1.
         25    1    1    2    0    0 -0.21093968399E+03 -0.13502529316E+03  0.21250010092E+03  0.35143800729E+03  0.12500000000E+03 0.  0.
         25    1    1    2    0    0  0.16839982686E+03  0.55100331358E+02 -0.17537139125E+03  0.27888110921E+03  0.12500000000E+03 0.  0.
         25    1    1    2    0    0  0.42539857124E+02  0.79924961801E+02 -0.35484245210E+02  0.15837225332E+03  0.12500000000E+03 0.  0.
</event>
<event>
 5    0  0.5597833E-005  0.2901058E+03  0.7546771E-02  0.1090294E+00
         21   -1    0    0  502  501  0.00000000000E+00  0.00000000000E+00  0.10729952492E+04  0.10729952492E+04  0.00000000000E+00 0.  1.
         21   -1    0    0  501  502 -0.00000000000E+00 -0.00000000000E+00 -0.78435909530E+02  0.78435909530E+02  0.00000000000E+00 0.  1.
         25    1    1    2    0    0  0.17351411260E+03 -0.59155322610E+02  0.53636914922E+03  0.58045100026E+03  0.12500000000E+03 0.  0.
         25    1    1    2    0    0 -0.16026919775E+03  0.18137758384E+02  0.23194940175E+03  0.30893481351E+03  0.12500000000E+03 0.  0.
         25    1    1    2    0    0 -0.13244914855E+02  0.41017564226E+02  0.22624078871E+03  0.26204534497E+03  0.12500000000E+03 0.  0.
</event>
<event>
 5    0  0.5597833E-005  0.3100592E+03  0.7546771E-02  0.1080318E+00
         21   -1    0    0  502  501  0.00000000000E+00  0.00000000000E+00  0.17590564414E+04  0.17590564414E+04  0.00000000000E+00 0.  1.
         21   -1    0    0  501  502 -0.00000000000E+00 -0.00000000000E+00 -0.54652424668E+02  0.54652424668E+02  0.00000000000E+00 0.  1.
         25    1    1    2    0    0  0.15433398461E+03 -0.62982926002E+02  0.50230777969E+03  0.54380505084E+03  0.12500000000E+03 0.  0.
         25    1    1    2    0    0  0.70053840863E+01  0.27817832832E+01  0.14494155947E+03  0.19154599809E+03  0.12500000000E+03 0.  0.
         25    1    1    2    0    0 -0.16133936870E+03  0.60201142718E+02  0.10571546776E+04  0.10783578171E+04  0.12500000000E+03 0.  0.
</event>
<event>
 5    0  0.5597833E-005  0.4809340E+03  0.7546771E-02  0.1018879E+00
         21   -1    0    0  502  501  0.00000000000E+00  0.00000000000E+00  0.55731340619E+03  0.55731340619E+03  0.00000000000E+00 0. -1.
         21   -1    0    0  501  502 -0.00000000000E+00 -0.00000000000E+00 -0.41502231184E+03  0.41502231184E+03  0.00000000000E+00 0. -1.
         25    1    1    2    0    0  0.23264230319E+03 -0.31110825589E+03  0.22023051175E+03  0.46372110845E+03  0.12500000000E+03 0.  0.
         25    1    1    2    0    0 -0.22513483732E+03  0.19575962499E+03 -0.53037483181E+01  0.32351299123E+03  0.12500000000E+03 0.  0.
         25    1    1    2    0    0 -0.75074658777E+01  0.11534863090E+03 -0.72635669080E+02  0.18510161835E+03  0.12500000000E+03 0.  0.
</event>
<event>
 5    0  0.5597833E-005  0.2752636E+03  0.7546771E-02  0.1098304E+00
         21   -1    0    0  502  501  0.00000000000E+00  0.00000000000E+00  0.45065773119E+03  0.45065773119E+03  0.00000000000E+00 0. -1.
         21   -1    0    0  501  502 -0.00000000000E+00 -0.00000000000E+00 -0.16813214664E+03  0.16813214664E+03  0.00000000000E+00 0. -1.
         25    1    1    2    0    0  0.68041093955E+02 -0.10139776898E+03  0.29019912311E+03  0.33875009827E+03  0.12500000000E+03 0.  0.
         25    1    1    2    0    0 -0.40422924371E+02  0.36448683285E+02 -0.63875965987E+01  0.13648560627E+03  0.12500000000E+03 0.  0.
         25    1    1    2    0    0 -0.27618169584E+02  0.64949085696E+02 -0.12859419639E+01  0.14355417330E+03  0.12500000000E+03 0.  0.
</event>
<event>
 5    0  0.5597833E-005  0.3546678E+03  0.7546771E-02  0.1060715E+00
         21   -1    0    0  502  501  0.00000000000E+00  0.00000000000E+00  0.44277157821E+03  0.44277157821E+03  0.00000000000E+00 0.  1.
         21   -1    0    0  501  502 -0.00000000000E+00 -0.00000000000E+00 -0.28409511939E+03  0.28409511939E+03  0.00000000000E+00 0.  1.
         25    1    1    2    0    0 -0.10791296683E+01  0.92273198721E+02 -0.36467315649E+02  0.15959440101E+03  0.12500000000E+03 0.  0.
         25    1    1    2    0    0  0.17974026020E+03  0.91364549550E+02  0.33576921186E+02  0.23959643505E+03  0.12500000000E+03 0.  0.
         25    1    1    2    0    0 -0.17866113053E+03 -0.18363774827E+03  0.16156685329E+03  0.32767586154E+03  0.12500000000E+03 0.  0.
</event>
<event>
 5    0  0.5597833E-005  0.4686837E+03  0.7546771E-02  0.1022292E+00
         21   -1    0    0  502  501  0.00000000000E+00  0.00000000000E+00  0.35281314094E+03  0.35281314094E+03  0.00000000000E+00 0. -1.
         21   -1    0    0  501  502 -0.00000000000E+00 -0.00000000000E+00 -0.62260833603E+03  0.62260833603E+03  0.00000000000E+00 0. -1.
         25    1    1    2    0    0  0.88257634653E+02 -0.15252317237E+03 -0.13472621646E+03  0.25461516370E+03  0.12500000000E+03 0.  0.
         25    1    1    2    0    0 -0.14181675539E+03  0.35488152548E+03  0.62598507054E+02  0.40693545228E+03  0.12500000000E+03 0.  0.
         25    1    1    2    0    0  0.53559120738E+02 -0.20235835310E+03 -0.19766748568E+03  0.31387086099E+03  0.12500000000E+03 0.  0.
</event>
<event>
 5    0  0.5597833E-005  0.3026019E+03  0.7546771E-02  0.1083947E+00
         21   -1    0    0  502  501  0.00000000000E+00  0.00000000000E+00  0.34479099046E+02  0.34479099046E+02  0.00000000000E+00 0.  1.
         21   -1    0    0  501  502 -0.00000000000E+00 -0.00000000000E+00 -0.26557516928E+04  0.26557516928E+04  0.00000000000E+00 0.  1.
         25    1    1    2    0    0 -0.17205769816E+03  0.10657395440E+03 -0.16268956213E+04  0.16441947031E+04  0.12500000000E+03 0.  0.
         25    1    1    2    0    0  0.99431459254E+02 -0.65940329091E+02 -0.47843095236E+03  0.50868056604E+03  0.12500000000E+03 0.  0.
         25    1    1    2    0    0  0.72626238905E+02 -0.40633625304E+02 -0.51594602013E+03  0.53735552270E+03  0.12500000000E+03 0.  0.
</event>
<event>
 5    0  0.5597833E-005  0.3012882E+03  0.7546771E-02  0.1084598E+00
         21   -1    0    0  502  501  0.00000000000E+00  0.00000000000E+00  0.16212875115E+04  0.16212875115E+04  0.00000000000E+00 0. -1.
         21   -1    0    0  501  502 -0.00000000000E+00 -0.00000000000E+00 -0.55989207127E+02  0.55989207127E+02  0.00000000000E+00 0.  1.
         25    1    1    2    0    0  0.53109155522E+02 -0.21674310225E+03  0.67199965913E+03  0.71903177721E+03  0.12500000000E+03 0.  0.
         25    1    1    2    0    0 -0.59555542812E+02  0.75039191733E+02  0.42282514485E+03  0.45120266632E+03  0.12500000000E+03 0.  0.
         25    1    1    2    0    0  0.64463872897E+01  0.14170391051E+03  0.47047350043E+03  0.50704227513E+03  0.12500000000E+03 0.  0.
</event>
<event>
 5    0  0.5597833E-005  0.2920926E+03  0.7546771E-02  0.1089262E+00
         21   -1    0    0  502  501  0.00000000000E+00  0.00000000000E+00  0.30025398370E+03  0.30025398370E+03  0.00000000000E+00 0.  1.
         21   -1    0    0  501  502 -0.00000000000E+00 -0.00000000000E+00 -0.28415306584E+03  0.28415306584E+03  0.00000000000E+00 0.  1.
         25    1    1    2    0    0 -0.99027244272E+02 -0.48451292127E+02  0.67682587974E+02  0.17988845302E+03  0.12500000000E+03 0.  0.
         25    1    1    2    0    0  0.41564972681E+02 -0.12180684018E+03 -0.47459386764E+02  0.18558541608E+03  0.12500000000E+03 0.  0.
         25    1    1    2    0    0  0.57462271590E+02  0.17025813231E+03 -0.41222833503E+01  0.21893318043E+03  0.12500000000E+03 0.  0.
</event>
<event>
 5    0  0.5597833E-005  0.4677257E+03  0.7546771E-02  0.1022564E+00
         21   -1    0    0  502  501  0.00000000000E+00  0.00000000000E+00  0.21141163620E+03  0.21141163620E+03  0.00000000000E+00 0. -1.
         21   -1    0    0  501  502 -0.00000000000E+00 -0.00000000000E+00 -0.10347932629E+04  0.10347932629E+04  0.00000000000E+00 0. -1.
         25    1    1    2    0    0  0.43148315703E+02  0.90120297547E+02 -0.42357607001E+03  0.45279701000E+03  0.12500000000E+03 0.  0.
         25    1    1    2    0    0 -0.64773411073E+01 -0.16614657099E+03  0.12815407019E+03  0.24432581670E+03  0.12500000000E+03 0.  0.
         25    1    1    2    0    0 -0.36670974596E+02  0.76026273446E+02 -0.52795962685E+03  0.54908207238E+03  0.12500000000E+03 0.  0.
</event>
<event>
 5    0  0.5597833E-005  0.3217800E+03  0.7546771E-02  0.1074833E+00
         21   -1    0    0  502  501  0.00000000000E+00  0.00000000000E+00  0.11321262183E+03  0.11321262183E+03  0.00000000000E+00 0.  1.
         21   -1    0    0  501  502 -0.00000000000E+00 -0.00000000000E+00 -0.91458319686E+03  0.91458319686E+03  0.00000000000E+00 0.  1.
         25    1    1    2    0    0  0.17795867292E+03  0.12641659046E+03 -0.18387911369E+03  0.31158782399E+03  0.12500000000E+03 0.  0.
         25    1    1    2    0    0 -0.78000888906E+02 -0.12393669148E+03 -0.41973340122E+03  0.46178519927E+03  0.12500000000E+03 0.  0.
         25    1    1    2    0    0 -0.99957784014E+02 -0.24798989810E+01 -0.19775806013E+03  0.25442279542E+03  0.12500000000E+03 0.  0.
</event>
<event>
 5    0  0.5597833E-005  0.2881355E+03  0.7546771E-02  0.1091327E+00
         21   -1    0    0  502  501  0.00000000000E+00  0.00000000000E+00  0.42203349974E+03  0.42203349974E+03  0.00000000000E+00 0.  1.
         21   -1    0    0  501  502 -0.00000000000E+00 -0.00000000000E+00 -0.19671913969E+03  0.19671913969E+03  0.00000000000E+00 0.  1.
         25    1    1    2    0    0 -0.72161143499E+02  0.15066760742E+03  0.72333243328E+02  0.22082811562E+03  0.12500000000E+03 0.  0.
         25    1    1    2    0    0  0.47684629282E+02 -0.37470119543E+01  0.15326455406E+03  0.20347699501E+03  0.12500000000E+03 0.  0.
         25    1    1    2    0    0  0.24476514217E+02 -0.14692059546E+03 -0.28343734659E+00  0.19444752880E+03  0.12500000000E+03 0.  0.
</event>
<event>
 5    0  0.5597833E-005  0.2877171E+03  0.7546771E-02  0.1091547E+00
         21   -1    0    0  502  501  0.00000000000E+00  0.00000000000E+00  0.85270981911E+03  0.85270981911E+03  0.00000000000E+00 0. -1.
         21   -1    0    0  501  502 -0.00000000000E+00 -0.00000000000E+00 -0.97080040999E+02  0.97080040999E+02  0.00000000000E+00 0. -1.
         25    1    1    2    0    0 -0.18445816662E+03  0.61027515498E+02  0.44424744011E+03  0.50072942886E+03  0.12500000000E+03 0.  0.
         25    1    1    2    0    0  0.10916145580E+03 -0.63117850941E+02  0.17565730664E+03  0.24976103762E+03  0.12500000000E+03 0.  0.
         25    1    1    2    0    0  0.75296710817E+02  0.20903354429E+01  0.13572503136E+03  0.19929939363E+03  0.12500000000E+03 0.  0.
</event>
<event>
 5    0  0.5597833E-005  0.2499709E+03  0.7546771E-02  0.1113323E+00
         21   -1    0    0  502  501  0.00000000000E+00  0.00000000000E+00  0.63999366222E+02  0.63999366222E+02  0.00000000000E+00 0. -1.
         21   -1    0    0  501  502 -0.00000000000E+00 -0.00000000000E+00 -0.97634517775E+03  0.97634517775E+03  0.00000000000E+00 0. -1.
         25    1    1    2    0    0 -0.66652851493E+02 -0.34484057305E+02 -0.33306785971E+03  0.36358073655E+03  0.12500000000E+03 0.  0.
         25    1    1    2    0    0  0.73220708779E+02 -0.89827347034E+02 -0.24014476740E+03  0.29449063445E+03  0.12500000000E+03 0.  0.
         25    1    1    2    0    0 -0.65678572856E+01  0.12431140434E+03 -0.33913318442E+03  0.38227317297E+03  0.12500000000E+03 0.  0.
</event>
<event>
 5    0  0.5597833E-005  0.3294685E+03  0.7546771E-02  0.1071372E+00
         21   -1    0    0  502  501  0.00000000000E+00  0.00000000000E+00  0.10105606747E+04  0.10105606747E+04  0.00000000000E+00 0.  1.
         21   -1    0    0  501  502 -0.00000000000E+00 -0.00000000000E+00 -0.10741513177E+03  0.10741513177E+03  0.00000000000E+00 0.  1.
         25    1    1    2    0    0 -0.42180895044E+01  0.84395413762E+02  0.84004010740E+02  0.17269062500E+03  0.12500000000E+03 0.  0.
         25    1    1    2    0    0  0.34386319351E+02 -0.10404120130E+03  0.79598775058E+03  0.81315957204E+03  0.12500000000E+03 0.  0.
         25    1    1    2    0    0 -0.30168229847E+02  0.19645787538E+02  0.23153781592E+02  0.13212560941E+03  0.12500000000E+03 0.  0.
</event>
<event>
 5    0  0.5601791E-005  0.2950385E+03  0.7546771E-02  0.1087747E+00
         21   -1    0    0  502  501  0.00000000000E+00  0.00000000000E+00  0.38721762795E+03  0.38721762795E+03  0.00000000000E+00 0. -1.
         21   -1    0    0  501  502 -0.00000000000E+00 -0.00000000000E+00 -0.22480305477E+03  0.22480305477E+03  0.00000000000E+00 0. -1.
         25    1    1    2    0    0 -0.57109817759E+02  0.32845976646E+02  0.66310278734E+02  0.15608472870E+03  0.12500000000E+03 0.  0.
         25    1    1    2    0    0  0.13941015366E+03 -0.14190797565E+03  0.12873354933E+03  0.26789996495E+03  0.12500000000E+03 0.  0.
         25    1    1    2    0    0 -0.82300335899E+02  0.10906199900E+03 -0.32629254877E+02  0.18803598908E+03  0.12500000000E+03 0.  0.
</event>
<event>
 5    0  0.5597833E-005  0.2633512E+03  0.7546771E-02  0.1105146E+00
         21   -1    0    0  502  501  0.00000000000E+00  0.00000000000E+00  0.32374153375E+03  0.32374153375E+03  0.00000000000E+00 0. -1.
         21   -1    0    0  501  502 -0.00000000000E+00 -0.00000000000E+00 -0.21422602961E+03  0.21422602961E+03  0.00000000000E+00 0. -1.
         25    1    1    2    0    0 -0.72954992405E+02 -0.31286129159E+02  0.16612271445E+03  0.22253765761E+03  0.12500000000E+03 0.  0.
         25    1    1    2    0    0  0.41412232628E+02 -0.16541771502E+02  0.49602817448E+02  0.14168289493E+03  0.12500000000E+03 0.  0.
         25    1    1    2    0    0  0.31542759778E+02  0.47827900662E+02 -0.10621002776E+03  0.17374701083E+03  0.12500000000E+03 0.  0.
</event>
<event>
 5    0  0.5597833E-005  0.2802378E+03  0.7546771E-02  0.1095559E+00
         21   -1    0    0  502  501  0.00000000000E+00  0.00000000000E+00  0.59184813379E+02  0.59184813379E+02  0.00000000000E+00 0.  1.
         21   -1    0    0  501  502 -0.00000000000E+00 -0.00000000000E+00 -0.13269149353E+04  0.13269149353E+04  0.00000000000E+00 0.  1.
         25    1    1    2    0    0  0.35968704840E+02  0.98016810628E+02 -0.25436177617E+03  0.30203634892E+03  0.12500000000E+03 0.  0.
         25    1    1    2    0    0 -0.19099015834E+02 -0.16899894974E+03 -0.79150498050E+03  0.81916454487E+03  0.12500000000E+03 0.  0.
         25    1    1    2    0    0 -0.16869689006E+02  0.70982139111E+02 -0.22186336526E+03  0.26489885489E+03  0.12500000000E+03 0.  0.
</event>
<event>
 5    0  0.5597833E-005  0.3090685E+03  0.7546771E-02  0.1080793E+00
         21   -1    0    0  502  501  0.00000000000E+00  0.00000000000E+00  0.27638901143E+03  0.27638901143E+03  0.00000000000E+00 0. -1.
         21   -1    0    0  501  502 -0.00000000000E+00 -0.00000000000E+00 -0.34561183426E+03  0.34561183426E+03  0.00000000000E+00 0. -1.
         25    1    1    2    0    0 -0.23091579447E+02  0.73252160877E+01  0.49392660161E+02  0.13657054847E+03  0.12500000000E+03 0.  0.
         25    1    1    2    0    0  0.10238412408E+03  0.17109161367E+03 -0.29965487861E+02  0.23722938181E+03  0.12500000000E+03 0.  0.
         25    1    1    2    0    0 -0.79292544633E+02 -0.17841682975E+03 -0.88649995129E+02  0.24820091541E+03  0.12500000000E+03 0.  0.
</event>
<event>
 5    0  0.5597833E-005  0.3657188E+03  0.7546771E-02  0.1056342E+00
         21   -1    0    0  502  501  0.00000000000E+00  0.00000000000E+00  0.14411658202E+03  0.14411658202E+03  0.00000000000E+00 0. -1.
         21   -1    0    0  501  502 -0.00000000000E+00 -0.00000000000E+00 -0.92806976649E+03  0.92806976649E+03  0.00000000000E+00 0. -1.
         25    1    1    2    0    0 -0.65428965952E+02 -0.11299273644E+03 -0.55849525754E+02  0.18918899968E+03  0.12500000000E+03 0.  0.
         25    1    1    2    0    0  0.14344161141E+03 -0.11626274158E+03 -0.27239707258E+03  0.35201943997E+03  0.12500000000E+03 0.  0.
         25    1    1    2    0    0 -0.78012645461E+02  0.22925547802E+03 -0.45570658614E+03  0.53097790886E+03  0.12500000000E+03 0.  0.
</event>
<event>
 5    0  0.5597833E-005  0.2803825E+03  0.7546771E-02  0.1095480E+00
         21   -1    0    0  502  501  0.00000000000E+00  0.00000000000E+00  0.68386509433E+03  0.68386509433E+03  0.00000000000E+00 0.  1.
         21   -1    0    0  501  502 -0.00000000000E+00 -0.00000000000E+00 -0.11495589858E+03  0.11495589858E+03  0.00000000000E+00 0.  1.
         25    1    1    2    0    0  0.12003956063E+03  0.31376347893E+02  0.23080803518E+03  0.29032967541E+03  0.12500000000E+03 0.  0.
         25    1    1    2    0    0 -0.92510340049E+02 -0.49298704697E+02  0.19036030751E+02  0.16424340403E+03  0.12500000000E+03 0.  0.
         25    1    1    2    0    0 -0.27529220577E+02  0.17922356803E+02  0.31906512982E+03  0.34424791347E+03  0.12500000000E+03 0.  0.
</event>
<event>
 5    0  0.5597833E-005  0.3714936E+03  0.7546771E-02  0.1054123E+00
         21   -1    0    0  502  501  0.00000000000E+00  0.00000000000E+00  0.62213974876E+02  0.62213974876E+02  0.00000000000E+00 0.  1.
         21   -1    0    0  501  502 -0.00000000000E+00 -0.00000000000E+00 -0.22182711581E+04  0.22182711581E+04  0.00000000000E+00 0.  1.
         25    1    1    2    0    0  0.18503296250E+03  0.31123297961E+02 -0.40091551824E+03  0.45996098710E+03  0.12500000000E+03 0.  0.
         25    1    1    2    0    0 -0.18280384393E+03  0.92343522686E+02 -0.51684241004E+03  0.56982071597E+03  0.12500000000E+03 0.  0.
         25    1    1    2    0    0 -0.22291185715E+01 -0.12346682065E+03 -0.12382992550E+04  0.12507034299E+04  0.12500000000E+03 0.  0.
</event>
<event>
 5    0  0.5879555E-005  0.2706670E+03  0.7546771E-02  0.1100898E+00
         21   -1    0    0  502  501  0.00000000000E+00  0.00000000000E+00  0.60970837085E+03  0.60970837085E+03  0.00000000000E+00 0. -1.
         21   -1    0    0  501  502 -0.00000000000E+00 -0.00000000000E+00 -0.12015686824E+03  0.12015686824E+03  0.00000000000E+00 0. -1.
         25    1    1    2    0    0 -0.67560062398E+02 -0.40018553963E+02  0.11550226482E+02  0.14806841130E+03  0.12500000000E+03 0.  0.
         25    1    1    2    0    0  0.12233220372E+03  0.30093532029E+02  0.17456640056E+03  0.24893617042E+03  0.12500000000E+03 0.  0.
         25    1    1    2    0    0 -0.54772141319E+02  0.99250219336E+01  0.30343487556E+03  0.33286065738E+03  0.12500000000E+03 0.  0.
</event>
<event>
 5    0  0.5597833E-005  0.5949092E+03  0.7546771E-02  0.9916024E-01
         21   -1    0    0  502  501  0.00000000000E+00  0.00000000000E+00  0.49269771825E+03  0.49269771825E+03  0.00000000000E+00 0.  1.
         21   -1    0    0  501  502 -0.00000000000E+00 -0.00000000000E+00 -0.71832480452E+03  0.71832480452E+03  0.00000000000E+00 0.  1.
         25    1    1    2    0    0 -0.89016442696E+02 -0.22611873190E+02 -0.18397242504E+03  0.24063681566E+03  0.12500000000E+03 0.  0.
         25    1    1    2    0    0  0.45357275109E+03  0.13739218072E+03  0.16642745095E+03  0.51761756953E+03  0.12500000000E+03 0.  0.
         25    1    1    2    0    0 -0.36455630840E+03 -0.11478030753E+03 -0.20808211218E+03  0.45276813757E+03  0.12500000000E+03 0.  0.
</event>
<event>
 5    0  0.5597833E-005  0.2473513E+03  0.7546771E-02  0.1114990E+00
         21   -1    0    0  502  501  0.00000000000E+00  0.00000000000E+00  0.11408040859E+03  0.11408040859E+03  0.00000000000E+00 0. -1.
         21   -1    0    0  501  502 -0.00000000000E+00 -0.00000000000E+00 -0.53631160449E+03  0.53631160449E+03  0.00000000000E+00 0. -1.
         25    1    1    2    0    0  0.45130976954E+02  0.14328457457E+02 -0.90581518529E+02  0.16146863867E+03  0.12500000000E+03 0.  0.
         25    1    1    2    0    0 -0.62769802174E+02 -0.24251393554E+02 -0.89215942928E+01  0.14224195232E+03  0.12500000000E+03 0.  0.
         25    1    1    2    0    0  0.17638825220E+02  0.99229360973E+01 -0.32272808308E+03  0.34668142210E+03  0.12500000000E+03 0.  0.
</event>
<event>
 5    0  0.5597833E-005  0.4175541E+03  0.7546771E-02  0.1037865E+00
         21   -1    0    0  502  501  0.00000000000E+00  0.00000000000E+00  0.18719472178E+03  0.18719472178E+03  0.00000000000E+00 0. -1.
         21   -1    0    0  501  502 -0.00000000000E+00 -0.00000000000E+00 -0.93139064530E+03  0.93139064530E+03  0.00000000000E+00 0. -1.
         25    1    1    2    0    0  0.17257037943E+03  0.24081727161E+03 -0.20819947083E+03  0.38307377072E+03  0.12500000000E+03 0.  0.
         25    1    1    2    0    0 -0.95249244767E+02 -0.25669736401E+03 -0.49960213773E+03  0.58326087760E+03  0.12500000000E+03 0.  0.
         25    1    1    2    0    0 -0.77321134666E+02  0.15880092403E+02 -0.36394314954E+02  0.15225071876E+03  0.12500000000E+03 0.  0.
</event>
<event>
 5    0  0.5597833E-005  0.2750086E+03  0.7546771E-02  0.1098447E+00
         21   -1    0    0  502  501  0.00000000000E+00  0.00000000000E+00  0.10485992635E+04  0.10485992635E+04  0.00000000000E+00 0. -1.
         21   -1    0    0  501  502 -0.00000000000E+00 -0.00000000000E+00 -0.72124557149E+02  0.72124557149E+02  0.00000000000E+00 0. -1.
         25    1    1    2    0    0  0.43393096094E+02  0.21153544568E+02  0.48525993175E+03  0.50342093183E+03  0.12500000000E+03 0.  0.
         25    1    1    2    0    0 -0.13792846589E+03  0.57831371835E+02  0.29995780781E+03  0.35772673332E+03  0.12500000000E+03 0.  0.
         25    1    1    2    0    0  0.94535369797E+02 -0.78984916403E+02  0.19125696683E+03  0.25957615554E+03  0.12500000000E+03 0.  0.
</event>
<event>
 5    0  0.5597833E-005  0.2867466E+03  0.7546771E-02  0.1092060E+00
         21   -1    0    0  502  501  0.00000000000E+00  0.00000000000E+00  0.18262723863E+03  0.18262723863E+03  0.00000000000E+00 0. -1.
         21   -1    0    0  501  502 -0.00000000000E+00 -0.00000000000E+00 -0.45022644065E+03  0.45022644065E+03  0.00000000000E+00 0. -1.
         25    1    1    2    0    0  0.65373825361E+02 -0.77978038583E+01 -0.21283062384E+03  0.25545335627E+03  0.12500000000E+03 0.  0.
         25    1    1    2    0    0 -0.16389473794E+03  0.32864046825E+02 -0.56621510749E+02  0.21626956831E+03  0.12500000000E+03 0.  0.
         25    1    1    2    0    0  0.98520912575E+02 -0.25066242967E+02  0.18529325629E+01  0.16113075470E+03  0.12500000000E+03 0.  0.
</event>
<event>
 5    0  0.5597833E-005  0.2795406E+03  0.7546771E-02  0.1095940E+00
         21   -1    0    0  502  501  0.00000000000E+00  0.00000000000E+00  0.18343451935E+03  0.18343451935E+03  0.00000000000E+00 0.  1.
         21   -1    0    0  501  502 -0.00000000000E+00 -0.00000000000E+00 -0.42599898842E+03  0.42599898842E+03  0.00000000000E+00 0.  1.
         25    1    1    2    0    0  0.65119909544E+02  0.30371221602E+01 -0.86175285122E+02  0.16523016219E+03  0.12500000000E+03 0.  0.
         25    1    1    2    0    0  0.14129555809E+02 -0.13864542912E+03  0.40131616621E+01  0.18725198218E+03  0.12500000000E+03 0.  0.
         25    1    1    2    0    0 -0.79249465353E+02  0.13560830696E+03 -0.16040234561E+03  0.25695136340E+03  0.12500000000E+03 0.  0.
</event>
<event>
 5    0  0.5597833E-005  0.3202118E+03  0.7546771E-02  0.1075552E+00
         21   -1    0    0  502  501  0.00000000000E+00  0.00000000000E+00  0.37589720135E+03  0.37589720135E+03  0.00000000000E+00 0. -1.
         21   -1    0    0  501  502 -0.00000000000E+00 -0.00000000000E+00 -0.27277571409E+03  0.27277571409E+03  0.00000000000E+00 0. -1.
         25    1    1    2    0    0 -0.12121045275E+03 -0.20321639124E+03  0.38882567760E+02  0.27041769469E+03  0.12500000000E+03 0.  0.
         25    1    1    2    0    0  0.10512151815E+03  0.63953256422E+02  0.73555303892E+02  0.19019972480E+03  0.12500000000E+03 0.  0.
         25    1    1    2    0    0  0.16088934602E+02  0.13926313482E+03 -0.93163843927E+01  0.18805549594E+03  0.12500000000E+03 0.  0.
</event>
<event>
 5    0  0.5597833E-005  0.2209219E+03  0.7546771E-02  0.1133198E+00
         21   -1    0    0  502  501  0.00000000000E+00  0.00000000000E+00  0.34300428637E+03  0.34300428637E+03  0.00000000000E+00 0. -1.
         21   -1    0    0  501  502 -0.00000000000E+00 -0.00000000000E+00 -0.14229115017E+03  0.14229115017E+03  0.00000000000E+00 0. -1.
         25    1    1    2    0    0 -0.11734424750E+02 -0.25296312701E+02 -0.21993589622E+00  0.12807282511E+03  0.12500000000E+03 0.  0.
         25    1    1    2    0    0  0.63781226227E+02  0.47377407756E+02  0.57893019146E+02  0.15902598923E+03  0.12500000000E+03 0.  0.
         25    1    1    2    0    0 -0.52046801477E+02 -0.22081095055E+02  0.14304005295E+03  0.19819662220E+03  0.12500000000E+03 0.  0.
</event>
<event>
 5    0  0.5597833E-005  0.3671396E+03  0.7546771E-02  0.1055792E+00
         21   -1    0    0  502  501  0.00000000000E+00  0.00000000000E+00  0.73799197431E+02  0.73799197431E+02  0.00000000000E+00 0. -1.
         21   -1    0    0  501  502 -0.00000000000E+00 -0.00000000000E+00 -0.18264630201E+04  0.18264630201E+04  0.00000000000E+00 0. -1.
         25    1    1    2    0    0 -0.16847255072E+03  0.12559198091E+03 -0.83262456786E+03  0.86778166437E+03  0.12500000000E+03 0.  0.
         25    1    1    2    0    0  0.21621590898E+03 -0.98539956075E+02 -0.32291785679E+03  0.41995283601E+03  0.12500000000E+03 0.  0.
         25    1    1    2    0    0 -0.47743358256E+02 -0.27052024836E+02 -0.59712139802E+03  0.61252771715E+03  0.12500000000E+03 0.  0.
</event>
<event>
 5    0  0.5597833E-005  0.5306232E+03  0.7546771E-02  0.1006081E+00
         21   -1    0    0  502  501  0.00000000000E+00  0.00000000000E+00  0.35700251229E+03  0.35700251229E+03  0.00000000000E+00 0. -1.
         21   -1    0    0  501  502 -0.00000000000E+00 -0.00000000000E+00 -0.78868076923E+03  0.78868076923E+03  0.00000000000E+00 0. -1.
         25    1    1    2    0    0  0.34417329242E+03 -0.68522382784E+02 -0.33170061616E+03  0.49879942955E+03  0.12500000000E+03 0.  0.
         25    1    1    2    0    0 -0.17801441341E+03  0.10684337834E+03  0.17579515001E+03  0.29938866653E+03  0.12500000000E+03 0.  0.
         25    1    1    2    0    0 -0.16615887901E+03 -0.38320995559E+02 -0.27577279079E+03  0.34749518545E+03  0.12500000000E+03 0.  0.
</event>
<event>
 5    0  0.5597833E-005  0.3067373E+03  0.7546771E-02  0.1081920E+00
         21   -1    0    0  502  501  0.00000000000E+00  0.00000000000E+00  0.60134899569E+03  0.60134899569E+03  0.00000000000E+00 0. -1.
         21   -1    0    0  501  502 -0.00000000000E+00 -0.00000000000E+00 -0.15646116852E+03  0.15646116852E+03  0.00000000000E+00 0. -1.
         25    1    1    2    0    0  0.11421154167E+03 -0.25494756406E+02  0.13945977631E+03  0.22083543208E+03  0.12500000000E+03 0.  0.
         25    1    1    2    0    0  0.78280146496E+02 -0.47566782355E+02  0.24290199760E+03  0.28812629272E+03  0.12500000000E+03 0.  0.
         25    1    1    2    0    0 -0.19249168816E+03  0.73061538760E+02  0.62526053263E+02  0.24884843941E+03  0.12500000000E+03 0.  0.
</event>
<event>
 5    0  0.5597833E-005  0.3594702E+03  0.7546771E-02  0.1058794E+00
         21   -1    0    0  502  501  0.00000000000E+00  0.00000000000E+00  0.11421872203E+03  0.11421872203E+03  0.00000000000E+00 0.  1.
         21   -1    0    0  501  502 -0.00000000000E+00 -0.00000000000E+00 -0.11313278657E+04  0.11313278657E+04  0.00000000000E+00 0.  1.
         25    1    1    2    0    0 -0.13001391700E+03 -0.11167222223E+03 -0.62469214474E+03  0.65972689769E+03  0.12500000000E+03 0.  0.
         25    1    1    2    0    0  0.70915853393E+02 -0.77554887845E+02 -0.49826509843E+02  0.17073810346E+03  0.12500000000E+03 0.  0.
         25    1    1    2    0    0  0.59098063611E+02  0.18922711008E+03 -0.34259048913E+03  0.41508158662E+03  0.12500000000E+03 0.  0.
</event>
<event>
 5    0  0.5597833E-005  0.2278875E+03  0.7546771E-02  0.1128136E+00
         21   -1    0    0  502  501  0.00000000000E+00  0.00000000000E+00  0.54094686189E+03  0.54094686189E+03  0.00000000000E+00 0.  1.
         21   -1    0    0  501  502 -0.00000000000E+00 -0.00000000000E+00 -0.96003324708E+02  0.96003324708E+02  0.00000000000E+00 0.  1.
         25    1    1    2    0    0 -0.78283009185E+02 -0.45872051681E+02  0.13338319422E+03  0.20407976664E+03  0.12500000000E+03 0.  0.
         25    1    1    2    0    0  0.11047787443E+03  0.32250682500E+02  0.16086167400E+03  0.23398065181E+03  0.12500000000E+03 0.  0.
         25    1    1    2    0    0 -0.32194865241E+02  0.13621369181E+02  0.15069866897E+03  0.19888976815E+03  0.12500000000E+03 0.  0.
</event>
<event>
 5    0  0.5597833E-005  0.2647074E+03  0.7546771E-02  0.1104347E+00
         21   -1    0    0  502  501  0.00000000000E+00  0.00000000000E+00  0.19064514611E+03  0.19064514611E+03  0.00000000000E+00 0.  1.
         21   -1    0    0  501  502 -0.00000000000E+00 -0.00000000000E+00 -0.36754162772E+03  0.36754162772E+03  0.00000000000E+00 0.  1.
         25    1    1    2    0    0 -0.11181430855E+03  0.60174979699E+01 -0.39340006855E+02  0.17236962034E+03  0.12500000000E+03 0.  0.
         25    1    1    2    0    0  0.13025829238E+03 -0.82462162481E+02 -0.24809642490E+02  0.20001937240E+03  0.12500000000E+03 0.  0.
         25    1    1    2    0    0 -0.18443983829E+02  0.76444664511E+02 -0.11274683227E+03  0.18579778109E+03  0.12500000000E+03 0.  0.
</event>
<event>
 5    0  0.5597833E-005  0.2610140E+03  0.7546771E-02  0.1106536E+00
         21   -1    0    0  502  501  0.00000000000E+00  0.00000000000E+00  0.64622125418E+03  0.64622125418E+03  0.00000000000E+00 0. -1.
         21   -1    0    0  501  502 -0.00000000000E+00 -0.00000000000E+00 -0.10542569783E+03  0.10542569783E+03  0.00000000000E+00 0. -1.
         25    1    1    2    0    0 -0.14156587969E+03  0.70198392070E+02  0.17120352856E+03  0.26439432810E+03  0.12500000000E+03 0.  0.
         25    1    1    2    0    0  0.53152364962E+02 -0.82003840820E+02  0.23199264619E+03  0.28106118853E+03  0.12500000000E+03 0.  0.
         25    1    1    2    0    0  0.88413514724E+02  0.11805448749E+02  0.13759938160E+03  0.20619143537E+03  0.12500000000E+03 0.  0.
</event>
<event>
 5    0  0.5597833E-005  0.3123547E+03  0.7546771E-02  0.1079223E+00
         21   -1    0    0  502  501  0.00000000000E+00  0.00000000000E+00  0.48567804760E+03  0.48567804760E+03  0.00000000000E+00 0.  1.
         21   -1    0    0  501  502 -0.00000000000E+00 -0.00000000000E+00 -0.20088499626E+03  0.20088499626E+03  0.00000000000E+00 0.  1.
         25    1    1    2    0    0 -0.10716187014E+03 -0.12765406666E+02  0.29503519172E+02  0.16775601230E+03  0.12500000000E+03 0.  0.
         25    1    1    2    0    0 -0.88743108795E+02 -0.69039769876E+02  0.58733689259E+01  0.16822997844E+03  0.12500000000E+03 0.  0.
         25    1    1    2    0    0  0.19590497894E+03  0.81805176542E+02  0.24941616325E+03  0.35057705312E+03  0.12500000000E+03 0.  0.
</event>
<event>
 5    0  0.5597833E-005  0.2260061E+03  0.7546771E-02  0.1129483E+00
         21   -1    0    0  502  501  0.00000000000E+00  0.00000000000E+00  0.69167892851E+02  0.69167892851E+02  0.00000000000E+00 0.  1.
         21   -1    0    0  501  502 -0.00000000000E+00 -0.00000000000E+00 -0.73847492818E+03  0.73847492818E+03  0.00000000000E+00 0.  1.
         25    1    1    2    0    0 -0.65517309855E+01 -0.51757487513E+02 -0.27144361376E+03  0.30336182710E+03  0.12500000000E+03 0.  0.
         25    1    1    2    0    0  0.49092241833E+02  0.17735584072E+02 -0.77396852467E+02  0.15601240951E+03  0.12500000000E+03 0.  0.
         25    1    1    2    0    0 -0.42540510848E+02  0.34021903441E+02 -0.32046656910E+03  0.34826858441E+03  0.12500000000E+03 0.  0.
</event>
<event>
 5    0  0.5597833E-005  0.3597195E+03  0.7546771E-02  0.1058695E+00
         21   -1    0    0  502  501  0.00000000000E+00  0.00000000000E+00  0.41552016404E+03  0.41552016404E+03  0.00000000000E+00 0.  1.
         21   -1    0    0  501  502 -0.00000000000E+00 -0.00000000000E+00 -0.31141239511E+03  0.31141239511E+03  0.00000000000E+00 0.  1.
         25    1    1    2    0    0  0.24917422100E+02  0.15747802805E+03 -0.10724488787E+02  0.20287982133E+03  0.12500000000E+03 0.  0.
         25    1    1    2    0    0 -0.86397954960E+02  0.12039827782E+03  0.85332594272E+02  0.21181832680E+03  0.12500000000E+03 0.  0.
         25    1    1    2    0    0  0.61480532861E+02 -0.27787630587E+03  0.29499663445E+02  0.31223441102E+03  0.12500000000E+03 0.  0.
</event>
<event>
 5    0  0.5597833E-005  0.2497296E+03  0.7546771E-02  0.1113476E+00
         21   -1    0    0  502  501  0.00000000000E+00  0.00000000000E+00  0.37059190671E+02  0.37059190671E+02  0.00000000000E+00 0.  1.
         21   -1    0    0  501  502 -0.00000000000E+00 -0.00000000000E+00 -0.16828450886E+04  0.16828450886E+04  0.00000000000E+00 0.  1.
         25    1    1    2    0    0 -0.63961970541E+01 -0.86964846531E+01 -0.42197091673E+03  0.44022834387E+03  0.12500000000E+03 0.  0.
         25    1    1    2    0    0 -0.62404333028E+02 -0.62931157733E+02 -0.25272542277E+03  0.29554994621E+03  0.12500000000E+03 0.  0.
         25    1    1    2    0    0  0.68800530082E+02  0.71627642386E+02 -0.97108955843E+03  0.98412598919E+03  0.12500000000E+03 0.  0.
</event>
<event>
 5    0  0.5597833E-005  0.3460906E+03  0.7546771E-02  0.1064231E+00
         21   -1    0    0  502  501  0.00000000000E+00  0.00000000000E+00  0.25918102442E+03  0.25918102442E+03  0.00000000000E+00 0.  1.
         21   -1    0    0  501  502 -0.00000000000E+00 -0.00000000000E+00 -0.46214315985E+03  0.46214315985E+03  0.00000000000E+00 0.  1.
         25    1    1    2    0    0 -0.54570392071E+01 -0.98743313746E+02  0.16185456485E+03  0.22716056315E+03  0.12500000000E+03 0.  0.
         25    1    1    2    0    0 -0.32747808274E+02 -0.71007672979E+01 -0.27399338891E+03  0.30301850935E+03  0.12500000000E+03 0.  0.
         25    1    1    2    0    0  0.38204847482E+02  0.10584408104E+03 -0.90823311375E+02  0.19114511177E+03  0.12500000000E+03 0.  0.
</event>
<event>
 5    0  0.5597833E-005  0.2699774E+03  0.7546771E-02  0.1101293E+00
         21   -1    0    0  502  501  0.00000000000E+00  0.00000000000E+00  0.10370853526E+03  0.10370853526E+03  0.00000000000E+00 0. -1.
         21   -1    0    0  501  502 -0.00000000000E+00 -0.00000000000E+00 -0.70281370144E+03  0.70281370144E+03  0.00000000000E+00 0. -1.
         25    1    1    2    0    0 -0.12292966878E+03 -0.19488598965E+02 -0.11700032667E+03  0.21167329873E+03  0.12500000000E+03 0.  0.
         25    1    1    2    0    0  0.25135316160E+02  0.72585556484E+02 -0.35678182611E+03  0.38577029250E+03  0.12500000000E+03 0.  0.
         25    1    1    2    0    0  0.97794352618E+02 -0.53096957519E+02 -0.12532301341E+03  0.20907864547E+03  0.12500000000E+03 0.  0.
</event>
<event>
 5    0  0.6510543E-005  0.2856359E+03  0.7546771E-02  0.1092650E+00
         21   -1    0    0  502  501  0.00000000000E+00  0.00000000000E+00  0.55433907501E+03  0.55433907501E+03  0.00000000000E+00 0.  1.
         21   -1    0    0  501  502 -0.00000000000E+00 -0.00000000000E+00 -0.14718043012E+03  0.14718043012E+03  0.00000000000E+00 0.  1.
         25    1    1    2    0    0 -0.91408917328E+02 -0.60997263148E+02  0.29768770809E+03  0.34105604793E+03  0.12500000000E+03 0.  0.
         25    1    1    2    0    0  0.71029332391E+02 -0.56639654418E+02 -0.24381067501E+01  0.15454501246E+03  0.12500000000E+03 0.  0.
         25    1    1    2    0    0  0.20379584937E+02  0.11763691757E+03  0.11190904354E+03  0.20591844474E+03  0.12500000000E+03 0.  0.
</event>
<event>
 5    0  0.5597833E-005  0.2064692E+03  0.7546771E-02  0.1144393E+00
         21   -1    0    0  502  501  0.00000000000E+00  0.00000000000E+00  0.10060185720E+03  0.10060185720E+03  0.00000000000E+00 0. -1.
         21   -1    0    0  501  502 -0.00000000000E+00 -0.00000000000E+00 -0.42374495352E+03  0.42374495352E+03  0.00000000000E+00 0. -1.
         25    1    1    2    0    0 -0.38197298219E+02  0.12363015338E+02 -0.17468189532E+03  0.21851920349E+03  0.12500000000E+03 0.  0.
         25    1    1    2    0    0  0.25616148735E+02  0.19544560277E+02 -0.35463526044E+02  0.13386873642E+03  0.12500000000E+03 0.  0.
         25    1    1    2    0    0  0.12581149485E+02 -0.31907575615E+02 -0.11299767495E+03  0.17195887081E+03  0.12500000000E+03 0.  0.
</event>
<event>
 5    0  0.5597833E-005  0.2515180E+03  0.7546771E-02  0.1112349E+00
         21   -1    0    0  502  501  0.00000000000E+00  0.00000000000E+00  0.13269909875E+03  0.13269909875E+03  0.00000000000E+00 0. -1.
         21   -1    0    0  501  502 -0.00000000000E+00 -0.00000000000E+00 -0.47672751845E+03  0.47672751845E+03  0.00000000000E+00 0. -1.
         25    1    1    2    0    0 -0.19163562055E+01  0.38123676436E+02 -0.11171259818E+02  0.13117501352E+03  0.12500000000E+03 0.  0.
         25    1    1    2    0    0 -0.73632864701E+02 -0.93578041367E+02 -0.10527055258E+03  0.20220172559E+03  0.12500000000E+03 0.  0.
         25    1    1    2    0    0  0.75549220907E+02  0.55454364931E+02 -0.22758660731E+03  0.27604987809E+03  0.12500000000E+03 0.  0.
</event>
<event>
 5    0  0.5597833E-005  0.2584777E+03  0.7546771E-02  0.1108061E+00
         21   -1    0    0  502  501  0.00000000000E+00  0.00000000000E+00  0.17981100606E+03  0.17981100606E+03  0.00000000000E+00 0. -1.
         21   -1    0    0  501  502 -0.00000000000E+00 -0.00000000000E+00 -0.37156090680E+03  0.37156090680E+03  0.00000000000E+00 0. -1.
         25    1    1    2    0    0  0.78497604604E+02 -0.51811876803E+02  0.19054432839E+02  0.15758939024E+03  0.12500000000E+03 0.  0.
         25    1    1    2    0    0 -0.54884297270E+02  0.42635292546E+02  0.49980787399E+01  0.14310847301E+03  0.12500000000E+03 0.  0.
         25    1    1    2    0    0 -0.23613307333E+02  0.91765842572E+01 -0.21580241232E+03  0.25067404960E+03  0.12500000000E+03 0.  0.
</event>
<event>
 5    0  0.5597833E-005  0.5352292E+03  0.7546771E-02  0.1004972E+00
         21   -1    0    0  502  501  0.00000000000E+00  0.00000000000E+00  0.14167864917E+03  0.14167864917E+03  0.00000000000E+00 0.  1.
         21   -1    0    0  501  502 -0.00000000000E+00 -0.00000000000E+00 -0.20219719250E+04  0.20219719250E+04  0.00000000000E+00 0.  1.
         25    1    1    2    0    0 -0.17420204353E+03  0.35896266090E+03 -0.10816192125E+04  0.11596230702E+04  0.12500000000E+03 0.  0.
         25    1    1    2    0    0  0.20559957372E+03 -0.70462790087E+02 -0.17777870734E+03  0.30735396254E+03  0.12500000000E+03 0.  0.
         25    1    1    2    0    0 -0.31397530192E+02 -0.28849987082E+03 -0.62089535597E+03  0.69667354150E+03  0.12500000000E+03 0.  0.
</event>
<event>
 5    0  0.5597833E-005  0.2830270E+03  0.7546771E-02  0.1094047E+00
         21   -1    0    0  502  501  0.00000000000E+00  0.00000000000E+00  0.86316259696E+02  0.86316259696E+02  0.00000000000E+00 0. -1.
         21   -1    0    0  501  502 -0.00000000000E+00 -0.00000000000E+00 -0.92803212270E+03  0.92803212270E+03  0.00000000000E+00 0. -1.
         25    1    1    2    0    0 -0.14743569957E+03 -0.15659073181E+02 -0.19638752913E+03  0.27599919144E+03  0.12500000000E+03 0.  0.
         25    1    1    2    0    0  0.58322262237E+02 -0.27389487105E+02 -0.10643666076E+03  0.17636732416E+03  0.12500000000E+03 0.  0.
         25    1    1    2    0    0  0.89113437330E+02  0.43048560285E+02 -0.53889167312E+03  0.56198186680E+03  0.12500000000E+03 0.  0.
</event>
<event>
 5    0  0.5597833E-005  0.4523662E+03  0.7546771E-02  0.1027019E+00
         21   -1    0    0  502  501  0.00000000000E+00  0.00000000000E+00  0.24570907041E+03  0.24570907041E+03  0.00000000000E+00 0. -1.
         21   -1    0    0  501  502 -0.00000000000E+00 -0.00000000000E+00 -0.83283514391E+03  0.83283514391E+03  0.00000000000E+00 0. -1.
         25    1    1    2    0    0  0.13544404569E+03  0.64570364669E+02 -0.26169542804E+03  0.32653318141E+03  0.12500000000E+03 0.  0.
         25    1    1    2    0    0 -0.26442078786E+03  0.14317237394E+03  0.71989859729E+00  0.32564121355E+03  0.12500000000E+03 0.  0.
         25    1    1    2    0    0  0.12897674217E+03 -0.20774273861E+03 -0.32615054406E+03  0.42636981935E+03  0.12500000000E+03 0.  0.
</event>
<event>
 5    0  0.5597833E-005  0.2882396E+03  0.7546771E-02  0.1091272E+00
         21   -1    0    0  502  501  0.00000000000E+00  0.00000000000E+00  0.61932391594E+03  0.61932391594E+03  0.00000000000E+00 0. -1.
         21   -1    0    0  501  502 -0.00000000000E+00 -0.00000000000E+00 -0.13414959181E+03  0.13414959181E+03  0.00000000000E+00 0. -1.
         25    1    1    2    0    0 -0.80992557203E+02 -0.14227879779E+03  0.27576140813E+03  0.34419820574E+03  0.12500000000E+03 0.  0.
         25    1    1    2    0    0  0.10652372767E+03  0.13456267844E+03  0.17945114447E+03  0.27799664069E+03  0.12500000000E+03 0.  0.
         25    1    1    2    0    0 -0.25531170463E+02  0.77161193471E+01  0.29961771539E+02  0.13127866132E+03  0.12500000000E+03 0.  0.
</event>
<event>
 5    0  0.5597833E-005  0.2876397E+03  0.7546771E-02  0.1091588E+00
         21   -1    0    0  502  501  0.00000000000E+00  0.00000000000E+00  0.78689304770E+03  0.78689304770E+03  0.00000000000E+00 0. -1.
         21   -1    0    0  501  502 -0.00000000000E+00 -0.00000000000E+00 -0.10514341867E+03  0.10514341867E+03  0.00000000000E+00 0. -1.
         25    1    1    2    0    0  0.29396337556E+02 -0.13035397258E+03  0.23616937176E+03  0.29875956049E+03  0.12500000000E+03 0.  0.
         25    1    1    2    0    0  0.10010251654E+03 -0.11183192546E+02  0.21503467220E+03  0.26834769957E+03  0.12500000000E+03 0.  0.
         25    1    1    2    0    0 -0.12949885410E+03  0.14153716512E+03  0.23054558507E+03  0.32492920632E+03  0.12500000000E+03 0.  0.
</event>
<event>
 5    0  0.5597833E-005  0.3006906E+03  0.7546771E-02  0.1084896E+00
         21   -1    0    0  502  501  0.00000000000E+00  0.00000000000E+00  0.89488828416E+02  0.89488828416E+02  0.00000000000E+00 0.  1.
         21   -1    0    0  501  502 -0.00000000000E+00 -0.00000000000E+00 -0.10103480847E+04  0.10103480847E+04  0.00000000000E+00 0.  1.
         25    1    1    2    0    0  0.68278255412E+01  0.67544857488E+02 -0.13276206460E+02  0.14286421747E+03  0.12500000000E+03 0.  0.
         25    1    1    2    0    0  0.64180140945E+02 -0.36575574470E+02 -0.57994812032E+03  0.59784754361E+03  0.12500000000E+03 0.  0.
         25    1    1    2    0    0 -0.71007966486E+02 -0.30969283018E+02 -0.32763492953E+03  0.35912515206E+03  0.12500000000E+03 0.  0.
</event>
<event>
 5    0  0.5597833E-005  0.3289534E+03  0.7546771E-02  0.1071601E+00
         21   -1    0    0  502  501  0.00000000000E+00  0.00000000000E+00  0.35352342266E+03  0.35352342266E+03  0.00000000000E+00 0. -1.
         21   -1    0    0  501  502 -0.00000000000E+00 -0.00000000000E+00 -0.30609092127E+03  0.30609092127E+03  0.00000000000E+00 0. -1.
         25    1    1    2    0    0  0.13825492032E+03 -0.20224568816E+03  0.68977410163E+02  0.28355003877E+03  0.12500000000E+03 0.  0.
         25    1    1    2    0    0 -0.12085028673E+03  0.17288903157E+03 -0.24820550082E+02  0.24644769982E+03  0.12500000000E+03 0.  0.
         25    1    1    2    0    0 -0.17404633589E+02  0.29356656590E+02  0.32756413062E+01  0.12961660535E+03  0.12500000000E+03 0.  0.
</event>
<event>
 5    0  0.6367378E-005  0.3066989E+03  0.7546771E-02  0.1081939E+00
         21   -1    0    0  502  501  0.00000000000E+00  0.00000000000E+00  0.49563523677E+03  0.49563523677E+03  0.00000000000E+00 0. -1.
         21   -1    0    0  501  502 -0.00000000000E+00 -0.00000000000E+00 -0.18978520534E+03  0.18978520534E+03  0.00000000000E+00 0. -1.
         25    1    1    2    0    0 -0.10226911763E+03 -0.88683906059E+02  0.10621689760E+03  0.21267542629E+03  0.12500000000E+03 0.  0.
         25    1    1    2    0    0  0.12270561143E+03  0.57167232586E+02  0.26813439992E+03  0.32533953953E+03  0.12500000000E+03 0.  0.
         25    1    1    2    0    0 -0.20436493799E+02  0.31516673473E+02 -0.68501266081E+02  0.14740547629E+03  0.12500000000E+03 0.  0.
</event>
<event>
 5    0  0.5597833E-005  0.2527888E+03  0.7546771E-02  0.1111555E+00
         21   -1    0    0  502  501  0.00000000000E+00  0.00000000000E+00  0.30696106645E+02  0.30696106645E+02  0.00000000000E+00 0. -1.
         21   -1    0    0  501  502 -0.00000000000E+00 -0.00000000000E+00 -0.20817689532E+04  0.20817689532E+04  0.00000000000E+00 0. -1.
         25    1    1    2    0    0 -0.75346010785E+02  0.17454765550E+02 -0.42930473856E+03  0.45377224324E+03  0.12500000000E+03 0.  0.
         25    1    1    2    0    0  0.27372703137E+02  0.10533904171E+03 -0.72429475857E+03  0.74301647080E+03  0.12500000000E+03 0.  0.
         25    1    1    2    0    0  0.47973307647E+02 -0.12279380726E+03 -0.89747334939E+03  0.91567634577E+03  0.12500000000E+03 0.  0.
</event>
<event>
 5    0  0.5597833E-005  0.2145806E+03  0.7546771E-02  0.1137989E+00
         21   -1    0    0  502  501  0.00000000000E+00  0.00000000000E+00  0.71674083625E+03  0.71674083625E+03  0.00000000000E+00 0. -1.
         21   -1    0    0  501  502 -0.00000000000E+00 -0.00000000000E+00 -0.64241969588E+02  0.64241969588E+02  0.00000000000E+00 0. -1.
         25    1    1    2    0    0  0.91659439713E+02  0.19262631492E+02  0.19683006222E+03  0.25127589470E+03  0.12500000000E+03 0.  0.
         25    1    1    2    0    0 -0.41309223565E+02  0.82196301936E+01  0.24165209477E+03  0.27530846187E+03  0.12500000000E+03 0.  0.
         25    1    1    2    0    0 -0.50350216148E+02 -0.27482261686E+02  0.21401670967E+03  0.25439844927E+03  0.12500000000E+03 0.  0.
</event>
<event>
 5    0  0.5597833E-005  0.3412571E+03  0.7546771E-02  0.1066262E+00
         21   -1    0    0  502  501  0.00000000000E+00  0.00000000000E+00  0.48281531678E+03  0.48281531678E+03  0.00000000000E+00 0.  1.
         21   -1    0    0  501  502 -0.00000000000E+00 -0.00000000000E+00 -0.24120280558E+03  0.24120280558E+03  0.00000000000E+00 0.  1.
         25    1    1    2    0    0 -0.99330515214E+02  0.36844671901E+02  0.36785092067E+03  0.40269514640E+03  0.12500000000E+03 0.  0.
         25    1    1    2    0    0  0.22086223191E+02 -0.93119030711E+01 -0.11477644504E+03  0.17138595371E+03  0.12500000000E+03 0.  0.
         25    1    1    2    0    0  0.77244292023E+02 -0.27532768830E+02 -0.11461964431E+02  0.14993702224E+03  0.12500000000E+03 0.  0.
</event>
<event>
 5    0  0.5597833E-005  0.2601369E+03  0.7546771E-02  0.1107061E+00
         21   -1    0    0  502  501  0.00000000000E+00  0.00000000000E+00  0.76058644082E+02  0.76058644082E+02  0.00000000000E+00 0. -1.
         21   -1    0    0  501  502 -0.00000000000E+00 -0.00000000000E+00 -0.88972384774E+03  0.88972384774E+03  0.00000000000E+00 0. -1.
         25    1    1    2    0    0  0.12381553371E+03  0.91694353446E+02 -0.31391540987E+03  0.37135700532E+03  0.12500000000E+03 0.  0.
         25    1    1    2    0    0 -0.47237661375E+02 -0.71629364622E+02 -0.36117447635E+03  0.39170673328E+03  0.12500000000E+03 0.  0.
         25    1    1    2    0    0 -0.76577872336E+02 -0.20064988825E+02 -0.13857531744E+03  0.20271875323E+03  0.12500000000E+03 0.  0.
</event>
<event>
 5    0  0.5597833E-005  0.3101375E+03  0.7546771E-02  0.1080280E+00
         21   -1    0    0  502  501  0.00000000000E+00  0.00000000000E+00  0.11582253604E+03  0.11582253604E+03  0.00000000000E+00 0.  1.
         21   -1    0    0  501  502 -0.00000000000E+00 -0.00000000000E+00 -0.83045381289E+03  0.83045381289E+03  0.00000000000E+00 0.  1.
         25    1    1    2    0    0 -0.11481590599E+03 -0.35452442993E+02 -0.15911128900E+03  0.23533161766E+03  0.12500000000E+03 0.  0.
         25    1    1    2    0    0 -0.81719012639E+02 -0.73810579895E+02 -0.32632956393E+03  0.36639047890E+03  0.12500000000E+03 0.  0.
         25    1    1    2    0    0  0.19653491863E+03  0.10926302289E+03 -0.22919042392E+03  0.34455425237E+03  0.12500000000E+03 0.  0.
</event>
<event>
 5    0  0.5597833E-005  0.2433434E+03  0.7546771E-02  0.1117585E+00
         21   -1    0    0  502  501  0.00000000000E+00  0.00000000000E+00  0.96139357249E+02  0.96139357249E+02  0.00000000000E+00 0. -1.
         21   -1    0    0  501  502 -0.00000000000E+00 -0.00000000000E+00 -0.61593928786E+03  0.61593928786E+03  0.00000000000E+00 0. -1.
         25    1    1    2    0    0 -0.14386916183E+02 -0.37044219023E+02 -0.70059062503E+02  0.14870282364E+03  0.12500000000E+03 0.  0.
         25    1    1    2    0    0 -0.85969382412E+02  0.62967374943E+02 -0.30229415231E+03  0.34403834022E+03  0.12500000000E+03 0.  0.
         25    1    1    2    0    0  0.10035629859E+03 -0.25923155920E+02 -0.14744671579E+03  0.21933748124E+03  0.12500000000E+03 0.  0.
</event>
<event>
 5    0  0.5597833E-005  0.3643987E+03  0.7546771E-02  0.1056856E+00
         21   -1    0    0  502  501  0.00000000000E+00  0.00000000000E+00  0.29089718497E+03  0.29089718497E+03  0.00000000000E+00 0.  1.
         21   -1    0    0  501  502 -0.00000000000E+00 -0.00000000000E+00 -0.45647209182E+03  0.45647209182E+03  0.00000000000E+00 0.  1.
         25    1    1    2    0    0 -0.56753003588E+02 -0.23663189539E+03 -0.12354388128E+03  0.30017269685E+03  0.12500000000E+03 0.  0.
         25    1    1    2    0    0 -0.32022686865E+01  0.19777161228E+03  0.91106585542E+02  0.25109614708E+03  0.12500000000E+03 0.  0.
         25    1    1    2    0    0  0.59955272274E+02  0.38860283110E+02 -0.13313761111E+03  0.19610043286E+03  0.12500000000E+03 0.  0.
</event>
<event>
 5    0  0.5597833E-005  0.6938336E+03  0.7546771E-02  0.9727836E-01
         21   -1    0    0  502  501  0.00000000000E+00  0.00000000000E+00  0.10048179106E+04  0.10048179106E+04  0.00000000000E+00 0.  1.
         21   -1    0    0  501  502 -0.00000000000E+00 -0.00000000000E+00 -0.47909679490E+03  0.47909679490E+03  0.00000000000E+00 0.  1.
         25    1    1    2    0    0 -0.10403695650E+03  0.33610843254E+03 -0.27263969166E+03  0.46233101585E+03  0.12500000000E+03 0.  0.
         25    1    1    2    0    0  0.15780394572E+03 -0.94169346329E+02  0.56248276970E+02  0.22925710400E+03  0.12500000000E+03 0.  0.
         25    1    1    2    0    0 -0.53766989219E+02 -0.24193908621E+03  0.74211253038E+03  0.79232658564E+03  0.12500000000E+03 0.  0.
</event>
<event>
 5    0  0.5597833E-005  0.2686502E+03  0.7546771E-02  0.1102055E+00
         21   -1    0    0  502  501  0.00000000000E+00  0.00000000000E+00  0.31804730156E+03  0.31804730156E+03  0.00000000000E+00 0.  1.
         21   -1    0    0  501  502 -0.00000000000E+00 -0.00000000000E+00 -0.22692520231E+03  0.22692520231E+03  0.00000000000E+00 0.  1.
         25    1    1    2    0    0 -0.58366439727E+01  0.32771867238E+02  0.60196012739E+02  0.14267663314E+03  0.12500000000E+03 0.  0.
         25    1    1    2    0    0 -0.19836024133E+02  0.96837378105E+02  0.12026920817E+03  0.19965126618E+03  0.12500000000E+03 0.  0.
         25    1    1    2    0    0  0.25672668106E+02 -0.12960924534E+03 -0.89343121660E+02  0.20264460455E+03  0.12500000000E+03 0.  0.
</event>
<event>
 5    0  0.5597833E-005  0.3296740E+03  0.7546771E-02  0.1071281E+00
         21   -1    0    0  502  501  0.00000000000E+00  0.00000000000E+00  0.19703065508E+03  0.19703065508E+03  0.00000000000E+00 0. -1.
         21   -1    0    0  501  502 -0.00000000000E+00 -0.00000000000E+00 -0.55161444257E+03  0.55161444257E+03  0.00000000000E+00 0. -1.
         25    1    1    2    0    0  0.63182122168E+02  0.58722664170E+02 -0.17810798344E+03  0.23406790813E+03  0.12500000000E+03 0.  0.
         25    1    1    2    0    0  0.69106131604E+02 -0.19526394491E+03 -0.15205369363E+03  0.28574287630E+03  0.12500000000E+03 0.  0.
         25    1    1    2    0    0 -0.13228825377E+03  0.13654128074E+03 -0.24422110417E+02  0.22883431323E+03  0.12500000000E+03 0.  0.
</event>
<event>
 5    0  0.5597833E-005  0.2917101E+03  0.7546771E-02  0.1089460E+00
         21   -1    0    0  502  501  0.00000000000E+00  0.00000000000E+00  0.71659604531E+03  0.71659604531E+03  0.00000000000E+00 0.  1.
         21   -1    0    0  501  502 -0.00000000000E+00 -0.00000000000E+00 -0.11874859887E+03  0.11874859887E+03  0.00000000000E+00 0.  1.
         25    1    1    2    0    0 -0.99529161470E+02  0.22448112869E+02  0.20630546406E+03  0.26191013012E+03  0.12500000000E+03 0.  0.
         25    1    1    2    0    0  0.55428704780E+02 -0.10447521410E+02  0.41608078439E+03  0.43809783286E+03  0.12500000000E+03 0.  0.
         25    1    1    2    0    0  0.44100456690E+02 -0.12000591459E+02 -0.24538802021E+02  0.13533668121E+03  0.12500000000E+03 0.  0.
</event>
<event>
 5    0  0.5597833E-005  0.3867862E+03  0.7546771E-02  0.1048454E+00
         21   -1    0    0  502  501  0.00000000000E+00  0.00000000000E+00  0.14536773996E+04  0.14536773996E+04  0.00000000000E+00 0.  1.
         21   -1    0    0  501  502 -0.00000000000E+00 -0.00000000000E+00 -0.10291385282E+03  0.10291385282E+03  0.00000000000E+00 0.  1.
         25    1    1    2    0    0  0.18556481832E+03 -0.63472024773E+00  0.24602984126E+03  0.33255133056E+03  0.12500000000E+03 0.  0.
         25    1    1    2    0    0 -0.11696549858E+03  0.17321202548E+03  0.28790632708E+03  0.37709201371E+03  0.12500000000E+03 0.  0.
         25    1    1    2    0    0 -0.68599319738E+02 -0.17257730523E+03  0.81682737847E+03  0.84694790818E+03  0.12500000000E+03 0.  0.
</event>
<event>
 5    0  0.5597833E-005  0.3969291E+03  0.7546771E-02  0.1044848E+00
         21   -1    0    0  502  501  0.00000000000E+00  0.00000000000E+00  0.21368477686E+04  0.21368477686E+04  0.00000000000E+00 0.  1.
         21   -1    0    0  501  502 -0.00000000000E+00 -0.00000000000E+00 -0.73731376594E+02  0.73731376594E+02  0.00000000000E+00 0.  1.
         25    1    1    2    0    0  0.80351462152E+02 -0.16267882143E+03  0.12579437469E+04  0.12770936641E+04  0.12500000000E+03 0.  0.
         25    1    1    2    0    0 -0.82745108328E+02 -0.83738909633E+01  0.65948050950E+03  0.67635524498E+03  0.12500000000E+03 0.  0.
         25    1    1    2    0    0  0.23936461758E+01  0.17105271239E+03  0.14569213556E+03  0.25713023611E+03  0.12500000000E+03 0.  0.
</event>
<event>
 5    0  0.5597833E-005  0.3244402E+03  0.7546771E-02  0.1073624E+00
         21   -1    0    0  502  501  0.00000000000E+00  0.00000000000E+00  0.95210859901E+03  0.95210859901E+03  0.00000000000E+00 0.  1.
         21   -1    0    0  501  502 -0.00000000000E+00 -0.00000000000E+00 -0.11055611660E+03  0.11055611660E+03  0.00000000000E+00 0.  1.
         25    1    1    2    0    0  0.23461487681E+03  0.37889038795E+01  0.46370514717E+03  0.53451469552E+03  0.12500000000E+03 0.  0.
         25    1    1    2    0    0 -0.10914086315E+03  0.50499936911E+02  0.24502741405E+03  0.30020893603E+03  0.12500000000E+03 0.  0.
         25    1    1    2    0    0 -0.12547401366E+03 -0.54288840790E+02  0.13281992119E+03  0.22794108406E+03  0.12500000000E+03 0.  0.
</event>
<event>
 5    0  0.6504005E-005  0.2838423E+03  0.7546771E-02  0.1093609E+00
         21   -1    0    0  502  501  0.00000000000E+00  0.00000000000E+00  0.23265220983E+03  0.23265220983E+03  0.00000000000E+00 0.  1.
         21   -1    0    0  501  502 -0.00000000000E+00 -0.00000000000E+00 -0.34629560804E+03  0.34629560804E+03  0.00000000000E+00 0.  1.
         25    1    1    2    0    0 -0.67642137076E+02  0.10966020491E+03 -0.24773261946E+02  0.18121681422E+03  0.12500000000E+03 0.  0.
         25    1    1    2    0    0  0.59800777875E+02 -0.99777469579E+02  0.78927129953E+02  0.18811211634E+03  0.12500000000E+03 0.  0.
         25    1    1    2    0    0  0.78413592016E+01 -0.98827353319E+01 -0.16779726622E+03  0.20961888732E+03  0.12500000000E+03 0.  0.
</event>
<event>
 5    0  0.5597833E-005  0.4247915E+03  0.7546771E-02  0.1035518E+00
         21   -1    0    0  502  501  0.00000000000E+00  0.00000000000E+00  0.22766299449E+04  0.22766299449E+04  0.00000000000E+00 0. -1.
         21   -1    0    0  501  502 -0.00000000000E+00 -0.00000000000E+00 -0.79260927239E+02  0.79260927239E+02  0.00000000000E+00 0. -1.
         25    1    1    2    0    0  0.43630080819E+02  0.24035687774E+03  0.13813146219E+04  0.14083075294E+04  0.12500000000E+03 0.  0.
         25    1    1    2    0    0 -0.14097774027E+03 -0.73979672149E+01  0.23066167345E+03  0.29792492472E+03  0.12500000000E+03 0.  0.
         25    1    1    2    0    0  0.97347659446E+02 -0.23295891053E+03  0.58539272227E+03  0.64965841800E+03  0.12500000000E+03 0.  0.
</event>
<event>
 5    0  0.5597833E-005  0.2299892E+03  0.7546771E-02  0.1126647E+00
         21   -1    0    0  502  501  0.00000000000E+00  0.00000000000E+00  0.17029127744E+03  0.17029127744E+03  0.00000000000E+00 0. -1.
         21   -1    0    0  501  502 -0.00000000000E+00 -0.00000000000E+00 -0.31061495506E+03  0.31061495506E+03  0.00000000000E+00 0. -1.
         25    1    1    2    0    0  0.10574780256E+02 -0.51818406016E+02  0.20560140937E+02  0.13727597231E+03  0.12500000000E+03 0.  0.
         25    1    1    2    0    0 -0.16151308220E+02  0.10675515703E+03 -0.69283420439E+02  0.17911650024E+03  0.12500000000E+03 0.  0.
         25    1    1    2    0    0  0.55765279641E+01 -0.54936751013E+02 -0.91600398125E+02  0.16451375995E+03  0.12500000000E+03 0.  0.
</event>
<event>
 5    0  0.5597833E-005  0.5035373E+03  0.7546771E-02  0.1012860E+00
         21   -1    0    0  502  501  0.00000000000E+00  0.00000000000E+00  0.26980268587E+03  0.26980268587E+03  0.00000000000E+00 0. -1.
         21   -1    0    0  501  502 -0.00000000000E+00 -0.00000000000E+00 -0.93976012933E+03  0.93976012933E+03  0.00000000000E+00 0. -1.
         25    1    1    2    0    0  0.16480904742E+03  0.29841473097E+02  0.14474583076E+03  0.25422212955E+03  0.12500000000E+03 0.  0.
         25    1    1    2    0    0 -0.71678816402E+02 -0.19957947519E+03 -0.27840263649E+03  0.37162191491E+03  0.12500000000E+03 0.  0.
         25    1    1    2    0    0 -0.93130231019E+02  0.16973800209E+03 -0.53630063774E+03  0.58371877075E+03  0.12500000000E+03 0.  0.
</event>
<event>
 5    0  0.5597833E-005  0.2660449E+03  0.7546771E-02  0.1103565E+00
         21   -1    0    0  502  501  0.00000000000E+00  0.00000000000E+00  0.15278575398E+03  0.15278575398E+03  0.00000000000E+00 0. -1.
         21   -1    0    0  501  502 -0.00000000000E+00 -0.00000000000E+00 -0.46326222834E+03  0.46326222834E+03  0.00000000000E+00 0. -1.
         25    1    1    2    0    0 -0.11580979967E+02  0.91846191220E+02 -0.18503057791E+03  0.24172537454E+03  0.12500000000E+03 0.  0.
         25    1    1    2    0    0 -0.42642059171E+02 -0.11045983485E+03 -0.15724413360E+03  0.23317469391E+03  0.12500000000E+03 0.  0.
         25    1    1    2    0    0  0.54223039138E+02  0.18613643635E+02  0.31798237157E+02  0.14114791387E+03  0.12500000000E+03 0.  0.
</event>
<event>
 5    0  0.5597833E-005  0.3037389E+03  0.7546771E-02  0.1083386E+00
         21   -1    0    0  502  501  0.00000000000E+00  0.00000000000E+00  0.21239406634E+03  0.21239406634E+03  0.00000000000E+00 0. -1.
         21   -1    0    0  501  502 -0.00000000000E+00 -0.00000000000E+00 -0.43436863502E+03  0.43436863502E+03  0.00000000000E+00 0. -1.
         25    1    1    2    0    0 -0.13360172355E+03 -0.15891200810E+03 -0.11453242864E+03  0.26803940767E+03  0.12500000000E+03 0.  0.
         25    1    1    2    0    0  0.10078968759E+03  0.16040795125E+03 -0.10341483164E+03  0.24941711920E+03  0.12500000000E+03 0.  0.
         25    1    1    2    0    0  0.32812035956E+02 -0.14959431486E+01 -0.40273084103E+01  0.12930617449E+03  0.12500000000E+03 0.  0.
</event>
<event>
 5    0  0.5597833E-005  0.2180734E+03  0.7546771E-02  0.1135328E+00
         21   -1    0    0  502  501  0.00000000000E+00  0.00000000000E+00  0.33624513282E+03  0.33624513282E+03  0.00000000000E+00 0. -1.
         21   -1    0    0  501  502 -0.00000000000E+00 -0.00000000000E+00 -0.14143253684E+03  0.14143253684E+03  0.00000000000E+00 0. -1.
         25    1    1    2    0    0 -0.75545985278E+02 -0.15265769636E+02  0.10614315711E+03  0.18119494865E+03  0.12500000000E+03 0.  0.
         25    1    1    2    0    0  0.74702887364E+01 -0.16994673034E+02  0.12867185155E+01  0.12637752874E+03  0.12500000000E+03 0.  0.
         25    1    1    2    0    0  0.68075696542E+02  0.32260442671E+02  0.87382720364E+02  0.17010519228E+03  0.12500000000E+03 0.  0.
</event>
<event>
 5    0  0.5597833E-005  0.2474556E+03  0.7546771E-02  0.1114923E+00
         21   -1    0    0  502  501  0.00000000000E+00  0.00000000000E+00  0.34616872122E+03  0.34616872122E+03  0.00000000000E+00 0. -1.
         21   -1    0    0  501  502 -0.00000000000E+00 -0.00000000000E+00 -0.17689138332E+03  0.17689138332E+03  0.00000000000E+00 0. -1.
         25    1    1    2    0    0  0.23080782834E+01  0.93144740450E+02  0.12858098233E+02  0.15643401353E+03  0.12500000000E+03 0.  0.
         25    1    1    2    0    0  0.89523695386E+01  0.66169294318E+01  0.16354169302E+03  0.20614270307E+03  0.12500000000E+03 0.  0.
         25    1    1    2    0    0 -0.11260447822E+02 -0.99761669882E+02 -0.71224533454E+01  0.16048338794E+03  0.12500000000E+03 0.  0.
</event>
<event>
 5    0  0.6116858E-005  0.3009469E+03  0.7546771E-02  0.1084768E+00
         21   -1    0    0  502  501  0.00000000000E+00  0.00000000000E+00  0.20244102776E+03  0.20244102776E+03  0.00000000000E+00 0. -1.
         21   -1    0    0  501  502 -0.00000000000E+00 -0.00000000000E+00 -0.44738493530E+03  0.44738493530E+03  0.00000000000E+00 0. -1.
         25    1    1    2    0    0  0.70392593766E+01 -0.28763334146E+01  0.61111897715E+02  0.13934664872E+03  0.12500000000E+03 0.  0.
         25    1    1    2    0    0  0.60101572566E+02  0.12700386855E+03 -0.53885127841E+02  0.19562921217E+03  0.12500000000E+03 0.  0.
         25    1    1    2    0    0 -0.67140831942E+02 -0.12412753514E+03 -0.25217067741E+03  0.31485010217E+03  0.12500000000E+03 0.  0.
</event>
<event>
 5    0  0.5597833E-005  0.2859890E+03  0.7546771E-02  0.1092462E+00
         21   -1    0    0  502  501  0.00000000000E+00  0.00000000000E+00  0.16725474029E+03  0.16725474029E+03  0.00000000000E+00 0. -1.
         21   -1    0    0  501  502 -0.00000000000E+00 -0.00000000000E+00 -0.48901266761E+03  0.48901266761E+03  0.00000000000E+00 0. -1.
         25    1    1    2    0    0  0.45911850046E+02 -0.15949471969E+02 -0.10767025909E+03  0.17198886105E+03  0.12500000000E+03 0.  0.
         25    1    1    2    0    0 -0.12825583520E+03  0.41878828446E+02  0.40015294337E+02  0.18822757321E+03  0.12500000000E+03 0.  0.
         25    1    1    2    0    0  0.82343985150E+02 -0.25929356477E+02 -0.25410296256E+03  0.29605097365E+03  0.12500000000E+03 0.  0.
</event>
<event>
 5    0  0.5597833E-005  0.2324050E+03  0.7546771E-02  0.1124958E+00
         21   -1    0    0  502  501  0.00000000000E+00  0.00000000000E+00  0.34544737782E+02  0.34544737782E+02  0.00000000000E+00 0.  1.
         21   -1    0    0  501  502 -0.00000000000E+00 -0.00000000000E+00 -0.15635404070E+04  0.15635404070E+04  0.00000000000E+00 0.  1.
         25    1    1    2    0    0 -0.15471679023E+02 -0.28615123295E+02 -0.85128565235E+03  0.86102872196E+03  0.12500000000E+03 0.  0.
         25    1    1    2    0    0 -0.49035348976E+02  0.38364606133E+02 -0.42901744363E+03  0.45117322105E+03  0.12500000000E+03 0.  0.
         25    1    1    2    0    0  0.64507027999E+02 -0.97494828371E+01 -0.24869257325E+03  0.28588320179E+03  0.12500000000E+03 0.  0.
</event>
<event>
 5    0  0.5800519E-005  0.2901431E+03  0.7546771E-02  0.1090274E+00
         21   -1    0    0  502  501  0.00000000000E+00  0.00000000000E+00  0.78919014170E+03  0.78919014170E+03  0.00000000000E+00 0.  1.
         21   -1    0    0  501  502 -0.00000000000E+00 -0.00000000000E+00 -0.10667015973E+03  0.10667015973E+03  0.00000000000E+00 0.  1.
         25    1    1    2    0    0 -0.12441392964E+03  0.15507919725E+03  0.37125059644E+03  0.43929533194E+03  0.12500000000E+03 0.  0.
         25    1    1    2    0    0  0.10074844394E+03 -0.48574934786E+02  0.16707484016E+03  0.23674622587E+03  0.12500000000E+03 0.  0.
         25    1    1    2    0    0  0.23665485698E+02 -0.10650426246E+03  0.14419454538E+03  0.21981874363E+03  0.12500000000E+03 0.  0.
</event>
<event>
 5    0  0.5597833E-005  0.3252866E+03  0.7546771E-02  0.1073242E+00
         21   -1    0    0  502  501  0.00000000000E+00  0.00000000000E+00  0.18894809972E+03  0.18894809972E+03  0.00000000000E+00 0. -1.
         21   -1    0    0  501  502 -0.00000000000E+00 -0.00000000000E+00 -0.56000241579E+03  0.56000241579E+03  0.00000000000E+00 0. -1.
         25    1    1    2    0    0  0.10739538365E+03  0.93250535663E+02 -0.27285155683E+03  0.33211805566E+03  0.12500000000E+03 0.  0.
         25    1    1    2    0    0 -0.52508469235E+02 -0.35254413846E+02  0.97932045896E+02  0.17092600344E+03  0.12500000000E+03 0.  0.
         25    1    1    2    0    0 -0.54886914413E+02 -0.57996121817E+02 -0.19613480514E+03  0.24590645641E+03  0.12500000000E+03 0.  0.
</event>
<event>
 5    0  0.5597833E-005  0.2795970E+03  0.7546771E-02  0.1095909E+00
         21   -1    0    0  502  501  0.00000000000E+00  0.00000000000E+00  0.15368447553E+03  0.15368447553E+03  0.00000000000E+00 0.  1.
         21   -1    0    0  501  502 -0.00000000000E+00 -0.00000000000E+00 -0.50866857208E+03  0.50866857208E+03  0.00000000000E+00 0.  1.
         25    1    1    2    0    0 -0.90241961430E+01 -0.15362026887E+03 -0.82325822359E+02  0.21466989577E+03  0.12500000000E+03 0.  0.
         25    1    1    2    0    0 -0.74663490021E+02  0.13141319713E+03 -0.19643699017E+03  0.27759062706E+03  0.12500000000E+03 0.  0.
         25    1    1    2    0    0  0.83687686164E+02  0.22207071734E+02 -0.76221284019E+02  0.17009252479E+03  0.12500000000E+03 0.  0.
</event>
<event>
 5    0  0.5597833E-005  0.3501513E+03  0.7546771E-02  0.1062553E+00
         21   -1    0    0  502  501  0.00000000000E+00  0.00000000000E+00  0.22564036539E+03  0.22564036539E+03  0.00000000000E+00 0. -1.
         21   -1    0    0  501  502 -0.00000000000E+00 -0.00000000000E+00 -0.54336889256E+03  0.54336889256E+03  0.00000000000E+00 0. -1.
         25    1    1    2    0    0  0.20283494017E+03  0.19045099803E+03 -0.15874519956E+03  0.34385845051E+03  0.12500000000E+03 0.  0.
         25    1    1    2    0    0 -0.74596194542E+02 -0.74281672576E+02 -0.78657867156E+01  0.16361304875E+03  0.12500000000E+03 0.  0.
         25    1    1    2    0    0 -0.12823874562E+03 -0.11616932545E+03 -0.15111754089E+03  0.26153775869E+03  0.12500000000E+03 0.  0.
</event>
<event>
 5    0  0.5597833E-005  0.3825897E+03  0.7546771E-02  0.1049981E+00
         21   -1    0    0  502  501  0.00000000000E+00  0.00000000000E+00  0.28932822082E+03  0.28932822082E+03  0.00000000000E+00 0. -1.
         21   -1    0    0  501  502 -0.00000000000E+00 -0.00000000000E+00 -0.50591283432E+03  0.50591283432E+03  0.00000000000E+00 0. -1.
         25    1    1    2    0    0 -0.14722417900E+03 -0.56080278563E+02  0.14426081262E+02  0.20162606069E+03  0.12500000000E+03 0.  0.
         25    1    1    2    0    0  0.40072846916E+02  0.17888473099E+02  0.13581420133E+03  0.18972698230E+03  0.12500000000E+03 0.  0.
         25    1    1    2    0    0  0.10715133209E+03  0.38191805464E+02 -0.36682489609E+03  0.40388801215E+03  0.12500000000E+03 0.  0.
</event>
<event>
 5    0  0.7451706E-005  0.3459611E+03  0.7546771E-02  0.1064285E+00
         21   -1    0    0  502  501  0.00000000000E+00  0.00000000000E+00  0.45042804077E+03  0.45042804077E+03  0.00000000000E+00 0. -1.
         21   -1    0    0  501  502 -0.00000000000E+00 -0.00000000000E+00 -0.26572298469E+03  0.26572298469E+03  0.00000000000E+00 0. -1.
         25    1    1    2    0    0  0.56419263715E+02 -0.16275099303E+03  0.97547247913E+02  0.23411852687E+03  0.12500000000E+03 0.  0.
         25    1    1    2    0    0  0.42138249521E+02  0.65742583191E+02  0.21162181341E+03  0.25788856359E+03  0.12500000000E+03 0.  0.
         25    1    1    2    0    0 -0.98557513236E+02  0.97008409836E+02 -0.12446400524E+03  0.22414393499E+03  0.12500000000E+03 0.  0.
</event>
<event>
 5    0  0.5597833E-005  0.4574688E+03  0.7546771E-02  0.1025518E+00
         21   -1    0    0  502  501  0.00000000000E+00  0.00000000000E+00  0.55419920333E+03  0.55419920333E+03  0.00000000000E+00 0.  1.
         21   -1    0    0  501  502 -0.00000000000E+00 -0.00000000000E+00 -0.37762180799E+03  0.37762180799E+03  0.00000000000E+00 0.  1.
         25    1    1    2    0    0  0.16849514592E+02 -0.59288142259E+02 -0.82146764759E+02  0.16177787523E+03  0.12500000000E+03 0.  0.
         25    1    1    2    0    0 -0.12963658078E+03  0.12267506238E+03  0.45457915381E+03  0.50410516868E+03  0.12500000000E+03 0.  0.
         25    1    1    2    0    0  0.11278706619E+03 -0.63386920123E+02 -0.19585499372E+03  0.26593796740E+03  0.12500000000E+03 0.  0.
</event>
<event>
 5    0  0.5611760E-005  0.5197090E+03  0.7546771E-02  0.1008759E+00
         21   -1    0    0  502  501  0.00000000000E+00  0.00000000000E+00  0.45635304356E+03  0.45635304356E+03  0.00000000000E+00 0.  1.
         21   -1    0    0  501  502 -0.00000000000E+00 -0.00000000000E+00 -0.59186070920E+03  0.59186070920E+03  0.00000000000E+00 0.  1.
         25    1    1    2    0    0 -0.99706485345E+02 -0.32264412373E+03 -0.16171449016E+03  0.39473686188E+03  0.12500000000E+03 0.  0.
         25    1    1    2    0    0  0.10176787331E+03  0.36994554266E+03 -0.15156393161E+03  0.43106035533E+03  0.12500000000E+03 0.  0.
         25    1    1    2    0    0 -0.20613879649E+01 -0.47301418936E+02  0.17777075613E+03  0.22241653555E+03  0.12500000000E+03 0.  0.
</event>
<event>
 5    0  0.5597833E-005  0.2901204E+03  0.7546771E-02  0.1090286E+00
         21   -1    0    0  502  501  0.00000000000E+00  0.00000000000E+00  0.18664948680E+03  0.18664948680E+03  0.00000000000E+00 0.  1.
         21   -1    0    0  501  502 -0.00000000000E+00 -0.00000000000E+00 -0.45095137300E+03  0.45095137300E+03  0.00000000000E+00 0.  1.
         25    1    1    2    0    0  0.26757453209E+01 -0.26534543968E+02  0.34545881310E+02  0.13239962066E+03  0.12500000000E+03 0.  0.
         25    1    1    2    0    0 -0.14628690069E+03  0.14696989783E+02 -0.23490782014E+03  0.30401076097E+03  0.12500000000E+03 0.  0.
         25    1    1    2    0    0  0.14361115537E+03  0.11837554185E+02 -0.63939947370E+02  0.20119047817E+03  0.12500000000E+03 0.  0.
</event>
<event>
 5    0  0.5597833E-005  0.3466720E+03  0.7546771E-02  0.1063989E+00
         21   -1    0    0  502  501  0.00000000000E+00  0.00000000000E+00  0.16076485236E+03  0.16076485236E+03  0.00000000000E+00 0.  1.
         21   -1    0    0  501  502 -0.00000000000E+00 -0.00000000000E+00 -0.74756070477E+03  0.74756070477E+03  0.00000000000E+00 0.  1.
         25    1    1    2    0    0  0.14895191573E+03  0.11682848870E+03 -0.36483158905E+03  0.42960756201E+03  0.12500000000E+03 0.  0.
         25    1    1    2    0    0 -0.29494014651E+02  0.85655401963E+02 -0.11160337756E+03  0.19049162362E+03  0.12500000000E+03 0.  0.
         25    1    1    2    0    0 -0.11945790108E+03 -0.20248389067E+03 -0.11036088581E+03  0.28822637150E+03  0.12500000000E+03 0.  0.
</event>
<event>
 5    0  0.5627104E-005  0.2846906E+03  0.7546771E-02  0.1093154E+00
         21   -1    0    0  502  501  0.00000000000E+00  0.00000000000E+00  0.45721481794E+03  0.45721481794E+03  0.00000000000E+00 0.  1.
         21   -1    0    0  501  502 -0.00000000000E+00 -0.00000000000E+00 -0.17726621110E+03  0.17726621110E+03  0.00000000000E+00 0.  1.
         25    1    1    2    0    0  0.10190883269E+03  0.33245462564E+02  0.60261450863E+01  0.16477859505E+03  0.12500000000E+03 0.  0.
         25    1    1    2    0    0 -0.13338083129E+03 -0.42643241495E+02  0.25181414414E+02  0.18938847861E+03  0.12500000000E+03 0.  0.
         25    1    1    2    0    0  0.31471998598E+02  0.93977789308E+01  0.24874104734E+03  0.28031395537E+03  0.12500000000E+03 0.  0.
</event>
<event>
 5    0  0.5597833E-005  0.2368803E+03  0.7546771E-02  0.1121889E+00
         21   -1    0    0  502  501  0.00000000000E+00  0.00000000000E+00  0.41232560929E+02  0.41232560929E+02  0.00000000000E+00 0.  1.
         21   -1    0    0  501  502 -0.00000000000E+00 -0.00000000000E+00 -0.13608724708E+04  0.13608724708E+04  0.00000000000E+00 0.  1.
         25    1    1    2    0    0 -0.40662435076E+01  0.27373250870E+01 -0.14424019644E+03  0.19092999124E+03  0.12500000000E+03 0.  0.
         25    1    1    2    0    0  0.27650067094E+02  0.68919226876E+02 -0.63143380975E+03  0.64795682120E+03  0.12500000000E+03 0.  0.
         25    1    1    2    0    0 -0.23583823586E+02 -0.71656551963E+02 -0.54396590366E+03  0.56321821927E+03  0.12500000000E+03 0.  0.
</event>
<event>
 5    0  0.5597833E-005  0.2951533E+03  0.7546771E-02  0.1087689E+00
         21   -1    0    0  502  501  0.00000000000E+00  0.00000000000E+00  0.44301346495E+03  0.44301346495E+03  0.00000000000E+00 0. -1.
         21   -1    0    0  501  502 -0.00000000000E+00 -0.00000000000E+00 -0.19664298311E+03  0.19664298311E+03  0.00000000000E+00 0. -1.
         25    1    1    2    0    0 -0.41802926521E+02 -0.28088084240E+02 -0.17697825970E+02  0.13592144123E+03  0.12500000000E+03 0.  0.
         25    1    1    2    0    0 -0.12159022836E+03  0.10401943937E+03  0.17120059883E+03  0.26559155190E+03  0.12500000000E+03 0.  0.
         25    1    1    2    0    0  0.16339315488E+03 -0.75931355133E+02  0.92867708985E+02  0.23814345493E+03  0.12500000000E+03 0.  0.
</event>
<event>
 5    0  0.7025790E-005  0.2910603E+03  0.7546771E-02  0.1089797E+00
         21   -1    0    0  502  501  0.00000000000E+00  0.00000000000E+00  0.39288221060E+03  0.39288221060E+03  0.00000000000E+00 0. -1.
         21   -1    0    0  501  502 -0.00000000000E+00 -0.00000000000E+00 -0.21562728699E+03  0.21562728699E+03  0.00000000000E+00 0. -1.
         25    1    1    2    0    0  0.78369824318E+02 -0.11102478308E+02 -0.27622695499E+02  0.15050949370E+03  0.12500000000E+03 0.  0.
         25    1    1    2    0    0  0.90600626629E+02 -0.87507423629E+02  0.88899571686E+02  0.19847961251E+03  0.12500000000E+03 0.  0.
         25    1    1    2    0    0 -0.16897045095E+03  0.98609901937E+02  0.11597804742E+03  0.25952039137E+03  0.12500000000E+03 0.  0.
</event>
<event>
 5    0  0.5597833E-005  0.4101110E+03  0.7546771E-02  0.1040334E+00
         21   -1    0    0  502  501  0.00000000000E+00  0.00000000000E+00  0.35629535495E+03  0.35629535495E+03  0.00000000000E+00 0. -1.
         21   -1    0    0  501  502 -0.00000000000E+00 -0.00000000000E+00 -0.47205517159E+03  0.47205517159E+03  0.00000000000E+00 0. -1.
         25    1    1    2    0    0  0.67749064336E+01  0.31610327091E+02 -0.18509451327E+03  0.22567696156E+03  0.12500000000E+03 0.  0.
         25    1    1    2    0    0 -0.24693586737E+03 -0.12433792620E+03 -0.16586756010E+02  0.30387063524E+03  0.12500000000E+03 0.  0.
         25    1    1    2    0    0  0.24016096094E+03  0.92727599104E+02  0.85921452642E+02  0.29880292974E+03  0.12500000000E+03 0.  0.
</event>
<event>
 5    0  0.5597833E-005  0.3103223E+03  0.7546771E-02  0.1080191E+00
         21   -1    0    0  502  501  0.00000000000E+00  0.00000000000E+00  0.60950269232E+02  0.60950269232E+02  0.00000000000E+00 0.  1.
         21   -1    0    0  501  502 -0.00000000000E+00 -0.00000000000E+00 -0.15799754424E+04  0.15799754424E+04  0.00000000000E+00 0.  1.
         25    1    1    2    0    0 -0.11651884929E+03 -0.14376685995E+03 -0.71667842466E+03  0.75066538260E+03  0.12500000000E+03 0.  0.
         25    1    1    2    0    0  0.10533628815E+03  0.15709116341E+03 -0.67030206199E+03  0.70760385918E+03  0.12500000000E+03 0.  0.
         25    1    1    2    0    0  0.11182561139E+02 -0.13324303461E+02 -0.13204468648E+03  0.18265646981E+03  0.12500000000E+03 0.  0.
</event>
<event>
 5    0  0.5597833E-005  0.2922683E+03  0.7546771E-02  0.1089171E+00
         21   -1    0    0  502  501  0.00000000000E+00  0.00000000000E+00  0.25977099865E+03  0.25977099865E+03  0.00000000000E+00 0.  1.
         21   -1    0    0  501  502 -0.00000000000E+00 -0.00000000000E+00 -0.32883107045E+03  0.32883107045E+03  0.00000000000E+00 0.  1.
         25    1    1    2    0    0 -0.73212832717E+02  0.69254221239E+02 -0.14660763488E+03  0.21742829769E+03  0.12500000000E+03 0.  0.
         25    1    1    2    0    0  0.58066768142E+02 -0.95077564840E+02 -0.64654389786E+02  0.17949006384E+03  0.12500000000E+03 0.  0.
         25    1    1    2    0    0  0.15146064575E+02  0.25823343601E+02  0.14220195287E+03  0.19168370756E+03  0.12500000000E+03 0.  0.
</event>
<event>
 5    0  0.5597833E-005  0.2800937E+03  0.7546771E-02  0.1095638E+00
         21   -1    0    0  502  501  0.00000000000E+00  0.00000000000E+00  0.32673704821E+03  0.32673704821E+03  0.00000000000E+00 0.  1.
         21   -1    0    0  501  502 -0.00000000000E+00 -0.00000000000E+00 -0.24010897632E+03  0.24010897632E+03  0.00000000000E+00 0.  1.
         25    1    1    2    0    0  0.12585017019E+03  0.37965758616E+02  0.49244411728E+01  0.18146325877E+03  0.12500000000E+03 0.  0.
         25    1    1    2    0    0 -0.12489979842E+03 -0.11101126070E+03  0.11291962974E+03  0.23727474039E+03  0.12500000000E+03 0.  0.
         25    1    1    2    0    0 -0.95037177348E+00  0.73045502085E+02 -0.31215999021E+02  0.14810802536E+03  0.12500000000E+03 0.  0.
</event>
<event>
 5    0  0.5597833E-005  0.2054359E+03  0.7546771E-02  0.1145232E+00
         21   -1    0    0  502  501  0.00000000000E+00  0.00000000000E+00  0.52240567230E+02  0.52240567230E+02  0.00000000000E+00 0.  1.
         21   -1    0    0  501  502 -0.00000000000E+00 -0.00000000000E+00 -0.80787644484E+03  0.80787644484E+03  0.00000000000E+00 0.  1.
         25    1    1    2    0    0 -0.40638549006E+02  0.20387967204E+02 -0.18060363103E+03  0.22429853413E+03  0.12500000000E+03 0.  0.
         25    1    1    2    0    0  0.44016779697E+02  0.22616385156E+02 -0.23136170121E+03  0.26758590127E+03  0.12500000000E+03 0.  0.
         25    1    1    2    0    0 -0.33782306911E+01 -0.43004352360E+02 -0.34367054537E+03  0.36823257667E+03  0.12500000000E+03 0.  0.
</event>
<event>
 5    0  0.5597833E-005  0.2797662E+03  0.7546771E-02  0.1095817E+00
         21   -1    0    0  502  501  0.00000000000E+00  0.00000000000E+00  0.40878270953E+02  0.40878270953E+02  0.00000000000E+00 0.  1.
         21   -1    0    0  501  502 -0.00000000000E+00 -0.00000000000E+00 -0.19146872744E+04  0.19146872744E+04  0.00000000000E+00 0.  1.
         25    1    1    2    0    0 -0.60439649539E+02 -0.11434625105E+03 -0.53048635211E+03  0.56015068164E+03  0.12500000000E+03 0.  0.
         25    1    1    2    0    0  0.28679344475E+02  0.34822292466E+02 -0.18815600411E+03  0.23035359501E+03  0.12500000000E+03 0.  0.
         25    1    1    2    0    0  0.31760305064E+02  0.79523958582E+02 -0.11551666472E+04  0.11650612687E+04  0.12500000000E+03 0.  0.
</event>
<event>
 5    0  0.5597833E-005  0.2585085E+03  0.7546771E-02  0.1108043E+00
         21   -1    0    0  502  501  0.00000000000E+00  0.00000000000E+00  0.27720732910E+03  0.27720732910E+03  0.00000000000E+00 0. -1.
         21   -1    0    0  501  502 -0.00000000000E+00 -0.00000000000E+00 -0.24107098608E+03  0.24107098608E+03  0.00000000000E+00 0. -1.
         25    1    1    2    0    0 -0.10807862209E+03 -0.45193710105E+02  0.94108122120E+02  0.19546047844E+03  0.12500000000E+03 0.  0.
         25    1    1    2    0    0  0.68358604375E+02 -0.38167624632E+02 -0.76767941845E+02  0.16627682718E+03  0.12500000000E+03 0.  0.
         25    1    1    2    0    0  0.39720017710E+02  0.83361334737E+02  0.18796162743E+02  0.15654100955E+03  0.12500000000E+03 0.  0.
</event>
<event>
 5    0  0.5597833E-005  0.3536952E+03  0.7546771E-02  0.1061109E+00
         21   -1    0    0  502  501  0.00000000000E+00  0.00000000000E+00  0.88138628884E+03  0.88138628884E+03  0.00000000000E+00 0. -1.
         21   -1    0    0  501  502 -0.00000000000E+00 -0.00000000000E+00 -0.14193581472E+03  0.14193581472E+03  0.00000000000E+00 0. -1.
         25    1    1    2    0    0 -0.30282662448E+02 -0.14629503417E+03  0.31402600118E+03  0.36953566281E+03  0.12500000000E+03 0.  0.
         25    1    1    2    0    0 -0.15972497698E+03  0.47421649991E+02  0.32544088412E+03  0.38639054106E+03  0.12500000000E+03 0.  0.
         25    1    1    2    0    0  0.19000763943E+03  0.98873384181E+02  0.99983588810E+02  0.26739589969E+03  0.12500000000E+03 0.  0.
</event>
<event>
 5    0  0.5597833E-005  0.4524567E+03  0.7546771E-02  0.1026992E+00
         21   -1    0    0  502  501  0.00000000000E+00  0.00000000000E+00  0.36669289010E+03  0.36669289010E+03  0.00000000000E+00 0.  1.
         21   -1    0    0  501  502 -0.00000000000E+00 -0.00000000000E+00 -0.55827934006E+03  0.55827934006E+03  0.00000000000E+00 0.  1.
         25    1    1    2    0    0  0.48831290561E+02 -0.19111623843E+03  0.22663174317E+03  0.32541797514E+03  0.12500000000E+03 0.  0.
         25    1    1    2    0    0  0.49310166912E+02  0.21985212809E+03 -0.31879041842E+03  0.40990094128E+03  0.12500000000E+03 0.  0.
         25    1    1    2    0    0 -0.98141457473E+02 -0.28735889661E+02 -0.99427774719E+02  0.18965331375E+03  0.12500000000E+03 0.  0.
</event>
<event>
 5    0  0.5597833E-005  0.2582750E+03  0.7546771E-02  0.1108184E+00
         21   -1    0    0  502  501  0.00000000000E+00  0.00000000000E+00  0.67693199604E+03  0.67693199604E+03  0.00000000000E+00 0. -1.
         21   -1    0    0  501  502 -0.00000000000E+00 -0.00000000000E+00 -0.98541598506E+02  0.98541598506E+02  0.00000000000E+00 0. -1.
         25    1    1    2    0    0 -0.11598953919E+03 -0.57005079501E+02  0.20646871837E+03  0.27378364443E+03  0.12500000000E+03 0.  0.
         25    1    1    2    0    0  0.35850853247E+02  0.97609903192E+02  0.10497546053E+03  0.19354023921E+03  0.12500000000E+03 0.  0.
         25    1    1    2    0    0  0.80138685939E+02 -0.40604823691E+02  0.26694621864E+03  0.30814971092E+03  0.12500000000E+03 0.  0.
</event>
<event>
 5    0  0.6536265E-005  0.2838102E+03  0.7546771E-02  0.1093626E+00
         21   -1    0    0  502  501  0.00000000000E+00  0.00000000000E+00  0.64544240234E+03  0.64544240234E+03  0.00000000000E+00 0. -1.
         21   -1    0    0  501  502 -0.00000000000E+00 -0.00000000000E+00 -0.12479540391E+03  0.12479540391E+03  0.00000000000E+00 0. -1.
         25    1    1    2    0    0  0.33249835185E+02 -0.96740978850E+02  0.14376711726E+03  0.21623679737E+03  0.12500000000E+03 0.  0.
         25    1    1    2    0    0  0.12989210665E+03  0.40237788613E+01  0.15749038818E+03  0.23940838026E+03  0.12500000000E+03 0.  0.
         25    1    1    2    0    0 -0.16314194184E+03  0.92717199988E+02  0.21938949298E+03  0.31459262863E+03  0.12500000000E+03 0.  0.
</event>
<event>
 5    0  0.5597833E-005  0.2791836E+03  0.7546771E-02  0.1096136E+00
         21   -1    0    0  502  501  0.00000000000E+00  0.00000000000E+00  0.44419390256E+03  0.44419390256E+03  0.00000000000E+00 0.  1.
         21   -1    0    0  501  502 -0.00000000000E+00 -0.00000000000E+00 -0.17547171490E+03  0.17547171490E+03  0.00000000000E+00 0.  1.
         25    1    1    2    0    0 -0.26193379518E+02 -0.13315510350E+02 -0.60448535239E+02  0.14192399853E+03  0.12500000000E+03 0.  0.
         25    1    1    2    0    0  0.12982122136E+03 -0.68960279940E+01  0.14520838238E+03  0.23154174360E+03  0.12500000000E+03 0.  0.
         25    1    1    2    0    0 -0.10362784184E+03  0.20211538344E+02  0.18396234051E+03  0.24619987533E+03  0.12500000000E+03 0.  0.
</event>
<event>
 5    0  0.5597833E-005  0.3610613E+03  0.7546771E-02  0.1058164E+00
         21   -1    0    0  502  501  0.00000000000E+00  0.00000000000E+00  0.42567398703E+03  0.42567398703E+03  0.00000000000E+00 0. -1.
         21   -1    0    0  501  502 -0.00000000000E+00 -0.00000000000E+00 -0.30625618019E+03  0.30625618019E+03  0.00000000000E+00 0. -1.
         25    1    1    2    0    0 -0.56277553056E+02 -0.51561798376E+02  0.18410977042E+03  0.23525983421E+03  0.12500000000E+03 0.  0.
         25    1    1    2    0    0  0.18920784541E+03  0.25428599010E+02 -0.16983825160E+03  0.28445782485E+03  0.12500000000E+03 0.  0.
         25    1    1    2    0    0 -0.13293029236E+03  0.26133199367E+02  0.10514628802E+03  0.21221250816E+03  0.12500000000E+03 0.  0.
</event>
<event>
 5    0  0.5597833E-005  0.4043262E+03  0.7546771E-02  0.1042292E+00
         21   -1    0    0  502  501  0.00000000000E+00  0.00000000000E+00  0.57612171538E+03  0.57612171538E+03  0.00000000000E+00 0.  1.
         21   -1    0    0  501  502 -0.00000000000E+00 -0.00000000000E+00 -0.28375885193E+03  0.28375885193E+03  0.00000000000E+00 0.  1.
         25    1    1    2    0    0 -0.91974073995E+02  0.16671022981E+03  0.24361221111E+03  0.33350178472E+03  0.12500000000E+03 0.  0.
         25    1    1    2    0    0 -0.11690157699E+03  0.58404043845E+02  0.70535249526E+02  0.19410624015E+03  0.12500000000E+03 0.  0.
         25    1    1    2    0    0  0.20887565099E+03 -0.22511427365E+03 -0.21784597189E+02  0.33227254243E+03  0.12500000000E+03 0.  0.
</event>
<event>
 5    0  0.5597833E-005  0.3340094E+03  0.7546771E-02  0.1069376E+00
         21   -1    0    0  502  501  0.00000000000E+00  0.00000000000E+00  0.50836757324E+02  0.50836757324E+02  0.00000000000E+00 0.  1.
         21   -1    0    0  501  502 -0.00000000000E+00 -0.00000000000E+00 -0.21945198444E+04  0.21945198444E+04  0.00000000000E+00 0.  1.
         25    1    1    2    0    0  0.64510331871E+02  0.11085128076E+02 -0.11654984557E+03  0.18301182881E+03  0.12500000000E+03 0.  0.
         25    1    1    2    0    0 -0.11500510061E+03 -0.81148525160E+02 -0.64566946855E+03  0.67255135040E+03  0.12500000000E+03 0.  0.
         25    1    1    2    0    0  0.50494768737E+02  0.70063397084E+02 -0.13814637730E+04  0.13897934225E+04  0.12500000000E+03 0.  0.
</event>
<event>
 5    0  0.5597833E-005  0.5343038E+03  0.7546771E-02  0.1005194E+00
         21   -1    0    0  502  501  0.00000000000E+00  0.00000000000E+00  0.45289931015E+03  0.45289931015E+03  0.00000000000E+00 0. -1.
         21   -1    0    0  501  502 -0.00000000000E+00 -0.00000000000E+00 -0.63033990999E+03  0.63033990999E+03  0.00000000000E+00 0. -1.
         25    1    1    2    0    0  0.50619449068E+02 -0.68538290415E+02 -0.25231843283E+03  0.29419282354E+03  0.12500000000E+03 0.  0.
         25    1    1    2    0    0  0.23574904001E+03 -0.15822779972E+03 -0.14750179735E+03  0.34350462397E+03  0.12500000000E+03 0.  0.
         25    1    1    2    0    0 -0.28636848907E+03  0.22676609013E+03  0.22237963034E+03  0.44554177263E+03  0.12500000000E+03 0.  0.
</event>
<event>
 5    0  0.5646792E-005  0.2787045E+03  0.7546771E-02  0.1096399E+00
         21   -1    0    0  502  501  0.00000000000E+00  0.00000000000E+00  0.42923572482E+03  0.42923572482E+03  0.00000000000E+00 0.  1.
         21   -1    0    0  501  502 -0.00000000000E+00 -0.00000000000E+00 -0.18096391892E+03  0.18096391892E+03  0.00000000000E+00 0.  1.
         25    1    1    2    0    0  0.99547541706E+01 -0.14563054065E+03  0.11439299426E+03  0.22364728623E+03  0.12500000000E+03 0.  0.
         25    1    1    2    0    0 -0.11596172335E+02  0.37041790654E+01  0.15128393287E+03  0.19662151586E+03  0.12500000000E+03 0.  0.
         25    1    1    2    0    0  0.16414181642E+01  0.14192636159E+03 -0.17405121218E+02  0.18993084165E+03  0.12500000000E+03 0.  0.
</event>
<event>
 5    0  0.5597833E-005  0.3948843E+03  0.7546771E-02  0.1045566E+00
         21   -1    0    0  502  501  0.00000000000E+00  0.00000000000E+00  0.45326692655E+03  0.45326692655E+03  0.00000000000E+00 0. -1.
         21   -1    0    0  501  502 -0.00000000000E+00 -0.00000000000E+00 -0.34402157317E+03  0.34402157317E+03  0.00000000000E+00 0. -1.
         25    1    1    2    0    0 -0.13988485350E+03 -0.18636673836E+03  0.22383830389E+03  0.34645190098E+03  0.12500000000E+03 0.  0.
         25    1    1    2    0    0 -0.21197039908E+02 -0.29128688589E+02  0.68690313819E+01  0.13026887039E+03  0.12500000000E+03 0.  0.
         25    1    1    2    0    0  0.16108189341E+03  0.21549542695E+03 -0.12146198189E+03  0.32056772836E+03  0.12500000000E+03 0.  0.
</event>
<event>
 5    0  0.5597833E-005  0.2064471E+03  0.7546771E-02  0.1144411E+00
         21   -1    0    0  502  501  0.00000000000E+00  0.00000000000E+00  0.53470870387E+02  0.53470870387E+02  0.00000000000E+00 0. -1.
         21   -1    0    0  501  502 -0.00000000000E+00 -0.00000000000E+00 -0.79707676048E+03  0.79707676048E+03  0.00000000000E+00 0. -1.
         25    1    1    2    0    0 -0.31644694864E+01  0.55193641081E+01 -0.21687344613E+03  0.25039881965E+03  0.12500000000E+03 0.  0.
         25    1    1    2    0    0  0.59042919088E+02 -0.30004037343E+02 -0.33163139548E+03  0.36054221809E+03  0.12500000000E+03 0.  0.
         25    1    1    2    0    0 -0.55878449602E+02  0.24484673235E+02 -0.19510104848E+03  0.23960659313E+03  0.12500000000E+03 0.  0.
</event>
<event>
 5    0  0.5597833E-005  0.3872180E+03  0.7546771E-02  0.1048298E+00
         21   -1    0    0  502  501  0.00000000000E+00  0.00000000000E+00  0.17898675178E+04  0.17898675178E+04  0.00000000000E+00 0. -1.
         21   -1    0    0  501  502 -0.00000000000E+00 -0.00000000000E+00 -0.83770307359E+02  0.83770307359E+02  0.00000000000E+00 0. -1.
         25    1    1    2    0    0  0.12068118063E+02 -0.16752279380E+01  0.16090961575E+03  0.20412092079E+03  0.12500000000E+03 0.  0.
         25    1    1    2    0    0 -0.66058006626E+02  0.17670482559E+03  0.13654280011E+04  0.13840545082E+04  0.12500000000E+03 0.  0.
         25    1    1    2    0    0  0.53989888562E+02 -0.17502959766E+03  0.17975959365E+03  0.28546239618E+03  0.12500000000E+03 0.  0.
</event>
<event>
 5    0  0.6089793E-005  0.3086938E+03  0.7546771E-02  0.1080974E+00
         21   -1    0    0  502  501  0.00000000000E+00  0.00000000000E+00  0.22576774792E+03  0.22576774792E+03  0.00000000000E+00 0. -1.
         21   -1    0    0  501  502 -0.00000000000E+00 -0.00000000000E+00 -0.42207918789E+03  0.42207918789E+03  0.00000000000E+00 0. -1.
         25    1    1    2    0    0 -0.33063465113E+02 -0.10674222893E+02  0.62229217392E+02  0.14389095613E+03  0.12500000000E+03 0.  0.
         25    1    1    2    0    0 -0.66009419218E+02 -0.87739206582E+02 -0.26894786145E+03  0.31624889561E+03  0.12500000000E+03 0.  0.
         25    1    1    2    0    0  0.99072884331E+02  0.98413429474E+02  0.10407204094E+02  0.18770708406E+03  0.12500000000E+03 0.  0.
</event>
<event>
 5    0  0.5597833E-005  0.3388253E+03  0.7546771E-02  0.1067297E+00
         21   -1    0    0  502  501  0.00000000000E+00  0.00000000000E+00  0.88901825699E+02  0.88901825699E+02  0.00000000000E+00 0.  1.
         21   -1    0    0  501  502 -0.00000000000E+00 -0.00000000000E+00 -0.12913411295E+04  0.12913411295E+04  0.00000000000E+00 0.  1.
         25    1    1    2    0    0  0.18237524765E+03 -0.12745555539E+03 -0.30464803647E+03  0.39741801127E+03  0.12500000000E+03 0.  0.
         25    1    1    2    0    0 -0.17491099814E+02  0.20300519581E+02 -0.54669497357E+03  0.56144317949E+03  0.12500000000E+03 0.  0.
         25    1    1    2    0    0 -0.16488414784E+03  0.10715503581E+03 -0.35109629373E+03  0.42138176441E+03  0.12500000000E+03 0.  0.
</event>
<event>
 5    0  0.5597833E-005  0.3393608E+03  0.7546771E-02  0.1067068E+00
         21   -1    0    0  502  501  0.00000000000E+00  0.00000000000E+00  0.43046812101E+03  0.43046812101E+03  0.00000000000E+00 0. -1.
         21   -1    0    0  501  502 -0.00000000000E+00 -0.00000000000E+00 -0.26753610899E+03  0.26753610899E+03  0.00000000000E+00 0. -1.
         25    1    1    2    0    0  0.42130194319E+02 -0.13332185297E+03  0.22217643208E+03  0.29075253520E+03  0.12500000000E+03 0.  0.
         25    1    1    2    0    0 -0.10134014473E+02  0.15851286771E+03 -0.14635251236E+03  0.24954575803E+03  0.12500000000E+03 0.  0.
         25    1    1    2    0    0 -0.31996179846E+02 -0.25191014731E+02  0.87108092307E+02  0.15770593677E+03  0.12500000000E+03 0.  0.
</event>
<event>
 5    0  0.5597833E-005  0.2287486E+03  0.7546771E-02  0.1127524E+00
         21   -1    0    0  502  501  0.00000000000E+00  0.00000000000E+00  0.47541431921E+02  0.47541431921E+02  0.00000000000E+00 0.  1.
         21   -1    0    0  501  502 -0.00000000000E+00 -0.00000000000E+00 -0.11006386505E+04  0.11006386505E+04  0.00000000000E+00 0.  1.
         25    1    1    2    0    0 -0.23645132031E+02 -0.37439182039E+02 -0.19314600066E+03  0.23428863009E+03  0.12500000000E+03 0.  0.
         25    1    1    2    0    0  0.83470485077E+01  0.24433682065E+02 -0.69143272042E+03  0.70311512920E+03  0.12500000000E+03 0.  0.
         25    1    1    2    0    0  0.15298083523E+02  0.13005499975E+02 -0.16851849746E+03  0.21077632309E+03  0.12500000000E+03 0.  0.
</event>
<event>
 5    0  0.5597833E-005  0.6255223E+03  0.7546771E-02  0.9853826E-01
         21   -1    0    0  502  501  0.00000000000E+00  0.00000000000E+00  0.16664343116E+03  0.16664343116E+03  0.00000000000E+00 0. -1.
         21   -1    0    0  501  502 -0.00000000000E+00 -0.00000000000E+00 -0.23479965038E+04  0.23479965038E+04  0.00000000000E+00 0. -1.
         25    1    1    2    0    0 -0.35608945944E+03  0.28020707343E+03 -0.38290836410E+03  0.60626687393E+03  0.12500000000E+03 0.  0.
         25    1    1    2    0    0  0.22636504673E+03  0.44142324828E+02 -0.62986035525E+03  0.68230399847E+03  0.12500000000E+03 0.  0.
         25    1    1    2    0    0  0.12972441271E+03 -0.32434939826E+03 -0.11685843533E+04  0.12260690625E+04  0.12500000000E+03 0.  0.
</event>
<event>
 5    0  0.5597833E-005  0.2810601E+03  0.7546771E-02  0.1095111E+00
         21   -1    0    0  502  501  0.00000000000E+00  0.00000000000E+00  0.15733696281E+03  0.15733696281E+03  0.00000000000E+00 0. -1.
         21   -1    0    0  501  502 -0.00000000000E+00 -0.00000000000E+00 -0.50207374543E+03  0.50207374543E+03  0.00000000000E+00 0. -1.
         25    1    1    2    0    0 -0.45438823397E+02  0.15324851908E+03 -0.73714582690E+02  0.21589033089E+03  0.12500000000E+03 0.  0.
         25    1    1    2    0    0 -0.54587530869E+00 -0.89619030170E+02 -0.23876521672E+02  0.15565011030E+03  0.12500000000E+03 0.  0.
         25    1    1    2    0    0  0.45984698706E+02 -0.63629488907E+02 -0.24714567826E+03  0.28787026706E+03  0.12500000000E+03 0.  0.
</event>
<event>
 5    0  0.5597833E-005  0.3645555E+03  0.7546771E-02  0.1056794E+00
         21   -1    0    0  502  501  0.00000000000E+00  0.00000000000E+00  0.22928533221E+03  0.22928533221E+03  0.00000000000E+00 0.  1.
         21   -1    0    0  501  502 -0.00000000000E+00 -0.00000000000E+00 -0.57963029892E+03  0.57963029892E+03  0.00000000000E+00 0.  1.
         25    1    1    2    0    0 -0.13624743382E+03 -0.44669670557E+02 -0.10050867282E+03  0.21514120015E+03  0.12500000000E+03 0.  0.
         25    1    1    2    0    0  0.13441509142E+03 -0.97715466104E+02 -0.32836345206E+03  0.38866860661E+03  0.12500000000E+03 0.  0.
         25    1    1    2    0    0  0.18323423926E+01  0.14238513666E+03  0.78527158160E+02  0.20510582437E+03  0.12500000000E+03 0.  0.
</event>
<event>
 5    0  0.5597833E-005  0.2721555E+03  0.7546771E-02  0.1100052E+00
         21   -1    0    0  502  501  0.00000000000E+00  0.00000000000E+00  0.93508927946E+03  0.93508927946E+03  0.00000000000E+00 0. -1.
         21   -1    0    0  501  502 -0.00000000000E+00 -0.00000000000E+00 -0.79210191732E+02  0.79210191732E+02  0.00000000000E+00 0. -1.
         25    1    1    2    0    0 -0.18775645663E+02 -0.55756822294E+01  0.14737964177E+03  0.19424050018E+03  0.12500000000E+03 0.  0.
         25    1    1    2    0    0  0.17919517714E+02  0.15539824853E+03  0.24006750583E+03  0.31261339082E+03  0.12500000000E+03 0.  0.
         25    1    1    2    0    0  0.85612794955E+00 -0.14982256630E+03  0.46843194012E+03  0.50744558019E+03  0.12500000000E+03 0.  0.
</event>
<event>
 5    0  0.5597833E-005  0.2846267E+03  0.7546771E-02  0.1093188E+00
         21   -1    0    0  502  501  0.00000000000E+00  0.00000000000E+00  0.66747191543E+02  0.66747191543E+02  0.00000000000E+00 0. -1.
         21   -1    0    0  501  502 -0.00000000000E+00 -0.00000000000E+00 -0.12137191725E+04  0.12137191725E+04  0.00000000000E+00 0. -1.
         25    1    1    2    0    0 -0.15059069932E+03 -0.85975037676E+02 -0.27722629928E+03  0.35006954572E+03  0.12500000000E+03 0.  0.
         25    1    1    2    0    0  0.57543918570E+02  0.83733932673E+02 -0.30990147414E+03  0.34926579810E+03  0.12500000000E+03 0.  0.
         25    1    1    2    0    0  0.93046780752E+02  0.22411050029E+01 -0.55984420748E+03  0.58113102018E+03  0.12500000000E+03 0.  0.
</event>
<event>
 5    0  0.5597833E-005  0.3820856E+03  0.7546771E-02  0.1050166E+00
         21   -1    0    0  502  501  0.00000000000E+00  0.00000000000E+00  0.90641449900E+03  0.90641449900E+03  0.00000000000E+00 0. -1.
         21   -1    0    0  501  502 -0.00000000000E+00 -0.00000000000E+00 -0.16106252113E+03  0.16106252113E+03  0.00000000000E+00 0. -1.
         25    1    1    2    0    0 -0.17374584651E+03  0.55215049987E+02  0.33074110476E+03  0.39780774164E+03  0.12500000000E+03 0.  0.
         25    1    1    2    0    0 -0.28468935017E+02 -0.13548694217E+03  0.37063918212E+03  0.41492842164E+03  0.12500000000E+03 0.  0.
         25    1    1    2    0    0  0.20221478153E+03  0.80271892187E+02  0.43971690988E+02  0.25474085686E+03  0.12500000000E+03 0.  0.
</event>
<event>
 5    0  0.5597833E-005  0.6104990E+03  0.7546771E-02  0.9883860E-01
         21   -1    0    0  502  501  0.00000000000E+00  0.00000000000E+00  0.25961440191E+03  0.25961440191E+03  0.00000000000E+00 0. -1.
         21   -1    0    0  501  502 -0.00000000000E+00 -0.00000000000E+00 -0.14356255827E+04  0.14356255827E+04  0.00000000000E+00 0. -1.
         25    1    1    2    0    0 -0.73348309997E+02 -0.31205105842E+02 -0.57993284727E+03  0.59858235904E+03  0.12500000000E+03 0.  0.
         25    1    1    2    0    0  0.34753837830E+03  0.27629021153E+03 -0.10950676579E+03  0.47406322061E+03  0.12500000000E+03 0.  0.
         25    1    1    2    0    0 -0.27419006831E+03 -0.24508510569E+03 -0.48657156777E+03  0.62259440501E+03  0.12500000000E+03 0.  0.
</event>
<event>
 5    0  0.5597833E-005  0.3919234E+03  0.7546771E-02  0.1046613E+00
         21   -1    0    0  502  501  0.00000000000E+00  0.00000000000E+00  0.43604832777E+03  0.43604832777E+03  0.00000000000E+00 0.  1.
         21   -1    0    0  501  502 -0.00000000000E+00 -0.00000000000E+00 -0.35226357015E+03  0.35226357015E+03  0.00000000000E+00 0.  1.
         25    1    1    2    0    0  0.41302736618E+02  0.20901991293E+03  0.21803836624E+03  0.32948591655E+03  0.12500000000E+03 0.  0.
         25    1    1    2    0    0 -0.93165327855E+02  0.19128488679E+02 -0.11142701418E+03  0.19257896272E+03  0.12500000000E+03 0.  0.
         25    1    1    2    0    0  0.51862591237E+02 -0.22814840161E+03 -0.22826594437E+02  0.26624701865E+03  0.12500000000E+03 0.  0.
</event>
<event>
 5    0  0.5597833E-005  0.2704621E+03  0.7546771E-02  0.1101015E+00
         21   -1    0    0  502  501  0.00000000000E+00  0.00000000000E+00  0.54136684506E+02  0.54136684506E+02  0.00000000000E+00 0.  1.
         21   -1    0    0  501  502 -0.00000000000E+00 -0.00000000000E+00 -0.13512052216E+04  0.13512052216E+04  0.00000000000E+00 0.  1.
         25    1    1    2    0    0 -0.46604465946E+02 -0.11289316262E+03 -0.38157495086E+03  0.41969189358E+03  0.12500000000E+03 0.  0.
         25    1    1    2    0    0  0.31907983551E+01  0.98319550610E+02 -0.18885398219E+03  0.24691646728E+03  0.12500000000E+03 0.  0.
         25    1    1    2    0    0  0.43413667591E+02  0.14573612008E+02 -0.72663960403E+03  0.73873354523E+03  0.12500000000E+03 0.  0.
</event>
<event>
 5    0  0.5597833E-005  0.3530263E+03  0.7546771E-02  0.1061380E+00
         21   -1    0    0  502  501  0.00000000000E+00  0.00000000000E+00  0.43017441748E+03  0.43017441748E+03  0.00000000000E+00 0.  1.
         21   -1    0    0  501  502 -0.00000000000E+00 -0.00000000000E+00 -0.28971397121E+03  0.28971397121E+03  0.00000000000E+00 0.  1.
         25    1    1    2    0    0  0.29338086243E+02  0.29223448337E+02  0.19460155628E+03  0.23496701672E+03  0.12500000000E+03 0.  0.
         25    1    1    2    0    0 -0.74012261066E+02 -0.11236976098E+03 -0.19954762514E+03  0.27119924902E+03  0.12500000000E+03 0.  0.
         25    1    1    2    0    0  0.44674174822E+02  0.83146312643E+02  0.14540651512E+03  0.21372212296E+03  0.12500000000E+03 0.  0.
</event>
<event>
 5    0  0.5597833E-005  0.2571506E+03  0.7546771E-02  0.1108867E+00
         21   -1    0    0  502  501  0.00000000000E+00  0.00000000000E+00  0.61096469790E+02  0.61096469790E+02  0.00000000000E+00 0.  1.
         21   -1    0    0  501  502 -0.00000000000E+00 -0.00000000000E+00 -0.10823279834E+04  0.10823279834E+04  0.00000000000E+00 0.  1.
         25    1    1    2    0    0 -0.96054458746E+02 -0.76220106796E+02 -0.28192833864E+03  0.33188032761E+03  0.12500000000E+03 0.  0.
         25    1    1    2    0    0  0.23727171483E+00  0.10652310663E+03 -0.47267097564E+03  0.50038992772E+03  0.12500000000E+03 0.  0.
         25    1    1    2    0    0  0.95817187031E+02 -0.30302999836E+02 -0.26663219931E+03  0.31115419785E+03  0.12500000000E+03 0.  0.
</event>
<event>
 5    0  0.5597833E-005  0.2694141E+03  0.7546771E-02  0.1101615E+00
         21   -1    0    0  502  501  0.00000000000E+00  0.00000000000E+00  0.60038921788E+02  0.60038921788E+02  0.00000000000E+00 0. -1.
         21   -1    0    0  501  502 -0.00000000000E+00 -0.00000000000E+00 -0.12089486491E+04  0.12089486491E+04  0.00000000000E+00 0. -1.
         25    1    1    2    0    0  0.88071303029E+02  0.44252620145E+02 -0.21384045325E+03  0.26658504881E+03  0.12500000000E+03 0.  0.
         25    1    1    2    0    0 -0.60663983090E+01  0.67213464041E+02 -0.62189596306E+03  0.63791381848E+03  0.12500000000E+03 0.  0.
         25    1    1    2    0    0 -0.82004904720E+02 -0.11146608419E+03 -0.31317331101E+03  0.36448870360E+03  0.12500000000E+03 0.  0.
</event>
<event>
 5    0  0.5597833E-005  0.2579005E+03  0.7546771E-02  0.1108411E+00
         21   -1    0    0  502  501  0.00000000000E+00  0.00000000000E+00  0.48454154706E+03  0.48454154706E+03  0.00000000000E+00 0.  1.
         21   -1    0    0  501  502 -0.00000000000E+00 -0.00000000000E+00 -0.13726931394E+03  0.13726931394E+03  0.00000000000E+00 0.  1.
         25    1    1    2    0    0  0.85618337622E+01  0.49059123303E+02  0.19927692015E+02  0.13602284913E+03  0.12500000000E+03 0.  0.
         25    1    1    2    0    0 -0.18961817077E+02 -0.19574598641E+02 -0.63365680875E+01  0.12809319855E+03  0.12500000000E+03 0.  0.
         25    1    1    2    0    0  0.10399983314E+02 -0.29484524662E+02  0.33368110920E+03  0.35769481333E+03  0.12500000000E+03 0.  0.
</event>
<event>
 5    0  0.5597833E-005  0.3307252E+03  0.7546771E-02  0.1070816E+00
         21   -1    0    0  502  501  0.00000000000E+00  0.00000000000E+00  0.93325817705E+03  0.93325817705E+03  0.00000000000E+00 0.  1.
         21   -1    0    0  501  502 -0.00000000000E+00 -0.00000000000E+00 -0.11720140837E+03  0.11720140837E+03  0.00000000000E+00 0.  1.
         25    1    1    2    0    0 -0.10163939017E+00 -0.25197311176E+03  0.37342589883E+03  0.46750653610E+03  0.12500000000E+03 0.  0.
         25    1    1    2    0    0  0.67983547046E+01  0.46390933571E+02  0.11367728135E+03  0.17534497609E+03  0.12500000000E+03 0.  0.
         25    1    1    2    0    0 -0.66967153144E+01  0.20558217819E+03  0.32895358850E+03  0.40760807324E+03  0.12500000000E+03 0.  0.
</event>
<event>
 5    0  0.5597833E-005  0.4764397E+03  0.7546771E-02  0.1020118E+00
         21   -1    0    0  502  501  0.00000000000E+00  0.00000000000E+00  0.38668870255E+03  0.38668870255E+03  0.00000000000E+00 0. -1.
         21   -1    0    0  501  502 -0.00000000000E+00 -0.00000000000E+00 -0.58702213217E+03  0.58702213217E+03  0.00000000000E+00 0. -1.
         25    1    1    2    0    0  0.29406585231E+02  0.14430221894E+03 -0.47079223545E+03  0.50887936351E+03  0.12500000000E+03 0.  0.
         25    1    1    2    0    0  0.52709610480E+02 -0.14118353077E+03  0.56538599745E+02  0.20379574495E+03  0.12500000000E+03 0.  0.
         25    1    1    2    0    0 -0.82116195711E+02 -0.31186881620E+01  0.21392020608E+03  0.26103572626E+03  0.12500000000E+03 0.  0.
</event>
<event>
 5    0  0.5597833E-005  0.2757841E+03  0.7546771E-02  0.1098014E+00
         21   -1    0    0  502  501  0.00000000000E+00  0.00000000000E+00  0.20604851444E+04  0.20604851444E+04  0.00000000000E+00 0. -1.
         21   -1    0    0  501  502 -0.00000000000E+00 -0.00000000000E+00 -0.36912108818E+02  0.36912108818E+02  0.00000000000E+00 0. -1.
         25    1    1    2    0    0  0.98329660684E+02 -0.12809329456E+02  0.68822930569E+03  0.70648239773E+03  0.12500000000E+03 0.  0.
         25    1    1    2    0    0  0.62105651566E+02  0.70959875329E+01  0.89489464725E+03  0.90574217892E+03  0.12500000000E+03 0.  0.
         25    1    1    2    0    0 -0.16043531225E+03  0.57133419231E+01  0.44044908267E+03  0.48517267660E+03  0.12500000000E+03 0.  0.
</event>
<event>
 5    0  0.5597833E-005  0.2443137E+03  0.7546771E-02  0.1116952E+00
         21   -1    0    0  502  501  0.00000000000E+00  0.00000000000E+00  0.17813318916E+03  0.17813318916E+03  0.00000000000E+00 0. -1.
         21   -1    0    0  501  502 -0.00000000000E+00 -0.00000000000E+00 -0.33508188257E+03  0.33508188257E+03  0.00000000000E+00 0. -1.
         25    1    1    2    0    0  0.21967640709E+02  0.13089204229E+03 -0.50681725517E+02  0.18923250586E+03  0.12500000000E+03 0.  0.
         25    1    1    2    0    0  0.42944634085E+02 -0.59207193859E+02 -0.27556946918E+02  0.14742495964E+03  0.12500000000E+03 0.  0.
         25    1    1    2    0    0 -0.64912274794E+02 -0.71684848435E+02 -0.78710020971E+02  0.17655760622E+03  0.12500000000E+03 0.  0.
</event>
<event>
 5    0  0.5597833E-005  0.3033166E+03  0.7546771E-02  0.1083594E+00
         21   -1    0    0  502  501  0.00000000000E+00  0.00000000000E+00  0.15923310332E+04  0.15923310332E+04  0.00000000000E+00 0.  1.
         21   -1    0    0  501  502 -0.00000000000E+00 -0.00000000000E+00 -0.57777530139E+02  0.57777530139E+02  0.00000000000E+00 0.  1.
         25    1    1    2    0    0  0.23990091306E+02 -0.78663595732E+02  0.91552058784E+03  0.92766719923E+03  0.12500000000E+03 0.  0.
         25    1    1    2    0    0  0.24616388237E+02 -0.16201097670E+02  0.63771259472E+02  0.14338833868E+03  0.12500000000E+03 0.  0.
         25    1    1    2    0    0 -0.48606479543E+02  0.94864693403E+02  0.55526165577E+03  0.57905302545E+03  0.12500000000E+03 0.  0.
</event>
<event>
 5    0  0.5597833E-005  0.4907322E+03  0.7546771E-02  0.1016227E+00
         21   -1    0    0  502  501  0.00000000000E+00  0.00000000000E+00  0.12910079273E+03  0.12910079273E+03  0.00000000000E+00 0. -1.
         21   -1    0    0  501  502 -0.00000000000E+00 -0.00000000000E+00 -0.18653497074E+04  0.18653497074E+04  0.00000000000E+00 0. -1.
         25    1    1    2    0    0 -0.31480692506E+03 -0.18198305513E+03 -0.86422309115E+03  0.94590051469E+03  0.12500000000E+03 0.  0.
         25    1    1    2    0    0  0.35447249511E+03  0.42428499991E+02 -0.67520843474E+03  0.77393950522E+03  0.12500000000E+03 0.  0.
         25    1    1    2    0    0 -0.39665570053E+02  0.13955455514E+03 -0.19681738876E+03  0.27461048018E+03  0.12500000000E+03 0.  0.
</event>
<event>
 5    0  0.5597833E-005  0.3402678E+03  0.7546771E-02  0.1066682E+00
         21   -1    0    0  502  501  0.00000000000E+00  0.00000000000E+00  0.21005636909E+03  0.21005636909E+03  0.00000000000E+00 0.  1.
         21   -1    0    0  501  502 -0.00000000000E+00 -0.00000000000E+00 -0.55119577948E+03  0.55119577948E+03  0.00000000000E+00 0.  1.
         25    1    1    2    0    0  0.76721202470E+02 -0.85954747886E+02  0.91821161409E+02  0.19321099160E+03  0.12500000000E+03 0.  0.
         25    1    1    2    0    0 -0.37283877475E+02  0.92571157307E+02 -0.40277630923E+03  0.43337427469E+03  0.12500000000E+03 0.  0.
         25    1    1    2    0    0 -0.39437324995E+02 -0.66164094209E+01 -0.30184262572E+02  0.13466688228E+03  0.12500000000E+03 0.  0.
</event>
<event>
 5    0  0.5597833E-005  0.2130881E+03  0.7546771E-02  0.1139144E+00
         21   -1    0    0  502  501  0.00000000000E+00  0.00000000000E+00  0.42201173167E+03  0.42201173167E+03  0.00000000000E+00 0. -1.
         21   -1    0    0  501  502 -0.00000000000E+00 -0.00000000000E+00 -0.10759546132E+03  0.10759546132E+03  0.00000000000E+00 0. -1.
         25    1    1    2    0    0 -0.50038968499E+02 -0.62517262109E+02  0.83073619771E+02  0.17011329381E+03  0.12500000000E+03 0.  0.
         25    1    1    2    0    0  0.41648888969E+02  0.27351882383E+02  0.16659111875E+03  0.21415031233E+03  0.12500000000E+03 0.  0.
         25    1    1    2    0    0  0.83900795297E+01  0.35165379727E+02  0.64751531832E+02  0.14534358686E+03  0.12500000000E+03 0.  0.
</event>
<event>
 5    0  0.5597833E-005  0.3967212E+03  0.7546771E-02  0.1044921E+00
         21   -1    0    0  502  501  0.00000000000E+00  0.00000000000E+00  0.15479760073E+04  0.15479760073E+04  0.00000000000E+00 0. -1.
         21   -1    0    0  501  502 -0.00000000000E+00 -0.00000000000E+00 -0.10167321314E+03  0.10167321314E+03  0.00000000000E+00 0. -1.
         25    1    1    2    0    0 -0.73424790669E+02  0.15742208507E+03  0.41978532362E+03  0.47118746872E+03  0.12500000000E+03 0.  0.
         25    1    1    2    0    0 -0.10097999887E+03  0.13928528221E+03  0.37686497542E+03  0.43272342172E+03  0.12500000000E+03 0.  0.
         25    1    1    2    0    0  0.17440478953E+03 -0.29670736728E+03  0.64965249510E+03  0.74573832998E+03  0.12500000000E+03 0.  0.
</event>
<event>
 5    0  0.5597833E-005  0.4049358E+03  0.7546771E-02  0.1042084E+00
         21   -1    0    0  502  501  0.00000000000E+00  0.00000000000E+00  0.12872091156E+03  0.12872091156E+03  0.00000000000E+00 0.  1.
         21   -1    0    0  501  502 -0.00000000000E+00 -0.00000000000E+00 -0.12738643678E+04  0.12738643678E+04  0.00000000000E+00 0.  1.
         25    1    1    2    0    0  0.12441688065E+03  0.47136551081E+02 -0.33531933676E+03  0.38179244656E+03  0.12500000000E+03 0.  0.
         25    1    1    2    0    0 -0.19215883791E+01 -0.19452169116E+03 -0.62933990149E+02  0.23964154053E+03  0.12500000000E+03 0.  0.
         25    1    1    2    0    0 -0.12249529227E+03  0.14738514007E+03 -0.74689012928E+03  0.78115129224E+03  0.12500000000E+03 0.  0.
</event>
<event>
 5    0  0.5597833E-005  0.3350416E+03  0.7546771E-02  0.1068928E+00
         21   -1    0    0  502  501  0.00000000000E+00  0.00000000000E+00  0.42615890513E+03  0.42615890513E+03  0.00000000000E+00 0.  1.
         21   -1    0    0  501  502 -0.00000000000E+00 -0.00000000000E+00 -0.26340611575E+03  0.26340611575E+03  0.00000000000E+00 0.  1.
         25    1    1    2    0    0 -0.14325250912E+03  0.12067842645E+03  0.52087061676E+02  0.23113335106E+03  0.12500000000E+03 0.  0.
         25    1    1    2    0    0 -0.40553679283E+02 -0.36937049939E+02  0.16561864527E+03  0.21462404856E+03  0.12500000000E+03 0.  0.
         25    1    1    2    0    0  0.18380618841E+03 -0.83741376510E+02 -0.54952917558E+02  0.24380762126E+03  0.12500000000E+03 0.  0.
</event>
<event>
 5    0  0.5597833E-005  0.2894946E+03  0.7546771E-02  0.1090613E+00
         21   -1    0    0  502  501  0.00000000000E+00  0.00000000000E+00  0.42387396350E+02  0.42387396350E+02  0.00000000000E+00 0. -1.
         21   -1    0    0  501  502 -0.00000000000E+00 -0.00000000000E+00 -0.19771706454E+04  0.19771706454E+04  0.00000000000E+00 0. -1.
         25    1    1    2    0    0 -0.65843123736E+02 -0.98184651441E+02 -0.36487729552E+03  0.40340548275E+03  0.12500000000E+03 0.  0.
         25    1    1    2    0    0  0.77993451485E+02  0.95750345493E+02 -0.36907302113E+03  0.40876766270E+03  0.12500000000E+03 0.  0.
         25    1    1    2    0    0 -0.12150327749E+02  0.24343059481E+01 -0.12008329324E+04  0.12073848963E+04  0.12500000000E+03 0.  0.
</event>
<event>
 5    0  0.5597833E-005  0.2351097E+03  0.7546771E-02  0.1123094E+00
         21   -1    0    0  502  501  0.00000000000E+00  0.00000000000E+00  0.13056674097E+03  0.13056674097E+03  0.00000000000E+00 0. -1.
         21   -1    0    0  501  502 -0.00000000000E+00 -0.00000000000E+00 -0.42335865691E+03  0.42335865691E+03  0.00000000000E+00 0. -1.
         25    1    1    2    0    0 -0.63345662525E+02  0.84018717686E+01 -0.19698445572E+03  0.24189076089E+03  0.12500000000E+03 0.  0.
         25    1    1    2    0    0  0.86157310415E+02 -0.50858175595E+02 -0.30471805427E+02  0.16298210665E+03  0.12500000000E+03 0.  0.
         25    1    1    2    0    0 -0.22811647890E+02  0.42456303827E+02 -0.65335654792E+02  0.14905253034E+03  0.12500000000E+03 0.  0.
</event>
<event>
 5    0  0.5597833E-005  0.4232345E+03  0.7546771E-02  0.1036019E+00
         21   -1    0    0  502  501  0.00000000000E+00  0.00000000000E+00  0.87904655787E+03  0.87904655787E+03  0.00000000000E+00 0. -1.
         21   -1    0    0  501  502 -0.00000000000E+00 -0.00000000000E+00 -0.20377470273E+03  0.20377470273E+03  0.00000000000E+00 0. -1.
         25    1    1    2    0    0  0.10066397916E+03  0.11455996046E+03 -0.25184333317E+02  0.19878750435E+03  0.12500000000E+03 0.  0.
         25    1    1    2    0    0 -0.24412812790E+03 -0.17296624877E+03  0.53316997313E+03  0.62402811338E+03  0.12500000000E+03 0.  0.
         25    1    1    2    0    0  0.14346414874E+03  0.58406288315E+02  0.16728621533E+03  0.26000564288E+03  0.12500000000E+03 0.  0.
</event>
<event>
 5    0  0.5597833E-005  0.3467048E+03  0.7546771E-02  0.1063976E+00
         21   -1    0    0  502  501  0.00000000000E+00  0.00000000000E+00  0.22355297573E+03  0.22355297573E+03  0.00000000000E+00 0.  1.
         21   -1    0    0  501  502 -0.00000000000E+00 -0.00000000000E+00 -0.53769918254E+03  0.53769918254E+03  0.00000000000E+00 0.  1.
         25    1    1    2    0    0  0.15847733739E+02 -0.23140881002E+02  0.69054656446E+02  0.14553417679E+03  0.12500000000E+03 0.  0.
         25    1    1    2    0    0  0.56677593900E+02  0.37883956037E+02 -0.43792198033E+03  0.46048692123E+03  0.12500000000E+03 0.  0.
         25    1    1    2    0    0 -0.72525327639E+02 -0.14743075034E+02  0.54721117074E+02  0.15523106024E+03  0.12500000000E+03 0.  0.
</event>
<event>
 5    0  0.5597833E-005  0.3235766E+03  0.7546771E-02  0.1074015E+00
         21   -1    0    0  502  501  0.00000000000E+00  0.00000000000E+00  0.10890652767E+04  0.10890652767E+04  0.00000000000E+00 0.  1.
         21   -1    0    0  501  502 -0.00000000000E+00 -0.00000000000E+00 -0.96139130125E+02  0.96139130125E+02  0.00000000000E+00 0.  1.
         25    1    1    2    0    0 -0.84309727366E+02 -0.11004658086E+03  0.54845673548E+03  0.57935150883E+03  0.12500000000E+03 0.  0.
         25    1    1    2    0    0  0.18928511842E+03  0.79253232950E+02  0.21402051546E+03  0.32177587235E+03  0.12500000000E+03 0.  0.
         25    1    1    2    0    0 -0.10497539106E+03  0.30793347906E+02  0.23044889565E+03  0.28407702566E+03  0.12500000000E+03 0.  0.
</event>
<event>
 5    0  0.5597833E-005  0.2940070E+03  0.7546771E-02  0.1088275E+00
         21   -1    0    0  502  501  0.00000000000E+00  0.00000000000E+00  0.26952318916E+03  0.26952318916E+03  0.00000000000E+00 0. -1.
         21   -1    0    0  501  502 -0.00000000000E+00 -0.00000000000E+00 -0.32071488562E+03  0.32071488562E+03  0.00000000000E+00 0. -1.
         25    1    1    2    0    0  0.14104360323E+03 -0.10185204074E+03 -0.32765086173E+02  0.21671568260E+03  0.12500000000E+03 0.  0.
         25    1    1    2    0    0  0.14521283488E+02  0.62378235557E+02  0.63595758075E+02  0.15417954595E+03  0.12500000000E+03 0.  0.
         25    1    1    2    0    0 -0.15556488671E+03  0.39473805188E+02 -0.82022368360E+02  0.21934284621E+03  0.12500000000E+03 0.  0.
</event>
<event>
 5    0  0.5597833E-005  0.5031847E+03  0.7546771E-02  0.1012951E+00
         21   -1    0    0  502  501  0.00000000000E+00  0.00000000000E+00  0.74991011489E+03  0.74991011489E+03  0.00000000000E+00 0. -1.
         21   -1    0    0  501  502 -0.00000000000E+00 -0.00000000000E+00 -0.33763355668E+03  0.33763355668E+03  0.00000000000E+00 0. -1.
         25    1    1    2    0    0  0.59577718637E+02  0.40390637649E+03  0.40297489844E+03  0.58711466879E+03  0.12500000000E+03 0.  0.
         25    1    1    2    0    0 -0.76296990189E+01 -0.24207926499E+03  0.69029926090E+02  0.28115958732E+03  0.12500000000E+03 0.  0.
         25    1    1    2    0    0 -0.51948019618E+02 -0.16182711150E+03 -0.59728266327E+02  0.21926941546E+03  0.12500000000E+03 0.  0.
</event>
<event>
 5    0  0.5597833E-005  0.3374418E+03  0.7546771E-02  0.1067891E+00
         21   -1    0    0  502  501  0.00000000000E+00  0.00000000000E+00  0.66914672604E+02  0.66914672604E+02  0.00000000000E+00 0. -1.
         21   -1    0    0  501  502 -0.00000000000E+00 -0.00000000000E+00 -0.17016744248E+04  0.17016744248E+04  0.00000000000E+00 0. -1.
         25    1    1    2    0    0  0.10280750537E+03 -0.10529308797E+02 -0.22488908123E+03  0.27727305740E+03  0.12500000000E+03 0.  0.
         25    1    1    2    0    0  0.69347862901E+02 -0.87345464461E+01 -0.12897787212E+03  0.19273222327E+03  0.12500000000E+03 0.  0.
         25    1    1    2    0    0 -0.17215536827E+03  0.19263855243E+02 -0.12808927989E+04  0.12985838168E+04  0.12500000000E+03 0.  0.
</event>
<event>
 5    0  0.5597833E-005  0.2447585E+03  0.7546771E-02  0.1116663E+00
         21   -1    0    0  502  501  0.00000000000E+00  0.00000000000E+00  0.22271120046E+03  0.22271120046E+03  0.00000000000E+00 0. -1.
         21   -1    0    0  501  502 -0.00000000000E+00 -0.00000000000E+00 -0.26898832551E+03  0.26898832551E+03  0.00000000000E+00 0. -1.
         25    1    1    2    0    0 -0.87829876793E+02 -0.10036840353E+03 -0.83384180812E+00  0.18279387019E+03  0.12500000000E+03 0.  0.
         25    1    1    2    0    0  0.44520607229E+02  0.91597229672E+02 -0.66965369437E+02  0.17458951187E+03  0.12500000000E+03 0.  0.
         25    1    1    2    0    0  0.43309269563E+02  0.87711738625E+01  0.21522086190E+02  0.13431614391E+03  0.12500000000E+03 0.  0.
</event>
<event>
 5    0  0.5629097E-005  0.3463045E+03  0.7546771E-02  0.1064142E+00
         21   -1    0    0  502  501  0.00000000000E+00  0.00000000000E+00  0.65257495529E+03  0.65257495529E+03  0.00000000000E+00 0.  1.
         21   -1    0    0  501  502 -0.00000000000E+00 -0.00000000000E+00 -0.18377479626E+03  0.18377479626E+03  0.00000000000E+00 0.  1.
         25    1    1    2    0    0  0.12038079679E+02 -0.17152108057E+03  0.30547825482E+03  0.37216442684E+03  0.12500000000E+03 0.  0.
         25    1    1    2    0    0  0.10475473967E+03  0.67755100010E+01 -0.19604228130E+02  0.16440434538E+03  0.12500000000E+03 0.  0.
         25    1    1    2    0    0 -0.11679281935E+03  0.16474557057E+03  0.18292613235E+03  0.29978097933E+03  0.12500000000E+03 0.  0.
</event>
<event>
 5    0  0.5597833E-005  0.2919470E+03  0.7546771E-02  0.1089337E+00
         21   -1    0    0  502  501  0.00000000000E+00  0.00000000000E+00  0.45182734031E+02  0.45182734031E+02  0.00000000000E+00 0. -1.
         21   -1    0    0  501  502 -0.00000000000E+00 -0.00000000000E+00 -0.18864069880E+04  0.18864069880E+04  0.00000000000E+00 0. -1.
         25    1    1    2    0    0  0.90679706871E+02  0.10365925183E+03 -0.12791792636E+04  0.12926301243E+04  0.12500000000E+03 0.  0.
         25    1    1    2    0    0  0.87304320194E+01 -0.36825439849E+02 -0.25314654845E+03  0.28485173065E+03  0.12500000000E+03 0.  0.
         25    1    1    2    0    0 -0.99410138890E+02 -0.66833811982E+02 -0.30889844197E+03  0.35410786717E+03  0.12500000000E+03 0.  0.
</event>
<event>
 5    0  0.5597833E-005  0.3396205E+03  0.7546771E-02  0.1066958E+00
         21   -1    0    0  502  501  0.00000000000E+00  0.00000000000E+00  0.95551203001E+03  0.95551203001E+03  0.00000000000E+00 0. -1.
         21   -1    0    0  501  502 -0.00000000000E+00 -0.00000000000E+00 -0.12071232341E+03  0.12071232341E+03  0.00000000000E+00 0. -1.
         25    1    1    2    0    0 -0.14014839736E+03 -0.35963256116E+02  0.50036765601E+03  0.53565634529E+03  0.12500000000E+03 0.  0.
         25    1    1    2    0    0  0.23410729506E+03  0.62977205345E+01  0.20428687371E+03  0.33496867563E+03  0.12500000000E+03 0.  0.
         25    1    1    2    0    0 -0.93958897697E+02  0.29665535582E+02  0.13014517688E+03  0.20559933250E+03  0.12500000000E+03 0.  0.
</event>
<event>
 5    0  0.5597833E-005  0.2906710E+03  0.7546771E-02  0.1089999E+00
         21   -1    0    0  502  501  0.00000000000E+00  0.00000000000E+00  0.86526567263E+03  0.86526567263E+03  0.00000000000E+00 0. -1.
         21   -1    0    0  501  502 -0.00000000000E+00 -0.00000000000E+00 -0.97645861434E+02  0.97645861434E+02  0.00000000000E+00 0. -1.
         25    1    1    2    0    0  0.79576544165E+02 -0.60784248791E+02  0.23883245773E+03  0.28756406964E+03  0.12500000000E+03 0.  0.
         25    1    1    2    0    0 -0.14482575887E+03  0.15769714087E+03  0.33627837439E+03  0.41779305135E+03  0.12500000000E+03 0.  0.
         25    1    1    2    0    0  0.65249214703E+02 -0.96912892080E+02  0.19250897907E+03  0.25755441307E+03  0.12500000000E+03 0.  0.
</event>
<event>
 5    0  0.5597833E-005  0.3121297E+03  0.7546771E-02  0.1079330E+00
         21   -1    0    0  502  501  0.00000000000E+00  0.00000000000E+00  0.19794735199E+03  0.19794735199E+03  0.00000000000E+00 0. -1.
         21   -1    0    0  501  502 -0.00000000000E+00 -0.00000000000E+00 -0.49217610523E+03  0.49217610523E+03  0.00000000000E+00 0. -1.
         25    1    1    2    0    0  0.44234051962E+02  0.23596450888E+03 -0.10860073385E+03  0.29164193834E+03  0.12500000000E+03 0.  0.
         25    1    1    2    0    0 -0.53534335182E+02 -0.13154370724E+03 -0.91924071663E+02  0.21034425809E+03  0.12500000000E+03 0.  0.
         25    1    1    2    0    0  0.93002832197E+01 -0.10442080164E+03 -0.93703947719E+02  0.18813726080E+03  0.12500000000E+03 0.  0.
</event>
<event>
 5    0  0.6198693E-005  0.5290489E+03  0.7546771E-02  0.1006463E+00
         21   -1    0    0  502  501  0.00000000000E+00  0.00000000000E+00  0.36396549800E+03  0.36396549800E+03  0.00000000000E+00 0. -1.
         21   -1    0    0  501  502 -0.00000000000E+00 -0.00000000000E+00 -0.76900909233E+03  0.76900909233E+03  0.00000000000E+00 0. -1.
         25    1    1    2    0    0  0.24219819667E+03 -0.15849081094E+03  0.94238861626E+02  0.32906726769E+03  0.12500000000E+03 0.  0.
         25    1    1    2    0    0 -0.32661690739E+03  0.33062346143E+01 -0.12469516345E+03  0.37129963530E+03  0.12500000000E+03 0.  0.
         25    1    1    2    0    0  0.84418710725E+02  0.15518457633E+03 -0.37458729250E+03  0.43260768735E+03  0.12500000000E+03 0.  0.
</event>
<event>
 5    0  0.5597833E-005  0.2317239E+03  0.7546771E-02  0.1125432E+00
         21   -1    0    0  502  501  0.00000000000E+00  0.00000000000E+00  0.78401285797E+02  0.78401285797E+02  0.00000000000E+00 0. -1.
         21   -1    0    0  501  502 -0.00000000000E+00 -0.00000000000E+00 -0.68488641390E+03  0.68488641390E+03  0.00000000000E+00 0. -1.
         25    1    1    2    0    0 -0.28944236511E+02 -0.90076506060E+02 -0.21292021641E+03  0.26440795058E+03  0.12500000000E+03 0.  0.
         25    1    1    2    0    0  0.11320127863E+02  0.68656133141E+02 -0.88979787224E+02  0.16847614801E+03  0.12500000000E+03 0.  0.
         25    1    1    2    0    0  0.17624108648E+02  0.21420372919E+02 -0.30458512446E+03  0.33040360111E+03  0.12500000000E+03 0.  0.
</event>
<event>
 5    0  0.5597833E-005  0.3267456E+03  0.7546771E-02  0.1072586E+00
         21   -1    0    0  502  501  0.00000000000E+00  0.00000000000E+00  0.77702896038E+02  0.77702896038E+02  0.00000000000E+00 0.  1.
         21   -1    0    0  501  502 -0.00000000000E+00 -0.00000000000E+00 -0.13739859702E+04  0.13739859702E+04  0.00000000000E+00 0.  1.
         25    1    1    2    0    0  0.16455704561E+01 -0.13003460692E+03 -0.75929625301E+03  0.78042777164E+03  0.12500000000E+03 0.  0.
         25    1    1    2    0    0 -0.10510102837E+03  0.13065254087E+03 -0.16831208974E+03  0.26845906979E+03  0.12500000000E+03 0.  0.
         25    1    1    2    0    0  0.10345545792E+03 -0.61793395078E+00 -0.36867473140E+03  0.40280202481E+03  0.12500000000E+03 0.  0.
</event>
<event>
 5    0  0.5597833E-005  0.2921428E+03  0.7546771E-02  0.1089236E+00
         21   -1    0    0  502  501  0.00000000000E+00  0.00000000000E+00  0.69870489196E+03  0.69870489196E+03  0.00000000000E+00 0.  1.
         21   -1    0    0  501  502 -0.00000000000E+00 -0.00000000000E+00 -0.12215089809E+03  0.12215089809E+03  0.00000000000E+00 0.  1.
         25    1    1    2    0    0  0.79164168659E+01 -0.17037179103E+03  0.12901055355E+03  0.24770534867E+03  0.12500000000E+03 0.  0.
         25    1    1    2    0    0  0.69584520394E+02  0.43819742041E+02  0.27699125744E+03  0.31481952285E+03  0.12500000000E+03 0.  0.
         25    1    1    2    0    0 -0.77500937260E+02  0.12655204899E+03  0.17055218288E+03  0.25833091852E+03  0.12500000000E+03 0.  0.
</event>
<event>
 5    0  0.5597833E-005  0.5023155E+03  0.7546771E-02  0.1013176E+00
         21   -1    0    0  502  501  0.00000000000E+00  0.00000000000E+00  0.19654409607E+03  0.19654409607E+03  0.00000000000E+00 0.  1.
         21   -1    0    0  501  502 -0.00000000000E+00 -0.00000000000E+00 -0.12837875568E+04  0.12837875568E+04  0.00000000000E+00 0.  1.
         25    1    1    2    0    0 -0.68350995809E+02 -0.84539073038E+02 -0.98275630776E+02  0.19261830937E+03  0.12500000000E+03 0.  0.
         25    1    1    2    0    0  0.15381765357E+03 -0.76120984299E+02 -0.10397230409E+04  0.10611801339E+04  0.12500000000E+03 0.  0.
         25    1    1    2    0    0 -0.85466657765E+02  0.16066005734E+03  0.50755210946E+02  0.22653320960E+03  0.12500000000E+03 0.  0.
</event>
<event>
 5    0  0.5597833E-005  0.4582370E+03  0.7546771E-02  0.1025294E+00
         21   -1    0    0  502  501  0.00000000000E+00  0.00000000000E+00  0.15000588881E+04  0.15000588881E+04  0.00000000000E+00 0.  1.
         21   -1    0    0  501  502 -0.00000000000E+00 -0.00000000000E+00 -0.13998191933E+03  0.13998191933E+03  0.00000000000E+00 0.  1.
         25    1    1    2    0    0 -0.26024011940E+03  0.18397606028E+03  0.10645051501E+04  0.11181986966E+04  0.12500000000E+03 0.  0.
         25    1    1    2    0    0  0.15906193111E+03 -0.17712649806E+03  0.19288466377E+03  0.33091386758E+03  0.12500000000E+03 0.  0.
         25    1    1    2    0    0  0.10117818829E+03 -0.68495622250E+01  0.10268715492E+03  0.19092824326E+03  0.12500000000E+03 0.  0.
</event>
<event>
 5    0  0.5597833E-005  0.3604235E+03  0.7546771E-02  0.1058416E+00
         21   -1    0    0  502  501  0.00000000000E+00  0.00000000000E+00  0.52269517899E+03  0.52269517899E+03  0.00000000000E+00 0. -1.
         21   -1    0    0  501  502 -0.00000000000E+00 -0.00000000000E+00 -0.24852941744E+03  0.24852941744E+03  0.00000000000E+00 0.  1.
         25    1    1    2    0    0  0.10916801952E+03 -0.19314638650E+03  0.24792874546E+03  0.35541081290E+03  0.12500000000E+03 0.  0.
         25    1    1    2    0    0  0.89552384752E+01  0.83055155528E+02  0.11879662205E+03  0.19161417632E+03  0.12500000000E+03 0.  0.
         25    1    1    2    0    0 -0.11812325800E+03  0.11009123097E+03 -0.92559605953E+02  0.22419960720E+03  0.12500000000E+03 0.  0.
</event>
<event>
 5    0  0.6677358E-005  0.2851574E+03  0.7546771E-02  0.1092905E+00
         21   -1    0    0  502  501  0.00000000000E+00  0.00000000000E+00  0.40781720054E+03  0.40781720054E+03  0.00000000000E+00 0.  1.
         21   -1    0    0  501  502 -0.00000000000E+00 -0.00000000000E+00 -0.19939022046E+03  0.19939022046E+03  0.00000000000E+00 0.  1.
         25    1    1    2    0    0 -0.94826026074E+02 -0.51708472897E+02  0.85744035021E+02  0.18612571271E+03  0.12500000000E+03 0.  0.
         25    1    1    2    0    0  0.19579101924E+03  0.36662123200E+02  0.36049998558E+02  0.23791350716E+03  0.12500000000E+03 0.  0.
         25    1    1    2    0    0 -0.10096499317E+03  0.15046349697E+02  0.86632946503E+02  0.18316820113E+03  0.12500000000E+03 0.  0.
</event>
<event>
 5    0  0.5597833E-005  0.3189410E+03  0.7546771E-02  0.1076138E+00
         21   -1    0    0  502  501  0.00000000000E+00  0.00000000000E+00  0.14523975195E+04  0.14523975195E+04  0.00000000000E+00 0.  1.
         21   -1    0    0  501  502 -0.00000000000E+00 -0.00000000000E+00 -0.70038222669E+02  0.70038222669E+02  0.00000000000E+00 0.  1.
         25    1    1    2    0    0  0.20905952901E+01 -0.17495049357E+02  0.61886981853E+02  0.14058963640E+03  0.12500000000E+03 0.  0.
         25    1    1    2    0    0  0.97320277728E+02  0.12760259189E+03  0.82610558330E+03  0.85078145999E+03  0.12500000000E+03 0.  0.
         25    1    1    2    0    0 -0.99410873018E+02 -0.11010754253E+03  0.49436673168E+03  0.53106464577E+03  0.12500000000E+03 0.  0.
</event>
<event>
 5    0  0.5597833E-005  0.5978795E+03  0.7546771E-02  0.9909815E-01
         21   -1    0    0  502  501  0.00000000000E+00  0.00000000000E+00  0.38766466923E+03  0.38766466923E+03  0.00000000000E+00 0.  1.
         21   -1    0    0  501  502 -0.00000000000E+00 -0.00000000000E+00 -0.92208534206E+03  0.92208534206E+03  0.00000000000E+00 0.  1.
         25    1    1    2    0    0 -0.10145390446E+03  0.26727682397E+03  0.10071275169E+03  0.32786865314E+03  0.12500000000E+03 0.  0.
         25    1    1    2    0    0  0.10352053184E+03  0.12918948085E+03  0.17411641337E+02  0.20816961289E+03  0.12500000000E+03 0.  0.
         25    1    1    2    0    0 -0.20666273839E+01 -0.39646630482E+03 -0.65254506585E+03  0.77371174527E+03  0.12500000000E+03 0.  0.
</event>
<event>
 5    0  0.5597833E-005  0.4161722E+03  0.7546771E-02  0.1038319E+00
         21   -1    0    0  502  501  0.00000000000E+00  0.00000000000E+00  0.65808655522E+02  0.65808655522E+02  0.00000000000E+00 0.  1.
         21   -1    0    0  501  502 -0.00000000000E+00 -0.00000000000E+00 -0.26318621965E+04  0.26318621965E+04  0.00000000000E+00 0.  1.
         25    1    1    2    0    0 -0.68965604256E+02 -0.84596184501E+02 -0.18441044852E+04  0.18515558650E+04  0.12500000000E+03 0.  0.
         25    1    1    2    0    0  0.85220892135E+02  0.20074908107E+03 -0.54276192754E+03  0.59814572137E+03  0.12500000000E+03 0.  0.
         25    1    1    2    0    0 -0.16255287879E+02 -0.11615289656E+03 -0.17918712823E+03  0.24796926561E+03  0.12500000000E+03 0.  0.
</event>
<event>
 5    0  0.5597833E-005  0.4197565E+03  0.7546771E-02  0.1037146E+00
         21   -1    0    0  502  501  0.00000000000E+00  0.00000000000E+00  0.17407171473E+03  0.17407171473E+03  0.00000000000E+00 0.  1.
         21   -1    0    0  501  502 -0.00000000000E+00 -0.00000000000E+00 -0.10122007978E+04  0.10122007978E+04  0.00000000000E+00 0.  1.
         25    1    1    2    0    0 -0.29736877716E+03  0.39452313032E+02 -0.37103026029E+03  0.49322725866E+03  0.12500000000E+03 0.  0.
         25    1    1    2    0    0  0.13975621147E+03 -0.16628617588E+03 -0.13524212600E+03  0.28477767394E+03  0.12500000000E+03 0.  0.
         25    1    1    2    0    0  0.15761256569E+03  0.12683386285E+03 -0.33185669679E+03  0.40826757995E+03  0.12500000000E+03 0.  0.
</event>
<event>
 5    0  0.5597833E-005  0.3841733E+03  0.7546771E-02  0.1049402E+00
         21   -1    0    0  502  501  0.00000000000E+00  0.00000000000E+00  0.45705496239E+03  0.45705496239E+03  0.00000000000E+00 0.  1.
         21   -1    0    0  501  502 -0.00000000000E+00 -0.00000000000E+00 -0.32291337188E+03  0.32291337188E+03  0.00000000000E+00 0. -1.
         25    1    1    2    0    0  0.10784749369E+03 -0.83401133846E+02 -0.16343286103E+02  0.18568503984E+03  0.12500000000E+03 0.  0.
         25    1    1    2    0    0 -0.16605765207E+03 -0.17596791863E+03  0.12434893080E+03  0.29937853763E+03  0.12500000000E+03 0.  0.
         25    1    1    2    0    0  0.58210158384E+02  0.25936905248E+03  0.26135945807E+02  0.29490475681E+03  0.12500000000E+03 0.  0.
</event>
<event>
 5    0  0.5597833E-005  0.3512472E+03  0.7546771E-02  0.1062104E+00
         21   -1    0    0  502  501  0.00000000000E+00  0.00000000000E+00  0.92305524269E+02  0.92305524269E+02  0.00000000000E+00 0. -1.
         21   -1    0    0  501  502 -0.00000000000E+00 -0.00000000000E+00 -0.13365892663E+04  0.13365892663E+04  0.00000000000E+00 0. -1.
         25    1    1    2    0    0 -0.18624954447E+02  0.71555168327E+02 -0.25114724954E+03  0.29011544597E+03  0.12500000000E+03 0.  0.
         25    1    1    2    0    0 -0.38379475746E+02 -0.25980127211E+03 -0.73790797570E+03  0.79316005053E+03  0.12500000000E+03 0.  0.
         25    1    1    2    0    0  0.57004430192E+02  0.18824610378E+03 -0.25522851680E+03  0.34561929408E+03  0.12500000000E+03 0.  0.
</event>
<event>
 5    0  0.5597833E-005  0.3323072E+03  0.7546771E-02  0.1070121E+00
         21   -1    0    0  502  501  0.00000000000E+00  0.00000000000E+00  0.32925645778E+03  0.32925645778E+03  0.00000000000E+00 0. -1.
         21   -1    0    0  501  502 -0.00000000000E+00 -0.00000000000E+00 -0.33538622933E+03  0.33538622933E+03  0.00000000000E+00 0. -1.
         25    1    1    2    0    0  0.83135658255E+01  0.71749478158E+02  0.88338136120E+02  0.16925049272E+03  0.12500000000E+03 0.  0.
         25    1    1    2    0    0  0.19864824982E+02  0.15146194228E+03 -0.12886858192E+03  0.23572747536E+03  0.12500000000E+03 0.  0.
         25    1    1    2    0    0 -0.28178390808E+02 -0.22321142044E+03  0.34400674247E+02  0.25966471904E+03  0.12500000000E+03 0.  0.
</event>
<event>
 5    0  0.5597833E-005  0.2983314E+03  0.7546771E-02  0.1086078E+00
         21   -1    0    0  502  501  0.00000000000E+00  0.00000000000E+00  0.39837171863E+03  0.39837171863E+03  0.00000000000E+00 0.  1.
         21   -1    0    0  501  502 -0.00000000000E+00 -0.00000000000E+00 -0.22341348415E+03  0.22341348415E+03  0.00000000000E+00 0.  1.
         25    1    1    2    0    0 -0.63777130205E+02  0.58105128124E+02 -0.86294013077E+02  0.17468653338E+03  0.12500000000E+03 0.  0.
         25    1    1    2    0    0 -0.36194213911E+02  0.58393883349E+02  0.18806238802E+03  0.23603459179E+03  0.12500000000E+03 0.  0.
         25    1    1    2    0    0  0.99971344116E+02 -0.11649901147E+03  0.73189859548E+02  0.21106407761E+03  0.12500000000E+03 0.  0.
</event>
<event>
 5    0  0.5597833E-005  0.2934801E+03  0.7546771E-02  0.1088546E+00
         21   -1    0    0  502  501  0.00000000000E+00  0.00000000000E+00  0.58528587789E+03  0.58528587789E+03  0.00000000000E+00 0.  1.
         21   -1    0    0  501  502 -0.00000000000E+00 -0.00000000000E+00 -0.14715977851E+03  0.14715977851E+03  0.00000000000E+00 0.  1.
         25    1    1    2    0    0  0.41879876671E+02  0.99190444341E+02  0.10783597664E+03  0.19709456151E+03  0.12500000000E+03 0.  0.
         25    1    1    2    0    0 -0.15937854430E+03  0.28686302502E+02  0.13081270588E+03  0.24281966220E+03  0.12500000000E+03 0.  0.
         25    1    1    2    0    0  0.11749866763E+03 -0.12787674684E+03  0.19947741686E+03  0.29253143269E+03  0.12500000000E+03 0.  0.
</event>
<event>
 5    0  0.5597833E-005  0.3261664E+03  0.7546771E-02  0.1072846E+00
         21   -1    0    0  502  501  0.00000000000E+00  0.00000000000E+00  0.22015560085E+03  0.22015560085E+03  0.00000000000E+00 0. -1.
         21   -1    0    0  501  502 -0.00000000000E+00 -0.00000000000E+00 -0.48322422895E+03  0.48322422895E+03  0.00000000000E+00 0. -1.
         25    1    1    2    0    0 -0.16910285491E+03  0.10689224883E+03 -0.39311623390E+02  0.23914876569E+03  0.12500000000E+03 0.  0.
         25    1    1    2    0    0 -0.45908083979E+02  0.66796218014E+01 -0.72195879035E+02  0.15162260541E+03  0.12500000000E+03 0.  0.
         25    1    1    2    0    0  0.21501093889E+03 -0.11357187063E+03 -0.15156112567E+03  0.31260845871E+03  0.12500000000E+03 0.  0.
</event>
<event>
 5    0  0.5597833E-005  0.3288337E+03  0.7546771E-02  0.1071654E+00
         21   -1    0    0  502  501  0.00000000000E+00  0.00000000000E+00  0.47014159451E+03  0.47014159451E+03  0.00000000000E+00 0.  1.
         21   -1    0    0  501  502 -0.00000000000E+00 -0.00000000000E+00 -0.22999795527E+03  0.22999795527E+03  0.00000000000E+00 0.  1.
         25    1    1    2    0    0 -0.52034415978E+02 -0.10609690983E+03  0.17180135421E+03  0.24311487003E+03  0.12500000000E+03 0.  0.
         25    1    1    2    0    0 -0.85229715492E+02  0.19303311345E+03  0.17885629850E+02  0.24590807845E+03  0.12500000000E+03 0.  0.
         25    1    1    2    0    0  0.13726413147E+03 -0.86936203621E+02  0.50456655180E+02  0.21111660129E+03  0.12500000000E+03 0.  0.
</event>
<event>
 5    0  0.5597833E-005  0.3126825E+03  0.7546771E-02  0.1079067E+00
         21   -1    0    0  502  501  0.00000000000E+00  0.00000000000E+00  0.61310082163E+02  0.61310082163E+02  0.00000000000E+00 0. -1.
         21   -1    0    0  501  502 -0.00000000000E+00 -0.00000000000E+00 -0.15946866186E+04  0.15946866186E+04  0.00000000000E+00 0. -1.
         25    1    1    2    0    0  0.15019756434E+01  0.13410947251E+03 -0.21930272874E+03  0.28584312722E+03  0.12500000000E+03 0.  0.
         25    1    1    2    0    0 -0.42759244138E+02 -0.17179406051E+03 -0.50442904562E+03  0.54901294543E+03  0.12500000000E+03 0.  0.
         25    1    1    2    0    0  0.41257268494E+02  0.37684588000E+02 -0.80964476213E+03  0.82114062816E+03  0.12500000000E+03 0.  0.
</event>
<event>
 5    0  0.5597833E-005  0.5124759E+03  0.7546771E-02  0.1010573E+00
         21   -1    0    0  502  501  0.00000000000E+00  0.00000000000E+00  0.12050789441E+04  0.12050789441E+04  0.00000000000E+00 0. -1.
         21   -1    0    0  501  502 -0.00000000000E+00 -0.00000000000E+00 -0.21793724324E+03  0.21793724324E+03  0.00000000000E+00 0. -1.
         25    1    1    2    0    0  0.18695729509E+03 -0.16131224855E+03  0.92440374255E+03  0.96494660524E+03  0.12500000000E+03 0.  0.
         25    1    1    2    0    0 -0.18076667439E+03 -0.33146454946E+02  0.23314776443E+02  0.22348122258E+03  0.12500000000E+03 0.  0.
         25    1    1    2    0    0 -0.61906207063E+01  0.19445870350E+03  0.39423181842E+02  0.23458835951E+03  0.12500000000E+03 0.  0.
</event>
<event>
 5    0  0.5597833E-005  0.3458953E+03  0.7546771E-02  0.1064312E+00
         21   -1    0    0  502  501  0.00000000000E+00  0.00000000000E+00  0.70529854748E+03  0.70529854748E+03  0.00000000000E+00 0.  1.
         21   -1    0    0  501  502 -0.00000000000E+00 -0.00000000000E+00 -0.16963538709E+03  0.16963538709E+03  0.00000000000E+00 0.  1.
         25    1    1    2    0    0  0.14719193078E+03  0.11942983098E+03  0.32841963712E+02  0.22941783626E+03  0.12500000000E+03 0.  0.
         25    1    1    2    0    0  0.54429484842E+02 -0.22501066140E+02  0.24932425066E+03  0.28505516793E+03  0.12500000000E+03 0.  0.
         25    1    1    2    0    0 -0.20162141562E+03 -0.96928764844E+02  0.25349694602E+03  0.36046093038E+03  0.12500000000E+03 0.  0.
</event>
<event>
 5    0  0.5597833E-005  0.2466959E+03  0.7546771E-02  0.1115411E+00
         21   -1    0    0  502  501  0.00000000000E+00  0.00000000000E+00  0.74601386995E+02  0.74601386995E+02  0.00000000000E+00 0. -1.
         21   -1    0    0  501  502 -0.00000000000E+00 -0.00000000000E+00 -0.81578723934E+03  0.81578723934E+03  0.00000000000E+00 0. -1.
         25    1    1    2    0    0  0.12038910133E+02  0.15069139869E+02 -0.15550838537E+03  0.20044917624E+03  0.12500000000E+03 0.  0.
         25    1    1    2    0    0 -0.85019106746E+02  0.32938708302E+02 -0.48021940732E+03  0.50452837996E+03  0.12500000000E+03 0.  0.
         25    1    1    2    0    0  0.72980196613E+02 -0.48007848171E+02 -0.10545805965E+03  0.18541107013E+03  0.12500000000E+03 0.  0.
</event>
<event>
 5    0  0.6904765E-005  0.9725862E+03  0.7546771E-02  0.9339134E-01
         21   -1    0    0  502  501  0.00000000000E+00  0.00000000000E+00  0.20142461885E+04  0.20142461885E+04  0.00000000000E+00 0. -1.
         21   -1    0    0  501  502 -0.00000000000E+00 -0.00000000000E+00 -0.46961684298E+03  0.46961684298E+03  0.00000000000E+00 0. -1.
         25    1    1    2    0    0 -0.21676650813E+03  0.39444926533E+03  0.18691550892E+03  0.50313054911E+03  0.12500000000E+03 0.  0.
         25    1    1    2    0    0  0.57127813118E+03  0.14745645430E+03  0.17738288748E+03  0.62864282215E+03  0.12500000000E+03 0.  0.
         25    1    1    2    0    0 -0.35451162305E+03 -0.54190571963E+03  0.11803309491E+04  0.13520896602E+04  0.12500000000E+03 0.  0.
</event>
<event>
 5    0  0.5597833E-005  0.3799458E+03  0.7546771E-02  0.1050954E+00
         21   -1    0    0  502  501  0.00000000000E+00  0.00000000000E+00  0.19952525717E+03  0.19952525717E+03  0.00000000000E+00 0.  1.
         21   -1    0    0  501  502 -0.00000000000E+00 -0.00000000000E+00 -0.72351132349E+03  0.72351132349E+03  0.00000000000E+00 0.  1.
         25    1    1    2    0    0  0.21712147554E+03 -0.72679766863E+02 -0.45239718544E+03  0.52221862955E+03  0.12500000000E+03 0.  0.
         25    1    1    2    0    0 -0.94914985038E+02  0.13579647569E+03 -0.23723950184E+02  0.20889557920E+03  0.12500000000E+03 0.  0.
         25    1    1    2    0    0 -0.12220649050E+03 -0.63116708830E+02 -0.47864930693E+02  0.19192237192E+03  0.12500000000E+03 0.  0.
</event>
<event>
 5    0  0.5597833E-005  0.2459168E+03  0.7546771E-02  0.1115913E+00
         21   -1    0    0  502  501  0.00000000000E+00  0.00000000000E+00  0.35133920970E+03  0.35133920970E+03  0.00000000000E+00 0. -1.
         21   -1    0    0  501  502 -0.00000000000E+00 -0.00000000000E+00 -0.17212735506E+03  0.17212735506E+03  0.00000000000E+00 0. -1.
         25    1    1    2    0    0  0.17385392120E+02  0.42943315983E+02  0.29831157227E+02  0.13660628898E+03  0.12500000000E+03 0.  0.
         25    1    1    2    0    0  0.72790623032E+02 -0.11442145517E+03  0.10065249317E+03  0.21011108630E+03  0.12500000000E+03 0.  0.
         25    1    1    2    0    0 -0.90176015152E+02  0.71478139190E+02  0.48728204247E+02  0.17674918947E+03  0.12500000000E+03 0.  0.
</event>
<event>
 5    0  0.5597833E-005  0.2345489E+03  0.7546771E-02  0.1123478E+00
         21   -1    0    0  502  501  0.00000000000E+00  0.00000000000E+00  0.17232984988E+03  0.17232984988E+03  0.00000000000E+00 0. -1.
         21   -1    0    0  501  502 -0.00000000000E+00 -0.00000000000E+00 -0.31923184987E+03  0.31923184987E+03  0.00000000000E+00 0. -1.
         25    1    1    2    0    0 -0.73613454290E+02 -0.70211578872E+02 -0.74287299927E+02  0.17746044458E+03  0.12500000000E+03 0.  0.
         25    1    1    2    0    0  0.79453639840E+02  0.56966914079E+02  0.17025272783E+02  0.15960253788E+03  0.12500000000E+03 0.  0.
         25    1    1    2    0    0 -0.58401855501E+01  0.13244664793E+02 -0.89639972853E+02  0.15449871729E+03  0.12500000000E+03 0.  0.
</event>
<event>
 5    0  0.5597833E-005  0.2644113E+03  0.7546771E-02  0.1104521E+00
         21   -1    0    0  502  501  0.00000000000E+00  0.00000000000E+00  0.10513207076E+04  0.10513207076E+04  0.00000000000E+00 0. -1.
         21   -1    0    0  501  502 -0.00000000000E+00 -0.00000000000E+00 -0.66500479139E+02  0.66500479139E+02  0.00000000000E+00 0. -1.
         25    1    1    2    0    0 -0.31387406029E+02  0.10335163913E+03  0.16906027251E+03  0.23637492741E+03  0.12500000000E+03 0.  0.
         25    1    1    2    0    0 -0.45334207965E+02 -0.82788237187E+02  0.59744784984E+03  0.61763906605E+03  0.12500000000E+03 0.  0.
         25    1    1    2    0    0  0.76721613995E+02 -0.20563401940E+02  0.21831210611E+03  0.26380719328E+03  0.12500000000E+03 0.  0.
</event>
<event>
 5    0  0.5597833E-005  0.4724891E+03  0.7546771E-02  0.1021220E+00
         21   -1    0    0  502  501  0.00000000000E+00  0.00000000000E+00  0.26445508637E+03  0.26445508637E+03  0.00000000000E+00 0.  1.
         21   -1    0    0  501  502 -0.00000000000E+00 -0.00000000000E+00 -0.84417326790E+03  0.84417326790E+03  0.00000000000E+00 0.  1.
         25    1    1    2    0    0  0.76004601984E+01  0.16174244969E+03 -0.43818454571E+02  0.20919714144E+03  0.12500000000E+03 0.  0.
         25    1    1    2    0    0 -0.17325190304E+03  0.16274151459E+03 -0.41760142012E+03  0.49650475181E+03  0.12500000000E+03 0.  0.
         25    1    1    2    0    0  0.16565144284E+03 -0.32448396428E+03 -0.11829830684E+03  0.40292646102E+03  0.12500000000E+03 0.  0.
</event>
<event>
 5    0  0.5597833E-005  0.3969252E+03  0.7546771E-02  0.1044850E+00
         21   -1    0    0  502  501  0.00000000000E+00  0.00000000000E+00  0.25948373817E+03  0.25948373817E+03  0.00000000000E+00 0.  1.
         21   -1    0    0  501  502 -0.00000000000E+00 -0.00000000000E+00 -0.60716553374E+03  0.60716553374E+03  0.00000000000E+00 0.  1.
         25    1    1    2    0    0 -0.17916275827E+03 -0.15783726986E+02 -0.45534948728E+02  0.22371153645E+03  0.12500000000E+03 0.  0.
         25    1    1    2    0    0 -0.11053366247E+03  0.84101547662E+02 -0.25583379562E+03  0.31680702619E+03  0.12500000000E+03 0.  0.
         25    1    1    2    0    0  0.28969642074E+03 -0.68317820676E+02 -0.46313051217E+02  0.32613070926E+03  0.12500000000E+03 0.  0.
</event>
<event>
 5    0  0.5597833E-005  0.2781343E+03  0.7546771E-02  0.1096712E+00
         21   -1    0    0  502  501  0.00000000000E+00  0.00000000000E+00  0.33734434422E+03  0.33734434422E+03  0.00000000000E+00 0.  1.
         21   -1    0    0  501  502 -0.00000000000E+00 -0.00000000000E+00 -0.22931675699E+03  0.22931675699E+03  0.00000000000E+00 0.  1.
         25    1    1    2    0    0 -0.42667993297E+02  0.73214027814E+02 -0.54177463135E+02  0.16044017275E+03  0.12500000000E+03 0.  0.
         25    1    1    2    0    0  0.48655173169E+02 -0.16240508107E+03  0.13492168026E+03  0.25014315109E+03  0.12500000000E+03 0.  0.
         25    1    1    2    0    0 -0.59871798720E+01  0.89191053258E+02  0.27283370105E+02  0.15607777737E+03  0.12500000000E+03 0.  0.
</event>
<event>
 5    0  0.5597833E-005  0.3471778E+03  0.7546771E-02  0.1063779E+00
         21   -1    0    0  502  501  0.00000000000E+00  0.00000000000E+00  0.72923489886E+03  0.72923489886E+03  0.00000000000E+00 0.  1.
         21   -1    0    0  501  502 -0.00000000000E+00 -0.00000000000E+00 -0.16528611074E+03  0.16528611074E+03  0.00000000000E+00 0.  1.
         25    1    1    2    0    0 -0.12118339646E+03 -0.31290119076E+02  0.19574836913E+02  0.17796814706E+03  0.12500000000E+03 0.  0.
         25    1    1    2    0    0  0.11676308411E+02  0.18724298701E+03  0.18799970036E+03  0.29353902585E+03  0.12500000000E+03 0.  0.
         25    1    1    2    0    0  0.10950708805E+03 -0.15595286794E+03  0.35637425085E+03  0.42301383668E+03  0.12500000000E+03 0.  0.
</event>
<event>
 5    0  0.5625749E-005  0.3311873E+03  0.7546771E-02  0.1070613E+00
         21   -1    0    0  502  501  0.00000000000E+00  0.00000000000E+00  0.59142161489E+03  0.59142161489E+03  0.00000000000E+00 0.  1.
         21   -1    0    0  501  502 -0.00000000000E+00 -0.00000000000E+00 -0.18546001209E+03  0.18546001209E+03  0.00000000000E+00 0.  1.
         25    1    1    2    0    0  0.14718704475E+03 -0.39572835972E+02  0.29357788552E+03  0.35361421119E+03  0.12500000000E+03 0.  0.
         25    1    1    2    0    0 -0.18238801756E+03 -0.42256515713E+02 -0.12395560607E+02  0.22545432352E+03  0.12500000000E+03 0.  0.
         25    1    1    2    0    0  0.35200972813E+02  0.81829351684E+02  0.12477927789E+03  0.19781309227E+03  0.12500000000E+03 0.  0.
</event>
<event>
 5    0  0.5597833E-005  0.2794299E+03  0.7546771E-02  0.1096001E+00
         21   -1    0    0  502  501  0.00000000000E+00  0.00000000000E+00  0.30079815465E+02  0.30079815465E+02  0.00000000000E+00 0. -1.
         21   -1    0    0  501  502 -0.00000000000E+00 -0.00000000000E+00 -0.25957957689E+04  0.25957957689E+04  0.00000000000E+00 0. -1.
         25    1    1    2    0    0  0.57208969745E+02  0.31408283956E+01 -0.12817170449E+04  0.12890718809E+04  0.12500000000E+03 0.  0.
         25    1    1    2    0    0  0.19611598296E+02  0.12386548489E+03 -0.56660603988E+03  0.59362840023E+03  0.12500000000E+03 0.  0.
         25    1    1    2    0    0 -0.76820568041E+02 -0.12700631329E+03 -0.71739286863E+03  0.74317530318E+03  0.12500000000E+03 0.  0.
</event>
<event>
 5    0  0.5597833E-005  0.2783528E+03  0.7546771E-02  0.1096592E+00
         21   -1    0    0  502  501  0.00000000000E+00  0.00000000000E+00  0.31895855741E+03  0.31895855741E+03  0.00000000000E+00 0.  1.
         21   -1    0    0  501  502 -0.00000000000E+00 -0.00000000000E+00 -0.24291648655E+03  0.24291648655E+03  0.00000000000E+00 0.  1.
         25    1    1    2    0    0 -0.10342207385E+03  0.14944211078E+03  0.56919189236E+00  0.22057741002E+03  0.12500000000E+03 0.  0.
         25    1    1    2    0    0  0.35234791324E+02 -0.77003186365E+01  0.12253519879E+02  0.13067491793E+03  0.12500000000E+03 0.  0.
         25    1    1    2    0    0  0.68187282523E+02 -0.14174179214E+03  0.63219359092E+02  0.21062271601E+03  0.12500000000E+03 0.  0.
</event>
<event>
 5    0  0.5597833E-005  0.3289599E+03  0.7546771E-02  0.1071598E+00
         21   -1    0    0  502  501  0.00000000000E+00  0.00000000000E+00  0.47364701677E+03  0.47364701677E+03  0.00000000000E+00 0. -1.
         21   -1    0    0  501  502 -0.00000000000E+00 -0.00000000000E+00 -0.22847099797E+03  0.22847099797E+03  0.00000000000E+00 0. -1.
         25    1    1    2    0    0  0.16126685360E+03 -0.46409459821E+01 -0.77849119257E+02  0.21843539507E+03  0.12500000000E+03 0.  0.
         25    1    1    2    0    0 -0.65834463740E+02  0.19296212441E+02  0.28878287413E+03  0.32206687011E+03  0.12500000000E+03 0.  0.
         25    1    1    2    0    0 -0.95432389856E+02 -0.14655266459E+02  0.34242263931E+02  0.16161574957E+03  0.12500000000E+03 0.  0.
</event>
<event>
 5    0  0.5597833E-005  0.3116337E+03  0.7546771E-02  0.1079565E+00
         21   -1    0    0  502  501  0.00000000000E+00  0.00000000000E+00  0.74729876784E+03  0.74729876784E+03  0.00000000000E+00 0.  1.
         21   -1    0    0  501  502 -0.00000000000E+00 -0.00000000000E+00 -0.12995549656E+03  0.12995549656E+03  0.00000000000E+00 0.  1.
         25    1    1    2    0    0 -0.16533304638E+03  0.22588072047E+02  0.51468509876E+03  0.55531161352E+03  0.12500000000E+03 0.  0.
         25    1    1    2    0    0  0.10973681305E+03 -0.24150887249E+02  0.50196854354E+02  0.17541424594E+03  0.12500000000E+03 0.  0.
         25    1    1    2    0    0  0.55596233334E+02  0.15628152022E+01  0.52461318166E+02  0.14652840495E+03  0.12500000000E+03 0.  0.
</event>
<event>
 5    0  0.5597833E-005  0.3405736E+03  0.7546771E-02  0.1066552E+00
         21   -1    0    0  502  501  0.00000000000E+00  0.00000000000E+00  0.11185079756E+03  0.11185079756E+03  0.00000000000E+00 0.  1.
         21   -1    0    0  501  502 -0.00000000000E+00 -0.00000000000E+00 -0.10370098839E+04  0.10370098839E+04  0.00000000000E+00 0.  1.
         25    1    1    2    0    0 -0.95955828911E+02  0.49863461889E+02 -0.14085528422E+02  0.16588335674E+03  0.12500000000E+03 0.  0.
         25    1    1    2    0    0  0.24076885128E+02 -0.43982696711E+02 -0.12494632684E+03  0.18371379534E+03  0.12500000000E+03 0.  0.
         25    1    1    2    0    0  0.71878943782E+02 -0.58807651785E+01 -0.78612723109E+03  0.79926352939E+03  0.12500000000E+03 0.  0.
</event>
<event>
 5    0  0.5597833E-005  0.4651440E+03  0.7546771E-02  0.1023300E+00
         21   -1    0    0  502  501  0.00000000000E+00  0.00000000000E+00  0.43670159864E+03  0.43670159864E+03  0.00000000000E+00 0.  1.
         21   -1    0    0  501  502 -0.00000000000E+00 -0.00000000000E+00 -0.49543881917E+03  0.49543881917E+03  0.00000000000E+00 0.  1.
         25    1    1    2    0    0 -0.34805195604E+03 -0.35784097976E+02 -0.16504362519E+03  0.40655265832E+03  0.12500000000E+03 0.  0.
         25    1    1    2    0    0  0.20504377038E+03  0.15919737070E+03  0.64556608161E+02  0.29526142021E+03  0.12500000000E+03 0.  0.
         25    1    1    2    0    0  0.14300818566E+03 -0.12341327273E+03  0.41749796502E+02  0.23032633927E+03  0.12500000000E+03 0.  0.
</event>
<event>
 5    0  0.5597833E-005  0.2884916E+03  0.7546771E-02  0.1091139E+00
         21   -1    0    0  502  501  0.00000000000E+00  0.00000000000E+00  0.35164233601E+03  0.35164233601E+03  0.00000000000E+00 0.  1.
         21   -1    0    0  501  502 -0.00000000000E+00 -0.00000000000E+00 -0.23668197101E+03  0.23668197101E+03  0.00000000000E+00 0.  1.
         25    1    1    2    0    0  0.62670411558E+02  0.13624023453E+02  0.20450530361E+03  0.24811411428E+03  0.12500000000E+03 0.  0.
         25    1    1    2    0    0 -0.31244635500E+02  0.87598861749E+02 -0.82203859061E+02  0.17615976349E+03  0.12500000000E+03 0.  0.
         25    1    1    2    0    0 -0.31425776058E+02 -0.10122288520E+03 -0.73410795489E+01  0.16405042925E+03  0.12500000000E+03 0.  0.
</event>
<event>
 5    0  0.5597833E-005  0.3889934E+03  0.7546771E-02  0.1047659E+00
         21   -1    0    0  502  501  0.00000000000E+00  0.00000000000E+00  0.32628805332E+03  0.32628805332E+03  0.00000000000E+00 0.  1.
         21   -1    0    0  501  502 -0.00000000000E+00 -0.00000000000E+00 -0.46374941540E+03  0.46374941540E+03  0.00000000000E+00 0.  1.
         25    1    1    2    0    0 -0.16766070592E+03 -0.23815570764E+03 -0.10277222484E+03  0.33318971111E+03  0.12500000000E+03 0.  0.
         25    1    1    2    0    0  0.18547979475E+03  0.63271684775E+02  0.22956608266E+02  0.23357668166E+03  0.12500000000E+03 0.  0.
         25    1    1    2    0    0 -0.17819088827E+02  0.17488402287E+03 -0.57645745507E+02  0.22327107595E+03  0.12500000000E+03 0.  0.
</event>
<event>
 5    0  0.5597833E-005  0.4353008E+03  0.7546771E-02  0.1032198E+00
         21   -1    0    0  502  501  0.00000000000E+00  0.00000000000E+00  0.47613190505E+03  0.47613190505E+03  0.00000000000E+00 0.  1.
         21   -1    0    0  501  502 -0.00000000000E+00 -0.00000000000E+00 -0.39797124058E+03  0.39797124058E+03  0.00000000000E+00 0.  1.
         25    1    1    2    0    0 -0.33661375076E+03  0.94559691292E+02 -0.10117602578E+03  0.38485314161E+03  0.12500000000E+03 0.  0.
         25    1    1    2    0    0  0.93298560825E+02  0.12897674565E+02  0.29147710083E+02  0.15920289088E+03  0.12500000000E+03 0.  0.
         25    1    1    2    0    0  0.24331518993E+03 -0.10745736586E+03  0.15018898016E+03  0.33004711314E+03  0.12500000000E+03 0.  0.
</event>
<event>
 5    0  0.5597833E-005  0.2379818E+03  0.7546771E-02  0.1121145E+00
         21   -1    0    0  502  501  0.00000000000E+00  0.00000000000E+00  0.16174290593E+03  0.16174290593E+03  0.00000000000E+00 0.  1.
         21   -1    0    0  501  502 -0.00000000000E+00 -0.00000000000E+00 -0.35015662382E+03  0.35015662382E+03  0.00000000000E+00 0.  1.
         25    1    1    2    0    0 -0.70742903390E+02 -0.11028754144E+03 -0.39763578461E+02  0.18540237957E+03  0.12500000000E+03 0.  0.
         25    1    1    2    0    0  0.17984972071E+02  0.30584464088E+02 -0.92183417994E+02  0.15931619885E+03  0.12500000000E+03 0.  0.
         25    1    1    2    0    0  0.52757931320E+02  0.79703077354E+02 -0.56466721434E+02  0.16718095133E+03  0.12500000000E+03 0.  0.
</event>
<event>
 5    0  0.5597833E-005  0.2910758E+03  0.7546771E-02  0.1089789E+00
         21   -1    0    0  502  501  0.00000000000E+00  0.00000000000E+00  0.49666371472E+03  0.49666371472E+03  0.00000000000E+00 0.  1.
         21   -1    0    0  501  502 -0.00000000000E+00 -0.00000000000E+00 -0.17058850315E+03  0.17058850315E+03  0.00000000000E+00 0.  1.
         25    1    1    2    0    0  0.64930049330E+02 -0.61599837241E+02  0.10221513197E+03  0.18461685854E+03  0.12500000000E+03 0.  0.
         25    1    1    2    0    0 -0.31719828238E+02  0.99108559190E+02  0.29008240877E+03  0.33256797484E+03  0.12500000000E+03 0.  0.
         25    1    1    2    0    0 -0.33210221092E+02 -0.37508721949E+02 -0.66222329173E+02  0.15006738449E+03  0.12500000000E+03 0.  0.
</event>
<event>
 5    0  0.5597833E-005  0.3928732E+03  0.7546771E-02  0.1046276E+00
         21   -1    0    0  502  501  0.00000000000E+00  0.00000000000E+00  0.42607624495E+03  0.42607624495E+03  0.00000000000E+00 0.  1.
         21   -1    0    0  501  502 -0.00000000000E+00 -0.00000000000E+00 -0.36225760531E+03  0.36225760531E+03  0.00000000000E+00 0.  1.
         25    1    1    2    0    0 -0.21654466452E+03  0.77681145447E+02 -0.47817727888E+02  0.26615312734E+03  0.12500000000E+03 0.  0.
         25    1    1    2    0    0  0.26808616227E+03  0.37042567900E+02 -0.23797078300E+02  0.29905458226E+03  0.12500000000E+03 0.  0.
         25    1    1    2    0    0 -0.51541497743E+02 -0.11472371335E+03  0.13543344583E+03  0.22312614065E+03  0.12500000000E+03 0.  0.
</event>
<event>
 5    0  0.5597833E-005  0.3517628E+03  0.7546771E-02  0.1061894E+00
         21   -1    0    0  502  501  0.00000000000E+00  0.00000000000E+00  0.33688417510E+03  0.33688417510E+03  0.00000000000E+00 0.  1.
         21   -1    0    0  501  502 -0.00000000000E+00 -0.00000000000E+00 -0.36729853135E+03  0.36729853135E+03  0.00000000000E+00 0.  1.
         25    1    1    2    0    0  0.80066862765E+02  0.48917002661E+02 -0.59316660125E+02  0.16717368762E+03  0.12500000000E+03 0.  0.
         25    1    1    2    0    0 -0.18347350179E+03 -0.53744845032E+02  0.19824326877E+03  0.30245070316E+03  0.12500000000E+03 0.  0.
         25    1    1    2    0    0  0.10340663903E+03  0.48278423715E+01 -0.16934096490E+03  0.23455831567E+03  0.12500000000E+03 0.  0.
</event>
<event>
 5    0  0.5597833E-005  0.2163333E+03  0.7546771E-02  0.1136647E+00
         21   -1    0    0  502  501  0.00000000000E+00  0.00000000000E+00  0.29861478906E+03  0.29861478906E+03  0.00000000000E+00 0.  1.
         21   -1    0    0  501  502 -0.00000000000E+00 -0.00000000000E+00 -0.15672394995E+03  0.15672394995E+03  0.00000000000E+00 0.  1.
         25    1    1    2    0    0  0.44218720663E+02  0.44752328661E+02  0.50762767453E+02  0.14886209973E+03  0.12500000000E+03 0.  0.
         25    1    1    2    0    0  0.10941745212E+02 -0.71391390731E+02  0.85393659592E+01  0.14461802526E+03  0.12500000000E+03 0.  0.
         25    1    1    2    0    0 -0.55160465875E+02  0.26639062070E+02  0.82588705702E+02  0.16185861402E+03  0.12500000000E+03 0.  0.
</event>
<event>
 5    0  0.5597833E-005  0.3988916E+03  0.7546771E-02  0.1044164E+00
         21   -1    0    0  502  501  0.00000000000E+00  0.00000000000E+00  0.30469087754E+03  0.30469087754E+03  0.00000000000E+00 0.  1.
         21   -1    0    0  501  502 -0.00000000000E+00 -0.00000000000E+00 -0.52221621261E+03  0.52221621261E+03  0.00000000000E+00 0.  1.
         25    1    1    2    0    0  0.16378935935E+03 -0.18869202888E+03 -0.32282566643E+03  0.42693447612E+03  0.12500000000E+03 0.  0.
         25    1    1    2    0    0 -0.65521969239E+02  0.17684342666E+03  0.67510571560E+02  0.23611311543E+03  0.12500000000E+03 0.  0.
         25    1    1    2    0    0 -0.98267390110E+02  0.11848602225E+02  0.37789759793E+02  0.16385949859E+03  0.12500000000E+03 0.  0.
</event>
<event>
 5    0  0.5597833E-005  0.2489188E+03  0.7546771E-02  0.1113990E+00
         21   -1    0    0  502  501  0.00000000000E+00  0.00000000000E+00  0.55933738429E+02  0.55933738429E+02  0.00000000000E+00 0. -1.
         21   -1    0    0  501  502 -0.00000000000E+00 -0.00000000000E+00 -0.11077491158E+04  0.11077491158E+04  0.00000000000E+00 0. -1.
         25    1    1    2    0    0 -0.99525904410E+01  0.49811372350E+02 -0.21082277338E+03  0.25030275398E+03  0.12500000000E+03 0.  0.
         25    1    1    2    0    0 -0.38908257391E+02 -0.65988655347E+02 -0.15173109649E+03  0.21098739481E+03  0.12500000000E+03 0.  0.
         25    1    1    2    0    0  0.48860847832E+02  0.16177282997E+02 -0.68926150748E+03  0.70239270542E+03  0.12500000000E+03 0.  0.
</event>
<event>
 5    0  0.5597833E-005  0.3560732E+03  0.7546771E-02  0.1060150E+00
         21   -1    0    0  502  501  0.00000000000E+00  0.00000000000E+00  0.13652630600E+03  0.13652630600E+03  0.00000000000E+00 0. -1.
         21   -1    0    0  501  502 -0.00000000000E+00 -0.00000000000E+00 -0.92867170042E+03  0.92867170042E+03  0.00000000000E+00 0. -1.
         25    1    1    2    0    0 -0.15376938963E+03  0.50633497940E+01 -0.63137480401E+03  0.66176265068E+03  0.12500000000E+03 0.  0.
         25    1    1    2    0    0  0.11617296913E+03 -0.82675144703E+02 -0.10684898361E+02  0.18992236667E+03  0.12500000000E+03 0.  0.
         25    1    1    2    0    0  0.37596420504E+02  0.77611794909E+02 -0.15008569204E+03  0.21351298907E+03  0.12500000000E+03 0.  0.
</event>
<event>
 5    0  0.5597833E-005  0.2415303E+03  0.7546771E-02  0.1118778E+00
         21   -1    0    0  502  501  0.00000000000E+00  0.00000000000E+00  0.15634191694E+04  0.15634191694E+04  0.00000000000E+00 0.  1.
         21   -1    0    0  501  502 -0.00000000000E+00 -0.00000000000E+00 -0.37313645089E+02  0.37313645089E+02  0.00000000000E+00 0.  1.
         25    1    1    2    0    0 -0.43742546117E+02  0.75088740096E+02  0.54813717327E+03  0.56888583208E+03  0.12500000000E+03 0.  0.
         25    1    1    2    0    0  0.26899200155E+02  0.27802246640E+02  0.67848219904E+03  0.69098453405E+03  0.12500000000E+03 0.  0.
         25    1    1    2    0    0  0.16843345962E+02 -0.10289098674E+03  0.29948615203E+03  0.34086244838E+03  0.12500000000E+03 0.  0.
</event>
<event>
 5    0  0.5597833E-005  0.4575649E+03  0.7546771E-02  0.1025490E+00
         21   -1    0    0  502  501  0.00000000000E+00  0.00000000000E+00  0.23652118802E+04  0.23652118802E+04  0.00000000000E+00 0.  1.
         21   -1    0    0  501  502 -0.00000000000E+00 -0.00000000000E+00 -0.88518759179E+02  0.88518759179E+02  0.00000000000E+00 0.  1.
         25    1    1    2    0    0  0.16859748478E+01  0.10473720036E+03  0.82140057741E+03  0.83743455399E+03  0.12500000000E+03 0.  0.
         25    1    1    2    0    0  0.88980043456E+02  0.53477459357E+02  0.19582215886E+02  0.16366352670E+03  0.12500000000E+03 0.  0.
         25    1    1    2    0    0 -0.90666018304E+02 -0.15821465972E+03  0.14357103278E+04  0.14526325587E+04  0.12500000000E+03 0.  0.
</event>
<event>
 5    0  0.5597833E-005  0.4089102E+03  0.7546771E-02  0.1040737E+00
         21   -1    0    0  502  501  0.00000000000E+00  0.00000000000E+00  0.32607870489E+03  0.32607870489E+03  0.00000000000E+00 0. -1.
         21   -1    0    0  501  502 -0.00000000000E+00 -0.00000000000E+00 -0.51278287415E+03  0.51278287415E+03  0.00000000000E+00 0. -1.
         25    1    1    2    0    0 -0.20022914948E+02 -0.79154138890E+02  0.10037664974E+03  0.17990766142E+03  0.12500000000E+03 0.  0.
         25    1    1    2    0    0 -0.73273806150E+02 -0.17388627177E+03 -0.28207686079E+03  0.36165984235E+03  0.12500000000E+03 0.  0.
         25    1    1    2    0    0  0.93296721097E+02  0.25304041066E+03 -0.50039582126E+01  0.29729407527E+03  0.12500000000E+03 0.  0.
</event>
<event>
 5    0  0.5597833E-005  0.6065740E+03  0.7546771E-02  0.9891860E-01
         21   -1    0    0  502  501  0.00000000000E+00  0.00000000000E+00  0.19378322431E+04  0.19378322431E+04  0.00000000000E+00 0. -1.
         21   -1    0    0  501  502 -0.00000000000E+00 -0.00000000000E+00 -0.18986786667E+03  0.18986786667E+03  0.00000000000E+00 0. -1.
         25    1    1    2    0    0  0.23025259744E+03  0.17926654291E+03  0.92395101703E+02  0.33062759542E+03  0.12500000000E+03 0.  0.
         25    1    1    2    0    0 -0.93192881240E+01 -0.23421393179E+03  0.14256953783E+04  0.14502328526E+04  0.12500000000E+03 0.  0.
         25    1    1    2    0    0 -0.22093330932E+03  0.54947388885E+02  0.22987389642E+03  0.34683966176E+03  0.12500000000E+03 0.  0.
</event>
<event>
 5    0  0.5597833E-005  0.4634283E+03  0.7546771E-02  0.1023792E+00
         21   -1    0    0  502  501  0.00000000000E+00  0.00000000000E+00  0.14443761044E+04  0.14443761044E+04  0.00000000000E+00 0. -1.
         21   -1    0    0  501  502 -0.00000000000E+00 -0.00000000000E+00 -0.14869103393E+03  0.14869103393E+03  0.00000000000E+00 0. -1.
         25    1    1    2    0    0  0.25239973498E+03  0.97360929681E+02  0.34012078345E+03  0.45220783295E+03  0.12500000000E+03 0.  0.
         25    1    1    2    0    0 -0.11057770062E+03  0.20131336806E+03  0.49993838832E+03  0.56419667861E+03  0.12500000000E+03 0.  0.
         25    1    1    2    0    0 -0.14182203436E+03 -0.29867429774E+03  0.45562589872E+03  0.57666262680E+03  0.12500000000E+03 0.  0.
</event>
<event>
 5    0  0.5597833E-005  0.2418220E+03  0.7546771E-02  0.1118585E+00
         21   -1    0    0  502  501  0.00000000000E+00  0.00000000000E+00  0.63523163279E+03  0.63523163279E+03  0.00000000000E+00 0.  1.
         21   -1    0    0  501  502 -0.00000000000E+00 -0.00000000000E+00 -0.92057567862E+02  0.92057567862E+02  0.00000000000E+00 0.  1.
         25    1    1    2    0    0 -0.78060457868E+02  0.11141115347E+03  0.16874801880E+03  0.25021345697E+03  0.12500000000E+03 0.  0.
         25    1    1    2    0    0  0.74344619617E+02 -0.82086560985E+02  0.22018624199E+03  0.27635540002E+03  0.12500000000E+03 0.  0.
         25    1    1    2    0    0  0.37158382510E+01 -0.29324592486E+02  0.15423980415E+03  0.20072034367E+03  0.12500000000E+03 0.  0.
</event>
<event>
 5    0  0.5597833E-005  0.3900303E+03  0.7546771E-02  0.1047288E+00
         21   -1    0    0  502  501  0.00000000000E+00  0.00000000000E+00  0.25393592248E+03  0.25393592248E+03  0.00000000000E+00 0. -1.
         21   -1    0    0  501  502 -0.00000000000E+00 -0.00000000000E+00 -0.59906297890E+03  0.59906297890E+03  0.00000000000E+00 0. -1.
         25    1    1    2    0    0  0.48999693953E+02 -0.17013480683E+02 -0.38005343298E+02  0.14056967899E+03  0.12500000000E+03 0.  0.
         25    1    1    2    0    0  0.18150670110E+03  0.17954024255E+03 -0.10492216730E+02  0.28445468505E+03  0.12500000000E+03 0.  0.
         25    1    1    2    0    0 -0.23050639505E+03 -0.16252676186E+03 -0.29662949640E+03  0.42797453734E+03  0.12500000000E+03 0.  0.
</event>
<event>
 5    0  0.5597833E-005  0.2988582E+03  0.7546771E-02  0.1085813E+00
         21   -1    0    0  502  501  0.00000000000E+00  0.00000000000E+00  0.10343571329E+03  0.10343571329E+03  0.00000000000E+00 0.  1.
         21   -1    0    0  501  502 -0.00000000000E+00 -0.00000000000E+00 -0.86349526794E+03  0.86349526794E+03  0.00000000000E+00 0.  1.
         25    1    1    2    0    0 -0.31082505365E+02  0.15080289222E+03 -0.84272178967E+02  0.21548650675E+03  0.12500000000E+03 0.  0.
         25    1    1    2    0    0 -0.10289185707E+02 -0.79151827839E+02 -0.49421954093E+03  0.51599305599E+03  0.12500000000E+03 0.  0.
         25    1    1    2    0    0  0.41371691071E+02 -0.71651064385E+02 -0.18156783476E+03  0.23545141849E+03  0.12500000000E+03 0.  0.
</event>
<event>
 5    0  0.5597833E-005  0.2908387E+03  0.7546771E-02  0.1089912E+00
         21   -1    0    0  502  501  0.00000000000E+00  0.00000000000E+00  0.16326256830E+03  0.16326256830E+03  0.00000000000E+00 0.  1.
         21   -1    0    0  501  502 -0.00000000000E+00 -0.00000000000E+00 -0.51810480282E+03  0.51810480282E+03  0.00000000000E+00 0.  1.
         25    1    1    2    0    0 -0.44597099032E+02  0.11526142979E+03 -0.49542859849E+01  0.17585119672E+03  0.12500000000E+03 0.  0.
         25    1    1    2    0    0  0.88231122947E+02 -0.30573147187E+02 -0.44809295126E+02  0.16233398078E+03  0.12500000000E+03 0.  0.
         25    1    1    2    0    0 -0.43634023915E+02 -0.84688282601E+02 -0.30507865341E+03  0.34318219362E+03  0.12500000000E+03 0.  0.
</event>
<event>
 5    0  0.5597833E-005  0.2341881E+03  0.7546771E-02  0.1123726E+00
         21   -1    0    0  502  501  0.00000000000E+00  0.00000000000E+00  0.57384625995E+03  0.57384625995E+03  0.00000000000E+00 0. -1.
         21   -1    0    0  501  502 -0.00000000000E+00 -0.00000000000E+00 -0.95572746946E+02  0.95572746946E+02  0.00000000000E+00 0. -1.
         25    1    1    2    0    0 -0.62292713653E+02 -0.82327109748E+02  0.10391251720E+03  0.19256413582E+03  0.12500000000E+03 0.  0.
         25    1    1    2    0    0  0.63540373132E+02  0.94379545360E+02  0.19773707492E+03  0.26013425072E+03  0.12500000000E+03 0.  0.
         25    1    1    2    0    0 -0.12476594786E+01 -0.12052435612E+02  0.17662392088E+03  0.21672062035E+03  0.12500000000E+03 0.  0.
</event>
<event>
 5    0  0.5597833E-005  0.2347733E+03  0.7546771E-02  0.1123324E+00
         21   -1    0    0  502  501  0.00000000000E+00  0.00000000000E+00  0.19497261553E+03  0.19497261553E+03  0.00000000000E+00 0.  1.
         21   -1    0    0  501  502 -0.00000000000E+00 -0.00000000000E+00 -0.28269874576E+03  0.28269874576E+03  0.00000000000E+00 0.  1.
         25    1    1    2    0    0  0.22917262530E+02 -0.93991725923E+02 -0.20487917900E+02  0.15938757870E+03  0.12500000000E+03 0.  0.
         25    1    1    2    0    0 -0.30678759850E+02  0.45473165230E+02 -0.11214496063E+03  0.17666490103E+03  0.12500000000E+03 0.  0.
         25    1    1    2    0    0  0.77614973203E+01  0.48518560693E+02  0.44906748293E+02  0.14161888156E+03  0.12500000000E+03 0.  0.
</event>
<event>
 5    0  0.5597833E-005  0.5068439E+03  0.7546771E-02  0.1012008E+00
         21   -1    0    0  502  501  0.00000000000E+00  0.00000000000E+00  0.21317020680E+03  0.21317020680E+03  0.00000000000E+00 0.  1.
         21   -1    0    0  501  502 -0.00000000000E+00 -0.00000000000E+00 -0.12050966609E+04  0.12050966609E+04  0.00000000000E+00 0.  1.
         25    1    1    2    0    0  0.81047177995E+02  0.36481116879E+02 -0.66714143282E+03  0.68454525660E+03  0.12500000000E+03 0.  0.
         25    1    1    2    0    0  0.14951776431E+03 -0.19901340488E+03 -0.32119756224E+03  0.42515264453E+03  0.12500000000E+03 0.  0.
         25    1    1    2    0    0 -0.23056494230E+03  0.16253228800E+03 -0.35874590411E+01  0.30856896656E+03  0.12500000000E+03 0.  0.
</event>
<event>
 5    0  0.5597833E-005  0.3706640E+03  0.7546771E-02  0.1054439E+00
         21   -1    0    0  502  501  0.00000000000E+00  0.00000000000E+00  0.28096965190E+03  0.28096965190E+03  0.00000000000E+00 0. -1.
         21   -1    0    0  501  502 -0.00000000000E+00 -0.00000000000E+00 -0.48899155328E+03  0.48899155328E+03  0.00000000000E+00 0. -1.
         25    1    1    2    0    0 -0.41361393426E+02 -0.61965772632E+02 -0.51434516195E+02  0.15434063399E+03  0.12500000000E+03 0.  0.
         25    1    1    2    0    0 -0.20360739756E+03  0.10144742081E+03 -0.20855126867E+03  0.33296573877E+03  0.12500000000E+03 0.  0.
         25    1    1    2    0    0  0.24496879099E+03 -0.39481648178E+02  0.51963883482E+02  0.28265483242E+03  0.12500000000E+03 0.  0.
</event>
<event>
 5    0  0.5597833E-005  0.3651558E+03  0.7546771E-02  0.1056561E+00
         21   -1    0    0  502  501  0.00000000000E+00  0.00000000000E+00  0.28267391990E+04  0.28267391990E+04  0.00000000000E+00 0.  1.
         21   -1    0    0  501  502 -0.00000000000E+00 -0.00000000000E+00 -0.47170512608E+02  0.47170512608E+02  0.00000000000E+00 0.  1.
         25    1    1    2    0    0 -0.49725118648E+02  0.20337649544E+03  0.83426074436E+03  0.86916659848E+03  0.12500000000E+03 0.  0.
         25    1    1    2    0    0  0.44740567431E+01 -0.28197563238E+03  0.15488154827E+04  0.15792354713E+04  0.12500000000E+03 0.  0.
         25    1    1    2    0    0  0.45251061905E+02  0.78599136933E+02  0.39649245932E+03  0.42550764180E+03  0.12500000000E+03 0.  0.
</event>
<event>
 5    0  0.5597833E-005  0.4756939E+03  0.7546771E-02  0.1020325E+00
         21   -1    0    0  502  501  0.00000000000E+00  0.00000000000E+00  0.42418791889E+03  0.42418791889E+03  0.00000000000E+00 0.  1.
         21   -1    0    0  501  502 -0.00000000000E+00 -0.00000000000E+00 -0.53345386780E+03  0.53345386780E+03  0.00000000000E+00 0.  1.
         25    1    1    2    0    0 -0.13394651765E+03  0.19356881007E+03  0.12944032432E+03  0.29629436610E+03  0.12500000000E+03 0.  0.
         25    1    1    2    0    0  0.78615650803E+02 -0.35942820738E+03 -0.86808993934E+02  0.39815808197E+03  0.12500000000E+03 0.  0.
         25    1    1    2    0    0  0.55330866843E+02  0.16585939731E+03 -0.15189727930E+03  0.26318933861E+03  0.12500000000E+03 0.  0.
</event>
<event>
 5    0  0.5597833E-005  0.4237644E+03  0.7546771E-02  0.1035848E+00
         21   -1    0    0  502  501  0.00000000000E+00  0.00000000000E+00  0.12580488658E+04  0.12580488658E+04  0.00000000000E+00 0.  1.
         21   -1    0    0  501  502 -0.00000000000E+00 -0.00000000000E+00 -0.14274186250E+03  0.14274186250E+03  0.00000000000E+00 0.  1.
         25    1    1    2    0    0  0.26060321233E+03 -0.13901703184E+03  0.38176715702E+03  0.49860899670E+03  0.12500000000E+03 0.  0.
         25    1    1    2    0    0  0.32348270861E+02 -0.39778320529E+02  0.33690346790E+03  0.36298439649E+03  0.12500000000E+03 0.  0.
         25    1    1    2    0    0 -0.29295148319E+03  0.17879535236E+03  0.39663637836E+03  0.53919733509E+03  0.12500000000E+03 0.  0.
</event>
<event>
 5    0  0.5597833E-005  0.3051892E+03  0.7546771E-02  0.1082675E+00
         21   -1    0    0  502  501  0.00000000000E+00  0.00000000000E+00  0.43354380473E+03  0.43354380473E+03  0.00000000000E+00 0.  1.
         21   -1    0    0  501  502 -0.00000000000E+00 -0.00000000000E+00 -0.21483512491E+03  0.21483512491E+03  0.00000000000E+00 0.  1.
         25    1    1    2    0    0 -0.79948964883E+02  0.84457962795E+02  0.86175068558E+02  0.19124886119E+03  0.12500000000E+03 0.  0.
         25    1    1    2    0    0  0.15784977885E+03 -0.11304271648E+03 -0.33522954246E+02  0.23333237429E+03  0.12500000000E+03 0.  0.
         25    1    1    2    0    0 -0.77900813965E+02  0.28584753684E+02  0.16605656551E+03  0.22379769416E+03  0.12500000000E+03 0.  0.
</event>
<event>
 5    0  0.5597833E-005  0.3139546E+03  0.7546771E-02  0.1078466E+00
         21   -1    0    0  502  501  0.00000000000E+00  0.00000000000E+00  0.94605826350E+03  0.94605826350E+03  0.00000000000E+00 0. -1.
         21   -1    0    0  501  502 -0.00000000000E+00 -0.00000000000E+00 -0.10418757803E+03  0.10418757803E+03  0.00000000000E+00 0. -1.
         25    1    1    2    0    0 -0.64149042888E+02 -0.68269032200E+02  0.15172153154E+03  0.21776175880E+03  0.12500000000E+03 0.  0.
         25    1    1    2    0    0 -0.12860583081E+03  0.13508695702E+03  0.37024253828E+03  0.43300402172E+03  0.12500000000E+03 0.  0.
         25    1    1    2    0    0  0.19275487370E+03 -0.66817924819E+02  0.31990661565E+03  0.39948006101E+03  0.12500000000E+03 0.  0.
</event>
<event>
 5    0  0.5597833E-005  0.5122504E+03  0.7546771E-02  0.1010630E+00
         21   -1    0    0  502  501  0.00000000000E+00  0.00000000000E+00  0.34218554902E+03  0.34218554902E+03  0.00000000000E+00 0.  1.
         21   -1    0    0  501  502 -0.00000000000E+00 -0.00000000000E+00 -0.76683694658E+03  0.76683694658E+03  0.00000000000E+00 0. -1.
         25    1    1    2    0    0  0.28922562023E+02 -0.36018768743E+03 -0.18076973872E+03  0.42293543622E+03  0.12500000000E+03 0.  0.
         25    1    1    2    0    0 -0.10091879616E+03  0.25083074950E+02  0.94855413306E+02  0.18824535453E+03  0.12500000000E+03 0.  0.
         25    1    1    2    0    0  0.71996234138E+02  0.33510461248E+03 -0.33873707214E+03  0.49784170484E+03  0.12500000000E+03 0.  0.
</event>
<event>
 5    0  0.5597833E-005  0.2582339E+03  0.7546771E-02  0.1108209E+00
         21   -1    0    0  502  501  0.00000000000E+00  0.00000000000E+00  0.10145564038E+04  0.10145564038E+04  0.00000000000E+00 0.  1.
         21   -1    0    0  501  502 -0.00000000000E+00 -0.00000000000E+00 -0.65727972429E+02  0.65727972429E+02  0.00000000000E+00 0.  1.
         25    1    1    2    0    0  0.46990071616E+02  0.82873161890E+02  0.28596553320E+03  0.32630861767E+03  0.12500000000E+03 0.  0.
         25    1    1    2    0    0 -0.14086705840E+03 -0.18826166903E+02  0.37938482714E+03  0.42397617830E+03  0.12500000000E+03 0.  0.
         25    1    1    2    0    0  0.93876986782E+02 -0.64046994987E+02  0.28347807107E+03  0.32999958029E+03  0.12500000000E+03 0.  0.
</event>
<event>
 5    0  0.5597833E-005  0.3176392E+03  0.7546771E-02  0.1076741E+00
         21   -1    0    0  502  501  0.00000000000E+00  0.00000000000E+00  0.32348385826E+03  0.32348385826E+03  0.00000000000E+00 0.  1.
         21   -1    0    0  501  502 -0.00000000000E+00 -0.00000000000E+00 -0.31190013900E+03  0.31190013900E+03  0.00000000000E+00 0.  1.
         25    1    1    2    0    0 -0.90866054935E+02 -0.17366052097E+02  0.13529264669E+03  0.20612452535E+03  0.12500000000E+03 0.  0.
         25    1    1    2    0    0  0.16813018666E+03 -0.68585946333E+02 -0.28260275143E+01  0.22046491361E+03  0.12500000000E+03 0.  0.
         25    1    1    2    0    0 -0.77264131726E+02  0.85951998430E+02 -0.12088289991E+03  0.20879455830E+03  0.12500000000E+03 0.  0.
</event>
<event>
 5    0  0.6508276E-005  0.2881857E+03  0.7546771E-02  0.1091300E+00
         21   -1    0    0  502  501  0.00000000000E+00  0.00000000000E+00  0.61655543024E+03  0.61655543024E+03  0.00000000000E+00 0. -1.
         21   -1    0    0  501  502 -0.00000000000E+00 -0.00000000000E+00 -0.13470163189E+03  0.13470163189E+03  0.00000000000E+00 0. -1.
         25    1    1    2    0    0 -0.65791026188E+02  0.70633708768E+02  0.48824527786E+02  0.16530703087E+03  0.12500000000E+03 0.  0.
         25    1    1    2    0    0 -0.19067720877E+02 -0.39275225986E+02  0.67206775832E+01  0.13257559678E+03  0.12500000000E+03 0.  0.
         25    1    1    2    0    0  0.84858747064E+02 -0.31358482782E+02  0.42630859298E+03  0.45337443448E+03  0.12500000000E+03 0.  0.
</event>
<event>
 5    0  0.6030002E-005  0.3959724E+03  0.7546771E-02  0.1045183E+00
         21   -1    0    0  502  501  0.00000000000E+00  0.00000000000E+00  0.19965415577E+03  0.19965415577E+03  0.00000000000E+00 0. -1.
         21   -1    0    0  501  502 -0.00000000000E+00 -0.00000000000E+00 -0.78532867691E+03  0.78532867691E+03  0.00000000000E+00 0. -1.
         25    1    1    2    0    0  0.19419975130E+03  0.68261265763E+02 -0.21212646308E+03  0.32092955637E+03  0.12500000000E+03 0.  0.
         25    1    1    2    0    0 -0.12200567692E+03  0.13347881830E+03 -0.51164537137E+01  0.21989351567E+03  0.12500000000E+03 0.  0.
         25    1    1    2    0    0 -0.72194074390E+02 -0.20174008406E+03 -0.36843160435E+03  0.44415976064E+03  0.12500000000E+03 0.  0.
</event>
<event>
 5    0  0.5597833E-005  0.4774051E+03  0.7546771E-02  0.1019851E+00
         21   -1    0    0  502  501  0.00000000000E+00  0.00000000000E+00  0.10868208013E+04  0.10868208013E+04  0.00000000000E+00 0.  1.
         21   -1    0    0  501  502 -0.00000000000E+00 -0.00000000000E+00 -0.20970855871E+03  0.20970855871E+03  0.00000000000E+00 0. -1.
         25    1    1    2    0    0 -0.12810248058E+03 -0.29740401776E+02 -0.84744123673E+02  0.20025309867E+03  0.12500000000E+03 0.  0.
         25    1    1    2    0    0 -0.52388702123E+02  0.12198508458E+03  0.11270723318E+03  0.21436617593E+03  0.12500000000E+03 0.  0.
         25    1    1    2    0    0  0.18049118271E+03 -0.92244682804E+02  0.84914913312E+03  0.88191008545E+03  0.12500000000E+03 0.  0.
</event>
<event>
 5    0  0.5597833E-005  0.3087236E+03  0.7546771E-02  0.1080959E+00
         21   -1    0    0  502  501  0.00000000000E+00  0.00000000000E+00  0.14283436981E+03  0.14283436981E+03  0.00000000000E+00 0.  1.
         21   -1    0    0  501  502 -0.00000000000E+00 -0.00000000000E+00 -0.66727811691E+03  0.66727811691E+03  0.00000000000E+00 0.  1.
         25    1    1    2    0    0 -0.16453310473E+03  0.25229272124E+02 -0.50757355295E+02  0.21426378098E+03  0.12500000000E+03 0.  0.
         25    1    1    2    0    0  0.10099817048E+03  0.24625211327E+02 -0.93441843096E+02  0.18751909107E+03  0.12500000000E+03 0.  0.
         25    1    1    2    0    0  0.63534934249E+02 -0.49854483451E+02 -0.38024454871E+03  0.40832961467E+03  0.12500000000E+03 0.  0.
</event>
<event>
 5    0  0.5597833E-005  0.3626565E+03  0.7546771E-02  0.1057537E+00
         21   -1    0    0  502  501  0.00000000000E+00  0.00000000000E+00  0.12296381194E+04  0.12296381194E+04  0.00000000000E+00 0. -1.
         21   -1    0    0  501  502 -0.00000000000E+00 -0.00000000000E+00 -0.10695805539E+03  0.10695805539E+03  0.00000000000E+00 0. -1.
         25    1    1    2    0    0 -0.41101666509E+02  0.29997823407E+02  0.73436666894E+03  0.74666499908E+03  0.12500000000E+03 0.  0.
         25    1    1    2    0    0  0.49415858057E+02  0.15582553960E+03  0.11244387748E+03  0.23450405413E+03  0.12500000000E+03 0.  0.
         25    1    1    2    0    0 -0.83141915479E+01 -0.18582336301E+03  0.27586951756E+03  0.35542712156E+03  0.12500000000E+03 0.  0.
</event>
<event>
 5    0  0.5597833E-005  0.2741850E+03  0.7546771E-02  0.1098908E+00
         21   -1    0    0  502  501  0.00000000000E+00  0.00000000000E+00  0.15877120873E+03  0.15877120873E+03  0.00000000000E+00 0.  1.
         21   -1    0    0  501  502 -0.00000000000E+00 -0.00000000000E+00 -0.47349517189E+03  0.47349517189E+03  0.00000000000E+00 0.  1.
         25    1    1    2    0    0  0.12731563862E+03  0.98195438776E+02 -0.14766025442E+03  0.25155549442E+03  0.12500000000E+03 0.  0.
         25    1    1    2    0    0 -0.20107417195E+02 -0.55911691445E+02 -0.15857617373E+03  0.21047999511E+03  0.12500000000E+03 0.  0.
         25    1    1    2    0    0 -0.10720822143E+03 -0.42283747331E+02 -0.84875350075E+01  0.17023089109E+03  0.12500000000E+03 0.  0.
</event>
<event>
 5    0  0.5597833E-005  0.2560606E+03  0.7546771E-02  0.1109533E+00
         21   -1    0    0  502  501  0.00000000000E+00  0.00000000000E+00  0.13475789523E+03  0.13475789523E+03  0.00000000000E+00 0.  1.
         21   -1    0    0  501  502 -0.00000000000E+00 -0.00000000000E+00 -0.48655434527E+03  0.48655434527E+03  0.00000000000E+00 0.  1.
         25    1    1    2    0    0 -0.63461928116E+02 -0.54871873030E+02 -0.13531769140E+03  0.20242088918E+03  0.12500000000E+03 0.  0.
         25    1    1    2    0    0  0.72478955634E+01  0.81386542973E+02 -0.23462323468E+03  0.27811753562E+03  0.12500000000E+03 0.  0.
         25    1    1    2    0    0  0.56214032552E+02 -0.26514669944E+02  0.18144476040E+02  0.14077381571E+03  0.12500000000E+03 0.  0.
</event>
<event>
 5    0  0.5597833E-005  0.4247528E+03  0.7546771E-02  0.1035530E+00
         21   -1    0    0  502  501  0.00000000000E+00  0.00000000000E+00  0.47601650446E+03  0.47601650446E+03  0.00000000000E+00 0.  1.
         21   -1    0    0  501  502 -0.00000000000E+00 -0.00000000000E+00 -0.37900986554E+03  0.37900986554E+03  0.00000000000E+00 0.  1.
         25    1    1    2    0    0 -0.55452180910E+02 -0.99741628725E+02  0.10842077778E+03  0.20100597484E+03  0.12500000000E+03 0.  0.
         25    1    1    2    0    0  0.27353153128E+03 -0.10377938047E+03 -0.68919270012E+02  0.32552192583E+03  0.12500000000E+03 0.  0.
         25    1    1    2    0    0 -0.21807935037E+03  0.20352100920E+03  0.57505131163E+02  0.32849846933E+03  0.12500000000E+03 0.  0.
</event>
<event>
 5    0  0.5597833E-005  0.3283874E+03  0.7546771E-02  0.1071853E+00
         21   -1    0    0  502  501  0.00000000000E+00  0.00000000000E+00  0.17862475325E+03  0.17862475325E+03  0.00000000000E+00 0.  1.
         21   -1    0    0  501  502 -0.00000000000E+00 -0.00000000000E+00 -0.60371403465E+03  0.60371403465E+03  0.00000000000E+00 0.  1.
         25    1    1    2    0    0  0.33688740318E+02  0.95167480660E+02 -0.22311874229E+03  0.27495227542E+03  0.12500000000E+03 0.  0.
         25    1    1    2    0    0  0.11878828457E+03  0.50832859580E+01 -0.22663776073E+03  0.28482656291E+03  0.12500000000E+03 0.  0.
         25    1    1    2    0    0 -0.15247702489E+03 -0.10025076662E+03  0.24667221624E+02  0.22255994956E+03  0.12500000000E+03 0.  0.
</event>
<event>
 5    0  0.5597833E-005  0.3498591E+03  0.7546771E-02  0.1062673E+00
         21   -1    0    0  502  501  0.00000000000E+00  0.00000000000E+00  0.75621098922E+02  0.75621098922E+02  0.00000000000E+00 0. -1.
         21   -1    0    0  501  502 -0.00000000000E+00 -0.00000000000E+00 -0.16186139034E+04  0.16186139034E+04  0.00000000000E+00 0. -1.
         25    1    1    2    0    0  0.19674640998E+03  0.14526746773E+03 -0.41709559100E+03  0.49940516522E+03  0.12500000000E+03 0.  0.
         25    1    1    2    0    0 -0.28172582308E+02 -0.63597637591E+02 -0.22829802583E+03  0.26941295904E+03  0.12500000000E+03 0.  0.
         25    1    1    2    0    0 -0.16857382767E+03 -0.81669830141E+02 -0.89759918763E+03  0.92541687805E+03  0.12500000000E+03 0.  0.
</event>
<event>
 5    0  0.5597833E-005  0.3831537E+03  0.7546771E-02  0.1049774E+00
         21   -1    0    0  502  501  0.00000000000E+00  0.00000000000E+00  0.22832953837E+03  0.22832953837E+03  0.00000000000E+00 0.  1.
         21   -1    0    0  501  502 -0.00000000000E+00 -0.00000000000E+00 -0.64296010826E+03  0.64296010826E+03  0.00000000000E+00 0.  1.
         25    1    1    2    0    0  0.16705798484E+03 -0.42269114898E+02 -0.55485090748E+02  0.21999691740E+03  0.12500000000E+03 0.  0.
         25    1    1    2    0    0 -0.15322568961E+03 -0.53148447354E+02 -0.43151410519E+03  0.47763196333E+03  0.12500000000E+03 0.  0.
         25    1    1    2    0    0 -0.13832295226E+02  0.95417562252E+02  0.72368626041E+02  0.17366076590E+03  0.12500000000E+03 0.  0.
</event>
<event>
 5    0  0.5597833E-005  0.3227059E+03  0.7546771E-02  0.1074411E+00
         21   -1    0    0  502  501  0.00000000000E+00  0.00000000000E+00  0.17716946934E+04  0.17716946934E+04  0.00000000000E+00 0.  1.
         21   -1    0    0  501  502 -0.00000000000E+00 -0.00000000000E+00 -0.58779376794E+02  0.58779376794E+02  0.00000000000E+00 0.  1.
         25    1    1    2    0    0  0.19977341628E+02 -0.43743064959E+02  0.15130414189E+03  0.20206556675E+03  0.12500000000E+03 0.  0.
         25    1    1    2    0    0  0.21690821378E+02  0.27180046610E+02  0.10819796765E+03  0.16894095676E+03  0.12500000000E+03 0.  0.
         25    1    1    2    0    0 -0.41668163006E+02  0.16563018349E+02  0.14534132071E+04  0.14594675467E+04  0.12500000000E+03 0.  0.
</event>
<event>
 5    0  0.5597833E-005  0.3002176E+03  0.7546771E-02  0.1085132E+00
         21   -1    0    0  502  501  0.00000000000E+00  0.00000000000E+00  0.91021930291E+02  0.91021930291E+02  0.00000000000E+00 0.  1.
         21   -1    0    0  501  502 -0.00000000000E+00 -0.00000000000E+00 -0.99020734318E+03  0.99020734318E+03  0.00000000000E+00 0.  1.
         25    1    1    2    0    0  0.90565528601E+02  0.57550059099E+02 -0.26816451086E+03  0.31472421127E+03  0.12500000000E+03 0.  0.
         25    1    1    2    0    0  0.28857184195E+02 -0.17853750586E+03 -0.26826034759E+03  0.34683856788E+03  0.12500000000E+03 0.  0.
         25    1    1    2    0    0 -0.11942271280E+03  0.12098744676E+03 -0.36276055443E+03  0.41966649432E+03  0.12500000000E+03 0.  0.
</event>
<event>
 5    0  0.8823724E-005  0.6516720E+03  0.7546771E-02  0.9803647E-01
         21   -1    0    0  502  501  0.00000000000E+00  0.00000000000E+00  0.42946359195E+03  0.42946359195E+03  0.00000000000E+00 0. -1.
         21   -1    0    0  501  502 -0.00000000000E+00 -0.00000000000E+00 -0.98885306259E+03  0.98885306259E+03  0.00000000000E+00 0. -1.
         25    1    1    2    0    0  0.16746663081E+03  0.38079511138E+03 -0.21032035347E+03  0.48260712839E+03  0.12500000000E+03 0.  0.
         25    1    1    2    0    0 -0.29179780252E+02 -0.17982939610E+03 -0.55205441810E+03  0.59462521964E+03  0.12500000000E+03 0.  0.
         25    1    1    2    0    0 -0.13828685056E+03 -0.20096571528E+03  0.20298530093E+03  0.34108430651E+03  0.12500000000E+03 0.  0.
</event>
<event>
 5    0  0.5597833E-005  0.3145581E+03  0.7546771E-02  0.1078181E+00
         21   -1    0    0  502  501  0.00000000000E+00  0.00000000000E+00  0.63404324739E+03  0.63404324739E+03  0.00000000000E+00 0. -1.
         21   -1    0    0  501  502 -0.00000000000E+00 -0.00000000000E+00 -0.15605688667E+03  0.15605688667E+03  0.00000000000E+00 0. -1.
         25    1    1    2    0    0  0.92833052713E+02  0.63733479001E+02  0.49107699942E+02  0.17526122850E+03  0.12500000000E+03 0.  0.
         25    1    1    2    0    0 -0.29235929015E+02 -0.16332380963E+03  0.74093689946E+02  0.22055448585E+03  0.12500000000E+03 0.  0.
         25    1    1    2    0    0 -0.63597123698E+02  0.99590330633E+02  0.35478497083E+03  0.39428441971E+03  0.12500000000E+03 0.  0.
</event>
<event>
 5    0  0.5597833E-005  0.2442409E+03  0.7546771E-02  0.1116999E+00
         21   -1    0    0  502  501  0.00000000000E+00  0.00000000000E+00  0.85925417345E+03  0.85925417345E+03  0.00000000000E+00 0.  1.
         21   -1    0    0  501  502 -0.00000000000E+00 -0.00000000000E+00 -0.69424872425E+02  0.69424872425E+02  0.00000000000E+00 0.  1.
         25    1    1    2    0    0  0.18664907097E+02  0.54044934623E+02  0.28692930486E+03  0.31815508750E+03  0.12500000000E+03 0.  0.
         25    1    1    2    0    0 -0.91693494222E+02  0.29330921793E+02  0.35057810306E+03  0.38444506265E+03  0.12500000000E+03 0.  0.
         25    1    1    2    0    0  0.73028587124E+02 -0.83375856416E+02  0.15232189311E+03  0.22607889572E+03  0.12500000000E+03 0.  0.
</event>
<event>
 5    0  0.5597833E-005  0.2881262E+03  0.7546771E-02  0.1091332E+00
         21   -1    0    0  502  501  0.00000000000E+00  0.00000000000E+00  0.25243094145E+03  0.25243094145E+03  0.00000000000E+00 0.  1.
         21   -1    0    0  501  502 -0.00000000000E+00 -0.00000000000E+00 -0.32886900159E+03  0.32886900159E+03  0.00000000000E+00 0.  1.
         25    1    1    2    0    0 -0.23002659806E+02 -0.16774573387E+02  0.13526266994E+03  0.18636388746E+03  0.12500000000E+03 0.  0.
         25    1    1    2    0    0 -0.14934469428E+02  0.11274496893E+03 -0.13124058930E+03  0.21397092951E+03  0.12500000000E+03 0.  0.
         25    1    1    2    0    0  0.37937129234E+02 -0.95970395544E+02 -0.80460140784E+02  0.18096512606E+03  0.12500000000E+03 0.  0.
</event>
<event>
 5    0  0.5597833E-005  0.2212806E+03  0.7546771E-02  0.1132932E+00
         21   -1    0    0  502  501  0.00000000000E+00  0.00000000000E+00  0.21677830700E+03  0.21677830700E+03  0.00000000000E+00 0.  1.
         21   -1    0    0  501  502 -0.00000000000E+00 -0.00000000000E+00 -0.22587645179E+03  0.22587645179E+03  0.00000000000E+00 0.  1.
         25    1    1    2    0    0 -0.23516692120E+02 -0.10926112013E+02  0.22220431941E+02  0.12958071742E+03  0.12500000000E+03 0.  0.
         25    1    1    2    0    0 -0.33552335259E+02  0.22797043811E+01  0.65192130315E+02  0.14493436483E+03  0.12500000000E+03 0.  0.
         25    1    1    2    0    0  0.57069027378E+02  0.86464076320E+01 -0.96510707044E+02  0.16813967653E+03  0.12500000000E+03 0.  0.
</event>
<event>
 5    0  0.5597833E-005  0.2927946E+03  0.7546771E-02  0.1088899E+00
         21   -1    0    0  502  501  0.00000000000E+00  0.00000000000E+00  0.60364583894E+03  0.60364583894E+03  0.00000000000E+00 0. -1.
         21   -1    0    0  501  502 -0.00000000000E+00 -0.00000000000E+00 -0.14201820664E+03  0.14201820664E+03  0.00000000000E+00 0. -1.
         25    1    1    2    0    0  0.15727191539E+03  0.53390854887E+02  0.62707725750E+02  0.21712277085E+03  0.12500000000E+03 0.  0.
         25    1    1    2    0    0 -0.47120429730E+02  0.67996376503E+01  0.61018457963E+02  0.14701980201E+03  0.12500000000E+03 0.  0.
         25    1    1    2    0    0 -0.11015148566E+03 -0.60190492538E+02  0.33790144858E+03  0.38152147271E+03  0.12500000000E+03 0.  0.
</event>
<event>
 5    0  0.5597833E-005  0.2498849E+03  0.7546771E-02  0.1113378E+00
         21   -1    0    0  502  501  0.00000000000E+00  0.00000000000E+00  0.23250584678E+03  0.23250584678E+03  0.00000000000E+00 0.  1.
         21   -1    0    0  501  502 -0.00000000000E+00 -0.00000000000E+00 -0.26856300233E+03  0.26856300233E+03  0.00000000000E+00 0.  1.
         25    1    1    2    0    0  0.96662019905E+02 -0.32419321122E+02  0.78585072097E+02  0.17943013133E+03  0.12500000000E+03 0.  0.
         25    1    1    2    0    0 -0.29382348625E+02 -0.19603572910E+02 -0.11026842551E+03  0.17038705393E+03  0.12500000000E+03 0.  0.
         25    1    1    2    0    0 -0.67279671281E+02  0.52022894032E+02 -0.43738021296E+01  0.15125166385E+03  0.12500000000E+03 0.  0.
</event>
<event>
 5    0  0.5597833E-005  0.4309065E+03  0.7546771E-02  0.1033574E+00
         21   -1    0    0  502  501  0.00000000000E+00  0.00000000000E+00  0.35350071581E+03  0.35350071581E+03  0.00000000000E+00 0. -1.
         21   -1    0    0  501  502 -0.00000000000E+00 -0.00000000000E+00 -0.52526182158E+03  0.52526182158E+03  0.00000000000E+00 0. -1.
         25    1    1    2    0    0  0.29965745650E+03  0.15187244140E+03  0.20420381882E+02  0.35902899840E+03  0.12500000000E+03 0.  0.
         25    1    1    2    0    0 -0.11727083697E+03 -0.13305587619E+03 -0.20357702580E+03  0.29753137789E+03  0.12500000000E+03 0.  0.
         25    1    1    2    0    0 -0.18238661954E+03 -0.18816565201E+02  0.11395538154E+02  0.22220216111E+03  0.12500000000E+03 0.  0.
</event>
<event>
 5    0  0.5597833E-005  0.3663178E+03  0.7546771E-02  0.1056110E+00
         21   -1    0    0  502  501  0.00000000000E+00  0.00000000000E+00  0.26092949356E+03  0.26092949356E+03  0.00000000000E+00 0.  1.
         21   -1    0    0  501  502 -0.00000000000E+00 -0.00000000000E+00 -0.51427206605E+03  0.51427206605E+03  0.00000000000E+00 0.  1.
         25    1    1    2    0    0  0.17850251046E+03  0.91960457500E+02 -0.45046093410E+02  0.24077795272E+03  0.12500000000E+03 0.  0.
         25    1    1    2    0    0 -0.34862777345E+00  0.88381063871E+02  0.39977525941E+02  0.15822305955E+03  0.12500000000E+03 0.  0.
         25    1    1    2    0    0 -0.17815388269E+03 -0.18034152137E+03 -0.24827400503E+03  0.37620054734E+03  0.12500000000E+03 0.  0.
</event>
<event>
 5    0  0.5597833E-005  0.3348337E+03  0.7546771E-02  0.1069018E+00
         21   -1    0    0  502  501  0.00000000000E+00  0.00000000000E+00  0.70683952155E+02  0.70683952155E+02  0.00000000000E+00 0.  1.
         21   -1    0    0  501  502 -0.00000000000E+00 -0.00000000000E+00 -0.15861251016E+04  0.15861251016E+04  0.00000000000E+00 0.  1.
         25    1    1    2    0    0 -0.37908579594E+02 -0.51262977113E+02 -0.88611816125E+03  0.89715960059E+03  0.12500000000E+03 0.  0.
         25    1    1    2    0    0  0.14360225301E+03 -0.54865470883E+02 -0.17170431193E+03  0.26218161206E+03  0.12500000000E+03 0.  0.
         25    1    1    2    0    0 -0.10569367341E+03  0.10612844800E+03 -0.45761867624E+03  0.49746784109E+03  0.12500000000E+03 0.  0.
</event>
<event>
 5    0  0.5597833E-005  0.2458824E+03  0.7546771E-02  0.1115935E+00
         21   -1    0    0  502  501  0.00000000000E+00  0.00000000000E+00  0.83613231837E+02  0.83613231837E+02  0.00000000000E+00 0.  1.
         21   -1    0    0  501  502 -0.00000000000E+00 -0.00000000000E+00 -0.72306908498E+03  0.72306908498E+03  0.00000000000E+00 0.  1.
         25    1    1    2    0    0 -0.33447766285E+01 -0.65153684131E+02 -0.33267799705E+03  0.36132511649E+03  0.12500000000E+03 0.  0.
         25    1    1    2    0    0  0.13106992238E+02  0.89671399746E+02 -0.27230932245E+03  0.31303373663E+03  0.12500000000E+03 0.  0.
         25    1    1    2    0    0 -0.97622156090E+01 -0.24517715615E+02 -0.34468533646E+02  0.13232346370E+03  0.12500000000E+03 0.  0.
</event>
<event>
 5    0  0.5597833E-005  0.2961926E+03  0.7546771E-02  0.1087160E+00
         21   -1    0    0  502  501  0.00000000000E+00  0.00000000000E+00  0.22577609044E+04  0.22577609044E+04  0.00000000000E+00 0.  1.
         21   -1    0    0  501  502 -0.00000000000E+00 -0.00000000000E+00 -0.38857110127E+02  0.38857110127E+02  0.00000000000E+00 0.  1.
         25    1    1    2    0    0  0.23647389867E+02  0.19847333457E+02  0.10955885401E+04  0.11031284445E+04  0.12500000000E+03 0.  0.
         25    1    1    2    0    0  0.45661272435E+02 -0.13914699462E+03  0.77479059083E+03  0.79835599675E+03  0.12500000000E+03 0.  0.
         25    1    1    2    0    0 -0.69308662302E+02  0.11929966117E+03  0.34852466325E+03  0.39513357326E+03  0.12500000000E+03 0.  0.
</event>
<event>
 5    0  0.5597833E-005  0.2667758E+03  0.7546771E-02  0.1103139E+00
         21   -1    0    0  502  501  0.00000000000E+00  0.00000000000E+00  0.65952397775E+02  0.65952397775E+02  0.00000000000E+00 0. -1.
         21   -1    0    0  501  502 -0.00000000000E+00 -0.00000000000E+00 -0.10791015485E+04  0.10791015485E+04  0.00000000000E+00 0. -1.
         25    1    1    2    0    0 -0.29324773969E+01  0.59115433428E+02 -0.96436121535E+02  0.16860652250E+03  0.12500000000E+03 0.  0.
         25    1    1    2    0    0  0.10740282424E+03 -0.49256458896E+02 -0.50922028995E+03  0.53748662225E+03  0.12500000000E+03 0.  0.
         25    1    1    2    0    0 -0.10447034684E+03 -0.98589745315E+01 -0.40749273928E+03  0.43896080156E+03  0.12500000000E+03 0.  0.
</event>
<event>
 5    0  0.5980417E-005  0.3020964E+03  0.7546771E-02  0.1084197E+00
         21   -1    0    0  502  501  0.00000000000E+00  0.00000000000E+00  0.14315649202E+03  0.14315649202E+03  0.00000000000E+00 0.  1.
         21   -1    0    0  501  502 -0.00000000000E+00 -0.00000000000E+00 -0.63749972800E+03  0.63749972800E+03  0.00000000000E+00 0.  1.
         25    1    1    2    0    0  0.30694919831E+02  0.12843488417E+03 -0.35105287297E+03  0.39534898153E+03  0.12500000000E+03 0.  0.
         25    1    1    2    0    0 -0.74115814899E+02 -0.90396121236E+02 -0.17419085442E+03  0.24419677827E+03  0.12500000000E+03 0.  0.
         25    1    1    2    0    0  0.43420895068E+02 -0.38038762936E+02  0.30900491421E+02  0.14111046022E+03  0.12500000000E+03 0.  0.
</event>
<event>
 5    0  0.5597833E-005  0.7651450E+03  0.7546771E-02  0.9611885E-01
         21   -1    0    0  502  501  0.00000000000E+00  0.00000000000E+00  0.53088488882E+03  0.53088488882E+03  0.00000000000E+00 0. -1.
         21   -1    0    0  501  502 -0.00000000000E+00 -0.00000000000E+00 -0.11027755406E+04  0.11027755406E+04  0.00000000000E+00 0.  1.
         25    1    1    2    0    0 -0.89383535758E+02 -0.10658931687E+03 -0.89265967116E+03  0.91204001418E+03  0.12500000000E+03 0.  0.
         25    1    1    2    0    0  0.18581153688E+03 -0.12155844954E+03 -0.48860481058E+02  0.25945082482E+03  0.12500000000E+03 0.  0.
         25    1    1    2    0    0 -0.96428001126E+02  0.22814776641E+03  0.36962950043E+03  0.46216959042E+03  0.12500000000E+03 0.  0.
</event>
<event>
 5    0  0.5597833E-005  0.2569523E+03  0.7546771E-02  0.1108988E+00
         21   -1    0    0  502  501  0.00000000000E+00  0.00000000000E+00  0.17949269874E+03  0.17949269874E+03  0.00000000000E+00 0. -1.
         21   -1    0    0  501  502 -0.00000000000E+00 -0.00000000000E+00 -0.36783931970E+03  0.36783931970E+03  0.00000000000E+00 0. -1.
         25    1    1    2    0    0 -0.87732055608E+02 -0.20688250001E+02  0.13179612598E+02  0.15467262026E+03  0.12500000000E+03 0.  0.
         25    1    1    2    0    0 -0.50559901434E+02  0.46942197897E+02 -0.12386535476E+03  0.18901719416E+03  0.12500000000E+03 0.  0.
         25    1    1    2    0    0  0.13829195704E+03 -0.26253947896E+02 -0.77660878798E+02  0.20364220402E+03  0.12500000000E+03 0.  0.
</event>
<event>
 5    0  0.5597833E-005  0.2282794E+03  0.7546771E-02  0.1127857E+00
         21   -1    0    0  502  501  0.00000000000E+00  0.00000000000E+00  0.33167704933E+03  0.33167704933E+03  0.00000000000E+00 0.  1.
         21   -1    0    0  501  502 -0.00000000000E+00 -0.00000000000E+00 -0.15711516048E+03  0.15711516048E+03  0.00000000000E+00 0.  1.
         25    1    1    2    0    0 -0.39085819519E+02 -0.45191779649E+02  0.13069270094E+03  0.19046149299E+03  0.12500000000E+03 0.  0.
         25    1    1    2    0    0 -0.41638434474E+01  0.14408703003E+02 -0.47599230349E+02  0.13459433511E+03  0.12500000000E+03 0.  0.
         25    1    1    2    0    0  0.43249662966E+02  0.30783076646E+02  0.91468418255E+02  0.16373638170E+03  0.12500000000E+03 0.  0.
</event>
<event>
 5    0  0.5597833E-005  0.2212782E+03  0.7546771E-02  0.1132934E+00
         21   -1    0    0  502  501  0.00000000000E+00  0.00000000000E+00  0.11271687705E+03  0.11271687705E+03  0.00000000000E+00 0.  1.
         21   -1    0    0  501  502 -0.00000000000E+00 -0.00000000000E+00 -0.43439836258E+03  0.43439836258E+03  0.00000000000E+00 0.  1.
         25    1    1    2    0    0 -0.50918979498E+02 -0.56448982544E+01 -0.20639358124E+03  0.24667370700E+03  0.12500000000E+03 0.  0.
         25    1    1    2    0    0  0.72571661055E+02  0.16242269482E+02 -0.33907631198E+02  0.14934920408E+03  0.12500000000E+03 0.  0.
         25    1    1    2    0    0 -0.21652681557E+02 -0.10597371227E+02 -0.81380273104E+02  0.15109232855E+03  0.12500000000E+03 0.  0.
</event>
<event>
 5    0  0.5597833E-005  0.3174421E+03  0.7546771E-02  0.1076833E+00
         21   -1    0    0  502  501  0.00000000000E+00  0.00000000000E+00  0.76663342746E+02  0.76663342746E+02  0.00000000000E+00 0.  1.
         21   -1    0    0  501  502 -0.00000000000E+00 -0.00000000000E+00 -0.13144419332E+04  0.13144419332E+04  0.00000000000E+00 0.  1.
         25    1    1    2    0    0  0.11990599744E+03  0.10319213841E+03 -0.62882557847E+03  0.66035798912E+03  0.12500000000E+03 0.  0.
         25    1    1    2    0    0  0.67670384860E+02 -0.82275233636E+02 -0.16721603227E+03  0.23438151912E+03  0.12500000000E+03 0.  0.
         25    1    1    2    0    0 -0.18757638230E+03 -0.20916904770E+02 -0.44173697968E+03  0.49636576767E+03  0.12500000000E+03 0.  0.
</event>
<event>
 5    0  0.5597833E-005  0.2394656E+03  0.7546771E-02  0.1120149E+00
         21   -1    0    0  502  501  0.00000000000E+00  0.00000000000E+00  0.12037543980E+04  0.12037543980E+04  0.00000000000E+00 0. -1.
         21   -1    0    0  501  502 -0.00000000000E+00 -0.00000000000E+00 -0.47637419587E+02  0.47637419587E+02  0.00000000000E+00 0. -1.
         25    1    1    2    0    0  0.32785327675E+02  0.23544820975E+02  0.55627549173E+03  0.57157384388E+03  0.12500000000E+03 0.  0.
         25    1    1    2    0    0 -0.51298185926E+02 -0.10313033760E+03  0.29854480004E+03  0.34354238173E+03  0.12500000000E+03 0.  0.
         25    1    1    2    0    0  0.18512858252E+02  0.79585516627E+02  0.30129668660E+03  0.33627559194E+03  0.12500000000E+03 0.  0.
</event>
<event>
 5    0  0.5597833E-005  0.3761302E+03  0.7546771E-02  0.1052373E+00
         21   -1    0    0  502  501  0.00000000000E+00  0.00000000000E+00  0.41592040825E+03  0.41592040825E+03  0.00000000000E+00 0.  1.
         21   -1    0    0  501  502 -0.00000000000E+00 -0.00000000000E+00 -0.34014660063E+03  0.34014660063E+03  0.00000000000E+00 0.  1.
         25    1    1    2    0    0  0.23066603403E+03  0.14655587454E+03 -0.10664123363E+03  0.31887740015E+03  0.12500000000E+03 0.  0.
         25    1    1    2    0    0 -0.16005702236E+03 -0.70187008322E+02  0.17021231235E+03  0.27411986032E+03  0.12500000000E+03 0.  0.
         25    1    1    2    0    0 -0.70609011663E+02 -0.76368866216E+02  0.12202728907E+02  0.16306974841E+03  0.12500000000E+03 0.  0.
</event>
<event>
 5    0  0.5597833E-005  0.3306458E+03  0.7546771E-02  0.1070851E+00
         21   -1    0    0  502  501  0.00000000000E+00  0.00000000000E+00  0.71427394867E+02  0.71427394867E+02  0.00000000000E+00 0.  1.
         21   -1    0    0  501  502 -0.00000000000E+00 -0.00000000000E+00 -0.15305981926E+04  0.15305981926E+04  0.00000000000E+00 0.  1.
         25    1    1    2    0    0 -0.12023367437E+03 -0.22430492621E+03 -0.61671249122E+03  0.67876957297E+03  0.12500000000E+03 0.  0.
         25    1    1    2    0    0  0.71829289245E+02  0.87454241631E+02 -0.25809029636E+03  0.30829092145E+03  0.12500000000E+03 0.  0.
         25    1    1    2    0    0  0.48404385123E+02  0.13685068457E+03 -0.58436801014E+03  0.61496509303E+03  0.12500000000E+03 0.  0.
</event>
<event>
 5    0  0.5597833E-005  0.2780350E+03  0.7546771E-02  0.1096767E+00
         21   -1    0    0  502  501  0.00000000000E+00  0.00000000000E+00  0.48461225808E+03  0.48461225808E+03  0.00000000000E+00 0.  1.
         21   -1    0    0  501  502 -0.00000000000E+00 -0.00000000000E+00 -0.15951607478E+03  0.15951607478E+03  0.00000000000E+00 0.  1.
         25    1    1    2    0    0  0.67904256217E+02  0.50955078814E+02  0.13745002722E+03  0.20426678157E+03  0.12500000000E+03 0.  0.
         25    1    1    2    0    0 -0.18431491107E+03 -0.39729112887E+02  0.11689746737E+03  0.25463779518E+03  0.12500000000E+03 0.  0.
         25    1    1    2    0    0  0.11641065485E+03 -0.11225965927E+02  0.70748688698E+02  0.18522375611E+03  0.12500000000E+03 0.  0.
</event>
<event>
 5    0  0.5597833E-005  0.2980289E+03  0.7546771E-02  0.1086230E+00
         21   -1    0    0  502  501  0.00000000000E+00  0.00000000000E+00  0.72587165814E+02  0.72587165814E+02  0.00000000000E+00 0. -1.
         21   -1    0    0  501  502 -0.00000000000E+00 -0.00000000000E+00 -0.12236488639E+04  0.12236488639E+04  0.00000000000E+00 0. -1.
         25    1    1    2    0    0 -0.10444293992E+03  0.10154616395E+03 -0.35038329479E+03  0.39951646321E+03  0.12500000000E+03 0.  0.
         25    1    1    2    0    0  0.17865688423E+03 -0.26681377490E+01 -0.34313887102E+03  0.40656449187E+03  0.12500000000E+03 0.  0.
         25    1    1    2    0    0 -0.74213944308E+02 -0.98878026200E+02 -0.45753953232E+03  0.49015507468E+03  0.12500000000E+03 0.  0.
</event>
<event>
 5    0  0.5597833E-005  0.3973405E+03  0.7546771E-02  0.1044704E+00
         21   -1    0    0  502  501  0.00000000000E+00  0.00000000000E+00  0.23795867719E+04  0.23795867719E+04  0.00000000000E+00 0.  1.
         21   -1    0    0  501  502 -0.00000000000E+00 -0.00000000000E+00 -0.66347436620E+02  0.66347436620E+02  0.00000000000E+00 0. -1.
         25    1    1    2    0    0  0.21388826432E+02 -0.26373611303E+02  0.44195609487E+03  0.46054667414E+03  0.12500000000E+03 0.  0.
         25    1    1    2    0    0  0.16203154161E+03  0.17449922741E+03  0.35271052157E+03  0.44354696805E+03  0.12500000000E+03 0.  0.
         25    1    1    2    0    0 -0.18342036804E+03 -0.14812561611E+03  0.15185727189E+04  0.15418405664E+04  0.12500000000E+03 0.  0.
</event>
<event>
 5    0  0.5597833E-005  0.3736829E+03  0.7546771E-02  0.1053294E+00
         21   -1    0    0  502  501  0.00000000000E+00  0.00000000000E+00  0.26028392483E+03  0.26028392483E+03  0.00000000000E+00 0.  1.
         21   -1    0    0  501  502 -0.00000000000E+00 -0.00000000000E+00 -0.53648691191E+03  0.53648691191E+03  0.00000000000E+00 0.  1.
         25    1    1    2    0    0  0.71526868100E+02 -0.21373312955E+02  0.58249674602E+02  0.15681497364E+03  0.12500000000E+03 0.  0.
         25    1    1    2    0    0 -0.24830295839E+03  0.10048178495E+03 -0.10227649241E+03  0.31278815379E+03  0.12500000000E+03 0.  0.
         25    1    1    2    0    0  0.17677609029E+03 -0.79108471999E+02 -0.23217616926E+03  0.32716770931E+03  0.12500000000E+03 0.  0.
</event>
<event>
 5    0  0.5597833E-005  0.5130856E+03  0.7546771E-02  0.1010419E+00
         21   -1    0    0  502  501  0.00000000000E+00  0.00000000000E+00  0.31597324591E+03  0.31597324591E+03  0.00000000000E+00 0. -1.
         21   -1    0    0  501  502 -0.00000000000E+00 -0.00000000000E+00 -0.83316168572E+03  0.83316168572E+03  0.00000000000E+00 0. -1.
         25    1    1    2    0    0 -0.11628344362E+03  0.18156576633E+02  0.20037761753E+03  0.26387059356E+03  0.12500000000E+03 0.  0.
         25    1    1    2    0    0  0.25273860605E+03  0.91610422878E+02 -0.48499388522E+03  0.56843059494E+03  0.12500000000E+03 0.  0.
         25    1    1    2    0    0 -0.13645516242E+03 -0.10976699951E+03 -0.23257217213E+03  0.31683374313E+03  0.12500000000E+03 0.  0.
</event>
<event>
 5    0  0.5597833E-005  0.2268684E+03  0.7546771E-02  0.1128864E+00
         21   -1    0    0  502  501  0.00000000000E+00  0.00000000000E+00  0.17758591512E+03  0.17758591512E+03  0.00000000000E+00 0.  1.
         21   -1    0    0  501  502 -0.00000000000E+00 -0.00000000000E+00 -0.28982749629E+03  0.28982749629E+03  0.00000000000E+00 0.  1.
         25    1    1    2    0    0  0.61181703601E+02 -0.14066915675E+00 -0.13198166535E+03  0.19180036661E+03  0.12500000000E+03 0.  0.
         25    1    1    2    0    0 -0.35964821274E+02 -0.45286118266E+02  0.25733358094E+02  0.14011247837E+03  0.12500000000E+03 0.  0.
         25    1    1    2    0    0 -0.25216882327E+02  0.45426787422E+02 -0.59932739138E+01  0.13550056643E+03  0.12500000000E+03 0.  0.
</event>
<event>
 5    0  0.5597833E-005  0.3348596E+03  0.7546771E-02  0.1069007E+00
         21   -1    0    0  502  501  0.00000000000E+00  0.00000000000E+00  0.35469243914E+03  0.35469243914E+03  0.00000000000E+00 0.  1.
         21   -1    0    0  501  502 -0.00000000000E+00 -0.00000000000E+00 -0.31613563536E+03  0.31613563536E+03  0.00000000000E+00 0.  1.
         25    1    1    2    0    0 -0.43014925844E+02 -0.13651738278E+03  0.17710805701E+03  0.25976824961E+03  0.12500000000E+03 0.  0.
         25    1    1    2    0    0  0.13064721773E+03  0.65832466039E+02  0.10868821406E+01  0.19242866314E+03  0.12500000000E+03 0.  0.
         25    1    1    2    0    0 -0.87632291886E+02  0.70684916744E+02 -0.13963813537E+03  0.21863116175E+03  0.12500000000E+03 0.  0.
</event>
<event>
 5    0  0.5597833E-005  0.3893949E+03  0.7546771E-02  0.1047515E+00
         21   -1    0    0  502  501  0.00000000000E+00  0.00000000000E+00  0.24452018700E+03  0.24452018700E+03  0.00000000000E+00 0. -1.
         21   -1    0    0  501  502 -0.00000000000E+00 -0.00000000000E+00 -0.62010570482E+03  0.62010570482E+03  0.00000000000E+00 0.  1.
         25    1    1    2    0    0  0.78700200320E+02  0.43022737294E+02 -0.12063325670E+03  0.19550462930E+03  0.12500000000E+03 0.  0.
         25    1    1    2    0    0 -0.23448509606E+03  0.37272949418E+02  0.71861018255E+02  0.27777965904E+03  0.12500000000E+03 0.  0.
         25    1    1    2    0    0  0.15578489574E+03 -0.80295686712E+02 -0.32681327937E+03  0.39134160348E+03  0.12500000000E+03 0.  0.
</event>
<event>
 5    0  0.5597833E-005  0.3616430E+03  0.7546771E-02  0.1057935E+00
         21   -1    0    0  502  501  0.00000000000E+00  0.00000000000E+00  0.89224730558E+02  0.89224730558E+02  0.00000000000E+00 0.  1.
         21   -1    0    0  501  502 -0.00000000000E+00 -0.00000000000E+00 -0.14658008611E+04  0.14658008611E+04  0.00000000000E+00 0.  1.
         25    1    1    2    0    0 -0.69098694017E+02  0.25545174138E+03 -0.75299357561E+03  0.80787037735E+03  0.12500000000E+03 0.  0.
         25    1    1    2    0    0 -0.25429216597E+02 -0.19838599978E+03 -0.43925728738E+03  0.49857357981E+03  0.12500000000E+03 0.  0.
         25    1    1    2    0    0  0.94527910614E+02 -0.57065741592E+02 -0.18432526752E+03  0.24858163447E+03  0.12500000000E+03 0.  0.
</event>
<event>
 5    0  0.5597833E-005  0.4071088E+03  0.7546771E-02  0.1041346E+00
         21   -1    0    0  502  501  0.00000000000E+00  0.00000000000E+00  0.11702331721E+03  0.11702331721E+03  0.00000000000E+00 0. -1.
         21   -1    0    0  501  502 -0.00000000000E+00 -0.00000000000E+00 -0.14162779095E+04  0.14162779095E+04  0.00000000000E+00 0. -1.
         25    1    1    2    0    0 -0.18361255968E+03 -0.30379517304E+02 -0.39638862642E+03  0.45539590501E+03  0.12500000000E+03 0.  0.
         25    1    1    2    0    0  0.30219021048E+03  0.45873596165E+02 -0.28475494746E+03  0.43604322061E+03  0.12500000000E+03 0.  0.
         25    1    1    2    0    0 -0.11857765081E+03 -0.15494078861E+02 -0.61811101838E+03  0.64186210108E+03  0.12500000000E+03 0.  0.
</event>
<event>
 5    0  0.5597833E-005  0.2935047E+03  0.7546771E-02  0.1088533E+00
         21   -1    0    0  502  501  0.00000000000E+00  0.00000000000E+00  0.20122316905E+03  0.20122316905E+03  0.00000000000E+00 0.  1.
         21   -1    0    0  501  502 -0.00000000000E+00 -0.00000000000E+00 -0.42810678025E+03  0.42810678025E+03  0.00000000000E+00 0.  1.
         25    1    1    2    0    0  0.52684360431E+02 -0.77635634351E+02 -0.44931546239E+02  0.16262465189E+03  0.12500000000E+03 0.  0.
         25    1    1    2    0    0 -0.19097195052E+03  0.24731967122E+02 -0.58384473147E+02  0.23688753194E+03  0.12500000000E+03 0.  0.
         25    1    1    2    0    0  0.13828759009E+03  0.52903667229E+02 -0.12356759181E+03  0.22981776547E+03  0.12500000000E+03 0.  0.
</event>
<event>
 5    0  0.5597833E-005  0.3336696E+03  0.7546771E-02  0.1069525E+00
         21   -1    0    0  502  501  0.00000000000E+00  0.00000000000E+00  0.21501432547E+03  0.21501432547E+03  0.00000000000E+00 0.  1.
         21   -1    0    0  501  502 -0.00000000000E+00 -0.00000000000E+00 -0.51780462910E+03  0.51780462910E+03  0.00000000000E+00 0.  1.
         25    1    1    2    0    0 -0.11788264724E+03  0.15814278617E+03  0.32295131191E+02  0.23574018503E+03  0.12500000000E+03 0.  0.
         25    1    1    2    0    0  0.91203008185E+01 -0.24801240355E+02 -0.41068182564E+02  0.13420088312E+03  0.12500000000E+03 0.  0.
         25    1    1    2    0    0  0.10876234642E+03 -0.13334154581E+03 -0.29401725225E+03  0.36287788643E+03  0.12500000000E+03 0.  0.
</event>
<event>
 5    0  0.6930851E-005  0.2991248E+03  0.7546771E-02  0.1085679E+00
         21   -1    0    0  502  501  0.00000000000E+00  0.00000000000E+00  0.24587671949E+03  0.24587671949E+03  0.00000000000E+00 0. -1.
         21   -1    0    0  501  502 -0.00000000000E+00 -0.00000000000E+00 -0.36390452055E+03  0.36390452055E+03  0.00000000000E+00 0. -1.
         25    1    1    2    0    0  0.10174509318E+03  0.12696450624E+03 -0.13706181119E+03  0.24674478701E+03  0.12500000000E+03 0.  0.
         25    1    1    2    0    0 -0.11139388847E+01 -0.54889538241E+02  0.10014996830E+03  0.16931957483E+03  0.12500000000E+03 0.  0.
         25    1    1    2    0    0 -0.10063115429E+03 -0.72074968002E+02 -0.81115958179E+02  0.19371687820E+03  0.12500000000E+03 0.  0.
</event>
<event>
 5    0  0.5597833E-005  0.3516920E+03  0.7546771E-02  0.1061923E+00
         21   -1    0    0  502  501  0.00000000000E+00  0.00000000000E+00  0.78711461532E+03  0.78711461532E+03  0.00000000000E+00 0.  1.
         21   -1    0    0  501  502 -0.00000000000E+00 -0.00000000000E+00 -0.15714009626E+03  0.15714009626E+03  0.00000000000E+00 0.  1.
         25    1    1    2    0    0  0.24444947724E+03  0.13667655761E+03  0.21940612665E+03  0.37709425445E+03  0.12500000000E+03 0.  0.
         25    1    1    2    0    0 -0.17924397928E+03 -0.10891597536E+03  0.22132571642E+03  0.32954691100E+03  0.12500000000E+03 0.  0.
         25    1    1    2    0    0 -0.65205497958E+02 -0.27760582252E+02  0.18924267599E+03  0.23761354614E+03  0.12500000000E+03 0.  0.
</event>
<event>
 5    0  0.5597833E-005  0.2950901E+03  0.7546771E-02  0.1087721E+00
         21   -1    0    0  502  501  0.00000000000E+00  0.00000000000E+00  0.13178629750E+04  0.13178629750E+04  0.00000000000E+00 0.  1.
         21   -1    0    0  501  502 -0.00000000000E+00 -0.00000000000E+00 -0.66075295198E+02  0.66075295198E+02  0.00000000000E+00 0.  1.
         25    1    1    2    0    0  0.84381543272E+02 -0.37580651474E+02  0.45831199818E+03  0.48394982993E+03  0.12500000000E+03 0.  0.
         25    1    1    2    0    0 -0.10544142752E+03 -0.12795451290E+03  0.30602089911E+03  0.36981622828E+03  0.12500000000E+03 0.  0.
         25    1    1    2    0    0  0.21059884250E+02  0.16553516438E+03  0.48745478253E+03  0.53017221201E+03  0.12500000000E+03 0.  0.
</event>
<event>
 5    0  0.5597833E-005  0.4408597E+03  0.7546771E-02  0.1030483E+00
         21   -1    0    0  502  501  0.00000000000E+00  0.00000000000E+00  0.25953877078E+04  0.25953877078E+04  0.00000000000E+00 0. -1.
         21   -1    0    0  501  502 -0.00000000000E+00 -0.00000000000E+00 -0.74885658361E+02  0.74885658361E+02  0.00000000000E+00 0. -1.
         25    1    1    2    0    0  0.26139416573E+02 -0.28993835634E+03  0.13443265637E+04  0.13811540209E+04  0.12500000000E+03 0.  0.
         25    1    1    2    0    0  0.12792809128E+02  0.13816111048E+03  0.10146525074E+04  0.10316961080E+04  0.12500000000E+03 0.  0.
         25    1    1    2    0    0 -0.38932225702E+02  0.15177724586E+03  0.16152297829E+03  0.25742323725E+03  0.12500000000E+03 0.  0.
</event>
<event>
 5    0  0.5597833E-005  0.2753271E+03  0.7546771E-02  0.1098269E+00
         21   -1    0    0  502  501  0.00000000000E+00  0.00000000000E+00  0.10231155420E+03  0.10231155420E+03  0.00000000000E+00 0. -1.
         21   -1    0    0  501  502 -0.00000000000E+00 -0.00000000000E+00 -0.74092323807E+03  0.74092323807E+03  0.00000000000E+00 0. -1.
         25    1    1    2    0    0  0.12466098526E+03 -0.84957403694E+02 -0.19536624911E+03  0.27667868183E+03  0.12500000000E+03 0.  0.
         25    1    1    2    0    0 -0.12753060813E+03  0.30864001625E+02 -0.12435829715E+03  0.21978769000E+03  0.12500000000E+03 0.  0.
         25    1    1    2    0    0  0.28696228659E+01  0.54093402069E+02 -0.31888713761E+03  0.34676842044E+03  0.12500000000E+03 0.  0.
</event>
<event>
 5    0  0.5597833E-005  0.3422345E+03  0.7546771E-02  0.1065848E+00
         21   -1    0    0  502  501  0.00000000000E+00  0.00000000000E+00  0.14912408323E+03  0.14912408323E+03  0.00000000000E+00 0. -1.
         21   -1    0    0  501  502 -0.00000000000E+00 -0.00000000000E+00 -0.78541627730E+03  0.78541627730E+03  0.00000000000E+00 0. -1.
         25    1    1    2    0    0  0.69300372232E+02  0.23957345818E+02 -0.60078368052E+03  0.61801498913E+03  0.12500000000E+03 0.  0.
         25    1    1    2    0    0 -0.93000357604E+02  0.53100898122E+02 -0.49564621596E+01  0.16467646587E+03  0.12500000000E+03 0.  0.
         25    1    1    2    0    0  0.23699985372E+02 -0.77058243940E+02 -0.30552051387E+02  0.15184890553E+03  0.12500000000E+03 0.  0.
</event>
<event>
 5    0  0.5597833E-005  0.2505256E+03  0.7546771E-02  0.1112973E+00
         21   -1    0    0  502  501  0.00000000000E+00  0.00000000000E+00  0.16328034047E+03  0.16328034047E+03  0.00000000000E+00 0.  1.
         21   -1    0    0  501  502 -0.00000000000E+00 -0.00000000000E+00 -0.38438857426E+03  0.38438857426E+03  0.00000000000E+00 0.  1.
         25    1    1    2    0    0  0.25564313914E+02  0.12411336181E+02 -0.14952107765E+03  0.19694955718E+03  0.12500000000E+03 0.  0.
         25    1    1    2    0    0  0.82010628902E+02 -0.38001137952E+02 -0.96539561380E+02  0.18197449450E+03  0.12500000000E+03 0.  0.
         25    1    1    2    0    0 -0.10757494282E+03  0.25589801771E+02  0.24952405241E+02  0.16874486304E+03  0.12500000000E+03 0.  0.
</event>
<event>
 5    0  0.5597833E-005  0.3309618E+03  0.7546771E-02  0.1070712E+00
         21   -1    0    0  502  501  0.00000000000E+00  0.00000000000E+00  0.93349572700E+02  0.93349572700E+02  0.00000000000E+00 0.  1.
         21   -1    0    0  501  502 -0.00000000000E+00 -0.00000000000E+00 -0.11733929189E+04  0.11733929189E+04  0.00000000000E+00 0.  1.
         25    1    1    2    0    0 -0.63642120374E+02 -0.11890180822E+03 -0.25602887522E+03  0.31522015232E+03  0.12500000000E+03 0.  0.
         25    1    1    2    0    0  0.11091400464E+03  0.98518799753E+02 -0.78813218289E+03  0.81165584334E+03  0.12500000000E+03 0.  0.
         25    1    1    2    0    0 -0.47271884262E+02  0.20383008471E+02 -0.35882288045E+02  0.13986649589E+03  0.12500000000E+03 0.  0.
</event>
<event>
 5    0  0.5597833E-005  0.4421311E+03  0.7546771E-02  0.1030095E+00
         21   -1    0    0  502  501  0.00000000000E+00  0.00000000000E+00  0.21075482380E+03  0.21075482380E+03  0.00000000000E+00 0. -1.
         21   -1    0    0  501  502 -0.00000000000E+00 -0.00000000000E+00 -0.92752294830E+03  0.92752294830E+03  0.00000000000E+00 0. -1.
         25    1    1    2    0    0  0.20689782284E+03  0.22766150283E+03 -0.27234126459E+03  0.42945457660E+03  0.12500000000E+03 0.  0.
         25    1    1    2    0    0 -0.10373096732E+03 -0.32480940512E+03 -0.28698762312E+03  0.46286948383E+03  0.12500000000E+03 0.  0.
         25    1    1    2    0    0 -0.10316685552E+03  0.97147902298E+02 -0.15743923679E+03  0.24595371166E+03  0.12500000000E+03 0.  0.
</event>
<event>
 5    0  0.5597833E-005  0.4718860E+03  0.7546771E-02  0.1021389E+00
         21   -1    0    0  502  501  0.00000000000E+00  0.00000000000E+00  0.27621011154E+03  0.27621011154E+03  0.00000000000E+00 0. -1.
         21   -1    0    0  501  502 -0.00000000000E+00 -0.00000000000E+00 -0.80618497277E+03  0.80618497277E+03  0.00000000000E+00 0. -1.
         25    1    1    2    0    0  0.34440565809E+03 -0.17614291192E+03 -0.40402976807E+03  0.57315498447E+03  0.12500000000E+03 0.  0.
         25    1    1    2    0    0 -0.24412877804E+03  0.10041840485E+03 -0.15336202355E+03  0.32989032506E+03  0.12500000000E+03 0.  0.
         25    1    1    2    0    0 -0.10027688004E+03  0.75724507062E+02  0.27416930381E+02  0.17934977478E+03  0.12500000000E+03 0.  0.
</event>
<event>
 5    0  0.5597833E-005  0.2110541E+03  0.7546771E-02  0.1140734E+00
         21   -1    0    0  502  501  0.00000000000E+00  0.00000000000E+00  0.16041453711E+03  0.16041453711E+03  0.00000000000E+00 0.  1.
         21   -1    0    0  501  502 -0.00000000000E+00 -0.00000000000E+00 -0.27767945210E+03  0.27767945210E+03  0.00000000000E+00 0.  1.
         25    1    1    2    0    0  0.62746383407E+02 -0.10462029271E+02 -0.92708926984E+02  0.16812646380E+03  0.12500000000E+03 0.  0.
         25    1    1    2    0    0  0.39502625093E+00  0.24812971910E+02 -0.24229551533E+01  0.12746258405E+03  0.12500000000E+03 0.  0.
         25    1    1    2    0    0 -0.63141409658E+02 -0.14350942639E+02 -0.22133032854E+02  0.14250494136E+03  0.12500000000E+03 0.  0.
</event>
<event>
 5    0  0.5597833E-005  0.4933424E+03  0.7546771E-02  0.1015531E+00
         21   -1    0    0  502  501  0.00000000000E+00  0.00000000000E+00  0.11466203400E+04  0.11466203400E+04  0.00000000000E+00 0. -1.
         21   -1    0    0  501  502 -0.00000000000E+00 -0.00000000000E+00 -0.21226447884E+03  0.21226447884E+03  0.00000000000E+00 0. -1.
         25    1    1    2    0    0 -0.24481397298E+03 -0.36894175511E+02  0.86881411406E+03  0.91200768985E+03  0.12500000000E+03 0.  0.
         25    1    1    2    0    0  0.23717835022E+03  0.23097407570E+02 -0.52568792663E+02  0.27418157854E+03  0.12500000000E+03 0.  0.
         25    1    1    2    0    0  0.76356227518E+01  0.13796767942E+02  0.11811053977E+03  0.17269555045E+03  0.12500000000E+03 0.  0.
</event>
<event>
 5    0  0.5597833E-005  0.3118181E+03  0.7546771E-02  0.1079478E+00
         21   -1    0    0  502  501  0.00000000000E+00  0.00000000000E+00  0.19320547157E+03  0.19320547157E+03  0.00000000000E+00 0. -1.
         21   -1    0    0  501  502 -0.00000000000E+00 -0.00000000000E+00 -0.50324948813E+03  0.50324948813E+03  0.00000000000E+00 0.  1.
         25    1    1    2    0    0 -0.35845874110E+01 -0.80597400672E+02 -0.16772586477E+03  0.22420025864E+03  0.12500000000E+03 0.  0.
         25    1    1    2    0    0  0.15099318384E+03 -0.60128716200E+02 -0.26956572536E+02  0.20679956693E+03  0.12500000000E+03 0.  0.
         25    1    1    2    0    0 -0.14740859643E+03  0.14072611687E+03 -0.11536157926E+03  0.26545513414E+03  0.12500000000E+03 0.  0.
</event>
<event>
 5    0  0.5701113E-005  0.2754268E+03  0.7546771E-02  0.1098213E+00
         21   -1    0    0  502  501  0.00000000000E+00  0.00000000000E+00  0.37219339974E+03  0.37219339974E+03  0.00000000000E+00 0. -1.
         21   -1    0    0  501  502 -0.00000000000E+00 -0.00000000000E+00 -0.20381861855E+03  0.20381861855E+03  0.00000000000E+00 0. -1.
         25    1    1    2    0    0  0.79203789025E+02 -0.21381737917E+02 -0.53566254094E+02  0.15882305403E+03  0.12500000000E+03 0.  0.
         25    1    1    2    0    0  0.15931967008E+02  0.64873974183E+02 -0.11773342153E+00  0.14173028597E+03  0.12500000000E+03 0.  0.
         25    1    1    2    0    0 -0.95135756033E+02 -0.43492236265E+02  0.22205876871E+03  0.27545867830E+03  0.12500000000E+03 0.  0.
</event>
<event>
 5    0  0.5597833E-005  0.3054000E+03  0.7546771E-02  0.1082572E+00
         21   -1    0    0  502  501  0.00000000000E+00  0.00000000000E+00  0.91157518166E+03  0.91157518166E+03  0.00000000000E+00 0. -1.
         21   -1    0    0  501  502 -0.00000000000E+00 -0.00000000000E+00 -0.10231647747E+03  0.10231647747E+03  0.00000000000E+00 0. -1.
         25    1    1    2    0    0  0.82429318645E+02 -0.33259159632E+02  0.47993532932E+03  0.50384887080E+03  0.12500000000E+03 0.  0.
         25    1    1    2    0    0 -0.14192652878E+03  0.14322125115E+02  0.47562530677E+02  0.19553888913E+03  0.12500000000E+03 0.  0.
         25    1    1    2    0    0  0.59497210135E+02  0.18937034518E+02  0.28176084419E+03  0.31450389919E+03  0.12500000000E+03 0.  0.
</event>
<event>
 5    0  0.5597833E-005  0.2222710E+03  0.7546771E-02  0.1132201E+00
         21   -1    0    0  502  501  0.00000000000E+00  0.00000000000E+00  0.35245447258E+02  0.35245447258E+02  0.00000000000E+00 0.  1.
         21   -1    0    0  501  502 -0.00000000000E+00 -0.00000000000E+00 -0.14017241010E+04  0.14017241010E+04  0.00000000000E+00 0.  1.
         25    1    1    2    0    0  0.31340333022E+00 -0.10039344545E+02 -0.36753378896E+03  0.38833873447E+03  0.12500000000E+03 0.  0.
         25    1    1    2    0    0  0.63112400956E+02  0.79883661090E+02 -0.55093488449E+03  0.57403729967E+03  0.12500000000E+03 0.  0.
         25    1    1    2    0    0 -0.63425804287E+02 -0.69844316545E+02 -0.44800998025E+03  0.47459351408E+03  0.12500000000E+03 0.  0.
</event>
<event>
 5    0  0.5597833E-005  0.2635338E+03  0.7546771E-02  0.1105038E+00
         21   -1    0    0  502  501  0.00000000000E+00  0.00000000000E+00  0.88458806496E+03  0.88458806496E+03  0.00000000000E+00 0.  1.
         21   -1    0    0  501  502 -0.00000000000E+00 -0.00000000000E+00 -0.78511162787E+02  0.78511162787E+02  0.00000000000E+00 0.  1.
         25    1    1    2    0    0  0.68834739742E+02  0.10605929462E+03  0.20902321222E+03  0.27441300738E+03  0.12500000000E+03 0.  0.
         25    1    1    2    0    0 -0.12760294461E+03 -0.87800565549E+02  0.29276455875E+03  0.35401629573E+03  0.12500000000E+03 0.  0.
         25    1    1    2    0    0  0.58768204866E+02 -0.18258729072E+02  0.30428913120E+03  0.33466992464E+03  0.12500000000E+03 0.  0.
</event>
<event>
 5    0  0.5597833E-005  0.2397315E+03  0.7546771E-02  0.1119972E+00
         21   -1    0    0  502  501  0.00000000000E+00  0.00000000000E+00  0.29624672495E+03  0.29624672495E+03  0.00000000000E+00 0.  1.
         21   -1    0    0  501  502 -0.00000000000E+00 -0.00000000000E+00 -0.19399778494E+03  0.19399778494E+03  0.00000000000E+00 0.  1.
         25    1    1    2    0    0 -0.11978423215E+03 -0.33298512144E+02  0.58774873692E+02  0.18584008976E+03  0.12500000000E+03 0.  0.
         25    1    1    2    0    0  0.70077510338E+02 -0.27307113120E+02 -0.12917019656E+02  0.14645267249E+03  0.12500000000E+03 0.  0.
         25    1    1    2    0    0  0.49706721814E+02  0.60605625264E+02  0.56391085976E+02  0.15795174765E+03  0.12500000000E+03 0.  0.
</event>
<event>
 5    0  0.5597833E-005  0.2280409E+03  0.7546771E-02  0.1128026E+00
         21   -1    0    0  502  501  0.00000000000E+00  0.00000000000E+00  0.68415333904E+03  0.68415333904E+03  0.00000000000E+00 0.  1.
         21   -1    0    0  501  502 -0.00000000000E+00 -0.00000000000E+00 -0.76010226800E+02  0.76010226800E+02  0.00000000000E+00 0.  1.
         25    1    1    2    0    0  0.79789984438E+02 -0.64766353619E+01  0.31270671981E+03  0.34614864009E+03  0.12500000000E+03 0.  0.
         25    1    1    2    0    0 -0.87940799797E+02  0.19438803876E+02  0.21529833459E+03  0.26474482855E+03  0.12500000000E+03 0.  0.
         25    1    1    2    0    0  0.81508153598E+01 -0.12962168515E+02  0.80138057834E+02  0.14927009720E+03  0.12500000000E+03 0.  0.
</event>
<event>
 5    0  0.7162539E-005  0.3340143E+03  0.7546771E-02  0.1069374E+00
         21   -1    0    0  502  501  0.00000000000E+00  0.00000000000E+00  0.39323856519E+03  0.39323856519E+03  0.00000000000E+00 0. -1.
         21   -1    0    0  501  502 -0.00000000000E+00 -0.00000000000E+00 -0.28370963400E+03  0.28370963400E+03  0.00000000000E+00 0. -1.
         25    1    1    2    0    0  0.37421137331E+02 -0.86316365263E+02  0.20590112910E+03  0.25859453087E+03  0.12500000000E+03 0.  0.
         25    1    1    2    0    0 -0.74418049428E+02  0.84870364901E+02  0.89960922251E+02  0.19094237992E+03  0.12500000000E+03 0.  0.
         25    1    1    2    0    0  0.36996912098E+02  0.14460003625E+01 -0.18633312015E+03  0.22741128839E+03  0.12500000000E+03 0.  0.
</event>
<event>
 5    0  0.5597833E-005  0.4701910E+03  0.7546771E-02  0.1021866E+00
         21   -1    0    0  502  501  0.00000000000E+00  0.00000000000E+00  0.71949642305E+03  0.71949642305E+03  0.00000000000E+00 0. -1.
         21   -1    0    0  501  502 -0.00000000000E+00 -0.00000000000E+00 -0.30726985549E+03  0.30726985549E+03  0.00000000000E+00 0. -1.
         25    1    1    2    0    0 -0.13282757894E+03  0.82686419266E+02 -0.34931418329E+02  0.20328653090E+03  0.12500000000E+03 0.  0.
         25    1    1    2    0    0 -0.15060122495E+03  0.18962256904E+03  0.23410231546E+03  0.35925804341E+03  0.12500000000E+03 0.  0.
         25    1    1    2    0    0  0.28342880389E+03 -0.27230898831E+03  0.21305567042E+03  0.46422170424E+03  0.12500000000E+03 0.  0.
</event>
<event>
 5    0  0.5597833E-005  0.2532673E+03  0.7546771E-02  0.1111257E+00
         21   -1    0    0  502  501  0.00000000000E+00  0.00000000000E+00  0.18856042601E+03  0.18856042601E+03  0.00000000000E+00 0. -1.
         21   -1    0    0  501  502 -0.00000000000E+00 -0.00000000000E+00 -0.34017923565E+03  0.34017923565E+03  0.00000000000E+00 0. -1.
         25    1    1    2    0    0 -0.13228596505E+02 -0.93779172641E+01 -0.10460761128E+03  0.16380077361E+03  0.12500000000E+03 0.  0.
         25    1    1    2    0    0 -0.89431878039E+01  0.10567766094E+03 -0.10578947971E+03  0.19510039120E+03  0.12500000000E+03 0.  0.
         25    1    1    2    0    0  0.22171784309E+02 -0.96299743681E+02  0.58778281342E+02  0.16983849684E+03  0.12500000000E+03 0.  0.
</event>
<event>
 5    0  0.5597833E-005  0.2447325E+03  0.7546771E-02  0.1116680E+00
         21   -1    0    0  502  501  0.00000000000E+00  0.00000000000E+00  0.41890772494E+03  0.41890772494E+03  0.00000000000E+00 0.  1.
         21   -1    0    0  501  502 -0.00000000000E+00 -0.00000000000E+00 -0.14297662998E+03  0.14297662998E+03  0.00000000000E+00 0.  1.
         25    1    1    2    0    0  0.66566953731E+02  0.11981269397E+02  0.34742100728E+02  0.14631036774E+03  0.12500000000E+03 0.  0.
         25    1    1    2    0    0 -0.11987167004E+03  0.46733030922E+02  0.79067042167E+02  0.19603517698E+03  0.12500000000E+03 0.  0.
         25    1    1    2    0    0  0.53304716307E+02 -0.58714300319E+02  0.16212195207E+03  0.21953881020E+03  0.12500000000E+03 0.  0.
</event>
<event>
 5    0  0.5597833E-005  0.4379073E+03  0.7546771E-02  0.1031391E+00
         21   -1    0    0  502  501  0.00000000000E+00  0.00000000000E+00  0.22719074237E+03  0.22719074237E+03  0.00000000000E+00 0. -1.
         21   -1    0    0  501  502 -0.00000000000E+00 -0.00000000000E+00 -0.84406082894E+03  0.84406082894E+03  0.00000000000E+00 0. -1.
         25    1    1    2    0    0  0.31315704096E+02  0.22461256725E+03 -0.28633016066E+03  0.38605885509E+03  0.12500000000E+03 0.  0.
         25    1    1    2    0    0 -0.16583125825E+03 -0.15657413733E+03  0.42833150321E+02  0.26358138299E+03  0.12500000000E+03 0.  0.
         25    1    1    2    0    0  0.13451555415E+03 -0.68038429921E+02 -0.37337307623E+03  0.42161133323E+03  0.12500000000E+03 0.  0.
</event>
<event>
 5    0  0.6036703E-005  0.3045430E+03  0.7546771E-02  0.1082991E+00
         21   -1    0    0  502  501  0.00000000000E+00  0.00000000000E+00  0.21988415089E+03  0.21988415089E+03  0.00000000000E+00 0. -1.
         21   -1    0    0  501  502 -0.00000000000E+00 -0.00000000000E+00 -0.42179675208E+03  0.42179675208E+03  0.00000000000E+00 0. -1.
         25    1    1    2    0    0 -0.58074419726E+02 -0.11456540653E+03 -0.23422753287E+03  0.29493288687E+03  0.12500000000E+03 0.  0.
         25    1    1    2    0    0 -0.30991876826E+02  0.12745315146E+02  0.85413330810E+02  0.15505926792E+03  0.12500000000E+03 0.  0.
         25    1    1    2    0    0  0.89066296552E+02  0.10182009139E+03 -0.53098399125E+02  0.19168874819E+03  0.12500000000E+03 0.  0.
</event>
<event>
 5    0  0.5597833E-005  0.2377848E+03  0.7546771E-02  0.1121277E+00
         21   -1    0    0  502  501  0.00000000000E+00  0.00000000000E+00  0.16563596243E+03  0.16563596243E+03  0.00000000000E+00 0.  1.
         21   -1    0    0  501  502 -0.00000000000E+00 -0.00000000000E+00 -0.34136084827E+03  0.34136084827E+03  0.00000000000E+00 0.  1.
         25    1    1    2    0    0  0.81923876679E+01  0.30368049388E+02 -0.11804271140E+03  0.17478104976E+03  0.12500000000E+03 0.  0.
         25    1    1    2    0    0  0.17692686542E+02 -0.93895224452E+02 -0.96333051080E+02  0.18448414854E+03  0.12500000000E+03 0.  0.
         25    1    1    2    0    0 -0.25885074210E+02  0.63527175064E+02  0.38650876642E+02  0.14773161240E+03  0.12500000000E+03 0.  0.
</event>
<event>
 5    0  0.5597833E-005  0.3652950E+03  0.7546771E-02  0.1056507E+00
         21   -1    0    0  502  501  0.00000000000E+00  0.00000000000E+00  0.16863318217E+04  0.16863318217E+04  0.00000000000E+00 0.  1.
         21   -1    0    0  501  502 -0.00000000000E+00 -0.00000000000E+00 -0.79130585382E+02  0.79130585382E+02  0.00000000000E+00 0.  1.
         25    1    1    2    0    0 -0.13325995277E+03 -0.20061646344E+02  0.60122946765E+03  0.62869909928E+03  0.12500000000E+03 0.  0.
         25    1    1    2    0    0 -0.13081968845E+03 -0.18532749071E+02  0.64822926399E+03  0.67326327121E+03  0.12500000000E+03 0.  0.
         25    1    1    2    0    0  0.26407964123E+03  0.38594395415E+02  0.35774250471E+03  0.46350003662E+03  0.12500000000E+03 0.  0.
</event>
<event>
 5    0  0.5597833E-005  0.2220830E+03  0.7546771E-02  0.1132340E+00
         21   -1    0    0  502  501  0.00000000000E+00  0.00000000000E+00  0.40886463567E+03  0.40886463567E+03  0.00000000000E+00 0. -1.
         21   -1    0    0  501  502 -0.00000000000E+00 -0.00000000000E+00 -0.12062881635E+03  0.12062881635E+03  0.00000000000E+00 0. -1.
         25    1    1    2    0    0  0.13222236120E+02  0.46523102380E+02  0.13258230789E+02  0.13468484424E+03  0.12500000000E+03 0.  0.
         25    1    1    2    0    0  0.11953922883E+02  0.36648330014E+02  0.11871192059E+03  0.17664517105E+03  0.12500000000E+03 0.  0.
         25    1    1    2    0    0 -0.25176159003E+02 -0.83171432394E+02  0.15626566795E+03  0.21816343673E+03  0.12500000000E+03 0.  0.
</event>
<event>
 5    0  0.5597833E-005  0.2158156E+03  0.7546771E-02  0.1137042E+00
         21   -1    0    0  502  501  0.00000000000E+00  0.00000000000E+00  0.16723328730E+03  0.16723328730E+03  0.00000000000E+00 0.  1.
         21   -1    0    0  501  502 -0.00000000000E+00 -0.00000000000E+00 -0.27851137512E+03  0.27851137512E+03  0.00000000000E+00 0.  1.
         25    1    1    2    0    0  0.45493401464E+02  0.66852153863E+02 -0.19829199458E+02  0.15019007026E+03  0.12500000000E+03 0.  0.
         25    1    1    2    0    0  0.21930420787E+01 -0.35083312587E+02  0.10115225326E+01  0.12985249876E+03  0.12500000000E+03 0.  0.
         25    1    1    2    0    0 -0.47686443542E+02 -0.31768841276E+02 -0.92460410897E+02  0.16570209340E+03  0.12500000000E+03 0.  0.
</event>
<event>
 5    0  0.5597833E-005  0.2993600E+03  0.7546771E-02  0.1085561E+00
         21   -1    0    0  502  501  0.00000000000E+00  0.00000000000E+00  0.10763043385E+04  0.10763043385E+04  0.00000000000E+00 0.  1.
         21   -1    0    0  501  502 -0.00000000000E+00 -0.00000000000E+00 -0.83263100415E+02  0.83263100415E+02  0.00000000000E+00 0.  1.
         25    1    1    2    0    0  0.73715504454E+02 -0.14430026291E+02  0.28795090996E+03  0.32277380284E+03  0.12500000000E+03 0.  0.
         25    1    1    2    0    0 -0.21977006024E+03 -0.55073288106E+00  0.46043326763E+03  0.52528371060E+03  0.12500000000E+03 0.  0.
         25    1    1    2    0    0  0.14605455579E+03  0.14980759172E+02  0.24465706047E+03  0.31150992545E+03  0.12500000000E+03 0.  0.
</event>
<event>
 5    0  0.5597833E-005  0.3287734E+03  0.7546771E-02  0.1071681E+00
         21   -1    0    0  502  501  0.00000000000E+00  0.00000000000E+00  0.32549830480E+03  0.32549830480E+03  0.00000000000E+00 0.  1.
         21   -1    0    0  501  502 -0.00000000000E+00 -0.00000000000E+00 -0.33208152652E+03  0.33208152652E+03  0.00000000000E+00 0.  1.
         25    1    1    2    0    0 -0.55162495799E+02 -0.11919960446E+02  0.22867325507E+03  0.26664854019E+03  0.12500000000E+03 0.  0.
         25    1    1    2    0    0  0.38258214248E+02 -0.24313764335E+02 -0.22233061294E+03  0.25905742904E+03  0.12500000000E+03 0.  0.
         25    1    1    2    0    0  0.16904281551E+02  0.36233724781E+02 -0.12925863851E+02  0.13187386209E+03  0.12500000000E+03 0.  0.
</event>
<event>
 5    0  0.5597833E-005  0.3333204E+03  0.7546771E-02  0.1069677E+00
         21   -1    0    0  502  501  0.00000000000E+00  0.00000000000E+00  0.76480283809E+02  0.76480283809E+02  0.00000000000E+00 0. -1.
         21   -1    0    0  501  502 -0.00000000000E+00 -0.00000000000E+00 -0.14526946214E+04  0.14526946214E+04  0.00000000000E+00 0. -1.
         25    1    1    2    0    0  0.76125953735E+02 -0.10130706382E+03 -0.45128425482E+03  0.48511932621E+03  0.12500000000E+03 0.  0.
         25    1    1    2    0    0  0.57002637188E+02 -0.12981278630E+03 -0.33368843457E+03  0.38350180117E+03  0.12500000000E+03 0.  0.
         25    1    1    2    0    0 -0.13312859092E+03  0.23111985012E+03 -0.59124164819E+03  0.66055377783E+03  0.12500000000E+03 0.  0.
</event>
<event>
 5    0  0.5597833E-005  0.2965251E+03  0.7546771E-02  0.1086991E+00
         21   -1    0    0  502  501  0.00000000000E+00  0.00000000000E+00  0.56386279322E+03  0.56386279322E+03  0.00000000000E+00 0.  1.
         21   -1    0    0  501  502 -0.00000000000E+00 -0.00000000000E+00 -0.15593707948E+03  0.15593707948E+03  0.00000000000E+00 0.  1.
         25    1    1    2    0    0  0.41600032182E+02 -0.63767947690E+02 -0.63357208595E+02  0.15948683241E+03  0.12500000000E+03 0.  0.
         25    1    1    2    0    0  0.30705470084E+02  0.67210234992E+02  0.15381354387E+03  0.21152694357E+03  0.12500000000E+03 0.  0.
         25    1    1    2    0    0 -0.72305502266E+02 -0.34422873028E+01  0.31746937847E+03  0.34878609672E+03  0.12500000000E+03 0.  0.
</event>
<event>
 5    0  0.5597833E-005  0.2667905E+03  0.7546771E-02  0.1103131E+00
         21   -1    0    0  502  501  0.00000000000E+00  0.00000000000E+00  0.16273734051E+03  0.16273734051E+03  0.00000000000E+00 0.  1.
         21   -1    0    0  501  502 -0.00000000000E+00 -0.00000000000E+00 -0.43737470250E+03  0.43737470250E+03  0.00000000000E+00 0.  1.
         25    1    1    2    0    0 -0.57172027756E+02  0.13053744046E+03 -0.11993945071E+03  0.22431927237E+03  0.12500000000E+03 0.  0.
         25    1    1    2    0    0  0.12250833803E+03 -0.66036589886E+02 -0.76565144825E+02  0.20212952652E+03  0.12500000000E+03 0.  0.
         25    1    1    2    0    0 -0.65336310274E+02 -0.64500850571E+02 -0.78132766447E+02  0.17366324412E+03  0.12500000000E+03 0.  0.
</event>
<event>
 5    0  0.6972224E-005  0.2726420E+03  0.7546771E-02  0.1099777E+00
         21   -1    0    0  502  501  0.00000000000E+00  0.00000000000E+00  0.14237394747E+03  0.14237394747E+03  0.00000000000E+00 0.  1.
         21   -1    0    0  501  502 -0.00000000000E+00 -0.00000000000E+00 -0.52210164283E+03  0.52210164283E+03  0.00000000000E+00 0.  1.
         25    1    1    2    0    0  0.95509033970E+02 -0.14335530236E+03 -0.11932390523E+03  0.24399982099E+03  0.12500000000E+03 0.  0.
         25    1    1    2    0    0 -0.87991708324E+02  0.29247550758E+02 -0.16156489344E+03  0.22433496106E+03  0.12500000000E+03 0.  0.
         25    1    1    2    0    0 -0.75173256462E+01  0.11410775160E+03 -0.98838896687E+02  0.19614080824E+03  0.12500000000E+03 0.  0.
</event>
<event>
 5    0  0.5597833E-005  0.3648039E+03  0.7546771E-02  0.1056698E+00
         21   -1    0    0  502  501  0.00000000000E+00  0.00000000000E+00  0.21995921313E+03  0.21995921313E+03  0.00000000000E+00 0. -1.
         21   -1    0    0  501  502 -0.00000000000E+00 -0.00000000000E+00 -0.60502999424E+03  0.60502999424E+03  0.00000000000E+00 0. -1.
         25    1    1    2    0    0 -0.57844494620E+02 -0.45145820521E+02 -0.47094398014E+03  0.49274472407E+03  0.12500000000E+03 0.  0.
         25    1    1    2    0    0  0.54380329576E+02  0.22882052179E+02  0.13765876448E+03  0.19507881483E+03  0.12500000000E+03 0.  0.
         25    1    1    2    0    0  0.34641650438E+01  0.22263768341E+02 -0.51785565450E+02  0.13716566848E+03  0.12500000000E+03 0.  0.
</event>
<event>
 5    0  0.5597833E-005  0.3423499E+03  0.7546771E-02  0.1065799E+00
         21   -1    0    0  502  501  0.00000000000E+00  0.00000000000E+00  0.19020894151E+03  0.19020894151E+03  0.00000000000E+00 0.  1.
         21   -1    0    0  501  502 -0.00000000000E+00 -0.00000000000E+00 -0.61618265141E+03  0.61618265141E+03  0.00000000000E+00 0.  1.
         25    1    1    2    0    0 -0.17201222105E+01 -0.21231377382E+03 -0.25044025791E+03  0.35131954138E+03  0.12500000000E+03 0.  0.
         25    1    1    2    0    0  0.29489326897E+02  0.57889493233E+02  0.53422753881E+02  0.15066454281E+03  0.12500000000E+03 0.  0.
         25    1    1    2    0    0 -0.27769204686E+02  0.15442428059E+03 -0.22895620587E+03  0.30440750873E+03  0.12500000000E+03 0.  0.
</event>
<event>
 5    0  0.5597833E-005  0.2777969E+03  0.7546771E-02  0.1096898E+00
         21   -1    0    0  502  501  0.00000000000E+00  0.00000000000E+00  0.16721687339E+03  0.16721687339E+03  0.00000000000E+00 0.  1.
         21   -1    0    0  501  502 -0.00000000000E+00 -0.00000000000E+00 -0.46150301121E+03  0.46150301121E+03  0.00000000000E+00 0.  1.
         25    1    1    2    0    0 -0.11151731389E+03  0.93927556456E+02 -0.75847134645E+02  0.20648555638E+03  0.12500000000E+03 0.  0.
         25    1    1    2    0    0 -0.54498920335E+02 -0.50203008904E+02 -0.59688431157E+02  0.15709291274E+03  0.12500000000E+03 0.  0.
         25    1    1    2    0    0  0.16601623423E+03 -0.43724547552E+02 -0.15875057201E+03  0.26514141547E+03  0.12500000000E+03 0.  0.
</event>
<event>
 5    0  0.5597833E-005  0.3283734E+03  0.7546771E-02  0.1071859E+00
         21   -1    0    0  502  501  0.00000000000E+00  0.00000000000E+00  0.22114521550E+03  0.22114521550E+03  0.00000000000E+00 0.  1.
         21   -1    0    0  501  502 -0.00000000000E+00 -0.00000000000E+00 -0.48759397893E+03  0.48759397893E+03  0.00000000000E+00 0.  1.
         25    1    1    2    0    0 -0.46041341438E+02 -0.15197571581E+03 -0.22808419751E+03  0.30473566327E+03  0.12500000000E+03 0.  0.
         25    1    1    2    0    0  0.48395736532E+02  0.12148335464E+02  0.10270872956E+03  0.16930390574E+03  0.12500000000E+03 0.  0.
         25    1    1    2    0    0 -0.23543950938E+01  0.13982738035E+03 -0.14107329549E+03  0.23469962542E+03  0.12500000000E+03 0.  0.
</event>
<event>
 5    0  0.5597833E-005  0.4778120E+03  0.7546771E-02  0.1019738E+00
         21   -1    0    0  502  501  0.00000000000E+00  0.00000000000E+00  0.17637395227E+04  0.17637395227E+04  0.00000000000E+00 0. -1.
         21   -1    0    0  501  502 -0.00000000000E+00 -0.00000000000E+00 -0.12944333770E+03  0.12944333770E+03  0.00000000000E+00 0. -1.
         25    1    1    2    0    0  0.11442276364E+03 -0.29974520499E+03  0.32818171012E+03  0.47567635175E+03  0.12500000000E+03 0.  0.
         25    1    1    2    0    0 -0.17047027465E+03  0.11731184452E+02  0.71695419982E+03  0.74756007108E+03  0.12500000000E+03 0.  0.
         25    1    1    2    0    0  0.56047511014E+02  0.28801402054E+03  0.58916027503E+03  0.66994643755E+03  0.12500000000E+03 0.  0.
</event>
<event>
 5    0  0.5597833E-005  0.3462045E+03  0.7546771E-02  0.1064184E+00
         21   -1    0    0  502  501  0.00000000000E+00  0.00000000000E+00  0.17324102824E+03  0.17324102824E+03  0.00000000000E+00 0.  1.
         21   -1    0    0  501  502 -0.00000000000E+00 -0.00000000000E+00 -0.69185434159E+03  0.69185434159E+03  0.00000000000E+00 0.  1.
         25    1    1    2    0    0  0.17906184732E+03 -0.38385800475E+02 -0.19886124211E+03  0.29783788956E+03  0.12500000000E+03 0.  0.
         25    1    1    2    0    0  0.69625603331E+02  0.58635387647E+02 -0.22405600082E+03  0.27223505437E+03  0.12500000000E+03 0.  0.
         25    1    1    2    0    0 -0.24868745065E+03 -0.20249587172E+02 -0.95696070413E+02  0.29502242590E+03  0.12500000000E+03 0.  0.
</event>
<event>
 5    0  0.5597833E-005  0.2282375E+03  0.7546771E-02  0.1127886E+00
         21   -1    0    0  502  501  0.00000000000E+00  0.00000000000E+00  0.21955744927E+03  0.21955744927E+03  0.00000000000E+00 0. -1.
         21   -1    0    0  501  502 -0.00000000000E+00 -0.00000000000E+00 -0.23726073785E+03  0.23726073785E+03  0.00000000000E+00 0. -1.
         25    1    1    2    0    0 -0.89592233839E+02  0.21569863493E+02 -0.16485414339E+02  0.15616912711E+03  0.12500000000E+03 0.  0.
         25    1    1    2    0    0  0.61708206974E+02 -0.57707833448E+02 -0.49958446038E+02  0.15893062379E+03  0.12500000000E+03 0.  0.
         25    1    1    2    0    0  0.27884026864E+02  0.36137969955E+02  0.48740571796E+02  0.14171843622E+03  0.12500000000E+03 0.  0.
</event>
<event>
 5    0  0.5597833E-005  0.4720193E+03  0.7546771E-02  0.1021352E+00
         21   -1    0    0  502  501  0.00000000000E+00  0.00000000000E+00  0.52559584900E+03  0.52559584900E+03  0.00000000000E+00 0. -1.
         21   -1    0    0  501  502 -0.00000000000E+00 -0.00000000000E+00 -0.42390408938E+03  0.42390408938E+03  0.00000000000E+00 0. -1.
         25    1    1    2    0    0 -0.13560733709E+03  0.22486279476E+03  0.30484072087E+03  0.42131400575E+03  0.12500000000E+03 0.  0.
         25    1    1    2    0    0 -0.15678181466E+02 -0.25728452252E+03 -0.95204207825E+02  0.30187741235E+03  0.12500000000E+03 0.  0.
         25    1    1    2    0    0  0.15128551856E+03  0.32421727757E+02 -0.10794475342E+03  0.22630852027E+03  0.12500000000E+03 0.  0.
</event>
<event>
 5    0  0.5597833E-005  0.3039669E+03  0.7546771E-02  0.1083274E+00
         21   -1    0    0  502  501  0.00000000000E+00  0.00000000000E+00  0.11178465193E+04  0.11178465193E+04  0.00000000000E+00 0. -1.
         21   -1    0    0  501  502 -0.00000000000E+00 -0.00000000000E+00 -0.82655250458E+02  0.82655250458E+02  0.00000000000E+00 0. -1.
         25    1    1    2    0    0 -0.14981210566E+02  0.61760004122E+02  0.29504653009E+03  0.32667443992E+03  0.12500000000E+03 0.  0.
         25    1    1    2    0    0 -0.18169113000E+03 -0.29367432826E+02  0.43416535805E+03  0.48785107458E+03  0.12500000000E+03 0.  0.
         25    1    1    2    0    0  0.19667234057E+03 -0.32392571296E+02  0.30597938075E+03  0.38597625531E+03  0.12500000000E+03 0.  0.
</event>
<event>
 5    0  0.5597833E-005  0.3441039E+03  0.7546771E-02  0.1065061E+00
         21   -1    0    0  502  501  0.00000000000E+00  0.00000000000E+00  0.20913936889E+03  0.20913936889E+03  0.00000000000E+00 0. -1.
         21   -1    0    0  501  502 -0.00000000000E+00 -0.00000000000E+00 -0.56616535146E+03  0.56616535146E+03  0.00000000000E+00 0. -1.
         25    1    1    2    0    0  0.92222064955E+01  0.20371193841E+02 -0.71060850051E+02  0.14551521928E+03  0.12500000000E+03 0.  0.
         25    1    1    2    0    0  0.55716097735E+02  0.16757006849E+03  0.47893629504E+02  0.22159154124E+03  0.12500000000E+03 0.  0.
         25    1    1    2    0    0 -0.64938304230E+02 -0.18794126233E+03 -0.33385876202E+03  0.40819795984E+03  0.12500000000E+03 0.  0.
</event>
<event>
 5    0  0.5597833E-005  0.3010284E+03  0.7546771E-02  0.1084728E+00
         21   -1    0    0  502  501  0.00000000000E+00  0.00000000000E+00  0.19834112846E+04  0.19834112846E+04  0.00000000000E+00 0. -1.
         21   -1    0    0  501  502 -0.00000000000E+00 -0.00000000000E+00 -0.45687999679E+02  0.45687999679E+02  0.00000000000E+00 0. -1.
         25    1    1    2    0    0 -0.69664082129E+02  0.19317262298E+03  0.11098707799E+04  0.11356086010E+04  0.12500000000E+03 0.  0.
         25    1    1    2    0    0  0.46584135524E+02 -0.45830976587E+02  0.32435519864E+03  0.35369740596E+03  0.12500000000E+03 0.  0.
         25    1    1    2    0    0  0.23079946606E+02 -0.14734164640E+03  0.50349730637E+03  0.53979327730E+03  0.12500000000E+03 0.  0.
</event>
<event>
 5    0  0.5597833E-005  0.3826054E+03  0.7546771E-02  0.1049975E+00
         21   -1    0    0  502  501  0.00000000000E+00  0.00000000000E+00  0.29448160284E+03  0.29448160284E+03  0.00000000000E+00 0.  1.
         21   -1    0    0  501  502 -0.00000000000E+00 -0.00000000000E+00 -0.49710040354E+03  0.49710040354E+03  0.00000000000E+00 0.  1.
         25    1    1    2    0    0  0.67375062750E+02  0.84541705659E+02  0.13363162413E+03  0.21253025677E+03  0.12500000000E+03 0.  0.
         25    1    1    2    0    0 -0.12460118893E+02 -0.20890220739E+03 -0.30710239323E+03  0.39208706526E+03  0.12500000000E+03 0.  0.
         25    1    1    2    0    0 -0.54914943857E+02  0.12436050173E+03 -0.29148031595E+02  0.18696468435E+03  0.12500000000E+03 0.  0.
</event>
<event>
 5    0  0.5597833E-005  0.4058433E+03  0.7546771E-02  0.1041775E+00
         21   -1    0    0  502  501  0.00000000000E+00  0.00000000000E+00  0.16364140575E+03  0.16364140575E+03  0.00000000000E+00 0.  1.
         21   -1    0    0  501  502 -0.00000000000E+00 -0.00000000000E+00 -0.10065226962E+04  0.10065226962E+04  0.00000000000E+00 0.  1.
         25    1    1    2    0    0  0.19241816557E+03  0.17916543755E+03 -0.10085089299E+03  0.30809236776E+03  0.12500000000E+03 0.  0.
         25    1    1    2    0    0 -0.22342053837E+03 -0.13175160309E+03 -0.39425860567E+03  0.48820085009E+03  0.12500000000E+03 0.  0.
         25    1    1    2    0    0  0.31002372805E+02 -0.47413834458E+02 -0.34777179174E+03  0.37387088406E+03  0.12500000000E+03 0.  0.
</event>
<event>
 5    0  0.5597833E-005  0.2624244E+03  0.7546771E-02  0.1105695E+00
         21   -1    0    0  502  501  0.00000000000E+00  0.00000000000E+00  0.87385955301E+03  0.87385955301E+03  0.00000000000E+00 0.  1.
         21   -1    0    0  501  502 -0.00000000000E+00 -0.00000000000E+00 -0.78807385542E+02  0.78807385542E+02  0.00000000000E+00 0.  1.
         25    1    1    2    0    0  0.67243898883E+01 -0.89046498311E+02  0.53616151583E+03  0.55773530222E+03  0.12500000000E+03 0.  0.
         25    1    1    2    0    0  0.43863057559E+02 -0.58543533691E+01  0.10161887511E+03  0.16706177615E+03  0.12500000000E+03 0.  0.
         25    1    1    2    0    0 -0.50587447447E+02  0.94900851680E+02  0.15727177652E+03  0.22786986018E+03  0.12500000000E+03 0.  0.
</event>
<event>
 5    0  0.5597833E-005  0.3789574E+03  0.7546771E-02  0.1051320E+00
         21   -1    0    0  502  501  0.00000000000E+00  0.00000000000E+00  0.56068702441E+03  0.56068702441E+03  0.00000000000E+00 0.  1.
         21   -1    0    0  501  502 -0.00000000000E+00 -0.00000000000E+00 -0.25612989956E+03  0.25612989956E+03  0.00000000000E+00 0.  1.
         25    1    1    2    0    0 -0.18320133606E+03 -0.80211383227E+02 -0.51745214005E+02  0.24145219549E+03  0.12500000000E+03 0.  0.
         25    1    1    2    0    0  0.41596188876E+02 -0.11414728168E+02 -0.30100312767E+02  0.13561551451E+03  0.12500000000E+03 0.  0.
         25    1    1    2    0    0  0.14160514719E+03  0.91626111395E+02  0.38640265162E+03  0.43974921396E+03  0.12500000000E+03 0.  0.
</event>
<event>
 5    0  0.5597833E-005  0.4984422E+03  0.7546771E-02  0.1014186E+00
         21   -1    0    0  502  501  0.00000000000E+00  0.00000000000E+00  0.53424571351E+03  0.53424571351E+03  0.00000000000E+00 0.  1.
         21   -1    0    0  501  502 -0.00000000000E+00 -0.00000000000E+00 -0.46503812251E+03  0.46503812251E+03  0.00000000000E+00 0.  1.
         25    1    1    2    0    0  0.76636873585E+02 -0.58426120490E+02 -0.14841768937E+03  0.21665556182E+03  0.12500000000E+03 0.  0.
         25    1    1    2    0    0 -0.17259278508E+03  0.13413435011E+02 -0.22526835207E+03  0.31038527695E+03  0.12500000000E+03 0.  0.
         25    1    1    2    0    0  0.95955911500E+02  0.45012685479E+02  0.44289363243E+03  0.47224299725E+03  0.12500000000E+03 0.  0.
</event>
<event>
 5    0  0.5597833E-005  0.2196908E+03  0.7546771E-02  0.1134114E+00
         21   -1    0    0  502  501  0.00000000000E+00  0.00000000000E+00  0.46037462173E+02  0.46037462173E+02  0.00000000000E+00 0.  1.
         21   -1    0    0  501  502 -0.00000000000E+00 -0.00000000000E+00 -0.10483643209E+04  0.10483643209E+04  0.00000000000E+00 0.  1.
         25    1    1    2    0    0 -0.10575060879E+02 -0.50135836672E+02 -0.26510470020E+03  0.29754148635E+03  0.12500000000E+03 0.  0.
         25    1    1    2    0    0  0.18377806393E+02 -0.36920165765E+02 -0.48090461628E+03  0.49859311304E+03  0.12500000000E+03 0.  0.
         25    1    1    2    0    0 -0.78027455146E+01  0.87056002437E+02 -0.25631754222E+03  0.29826718366E+03  0.12500000000E+03 0.  0.
</event>
<event>
 5    0  0.5597833E-005  0.3053081E+03  0.7546771E-02  0.1082617E+00
         21   -1    0    0  502  501  0.00000000000E+00  0.00000000000E+00  0.43178533686E+03  0.43178533686E+03  0.00000000000E+00 0. -1.
         21   -1    0    0  501  502 -0.00000000000E+00 -0.00000000000E+00 -0.21587815157E+03  0.21587815157E+03  0.00000000000E+00 0. -1.
         25    1    1    2    0    0  0.10416319992E+03 -0.16183993206E+02  0.26317150243E+03  0.30983242817E+03  0.12500000000E+03 0.  0.
         25    1    1    2    0    0 -0.97638589540E+02  0.95597987207E+02 -0.39692026978E+02  0.18940096708E+03  0.12500000000E+03 0.  0.
         25    1    1    2    0    0 -0.65246103798E+01 -0.79413994001E+02 -0.75722901677E+01  0.14843009318E+03  0.12500000000E+03 0.  0.
</event>
<event>
 5    0  0.5597833E-005  0.3013015E+03  0.7546771E-02  0.1084592E+00
         21   -1    0    0  502  501  0.00000000000E+00  0.00000000000E+00  0.37406778028E+02  0.37406778028E+02  0.00000000000E+00 0.  1.
         21   -1    0    0  501  502 -0.00000000000E+00 -0.00000000000E+00 -0.24269017829E+04  0.24269017829E+04  0.00000000000E+00 0.  1.
         25    1    1    2    0    0  0.48854678742E+01  0.25121948075E+02 -0.10661812729E+04  0.10737888465E+04  0.12500000000E+03 0.  0.
         25    1    1    2    0    0  0.13122622059E+03 -0.84104607941E+02 -0.93902636728E+03  0.96004657413E+03  0.12500000000E+03 0.  0.
         25    1    1    2    0    0 -0.13611168847E+03  0.58982659865E+02 -0.38428736467E+03  0.43047314033E+03  0.12500000000E+03 0.  0.
</event>
<event>
 5    0  0.5597833E-005  0.3298283E+03  0.7546771E-02  0.1071213E+00
         21   -1    0    0  502  501  0.00000000000E+00  0.00000000000E+00  0.27715036708E+04  0.27715036708E+04  0.00000000000E+00 0. -1.
         21   -1    0    0  501  502 -0.00000000000E+00 -0.00000000000E+00 -0.39251868647E+02  0.39251868647E+02  0.00000000000E+00 0. -1.
         25    1    1    2    0    0  0.91268423447E+02  0.23005555398E+02  0.17149872997E+04  0.17221108033E+04  0.12500000000E+03 0.  0.
         25    1    1    2    0    0 -0.52336699606E+02  0.12739205362E+03  0.43171745811E+03  0.47007747137E+03  0.12500000000E+03 0.  0.
         25    1    1    2    0    0 -0.38931723841E+02 -0.15039760901E+03  0.58554704429E+03  0.61856726473E+03  0.12500000000E+03 0.  0.
</event>
<event>
 5    0  0.5597833E-005  0.3388400E+03  0.7546771E-02  0.1067291E+00
         21   -1    0    0  502  501  0.00000000000E+00  0.00000000000E+00  0.83663499399E+02  0.83663499399E+02  0.00000000000E+00 0.  1.
         21   -1    0    0  501  502 -0.00000000000E+00 -0.00000000000E+00 -0.13723136858E+04  0.13723136858E+04  0.00000000000E+00 0.  1.
         25    1    1    2    0    0  0.46994041335E+02  0.14268339931E+03 -0.38711683952E+03  0.43364898224E+03  0.12500000000E+03 0.  0.
         25    1    1    2    0    0 -0.12356699677E+03 -0.34215503241E+02 -0.78671372775E+03  0.80683517077E+03  0.12500000000E+03 0.  0.
         25    1    1    2    0    0  0.76572955437E+02 -0.10846789607E+03 -0.11481961911E+03  0.21549303217E+03  0.12500000000E+03 0.  0.
</event>
<event>
 5    0  0.5597833E-005  0.3165084E+03  0.7546771E-02  0.1077268E+00
         21   -1    0    0  502  501  0.00000000000E+00  0.00000000000E+00  0.21615874786E+03  0.21615874786E+03  0.00000000000E+00 0. -1.
         21   -1    0    0  501  502 -0.00000000000E+00 -0.00000000000E+00 -0.46344444495E+03  0.46344444495E+03  0.00000000000E+00 0. -1.
         25    1    1    2    0    0  0.19382023968E+03 -0.11975643569E+03 -0.81660577797E+02  0.27239922754E+03  0.12500000000E+03 0.  0.
         25    1    1    2    0    0 -0.16459328370E+03  0.46690762019E+02 -0.45266870431E+02  0.21666810069E+03  0.12500000000E+03 0.  0.
         25    1    1    2    0    0 -0.29226955985E+02  0.73065673668E+02 -0.12035824887E+03  0.19053586459E+03  0.12500000000E+03 0.  0.
</event>
<event>
 5    0  0.5597833E-005  0.2997391E+03  0.7546771E-02  0.1085371E+00
         21   -1    0    0  502  501  0.00000000000E+00  0.00000000000E+00  0.27453290991E+03  0.27453290991E+03  0.00000000000E+00 0.  1.
         21   -1    0    0  501  502 -0.00000000000E+00 -0.00000000000E+00 -0.32725967034E+03  0.32725967034E+03  0.00000000000E+00 0.  1.
         25    1    1    2    0    0 -0.50982717008E+02  0.12072413289E+03 -0.24966170693E+02  0.18281647457E+03  0.12500000000E+03 0.  0.
         25    1    1    2    0    0  0.16912250889E+03 -0.87200639617E+02  0.39902465432E+02  0.23113541769E+03  0.12500000000E+03 0.  0.
         25    1    1    2    0    0 -0.11813979189E+03 -0.33523493272E+02 -0.67663055167E+02  0.18784068799E+03  0.12500000000E+03 0.  0.
</event>
<event>
 5    0  0.5597833E-005  0.3084458E+03  0.7546771E-02  0.1081093E+00
         21   -1    0    0  502  501  0.00000000000E+00  0.00000000000E+00  0.81450093961E+02  0.81450093961E+02  0.00000000000E+00 0. -1.
         21   -1    0    0  501  502 -0.00000000000E+00 -0.00000000000E+00 -0.11680628613E+04  0.11680628613E+04  0.00000000000E+00 0. -1.
         25    1    1    2    0    0  0.63285292440E+02  0.50519244376E+01 -0.25462572807E+03  0.29067131192E+03  0.12500000000E+03 0.  0.
         25    1    1    2    0    0 -0.14749019921E+03 -0.13749953930E+03 -0.63411252180E+03  0.67704000803E+03  0.12500000000E+03 0.  0.
         25    1    1    2    0    0  0.84204906766E+02  0.13244761486E+03 -0.19787451750E+03  0.28180163534E+03  0.12500000000E+03 0.  0.
</event>
<event>
 5    0  0.5597833E-005  0.3190282E+03  0.7546771E-02  0.1076097E+00
         21   -1    0    0  502  501  0.00000000000E+00  0.00000000000E+00  0.31698849807E+03  0.31698849807E+03  0.00000000000E+00 0. -1.
         21   -1    0    0  501  502 -0.00000000000E+00 -0.00000000000E+00 -0.32108108125E+03  0.32108108125E+03  0.00000000000E+00 0. -1.
         25    1    1    2    0    0 -0.13197610473E+03  0.38074553062E+02  0.19482116452E+03  0.26916101121E+03  0.12500000000E+03 0.  0.
         25    1    1    2    0    0  0.12324533171E+03 -0.52349190097E+02 -0.10049263366E+03  0.20893448474E+03  0.12500000000E+03 0.  0.
         25    1    1    2    0    0  0.87307730147E+01  0.14274637036E+02 -0.98421114048E+02  0.15997408337E+03  0.12500000000E+03 0.  0.
</event>
<event>
 5    0  0.5597833E-005  0.5795516E+03  0.7546771E-02  0.9948762E-01
         21   -1    0    0  502  501  0.00000000000E+00  0.00000000000E+00  0.17187826123E+04  0.17187826123E+04  0.00000000000E+00 0. -1.
         21   -1    0    0  501  502 -0.00000000000E+00 -0.00000000000E+00 -0.19541744809E+03  0.19541744809E+03  0.00000000000E+00 0. -1.
         25    1    1    2    0    0  0.16059332988E+02  0.27067077153E+03  0.88135385325E+02  0.31130919498E+03  0.12500000000E+03 0.  0.
         25    1    1    2    0    0 -0.15096888070E+03 -0.37015055101E+03  0.53906727765E+03  0.68265772037E+03  0.12500000000E+03 0.  0.
         25    1    1    2    0    0  0.13490954771E+03  0.99479779483E+02  0.89616250122E+03  0.92023314502E+03  0.12500000000E+03 0.  0.
</event>
<event>
 5    0  0.5597833E-005  0.3035787E+03  0.7546771E-02  0.1083465E+00
         21   -1    0    0  502  501  0.00000000000E+00  0.00000000000E+00  0.14037726577E+03  0.14037726577E+03  0.00000000000E+00 0. -1.
         21   -1    0    0  501  502 -0.00000000000E+00 -0.00000000000E+00 -0.65651663381E+03  0.65651663381E+03  0.00000000000E+00 0. -1.
         25    1    1    2    0    0  0.10913478221E+01 -0.16322782097E+03 -0.18170924551E+03  0.27438615578E+03  0.12500000000E+03 0.  0.
         25    1    1    2    0    0 -0.89868420845E+02 -0.27629891391E+02 -0.13916341170E+03  0.20935901967E+03  0.12500000000E+03 0.  0.
         25    1    1    2    0    0  0.88777073023E+02  0.19085771236E+03 -0.19526671083E+03  0.31314872413E+03  0.12500000000E+03 0.  0.
</event>
<event>
 5    0  0.5597833E-005  0.2888334E+03  0.7546771E-02  0.1090960E+00
         21   -1    0    0  502  501  0.00000000000E+00  0.00000000000E+00  0.80640015285E+03  0.80640015285E+03  0.00000000000E+00 0.  1.
         21   -1    0    0  501  502 -0.00000000000E+00 -0.00000000000E+00 -0.10345325255E+03  0.10345325255E+03  0.00000000000E+00 0.  1.
         25    1    1    2    0    0 -0.14071721744E+03  0.86756315459E+01  0.13664091268E+03  0.23274952392E+03  0.12500000000E+03 0.  0.
         25    1    1    2    0    0 -0.30799912591E+02 -0.39442709398E+02  0.33820892619E+03  0.36402560308E+03  0.12500000000E+03 0.  0.
         25    1    1    2    0    0  0.17151713003E+03  0.30767077852E+02  0.22809706143E+03  0.31307827840E+03  0.12500000000E+03 0.  0.
</event>
<event>
 5    0  0.5597833E-005  0.2629420E+03  0.7546771E-02  0.1105388E+00
         21   -1    0    0  502  501  0.00000000000E+00  0.00000000000E+00  0.11127463045E+04  0.11127463045E+04  0.00000000000E+00 0.  1.
         21   -1    0    0  501  502 -0.00000000000E+00 -0.00000000000E+00 -0.62133223690E+02  0.62133223690E+02  0.00000000000E+00 0.  1.
         25    1    1    2    0    0  0.94587822025E+02 -0.64001534628E+02  0.42439124578E+03  0.45692010462E+03  0.12500000000E+03 0.  0.
         25    1    1    2    0    0 -0.56933551907E+02 -0.29541843115E+02  0.48215767275E+03  0.50221028585E+03  0.12500000000E+03 0.  0.
         25    1    1    2    0    0 -0.37654270118E+02  0.93543377743E+02  0.14406416232E+03  0.21574913776E+03  0.12500000000E+03 0.  0.
</event>
<event>
 5    0  0.5597833E-005  0.2803301E+03  0.7546771E-02  0.1095509E+00
         21   -1    0    0  502  501  0.00000000000E+00  0.00000000000E+00  0.19443506430E+03  0.19443506430E+03  0.00000000000E+00 0.  1.
         21   -1    0    0  501  502 -0.00000000000E+00 -0.00000000000E+00 -0.40417072465E+03  0.40417072465E+03  0.00000000000E+00 0.  1.
         25    1    1    2    0    0  0.72506770126E+02  0.13590923266E+03 -0.70473978041E+02  0.21052347331E+03  0.12500000000E+03 0.  0.
         25    1    1    2    0    0 -0.68125465028E+02  0.38195666040E+02 -0.66438149845E+02  0.16167564951E+03  0.12500000000E+03 0.  0.
         25    1    1    2    0    0 -0.43813050978E+01 -0.17410489870E+03 -0.72823532465E+02  0.22640666612E+03  0.12500000000E+03 0.  0.
</event>
<event>
 5    0  0.5597833E-005  0.4684333E+03  0.7546771E-02  0.1022363E+00
         21   -1    0    0  502  501  0.00000000000E+00  0.00000000000E+00  0.94754297248E+03  0.94754297248E+03  0.00000000000E+00 0.  1.
         21   -1    0    0  501  502 -0.00000000000E+00 -0.00000000000E+00 -0.23157760115E+03  0.23157760115E+03  0.00000000000E+00 0.  1.
         25    1    1    2    0    0  0.79811825287E+01 -0.94046835276E+02  0.94851335326E+02  0.18311275847E+03  0.12500000000E+03 0.  0.
         25    1    1    2    0    0 -0.18150391222E+02  0.24381773238E+03 -0.65373304762E+02  0.28226794416E+03  0.12500000000E+03 0.  0.
         25    1    1    2    0    0  0.10169208693E+02 -0.14977089710E+03  0.68648734077E+03  0.71373987100E+03  0.12500000000E+03 0.  0.
</event>
<event>
 5    0  0.5597833E-005  0.2571123E+03  0.7546771E-02  0.1108891E+00
         21   -1    0    0  502  501  0.00000000000E+00  0.00000000000E+00  0.22640219791E+03  0.22640219791E+03  0.00000000000E+00 0.  1.
         21   -1    0    0  501  502 -0.00000000000E+00 -0.00000000000E+00 -0.29198795682E+03  0.29198795682E+03  0.00000000000E+00 0.  1.
         25    1    1    2    0    0  0.48200679094E+02  0.90924946390E+02  0.10295080331E+03  0.19187110059E+03  0.12500000000E+03 0.  0.
         25    1    1    2    0    0 -0.10445820546E+02 -0.38584901125E+02 -0.43361040391E+02  0.13821392689E+03  0.12500000000E+03 0.  0.
         25    1    1    2    0    0 -0.37754858548E+02 -0.52340045266E+02 -0.12517552183E+03  0.18830512725E+03  0.12500000000E+03 0.  0.
</event>
<event>
 5    0  0.5597833E-005  0.3601212E+03  0.7546771E-02  0.1058536E+00
         21   -1    0    0  502  501  0.00000000000E+00  0.00000000000E+00  0.37161469714E+03  0.37161469714E+03  0.00000000000E+00 0. -1.
         21   -1    0    0  501  502 -0.00000000000E+00 -0.00000000000E+00 -0.34898320777E+03  0.34898320777E+03  0.00000000000E+00 0. -1.
         25    1    1    2    0    0  0.12365513181E+03  0.12629879706E+03 -0.21983486678E+03  0.30853581059E+03  0.12500000000E+03 0.  0.
         25    1    1    2    0    0 -0.13272733471E+03 -0.75662400836E+02  0.13165307029E+03  0.23727384010E+03  0.12500000000E+03 0.  0.
         25    1    1    2    0    0  0.90722028966E+01 -0.50636396221E+02  0.11081328587E+03  0.17478825422E+03  0.12500000000E+03 0.  0.
</event>
<event>
 5    0  0.5597833E-005  0.3026299E+03  0.7546771E-02  0.1083933E+00
         21   -1    0    0  502  501  0.00000000000E+00  0.00000000000E+00  0.21087599695E+03  0.21087599695E+03  0.00000000000E+00 0.  1.
         21   -1    0    0  501  502 -0.00000000000E+00 -0.00000000000E+00 -0.43430674718E+03  0.43430674718E+03  0.00000000000E+00 0.  1.
         25    1    1    2    0    0 -0.11844163523E+03  0.40803238107E+02 -0.20555471660E+03  0.27123986933E+03  0.12500000000E+03 0.  0.
         25    1    1    2    0    0 -0.53285486917E+02 -0.78544118816E+02  0.47997006985E+01  0.15702407090E+03  0.12500000000E+03 0.  0.
         25    1    1    2    0    0  0.17172712215E+03  0.37740880710E+02 -0.22675734318E+02  0.21691880390E+03  0.12500000000E+03 0.  0.
</event>
<event>
 5    0  0.5597833E-005  0.2864936E+03  0.7546771E-02  0.1092194E+00
         21   -1    0    0  502  501  0.00000000000E+00  0.00000000000E+00  0.24585446586E+03  0.24585446586E+03  0.00000000000E+00 0. -1.
         21   -1    0    0  501  502 -0.00000000000E+00 -0.00000000000E+00 -0.33385032863E+03  0.33385032863E+03  0.00000000000E+00 0. -1.
         25    1    1    2    0    0  0.47968222626E+02  0.21056129420E+02 -0.85362562262E+02  0.16017514790E+03  0.12500000000E+03 0.  0.
         25    1    1    2    0    0  0.35428610387E+02 -0.87918421813E+02 -0.13612609307E+03  0.20770206678E+03  0.12500000000E+03 0.  0.
         25    1    1    2    0    0 -0.83396833013E+02  0.66862292392E+02  0.13349279257E+03  0.21182757981E+03  0.12500000000E+03 0.  0.
</event>
<event>
 5    0  0.5597833E-005  0.3646533E+03  0.7546771E-02  0.1056756E+00
         21   -1    0    0  502  501  0.00000000000E+00  0.00000000000E+00  0.22975786258E+03  0.22975786258E+03  0.00000000000E+00 0. -1.
         21   -1    0    0  501  502 -0.00000000000E+00 -0.00000000000E+00 -0.57874864350E+03  0.57874864350E+03  0.00000000000E+00 0. -1.
         25    1    1    2    0    0 -0.21759821554E+03 -0.49721298054E+02  0.34501040997E+02  0.25814049027E+03  0.12500000000E+03 0.  0.
         25    1    1    2    0    0  0.12525780269E+03  0.83147337310E+02 -0.87112520829E+02  0.21404809768E+03  0.12500000000E+03 0.  0.
         25    1    1    2    0    0  0.92340412852E+02 -0.33426039257E+02 -0.29637930108E+03  0.33631791813E+03  0.12500000000E+03 0.  0.
</event>
<event>
 5    0  0.5597833E-005  0.2481167E+03  0.7546771E-02  0.1114501E+00
         21   -1    0    0  502  501  0.00000000000E+00  0.00000000000E+00  0.54913750504E+02  0.54913750504E+02  0.00000000000E+00 0.  1.
         21   -1    0    0  501  502 -0.00000000000E+00 -0.00000000000E+00 -0.11210649228E+04  0.11210649228E+04  0.00000000000E+00 0.  1.
         25    1    1    2    0    0  0.10421472294E+03 -0.22347614795E+02 -0.51195001410E+03  0.53765968912E+03  0.12500000000E+03 0.  0.
         25    1    1    2    0    0 -0.68898511035E+01  0.12562235129E+02 -0.39064904923E+03  0.41041072046E+03  0.12500000000E+03 0.  0.
         25    1    1    2    0    0 -0.97324871839E+02  0.97853796664E+01 -0.16355210899E+03  0.22790826376E+03  0.12500000000E+03 0.  0.
</event>
<event>
 5    0  0.5597833E-005  0.3168843E+03  0.7546771E-02  0.1077092E+00
         21   -1    0    0  502  501  0.00000000000E+00  0.00000000000E+00  0.88484869725E+03  0.88484869725E+03  0.00000000000E+00 0.  1.
         21   -1    0    0  501  502 -0.00000000000E+00 -0.00000000000E+00 -0.11348343880E+03  0.11348343880E+03  0.00000000000E+00 0.  1.
         25    1    1    2    0    0 -0.88257068771E+02 -0.16897217454E+03  0.42066414517E+03  0.47846026898E+03  0.12500000000E+03 0.  0.
         25    1    1    2    0    0  0.50549784055E+02  0.20751392701E+03  0.23337657662E+03  0.34015722407E+03  0.12500000000E+03 0.  0.
         25    1    1    2    0    0  0.37707284715E+02 -0.38541752473E+02  0.11732453665E+03  0.17971464299E+03  0.12500000000E+03 0.  0.
</event>
<event>
 5    0  0.5597833E-005  0.2194507E+03  0.7546771E-02  0.1134293E+00
         21   -1    0    0  502  501  0.00000000000E+00  0.00000000000E+00  0.22321811888E+03  0.22321811888E+03  0.00000000000E+00 0.  1.
         21   -1    0    0  501  502 -0.00000000000E+00 -0.00000000000E+00 -0.21574687989E+03  0.21574687989E+03  0.00000000000E+00 0.  1.
         25    1    1    2    0    0  0.57687582327E+02 -0.54751011394E+02 -0.56296944616E+02  0.15849251205E+03  0.12500000000E+03 0.  0.
         25    1    1    2    0    0 -0.13251091564E+02  0.45854227188E+01  0.20666053772E+01  0.12580098723E+03  0.12500000000E+03 0.  0.
         25    1    1    2    0    0 -0.44436490763E+02  0.50165588675E+02  0.61701578229E+02  0.15467149949E+03  0.12500000000E+03 0.  0.
</event>
<event>
 5    0  0.5597833E-005  0.2999974E+03  0.7546771E-02  0.1085242E+00
         21   -1    0    0  502  501  0.00000000000E+00  0.00000000000E+00  0.21063396174E+03  0.21063396174E+03  0.00000000000E+00 0. -1.
         21   -1    0    0  501  502 -0.00000000000E+00 -0.00000000000E+00 -0.42727411770E+03  0.42727411770E+03  0.00000000000E+00 0. -1.
         25    1    1    2    0    0 -0.41868520751E+02 -0.56166887372E+02 -0.10473798381E+03  0.17749010541E+03  0.12500000000E+03 0.  0.
         25    1    1    2    0    0  0.42703927319E+02  0.70616274628E+02 -0.23868401582E+03  0.28178953681E+03  0.12500000000E+03 0.  0.
         25    1    1    2    0    0 -0.83540656866E+00 -0.14449387256E+02  0.12678184367E+03  0.17862843721E+03  0.12500000000E+03 0.  0.
</event>
<event>
 5    0  0.5597833E-005  0.5051484E+03  0.7546771E-02  0.1012444E+00
         21   -1    0    0  502  501  0.00000000000E+00  0.00000000000E+00  0.66874086611E+03  0.66874086611E+03  0.00000000000E+00 0.  1.
         21   -1    0    0  501  502 -0.00000000000E+00 -0.00000000000E+00 -0.38157517010E+03  0.38157517010E+03  0.00000000000E+00 0.  1.
         25    1    1    2    0    0 -0.43994426689E+03 -0.58944944172E+02  0.20691214651E+02  0.46160436607E+03  0.12500000000E+03 0.  0.
         25    1    1    2    0    0  0.13949327657E+03  0.21154290590E+02  0.46625977438E+02  0.19417739310E+03  0.12500000000E+03 0.  0.
         25    1    1    2    0    0  0.30045099032E+03  0.37790653582E+02  0.21984850391E+03  0.39453427704E+03  0.12500000000E+03 0.  0.
</event>
<event>
 5    0  0.5597833E-005  0.3490769E+03  0.7546771E-02  0.1062995E+00
         21   -1    0    0  502  501  0.00000000000E+00  0.00000000000E+00  0.11669855686E+04  0.11669855686E+04  0.00000000000E+00 0. -1.
         21   -1    0    0  501  502 -0.00000000000E+00 -0.00000000000E+00 -0.10441831661E+03  0.10441831661E+03  0.00000000000E+00 0. -1.
         25    1    1    2    0    0 -0.30854081422E+02  0.74284684040E+02  0.10593604196E+02  0.14902151883E+03  0.12500000000E+03 0.  0.
         25    1    1    2    0    0 -0.29749198765E+02  0.10364115335E+03  0.47138048769E+03  0.49945076601E+03  0.12500000000E+03 0.  0.
         25    1    1    2    0    0  0.60603280188E+02 -0.17792583739E+03  0.58059316008E+03  0.62293160035E+03  0.12500000000E+03 0.  0.
</event>
<event>
 5    0  0.5597833E-005  0.3438586E+03  0.7546771E-02  0.1065164E+00
         21   -1    0    0  502  501  0.00000000000E+00  0.00000000000E+00  0.36364378512E+03  0.36364378512E+03  0.00000000000E+00 0. -1.
         21   -1    0    0  501  502 -0.00000000000E+00 -0.00000000000E+00 -0.32514985279E+03  0.32514985279E+03  0.00000000000E+00 0. -1.
         25    1    1    2    0    0  0.52926552391E+02 -0.43010964539E+02 -0.31097007411E+02  0.14575042672E+03  0.12500000000E+03 0.  0.
         25    1    1    2    0    0  0.12010151544E+03  0.60262948723E+02 -0.14947374985E+03  0.23669262535E+03  0.12500000000E+03 0.  0.
         25    1    1    2    0    0 -0.17302806783E+03 -0.17251984183E+02  0.21906468960E+03  0.30635058584E+03  0.12500000000E+03 0.  0.
</event>
<event>
 5    0  0.2896633E-004  0.6093639E+03  0.7546771E-02  0.9886167E-01
         21   -1    0    0  502  501  0.00000000000E+00  0.00000000000E+00  0.64470230731E+03  0.64470230731E+03  0.00000000000E+00 0.  1.
         21   -1    0    0  501  502 -0.00000000000E+00 -0.00000000000E+00 -0.57596248405E+03  0.57596248405E+03  0.00000000000E+00 0.  1.
         25    1    1    2    0    0  0.40246238265E+03 -0.19629660212E+03  0.79571267337E+02  0.47166186197E+03  0.12500000000E+03 0.  0.
         25    1    1    2    0    0 -0.57438676859E+02 -0.79582900906E+02  0.19016290467E+03  0.24782971982E+03  0.12500000000E+03 0.  0.
         25    1    1    2    0    0 -0.34502370579E+03  0.27587950302E+03 -0.20099434875E+03  0.50117320956E+03  0.12500000000E+03 0.  0.
</event>
<event>
 5    0  0.5597833E-005  0.2379148E+03  0.7546771E-02  0.1121190E+00
         21   -1    0    0  502  501  0.00000000000E+00  0.00000000000E+00  0.45280819136E+03  0.45280819136E+03  0.00000000000E+00 0.  1.
         21   -1    0    0  501  502 -0.00000000000E+00 -0.00000000000E+00 -0.12500534710E+03  0.12500534710E+03  0.00000000000E+00 0.  1.
         25    1    1    2    0    0  0.73827242585E+02 -0.31362825399E+02  0.18603466680E+03  0.23805038504E+03  0.12500000000E+03 0.  0.
         25    1    1    2    0    0 -0.49003284247E+02  0.89719967114E+02  0.39465689429E+02  0.16623337513E+03  0.12500000000E+03 0.  0.
         25    1    1    2    0    0 -0.24823958338E+02 -0.58357141716E+02  0.10230248802E+03  0.17352977829E+03  0.12500000000E+03 0.  0.
</event>
<event>
 5    0  0.5597833E-005  0.2662709E+03  0.7546771E-02  0.1103433E+00
         21   -1    0    0  502  501  0.00000000000E+00  0.00000000000E+00  0.22249786145E+04  0.22249786145E+04  0.00000000000E+00 0.  1.
         21   -1    0    0  501  502 -0.00000000000E+00 -0.00000000000E+00 -0.31865554938E+02  0.31865554938E+02  0.00000000000E+00 0.  1.
         25    1    1    2    0    0 -0.16552646681E+01  0.15395709794E+03  0.69469123941E+03  0.72244477022E+03  0.12500000000E+03 0.  0.
         25    1    1    2    0    0 -0.63943176613E+02 -0.90984370548E+02  0.94953848768E+03  0.96416555897E+03  0.12500000000E+03 0.  0.
         25    1    1    2    0    0  0.65598441281E+02 -0.62972727391E+02  0.54888333243E+03  0.57023384020E+03  0.12500000000E+03 0.  0.
</event>
<event>
 5    0  0.5597833E-005  0.2711561E+03  0.7546771E-02  0.1100620E+00
         21   -1    0    0  502  501  0.00000000000E+00  0.00000000000E+00  0.12926200932E+03  0.12926200932E+03  0.00000000000E+00 0. -1.
         21   -1    0    0  501  502 -0.00000000000E+00 -0.00000000000E+00 -0.56881074301E+03  0.56881074301E+03  0.00000000000E+00 0. -1.
         25    1    1    2    0    0  0.53240175104E+02 -0.73493869111E+02 -0.25975038729E+03  0.30221040475E+03  0.12500000000E+03 0.  0.
         25    1    1    2    0    0  0.19811972350E+02  0.13565567237E+03 -0.51141791884E+02  0.19244598871E+03  0.12500000000E+03 0.  0.
         25    1    1    2    0    0 -0.73052147454E+02 -0.62161803261E+02 -0.12865655453E+03  0.20341635887E+03  0.12500000000E+03 0.  0.
</event>
<event>
 5    0  0.5597833E-005  0.2922989E+03  0.7546771E-02  0.1089155E+00
         21   -1    0    0  502  501  0.00000000000E+00  0.00000000000E+00  0.40262431463E+03  0.40262431463E+03  0.00000000000E+00 0.  1.
         21   -1    0    0  501  502 -0.00000000000E+00 -0.00000000000E+00 -0.21220435815E+03  0.21220435815E+03  0.00000000000E+00 0.  1.
         25    1    1    2    0    0 -0.16636244128E+02  0.11146616578E+03  0.18549393167E+03  0.25046849985E+03  0.12500000000E+03 0.  0.
         25    1    1    2    0    0  0.45633344410E+02 -0.15262512169E+03 -0.64834627417E+02  0.21261551873E+03  0.12500000000E+03 0.  0.
         25    1    1    2    0    0 -0.28997100282E+02  0.41158955910E+02  0.69760652224E+02  0.15174465419E+03  0.12500000000E+03 0.  0.
</event>
<event>
 5    0  0.5635232E-005  0.4020615E+03  0.7546771E-02  0.1043068E+00
         21   -1    0    0  502  501  0.00000000000E+00  0.00000000000E+00  0.67758291113E+03  0.67758291113E+03  0.00000000000E+00 0.  1.
         21   -1    0    0  501  502 -0.00000000000E+00 -0.00000000000E+00 -0.23857369894E+03  0.23857369894E+03  0.00000000000E+00 0.  1.
         25    1    1    2    0    0  0.34275154410E+02 -0.22445585449E+03  0.20142160848E+03  0.32825429348E+03  0.12500000000E+03 0.  0.
         25    1    1    2    0    0  0.15048319216E+03 -0.12416143634E+02  0.21247182191E+02  0.19716945630E+03  0.12500000000E+03 0.  0.
         25    1    1    2    0    0 -0.18475834657E+03  0.23687199812E+03  0.21634042152E+03  0.39073286029E+03  0.12500000000E+03 0.  0.
</event>
<event>
 5    0  0.5624350E-005  0.3551634E+03  0.7546771E-02  0.1060515E+00
         21   -1    0    0  502  501  0.00000000000E+00  0.00000000000E+00  0.40755381005E+03  0.40755381005E+03  0.00000000000E+00 0. -1.
         21   -1    0    0  501  502 -0.00000000000E+00 -0.00000000000E+00 -0.30950775983E+03  0.30950775983E+03  0.00000000000E+00 0. -1.
         25    1    1    2    0    0 -0.11782993772E+03  0.12975644655E+02 -0.88473580239E+02  0.19366165335E+03  0.12500000000E+03 0.  0.
         25    1    1    2    0    0  0.72251714511E+02  0.19424337153E+03  0.10701091458E+03  0.26462640358E+03  0.12500000000E+03 0.  0.
         25    1    1    2    0    0  0.45578223212E+02 -0.20721901619E+03  0.79508715872E+02  0.25877351294E+03  0.12500000000E+03 0.  0.
</event>
<event>
 5    0  0.5597833E-005  0.2707002E+03  0.7546771E-02  0.1100880E+00
         21   -1    0    0  502  501  0.00000000000E+00  0.00000000000E+00  0.11787079544E+04  0.11787079544E+04  0.00000000000E+00 0.  1.
         21   -1    0    0  501  502 -0.00000000000E+00 -0.00000000000E+00 -0.62168563070E+02  0.62168563070E+02  0.00000000000E+00 0.  1.
         25    1    1    2    0    0 -0.17225670028E+02 -0.15937783941E+03  0.42316749094E+03  0.46946112171E+03  0.12500000000E+03 0.  0.
         25    1    1    2    0    0 -0.10402066238E+02  0.44848978079E+02  0.14559725431E+03  0.19734030070E+03  0.12500000000E+03 0.  0.
         25    1    1    2    0    0  0.27627736266E+02  0.11452886133E+03  0.54777464605E+03  0.57407509504E+03  0.12500000000E+03 0.  0.
</event>
<event>
 5    0  0.5597833E-005  0.3808900E+03  0.7546771E-02  0.1050605E+00
         21   -1    0    0  502  501  0.00000000000E+00  0.00000000000E+00  0.41452866791E+02  0.41452866791E+02  0.00000000000E+00 0. -1.
         21   -1    0    0  501  502 -0.00000000000E+00 -0.00000000000E+00 -0.34998106081E+04  0.34998106081E+04  0.00000000000E+00 0. -1.
         25    1    1    2    0    0 -0.21195566196E+02 -0.41804446341E+02 -0.57368036109E+03  0.58900850627E+03  0.12500000000E+03 0.  0.
         25    1    1    2    0    0 -0.22271388612E+03  0.15214866124E+03 -0.19343099264E+04  0.19570208434E+04  0.12500000000E+03 0.  0.
         25    1    1    2    0    0  0.24390945232E+03 -0.11034421490E+03 -0.95036745381E+03  0.99523412519E+03  0.12500000000E+03 0.  0.
</event>
<event>
 5    0  0.5597833E-005  0.3406584E+03  0.7546771E-02  0.1066516E+00
         21   -1    0    0  502  501  0.00000000000E+00  0.00000000000E+00  0.21919007991E+03  0.21919007991E+03  0.00000000000E+00 0. -1.
         21   -1    0    0  501  502 -0.00000000000E+00 -0.00000000000E+00 -0.52944073377E+03  0.52944073377E+03  0.00000000000E+00 0. -1.
         25    1    1    2    0    0 -0.35059360464E+02 -0.99056692831E+02 -0.14196190239E+03  0.21637830039E+03  0.12500000000E+03 0.  0.
         25    1    1    2    0    0  0.11176563500E+02  0.23989499221E+03  0.11255981147E+02  0.27097272920E+03  0.12500000000E+03 0.  0.
         25    1    1    2    0    0  0.23882796964E+02 -0.14083829938E+03 -0.17954473261E+03  0.26127978408E+03  0.12500000000E+03 0.  0.
</event>
<event>
 5    0  0.5597833E-005  0.3036975E+03  0.7546771E-02  0.1083407E+00
         21   -1    0    0  502  501  0.00000000000E+00  0.00000000000E+00  0.24099330911E+03  0.24099330911E+03  0.00000000000E+00 0.  1.
         21   -1    0    0  501  502 -0.00000000000E+00 -0.00000000000E+00 -0.38271670738E+03  0.38271670738E+03  0.00000000000E+00 0.  1.
         25    1    1    2    0    0 -0.87469181879E+02  0.18027743958E+03 -0.90873065733E+02  0.25304886302E+03  0.12500000000E+03 0.  0.
         25    1    1    2    0    0 -0.30261253272E+02 -0.27848676753E+02 -0.50789819937E+02  0.14105282009E+03  0.12500000000E+03 0.  0.
         25    1    1    2    0    0  0.11773043515E+03 -0.15242876282E+03 -0.60512597532E-01  0.22960833338E+03  0.12500000000E+03 0.  0.
</event>
<event>
 5    0  0.6190061E-005  0.2945443E+03  0.7546771E-02  0.1088000E+00
         21   -1    0    0  502  501  0.00000000000E+00  0.00000000000E+00  0.45770183796E+03  0.45770183796E+03  0.00000000000E+00 0. -1.
         21   -1    0    0  501  502 -0.00000000000E+00 -0.00000000000E+00 -0.18954775150E+03  0.18954775150E+03  0.00000000000E+00 0. -1.
         25    1    1    2    0    0 -0.51681591105E+02  0.95743539559E+02  0.21625050836E+02  0.16712407083E+03  0.12500000000E+03 0.  0.
         25    1    1    2    0    0  0.12063369561E+03 -0.15332504402E+03  0.62064159271E+02  0.23987083505E+03  0.12500000000E+03 0.  0.
         25    1    1    2    0    0 -0.68952104507E+02  0.57581504461E+02  0.18446487635E+03  0.24025468358E+03  0.12500000000E+03 0.  0.
</event>
<event>
 5    0  0.5597833E-005  0.4310108E+03  0.7546771E-02  0.1033541E+00
         21   -1    0    0  502  501  0.00000000000E+00  0.00000000000E+00  0.12011812217E+04  0.12011812217E+04  0.00000000000E+00 0. -1.
         21   -1    0    0  501  502 -0.00000000000E+00 -0.00000000000E+00 -0.15465636218E+03  0.15465636218E+03  0.00000000000E+00 0. -1.
         25    1    1    2    0    0  0.69876171030E+02  0.30944710029E+03  0.24497697099E+03  0.41985581271E+03  0.12500000000E+03 0.  0.
         25    1    1    2    0    0 -0.15150214049E+03 -0.17264318719E+03  0.31777065205E+03  0.41153585015E+03  0.12500000000E+03 0.  0.
         25    1    1    2    0    0  0.81625969460E+02 -0.13680391310E+03  0.48377723650E+03  0.52444592103E+03  0.12500000000E+03 0.  0.
</event>
<event>
 5    0  0.5597833E-005  0.2683013E+03  0.7546771E-02  0.1102256E+00
         21   -1    0    0  502  501  0.00000000000E+00  0.00000000000E+00  0.15642016697E+03  0.15642016697E+03  0.00000000000E+00 0.  1.
         21   -1    0    0  501  502 -0.00000000000E+00 -0.00000000000E+00 -0.46020650454E+03  0.46020650454E+03  0.00000000000E+00 0.  1.
         25    1    1    2    0    0 -0.53029448287E+02 -0.24762028096E+02 -0.19945056092E+03  0.24255062703E+03  0.12500000000E+03 0.  0.
         25    1    1    2    0    0 -0.75391976820E+02  0.82782920121E+02 -0.24946017558E+02  0.16965926389E+03  0.12500000000E+03 0.  0.
         25    1    1    2    0    0  0.12842142511E+03 -0.58020892025E+02 -0.79389759102E+02  0.20441678059E+03  0.12500000000E+03 0.  0.
</event>
<event>
 5    0  0.5597833E-005  0.2589644E+03  0.7546771E-02  0.1107767E+00
         21   -1    0    0  502  501  0.00000000000E+00  0.00000000000E+00  0.19566899776E+03  0.19566899776E+03  0.00000000000E+00 0.  1.
         21   -1    0    0  501  502 -0.00000000000E+00 -0.00000000000E+00 -0.34273470658E+03  0.34273470658E+03  0.00000000000E+00 0.  1.
         25    1    1    2    0    0  0.34721829331E+02  0.19319797336E+01 -0.11101228483E+03  0.17075732887E+03  0.12500000000E+03 0.  0.
         25    1    1    2    0    0  0.10507583765E+03  0.24213764685E+02  0.28649845460E+02  0.16755014683E+03  0.12500000000E+03 0.  0.
         25    1    1    2    0    0 -0.13979766698E+03 -0.26145744419E+02 -0.64703269443E+02  0.20009622865E+03  0.12500000000E+03 0.  0.
</event>
<event>
 5    0  0.5597833E-005  0.2918508E+03  0.7546771E-02  0.1089387E+00
         21   -1    0    0  502  501  0.00000000000E+00  0.00000000000E+00  0.32727138132E+03  0.32727138132E+03  0.00000000000E+00 0. -1.
         21   -1    0    0  501  502 -0.00000000000E+00 -0.00000000000E+00 -0.26026379232E+03  0.26026379232E+03  0.00000000000E+00 0. -1.
         25    1    1    2    0    0  0.27290702891E+02 -0.32188177809E+02  0.12054543676E+03  0.17870943898E+03  0.12500000000E+03 0.  0.
         25    1    1    2    0    0 -0.11004670393E+03 -0.62152195752E+02  0.71933539031E+02  0.19176184845E+03  0.12500000000E+03 0.  0.
         25    1    1    2    0    0  0.82756001041E+02  0.94340373561E+02 -0.12547138680E+03  0.21706388621E+03  0.12500000000E+03 0.  0.
</event>
<event>
 5    0  0.5597833E-005  0.3754961E+03  0.7546771E-02  0.1052611E+00
         21   -1    0    0  502  501  0.00000000000E+00  0.00000000000E+00  0.35830243144E+03  0.35830243144E+03  0.00000000000E+00 0. -1.
         21   -1    0    0  501  502 -0.00000000000E+00 -0.00000000000E+00 -0.39351482623E+03  0.39351482623E+03  0.00000000000E+00 0. -1.
         25    1    1    2    0    0  0.22836898310E+02 -0.11623595283E+03 -0.14858830659E+03  0.22745506261E+03  0.12500000000E+03 0.  0.
         25    1    1    2    0    0 -0.17901644366E+03  0.62310113805E+02 -0.80215058679E+02  0.24080883086E+03  0.12500000000E+03 0.  0.
         25    1    1    2    0    0  0.15617954535E+03  0.53925839025E+02  0.19359097047E+03  0.28355336420E+03  0.12500000000E+03 0.  0.
</event>
<event>
 5    0  0.5597833E-005  0.2858803E+03  0.7546771E-02  0.1092520E+00
         21   -1    0    0  502  501  0.00000000000E+00  0.00000000000E+00  0.74900533858E+02  0.74900533858E+02  0.00000000000E+00 0. -1.
         21   -1    0    0  501  502 -0.00000000000E+00 -0.00000000000E+00 -0.10911478830E+04  0.10911478830E+04  0.00000000000E+00 0. -1.
         25    1    1    2    0    0  0.58959677440E+01 -0.89211530620E+02 -0.33699068527E+03  0.37037978022E+03  0.12500000000E+03 0.  0.
         25    1    1    2    0    0  0.54215275590E+02 -0.38077416989E+02 -0.54851482100E+03  0.56646508687E+03  0.12500000000E+03 0.  0.
         25    1    1    2    0    0 -0.60111243334E+02  0.12728894761E+03 -0.13074184292E+03  0.22920354981E+03  0.12500000000E+03 0.  0.
</event>
<event>
 5    0  0.5597833E-005  0.3857381E+03  0.7546771E-02  0.1048833E+00
         21   -1    0    0  502  501  0.00000000000E+00  0.00000000000E+00  0.18021784490E+04  0.18021784490E+04  0.00000000000E+00 0. -1.
         21   -1    0    0  501  502 -0.00000000000E+00 -0.00000000000E+00 -0.82563347229E+02  0.82563347229E+02  0.00000000000E+00 0. -1.
         25    1    1    2    0    0  0.23777046659E+03  0.87794916252E+02  0.61540997274E+03  0.67719803356E+03  0.12500000000E+03 0.  0.
         25    1    1    2    0    0  0.32410072884E+02  0.65338851110E+02  0.23366272009E+03  0.27485058677E+03  0.12500000000E+03 0.  0.
         25    1    1    2    0    0 -0.27018053947E+03 -0.15313376736E+03  0.87054240892E+03  0.93269317588E+03  0.12500000000E+03 0.  0.
</event>
<event>
 5    0  0.5597833E-005  0.3232630E+03  0.7546771E-02  0.1074157E+00
         21   -1    0    0  502  501  0.00000000000E+00  0.00000000000E+00  0.18329917230E+04  0.18329917230E+04  0.00000000000E+00 0. -1.
         21   -1    0    0  501  502 -0.00000000000E+00 -0.00000000000E+00 -0.57010048043E+02  0.57010048043E+02  0.00000000000E+00 0. -1.
         25    1    1    2    0    0  0.55561268254E+02  0.48936892504E+02  0.18434363937E+03  0.23471142144E+03  0.12500000000E+03 0.  0.
         25    1    1    2    0    0  0.12169812191E+03  0.30072096881E+02  0.10742695564E+04  0.10887583955E+04  0.12500000000E+03 0.  0.
         25    1    1    2    0    0 -0.17725939017E+03 -0.79008989385E+02  0.51736847921E+03  0.56653195416E+03  0.12500000000E+03 0.  0.
</event>
<event>
 5    0  0.5597833E-005  0.2117838E+03  0.7546771E-02  0.1140161E+00
         21   -1    0    0  502  501  0.00000000000E+00  0.00000000000E+00  0.53724386313E+02  0.53724386313E+02  0.00000000000E+00 0. -1.
         21   -1    0    0  501  502 -0.00000000000E+00 -0.00000000000E+00 -0.83486078540E+03  0.83486078540E+03  0.00000000000E+00 0. -1.
         25    1    1    2    0    0  0.36691353594E+01  0.11752068225E+02 -0.36641967869E+03  0.38734991234E+03  0.12500000000E+03 0.  0.
         25    1    1    2    0    0  0.23698896215E+02 -0.52737912608E+01 -0.31211809160E+03  0.33709368677E+03  0.12500000000E+03 0.  0.
         25    1    1    2    0    0 -0.27368031574E+02 -0.64782769638E+01 -0.10259862880E+03  0.16414157260E+03  0.12500000000E+03 0.  0.
</event>
<event>
 5    0  0.5597833E-005  0.2416429E+03  0.7546771E-02  0.1118703E+00
         21   -1    0    0  502  501  0.00000000000E+00  0.00000000000E+00  0.11744127984E+03  0.11744127984E+03  0.00000000000E+00 0. -1.
         21   -1    0    0  501  502 -0.00000000000E+00 -0.00000000000E+00 -0.49719554737E+03  0.49719554737E+03  0.00000000000E+00 0. -1.
         25    1    1    2    0    0  0.46333487656E+02 -0.78196148397E+01 -0.11629031689E+03  0.17707731717E+03  0.12500000000E+03 0.  0.
         25    1    1    2    0    0  0.60258867125E+02 -0.81807722663E+02 -0.13945407477E+03  0.21306354340E+03  0.12500000000E+03 0.  0.
         25    1    1    2    0    0 -0.10659235478E+03  0.89627337503E+02 -0.12400987587E+03  0.22449596664E+03  0.12500000000E+03 0.  0.
</event>
<event>
 5    0  0.5597833E-005  0.2881239E+03  0.7546771E-02  0.1091333E+00
         21   -1    0    0  502  501  0.00000000000E+00  0.00000000000E+00  0.11675290512E+04  0.11675290512E+04  0.00000000000E+00 0.  1.
         21   -1    0    0  501  502 -0.00000000000E+00 -0.00000000000E+00 -0.71103497531E+02  0.71103497531E+02  0.00000000000E+00 0.  1.
         25    1    1    2    0    0  0.96568760371E+01  0.14626270737E+03  0.23270716561E+03  0.30209875827E+03  0.12500000000E+03 0.  0.
         25    1    1    2    0    0 -0.26506362658E+02 -0.73028438492E+02  0.70817393473E+03  0.72330564903E+03  0.12500000000E+03 0.  0.
         25    1    1    2    0    0  0.16849486621E+02 -0.73234268879E+02  0.15554445335E+03  0.21322814145E+03  0.12500000000E+03 0.  0.
</event>
<event>
 5    0  0.5597833E-005  0.3533344E+03  0.7546771E-02  0.1061255E+00
         21   -1    0    0  502  501  0.00000000000E+00  0.00000000000E+00  0.36396120797E+03  0.36396120797E+03  0.00000000000E+00 0. -1.
         21   -1    0    0  501  502 -0.00000000000E+00 -0.00000000000E+00 -0.34301793785E+03  0.34301793785E+03  0.00000000000E+00 0. -1.
         25    1    1    2    0    0  0.57665612589E+02 -0.86370817744E+02  0.39577384873E+01  0.16256046483E+03  0.12500000000E+03 0.  0.
         25    1    1    2    0    0 -0.29686968639E+02 -0.26109291086E+02  0.23414055487E+03  0.26834643770E+03  0.12500000000E+03 0.  0.
         25    1    1    2    0    0 -0.27978643950E+02  0.11248010883E+03 -0.21715502323E+03  0.27607224329E+03  0.12500000000E+03 0.  0.
</event>
<event>
 5    0  0.5597833E-005  0.5968241E+03  0.7546771E-02  0.9912017E-01
         21   -1    0    0  502  501  0.00000000000E+00  0.00000000000E+00  0.71884670554E+03  0.71884670554E+03  0.00000000000E+00 0.  1.
         21   -1    0    0  501  502 -0.00000000000E+00 -0.00000000000E+00 -0.49551455225E+03  0.49551455225E+03  0.00000000000E+00 0.  1.
         25    1    1    2    0    0  0.17577016417E+03 -0.38462319114E+03  0.95252507086E+01  0.44107355416E+03  0.12500000000E+03 0.  0.
         25    1    1    2    0    0 -0.19969464684E+03 -0.33726216086E+02  0.23636910459E+03  0.33542624112E+03  0.12500000000E+03 0.  0.
         25    1    1    2    0    0  0.23924482670E+02  0.41834940722E+03 -0.22562202013E+02  0.43786146251E+03  0.12500000000E+03 0.  0.
</event>
<event>
 5    0  0.5597833E-005  0.4115459E+03  0.7546771E-02  0.1039853E+00
         21   -1    0    0  502  501  0.00000000000E+00  0.00000000000E+00  0.21979955660E+03  0.21979955660E+03  0.00000000000E+00 0. -1.
         21   -1    0    0  501  502 -0.00000000000E+00 -0.00000000000E+00 -0.77056578554E+03  0.77056578554E+03  0.00000000000E+00 0. -1.
         25    1    1    2    0    0  0.22395069579E+03  0.69842179197E+02 -0.71121874513E+02  0.27516388784E+03  0.12500000000E+03 0.  0.
         25    1    1    2    0    0 -0.16608600811E+03  0.37200979079E+02 -0.49689352385E+03  0.53990429613E+03  0.12500000000E+03 0.  0.
         25    1    1    2    0    0 -0.57864687679E+02 -0.10704315828E+03  0.17249169431E+02  0.17529715816E+03  0.12500000000E+03 0.  0.
</event>
<event>
 5    0  0.5597833E-005  0.3979396E+03  0.7546771E-02  0.1044495E+00
         21   -1    0    0  502  501  0.00000000000E+00  0.00000000000E+00  0.32178531472E+03  0.32178531472E+03  0.00000000000E+00 0.  1.
         21   -1    0    0  501  502 -0.00000000000E+00 -0.00000000000E+00 -0.49211662005E+03  0.49211662005E+03  0.00000000000E+00 0.  1.
         25    1    1    2    0    0  0.85386043314E+02  0.22766914635E+03 -0.29604386590E+03  0.40297765091E+03  0.12500000000E+03 0.  0.
         25    1    1    2    0    0 -0.12061113176E+03 -0.85102194623E+02  0.30385559983E+02  0.19580018103E+03  0.12500000000E+03 0.  0.
         25    1    1    2    0    0  0.35225088450E+02 -0.14256695172E+03  0.95327000587E+02  0.21512410284E+03  0.12500000000E+03 0.  0.
</event>
<event>
 5    0  0.5597833E-005  0.2954302E+03  0.7546771E-02  0.1087548E+00
         21   -1    0    0  502  501  0.00000000000E+00  0.00000000000E+00  0.15869249853E+04  0.15869249853E+04  0.00000000000E+00 0. -1.
         21   -1    0    0  501  502 -0.00000000000E+00 -0.00000000000E+00 -0.54998818491E+02  0.54998818491E+02  0.00000000000E+00 0. -1.
         25    1    1    2    0    0 -0.82836011693E+02  0.66333300602E+02  0.37447479024E+03  0.40880102755E+03  0.12500000000E+03 0.  0.
         25    1    1    2    0    0  0.12578393264E+03  0.87636426038E+02  0.36554911350E+03  0.41563553176E+03  0.12500000000E+03 0.  0.
         25    1    1    2    0    0 -0.42947920945E+02 -0.15396972664E+03  0.79190226305E+03  0.81748724446E+03  0.12500000000E+03 0.  0.
</event>
<event>
 5    0  0.5597833E-005  0.3039943E+03  0.7546771E-02  0.1083261E+00
         21   -1    0    0  502  501  0.00000000000E+00  0.00000000000E+00  0.23195870638E+03  0.23195870638E+03  0.00000000000E+00 0. -1.
         21   -1    0    0  501  502 -0.00000000000E+00 -0.00000000000E+00 -0.39840075490E+03  0.39840075490E+03  0.00000000000E+00 0. -1.
         25    1    1    2    0    0 -0.39351301314E+02 -0.16378149701E+03 -0.19412179599E+03  0.28579918712E+03  0.12500000000E+03 0.  0.
         25    1    1    2    0    0 -0.25505427820E+01  0.26225505199E+02 -0.52148638859E+02  0.13798102379E+03  0.12500000000E+03 0.  0.
         25    1    1    2    0    0  0.41901844096E+02  0.13755599181E+03  0.79828386324E+02  0.20657925038E+03  0.12500000000E+03 0.  0.
</event>
<event>
 5    0  0.5641838E-005  0.3586937E+03  0.7546771E-02  0.1059102E+00
         21   -1    0    0  502  501  0.00000000000E+00  0.00000000000E+00  0.78722789005E+02  0.78722789005E+02  0.00000000000E+00 0.  1.
         21   -1    0    0  501  502 -0.00000000000E+00 -0.00000000000E+00 -0.16343574259E+04  0.16343574259E+04  0.00000000000E+00 0.  1.
         25    1    1    2    0    0 -0.17867216531E+03 -0.89440612461E+02 -0.60760287164E+03  0.65171283204E+03  0.12500000000E+03 0.  0.
         25    1    1    2    0    0  0.16382335270E+03  0.59498897931E+02 -0.89698388033E+03  0.92227072561E+03  0.12500000000E+03 0.  0.
         25    1    1    2    0    0  0.14848812603E+02  0.29941714531E+02 -0.51047884919E+02  0.13909665725E+03  0.12500000000E+03 0.  0.
</event>
<event>
 5    0  0.5597833E-005  0.3083931E+03  0.7546771E-02  0.1081119E+00
         21   -1    0    0  502  501  0.00000000000E+00  0.00000000000E+00  0.25331011906E+03  0.25331011906E+03  0.00000000000E+00 0. -1.
         21   -1    0    0  501  502 -0.00000000000E+00 -0.00000000000E+00 -0.37545407111E+03  0.37545407111E+03  0.00000000000E+00 0. -1.
         25    1    1    2    0    0  0.32620321845E+02  0.35988840518E+02 -0.25577468124E+03  0.28879918560E+03  0.12500000000E+03 0.  0.
         25    1    1    2    0    0  0.40747416881E+02 -0.81019174349E+01 -0.12436179645E+02  0.13230892492E+03  0.12500000000E+03 0.  0.
         25    1    1    2    0    0 -0.73367738726E+02 -0.27886923083E+02  0.14606690883E+03  0.20765607966E+03  0.12500000000E+03 0.  0.
</event>
<event>
 5    0  0.5597833E-005  0.3474339E+03  0.7546771E-02  0.1063673E+00
         21   -1    0    0  502  501  0.00000000000E+00  0.00000000000E+00  0.18002996660E+03  0.18002996660E+03  0.00000000000E+00 0.  1.
         21   -1    0    0  501  502 -0.00000000000E+00 -0.00000000000E+00 -0.67050121819E+03  0.67050121819E+03  0.00000000000E+00 0.  1.
         25    1    1    2    0    0  0.24170870947E+02 -0.59949400188E+02 -0.16211073890E+02  0.14165436987E+03  0.12500000000E+03 0.  0.
         25    1    1    2    0    0 -0.13181000064E+03  0.21857860983E+03 -0.34152867239E+03  0.44431668774E+03  0.12500000000E+03 0.  0.
         25    1    1    2    0    0  0.10763912969E+03 -0.15862920964E+03 -0.13273150531E+03  0.26456012718E+03  0.12500000000E+03 0.  0.
</event>
<event>
 5    0  0.5597833E-005  0.3031331E+03  0.7546771E-02  0.1083685E+00
         21   -1    0    0  502  501  0.00000000000E+00  0.00000000000E+00  0.17516088268E+04  0.17516088268E+04  0.00000000000E+00 0.  1.
         21   -1    0    0  501  502 -0.00000000000E+00 -0.00000000000E+00 -0.52460143795E+02  0.52460143795E+02  0.00000000000E+00 0.  1.
         25    1    1    2    0    0  0.46238523268E+02 -0.21395468260E+03  0.54645787435E+03  0.60179383154E+03  0.12500000000E+03 0.  0.
         25    1    1    2    0    0 -0.42559944315E+02  0.91689149122E+02  0.66558369213E+03  0.68472249865E+03  0.12500000000E+03 0.  0.
         25    1    1    2    0    0 -0.36785789536E+01  0.12226553348E+03  0.48710711652E+03  0.51755264040E+03  0.12500000000E+03 0.  0.
</event>
<event>
 5    0  0.5597833E-005  0.3001165E+03  0.7546771E-02  0.1085182E+00
         21   -1    0    0  502  501  0.00000000000E+00  0.00000000000E+00  0.20790043911E+04  0.20790043911E+04  0.00000000000E+00 0.  1.
         21   -1    0    0  501  502 -0.00000000000E+00 -0.00000000000E+00 -0.43323588014E+02  0.43323588014E+02  0.00000000000E+00 0.  1.
         25    1    1    2    0    0 -0.93773957969E+02 -0.16629311048E+02  0.21455055254E+03  0.26594553724E+03  0.12500000000E+03 0.  0.
         25    1    1    2    0    0  0.16164061740E+03  0.48183764756E+02  0.12137670945E+04  0.12317893180E+04  0.12500000000E+03 0.  0.
         25    1    1    2    0    0 -0.67866659433E+02 -0.31554453708E+02  0.60736315608E+03  0.62459312386E+03  0.12500000000E+03 0.  0.
</event>
<event>
 5    0  0.5597833E-005  0.3978658E+03  0.7546771E-02  0.1044521E+00
         21   -1    0    0  502  501  0.00000000000E+00  0.00000000000E+00  0.10638739412E+04  0.10638739412E+04  0.00000000000E+00 0. -1.
         21   -1    0    0  501  502 -0.00000000000E+00 -0.00000000000E+00 -0.14879315894E+03  0.14879315894E+03  0.00000000000E+00 0. -1.
         25    1    1    2    0    0  0.69084595975E+02  0.46582959285E+02  0.79250525824E+03  0.80661777679E+03  0.12500000000E+03 0.  0.
         25    1    1    2    0    0  0.61871415988E+02  0.83812992152E+02  0.68038597933E+02  0.17637159799E+03  0.12500000000E+03 0.  0.
         25    1    1    2    0    0 -0.13095601196E+03 -0.13039595144E+03  0.54536926090E+02  0.22967772536E+03  0.12500000000E+03 0.  0.
</event>
<event>
 5    0  0.5597833E-005  0.2340495E+03  0.7546771E-02  0.1123822E+00
         21   -1    0    0  502  501  0.00000000000E+00  0.00000000000E+00  0.17623577745E+03  0.17623577745E+03  0.00000000000E+00 0.  1.
         21   -1    0    0  501  502 -0.00000000000E+00 -0.00000000000E+00 -0.31082889854E+03  0.31082889854E+03  0.00000000000E+00 0.  1.
         25    1    1    2    0    0 -0.27652019487E+02  0.33484106991E+02  0.49150635391E+02  0.14116162567E+03  0.12500000000E+03 0.  0.
         25    1    1    2    0    0  0.81559281868E+02 -0.13501570129E+02 -0.12930650433E+03  0.19793782083E+03  0.12500000000E+03 0.  0.
         25    1    1    2    0    0 -0.53907262381E+02 -0.19982536862E+02 -0.54437252154E+02  0.14796522949E+03  0.12500000000E+03 0.  0.
</event>
<event>
 5    0  0.5838775E-005  0.3636454E+03  0.7546771E-02  0.1057150E+00
         21   -1    0    0  502  501  0.00000000000E+00  0.00000000000E+00  0.19509902984E+03  0.19509902984E+03  0.00000000000E+00 0. -1.
         21   -1    0    0  501  502 -0.00000000000E+00 -0.00000000000E+00 -0.67779915861E+03  0.67779915861E+03  0.00000000000E+00 0. -1.
         25    1    1    2    0    0 -0.13080798575E+02 -0.18617518549E+03 -0.18653412494E+03  0.29197994238E+03  0.12500000000E+03 0.  0.
         25    1    1    2    0    0  0.15172032152E+03  0.17350222252E+03 -0.29382644392E+03  0.39380332189E+03  0.12500000000E+03 0.  0.
         25    1    1    2    0    0 -0.13863952294E+03  0.12672962966E+02 -0.23395599111E+01  0.18711492419E+03  0.12500000000E+03 0.  0.
</event>
<event>
 5    0  0.5597833E-005  0.3427724E+03  0.7546771E-02  0.1065621E+00
         21   -1    0    0  502  501  0.00000000000E+00  0.00000000000E+00  0.39710265110E+03  0.39710265110E+03  0.00000000000E+00 0. -1.
         21   -1    0    0  501  502 -0.00000000000E+00 -0.00000000000E+00 -0.29587539257E+03  0.29587539257E+03  0.00000000000E+00 0. -1.
         25    1    1    2    0    0  0.13050199857E+03 -0.12633101605E+02 -0.63918856549E+01  0.18126285634E+03  0.12500000000E+03 0.  0.
         25    1    1    2    0    0 -0.10632374363E+03 -0.17251934149E+03  0.15225821999E+03  0.28262205718E+03  0.12500000000E+03 0.  0.
         25    1    1    2    0    0 -0.24178254933E+02  0.18515244309E+03 -0.44639075803E+02  0.22909313015E+03  0.12500000000E+03 0.  0.
</event>
<event>
 5    0  0.5597833E-005  0.3388254E+03  0.7546771E-02  0.1067297E+00
         21   -1    0    0  502  501  0.00000000000E+00  0.00000000000E+00  0.10910850248E+04  0.10910850248E+04  0.00000000000E+00 0.  1.
         21   -1    0    0  501  502 -0.00000000000E+00 -0.00000000000E+00 -0.10521881205E+03  0.10521881205E+03  0.00000000000E+00 0. -1.
         25    1    1    2    0    0  0.23490716863E+01  0.22889344310E+02  0.79684205513E+02  0.15001337550E+03  0.12500000000E+03 0.  0.
         25    1    1    2    0    0  0.10601302574E+03  0.34308730375E+01  0.46449655740E+02  0.17039102979E+03  0.12500000000E+03 0.  0.
         25    1    1    2    0    0 -0.10836209742E+03 -0.26320217348E+02  0.85973235146E+03  0.87589943152E+03  0.12500000000E+03 0.  0.
</event>
<event>
 5    0  0.5597833E-005  0.2267043E+03  0.7546771E-02  0.1128981E+00
         21   -1    0    0  502  501  0.00000000000E+00  0.00000000000E+00  0.20951923314E+03  0.20951923314E+03  0.00000000000E+00 0.  1.
         21   -1    0    0  501  502 -0.00000000000E+00 -0.00000000000E+00 -0.24529898935E+03  0.24529898935E+03  0.00000000000E+00 0.  1.
         25    1    1    2    0    0 -0.81578330174E+01  0.67393007306E+02 -0.95847430886E+02  0.17152287801E+03  0.12500000000E+03 0.  0.
         25    1    1    2    0    0 -0.42559293325E+02 -0.30406830275E+02  0.44167276288E+02  0.14251883058E+03  0.12500000000E+03 0.  0.
         25    1    1    2    0    0  0.50717126343E+02 -0.36986177031E+02  0.15900398395E+02  0.14077651390E+03  0.12500000000E+03 0.  0.
</event>
<event>
 5    0  0.5597833E-005  0.3171255E+03  0.7546771E-02  0.1076980E+00
         21   -1    0    0  502  501  0.00000000000E+00  0.00000000000E+00  0.30370794941E+03  0.30370794941E+03  0.00000000000E+00 0. -1.
         21   -1    0    0  501  502 -0.00000000000E+00 -0.00000000000E+00 -0.33113582364E+03  0.33113582364E+03  0.00000000000E+00 0. -1.
         25    1    1    2    0    0 -0.63886503277E+02 -0.80826687098E+02 -0.82111773089E+02  0.18160887073E+03  0.12500000000E+03 0.  0.
         25    1    1    2    0    0 -0.78464054770E+01  0.20425181478E+03 -0.37107304283E+02  0.24245065879E+03  0.12500000000E+03 0.  0.
         25    1    1    2    0    0  0.71732908754E+02 -0.12342512768E+03  0.91791203144E+02  0.21078424352E+03  0.12500000000E+03 0.  0.
</event>
<event>
 5    0  0.5597833E-005  0.2340309E+03  0.7546771E-02  0.1123834E+00
         21   -1    0    0  502  501  0.00000000000E+00  0.00000000000E+00  0.10051331003E+04  0.10051331003E+04  0.00000000000E+00 0.  1.
         21   -1    0    0  501  502 -0.00000000000E+00 -0.00000000000E+00 -0.54490769432E+02  0.54490769432E+02  0.00000000000E+00 0.  1.
         25    1    1    2    0    0  0.33074617202E+02 -0.10074582862E+03  0.27462120547E+03  0.31982097927E+03  0.12500000000E+03 0.  0.
         25    1    1    2    0    0  0.23312924299E+02  0.31335637756E+02  0.19557762422E+03  0.23537421637E+03  0.12500000000E+03 0.  0.
         25    1    1    2    0    0 -0.56387541501E+02  0.69410190862E+02  0.48044350121E+03  0.50442867413E+03  0.12500000000E+03 0.  0.
</event>
<event>
 5    0  0.5597833E-005  0.2300577E+03  0.7546771E-02  0.1126599E+00
         21   -1    0    0  502  501  0.00000000000E+00  0.00000000000E+00  0.21176431535E+04  0.21176431535E+04  0.00000000000E+00 0.  1.
         21   -1    0    0  501  502 -0.00000000000E+00 -0.00000000000E+00 -0.24993130815E+02  0.24993130815E+02  0.00000000000E+00 0.  1.
         25    1    1    2    0    0  0.45084901545E+02  0.10148985882E+03  0.79797387571E+03  0.81530371403E+03  0.12500000000E+03 0.  0.
         25    1    1    2    0    0 -0.67167233381E+02 -0.54970461567E+02  0.55931634847E+03  0.57964900289E+03  0.12500000000E+03 0.  0.
         25    1    1    2    0    0  0.22082331836E+02 -0.46519397255E+02  0.73535979849E+03  0.74768356738E+03  0.12500000000E+03 0.  0.
</event>
<event>
 5    0  0.5597833E-005  0.2668525E+03  0.7546771E-02  0.1103095E+00
         21   -1    0    0  502  501  0.00000000000E+00  0.00000000000E+00  0.60799964542E+03  0.60799964542E+03  0.00000000000E+00 0.  1.
         21   -1    0    0  501  502 -0.00000000000E+00 -0.00000000000E+00 -0.11712218494E+03  0.11712218494E+03  0.00000000000E+00 0.  1.
         25    1    1    2    0    0 -0.10320609815E+01  0.54964837281E+02 -0.26100465780E+01  0.13657968674E+03  0.12500000000E+03 0.  0.
         25    1    1    2    0    0  0.15330096127E+02 -0.31499695730E+02  0.72839695554E+02  0.14885517770E+03  0.12500000000E+03 0.  0.
         25    1    1    2    0    0 -0.14298035145E+02 -0.23465141550E+02  0.42064781151E+03  0.43968696592E+03  0.12500000000E+03 0.  0.
</event>
<event>
 5    0  0.5597833E-005  0.2764035E+03  0.7546771E-02  0.1097670E+00
         21   -1    0    0  502  501  0.00000000000E+00  0.00000000000E+00  0.21099839143E+03  0.21099839143E+03  0.00000000000E+00 0. -1.
         21   -1    0    0  501  502 -0.00000000000E+00 -0.00000000000E+00 -0.36208277404E+03  0.36208277404E+03  0.00000000000E+00 0. -1.
         25    1    1    2    0    0  0.48149925217E+02 -0.13688324515E+03 -0.32177143210E+02  0.19420557831E+03  0.12500000000E+03 0.  0.
         25    1    1    2    0    0 -0.43926770589E+02  0.50979529361E+02 -0.16748720141E+03  0.21955736432E+03  0.12500000000E+03 0.  0.
         25    1    1    2    0    0 -0.42231546288E+01  0.85903715789E+02  0.48579962014E+02  0.15931822285E+03  0.12500000000E+03 0.  0.
</event>
<event>
 5    0  0.5597833E-005  0.2524330E+03  0.7546771E-02  0.1111777E+00
         21   -1    0    0  502  501  0.00000000000E+00  0.00000000000E+00  0.51807888500E+03  0.51807888500E+03  0.00000000000E+00 0. -1.
         21   -1    0    0  501  502 -0.00000000000E+00 -0.00000000000E+00 -0.12299750282E+03  0.12299750282E+03  0.00000000000E+00 0. -1.
         25    1    1    2    0    0 -0.75422264566E+02  0.41806252194E+02  0.12557317533E+03  0.19705304635E+03  0.12500000000E+03 0.  0.
         25    1    1    2    0    0  0.89786154590E+02 -0.40697813507E+02  0.14738508504E+02  0.15987523014E+03  0.12500000000E+03 0.  0.
         25    1    1    2    0    0 -0.14363890024E+02 -0.11084386876E+01  0.25476969835E+03  0.28414811133E+03  0.12500000000E+03 0.  0.
</event>
<event>
 5    0  0.5597833E-005  0.2558892E+03  0.7546771E-02  0.1109639E+00
         21   -1    0    0  502  501  0.00000000000E+00  0.00000000000E+00  0.19437314984E+03  0.19437314984E+03  0.00000000000E+00 0.  1.
         21   -1    0    0  501  502 -0.00000000000E+00 -0.00000000000E+00 -0.33687399174E+03  0.33687399174E+03  0.00000000000E+00 0.  1.
         25    1    1    2    0    0  0.39401199400E+02  0.90144860673E+02 -0.89656874727E+02  0.18259766046E+03  0.12500000000E+03 0.  0.
         25    1    1    2    0    0 -0.87232561172E+02 -0.50678561316E+02 -0.11330958215E+03  0.19657542499E+03  0.12500000000E+03 0.  0.
         25    1    1    2    0    0  0.47831361772E+02 -0.39466299356E+02  0.60465614965E+02  0.15207405613E+03  0.12500000000E+03 0.  0.
</event>
<event>
 5    0  0.5597833E-005  0.2502439E+03  0.7546771E-02  0.1113151E+00
         21   -1    0    0  502  501  0.00000000000E+00  0.00000000000E+00  0.26800707009E+03  0.26800707009E+03  0.00000000000E+00 0.  1.
         21   -1    0    0  501  502 -0.00000000000E+00 -0.00000000000E+00 -0.23365803483E+03  0.23365803483E+03  0.00000000000E+00 0.  1.
         25    1    1    2    0    0 -0.57588139904E+01  0.87199416726E+02 -0.45081546121E+02  0.15904165497E+03  0.12500000000E+03 0.  0.
         25    1    1    2    0    0  0.14240617676E+01  0.61199175459E+02  0.31012063204E+02  0.14259773874E+03  0.12500000000E+03 0.  0.
         25    1    1    2    0    0  0.43347522229E+01 -0.14839859218E+03  0.48418518178E+02  0.20002571120E+03  0.12500000000E+03 0.  0.
</event>
<event>
 5    0  0.5874008E-005  0.2933698E+03  0.7546771E-02  0.1088603E+00
         21   -1    0    0  502  501  0.00000000000E+00  0.00000000000E+00  0.12966647720E+03  0.12966647720E+03  0.00000000000E+00 0.  1.
         21   -1    0    0  501  502 -0.00000000000E+00 -0.00000000000E+00 -0.66374763475E+03  0.66374763475E+03  0.00000000000E+00 0.  1.
         25    1    1    2    0    0  0.80581383753E+02 -0.54631779498E+02 -0.26283564758E+03  0.30689667378E+03  0.12500000000E+03 0.  0.
         25    1    1    2    0    0  0.62534110462E+02 -0.64419239157E+02 -0.29341684435E+02  0.15667254957E+03  0.12500000000E+03 0.  0.
         25    1    1    2    0    0 -0.14311549421E+03  0.11905101866E+03 -0.24190382553E+03  0.32984488860E+03  0.12500000000E+03 0.  0.
</event>
<event>
 5    0  0.5597833E-005  0.4793277E+03  0.7546771E-02  0.1019320E+00
         21   -1    0    0  502  501  0.00000000000E+00  0.00000000000E+00  0.24642970895E+03  0.24642970895E+03  0.00000000000E+00 0. -1.
         21   -1    0    0  501  502 -0.00000000000E+00 -0.00000000000E+00 -0.93233516772E+03  0.93233516772E+03  0.00000000000E+00 0. -1.
         25    1    1    2    0    0 -0.36788297731E+03 -0.29753699333E+02 -0.22849743956E+03  0.45172917495E+03  0.12500000000E+03 0.  0.
         25    1    1    2    0    0 -0.26843012168E+02 -0.36225311462E+02 -0.48717048499E+02  0.14153152054E+03  0.12500000000E+03 0.  0.
         25    1    1    2    0    0  0.39472598948E+03  0.65979010794E+02 -0.40869097071E+03  0.58550418118E+03  0.12500000000E+03 0.  0.
</event>
<event>
 5    0  0.5597833E-005  0.2441116E+03  0.7546771E-02  0.1117084E+00
         21   -1    0    0  502  501  0.00000000000E+00  0.00000000000E+00  0.62619293031E+03  0.62619293031E+03  0.00000000000E+00 0.  1.
         21   -1    0    0  501  502 -0.00000000000E+00 -0.00000000000E+00 -0.95163151845E+02  0.95163151845E+02  0.00000000000E+00 0.  1.
         25    1    1    2    0    0  0.84170780241E+02 -0.81471426258E+02  0.14480800457E+03  0.22431377963E+03  0.12500000000E+03 0.  0.
         25    1    1    2    0    0 -0.10740817433E+03  0.19366752919E+02  0.16200428038E+03  0.23190940880E+03  0.12500000000E+03 0.  0.
         25    1    1    2    0    0  0.23237394090E+02  0.62104673339E+02  0.22421749352E+03  0.26513289372E+03  0.12500000000E+03 0.  0.
</event>
<event>
 5    0  0.5597833E-005  0.3463347E+03  0.7546771E-02  0.1064130E+00
         21   -1    0    0  502  501  0.00000000000E+00  0.00000000000E+00  0.35175345403E+03  0.35175345403E+03  0.00000000000E+00 0. -1.
         21   -1    0    0  501  502 -0.00000000000E+00 -0.00000000000E+00 -0.34099947648E+03  0.34099947648E+03  0.00000000000E+00 0. -1.
         25    1    1    2    0    0 -0.97958561190E+01  0.16879531079E+03  0.89423917173E+02  0.22849387892E+03  0.12500000000E+03 0.  0.
         25    1    1    2    0    0 -0.16519275255E+03 -0.96056804533E+02 -0.62105010637E+02  0.23663809401E+03  0.12500000000E+03 0.  0.
         25    1    1    2    0    0  0.17498860867E+03 -0.72738506256E+02 -0.16564928980E+02  0.22762095758E+03  0.12500000000E+03 0.  0.
</event>
<event>
 5    0  0.5597833E-005  0.3376431E+03  0.7546771E-02  0.1067804E+00
         21   -1    0    0  502  501  0.00000000000E+00  0.00000000000E+00  0.45943690325E+03  0.45943690325E+03  0.00000000000E+00 0. -1.
         21   -1    0    0  501  502 -0.00000000000E+00 -0.00000000000E+00 -0.24813605865E+03  0.24813605865E+03  0.00000000000E+00 0. -1.
         25    1    1    2    0    0 -0.19552361569E+03 -0.67555700850E+01  0.10054676750E+02  0.23238162264E+03  0.12500000000E+03 0.  0.
         25    1    1    2    0    0  0.23146994920E+03 -0.76229711168E+02  0.15199775052E+03  0.31323732602E+03  0.12500000000E+03 0.  0.
         25    1    1    2    0    0 -0.35946333510E+02  0.82985281254E+02  0.49248417330E+02  0.16195401325E+03  0.12500000000E+03 0.  0.
</event>
<event>
 5    0  0.5597833E-005  0.3229570E+03  0.7546771E-02  0.1074296E+00
         21   -1    0    0  502  501  0.00000000000E+00  0.00000000000E+00  0.42506248062E+03  0.42506248062E+03  0.00000000000E+00 0.  1.
         21   -1    0    0  501  502 -0.00000000000E+00 -0.00000000000E+00 -0.24537853897E+03  0.24537853897E+03  0.00000000000E+00 0.  1.
         25    1    1    2    0    0  0.53360075175E+02  0.43680214270E+02  0.85866169836E+02  0.16659309068E+03  0.12500000000E+03 0.  0.
         25    1    1    2    0    0  0.40004472795E+02  0.15993491302E+03 -0.45648515880E+02  0.21186864149E+03  0.12500000000E+03 0.  0.
         25    1    1    2    0    0 -0.93364547970E+02 -0.20361512729E+03  0.13946628769E+03  0.29197928742E+03  0.12500000000E+03 0.  0.
</event>
<event>
 5    0  0.5597833E-005  0.3179662E+03  0.7546771E-02  0.1076589E+00
         21   -1    0    0  502  501  0.00000000000E+00  0.00000000000E+00  0.51639043540E+03  0.51639043540E+03  0.00000000000E+00 0.  1.
         21   -1    0    0  501  502 -0.00000000000E+00 -0.00000000000E+00 -0.19578692927E+03  0.19578692927E+03  0.00000000000E+00 0.  1.
         25    1    1    2    0    0 -0.77748049980E+02  0.50121948651E+02  0.34267309397E+03  0.37630681411E+03  0.12500000000E+03 0.  0.
         25    1    1    2    0    0  0.22877077054E+02  0.52354730352E+02 -0.75751307282E+02  0.15693195659E+03  0.12500000000E+03 0.  0.
         25    1    1    2    0    0  0.54870972925E+02 -0.10247667900E+03  0.53681719443E+02  0.17893859397E+03  0.12500000000E+03 0.  0.
</event>
<event>
 5    0  0.5597833E-005  0.2157773E+03  0.7546771E-02  0.1137071E+00
         21   -1    0    0  502  501  0.00000000000E+00  0.00000000000E+00  0.13996901686E+03  0.13996901686E+03  0.00000000000E+00 0. -1.
         21   -1    0    0  501  502 -0.00000000000E+00 -0.00000000000E+00 -0.33264383012E+03  0.33264383012E+03  0.00000000000E+00 0. -1.
         25    1    1    2    0    0 -0.26906651142E+01  0.38116443568E+02  0.29829640928E+00  0.13071033597E+03  0.12500000000E+03 0.  0.
         25    1    1    2    0    0  0.56629135737E+02 -0.47239332117E+01 -0.12675909482E+03  0.18687440349E+03  0.12500000000E+03 0.  0.
         25    1    1    2    0    0 -0.53938470623E+02 -0.33392510357E+02 -0.66214014843E+02  0.15502810752E+03  0.12500000000E+03 0.  0.
</event>
<event>
 5    0  0.5597833E-005  0.2814926E+03  0.7546771E-02  0.1094876E+00
         21   -1    0    0  502  501  0.00000000000E+00  0.00000000000E+00  0.16214097149E+03  0.16214097149E+03  0.00000000000E+00 0.  1.
         21   -1    0    0  501  502 -0.00000000000E+00 -0.00000000000E+00 -0.48869876555E+03  0.48869876555E+03  0.00000000000E+00 0.  1.
         25    1    1    2    0    0  0.12698267492E+02 -0.11750420359E+02 -0.10522732132E+03  0.16430796551E+03  0.12500000000E+03 0.  0.
         25    1    1    2    0    0  0.82660032803E+02  0.15414450819E+03 -0.70477203157E+02  0.22624156690E+03  0.12500000000E+03 0.  0.
         25    1    1    2    0    0 -0.95358300295E+02 -0.14239408783E+03 -0.15085326958E+03  0.26029020463E+03  0.12500000000E+03 0.  0.
</event>
<event>
 5    0  0.5597833E-005  0.2461762E+03  0.7546771E-02  0.1115745E+00
         21   -1    0    0  502  501  0.00000000000E+00  0.00000000000E+00  0.66863770020E+02  0.66863770020E+02  0.00000000000E+00 0. -1.
         21   -1    0    0  501  502 -0.00000000000E+00 -0.00000000000E+00 -0.90636115590E+03  0.90636115590E+03  0.00000000000E+00 0. -1.
         25    1    1    2    0    0  0.12424818522E+03 -0.13739699396E+02 -0.44877104927E+03  0.48233478574E+03  0.12500000000E+03 0.  0.
         25    1    1    2    0    0 -0.12992645261E+02 -0.56988456297E+01 -0.13376433961E+03  0.18362784164E+03  0.12500000000E+03 0.  0.
         25    1    1    2    0    0 -0.11125553996E+03  0.19438545026E+02 -0.25696199699E+03  0.30726229854E+03  0.12500000000E+03 0.  0.
</event>
<event>
 5    0  0.5684756E-005  0.2961337E+03  0.7546771E-02  0.1087189E+00
         21   -1    0    0  502  501  0.00000000000E+00  0.00000000000E+00  0.41712772631E+03  0.41712772631E+03  0.00000000000E+00 0. -1.
         21   -1    0    0  501  502 -0.00000000000E+00 -0.00000000000E+00 -0.21023579682E+03  0.21023579682E+03  0.00000000000E+00 0. -1.
         25    1    1    2    0    0  0.13458941910E+02  0.11201442612E+03  0.15142149261E+03  0.22645494740E+03  0.12500000000E+03 0.  0.
         25    1    1    2    0    0 -0.34369333634E+02 -0.19603173856E+03 -0.10280226244E+02  0.23524535419E+03  0.12500000000E+03 0.  0.
         25    1    1    2    0    0  0.20910391725E+02  0.84017312441E+02  0.65750663117E+02  0.16566322154E+03  0.12500000000E+03 0.  0.
</event>
<event>
 5    0  0.5597833E-005  0.3820362E+03  0.7546771E-02  0.1050184E+00
         21   -1    0    0  502  501  0.00000000000E+00  0.00000000000E+00  0.22890981771E+03  0.22890981771E+03  0.00000000000E+00 0. -1.
         21   -1    0    0  501  502 -0.00000000000E+00 -0.00000000000E+00 -0.63759456290E+03  0.63759456290E+03  0.00000000000E+00 0. -1.
         25    1    1    2    0    0 -0.14734741536E+03  0.54379101398E+02 -0.12057745568E+03  0.23416291401E+03  0.12500000000E+03 0.  0.
         25    1    1    2    0    0  0.20406945807E+03 -0.12364198536E+02 -0.38899651177E+03  0.45688127921E+03  0.12500000000E+03 0.  0.
         25    1    1    2    0    0 -0.56722042716E+02 -0.42014902862E+02  0.10088922226E+03  0.17546018739E+03  0.12500000000E+03 0.  0.
</event>
<event>
 5    0  0.5597833E-005  0.3425159E+03  0.7546771E-02  0.1065729E+00
         21   -1    0    0  502  501  0.00000000000E+00  0.00000000000E+00  0.43088332145E+03  0.43088332145E+03  0.00000000000E+00 0.  1.
         21   -1    0    0  501  502 -0.00000000000E+00 -0.00000000000E+00 -0.27227119634E+03  0.27227119634E+03  0.00000000000E+00 0.  1.
         25    1    1    2    0    0  0.10915412709E+03 -0.85981088349E+02  0.16428527581E+03  0.24884136084E+03  0.12500000000E+03 0.  0.
         25    1    1    2    0    0 -0.23099844219E+03  0.91122539186E+02  0.15265779393E+02  0.27842708465E+03  0.12500000000E+03 0.  0.
         25    1    1    2    0    0  0.12184431511E+03 -0.51414508368E+01 -0.20938930095E+02  0.17588607231E+03  0.12500000000E+03 0.  0.
</event>
<event>
 5    0  0.5597833E-005  0.3309528E+03  0.7546771E-02  0.1070716E+00
         21   -1    0    0  502  501  0.00000000000E+00  0.00000000000E+00  0.45125321847E+03  0.45125321847E+03  0.00000000000E+00 0. -1.
         21   -1    0    0  501  502 -0.00000000000E+00 -0.00000000000E+00 -0.24272351944E+03  0.24272351944E+03  0.00000000000E+00 0. -1.
         25    1    1    2    0    0  0.14906895210E+03  0.51732695135E+02  0.28466699157E+02  0.20330562508E+03  0.12500000000E+03 0.  0.
         25    1    1    2    0    0 -0.21451162176E+03  0.37459848266E+02  0.20207889486E+03  0.32230320484E+03  0.12500000000E+03 0.  0.
         25    1    1    2    0    0  0.65442669658E+02 -0.89192543401E+02 -0.22015894988E+02  0.16836790799E+03  0.12500000000E+03 0.  0.
</event>
<event>
 5    0  0.5597833E-005  0.5515934E+03  0.7546771E-02  0.1001126E+00
         21   -1    0    0  502  501  0.00000000000E+00  0.00000000000E+00  0.11256416633E+04  0.11256416633E+04  0.00000000000E+00 0.  1.
         21   -1    0    0  501  502 -0.00000000000E+00 -0.00000000000E+00 -0.27029493762E+03  0.27029493762E+03  0.00000000000E+00 0.  1.
         25    1    1    2    0    0  0.56022140552E+02 -0.14152809247E+02  0.11418453632E+03  0.17889072244E+03  0.12500000000E+03 0.  0.
         25    1    1    2    0    0  0.20607698817E+03 -0.38526872973E+03  0.24190300879E+03  0.51482209045E+03  0.12500000000E+03 0.  0.
         25    1    1    2    0    0 -0.26209912872E+03  0.39942153897E+03  0.49925918054E+03  0.70222378799E+03  0.12500000000E+03 0.  0.
</event>
<event>
 5    0  0.5597833E-005  0.5531970E+03  0.7546771E-02  0.1000757E+00
         21   -1    0    0  502  501  0.00000000000E+00  0.00000000000E+00  0.36118467173E+03  0.36118467173E+03  0.00000000000E+00 0.  1.
         21   -1    0    0  501  502 -0.00000000000E+00 -0.00000000000E+00 -0.84728664860E+03  0.84728664860E+03  0.00000000000E+00 0.  1.
         25    1    1    2    0    0 -0.76907835142E+02 -0.17341920697E+01  0.27886493487E+03  0.31513247124E+03  0.12500000000E+03 0.  0.
         25    1    1    2    0    0  0.12071514810E+03  0.12878703972E+03 -0.62835278123E+03  0.66453778392E+03  0.12500000000E+03 0.  0.
         25    1    1    2    0    0 -0.43807312955E+02 -0.12705284765E+03 -0.13661413051E+03  0.22880106517E+03  0.12500000000E+03 0.  0.
</event>
<event>
 5    0  0.5597833E-005  0.4893951E+03  0.7546771E-02  0.1016585E+00
         21   -1    0    0  502  501  0.00000000000E+00  0.00000000000E+00  0.47474146813E+03  0.47474146813E+03  0.00000000000E+00 0.  1.
         21   -1    0    0  501  502 -0.00000000000E+00 -0.00000000000E+00 -0.50450101494E+03  0.50450101494E+03  0.00000000000E+00 0.  1.
         25    1    1    2    0    0  0.27291618454E+03 -0.13491918694E+03 -0.25888761991E+03  0.41872930460E+03  0.12500000000E+03 0.  0.
         25    1    1    2    0    0 -0.29492836840E+03  0.16710605514E+03  0.23230790632E+03  0.42953363022E+03  0.12500000000E+03 0.  0.
         25    1    1    2    0    0  0.22012183863E+02 -0.32186868200E+02 -0.31798332276E+01  0.13097954826E+03  0.12500000000E+03 0.  0.
</event>
<event>
 5    0  0.5597833E-005  0.3264210E+03  0.7546771E-02  0.1072732E+00
         21   -1    0    0  502  501  0.00000000000E+00  0.00000000000E+00  0.35737864174E+03  0.35737864174E+03  0.00000000000E+00 0. -1.
         21   -1    0    0  501  502 -0.00000000000E+00 -0.00000000000E+00 -0.29814512264E+03  0.29814512264E+03  0.00000000000E+00 0. -1.
         25    1    1    2    0    0 -0.17554018305E+03  0.10065038213E+03  0.15808825630E+03  0.28559018202E+03  0.12500000000E+03 0.  0.
         25    1    1    2    0    0  0.64118444698E+02 -0.32288768121E+02  0.30790902512E+02  0.14740020073E+03  0.12500000000E+03 0.  0.
         25    1    1    2    0    0  0.11142173835E+03 -0.68361614006E+02 -0.12964563971E+03  0.22253338164E+03  0.12500000000E+03 0.  0.
</event>
<event>
 5    0  0.5719065E-005  0.2561514E+03  0.7546771E-02  0.1109478E+00
         21   -1    0    0  502  501  0.00000000000E+00  0.00000000000E+00  0.47556731921E+03  0.47556731921E+03  0.00000000000E+00 0. -1.
         21   -1    0    0  501  502 -0.00000000000E+00 -0.00000000000E+00 -0.13796899403E+03  0.13796899403E+03  0.00000000000E+00 0. -1.
         25    1    1    2    0    0 -0.75873976845E+02 -0.10034808121E+02  0.23802239520E+03  0.27953035319E+03  0.12500000000E+03 0.  0.
         25    1    1    2    0    0  0.79220597648E+02 -0.61669654033E+02  0.27289333219E+01  0.16034804769E+03  0.12500000000E+03 0.  0.
         25    1    1    2    0    0 -0.33466208032E+01  0.71704462154E+02  0.96846996661E+02  0.17365791236E+03  0.12500000000E+03 0.  0.
</event>
<event>
 5    0  0.5597833E-005  0.4658335E+03  0.7546771E-02  0.1023103E+00
         21   -1    0    0  502  501  0.00000000000E+00  0.00000000000E+00  0.11804180597E+03  0.11804180597E+03  0.00000000000E+00 0.  1.
         21   -1    0    0  501  502 -0.00000000000E+00 -0.00000000000E+00 -0.18383391211E+04  0.18383391211E+04  0.00000000000E+00 0.  1.
         25    1    1    2    0    0  0.42969841344E+02  0.76297646223E+01 -0.23544856464E+03  0.27012154146E+03  0.12500000000E+03 0.  0.
         25    1    1    2    0    0 -0.33714878098E+03 -0.16913678003E+03 -0.10515258307E+04  0.11241032531E+04  0.12500000000E+03 0.  0.
         25    1    1    2    0    0  0.29417893963E+03  0.16150701541E+03 -0.43332291975E+03  0.56215613252E+03  0.12500000000E+03 0.  0.
</event>
<event>
 5    0  0.5597833E-005  0.2929041E+03  0.7546771E-02  0.1088843E+00
         21   -1    0    0  502  501  0.00000000000E+00  0.00000000000E+00  0.69454807454E+02  0.69454807454E+02  0.00000000000E+00 0.  1.
         21   -1    0    0  501  502 -0.00000000000E+00 -0.00000000000E+00 -0.12352323117E+04  0.12352323117E+04  0.00000000000E+00 0.  1.
         25    1    1    2    0    0  0.19623297782E+03  0.15978377636E+02 -0.38741784262E+03  0.45219495233E+03  0.12500000000E+03 0.  0.
         25    1    1    2    0    0 -0.36692934773E+02 -0.47700597463E+02 -0.37758098877E+03  0.40226126030E+03  0.12500000000E+03 0.  0.
         25    1    1    2    0    0 -0.15954004304E+03  0.31722219826E+02 -0.40077867283E+03  0.45023090649E+03  0.12500000000E+03 0.  0.
</event>
<event>
 5    0  0.5597833E-005  0.2897556E+03  0.7546771E-02  0.1090477E+00
         21   -1    0    0  502  501  0.00000000000E+00  0.00000000000E+00  0.15785219868E+03  0.15785219868E+03  0.00000000000E+00 0.  1.
         21   -1    0    0  501  502 -0.00000000000E+00 -0.00000000000E+00 -0.53187907172E+03  0.53187907172E+03  0.00000000000E+00 0.  1.
         25    1    1    2    0    0 -0.84468808101E+02 -0.10734158734E+03 -0.83332193728E+02  0.20304297680E+03  0.12500000000E+03 0.  0.
         25    1    1    2    0    0 -0.24507633720E+02  0.62612185610E+02  0.79663118254E+01  0.14215967087E+03  0.12500000000E+03 0.  0.
         25    1    1    2    0    0  0.10897644182E+03  0.44729401731E+02 -0.29866099114E+03  0.34452862273E+03  0.12500000000E+03 0.  0.
</event>
<event>
 5    0  0.5597833E-005  0.3387140E+03  0.7546771E-02  0.1067345E+00
         21   -1    0    0  502  501  0.00000000000E+00  0.00000000000E+00  0.58446300360E+02  0.58446300360E+02  0.00000000000E+00 0. -1.
         21   -1    0    0  501  502 -0.00000000000E+00 -0.00000000000E+00 -0.19629499013E+04  0.19629499013E+04  0.00000000000E+00 0. -1.
         25    1    1    2    0    0  0.15048577340E+03  0.80200398445E+02 -0.13771380447E+04  0.13932739379E+04  0.12500000000E+03 0.  0.
         25    1    1    2    0    0 -0.14131154210E+03  0.38049361601E+01 -0.32316821500E+03  0.37422737027E+03  0.12500000000E+03 0.  0.
         25    1    1    2    0    0 -0.91742312924E+01 -0.84005334605E+02 -0.20419734120E+03  0.25389489344E+03  0.12500000000E+03 0.  0.
</event>
<event>
 5    0  0.5597833E-005  0.2864235E+03  0.7546771E-02  0.1092231E+00
         21   -1    0    0  502  501  0.00000000000E+00  0.00000000000E+00  0.30293916360E+03  0.30293916360E+03  0.00000000000E+00 0. -1.
         21   -1    0    0  501  502 -0.00000000000E+00 -0.00000000000E+00 -0.27080818485E+03  0.27080818485E+03  0.00000000000E+00 0. -1.
         25    1    1    2    0    0 -0.27780248245E+02 -0.24663592853E+02  0.12184481593E+03  0.17846902861E+03  0.12500000000E+03 0.  0.
         25    1    1    2    0    0 -0.32683795096E+02  0.72597589830E+02 -0.17189078601E+03  0.22695832839E+03  0.12500000000E+03 0.  0.
         25    1    1    2    0    0  0.60464043341E+02 -0.47933996977E+02  0.82176948831E+02  0.16831999145E+03  0.12500000000E+03 0.  0.
</event>
<event>
 5    0  0.5597833E-005  0.3961473E+03  0.7546771E-02  0.1045122E+00
         21   -1    0    0  502  501  0.00000000000E+00  0.00000000000E+00  0.26262623878E+03  0.26262623878E+03  0.00000000000E+00 0.  1.
         21   -1    0    0  501  502 -0.00000000000E+00 -0.00000000000E+00 -0.59755140628E+03  0.59755140628E+03  0.00000000000E+00 0.  1.
         25    1    1    2    0    0 -0.70422998331E+02  0.30296469537E+03 -0.14477223419E+03  0.36514518363E+03  0.12500000000E+03 0.  0.
         25    1    1    2    0    0 -0.51403837064E+02 -0.14043890551E+03 -0.16470086923E+03  0.25517996977E+03  0.12500000000E+03 0.  0.
         25    1    1    2    0    0  0.12182683539E+03 -0.16252578986E+03 -0.25452064086E+02  0.23985249167E+03  0.12500000000E+03 0.  0.
</event>
<event>
 5    0  0.5597833E-005  0.4005217E+03  0.7546771E-02  0.1043599E+00
         21   -1    0    0  502  501  0.00000000000E+00  0.00000000000E+00  0.20694447324E+03  0.20694447324E+03  0.00000000000E+00 0. -1.
         21   -1    0    0  501  502 -0.00000000000E+00 -0.00000000000E+00 -0.77517221611E+03  0.77517221611E+03  0.00000000000E+00 0. -1.
         25    1    1    2    0    0  0.13251837096E+03  0.27827951053E+03 -0.39285292106E+03  0.51474170436E+03  0.12500000000E+03 0.  0.
         25    1    1    2    0    0 -0.87699767098E+02 -0.10219955978E+03  0.29413326542E+01  0.18376520510E+03  0.12500000000E+03 0.  0.
         25    1    1    2    0    0 -0.44818603858E+02 -0.17607995075E+03 -0.17831615446E+03  0.28360977989E+03  0.12500000000E+03 0.  0.
</event>
<event>
 5    0  0.5597833E-005  0.4327208E+03  0.7546771E-02  0.1033004E+00
         21   -1    0    0  502  501  0.00000000000E+00  0.00000000000E+00  0.29731389043E+03  0.29731389043E+03  0.00000000000E+00 0.  1.
         21   -1    0    0  501  502 -0.00000000000E+00 -0.00000000000E+00 -0.62979658061E+03  0.62979658061E+03  0.00000000000E+00 0.  1.
         25    1    1    2    0    0 -0.17642150984E+03  0.94010658190E+02 -0.28344262059E+02  0.23746778767E+03  0.12500000000E+03 0.  0.
         25    1    1    2    0    0  0.33465322191E+02  0.21810859865E+03 -0.12411301119E+03  0.28234788496E+03  0.12500000000E+03 0.  0.
         25    1    1    2    0    0  0.14295618765E+03 -0.31211925684E+03 -0.18002541693E+03  0.40729479842E+03  0.12500000000E+03 0.  0.
</event>
<event>
 5    0  0.5597833E-005  0.3336757E+03  0.7546771E-02  0.1069522E+00
         21   -1    0    0  502  501  0.00000000000E+00  0.00000000000E+00  0.16239926403E+04  0.16239926403E+04  0.00000000000E+00 0. -1.
         21   -1    0    0  501  502 -0.00000000000E+00 -0.00000000000E+00 -0.68559096391E+02  0.68559096391E+02  0.00000000000E+00 0. -1.
         25    1    1    2    0    0  0.35571843162E+02 -0.94479806534E+02  0.59023681064E+03  0.61171585111E+03  0.12500000000E+03 0.  0.
         25    1    1    2    0    0 -0.11992427141E+02 -0.87223047026E+02  0.88808402431E+02  0.17681518765E+03  0.12500000000E+03 0.  0.
         25    1    1    2    0    0 -0.23579416021E+02  0.18170285356E+03  0.87638833085E+03  0.90402069794E+03  0.12500000000E+03 0.  0.
</event>
<event>
 5    0  0.5597833E-005  0.2358067E+03  0.7546771E-02  0.1122618E+00
         21   -1    0    0  502  501  0.00000000000E+00  0.00000000000E+00  0.11527515858E+03  0.11527515858E+03  0.00000000000E+00 0.  1.
         21   -1    0    0  501  502 -0.00000000000E+00 -0.00000000000E+00 -0.48236577695E+03  0.48236577695E+03  0.00000000000E+00 0.  1.
         25    1    1    2    0    0 -0.13371539443E+03  0.64411141398E+01 -0.15947834790E+03  0.24285723812E+03  0.12500000000E+03 0.  0.
         25    1    1    2    0    0  0.58883899838E+02  0.90130173206E+01 -0.76598276247E+02  0.15824299057E+03  0.12500000000E+03 0.  0.
         25    1    1    2    0    0  0.74831494589E+02 -0.15454131460E+02 -0.13101399422E+03  0.19654070684E+03  0.12500000000E+03 0.  0.
</event>
<event>
 5    0  0.6263018E-005  0.3743257E+03  0.7546771E-02  0.1053051E+00
         21   -1    0    0  502  501  0.00000000000E+00  0.00000000000E+00  0.58831072218E+03  0.58831072218E+03  0.00000000000E+00 0. -1.
         21   -1    0    0  501  502 -0.00000000000E+00 -0.00000000000E+00 -0.23817294215E+03  0.23817294215E+03  0.00000000000E+00 0. -1.
         25    1    1    2    0    0  0.13726134529E+03  0.17130035801E+02 -0.10064987558E+02  0.18670945078E+03  0.12500000000E+03 0.  0.
         25    1    1    2    0    0  0.16027906432E+02  0.58112935453E+02  0.40092969080E+03  0.42426833964E+03  0.12500000000E+03 0.  0.
         25    1    1    2    0    0 -0.15328925172E+03 -0.75242971254E+02 -0.40726923216E+02  0.21550587391E+03  0.12500000000E+03 0.  0.
</event>
<event>
 5    0  0.5597833E-005  0.2235871E+03  0.7546771E-02  0.1131237E+00
         21   -1    0    0  502  501  0.00000000000E+00  0.00000000000E+00  0.12301501028E+03  0.12301501028E+03  0.00000000000E+00 0.  1.
         21   -1    0    0  501  502 -0.00000000000E+00 -0.00000000000E+00 -0.40638274472E+03  0.40638274472E+03  0.00000000000E+00 0.  1.
         25    1    1    2    0    0 -0.11515847827E+02 -0.24335257195E+02 -0.18791862066E+01  0.12788022065E+03  0.12500000000E+03 0.  0.
         25    1    1    2    0    0 -0.84875247022E+01 -0.42603040020E+02 -0.19016023145E+03  0.23167427721E+03  0.12500000000E+03 0.  0.
         25    1    1    2    0    0  0.20003372529E+02  0.66938297216E+02 -0.91328316792E+02  0.16984325714E+03  0.12500000000E+03 0.  0.
</event>
<event>
 5    0  0.5597833E-005  0.2731238E+03  0.7546771E-02  0.1099505E+00
         21   -1    0    0  502  501  0.00000000000E+00  0.00000000000E+00  0.23467977180E+04  0.23467977180E+04  0.00000000000E+00 0.  1.
         21   -1    0    0  501  502 -0.00000000000E+00 -0.00000000000E+00 -0.31786547950E+02  0.31786547950E+02  0.00000000000E+00 0.  1.
         25    1    1    2    0    0  0.45839566659E+01  0.87785663165E+02  0.24988748390E+03  0.29290969586E+03  0.12500000000E+03 0.  0.
         25    1    1    2    0    0 -0.51068729920E+02 -0.24496348281E+02  0.12269426425E+04  0.12345935907E+04  0.12500000000E+03 0.  0.
         25    1    1    2    0    0  0.46484773254E+02 -0.63289314884E+02  0.83818104362E+03  0.85108097935E+03  0.12500000000E+03 0.  0.
</event>
<event>
 5    0  0.5597833E-005  0.2524243E+03  0.7546771E-02  0.1111782E+00
         21   -1    0    0  502  501  0.00000000000E+00  0.00000000000E+00  0.20439052826E+03  0.20439052826E+03  0.00000000000E+00 0.  1.
         21   -1    0    0  501  502 -0.00000000000E+00 -0.00000000000E+00 -0.31174643354E+03  0.31174643354E+03  0.00000000000E+00 0.  1.
         25    1    1    2    0    0 -0.87021946521E+02  0.49934248879E+02  0.56916467866E+02  0.17009036628E+03  0.12500000000E+03 0.  0.
         25    1    1    2    0    0 -0.24976932168E+01 -0.73133020966E+02 -0.50563045580E+02  0.15341544513E+03  0.12500000000E+03 0.  0.
         25    1    1    2    0    0  0.89519639738E+02  0.23198772086E+02 -0.11370932756E+03  0.19263115039E+03  0.12500000000E+03 0.  0.
</event>
<event>
 5    0  0.5597833E-005  0.2264541E+03  0.7546771E-02  0.1129161E+00
         21   -1    0    0  502  501  0.00000000000E+00  0.00000000000E+00  0.87007156430E+02  0.87007156430E+02  0.00000000000E+00 0.  1.
         21   -1    0    0  501  502 -0.00000000000E+00 -0.00000000000E+00 -0.58939383204E+03  0.58939383204E+03  0.00000000000E+00 0.  1.
         25    1    1    2    0    0 -0.42357593498E+02 -0.16909750136E+02 -0.81729986448E+02  0.15615663950E+03  0.12500000000E+03 0.  0.
         25    1    1    2    0    0  0.65652763217E+02  0.21862272396E+02 -0.34200916479E+03  0.37065282014E+03  0.12500000000E+03 0.  0.
         25    1    1    2    0    0 -0.23295169719E+02 -0.49525222604E+01 -0.78647524373E+02  0.14959152883E+03  0.12500000000E+03 0.  0.
</event>
<event>
 5    0  0.5597833E-005  0.2512138E+03  0.7546771E-02  0.1112540E+00
         21   -1    0    0  502  501  0.00000000000E+00  0.00000000000E+00  0.17540778797E+03  0.17540778797E+03  0.00000000000E+00 0.  1.
         21   -1    0    0  501  502 -0.00000000000E+00 -0.00000000000E+00 -0.35978089502E+03  0.35978089502E+03  0.00000000000E+00 0.  1.
         25    1    1    2    0    0 -0.41007053177E+02  0.10574963983E+03 -0.96409364881E+02  0.19438191884E+03  0.12500000000E+03 0.  0.
         25    1    1    2    0    0  0.66458238536E+02 -0.12253688960E+02  0.27820637997E+02  0.14479585029E+03  0.12500000000E+03 0.  0.
         25    1    1    2    0    0 -0.25451185359E+02 -0.93495950868E+02 -0.11578438016E+03  0.19601091386E+03  0.12500000000E+03 0.  0.
</event>
<event>
 5    0  0.5597833E-005  0.3378987E+03  0.7546771E-02  0.1067694E+00
         21   -1    0    0  502  501  0.00000000000E+00  0.00000000000E+00  0.10159469110E+03  0.10159469110E+03  0.00000000000E+00 0. -1.
         21   -1    0    0  501  502 -0.00000000000E+00 -0.00000000000E+00 -0.11238338717E+04  0.11238338717E+04  0.00000000000E+00 0. -1.
         25    1    1    2    0    0  0.49551058729E+02  0.17162632122E+02 -0.11567820611E+03  0.17820300427E+03  0.12500000000E+03 0.  0.
         25    1    1    2    0    0 -0.13869379862E+03 -0.20703659044E+03 -0.44679952379E+03  0.52664497911E+03  0.12500000000E+03 0.  0.
         25    1    1    2    0    0  0.89142739888E+02  0.18987395832E+03 -0.45976145065E+03  0.52058057938E+03  0.12500000000E+03 0.  0.
</event>
<event>
 5    0  0.5597833E-005  0.2290908E+03  0.7546771E-02  0.1127281E+00
         21   -1    0    0  502  501  0.00000000000E+00  0.00000000000E+00  0.25984660166E+03  0.25984660166E+03  0.00000000000E+00 0. -1.
         21   -1    0    0  501  502 -0.00000000000E+00 -0.00000000000E+00 -0.20197524213E+03  0.20197524213E+03  0.00000000000E+00 0. -1.
         25    1    1    2    0    0  0.56202751063E+02  0.45389661033E+02  0.70834473020E+02  0.16081508985E+03  0.12500000000E+03 0.  0.
         25    1    1    2    0    0 -0.52431405960E+02  0.31527212804E+02  0.40202352073E+02  0.14485940284E+03  0.12500000000E+03 0.  0.
         25    1    1    2    0    0 -0.37713451025E+01 -0.76916873837E+02 -0.53165465564E+02  0.15614735109E+03  0.12500000000E+03 0.  0.
</event>
<event>
 5    0  0.5597833E-005  0.2329918E+03  0.7546771E-02  0.1124552E+00
         21   -1    0    0  502  501  0.00000000000E+00  0.00000000000E+00  0.12068936259E+04  0.12068936259E+04  0.00000000000E+00 0.  1.
         21   -1    0    0  501  502 -0.00000000000E+00 -0.00000000000E+00 -0.44979274340E+02  0.44979274340E+02  0.00000000000E+00 0.  1.
         25    1    1    2    0    0  0.22567673068E+01  0.59051178501E+02  0.47816147049E+03  0.49775046614E+03  0.12500000000E+03 0.  0.
         25    1    1    2    0    0  0.25946739190E+02  0.51714197343E+02  0.21135511374E+03  0.25227678369E+03  0.12500000000E+03 0.  0.
         25    1    1    2    0    0 -0.28203506496E+02 -0.11076537584E+03  0.47239776732E+03  0.50184565041E+03  0.12500000000E+03 0.  0.
</event>
<event>
 5    0  0.5597833E-005  0.4743044E+03  0.7546771E-02  0.1020712E+00
         21   -1    0    0  502  501  0.00000000000E+00  0.00000000000E+00  0.60522547401E+03  0.60522547401E+03  0.00000000000E+00 0.  1.
         21   -1    0    0  501  502 -0.00000000000E+00 -0.00000000000E+00 -0.37170386368E+03  0.37170386368E+03  0.00000000000E+00 0.  1.
         25    1    1    2    0    0  0.75798646300E+02 -0.24727122830E+03  0.14425202066E+03  0.32143761540E+03  0.12500000000E+03 0.  0.
         25    1    1    2    0    0 -0.29323858805E+03  0.47116018361E+02 -0.69688097273E+00  0.32223326077E+03  0.12500000000E+03 0.  0.
         25    1    1    2    0    0  0.21743994175E+03  0.20015520994E+03  0.89966470638E+02  0.33325846152E+03  0.12500000000E+03 0.  0.
</event>
<event>
 5    0  0.5597833E-005  0.3280312E+03  0.7546771E-02  0.1072011E+00
         21   -1    0    0  502  501  0.00000000000E+00  0.00000000000E+00  0.36681198659E+03  0.36681198659E+03  0.00000000000E+00 0.  1.
         21   -1    0    0  501  502 -0.00000000000E+00 -0.00000000000E+00 -0.29335053545E+03  0.29335053545E+03  0.00000000000E+00 0.  1.
         25    1    1    2    0    0 -0.37095739117E+02 -0.10745200360E+03 -0.27538183577E+02  0.17118813771E+03  0.12500000000E+03 0.  0.
         25    1    1    2    0    0  0.13434434267E+03  0.26327220366E+02  0.21014318192E+03  0.28022612627E+03  0.12500000000E+03 0.  0.
         25    1    1    2    0    0 -0.97248603552E+02  0.81124783237E+02 -0.10914354720E+03  0.20874825806E+03  0.12500000000E+03 0.  0.
</event>
<event>
 5    0  0.5597833E-005  0.4866369E+03  0.7546771E-02  0.1017327E+00
         21   -1    0    0  502  501  0.00000000000E+00  0.00000000000E+00  0.19490049330E+03  0.19490049330E+03  0.00000000000E+00 0.  1.
         21   -1    0    0  501  502 -0.00000000000E+00 -0.00000000000E+00 -0.12150582763E+04  0.12150582763E+04  0.00000000000E+00 0.  1.
         25    1    1    2    0    0 -0.66978579302E+02 -0.26529243386E+03 -0.63826896257E+03  0.70560504117E+03  0.12500000000E+03 0.  0.
         25    1    1    2    0    0 -0.18507700913E+03  0.10192276056E+03 -0.73951802307E+02  0.25638958149E+03  0.12500000000E+03 0.  0.
         25    1    1    2    0    0  0.25205558843E+03  0.16336967330E+03 -0.30793701812E+03  0.44796414694E+03  0.12500000000E+03 0.  0.
</event>
<event>
 5    0  0.5997938E-005  0.2876863E+03  0.7546771E-02  0.1091563E+00
         21   -1    0    0  502  501  0.00000000000E+00  0.00000000000E+00  0.61613366709E+03  0.61613366709E+03  0.00000000000E+00 0.  1.
         21   -1    0    0  501  502 -0.00000000000E+00 -0.00000000000E+00 -0.13432703333E+03  0.13432703333E+03  0.00000000000E+00 0. -1.
         25    1    1    2    0    0 -0.83633743844E+02  0.11935084723E+02  0.22035721351E+03  0.26705683085E+03  0.12500000000E+03 0.  0.
         25    1    1    2    0    0 -0.91750986866E+02  0.77534081384E+02  0.10904434269E+03  0.20480587404E+03  0.12500000000E+03 0.  0.
         25    1    1    2    0    0  0.17538473071E+03 -0.89469166108E+02  0.15240507756E+03  0.27859799554E+03  0.12500000000E+03 0.  0.
</event>
<event>
 5    0  0.5597833E-005  0.3158284E+03  0.7546771E-02  0.1077585E+00
         21   -1    0    0  502  501  0.00000000000E+00  0.00000000000E+00  0.22073115540E+04  0.22073115540E+04  0.00000000000E+00 0. -1.
         21   -1    0    0  501  502 -0.00000000000E+00 -0.00000000000E+00 -0.45189634318E+02  0.45189634318E+02  0.00000000000E+00 0. -1.
         25    1    1    2    0    0 -0.27789959114E+02 -0.11635645902E+03  0.25068129417E+03  0.30459353019E+03  0.12500000000E+03 0.  0.
         25    1    1    2    0    0 -0.73825411110E+02 -0.14929821511E+02  0.48728311837E+03  0.50866779763E+03  0.12500000000E+03 0.  0.
         25    1    1    2    0    0  0.10161537022E+03  0.13128628053E+03  0.14241575072E+04  0.14392398605E+04  0.12500000000E+03 0.  0.
</event>
<event>
 5    0  0.5597833E-005  0.2755293E+03  0.7546771E-02  0.1098156E+00
         21   -1    0    0  502  501  0.00000000000E+00  0.00000000000E+00  0.91463998509E+02  0.91463998509E+02  0.00000000000E+00 0. -1.
         21   -1    0    0  501  502 -0.00000000000E+00 -0.00000000000E+00 -0.83001370272E+03  0.83001370272E+03  0.00000000000E+00 0. -1.
         25    1    1    2    0    0  0.18101789368E+01 -0.54446725731E+02 -0.36862952516E+02  0.14125013260E+03  0.12500000000E+03 0.  0.
         25    1    1    2    0    0 -0.55246170522E+02  0.70261018459E+02 -0.16130667892E+03  0.22278598416E+03  0.12500000000E+03 0.  0.
         25    1    1    2    0    0  0.53435991585E+02 -0.15814292728E+02 -0.54038007277E+03  0.55744158448E+03  0.12500000000E+03 0.  0.
</event>
<event>
 5    0  0.5597833E-005  0.3333640E+03  0.7546771E-02  0.1069658E+00
         21   -1    0    0  502  501  0.00000000000E+00  0.00000000000E+00  0.42872960429E+03  0.42872960429E+03  0.00000000000E+00 0. -1.
         21   -1    0    0  501  502 -0.00000000000E+00 -0.00000000000E+00 -0.25921133314E+03  0.25921133314E+03  0.00000000000E+00 0. -1.
         25    1    1    2    0    0 -0.18370185319E+03  0.74016462514E+02 -0.46516780143E+02  0.23877524667E+03  0.12500000000E+03 0.  0.
         25    1    1    2    0    0  0.20495102487E+03 -0.75153527107E+02  0.19997696031E+03  0.32135457035E+03  0.12500000000E+03 0.  0.
         25    1    1    2    0    0 -0.21249171685E+02  0.11370645923E+01  0.16058090978E+02  0.12781112040E+03  0.12500000000E+03 0.  0.
</event>
<event>
 5    0  0.5597833E-005  0.3237255E+03  0.7546771E-02  0.1073947E+00
         21   -1    0    0  502  501  0.00000000000E+00  0.00000000000E+00  0.13011537389E+03  0.13011537389E+03  0.00000000000E+00 0.  1.
         21   -1    0    0  501  502 -0.00000000000E+00 -0.00000000000E+00 -0.80542537735E+03  0.80542537735E+03  0.00000000000E+00 0. -1.
         25    1    1    2    0    0  0.50342432325E+02  0.87571464886E+02 -0.15497285438E+03  0.22325928323E+03  0.12500000000E+03 0.  0.
         25    1    1    2    0    0 -0.21602947953E+03 -0.86553638959E+02 -0.20326996171E+03  0.33332258516E+03  0.12500000000E+03 0.  0.
         25    1    1    2    0    0  0.16568704721E+03 -0.10178259272E+01 -0.31706718737E+03  0.37895888285E+03  0.12500000000E+03 0.  0.
</event>
<event>
 5    0  0.5597833E-005  0.2786573E+03  0.7546771E-02  0.1096425E+00
         21   -1    0    0  502  501  0.00000000000E+00  0.00000000000E+00  0.12656283431E+04  0.12656283431E+04  0.00000000000E+00 0. -1.
         21   -1    0    0  501  502 -0.00000000000E+00 -0.00000000000E+00 -0.61352820520E+02  0.61352820520E+02  0.00000000000E+00 0. -1.
         25    1    1    2    0    0  0.35934828720E+02  0.84738840493E+02  0.55237245505E+03  0.57377026074E+03  0.12500000000E+03 0.  0.
         25    1    1    2    0    0 -0.10919518804E+03 -0.14496302566E+03  0.38433943873E+03  0.44303461722E+03  0.12500000000E+03 0.  0.
         25    1    1    2    0    0  0.73260359323E+02  0.60224185163E+02  0.26756362878E+03  0.31017628563E+03  0.12500000000E+03 0.  0.
</event>
<event>
 5    0  0.5597833E-005  0.3221193E+03  0.7546771E-02  0.1074678E+00
         21   -1    0    0  502  501  0.00000000000E+00  0.00000000000E+00  0.96543435900E+03  0.96543435900E+03  0.00000000000E+00 0. -1.
         21   -1    0    0  501  502 -0.00000000000E+00 -0.00000000000E+00 -0.10747580456E+03  0.10747580456E+03  0.00000000000E+00 0. -1.
         25    1    1    2    0    0  0.25631032688E+02  0.43429034462E+02  0.59955722972E+03  0.61452168602E+03  0.12500000000E+03 0.  0.
         25    1    1    2    0    0 -0.10478650593E+03  0.68949988038E+02  0.19172036655E+03  0.26099044355E+03  0.12500000000E+03 0.  0.
         25    1    1    2    0    0  0.79155473241E+02 -0.11237902250E+03  0.66680958162E+02  0.19739803399E+03  0.12500000000E+03 0.  0.
</event>
<event>
 5    0  0.5597833E-005  0.2622516E+03  0.7546771E-02  0.1105798E+00
         21   -1    0    0  502  501  0.00000000000E+00  0.00000000000E+00  0.51398250371E+03  0.51398250371E+03  0.00000000000E+00 0.  1.
         21   -1    0    0  501  502 -0.00000000000E+00 -0.00000000000E+00 -0.13380980632E+03  0.13380980632E+03  0.00000000000E+00 0.  1.
         25    1    1    2    0    0 -0.10570170698E+03  0.21881354097E+02  0.30600704696E+03  0.34773115665E+03  0.12500000000E+03 0.  0.
         25    1    1    2    0    0  0.13110935770E+02 -0.23753694346E+01  0.68552800852E+02  0.14318528389E+03  0.12500000000E+03 0.  0.
         25    1    1    2    0    0  0.92590771214E+02 -0.19505984662E+02  0.56128495786E+01  0.15687586950E+03  0.12500000000E+03 0.  0.
</event>
<event>
 5    0  0.5597833E-005  0.4699783E+03  0.7546771E-02  0.1021926E+00
         21   -1    0    0  502  501  0.00000000000E+00  0.00000000000E+00  0.14007669164E+03  0.14007669164E+03  0.00000000000E+00 0.  1.
         21   -1    0    0  501  502 -0.00000000000E+00 -0.00000000000E+00 -0.15768477361E+04  0.15768477361E+04  0.00000000000E+00 0.  1.
         25    1    1    2    0    0  0.80921805307E+02  0.96805046724E+02 -0.68684945496E+02  0.19042630434E+03  0.12500000000E+03 0.  0.
         25    1    1    2    0    0 -0.21456279150E+03  0.19933876111E+03 -0.52010260472E+03  0.60984002215E+03  0.12500000000E+03 0.  0.
         25    1    1    2    0    0  0.13364098619E+03 -0.29614380783E+03 -0.84798349427E+03  0.91665810129E+03  0.12500000000E+03 0.  0.
</event>
<event>
 5    0  0.5597833E-005  0.5202686E+03  0.7546771E-02  0.1008620E+00
         21   -1    0    0  502  501  0.00000000000E+00  0.00000000000E+00  0.40237548849E+03  0.40237548849E+03  0.00000000000E+00 0.  1.
         21   -1    0    0  501  502 -0.00000000000E+00 -0.00000000000E+00 -0.67270360209E+03  0.67270360209E+03  0.00000000000E+00 0.  1.
         25    1    1    2    0    0 -0.23501020068E+03  0.22674268945E+03 -0.24166081708E+03  0.42504939967E+03  0.12500000000E+03 0.  0.
         25    1    1    2    0    0  0.37992017521E+03 -0.18372101093E+03 -0.79835252093E+02  0.44731579099E+03  0.12500000000E+03 0.  0.
         25    1    1    2    0    0 -0.14490997453E+03 -0.43021678523E+02  0.51167955576E+02  0.20271389991E+03  0.12500000000E+03 0.  0.
</event>
<event>
 5    0  0.5597833E-005  0.3635641E+03  0.7546771E-02  0.1057181E+00
         21   -1    0    0  502  501  0.00000000000E+00  0.00000000000E+00  0.18374366020E+03  0.18374366020E+03  0.00000000000E+00 0.  1.
         21   -1    0    0  501  502 -0.00000000000E+00 -0.00000000000E+00 -0.71936556561E+03  0.71936556561E+03  0.00000000000E+00 0.  1.
         25    1    1    2    0    0  0.16791981484E+02  0.68734256521E+02 -0.12870510474E+03  0.19286361152E+03  0.12500000000E+03 0.  0.
         25    1    1    2    0    0  0.11160930459E+03 -0.16638913763E+03 -0.44393393326E+03  0.50283627464E+03  0.12500000000E+03 0.  0.
         25    1    1    2    0    0 -0.12840128607E+03  0.97654881106E+02  0.37017132588E+02  0.20740933965E+03  0.12500000000E+03 0.  0.
</event>
<event>
 5    0  0.5938114E-005  0.3486612E+03  0.7546771E-02  0.1063166E+00
         21   -1    0    0  502  501  0.00000000000E+00  0.00000000000E+00  0.34251520797E+03  0.34251520797E+03  0.00000000000E+00 0.  1.
         21   -1    0    0  501  502 -0.00000000000E+00 -0.00000000000E+00 -0.35491754012E+03  0.35491754012E+03  0.00000000000E+00 0.  1.
         25    1    1    2    0    0 -0.81095394688E+02  0.45184758378E+02 -0.22615123399E+03  0.27456785330E+03  0.12500000000E+03 0.  0.
         25    1    1    2    0    0  0.15778582749E+03  0.93076412301E+01  0.79206580467E+02  0.21652178165E+03  0.12500000000E+03 0.  0.
         25    1    1    2    0    0 -0.76690432800E+02 -0.54492399608E+02  0.13454232138E+03  0.20634311314E+03  0.12500000000E+03 0.  0.
</event>
<event>
 5    0  0.5597833E-005  0.2281423E+03  0.7546771E-02  0.1127954E+00
         21   -1    0    0  502  501  0.00000000000E+00  0.00000000000E+00  0.49956521291E+03  0.49956521291E+03  0.00000000000E+00 0.  1.
         21   -1    0    0  501  502 -0.00000000000E+00 -0.00000000000E+00 -0.10418837387E+03  0.10418837387E+03  0.00000000000E+00 0.  1.
         25    1    1    2    0    0 -0.56800689094E+02 -0.39374817926E+02  0.46883300846E+02  0.15033209393E+03  0.12500000000E+03 0.  0.
         25    1    1    2    0    0  0.10669827268E+02  0.74702939030E+02  0.22572014432E+03  0.26882886353E+03  0.12500000000E+03 0.  0.
         25    1    1    2    0    0  0.46130861826E+02 -0.35328121104E+02  0.12277339388E+03  0.18459262932E+03  0.12500000000E+03 0.  0.
</event>
<event>
 5    0  0.5597833E-005  0.2584982E+03  0.7546771E-02  0.1108049E+00
         21   -1    0    0  502  501  0.00000000000E+00  0.00000000000E+00  0.14679629237E+03  0.14679629237E+03  0.00000000000E+00 0. -1.
         21   -1    0    0  501  502 -0.00000000000E+00 -0.00000000000E+00 -0.45519773767E+03  0.45519773767E+03  0.00000000000E+00 0. -1.
         25    1    1    2    0    0  0.26852517785E+02 -0.29220876151E+00  0.33308594465E+01  0.12789541713E+03  0.12500000000E+03 0.  0.
         25    1    1    2    0    0 -0.65989126845E+02 -0.75134683012E+02 -0.27556028178E+03  0.31868205840E+03  0.12500000000E+03 0.  0.
         25    1    1    2    0    0  0.39136609059E+02  0.75426891774E+02 -0.36172022966E+02  0.15541655451E+03  0.12500000000E+03 0.  0.
</event>
<event>
 5    0  0.5597833E-005  0.4597712E+03  0.7546771E-02  0.1024848E+00
         21   -1    0    0  502  501  0.00000000000E+00  0.00000000000E+00  0.11620258857E+04  0.11620258857E+04  0.00000000000E+00 0. -1.
         21   -1    0    0  501  502 -0.00000000000E+00 -0.00000000000E+00 -0.18191469449E+03  0.18191469449E+03  0.00000000000E+00 0. -1.
         25    1    1    2    0    0 -0.25603025523E+03 -0.47176800079E+02  0.86871850813E+03  0.91546381055E+03  0.12500000000E+03 0.  0.
         25    1    1    2    0    0  0.18241462080E+03  0.30230667917E+02 -0.29997244540E+02  0.22519729537E+03  0.12500000000E+03 0.  0.
         25    1    1    2    0    0  0.73615634436E+02  0.16946132162E+02  0.14138992763E+03  0.20327947428E+03  0.12500000000E+03 0.  0.
</event>
<event>
 5    0  0.5597833E-005  0.2681375E+03  0.7546771E-02  0.1102350E+00
         21   -1    0    0  502  501  0.00000000000E+00  0.00000000000E+00  0.27608883051E+03  0.27608883051E+03  0.00000000000E+00 0.  1.
         21   -1    0    0  501  502 -0.00000000000E+00 -0.00000000000E+00 -0.26041507307E+03  0.26041507307E+03  0.00000000000E+00 0.  1.
         25    1    1    2    0    0 -0.24202897580E+02  0.48567687955E+02  0.12232581181E+03  0.18312073831E+03  0.12500000000E+03 0.  0.
         25    1    1    2    0    0  0.11478208481E+03 -0.53866714402E+02 -0.85392987500E+02  0.19746774984E+03  0.12500000000E+03 0.  0.
         25    1    1    2    0    0 -0.90579187232E+02  0.52990264468E+01 -0.21259066868E+02  0.15591541542E+03  0.12500000000E+03 0.  0.
</event>
<event>
 5    0  0.5597833E-005  0.5115939E+03  0.7546771E-02  0.1010796E+00
         21   -1    0    0  502  501  0.00000000000E+00  0.00000000000E+00  0.17064364294E+04  0.17064364294E+04  0.00000000000E+00 0.  1.
         21   -1    0    0  501  502 -0.00000000000E+00 -0.00000000000E+00 -0.15337715286E+03  0.15337715286E+03  0.00000000000E+00 0.  1.
         25    1    1    2    0    0 -0.39824542850E+03  0.16336537519E+03  0.55212763546E+03  0.71116636097E+03  0.12500000000E+03 0.  0.
         25    1    1    2    0    0  0.33590824368E+03 -0.15373445695E+02  0.60125044458E+03  0.70014126297E+03  0.12500000000E+03 0.  0.
         25    1    1    2    0    0  0.62337184822E+02 -0.14799192950E+03  0.39968119652E+03  0.44850595833E+03  0.12500000000E+03 0.  0.
</event>
<event>
 5    0  0.5597833E-005  0.3286038E+03  0.7546771E-02  0.1071756E+00
         21   -1    0    0  502  501  0.00000000000E+00  0.00000000000E+00  0.26760713897E+02  0.26760713897E+02  0.00000000000E+00 0. -1.
         21   -1    0    0  501  502 -0.00000000000E+00 -0.00000000000E+00 -0.40350358306E+04  0.40350358306E+04  0.00000000000E+00 0. -1.
         25    1    1    2    0    0  0.11805137305E+01  0.86535115622E+02 -0.11921846349E+04  0.12018398078E+04  0.12500000000E+03 0.  0.
         25    1    1    2    0    0  0.17415736755E+03 -0.14015820216E+03 -0.10914932991E+04  0.11211412633E+04  0.12500000000E+03 0.  0.
         25    1    1    2    0    0 -0.17533788128E+03  0.53623086543E+02 -0.17245971827E+04  0.17388154735E+04  0.12500000000E+03 0.  0.
</event>
<event>
 5    0  0.5597833E-005  0.2990935E+03  0.7546771E-02  0.1085695E+00
         21   -1    0    0  502  501  0.00000000000E+00  0.00000000000E+00  0.11284473738E+03  0.11284473738E+03  0.00000000000E+00 0.  1.
         21   -1    0    0  501  502 -0.00000000000E+00 -0.00000000000E+00 -0.79274333152E+03  0.79274333152E+03  0.00000000000E+00 0.  1.
         25    1    1    2    0    0 -0.48144358417E+02 -0.28908297405E+02 -0.26846943413E+03  0.30142064622E+03  0.12500000000E+03 0.  0.
         25    1    1    2    0    0 -0.12883182538E+02  0.15942469916E+03 -0.34849765746E+03  0.40330860188E+03  0.12500000000E+03 0.  0.
         25    1    1    2    0    0  0.61027540955E+02 -0.13051640176E+03 -0.62931502547E+02  0.20085882080E+03  0.12500000000E+03 0.  0.
</event>
<event>
 5    0  0.5597833E-005  0.3278643E+03  0.7546771E-02  0.1072086E+00
         21   -1    0    0  502  501  0.00000000000E+00  0.00000000000E+00  0.10245805639E+04  0.10245805639E+04  0.00000000000E+00 0.  1.
         21   -1    0    0  501  502 -0.00000000000E+00 -0.00000000000E+00 -0.10491608715E+03  0.10491608715E+03  0.00000000000E+00 0.  1.
         25    1    1    2    0    0 -0.12233300646E+03 -0.38323987317E+02  0.36347733674E+03  0.40518497849E+03  0.12500000000E+03 0.  0.
         25    1    1    2    0    0  0.14954219936E+03 -0.12729850977E+03  0.18167223369E+03  0.29529236441E+03  0.12500000000E+03 0.  0.
         25    1    1    2    0    0 -0.27209192901E+02  0.16562249709E+03  0.37451490636E+03  0.42901930820E+03  0.12500000000E+03 0.  0.
</event>
<event>
 5    0  0.5597833E-005  0.6109237E+03  0.7546771E-02  0.9882999E-01
         21   -1    0    0  502  501  0.00000000000E+00  0.00000000000E+00  0.23770489868E+04  0.23770489868E+04  0.00000000000E+00 0. -1.
         21   -1    0    0  501  502 -0.00000000000E+00 -0.00000000000E+00 -0.15701305969E+03  0.15701305969E+03  0.00000000000E+00 0. -1.
         25    1    1    2    0    0  0.31707892773E+02  0.48276535369E+03  0.65430221699E+03  0.82328863004E+03  0.12500000000E+03 0.  0.
         25    1    1    2    0    0 -0.77312617850E+02 -0.33014246940E+03  0.45161698602E+03  0.57840659837E+03  0.12500000000E+03 0.  0.
         25    1    1    2    0    0  0.45604725077E+02 -0.15262288430E+03  0.11141167241E+04  0.11323668181E+04  0.12500000000E+03 0.  0.
</event>
<event>
 5    0  0.5597833E-005  0.3318961E+03  0.7546771E-02  0.1070301E+00
         21   -1    0    0  502  501  0.00000000000E+00  0.00000000000E+00  0.91215783048E+03  0.91215783048E+03  0.00000000000E+00 0.  1.
         21   -1    0    0  501  502 -0.00000000000E+00 -0.00000000000E+00 -0.12076310056E+03  0.12076310056E+03  0.00000000000E+00 0.  1.
         25    1    1    2    0    0 -0.20004798005E+02  0.10299268802E+02  0.29721926523E+03  0.32321905654E+03  0.12500000000E+03 0.  0.
         25    1    1    2    0    0  0.79059949178E+02 -0.29067596874E+02 -0.41349605758E+02  0.15630160155E+03  0.12500000000E+03 0.  0.
         25    1    1    2    0    0 -0.59055151173E+02  0.18768328072E+02  0.53552507045E+03  0.55340027294E+03  0.12500000000E+03 0.  0.
</event>
<event>
 5    0  0.5597833E-005  0.2592765E+03  0.7546771E-02  0.1107579E+00
         21   -1    0    0  502  501  0.00000000000E+00  0.00000000000E+00  0.13980694873E+03  0.13980694873E+03  0.00000000000E+00 0. -1.
         21   -1    0    0  501  502 -0.00000000000E+00 -0.00000000000E+00 -0.48083656229E+03  0.48083656229E+03  0.00000000000E+00 0. -1.
         25    1    1    2    0    0  0.17176353019E+01  0.18231150350E+02  0.13799704153E+02  0.12708562841E+03  0.12500000000E+03 0.  0.
         25    1    1    2    0    0  0.30786154676E+02  0.45706538292E+02 -0.31605777164E+03  0.34431728097E+03  0.12500000000E+03 0.  0.
         25    1    1    2    0    0 -0.32503789977E+02 -0.63937688642E+02 -0.38771546069E+02  0.14924060163E+03  0.12500000000E+03 0.  0.
</event>
<event>
 5    0  0.5597833E-005  0.2868244E+03  0.7546771E-02  0.1092019E+00
         21   -1    0    0  502  501  0.00000000000E+00  0.00000000000E+00  0.32927608705E+03  0.32927608705E+03  0.00000000000E+00 0. -1.
         21   -1    0    0  501  502 -0.00000000000E+00 -0.00000000000E+00 -0.24984576167E+03  0.24984576167E+03  0.00000000000E+00 0. -1.
         25    1    1    2    0    0 -0.18036162832E+02 -0.18351662337E+03  0.33628577822E+02  0.22529876935E+03  0.12500000000E+03 0.  0.
         25    1    1    2    0    0  0.22968288096E+02  0.11962693662E+03  0.10242619225E+03  0.20237161629E+03  0.12500000000E+03 0.  0.
         25    1    1    2    0    0 -0.49321252640E+01  0.63889686755E+02 -0.56624444679E+02  0.15145146308E+03  0.12500000000E+03 0.  0.
</event>
