<event>
 5    0  0.5742667E-005  0.3018776E+03  0.7546771E-02  0.1084306E+00
         21   -1    0    0  502  501  0.00000000000E+00  0.00000000000E+00  0.93686338968E+03  0.93686338968E+03  0.00000000000E+00 0. -1.
         21   -1    0    0  501  502 -0.00000000000E+00 -0.00000000000E+00 -0.97271461515E+02  0.97271461515E+02  0.00000000000E+00 0. -1.
         25    1    1    2    0    0  0.23158262714E+02  0.14504401809E+03  0.45704377289E+03  0.49607265864E+03  0.12500000000E+03 0.  0.
         25    1    1    2    0    0 -0.49441998273E+02  0.15101409299E+02  0.43782394771E+02  0.14217757154E+03  0.12500000000E+03 0.  0.
         25    1    1    2    0    0  0.26283735559E+02 -0.16014542739E+03  0.33876576050E+03  0.39588462101E+03  0.12500000000E+03 0.  0.
</event>
<event>
 5    0  0.5742667E-005  0.2375516E+03  0.7546771E-02  0.1121435E+00
         21   -1    0    0  502  501  0.00000000000E+00  0.00000000000E+00  0.79643852312E+03  0.79643852312E+03  0.00000000000E+00 0.  1.
         21   -1    0    0  501  502 -0.00000000000E+00 -0.00000000000E+00 -0.70853855096E+02  0.70853855096E+02  0.00000000000E+00 0.  1.
         25    1    1    2    0    0  0.26218855354E+02 -0.10692599934E+03  0.23865942673E+03  0.29103937823E+03  0.12500000000E+03 0.  0.
         25    1    1    2    0    0 -0.12908439737E+02  0.20050219949E+02  0.10529855300E+03  0.16517089453E+03  0.12500000000E+03 0.  0.
         25    1    1    2    0    0 -0.13310415617E+02  0.86875779391E+02  0.38162668829E+03  0.41108210546E+03  0.12500000000E+03 0.  0.
</event>
<event>
 5    0  0.5742667E-005  0.3577103E+03  0.7546771E-02  0.1059494E+00
         21   -1    0    0  502  501  0.00000000000E+00  0.00000000000E+00  0.43077171510E+03  0.43077171510E+03  0.00000000000E+00 0.  1.
         21   -1    0    0  501  502 -0.00000000000E+00 -0.00000000000E+00 -0.29704045797E+03  0.29704045797E+03  0.00000000000E+00 0.  1.
         25    1    1    2    0    0 -0.88680588810E+02  0.22442554126E+02  0.86201887630E+02  0.17726725727E+03  0.12500000000E+03 0.  0.
         25    1    1    2    0    0  0.12956912239E+03 -0.12358281916E+02 -0.20042066545E+03  0.26969302503E+03  0.12500000000E+03 0.  0.
         25    1    1    2    0    0 -0.40888533581E+02 -0.10084272210E+02  0.24795003494E+03  0.28085189078E+03  0.12500000000E+03 0.  0.
</event>
<event>
 5    0  0.5742667E-005  0.3997192E+03  0.7546771E-02  0.1043877E+00
         21   -1    0    0  502  501  0.00000000000E+00  0.00000000000E+00  0.12829515308E+03  0.12829515308E+03  0.00000000000E+00 0. -1.
         21   -1    0    0  501  502 -0.00000000000E+00 -0.00000000000E+00 -0.12453737397E+04  0.12453737397E+04  0.00000000000E+00 0. -1.
         25    1    1    2    0    0 -0.33168558537E+02  0.19847487337E+02 -0.35778799822E+03  0.38096105798E+03  0.12500000000E+03 0.  0.
         25    1    1    2    0    0  0.30371447713E+03 -0.31377501813E+02 -0.49095073640E+03  0.59151048749E+03  0.12500000000E+03 0.  0.
         25    1    1    2    0    0 -0.27054591859E+03  0.11530014476E+02 -0.26833985195E+03  0.40119734726E+03  0.12500000000E+03 0.  0.
</event>
<event>
 5    0  0.5742667E-005  0.4312317E+03  0.7546771E-02  0.1033472E+00
         21   -1    0    0  502  501  0.00000000000E+00  0.00000000000E+00  0.40397400593E+03  0.40397400593E+03  0.00000000000E+00 0. -1.
         21   -1    0    0  501  502 -0.00000000000E+00 -0.00000000000E+00 -0.46032847618E+03  0.46032847618E+03  0.00000000000E+00 0. -1.
         25    1    1    2    0    0  0.24577312935E+03 -0.97917251331E+02  0.33198554820E+02  0.29448151599E+03  0.12500000000E+03 0.  0.
         25    1    1    2    0    0 -0.47679709936E+02  0.26771567954E+02  0.16670914823E+03  0.21542286716E+03  0.12500000000E+03 0.  0.
         25    1    1    2    0    0 -0.19809341941E+03  0.71145683377E+02 -0.25626217331E+03  0.35439809896E+03  0.12500000000E+03 0.  0.
</event>
<event>
 5    0  0.5742667E-005  0.4284726E+03  0.7546771E-02  0.1034344E+00
         21   -1    0    0  502  501  0.00000000000E+00  0.00000000000E+00  0.48354173042E+03  0.48354173042E+03  0.00000000000E+00 0. -1.
         21   -1    0    0  501  502 -0.00000000000E+00 -0.00000000000E+00 -0.37967510148E+03  0.37967510148E+03  0.00000000000E+00 0. -1.
         25    1    1    2    0    0 -0.70779511510E+01  0.17781003796E+03  0.34992901614E+02  0.22026350164E+03  0.12500000000E+03 0.  0.
         25    1    1    2    0    0 -0.23142110645E+03  0.28119868998E+02 -0.74619176627E+02  0.27484445976E+03  0.12500000000E+03 0.  0.
         25    1    1    2    0    0  0.23849905760E+03 -0.20592990695E+03  0.14349290395E+03  0.36810887050E+03  0.12500000000E+03 0.  0.
</event>
<event>
 5    0  0.5742667E-005  0.3694010E+03  0.7546771E-02  0.1054922E+00
         21   -1    0    0  502  501  0.00000000000E+00  0.00000000000E+00  0.27724293778E+03  0.27724293778E+03  0.00000000000E+00 0. -1.
         21   -1    0    0  501  502 -0.00000000000E+00 -0.00000000000E+00 -0.49219332894E+03  0.49219332894E+03  0.00000000000E+00 0. -1.
         25    1    1    2    0    0  0.25232456918E+02 -0.38783522953E+02  0.59325862633E+02  0.14589515589E+03  0.12500000000E+03 0.  0.
         25    1    1    2    0    0 -0.12919462273E+03 -0.19723912750E+03 -0.17972784815E+03  0.32174776357E+03  0.12500000000E+03 0.  0.
         25    1    1    2    0    0  0.10396216581E+03  0.23602265045E+03 -0.94548405636E+02  0.30179334727E+03  0.12500000000E+03 0.  0.
</event>
<event>
 5    0  0.5742667E-005  0.2199495E+03  0.7546771E-02  0.1133921E+00
         21   -1    0    0  502  501  0.00000000000E+00  0.00000000000E+00  0.10885103422E+03  0.10885103422E+03  0.00000000000E+00 0.  1.
         21   -1    0    0  501  502 -0.00000000000E+00 -0.00000000000E+00 -0.44444040401E+03  0.44444040401E+03  0.00000000000E+00 0.  1.
         25    1    1    2    0    0  0.73627232529E+02 -0.23508964854E+02 -0.10799594700E+03  0.18237808357E+03  0.12500000000E+03 0.  0.
         25    1    1    2    0    0 -0.17341449302E+02  0.63259304016E+02 -0.15877516194E+03  0.21245474214E+03  0.12500000000E+03 0.  0.
         25    1    1    2    0    0 -0.56285783227E+02 -0.39750339162E+02 -0.68818260847E+02  0.15845861252E+03  0.12500000000E+03 0.  0.
</event>
<event>
 5    0  0.5742667E-005  0.2837230E+03  0.7546771E-02  0.1093673E+00
         21   -1    0    0  502  501  0.00000000000E+00  0.00000000000E+00  0.21843670489E+03  0.21843670489E+03  0.00000000000E+00 0.  1.
         21   -1    0    0  501  502 -0.00000000000E+00 -0.00000000000E+00 -0.36852195200E+03  0.36852195200E+03  0.00000000000E+00 0.  1.
         25    1    1    2    0    0  0.10575335892E+03 -0.23212376721E+02 -0.18648592872E+03  0.24924804707E+03  0.12500000000E+03 0.  0.
         25    1    1    2    0    0 -0.79248765541E+02 -0.51315444397E+02 -0.52397884672E+02  0.16517923596E+03  0.12500000000E+03 0.  0.
         25    1    1    2    0    0 -0.26504593381E+02  0.74527821118E+02  0.88798566288E+02  0.17253137386E+03  0.12500000000E+03 0.  0.
</event>
<event>
 5    0  0.5742667E-005  0.2729003E+03  0.7546771E-02  0.1099631E+00
         21   -1    0    0  502  501  0.00000000000E+00  0.00000000000E+00  0.69336711993E+02  0.69336711993E+02  0.00000000000E+00 0. -1.
         21   -1    0    0  501  502 -0.00000000000E+00 -0.00000000000E+00 -0.10741000140E+04  0.10741000140E+04  0.00000000000E+00 0. -1.
         25    1    1    2    0    0  0.44519718558E+02 -0.48097576084E+02 -0.23556057123E+03  0.27460729212E+03  0.12500000000E+03 0.  0.
         25    1    1    2    0    0  0.13151692146E+03  0.19394196065E+02 -0.29291267800E+03  0.34510240857E+03  0.12500000000E+03 0.  0.
         25    1    1    2    0    0 -0.17603664002E+03  0.28703380019E+02 -0.47629005277E+03  0.52372702529E+03  0.12500000000E+03 0.  0.
</event>
<event>
 5    0  0.5742667E-005  0.2674711E+03  0.7546771E-02  0.1102736E+00
         21   -1    0    0  502  501  0.00000000000E+00  0.00000000000E+00  0.11007270090E+04  0.11007270090E+04  0.00000000000E+00 0.  1.
         21   -1    0    0  501  502 -0.00000000000E+00 -0.00000000000E+00 -0.64994144805E+02  0.64994144805E+02  0.00000000000E+00 0.  1.
         25    1    1    2    0    0 -0.28325551861E+02  0.85613142442E+02  0.35903054282E+03  0.39071713262E+03  0.12500000000E+03 0.  0.
         25    1    1    2    0    0  0.29204887976E+02  0.80584846152E+02  0.40789512413E+03  0.43514397066E+03  0.12500000000E+03 0.  0.
         25    1    1    2    0    0 -0.87933611516E+00 -0.16619798859E+03  0.26880719720E+03  0.33986005047E+03  0.12500000000E+03 0.  0.
</event>
<event>
 5    0  0.5742667E-005  0.3798619E+03  0.7546771E-02  0.1050985E+00
         21   -1    0    0  502  501  0.00000000000E+00  0.00000000000E+00  0.33783178979E+03  0.33783178979E+03  0.00000000000E+00 0.  1.
         21   -1    0    0  501  502 -0.00000000000E+00 -0.00000000000E+00 -0.42712107347E+03  0.42712107347E+03  0.00000000000E+00 0.  1.
         25    1    1    2    0    0 -0.49574960125E+02 -0.12063729621E+03 -0.29952141589E+03  0.34978438000E+03  0.12500000000E+03 0.  0.
         25    1    1    2    0    0  0.12766447649E+03  0.10583935755E+03  0.14520071357E+03  0.25339383454E+03  0.12500000000E+03 0.  0.
         25    1    1    2    0    0 -0.78089516363E+02  0.14797938662E+02  0.65031418645E+02  0.16177464871E+03  0.12500000000E+03 0.  0.
</event>
<event>
 5    0  0.5742667E-005  0.4649766E+03  0.7546771E-02  0.1023348E+00
         21   -1    0    0  502  501  0.00000000000E+00  0.00000000000E+00  0.94122211948E+03  0.94122211948E+03  0.00000000000E+00 0. -1.
         21   -1    0    0  501  502 -0.00000000000E+00 -0.00000000000E+00 -0.22970475209E+03  0.22970475209E+03  0.00000000000E+00 0. -1.
         25    1    1    2    0    0  0.21785000914E+02  0.10018694580E+03 -0.13426415412E+02  0.16222601210E+03  0.12500000000E+03 0.  0.
         25    1    1    2    0    0 -0.16395824425E+03  0.74717232252E+02  0.71813494081E+03  0.75087133643E+03  0.12500000000E+03 0.  0.
         25    1    1    2    0    0  0.14217324334E+03 -0.17490417805E+03  0.68088419918E+01  0.25782952304E+03  0.12500000000E+03 0.  0.
</event>
<event>
 5    0  0.5742667E-005  0.2920948E+03  0.7546771E-02  0.1089260E+00
         21   -1    0    0  502  501  0.00000000000E+00  0.00000000000E+00  0.12631429254E+03  0.12631429254E+03  0.00000000000E+00 0.  1.
         21   -1    0    0  501  502 -0.00000000000E+00 -0.00000000000E+00 -0.67545294007E+03  0.67545294007E+03  0.00000000000E+00 0.  1.
         25    1    1    2    0    0 -0.60343968427E+02 -0.13646186354E+03 -0.14247494114E+03  0.24122052893E+03  0.12500000000E+03 0.  0.
         25    1    1    2    0    0  0.15725478368E+03  0.60935254645E+02 -0.23710679328E+03  0.31668091775E+03  0.12500000000E+03 0.  0.
         25    1    1    2    0    0 -0.96910815251E+02  0.75526608890E+02 -0.16955691311E+03  0.24386578593E+03  0.12500000000E+03 0.  0.
</event>
<event>
 5    0  0.5742667E-005  0.4406614E+03  0.7546771E-02  0.1030544E+00
         21   -1    0    0  502  501  0.00000000000E+00  0.00000000000E+00  0.39996671730E+03  0.39996671730E+03  0.00000000000E+00 0.  1.
         21   -1    0    0  501  502 -0.00000000000E+00 -0.00000000000E+00 -0.48549668013E+03  0.48549668013E+03  0.00000000000E+00 0.  1.
         25    1    1    2    0    0  0.17202487221E+03 -0.21373243746E+03 -0.18198310294E+02  0.30204352332E+03  0.12500000000E+03 0.  0.
         25    1    1    2    0    0 -0.19954366190E+03  0.14852977754E+03 -0.23379809737E+03  0.36354548292E+03  0.12500000000E+03 0.  0.
         25    1    1    2    0    0  0.27518789688E+02  0.65202659914E+02  0.16646644483E+03  0.21987439119E+03  0.12500000000E+03 0.  0.
</event>
<event>
 5    0  0.5742667E-005  0.3384564E+03  0.7546771E-02  0.1067455E+00
         21   -1    0    0  502  501  0.00000000000E+00  0.00000000000E+00  0.26429210112E+03  0.26429210112E+03  0.00000000000E+00 0. -1.
         21   -1    0    0  501  502 -0.00000000000E+00 -0.00000000000E+00 -0.43343239631E+03  0.43343239631E+03  0.00000000000E+00 0. -1.
         25    1    1    2    0    0  0.19315739279E+02 -0.71112962750E+02 -0.15308348617E+03  0.21092582818E+03  0.12500000000E+03 0.  0.
         25    1    1    2    0    0  0.66267066435E+02 -0.80794272263E+02 -0.16007765937E+03  0.22840511280E+03  0.12500000000E+03 0.  0.
         25    1    1    2    0    0 -0.85582805714E+02  0.15190723501E+03  0.14402085034E+03  0.25839355645E+03  0.12500000000E+03 0.  0.
</event>
<event>
 5    0  0.5742667E-005  0.2571254E+03  0.7546771E-02  0.1108883E+00
         21   -1    0    0  502  501  0.00000000000E+00  0.00000000000E+00  0.22430454206E+03  0.22430454206E+03  0.00000000000E+00 0. -1.
         21   -1    0    0  501  502 -0.00000000000E+00 -0.00000000000E+00 -0.29474876777E+03  0.29474876777E+03  0.00000000000E+00 0. -1.
         25    1    1    2    0    0 -0.22333533989E+02 -0.10495176605E+03 -0.45359195783E+02  0.17086871153E+03  0.12500000000E+03 0.  0.
         25    1    1    2    0    0  0.97109588682E+02  0.74643082138E+02 -0.76193262053E+02  0.19087240531E+03  0.12500000000E+03 0.  0.
         25    1    1    2    0    0 -0.74776054692E+02  0.30308683907E+02  0.51108232123E+02  0.15731219300E+03  0.12500000000E+03 0.  0.
</event>
<event>
 5    0  0.5742667E-005  0.2831262E+03  0.7546771E-02  0.1093994E+00
         21   -1    0    0  502  501  0.00000000000E+00  0.00000000000E+00  0.71720160556E+03  0.71720160556E+03  0.00000000000E+00 0. -1.
         21   -1    0    0  501  502 -0.00000000000E+00 -0.00000000000E+00 -0.11176832785E+03  0.11176832785E+03  0.00000000000E+00 0. -1.
         25    1    1    2    0    0 -0.75189342335E+02 -0.12915270991E+03  0.15685018138E+03  0.25012164856E+03  0.12500000000E+03 0.  0.
         25    1    1    2    0    0  0.26341350023E+02  0.15232309243E+02  0.35894472455E+03  0.38130329824E+03  0.12500000000E+03 0.  0.
         25    1    1    2    0    0  0.48847992313E+02  0.11392040067E+03  0.89638371785E+02  0.19754498662E+03  0.12500000000E+03 0.  0.
</event>
<event>
 5    0  0.5742667E-005  0.3026593E+03  0.7546771E-02  0.1083919E+00
         21   -1    0    0  502  501  0.00000000000E+00  0.00000000000E+00  0.23532254947E+03  0.23532254947E+03  0.00000000000E+00 0. -1.
         21   -1    0    0  501  502 -0.00000000000E+00 -0.00000000000E+00 -0.38926419299E+03  0.38926419299E+03  0.00000000000E+00 0. -1.
         25    1    1    2    0    0 -0.46574944117E+02  0.81186966524E+02 -0.59890446680E+02  0.16724955772E+03  0.12500000000E+03 0.  0.
         25    1    1    2    0    0 -0.16813439428E+02 -0.14879833192E+03  0.91262779793E+02  0.21535442950E+03  0.12500000000E+03 0.  0.
         25    1    1    2    0    0  0.63388383545E+02  0.67611365399E+02 -0.18531397663E+03  0.24198275524E+03  0.12500000000E+03 0.  0.
</event>
<event>
 5    0  0.5742667E-005  0.5561418E+03  0.7546771E-02  0.1000082E+00
         21   -1    0    0  502  501  0.00000000000E+00  0.00000000000E+00  0.45751634110E+03  0.45751634110E+03  0.00000000000E+00 0.  1.
         21   -1    0    0  501  502 -0.00000000000E+00 -0.00000000000E+00 -0.67602763892E+03  0.67602763892E+03  0.00000000000E+00 0.  1.
         25    1    1    2    0    0  0.15978703672E+03  0.80182637097E+02  0.46607146753E+02  0.22306586141E+03  0.12500000000E+03 0.  0.
         25    1    1    2    0    0  0.25871357364E+03  0.71888873928E+00  0.13056331095E+03  0.31560261113E+03  0.12500000000E+03 0.  0.
         25    1    1    2    0    0 -0.41850061036E+03 -0.80901525836E+02 -0.39568175552E+03  0.59487550749E+03  0.12500000000E+03 0.  0.
</event>
<event>
 5    0  0.5742667E-005  0.3155545E+03  0.7546771E-02  0.1077714E+00
         21   -1    0    0  502  501  0.00000000000E+00  0.00000000000E+00  0.15117941745E+03  0.15117941745E+03  0.00000000000E+00 0.  1.
         21   -1    0    0  501  502 -0.00000000000E+00 -0.00000000000E+00 -0.65865208958E+03  0.65865208958E+03  0.00000000000E+00 0.  1.
         25    1    1    2    0    0 -0.12844698408E+03 -0.59278550716E+02 -0.15855617392E+03  0.24653120407E+03  0.12500000000E+03 0.  0.
         25    1    1    2    0    0  0.22438232765E+03  0.10244276257E+03 -0.19098375529E+03  0.33606806357E+03  0.12500000000E+03 0.  0.
         25    1    1    2    0    0 -0.95935343573E+02 -0.43164211853E+02 -0.15793274292E+03  0.22723223939E+03  0.12500000000E+03 0.  0.
</event>
<event>
 5    0  0.5742667E-005  0.2773979E+03  0.7546771E-02  0.1097119E+00
         21   -1    0    0  502  501  0.00000000000E+00  0.00000000000E+00  0.66155823067E+03  0.66155823067E+03  0.00000000000E+00 0. -1.
         21   -1    0    0  501  502 -0.00000000000E+00 -0.00000000000E+00 -0.11631571123E+03  0.11631571123E+03  0.00000000000E+00 0. -1.
         25    1    1    2    0    0  0.14776624964E+03  0.73865610837E+02  0.13765524908E+03  0.24872667849E+03  0.12500000000E+03 0.  0.
         25    1    1    2    0    0 -0.39821429634E+02 -0.11453916620E+01  0.27667640713E+03  0.30620563751E+03  0.12500000000E+03 0.  0.
         25    1    1    2    0    0 -0.10794482001E+03 -0.72720219175E+02  0.13091086325E+03  0.22294162590E+03  0.12500000000E+03 0.  0.
</event>
<event>
 5    0  0.5742667E-005  0.2629771E+03  0.7546771E-02  0.1105368E+00
         21   -1    0    0  502  501  0.00000000000E+00  0.00000000000E+00  0.53715941883E+03  0.53715941883E+03  0.00000000000E+00 0.  1.
         21   -1    0    0  501  502 -0.00000000000E+00 -0.00000000000E+00 -0.12874564556E+03  0.12874564556E+03  0.00000000000E+00 0.  1.
         25    1    1    2    0    0 -0.13693363192E+03 -0.41228377125E+02  0.33357968809E+02  0.19284281867E+03  0.12500000000E+03 0.  0.
         25    1    1    2    0    0  0.68541606271E+02  0.15232017497E+02  0.18039544496E+03  0.23042891032E+03  0.12500000000E+03 0.  0.
         25    1    1    2    0    0  0.68392025649E+02  0.25996359628E+02  0.19466035950E+03  0.24263333540E+03  0.12500000000E+03 0.  0.
</event>
<event>
 5    0  0.5742667E-005  0.3770765E+03  0.7546771E-02  0.1052020E+00
         21   -1    0    0  502  501  0.00000000000E+00  0.00000000000E+00  0.31705791555E+03  0.31705791555E+03  0.00000000000E+00 0. -1.
         21   -1    0    0  501  502 -0.00000000000E+00 -0.00000000000E+00 -0.44845651494E+03  0.44845651494E+03  0.00000000000E+00 0. -1.
         25    1    1    2    0    0 -0.33070901353E+02 -0.17445389366E+03 -0.15845888484E+03  0.26881604066E+03  0.12500000000E+03 0.  0.
         25    1    1    2    0    0 -0.32103987407E+02 -0.10043897676E+03  0.81964333063E+02  0.18292568424E+03  0.12500000000E+03 0.  0.
         25    1    1    2    0    0  0.65174888760E+02  0.27489287042E+03 -0.54904047624E+02  0.31377270560E+03  0.12500000000E+03 0.  0.
</event>
<event>
 5    0  0.5742667E-005  0.3677984E+03  0.7546771E-02  0.1055538E+00
         21   -1    0    0  502  501  0.00000000000E+00  0.00000000000E+00  0.53128019044E+03  0.53128019044E+03  0.00000000000E+00 0. -1.
         21   -1    0    0  501  502 -0.00000000000E+00 -0.00000000000E+00 -0.25462202631E+03  0.25462202631E+03  0.00000000000E+00 0. -1.
         25    1    1    2    0    0  0.10531783517E+03 -0.10094021636E+03 -0.37785479146E+02  0.19578946887E+03  0.12500000000E+03 0.  0.
         25    1    1    2    0    0 -0.22013413886E+03  0.16414760188E+03  0.26699894428E+03  0.40288572889E+03  0.12500000000E+03 0.  0.
         25    1    1    2    0    0  0.11481630369E+03 -0.63207385519E+02  0.47444698991E+02  0.18722701899E+03  0.12500000000E+03 0.  0.
</event>
<event>
 5    0  0.5742667E-005  0.2117956E+03  0.7546771E-02  0.1140152E+00
         21   -1    0    0  502  501  0.00000000000E+00  0.00000000000E+00  0.60634092792E+03  0.60634092792E+03  0.00000000000E+00 0. -1.
         21   -1    0    0  501  502 -0.00000000000E+00 -0.00000000000E+00 -0.73980486955E+02  0.73980486955E+02  0.00000000000E+00 0. -1.
         25    1    1    2    0    0  0.34145614228E+02 -0.36742962624E+02  0.12575625756E+03  0.18427046586E+03  0.12500000000E+03 0.  0.
         25    1    1    2    0    0 -0.63259405939E+02  0.35743166269E+02  0.28333766751E+03  0.31809520620E+03  0.12500000000E+03 0.  0.
         25    1    1    2    0    0  0.29113791710E+02  0.99979635480E+00  0.12326651589E+03  0.17795574282E+03  0.12500000000E+03 0.  0.
</event>
<event>
 5    0  0.5742667E-005  0.2690536E+03  0.7546771E-02  0.1101822E+00
         21   -1    0    0  502  501  0.00000000000E+00  0.00000000000E+00  0.46886051138E+03  0.46886051138E+03  0.00000000000E+00 0.  1.
         21   -1    0    0  501  502 -0.00000000000E+00 -0.00000000000E+00 -0.15439521747E+03  0.15439521747E+03  0.00000000000E+00 0.  1.
         25    1    1    2    0    0  0.80398673344E+02 -0.10109719573E+02  0.23415676215E+02  0.15079604437E+03  0.12500000000E+03 0.  0.
         25    1    1    2    0    0  0.18421555745E+02  0.12277947583E+03  0.12233564406E+03  0.21448814235E+03  0.12500000000E+03 0.  0.
         25    1    1    2    0    0 -0.98820229089E+02 -0.11266975625E+03  0.16871397363E+03  0.25797154213E+03  0.12500000000E+03 0.  0.
</event>
<event>
 5    0  0.5742667E-005  0.3155372E+03  0.7546771E-02  0.1077722E+00
         21   -1    0    0  502  501  0.00000000000E+00  0.00000000000E+00  0.40877109132E+03  0.40877109132E+03  0.00000000000E+00 0.  1.
         21   -1    0    0  501  502 -0.00000000000E+00 -0.00000000000E+00 -0.24356842321E+03  0.24356842321E+03  0.00000000000E+00 0.  1.
         25    1    1    2    0    0 -0.16059976741E+03  0.13729675745E+03  0.10265763478E+03  0.26609448487E+03  0.12500000000E+03 0.  0.
         25    1    1    2    0    0  0.15146529839E+03 -0.58250756547E+01  0.56789847306E+02  0.20451345892E+03  0.12500000000E+03 0.  0.
         25    1    1    2    0    0  0.91344690285E+01 -0.13147168180E+03  0.57551860291E+01  0.18173157075E+03  0.12500000000E+03 0.  0.
</event>
<event>
 5    0  0.5742667E-005  0.2780785E+03  0.7546771E-02  0.1096743E+00
         21   -1    0    0  502  501  0.00000000000E+00  0.00000000000E+00  0.16369631117E+03  0.16369631117E+03  0.00000000000E+00 0. -1.
         21   -1    0    0  501  502 -0.00000000000E+00 -0.00000000000E+00 -0.47238485947E+03  0.47238485947E+03  0.00000000000E+00 0. -1.
         25    1    1    2    0    0 -0.83857614251E+02  0.44267770587E+02 -0.31726392851E+03  0.35393945148E+03  0.12500000000E+03 0.  0.
         25    1    1    2    0    0  0.13381273624E+02 -0.97759219407E+01  0.37908881464E+02  0.13166894253E+03  0.12500000000E+03 0.  0.
         25    1    1    2    0    0  0.70476340627E+02 -0.34491848646E+02 -0.29333501252E+02  0.15047277663E+03  0.12500000000E+03 0.  0.
</event>
<event>
 5    0  0.5742667E-005  0.2777224E+03  0.7546771E-02  0.1096939E+00
         21   -1    0    0  502  501  0.00000000000E+00  0.00000000000E+00  0.50495516357E+02  0.50495516357E+02  0.00000000000E+00 0. -1.
         21   -1    0    0  501  502 -0.00000000000E+00 -0.00000000000E+00 -0.15274575644E+04  0.15274575644E+04  0.00000000000E+00 0. -1.
         25    1    1    2    0    0 -0.77775116465E+02 -0.49432966515E+02 -0.69352492097E+03  0.71069993874E+03  0.12500000000E+03 0.  0.
         25    1    1    2    0    0  0.27263890847E+02  0.14670592475E+03 -0.31611520840E+03  0.37124085589E+03  0.12500000000E+03 0.  0.
         25    1    1    2    0    0  0.50511225619E+02 -0.97272958235E+02 -0.46732191870E+03  0.49601228615E+03  0.12500000000E+03 0.  0.
</event>
<event>
 5    0  0.5742667E-005  0.2666200E+03  0.7546771E-02  0.1103230E+00
         21   -1    0    0  502  501  0.00000000000E+00  0.00000000000E+00  0.54240465090E+03  0.54240465090E+03  0.00000000000E+00 0. -1.
         21   -1    0    0  501  502 -0.00000000000E+00 -0.00000000000E+00 -0.13105753739E+03  0.13105753739E+03  0.00000000000E+00 0. -1.
         25    1    1    2    0    0  0.91508608987E+02  0.58820094834E+02 -0.18325739002E+01  0.16571658759E+03  0.12500000000E+03 0.  0.
         25    1    1    2    0    0 -0.22911070960E+02  0.24453641253E+02  0.19732034538E+03  0.23597291464E+03  0.12500000000E+03 0.  0.
         25    1    1    2    0    0 -0.68597538027E+02 -0.83273736087E+02  0.21585934202E+03  0.27177268605E+03  0.12500000000E+03 0.  0.
</event>
<event>
 5    0  0.5742667E-005  0.2207276E+03  0.7546771E-02  0.1133342E+00
         21   -1    0    0  502  501  0.00000000000E+00  0.00000000000E+00  0.24574174127E+03  0.24574174127E+03  0.00000000000E+00 0. -1.
         21   -1    0    0  501  502 -0.00000000000E+00 -0.00000000000E+00 -0.19825970321E+03  0.19825970321E+03  0.00000000000E+00 0. -1.
         25    1    1    2    0    0  0.65346620435E+02 -0.38802969392E+02 -0.43304107197E+02  0.15256505804E+03  0.12500000000E+03 0.  0.
         25    1    1    2    0    0 -0.27544750977E+02  0.48188552624E+02  0.83633381270E+02  0.16031341919E+03  0.12500000000E+03 0.  0.
         25    1    1    2    0    0 -0.37801869458E+02 -0.93855832318E+01  0.71527639846E+01  0.13112296725E+03  0.12500000000E+03 0.  0.
</event>
<event>
 5    0  0.5742667E-005  0.2404624E+03  0.7546771E-02  0.1119485E+00
         21   -1    0    0  502  501  0.00000000000E+00  0.00000000000E+00  0.20137903944E+03  0.20137903944E+03  0.00000000000E+00 0. -1.
         21   -1    0    0  501  502 -0.00000000000E+00 -0.00000000000E+00 -0.28713106864E+03  0.28713106864E+03  0.00000000000E+00 0. -1.
         25    1    1    2    0    0  0.10425304284E+03 -0.48996342559E+01  0.34671494988E+02  0.16649269030E+03  0.12500000000E+03 0.  0.
         25    1    1    2    0    0 -0.17981768241E+02 -0.24147179640E+02 -0.43173693856E+01  0.12864707518E+03  0.12500000000E+03 0.  0.
         25    1    1    2    0    0 -0.86271274601E+02  0.29046813896E+02 -0.11610615480E+03  0.19337034261E+03  0.12500000000E+03 0.  0.
</event>
<event>
 5    0  0.5851950E-005  0.2585209E+03  0.7546771E-02  0.1108035E+00
         21   -1    0    0  502  501  0.00000000000E+00  0.00000000000E+00  0.61272517757E+03  0.61272517757E+03  0.00000000000E+00 0.  1.
         21   -1    0    0  501  502 -0.00000000000E+00 -0.00000000000E+00 -0.10907510077E+03  0.10907510077E+03  0.00000000000E+00 0.  1.
         25    1    1    2    0    0 -0.11474206667E+03  0.24418474683E+02  0.39587618050E+02  0.17593800975E+03  0.12500000000E+03 0.  0.
         25    1    1    2    0    0  0.33566482043E+02  0.74690462042E+01  0.26628981854E+03  0.29617184678E+03  0.12500000000E+03 0.  0.
         25    1    1    2    0    0  0.81175584630E+02 -0.31887520888E+02  0.19777264021E+03  0.24969042181E+03  0.12500000000E+03 0.  0.
</event>
<event>
 5    0  0.5742667E-005  0.3414503E+03  0.7546771E-02  0.1066180E+00
         21   -1    0    0  502  501  0.00000000000E+00  0.00000000000E+00  0.16043214501E+03  0.16043214501E+03  0.00000000000E+00 0. -1.
         21   -1    0    0  501  502 -0.00000000000E+00 -0.00000000000E+00 -0.72671394769E+03  0.72671394769E+03  0.00000000000E+00 0. -1.
         25    1    1    2    0    0 -0.12642929184E+02 -0.46581882043E+02 -0.12204165920E+02  0.13454983114E+03  0.12500000000E+03 0.  0.
         25    1    1    2    0    0 -0.18847969884E+02 -0.48396815475E+02  0.36909599047E+02  0.14030258807E+03  0.12500000000E+03 0.  0.
         25    1    1    2    0    0  0.31490899068E+02  0.94978697518E+02 -0.59098723581E+03  0.61229367349E+03  0.12500000000E+03 0.  0.
</event>
<event>
 5    0  0.5742667E-005  0.3387174E+03  0.7546771E-02  0.1067344E+00
         21   -1    0    0  502  501  0.00000000000E+00  0.00000000000E+00  0.13649105985E+03  0.13649105985E+03  0.00000000000E+00 0. -1.
         21   -1    0    0  501  502 -0.00000000000E+00 -0.00000000000E+00 -0.84056381163E+03  0.84056381163E+03  0.00000000000E+00 0. -1.
         25    1    1    2    0    0  0.57043314709E+02 -0.76704023491E+02 -0.25147462428E+03  0.29665119860E+03  0.12500000000E+03 0.  0.
         25    1    1    2    0    0 -0.10621733919E+03  0.12830724892E+02 -0.49833343520E+03  0.52479325765E+03  0.12500000000E+03 0.  0.
         25    1    1    2    0    0  0.49174024479E+02  0.63873298599E+02  0.45735307692E+02  0.15561041523E+03  0.12500000000E+03 0.  0.
</event>
<event>
 5    0  0.5742667E-005  0.3291969E+03  0.7546771E-02  0.1071493E+00
         21   -1    0    0  502  501  0.00000000000E+00  0.00000000000E+00  0.97627852916E+02  0.97627852916E+02  0.00000000000E+00 0.  1.
         21   -1    0    0  501  502 -0.00000000000E+00 -0.00000000000E+00 -0.11100379483E+04  0.11100379483E+04  0.00000000000E+00 0.  1.
         25    1    1    2    0    0 -0.13394620596E+02  0.17587065700E+03 -0.20124200591E+03  0.29535275316E+03  0.12500000000E+03 0.  0.
         25    1    1    2    0    0  0.63357628479E+01 -0.97337417165E+01 -0.61049845610E+03  0.62327221382E+03  0.12500000000E+03 0.  0.
         25    1    1    2    0    0  0.70588577484E+01 -0.16613691528E+03 -0.20066963333E+03  0.28904083420E+03  0.12500000000E+03 0.  0.
</event>
<event>
 5    0  0.5742667E-005  0.2641055E+03  0.7546771E-02  0.1104701E+00
         21   -1    0    0  502  501  0.00000000000E+00  0.00000000000E+00  0.11015940501E+03  0.11015940501E+03  0.00000000000E+00 0. -1.
         21   -1    0    0  501  502 -0.00000000000E+00 -0.00000000000E+00 -0.63318887660E+03  0.63318887660E+03  0.00000000000E+00 0. -1.
         25    1    1    2    0    0  0.79559612556E+02 -0.20858614238E+02 -0.36389479497E+03  0.39345804801E+03  0.12500000000E+03 0.  0.
         25    1    1    2    0    0 -0.70985043523E+02 -0.62312563936E+02 -0.11092273829E+03  0.19196506426E+03  0.12500000000E+03 0.  0.
         25    1    1    2    0    0 -0.85745690328E+01  0.83171178175E+02 -0.48211938339E+02  0.15792516934E+03  0.12500000000E+03 0.  0.
</event>
<event>
 5    0  0.5742667E-005  0.2594061E+03  0.7546771E-02  0.1107501E+00
         21   -1    0    0  502  501  0.00000000000E+00  0.00000000000E+00  0.19509327221E+03  0.19509327221E+03  0.00000000000E+00 0. -1.
         21   -1    0    0  501  502 -0.00000000000E+00 -0.00000000000E+00 -0.34491970352E+03  0.34491970352E+03  0.00000000000E+00 0. -1.
         25    1    1    2    0    0 -0.22730121418E+02  0.96739959366E+02 -0.16874420959E+03  0.23232495868E+03  0.12500000000E+03 0.  0.
         25    1    1    2    0    0  0.68432143360E+02 -0.34114999624E+00  0.15139462691E+02  0.14330833178E+03  0.12500000000E+03 0.  0.
         25    1    1    2    0    0 -0.45702021942E+02 -0.96398809370E+02  0.37783155875E+01  0.16437968526E+03  0.12500000000E+03 0.  0.
</event>
<event>
 5    0  0.5742667E-005  0.3483965E+03  0.7546771E-02  0.1063275E+00
         21   -1    0    0  502  501  0.00000000000E+00  0.00000000000E+00  0.35856738668E+03  0.35856738668E+03  0.00000000000E+00 0.  1.
         21   -1    0    0  501  502 -0.00000000000E+00 -0.00000000000E+00 -0.33851419670E+03  0.33851419670E+03  0.00000000000E+00 0.  1.
         25    1    1    2    0    0  0.15235798244E+03 -0.80614158549E+02 -0.12839517444E+03  0.24864013793E+03  0.12500000000E+03 0.  0.
         25    1    1    2    0    0 -0.46027371849E+02  0.59870625374E+02 -0.79905271493E+02  0.16647180889E+03  0.12500000000E+03 0.  0.
         25    1    1    2    0    0 -0.10633061059E+03  0.20743533175E+02  0.22835363591E+03  0.28196963657E+03  0.12500000000E+03 0.  0.
</event>
<event>
 5    0  0.5742667E-005  0.3200670E+03  0.7546771E-02  0.1075618E+00
         21   -1    0    0  502  501  0.00000000000E+00  0.00000000000E+00  0.22487835562E+03  0.22487835562E+03  0.00000000000E+00 0.  1.
         21   -1    0    0  501  502 -0.00000000000E+00 -0.00000000000E+00 -0.45554795884E+03  0.45554795884E+03  0.00000000000E+00 0.  1.
         25    1    1    2    0    0  0.54479176811E+02  0.78536341857E+02 -0.32981785149E+03  0.36543228218E+03  0.12500000000E+03 0.  0.
         25    1    1    2    0    0 -0.29658621952E+02 -0.33465029744E+02 -0.20672907865E+02  0.13435740096E+03  0.12500000000E+03 0.  0.
         25    1    1    2    0    0 -0.24820554859E+02 -0.45071312113E+02  0.11982115613E+03  0.18063663132E+03  0.12500000000E+03 0.  0.
</event>
<event>
 5    0  0.5742667E-005  0.3393154E+03  0.7546771E-02  0.1067088E+00
         21   -1    0    0  502  501  0.00000000000E+00  0.00000000000E+00  0.59783996414E+03  0.59783996414E+03  0.00000000000E+00 0. -1.
         21   -1    0    0  501  502 -0.00000000000E+00 -0.00000000000E+00 -0.19258487993E+03  0.19258487993E+03  0.00000000000E+00 0. -1.
         25    1    1    2    0    0 -0.38323874194E+02  0.23284638881E+02 -0.89516956033E+02  0.16015361113E+03  0.12500000000E+03 0.  0.
         25    1    1    2    0    0  0.88753257766E+02 -0.11332029398E+03  0.39847428536E+03  0.44172999206E+03  0.12500000000E+03 0.  0.
         25    1    1    2    0    0 -0.50429383572E+02  0.90035655098E+02  0.96297754875E+02  0.18854124087E+03  0.12500000000E+03 0.  0.
</event>
<event>
 5    0  0.5742667E-005  0.2595937E+03  0.7546771E-02  0.1107388E+00
         21   -1    0    0  502  501  0.00000000000E+00  0.00000000000E+00  0.27162015247E+03  0.27162015247E+03  0.00000000000E+00 0. -1.
         21   -1    0    0  501  502 -0.00000000000E+00 -0.00000000000E+00 -0.24809970748E+03  0.24809970748E+03  0.00000000000E+00 0. -1.
         25    1    1    2    0    0  0.48173675038E+02 -0.48085596170E+02  0.72985141727E+02  0.15995236303E+03  0.12500000000E+03 0.  0.
         25    1    1    2    0    0 -0.11608864562E+03  0.10537726063E+03 -0.70041078085E+01  0.20063648279E+03  0.12500000000E+03 0.  0.
         25    1    1    2    0    0  0.67914970585E+02 -0.57291664457E+02 -0.42460588928E+02  0.15913101413E+03  0.12500000000E+03 0.  0.
</event>
<event>
 5    0  0.5776962E-005  0.3616233E+03  0.7546771E-02  0.1057943E+00
         21   -1    0    0  502  501  0.00000000000E+00  0.00000000000E+00  0.48503763439E+03  0.48503763439E+03  0.00000000000E+00 0. -1.
         21   -1    0    0  501  502 -0.00000000000E+00 -0.00000000000E+00 -0.26961084749E+03  0.26961084749E+03  0.00000000000E+00 0. -1.
         25    1    1    2    0    0  0.20207227183E+03 -0.13342845642E+03  0.43139523332E+02  0.27590283525E+03  0.12500000000E+03 0.  0.
         25    1    1    2    0    0 -0.74657394225E+02 -0.70415508194E+02  0.12338161158E+03  0.20342097331E+03  0.12500000000E+03 0.  0.
         25    1    1    2    0    0 -0.12741487760E+03  0.20384396461E+03  0.48905651995E+02  0.27532467332E+03  0.12500000000E+03 0.  0.
</event>
<event>
 5    0  0.5742667E-005  0.2575464E+03  0.7546771E-02  0.1108626E+00
         21   -1    0    0  502  501  0.00000000000E+00  0.00000000000E+00  0.40710045409E+03  0.40710045409E+03  0.00000000000E+00 0.  1.
         21   -1    0    0  501  502 -0.00000000000E+00 -0.00000000000E+00 -0.16293312224E+03  0.16293312224E+03  0.00000000000E+00 0.  1.
         25    1    1    2    0    0  0.11129462627E+03  0.37896033010E+01 -0.81356908713E+01  0.16760681489E+03  0.12500000000E+03 0.  0.
         25    1    1    2    0    0 -0.11387415217E+03 -0.20103185649E+02  0.20793292605E+03  0.26876116227E+03  0.12500000000E+03 0.  0.
         25    1    1    2    0    0  0.25795259004E+01  0.16313582348E+02  0.44370096671E+02  0.13366559917E+03  0.12500000000E+03 0.  0.
</event>
<event>
 5    0  0.5742667E-005  0.3065886E+03  0.7546771E-02  0.1081993E+00
         21   -1    0    0  502  501  0.00000000000E+00  0.00000000000E+00  0.15992918075E+03  0.15992918075E+03  0.00000000000E+00 0. -1.
         21   -1    0    0  501  502 -0.00000000000E+00 -0.00000000000E+00 -0.58773873607E+03  0.58773873607E+03  0.00000000000E+00 0. -1.
         25    1    1    2    0    0  0.63915978856E+02 -0.68353263196E+02 -0.44572522457E+02  0.16238574661E+03  0.12500000000E+03 0.  0.
         25    1    1    2    0    0  0.11478933880E+02 -0.96651576391E+02 -0.31839149145E+03  0.35562822578E+03  0.12500000000E+03 0.  0.
         25    1    1    2    0    0 -0.75394912735E+02  0.16500483959E+03 -0.64845541418E+02  0.22965394444E+03  0.12500000000E+03 0.  0.
</event>
<event>
 5    0  0.5742667E-005  0.2298848E+03  0.7546771E-02  0.1126721E+00
         21   -1    0    0  502  501  0.00000000000E+00  0.00000000000E+00  0.15401481419E+03  0.15401481419E+03  0.00000000000E+00 0.  1.
         21   -1    0    0  501  502 -0.00000000000E+00 -0.00000000000E+00 -0.34312945397E+03  0.34312945397E+03  0.00000000000E+00 0.  1.
         25    1    1    2    0    0 -0.54660923447E+02 -0.62209289458E+02 -0.10516782562E+03  0.18314771031E+03  0.12500000000E+03 0.  0.
         25    1    1    2    0    0 -0.31331991700E+02  0.71561010327E+02 -0.63945247425E+02  0.16067565644E+03  0.12500000000E+03 0.  0.
         25    1    1    2    0    0  0.85992915146E+02 -0.93517208681E+01 -0.20001566738E+02  0.15332090141E+03  0.12500000000E+03 0.  0.
</event>
<event>
 5    0  0.5742667E-005  0.3313514E+03  0.7546771E-02  0.1070540E+00
         21   -1    0    0  502  501  0.00000000000E+00  0.00000000000E+00  0.13463335974E+04  0.13463335974E+04  0.00000000000E+00 0.  1.
         21   -1    0    0  501  502 -0.00000000000E+00 -0.00000000000E+00 -0.81550165985E+02  0.81550165985E+02  0.00000000000E+00 0.  1.
         25    1    1    2    0    0 -0.30360848147E+00 -0.58966422881E+02  0.13834290735E+02  0.13890111161E+03  0.12500000000E+03 0.  0.
         25    1    1    2    0    0 -0.67526920050E+02  0.46232483692E+02  0.41835076406E+03  0.44422932059E+03  0.12500000000E+03 0.  0.
         25    1    1    2    0    0  0.67830528532E+02  0.12733939189E+02  0.83259837660E+03  0.84475333117E+03  0.12500000000E+03 0.  0.
</event>
<event>
 5    0  0.5742667E-005  0.4717078E+03  0.7546771E-02  0.1021439E+00
         21   -1    0    0  502  501  0.00000000000E+00  0.00000000000E+00  0.20189134276E+04  0.20189134276E+04  0.00000000000E+00 0. -1.
         21   -1    0    0  501  502 -0.00000000000E+00 -0.00000000000E+00 -0.11021188396E+03  0.11021188396E+03  0.00000000000E+00 0. -1.
         25    1    1    2    0    0  0.36496109137E+03  0.10008540764E+03  0.67169749060E+03  0.78103534230E+03  0.12500000000E+03 0.  0.
         25    1    1    2    0    0 -0.17871906966E+03 -0.13927588717E+03  0.36883837957E+03  0.45056079373E+03  0.12500000000E+03 0.  0.
         25    1    1    2    0    0 -0.18624202172E+03  0.39190479526E+02  0.86816567346E+03  0.89752917552E+03  0.12500000000E+03 0.  0.
</event>
<event>
 5    0  0.5742667E-005  0.2698210E+03  0.7546771E-02  0.1101382E+00
         21   -1    0    0  502  501  0.00000000000E+00  0.00000000000E+00  0.10624237329E+03  0.10624237329E+03  0.00000000000E+00 0. -1.
         21   -1    0    0  501  502 -0.00000000000E+00 -0.00000000000E+00 -0.68525759422E+03  0.68525759422E+03  0.00000000000E+00 0. -1.
         25    1    1    2    0    0  0.57080987439E+02 -0.10934651798E+02 -0.25268646285E+03  0.28784241217E+03  0.12500000000E+03 0.  0.
         25    1    1    2    0    0 -0.28708635624E+02 -0.83874620775E+02 -0.30691581822E+03  0.34304731050E+03  0.12500000000E+03 0.  0.
         25    1    1    2    0    0 -0.28372351815E+02  0.94809272572E+02 -0.19412939853E+02  0.16061024484E+03  0.12500000000E+03 0.  0.
</event>
<event>
 5    0  0.5742667E-005  0.2531776E+03  0.7546771E-02  0.1111313E+00
         21   -1    0    0  502  501  0.00000000000E+00  0.00000000000E+00  0.17423105131E+04  0.17423105131E+04  0.00000000000E+00 0.  1.
         21   -1    0    0  501  502 -0.00000000000E+00 -0.00000000000E+00 -0.36789592846E+02  0.36789592846E+02  0.00000000000E+00 0.  1.
         25    1    1    2    0    0 -0.95954137369E+01  0.64627554179E+02  0.50105966719E+03  0.52053297956E+03  0.12500000000E+03 0.  0.
         25    1    1    2    0    0 -0.59433298803E+02 -0.43194627675E+02  0.98661565433E+03  0.99721288712E+03  0.12500000000E+03 0.  0.
         25    1    1    2    0    0  0.69028712539E+02 -0.21432926504E+02  0.21784559871E+03  0.26135423924E+03  0.12500000000E+03 0.  0.
</event>
<event>
 5    0  0.5742667E-005  0.2612762E+03  0.7546771E-02  0.1106379E+00
         21   -1    0    0  502  501  0.00000000000E+00  0.00000000000E+00  0.84972932553E+02  0.84972932553E+02  0.00000000000E+00 0.  1.
         21   -1    0    0  501  502 -0.00000000000E+00 -0.00000000000E+00 -0.80337633877E+03  0.80337633877E+03  0.00000000000E+00 0.  1.
         25    1    1    2    0    0  0.23223638580E+01  0.45095810066E+02 -0.30538321639E+03  0.33305094852E+03  0.12500000000E+03 0.  0.
         25    1    1    2    0    0  0.62798977848E+02  0.31103691824E+02 -0.39171984267E+02  0.14856175691E+03  0.12500000000E+03 0.  0.
         25    1    1    2    0    0 -0.65121341706E+02 -0.76199501889E+02 -0.37384820557E+03  0.40673656590E+03  0.12500000000E+03 0.  0.
</event>
<event>
 5    0  0.5742667E-005  0.6286996E+03  0.7546771E-02  0.9847590E-01
         21   -1    0    0  502  501  0.00000000000E+00  0.00000000000E+00  0.15147902937E+04  0.15147902937E+04  0.00000000000E+00 0.  1.
         21   -1    0    0  501  502 -0.00000000000E+00 -0.00000000000E+00 -0.26093590227E+03  0.26093590227E+03  0.00000000000E+00 0.  1.
         25    1    1    2    0    0  0.26538796264E+03 -0.14634976360E+03  0.29864286886E+03  0.44346542948E+03  0.12500000000E+03 0.  0.
         25    1    1    2    0    0  0.22296159868E+03 -0.39728797058E+02  0.68208389113E+03  0.72948864716E+03  0.12500000000E+03 0.  0.
         25    1    1    2    0    0 -0.48834956132E+03  0.18607856066E+03  0.27312763143E+03  0.60277211932E+03  0.12500000000E+03 0.  0.
</event>
<event>
 5    0  0.5742667E-005  0.2508922E+03  0.7546771E-02  0.1112742E+00
         21   -1    0    0  502  501  0.00000000000E+00  0.00000000000E+00  0.64468077593E+03  0.64468077593E+03  0.00000000000E+00 0.  1.
         21   -1    0    0  501  502 -0.00000000000E+00 -0.00000000000E+00 -0.97640380508E+02  0.97640380508E+02  0.00000000000E+00 0.  1.
         25    1    1    2    0    0  0.21076836682E+02 -0.28314207933E+02  0.39829299486E+03  0.41893703247E+03  0.12500000000E+03 0.  0.
         25    1    1    2    0    0  0.41398681363E+02  0.19057291375E+02  0.12258488806E+03  0.18091181817E+03  0.12500000000E+03 0.  0.
         25    1    1    2    0    0 -0.62475518045E+02  0.92569165582E+01  0.26162512496E+02  0.14247230580E+03  0.12500000000E+03 0.  0.
</event>
<event>
 5    0  0.5742667E-005  0.2878668E+03  0.7546771E-02  0.1091468E+00
         21   -1    0    0  502  501  0.00000000000E+00  0.00000000000E+00  0.32103633840E+03  0.32103633840E+03  0.00000000000E+00 0.  1.
         21   -1    0    0  501  502 -0.00000000000E+00 -0.00000000000E+00 -0.25812431625E+03  0.25812431625E+03  0.00000000000E+00 0.  1.
         25    1    1    2    0    0  0.69076825200E+02  0.71321148494E+02 -0.69513146429E+02  0.17411315725E+03  0.12500000000E+03 0.  0.
         25    1    1    2    0    0  0.15508570458E+02 -0.10131682042E+03  0.18195739396E+03  0.24339085249E+03  0.12500000000E+03 0.  0.
         25    1    1    2    0    0 -0.84585395657E+02  0.29995671923E+02 -0.49532225389E+02  0.16165664491E+03  0.12500000000E+03 0.  0.
</event>
<event>
 5    0  0.5742667E-005  0.3084267E+03  0.7546771E-02  0.1081102E+00
         21   -1    0    0  502  501  0.00000000000E+00  0.00000000000E+00  0.54020279141E+03  0.54020279141E+03  0.00000000000E+00 0. -1.
         21   -1    0    0  501  502 -0.00000000000E+00 -0.00000000000E+00 -0.17609497847E+03  0.17609497847E+03  0.00000000000E+00 0. -1.
         25    1    1    2    0    0 -0.16560400928E+03 -0.55625020378E+02  0.97343477833E+02  0.23583804497E+03  0.12500000000E+03 0.  0.
         25    1    1    2    0    0 -0.46623163178E+02 -0.32820825186E+02  0.80456256801E+02  0.15921411737E+03  0.12500000000E+03 0.  0.
         25    1    1    2    0    0  0.21222717245E+03  0.88445845564E+02  0.18630807831E+03  0.32124560755E+03  0.12500000000E+03 0.  0.
</event>
<event>
 5    0  0.6544091E-005  0.3229327E+03  0.7546771E-02  0.1074307E+00
         21   -1    0    0  502  501  0.00000000000E+00  0.00000000000E+00  0.68740947243E+03  0.68740947243E+03  0.00000000000E+00 0.  1.
         21   -1    0    0  501  502 -0.00000000000E+00 -0.00000000000E+00 -0.15170801998E+03  0.15170801998E+03  0.00000000000E+00 0.  1.
         25    1    1    2    0    0  0.12767190585E+02 -0.13348817111E+03  0.29409479767E+03  0.34655279973E+03  0.12500000000E+03 0.  0.
         25    1    1    2    0    0 -0.11580890674E+03  0.16596493939E+03  0.22343400382E+03  0.32634922713E+03  0.12500000000E+03 0.  0.
         25    1    1    2    0    0  0.10304171616E+03 -0.32476768281E+02  0.18172650950E+02  0.16621546555E+03  0.12500000000E+03 0.  0.
</event>
<event>
 5    0  0.5742667E-005  0.3245850E+03  0.7546771E-02  0.1073558E+00
         21   -1    0    0  502  501  0.00000000000E+00  0.00000000000E+00  0.22747394426E+04  0.22747394426E+04  0.00000000000E+00 0.  1.
         21   -1    0    0  501  502 -0.00000000000E+00 -0.00000000000E+00 -0.46315377514E+02  0.46315377514E+02  0.00000000000E+00 0.  1.
         25    1    1    2    0    0 -0.20370429763E+03 -0.68453488383E+02  0.11001119239E+04  0.11278530782E+04  0.12500000000E+03 0.  0.
         25    1    1    2    0    0  0.12934234223E+03 -0.11125035715E+02  0.85294510326E+03  0.87177609343E+03  0.12500000000E+03 0.  0.
         25    1    1    2    0    0  0.74361955399E+02  0.79578524099E+02  0.27536703793E+03  0.32142564846E+03  0.12500000000E+03 0.  0.
</event>
<event>
 5    0  0.5742667E-005  0.2171767E+03  0.7546771E-02  0.1136006E+00
         21   -1    0    0  502  501  0.00000000000E+00  0.00000000000E+00  0.33240147883E+03  0.33240147883E+03  0.00000000000E+00 0. -1.
         21   -1    0    0  501  502 -0.00000000000E+00 -0.00000000000E+00 -0.14189384128E+03  0.14189384128E+03  0.00000000000E+00 0. -1.
         25    1    1    2    0    0  0.33844330583E+02 -0.46504768744E+02  0.11164628506E+02  0.13804992270E+03  0.12500000000E+03 0.  0.
         25    1    1    2    0    0 -0.33505972300E+02 -0.36223644690E+02  0.79511333234E+02  0.15614690111E+03  0.12500000000E+03 0.  0.
         25    1    1    2    0    0 -0.33835828209E+00  0.82728413434E+02  0.99831675807E+02  0.18009849630E+03  0.12500000000E+03 0.  0.
</event>
<event>
 5    0  0.5742667E-005  0.3817182E+03  0.7546771E-02  0.1050301E+00
         21   -1    0    0  502  501  0.00000000000E+00  0.00000000000E+00  0.14610357121E+04  0.14610357121E+04  0.00000000000E+00 0.  1.
         21   -1    0    0  501  502 -0.00000000000E+00 -0.00000000000E+00 -0.99729774567E+02  0.99729774567E+02  0.00000000000E+00 0.  1.
         25    1    1    2    0    0  0.17566754550E+03  0.15026454225E+03  0.54716278260E+03  0.60700134256E+03  0.12500000000E+03 0.  0.
         25    1    1    2    0    0 -0.95365568249E+02 -0.87127855277E+02  0.76379990774E+03  0.78466626909E+03  0.12500000000E+03 0.  0.
         25    1    1    2    0    0 -0.80301977251E+02 -0.63136686977E+02  0.50343247158E+02  0.16909787499E+03  0.12500000000E+03 0.  0.
</event>
<event>
 5    0  0.5742667E-005  0.4145649E+03  0.7546771E-02  0.1038850E+00
         21   -1    0    0  502  501  0.00000000000E+00  0.00000000000E+00  0.30280693205E+03  0.30280693205E+03  0.00000000000E+00 0.  1.
         21   -1    0    0  501  502 -0.00000000000E+00 -0.00000000000E+00 -0.56756983051E+03  0.56756983051E+03  0.00000000000E+00 0.  1.
         25    1    1    2    0    0  0.16860246705E+03 -0.18548657701E+03 -0.19070822212E+03  0.33886086840E+03  0.12500000000E+03 0.  0.
         25    1    1    2    0    0 -0.13716947880E+03  0.25247245784E+03 -0.17091573311E+03  0.35692435571E+03  0.12500000000E+03 0.  0.
         25    1    1    2    0    0 -0.31432988258E+02 -0.66985880824E+02  0.96861056760E+02  0.17459153845E+03  0.12500000000E+03 0.  0.
</event>
<event>
 5    0  0.5742667E-005  0.4008421E+03  0.7546771E-02  0.1043488E+00
         21   -1    0    0  502  501  0.00000000000E+00  0.00000000000E+00  0.11214079489E+04  0.11214079489E+04  0.00000000000E+00 0. -1.
         21   -1    0    0  501  502 -0.00000000000E+00 -0.00000000000E+00 -0.14327917122E+03  0.14327917122E+03  0.00000000000E+00 0. -1.
         25    1    1    2    0    0  0.12654618451E+02  0.10676257455E+03  0.59626477666E+02  0.17532456625E+03  0.12500000000E+03 0.  0.
         25    1    1    2    0    0 -0.21069369399E+03  0.83741479185E+02  0.58377007906E+03  0.63860549107E+03  0.12500000000E+03 0.  0.
         25    1    1    2    0    0  0.19803907554E+03 -0.19050405373E+03  0.33473222099E+03  0.45075706284E+03  0.12500000000E+03 0.  0.
</event>
<event>
 5    0  0.5742667E-005  0.3260812E+03  0.7546771E-02  0.1072884E+00
         21   -1    0    0  502  501  0.00000000000E+00  0.00000000000E+00  0.51551124747E+03  0.51551124747E+03  0.00000000000E+00 0.  1.
         21   -1    0    0  501  502 -0.00000000000E+00 -0.00000000000E+00 -0.20625925901E+03  0.20625925901E+03  0.00000000000E+00 0.  1.
         25    1    1    2    0    0 -0.10498997168E+03 -0.20647033501E+03  0.12032207718E+03  0.28940507192E+03  0.12500000000E+03 0.  0.
         25    1    1    2    0    0  0.14495415661E+03  0.13229449618E+03  0.14943892130E+03  0.27653305849E+03  0.12500000000E+03 0.  0.
         25    1    1    2    0    0 -0.39964184924E+02  0.74175838831E+02  0.39490989973E+02  0.15583237607E+03  0.12500000000E+03 0.  0.
</event>
<event>
 5    0  0.5742667E-005  0.2846849E+03  0.7546771E-02  0.1093157E+00
         21   -1    0    0  502  501  0.00000000000E+00  0.00000000000E+00  0.45813240398E+03  0.45813240398E+03  0.00000000000E+00 0.  1.
         21   -1    0    0  501  502 -0.00000000000E+00 -0.00000000000E+00 -0.17690414361E+03  0.17690414361E+03  0.00000000000E+00 0.  1.
         25    1    1    2    0    0  0.67335208393E+02  0.65749334817E+02  0.41636913947E+02  0.16191243906E+03  0.12500000000E+03 0.  0.
         25    1    1    2    0    0  0.72031757746E+02  0.57469774513E+02  0.15298328250E+02  0.15604610842E+03  0.12500000000E+03 0.  0.
         25    1    1    2    0    0 -0.13936696614E+03 -0.12321910933E+03  0.22429301817E+03  0.31707800011E+03  0.12500000000E+03 0.  0.
</event>
<event>
 5    0  0.5742667E-005  0.2777091E+03  0.7546771E-02  0.1096947E+00
         21   -1    0    0  502  501  0.00000000000E+00  0.00000000000E+00  0.84885559015E+02  0.84885559015E+02  0.00000000000E+00 0.  1.
         21   -1    0    0  501  502 -0.00000000000E+00 -0.00000000000E+00 -0.90854504664E+03  0.90854504664E+03  0.00000000000E+00 0.  1.
         25    1    1    2    0    0  0.23706544872E+02  0.20639807201E+02 -0.57388360787E+03  0.58817973213E+03  0.12500000000E+03 0.  0.
         25    1    1    2    0    0 -0.16893868372E+01 -0.85703439370E+02 -0.49635954636E+02  0.15948875051E+03  0.12500000000E+03 0.  0.
         25    1    1    2    0    0 -0.22017158035E+02  0.65063632169E+02 -0.20013992512E+03  0.24576212301E+03  0.12500000000E+03 0.  0.
</event>
<event>
 5    0  0.6317824E-005  0.4104380E+03  0.7546771E-02  0.1040224E+00
         21   -1    0    0  502  501  0.00000000000E+00  0.00000000000E+00  0.47972801202E+03  0.47972801202E+03  0.00000000000E+00 0. -1.
         21   -1    0    0  501  502 -0.00000000000E+00 -0.00000000000E+00 -0.35115591844E+03  0.35115591844E+03  0.00000000000E+00 0. -1.
         25    1    1    2    0    0 -0.10463555669E+03 -0.12161755053E+03  0.28074564817E+03  0.34667354570E+03  0.12500000000E+03 0.  0.
         25    1    1    2    0    0 -0.35353964424E+02  0.21368973545E+03 -0.71006722009E+02  0.25996184414E+03  0.12500000000E+03 0.  0.
         25    1    1    2    0    0  0.13998952111E+03 -0.92072184921E+02 -0.81166832586E+02  0.22424854062E+03  0.12500000000E+03 0.  0.
</event>
<event>
 5    0  0.5742667E-005  0.3021380E+03  0.7546771E-02  0.1084177E+00
         21   -1    0    0  502  501  0.00000000000E+00  0.00000000000E+00  0.36104715617E+02  0.36104715617E+02  0.00000000000E+00 0.  1.
         21   -1    0    0  501  502 -0.00000000000E+00 -0.00000000000E+00 -0.25284052467E+04  0.25284052467E+04  0.00000000000E+00 0.  1.
         25    1    1    2    0    0 -0.38382048026E+02  0.10936399133E+03 -0.52704054492E+03  0.55392273848E+03  0.12500000000E+03 0.  0.
         25    1    1    2    0    0 -0.52862449907E+02 -0.16909627487E+03 -0.65704860913E+03  0.69190018322E+03  0.12500000000E+03 0.  0.
         25    1    1    2    0    0  0.91244497933E+02  0.59732283541E+02 -0.13082113771E+04  0.13186870406E+04  0.12500000000E+03 0.  0.
</event>
<event>
 5    0  0.5742667E-005  0.3113117E+03  0.7546771E-02  0.1079719E+00
         21   -1    0    0  502  501  0.00000000000E+00  0.00000000000E+00  0.92998253976E+02  0.92998253976E+02  0.00000000000E+00 0.  1.
         21   -1    0    0  501  502 -0.00000000000E+00 -0.00000000000E+00 -0.10421160463E+04  0.10421160463E+04  0.00000000000E+00 0.  1.
         25    1    1    2    0    0 -0.53708378533E+02 -0.16337002803E+03 -0.59982682295E+03  0.63638948256E+03  0.12500000000E+03 0.  0.
         25    1    1    2    0    0  0.43342481082E+02  0.13312205028E+03 -0.87949057676E+02  0.20726815405E+03  0.12500000000E+03 0.  0.
         25    1    1    2    0    0  0.10365897451E+02  0.30247977745E+02 -0.26134191175E+03  0.29145666371E+03  0.12500000000E+03 0.  0.
</event>
<event>
 5    0  0.5742667E-005  0.2746664E+03  0.7546771E-02  0.1098638E+00
         21   -1    0    0  502  501  0.00000000000E+00  0.00000000000E+00  0.34803561715E+03  0.34803561715E+03  0.00000000000E+00 0.  1.
         21   -1    0    0  501  502 -0.00000000000E+00 -0.00000000000E+00 -0.21676416735E+03  0.21676416735E+03  0.00000000000E+00 0.  1.
         25    1    1    2    0    0 -0.77762056031E+01  0.11403643797E+03 -0.27260443280E+02  0.17156022361E+03  0.12500000000E+03 0.  0.
         25    1    1    2    0    0  0.66506605608E+02  0.42520354620E+02  0.91996566780E+02  0.17412489037E+03  0.12500000000E+03 0.  0.
         25    1    1    2    0    0 -0.58730400005E+02 -0.15655679259E+03  0.66535326300E+02  0.21911467052E+03  0.12500000000E+03 0.  0.
</event>
<event>
 5    0  0.5742667E-005  0.4292212E+03  0.7546771E-02  0.1034106E+00
         21   -1    0    0  502  501  0.00000000000E+00  0.00000000000E+00  0.54767653028E+03  0.54767653028E+03  0.00000000000E+00 0.  1.
         21   -1    0    0  501  502 -0.00000000000E+00 -0.00000000000E+00 -0.33638619014E+03  0.33638619014E+03  0.00000000000E+00 0.  1.
         25    1    1    2    0    0  0.22960309693E+03 -0.71554623301E+02 -0.30637361194E+01  0.27105724989E+03  0.12500000000E+03 0.  0.
         25    1    1    2    0    0 -0.20485898938E+02 -0.75895438181E+02 -0.10795099724E+03  0.18291584786E+03  0.12500000000E+03 0.  0.
         25    1    1    2    0    0 -0.20911719800E+03  0.14745006148E+03  0.32230507350E+03  0.43008962268E+03  0.12500000000E+03 0.  0.
</event>
<event>
 5    0  0.6182595E-005  0.3512410E+03  0.7546771E-02  0.1062107E+00
         21   -1    0    0  502  501  0.00000000000E+00  0.00000000000E+00  0.18970446987E+03  0.18970446987E+03  0.00000000000E+00 0. -1.
         21   -1    0    0  501  502 -0.00000000000E+00 -0.00000000000E+00 -0.65032869397E+03  0.65032869397E+03  0.00000000000E+00 0. -1.
         25    1    1    2    0    0  0.14264713375E+03  0.21233919927E+03 -0.15564376872E+03  0.32447823202E+03  0.12500000000E+03 0.  0.
         25    1    1    2    0    0 -0.80450976971E+02 -0.16656214560E+03 -0.62162016536E+02  0.23174215055E+03  0.12500000000E+03 0.  0.
         25    1    1    2    0    0 -0.62196156782E+02 -0.45777053666E+02 -0.24281843885E+03  0.28381278126E+03  0.12500000000E+03 0.  0.
</event>
<event>
 5    0  0.5742667E-005  0.5404759E+03  0.7546771E-02  0.1003723E+00
         21   -1    0    0  502  501  0.00000000000E+00  0.00000000000E+00  0.38106604231E+03  0.38106604231E+03  0.00000000000E+00 0.  1.
         21   -1    0    0  501  502 -0.00000000000E+00 -0.00000000000E+00 -0.76657108374E+03  0.76657108374E+03  0.00000000000E+00 0.  1.
         25    1    1    2    0    0  0.27514545348E+02 -0.27340353784E+03 -0.34996247018E+03  0.46217450735E+03  0.12500000000E+03 0.  0.
         25    1    1    2    0    0  0.17236318319E+03  0.31073048004E+03  0.12606536368E+03  0.39721527421E+03  0.12500000000E+03 0.  0.
         25    1    1    2    0    0 -0.19987772853E+03 -0.37326942204E+02 -0.16160793493E+03  0.28824734450E+03  0.12500000000E+03 0.  0.
</event>
<event>
 5    0  0.7953209E-005  0.3543631E+03  0.7546771E-02  0.1060838E+00
         21   -1    0    0  502  501  0.00000000000E+00  0.00000000000E+00  0.11567888485E+03  0.11567888485E+03  0.00000000000E+00 0. -1.
         21   -1    0    0  501  502 -0.00000000000E+00 -0.00000000000E+00 -0.10855328838E+04  0.10855328838E+04  0.00000000000E+00 0. -1.
         25    1    1    2    0    0  0.24293456700E+02  0.99571831802E+02 -0.48079024815E+02  0.16864552871E+03  0.12500000000E+03 0.  0.
         25    1    1    2    0    0  0.22307160283E+02  0.11633469011E+03 -0.59138887951E+03  0.61595225166E+03  0.12500000000E+03 0.  0.
         25    1    1    2    0    0 -0.46600616983E+02 -0.21590652191E+03 -0.33038609462E+03  0.41661398827E+03  0.12500000000E+03 0.  0.
</event>
<event>
 5    0  0.5742667E-005  0.2201889E+03  0.7546771E-02  0.1133742E+00
         21   -1    0    0  502  501  0.00000000000E+00  0.00000000000E+00  0.10370684195E+03  0.10370684195E+03  0.00000000000E+00 0.  1.
         21   -1    0    0  501  502 -0.00000000000E+00 -0.00000000000E+00 -0.46750214543E+03  0.46750214543E+03  0.00000000000E+00 0.  1.
         25    1    1    2    0    0 -0.61050579251E+02 -0.96591639915E+00 -0.20058513899E+03  0.24410551858E+03  0.12500000000E+03 0.  0.
         25    1    1    2    0    0  0.70748143486E+02 -0.42602428111E+02 -0.99717099166E+02  0.17996879328E+03  0.12500000000E+03 0.  0.
         25    1    1    2    0    0 -0.96975642347E+01  0.43568344510E+02 -0.63493065331E+02  0.14713467552E+03  0.12500000000E+03 0.  0.
</event>
<event>
 5    0  0.5742667E-005  0.5638013E+03  0.7546771E-02  0.9983490E-01
         21   -1    0    0  502  501  0.00000000000E+00  0.00000000000E+00  0.12059232823E+04  0.12059232823E+04  0.00000000000E+00 0.  1.
         21   -1    0    0  501  502 -0.00000000000E+00 -0.00000000000E+00 -0.26359210366E+03  0.26359210366E+03  0.00000000000E+00 0.  1.
         25    1    1    2    0    0 -0.42450928924E+03 -0.24532086136E+03  0.64726381336E+03  0.82156308690E+03  0.12500000000E+03 0.  0.
         25    1    1    2    0    0  0.15537868268E+03  0.18895082637E+03  0.14660802038E+03  0.31139020771E+03  0.12500000000E+03 0.  0.
         25    1    1    2    0    0  0.26913060657E+03  0.56370034996E+02  0.14845934486E+03  0.33656209132E+03  0.12500000000E+03 0.  0.
</event>
<event>
 5    0  0.5742667E-005  0.4553493E+03  0.7546771E-02  0.1026139E+00
         21   -1    0    0  502  501  0.00000000000E+00  0.00000000000E+00  0.17660301769E+03  0.17660301769E+03  0.00000000000E+00 0. -1.
         21   -1    0    0  501  502 -0.00000000000E+00 -0.00000000000E+00 -0.11740625925E+04  0.11740625925E+04  0.00000000000E+00 0. -1.
         25    1    1    2    0    0 -0.10593130764E+03  0.25874754081E+03 -0.13734882318E+03  0.33565075755E+03  0.12500000000E+03 0.  0.
         25    1    1    2    0    0  0.64537590707E+02  0.84718361331E+02 -0.34454046888E+03  0.38167451586E+03  0.12500000000E+03 0.  0.
         25    1    1    2    0    0  0.41393716931E+02 -0.34346590214E+03 -0.51557028271E+03  0.63334033675E+03  0.12500000000E+03 0.  0.
</event>
<event>
 5    0  0.5742667E-005  0.2437468E+03  0.7546771E-02  0.1117322E+00
         21   -1    0    0  502  501  0.00000000000E+00  0.00000000000E+00  0.13934314071E+04  0.13934314071E+04  0.00000000000E+00 0. -1.
         21   -1    0    0  501  502 -0.00000000000E+00 -0.00000000000E+00 -0.42637546716E+02  0.42637546716E+02  0.00000000000E+00 0. -1.
         25    1    1    2    0    0  0.23822778344E+02  0.67579210766E+02  0.22887710242E+03  0.27045184878E+03  0.12500000000E+03 0.  0.
         25    1    1    2    0    0 -0.44993345442E+02 -0.22408448325E+02  0.25584915788E+03  0.28915451108E+03  0.12500000000E+03 0.  0.
         25    1    1    2    0    0  0.21170567097E+02 -0.45170762441E+02  0.86606760011E+03  0.87646259398E+03  0.12500000000E+03 0.  0.
</event>
<event>
 5    0  0.5742667E-005  0.2466180E+03  0.7546771E-02  0.1115461E+00
         21   -1    0    0  502  501  0.00000000000E+00  0.00000000000E+00  0.17446108912E+03  0.17446108912E+03  0.00000000000E+00 0. -1.
         21   -1    0    0  501  502 -0.00000000000E+00 -0.00000000000E+00 -0.34861879539E+03  0.34861879539E+03  0.00000000000E+00 0. -1.
         25    1    1    2    0    0  0.29062758469E+02  0.29217776395E+02 -0.93459670607E+02  0.16142500555E+03  0.12500000000E+03 0.  0.
         25    1    1    2    0    0  0.43094002051E+02 -0.10396065455E+03 -0.10355601792E+03  0.19751901061E+03  0.12500000000E+03 0.  0.
         25    1    1    2    0    0 -0.72156760520E+02  0.74742878152E+02  0.22857982261E+02  0.16413586834E+03  0.12500000000E+03 0.  0.
</event>
<event>
 5    0  0.5742667E-005  0.2570361E+03  0.7546771E-02  0.1108937E+00
         21   -1    0    0  502  501  0.00000000000E+00  0.00000000000E+00  0.97611207514E+02  0.97611207514E+02  0.00000000000E+00 0. -1.
         21   -1    0    0  501  502 -0.00000000000E+00 -0.00000000000E+00 -0.67684395398E+03  0.67684395398E+03  0.00000000000E+00 0. -1.
         25    1    1    2    0    0  0.17194247264E+02  0.45390516209E+02 -0.15309658140E+03  0.20351782314E+03  0.12500000000E+03 0.  0.
         25    1    1    2    0    0 -0.85280178095E+02 -0.12147215621E+02 -0.39265848488E+03  0.42098212477E+03  0.12500000000E+03 0.  0.
         25    1    1    2    0    0  0.68085930831E+02 -0.33243300587E+02 -0.33477680188E+02  0.14995521359E+03  0.12500000000E+03 0.  0.
</event>
<event>
 5    0  0.5742667E-005  0.2943676E+03  0.7546771E-02  0.1088091E+00
         21   -1    0    0  502  501  0.00000000000E+00  0.00000000000E+00  0.69349381562E+02  0.69349381562E+02  0.00000000000E+00 0.  1.
         21   -1    0    0  501  502 -0.00000000000E+00 -0.00000000000E+00 -0.12495035633E+04  0.12495035633E+04  0.00000000000E+00 0.  1.
         25    1    1    2    0    0 -0.71940406485E+02  0.16847232959E+03 -0.63924845862E+03  0.67662540580E+03  0.12500000000E+03 0.  0.
         25    1    1    2    0    0  0.97974880529E+02 -0.14733918516E+03 -0.34838161191E+03  0.41024707216E+03  0.12500000000E+03 0.  0.
         25    1    1    2    0    0 -0.26034474044E+02 -0.21133144434E+02 -0.19252411124E+03  0.23198046694E+03  0.12500000000E+03 0.  0.
</event>
<event>
 5    0  0.8738926E-005  0.6441476E+03  0.7546771E-02  0.9817823E-01
         21   -1    0    0  502  501  0.00000000000E+00  0.00000000000E+00  0.27955299763E+03  0.27955299763E+03  0.00000000000E+00 0. -1.
         21   -1    0    0  501  502 -0.00000000000E+00 -0.00000000000E+00 -0.14842486594E+04  0.14842486594E+04  0.00000000000E+00 0. -1.
         25    1    1    2    0    0  0.66156115700E+02  0.32015529224E+03 -0.90638460426E+03  0.97161416912E+03  0.12500000000E+03 0.  0.
         25    1    1    2    0    0 -0.17977373653E+03 -0.37341585669E+03 -0.39877486636E+03  0.58856129028E+03  0.12500000000E+03 0.  0.
         25    1    1    2    0    0  0.11361762083E+03  0.53260564449E+02  0.10046380883E+03  0.20362619766E+03  0.12500000000E+03 0.  0.
</event>
<event>
 5    0  0.5742667E-005  0.4751909E+03  0.7546771E-02  0.1020465E+00
         21   -1    0    0  502  501  0.00000000000E+00  0.00000000000E+00  0.26108272350E+04  0.26108272350E+04  0.00000000000E+00 0. -1.
         21   -1    0    0  501  502 -0.00000000000E+00 -0.00000000000E+00 -0.86488455099E+02  0.86488455099E+02  0.00000000000E+00 0. -1.
         25    1    1    2    0    0 -0.21779952694E+03  0.18523366219E+03  0.81516942691E+03  0.87285413335E+03  0.12500000000E+03 0.  0.
         25    1    1    2    0    0  0.22427967927E+03  0.31584666567E+02  0.14137681110E+04  0.14372418854E+04  0.12500000000E+03 0.  0.
         25    1    1    2    0    0 -0.64801523311E+01 -0.21681832876E+03  0.29540124207E+03  0.38721967135E+03  0.12500000000E+03 0.  0.
</event>
<event>
 5    0  0.5742667E-005  0.4210910E+03  0.7546771E-02  0.1036712E+00
         21   -1    0    0  502  501  0.00000000000E+00  0.00000000000E+00  0.57625933343E+03  0.57625933343E+03  0.00000000000E+00 0. -1.
         21   -1    0    0  501  502 -0.00000000000E+00 -0.00000000000E+00 -0.30770451525E+03  0.30770451525E+03  0.00000000000E+00 0. -1.
         25    1    1    2    0    0 -0.12161835061E+02  0.66991055013E+02 -0.16636366091E+03  0.21894652168E+03  0.12500000000E+03 0.  0.
         25    1    1    2    0    0 -0.38624973648E+02  0.17409758620E+03  0.13032878901E+03  0.25379608223E+03  0.12500000000E+03 0.  0.
         25    1    1    2    0    0  0.50786808709E+02 -0.24108864121E+03  0.30458969007E+03  0.41122124478E+03  0.12500000000E+03 0.  0.
</event>
<event>
 5    0  0.5742667E-005  0.3856990E+03  0.7546771E-02  0.1048847E+00
         21   -1    0    0  502  501  0.00000000000E+00  0.00000000000E+00  0.19383065558E+03  0.19383065558E+03  0.00000000000E+00 0.  1.
         21   -1    0    0  501  502 -0.00000000000E+00 -0.00000000000E+00 -0.76749313077E+03  0.76749313077E+03  0.00000000000E+00 0.  1.
         25    1    1    2    0    0 -0.46292396143E+02  0.83670337238E+02 -0.79167482376E+02  0.17617094409E+03  0.12500000000E+03 0.  0.
         25    1    1    2    0    0  0.19151814882E+03 -0.19876686666E+02  0.21964852044E+02  0.23061166216E+03  0.12500000000E+03 0.  0.
         25    1    1    2    0    0 -0.14522575267E+03 -0.63793650572E+02 -0.51645984485E+03  0.55454118011E+03  0.12500000000E+03 0.  0.
</event>
<event>
 5    0  0.5742667E-005  0.3389772E+03  0.7546771E-02  0.1067232E+00
         21   -1    0    0  502  501  0.00000000000E+00  0.00000000000E+00  0.49540610661E+03  0.49540610661E+03  0.00000000000E+00 0.  1.
         21   -1    0    0  501  502 -0.00000000000E+00 -0.00000000000E+00 -0.23194214765E+03  0.23194214765E+03  0.00000000000E+00 0.  1.
         25    1    1    2    0    0  0.51214947406E+02  0.35174153878E+02  0.17137176762E+02  0.14063738751E+03  0.12500000000E+03 0.  0.
         25    1    1    2    0    0  0.19828289049E+03 -0.80707862810E+02  0.90778109645E+02  0.26399910790E+03  0.12500000000E+03 0.  0.
         25    1    1    2    0    0 -0.24949783789E+03  0.45533708932E+02  0.15554867256E+03  0.32271175885E+03  0.12500000000E+03 0.  0.
</event>
<event>
 5    0  0.5742667E-005  0.2183871E+03  0.7546771E-02  0.1135091E+00
         21   -1    0    0  502  501  0.00000000000E+00  0.00000000000E+00  0.48732027213E+03  0.48732027213E+03  0.00000000000E+00 0. -1.
         21   -1    0    0  501  502 -0.00000000000E+00 -0.00000000000E+00 -0.97867751194E+02  0.97867751194E+02  0.00000000000E+00 0. -1.
         25    1    1    2    0    0  0.22114191779E+02  0.96110278473E+02  0.19947119275E+03  0.25522535110E+03  0.12500000000E+03 0.  0.
         25    1    1    2    0    0 -0.17384719950E+02 -0.41915951779E+02  0.10360906494E+03  0.16857939921E+03  0.12500000000E+03 0.  0.
         25    1    1    2    0    0 -0.47294718289E+01 -0.54194326694E+02  0.86372263241E+02  0.16138327301E+03  0.12500000000E+03 0.  0.
</event>
<event>
 5    0  0.5742667E-005  0.3493282E+03  0.7546771E-02  0.1062891E+00
         21   -1    0    0  502  501  0.00000000000E+00  0.00000000000E+00  0.19721662758E+03  0.19721662758E+03  0.00000000000E+00 0.  1.
         21   -1    0    0  501  502 -0.00000000000E+00 -0.00000000000E+00 -0.61876219013E+03  0.61876219013E+03  0.00000000000E+00 0.  1.
         25    1    1    2    0    0  0.51920625328E+02  0.11025714126E+03 -0.12324956031E+02  0.17501226550E+03  0.12500000000E+03 0.  0.
         25    1    1    2    0    0 -0.48111471084E+02 -0.22492661045E+03 -0.39068734371E+03  0.47028533283E+03  0.12500000000E+03 0.  0.
         25    1    1    2    0    0 -0.38091542442E+01  0.11466946919E+03 -0.18533262800E+02  0.17068121938E+03  0.12500000000E+03 0.  0.
</event>
<event>
 5    0  0.5742667E-005  0.3935281E+03  0.7546771E-02  0.1046044E+00
         21   -1    0    0  502  501  0.00000000000E+00  0.00000000000E+00  0.10399534746E+04  0.10399534746E+04  0.00000000000E+00 0.  1.
         21   -1    0    0  501  502 -0.00000000000E+00 -0.00000000000E+00 -0.14891471417E+03  0.14891471417E+03  0.00000000000E+00 0.  1.
         25    1    1    2    0    0  0.78757223990E+02 -0.35277800933E+01  0.21641326095E+03  0.26205885804E+03  0.12500000000E+03 0.  0.
         25    1    1    2    0    0  0.10470538416E+03 -0.23970157146E+03  0.21290632196E+03  0.35968620040E+03  0.12500000000E+03 0.  0.
         25    1    1    2    0    0 -0.18346260815E+03  0.24322935155E+03  0.46171917748E+03  0.56712313028E+03  0.12500000000E+03 0.  0.
</event>
<event>
 5    0  0.5742667E-005  0.2650736E+03  0.7546771E-02  0.1104133E+00
         21   -1    0    0  502  501  0.00000000000E+00  0.00000000000E+00  0.30748968942E+03  0.30748968942E+03  0.00000000000E+00 0.  1.
         21   -1    0    0  501  502 -0.00000000000E+00 -0.00000000000E+00 -0.22850851674E+03  0.22850851674E+03  0.00000000000E+00 0.  1.
         25    1    1    2    0    0 -0.33697462425E+02 -0.46720063809E+02  0.13306632219E+02  0.13827635299E+03  0.12500000000E+03 0.  0.
         25    1    1    2    0    0  0.60652655429E+02 -0.47715520283E+02 -0.92395515133E+02  0.17354378901E+03  0.12500000000E+03 0.  0.
         25    1    1    2    0    0 -0.26955193004E+02  0.94435584091E+02  0.15807005560E+03  0.22417806416E+03  0.12500000000E+03 0.  0.
</event>
<event>
 5    0  0.5742667E-005  0.3785306E+03  0.7546771E-02  0.1051478E+00
         21   -1    0    0  502  501  0.00000000000E+00  0.00000000000E+00  0.66365207427E+03  0.66365207427E+03  0.00000000000E+00 0.  1.
         21   -1    0    0  501  502 -0.00000000000E+00 -0.00000000000E+00 -0.21590438487E+03  0.21590438487E+03  0.00000000000E+00 0.  1.
         25    1    1    2    0    0 -0.23224314201E+02  0.13514513411E+02  0.17336802720E+03  0.21541467846E+03  0.12500000000E+03 0.  0.
         25    1    1    2    0    0 -0.21011574757E+03  0.67875235797E+02  0.29175598528E+03  0.38665518225E+03  0.12500000000E+03 0.  0.
         25    1    1    2    0    0  0.23334006178E+03 -0.81389749208E+02 -0.17376323072E+02  0.27748659843E+03  0.12500000000E+03 0.  0.
</event>
<event>
 5    0  0.5742667E-005  0.4238302E+03  0.7546771E-02  0.1035827E+00
         21   -1    0    0  502  501  0.00000000000E+00  0.00000000000E+00  0.20561483679E+03  0.20561483679E+03  0.00000000000E+00 0.  1.
         21   -1    0    0  501  502 -0.00000000000E+00 -0.00000000000E+00 -0.87363350961E+03  0.87363350961E+03  0.00000000000E+00 0.  1.
         25    1    1    2    0    0 -0.66138885551E+02 -0.16607387831E+03  0.97083343316E+02  0.23875732614E+03  0.12500000000E+03 0.  0.
         25    1    1    2    0    0 -0.43881477844E+02  0.79696039210E+02 -0.42241905649E+03  0.44982207821E+03  0.12500000000E+03 0.  0.
         25    1    1    2    0    0  0.11002036340E+03  0.86377839096E+02 -0.34268295964E+03  0.39066894204E+03  0.12500000000E+03 0.  0.
</event>
<event>
 5    0  0.5742667E-005  0.2951247E+03  0.7546771E-02  0.1087703E+00
         21   -1    0    0  502  501  0.00000000000E+00  0.00000000000E+00  0.20828757472E+04  0.20828757472E+04  0.00000000000E+00 0. -1.
         21   -1    0    0  501  502 -0.00000000000E+00 -0.00000000000E+00 -0.41816512206E+02  0.41816512206E+02  0.00000000000E+00 0. -1.
         25    1    1    2    0    0 -0.34486343961E+02 -0.55212676837E+02  0.87152042549E+03  0.88284234134E+03  0.12500000000E+03 0.  0.
         25    1    1    2    0    0  0.77735823633E+02  0.13666036232E+03  0.31701344611E+03  0.37528847294E+03  0.12500000000E+03 0.  0.
         25    1    1    2    0    0 -0.43249479672E+02 -0.81447685486E+02  0.85252536334E+03  0.86656144508E+03  0.12500000000E+03 0.  0.
</event>
<event>
 5    0  0.6581969E-005  0.3552090E+03  0.7546771E-02  0.1060497E+00
         21   -1    0    0  502  501  0.00000000000E+00  0.00000000000E+00  0.53525880981E+03  0.53525880981E+03  0.00000000000E+00 0. -1.
         21   -1    0    0  501  502 -0.00000000000E+00 -0.00000000000E+00 -0.23572418860E+03  0.23572418860E+03  0.00000000000E+00 0. -1.
         25    1    1    2    0    0  0.46713392785E+02 -0.19406964189E+03  0.25700884610E+03  0.34860251569E+03  0.12500000000E+03 0.  0.
         25    1    1    2    0    0 -0.11675189946E+03  0.14906025435E+03  0.11641095517E+03  0.25500289398E+03  0.12500000000E+03 0.  0.
         25    1    1    2    0    0  0.70038506671E+02  0.45009387542E+02 -0.73885180053E+02  0.16737758875E+03  0.12500000000E+03 0.  0.
</event>
<event>
 5    0  0.5742667E-005  0.3690897E+03  0.7546771E-02  0.1055042E+00
         21   -1    0    0  502  501  0.00000000000E+00  0.00000000000E+00  0.14708755061E+04  0.14708755061E+04  0.00000000000E+00 0. -1.
         21   -1    0    0  501  502 -0.00000000000E+00 -0.00000000000E+00 -0.92616415898E+02  0.92616415898E+02  0.00000000000E+00 0. -1.
         25    1    1    2    0    0 -0.13116701111E+03 -0.56927638656E+02  0.49074256797E+03  0.52621175288E+03  0.12500000000E+03 0.  0.
         25    1    1    2    0    0 -0.50803674710E+02  0.10284450295E+03  0.60573902928E+02  0.18014494960E+03  0.12500000000E+03 0.  0.
         25    1    1    2    0    0  0.18197068582E+03 -0.45916864291E+02  0.82694261930E+03  0.85713521951E+03  0.12500000000E+03 0.  0.
</event>
<event>
 5    0  0.5742667E-005  0.4098537E+03  0.7546771E-02  0.1040420E+00
         21   -1    0    0  502  501  0.00000000000E+00  0.00000000000E+00  0.21687582842E+03  0.21687582842E+03  0.00000000000E+00 0.  1.
         21   -1    0    0  501  502 -0.00000000000E+00 -0.00000000000E+00 -0.77454495589E+03  0.77454495589E+03  0.00000000000E+00 0.  1.
         25    1    1    2    0    0  0.40272680811E+01  0.16522589084E+03 -0.53658841101E+03  0.57521121053E+03  0.12500000000E+03 0.  0.
         25    1    1    2    0    0 -0.11304215927E+03 -0.18000113985E+03  0.10136137839E+02  0.24679279044E+03  0.12500000000E+03 0.  0.
         25    1    1    2    0    0  0.10901489119E+03  0.14775249015E+02 -0.31216854292E+02  0.16941678334E+03  0.12500000000E+03 0.  0.
</event>
<event>
 5    0  0.5742667E-005  0.3462568E+03  0.7546771E-02  0.1064162E+00
         21   -1    0    0  502  501  0.00000000000E+00  0.00000000000E+00  0.12504517065E+04  0.12504517065E+04  0.00000000000E+00 0. -1.
         21   -1    0    0  501  502 -0.00000000000E+00 -0.00000000000E+00 -0.95880342531E+02  0.95880342531E+02  0.00000000000E+00 0. -1.
         25    1    1    2    0    0 -0.66445988450E+02 -0.17434429431E+03  0.77079326285E+03  0.80284385555E+03  0.12500000000E+03 0.  0.
         25    1    1    2    0    0  0.56587069747E+02 -0.22227751825E+02  0.79429643969E+02  0.16009446510E+03  0.12500000000E+03 0.  0.
         25    1    1    2    0    0  0.98589187028E+01  0.19657204613E+03  0.30434845717E+03  0.38339372840E+03  0.12500000000E+03 0.  0.
</event>
<event>
 5    0  0.5742667E-005  0.2707207E+03  0.7546771E-02  0.1100868E+00
         21   -1    0    0  502  501  0.00000000000E+00  0.00000000000E+00  0.30597933869E+03  0.30597933869E+03  0.00000000000E+00 0.  1.
         21   -1    0    0  501  502 -0.00000000000E+00 -0.00000000000E+00 -0.23952491730E+03  0.23952491730E+03  0.00000000000E+00 0.  1.
         25    1    1    2    0    0  0.67446438359E+02  0.89932749973E+02 -0.20442550678E+02  0.16935117196E+03  0.12500000000E+03 0.  0.
         25    1    1    2    0    0  0.38777173608E+00 -0.15820127559E+03  0.83854133801E+02  0.21836737330E+03  0.12500000000E+03 0.  0.
         25    1    1    2    0    0 -0.67834210095E+02  0.68268525619E+02  0.30428382659E+01  0.15778571074E+03  0.12500000000E+03 0.  0.
</event>
<event>
 5    0  0.5742667E-005  0.2244738E+03  0.7546771E-02  0.1130591E+00
         21   -1    0    0  502  501  0.00000000000E+00  0.00000000000E+00  0.81365260334E+03  0.81365260334E+03  0.00000000000E+00 0. -1.
         21   -1    0    0  501  502 -0.00000000000E+00 -0.00000000000E+00 -0.61928742936E+02  0.61928742936E+02  0.00000000000E+00 0. -1.
         25    1    1    2    0    0  0.39481887215E+01  0.77863726345E+02  0.14915745810E+03  0.20964564241E+03  0.12500000000E+03 0.  0.
         25    1    1    2    0    0 -0.46457995331E+02 -0.45725036295E+02  0.23483390145E+03  0.27389977281E+03  0.12500000000E+03 0.  0.
         25    1    1    2    0    0  0.42509806609E+02 -0.32138690050E+02  0.36773250084E+03  0.39203593105E+03  0.12500000000E+03 0.  0.
</event>
<event>
 5    0  0.5742667E-005  0.3507039E+03  0.7546771E-02  0.1062327E+00
         21   -1    0    0  502  501  0.00000000000E+00  0.00000000000E+00  0.16720749839E+03  0.16720749839E+03  0.00000000000E+00 0. -1.
         21   -1    0    0  501  502 -0.00000000000E+00 -0.00000000000E+00 -0.73557241637E+03  0.73557241637E+03  0.00000000000E+00 0. -1.
         25    1    1    2    0    0 -0.40960048472E+02 -0.11655542839E+03 -0.10413577436E+03  0.20428449026E+03  0.12500000000E+03 0.  0.
         25    1    1    2    0    0  0.67263511356E+02  0.55256434289E+02  0.53718261948E+02  0.16151874553E+03  0.12500000000E+03 0.  0.
         25    1    1    2    0    0 -0.26303462884E+02  0.61298994099E+02 -0.51794740556E+03  0.53697667897E+03  0.12500000000E+03 0.  0.
</event>
<event>
 5    0  0.6070791E-005  0.3683392E+03  0.7546771E-02  0.1055330E+00
         21   -1    0    0  502  501  0.00000000000E+00  0.00000000000E+00  0.16861940007E+03  0.16861940007E+03  0.00000000000E+00 0. -1.
         21   -1    0    0  501  502 -0.00000000000E+00 -0.00000000000E+00 -0.80461525933E+03  0.80461525933E+03  0.00000000000E+00 0. -1.
         25    1    1    2    0    0 -0.90764598646E+02 -0.16061177450E+03 -0.33576388970E+03  0.40298479388E+03  0.12500000000E+03 0.  0.
         25    1    1    2    0    0 -0.27412393066E+02 -0.28408427414E+02  0.46863413223E+02  0.13921083845E+03  0.12500000000E+03 0.  0.
         25    1    1    2    0    0  0.11817699171E+03  0.18902020191E+03 -0.34709538279E+03  0.43103902707E+03  0.12500000000E+03 0.  0.
</event>
<event>
 5    0  0.5742667E-005  0.5813777E+03  0.7546771E-02  0.9944813E-01
         21   -1    0    0  502  501  0.00000000000E+00  0.00000000000E+00  0.82607235352E+03  0.82607235352E+03  0.00000000000E+00 0. -1.
         21   -1    0    0  501  502 -0.00000000000E+00 -0.00000000000E+00 -0.40916519714E+03  0.40916519714E+03  0.00000000000E+00 0.  1.
         25    1    1    2    0    0 -0.10614469620E+03  0.20218271798E+03 -0.95391315823E+02  0.27725268460E+03  0.12500000000E+03 0.  0.
         25    1    1    2    0    0  0.37422910334E+03 -0.20173027810E+03  0.49103807758E+03  0.66142718460E+03  0.12500000000E+03 0.  0.
         25    1    1    2    0    0 -0.26808440714E+03 -0.45243988418E+00  0.21260394625E+02  0.29655768146E+03  0.12500000000E+03 0.  0.
</event>
<event>
 5    0  0.5742667E-005  0.2669836E+03  0.7546771E-02  0.1103018E+00
         21   -1    0    0  502  501  0.00000000000E+00  0.00000000000E+00  0.17728145291E+03  0.17728145291E+03  0.00000000000E+00 0. -1.
         21   -1    0    0  501  502 -0.00000000000E+00 -0.00000000000E+00 -0.40207382929E+03  0.40207382929E+03  0.00000000000E+00 0. -1.
         25    1    1    2    0    0 -0.80121723979E+02  0.88059288171E+02 -0.23302748743E+03  0.29000127376E+03  0.12500000000E+03 0.  0.
         25    1    1    2    0    0  0.28891076890E+02 -0.77506598747E+02  0.27800647353E+02  0.15244619761E+03  0.12500000000E+03 0.  0.
         25    1    1    2    0    0  0.51230647089E+02 -0.10552689424E+02 -0.19565536312E+02  0.13690781083E+03  0.12500000000E+03 0.  0.
</event>
<event>
 5    0  0.5742667E-005  0.3047505E+03  0.7546771E-02  0.1082890E+00
         21   -1    0    0  502  501  0.00000000000E+00  0.00000000000E+00  0.19377564638E+03  0.19377564638E+03  0.00000000000E+00 0. -1.
         21   -1    0    0  501  502 -0.00000000000E+00 -0.00000000000E+00 -0.47928032748E+03  0.47928032748E+03  0.00000000000E+00 0. -1.
         25    1    1    2    0    0  0.12360081206E+03  0.12858907143E+03 -0.51760014753E+02  0.22386694522E+03  0.12500000000E+03 0.  0.
         25    1    1    2    0    0  0.40662449905E+02 -0.11774577760E+03 -0.97346356025E+02  0.20154110252E+03  0.12500000000E+03 0.  0.
         25    1    1    2    0    0 -0.16426326196E+03 -0.10843293834E+02 -0.13639831033E+03  0.24764792612E+03  0.12500000000E+03 0.  0.
</event>
<event>
 5    0  0.6315538E-005  0.4469510E+03  0.7546771E-02  0.1028635E+00
         21   -1    0    0  502  501  0.00000000000E+00  0.00000000000E+00  0.21692906901E+03  0.21692906901E+03  0.00000000000E+00 0.  1.
         21   -1    0    0  501  502 -0.00000000000E+00 -0.00000000000E+00 -0.92087814907E+03  0.92087814907E+03  0.00000000000E+00 0.  1.
         25    1    1    2    0    0 -0.21642323096E+03  0.11430619769E+02 -0.18105834863E+03  0.30883134487E+03  0.12500000000E+03 0.  0.
         25    1    1    2    0    0  0.76787795059E+02  0.13739863353E+03  0.50844995892E+02  0.20732815432E+03  0.12500000000E+03 0.  0.
         25    1    1    2    0    0  0.13963543590E+03 -0.14882925330E+03 -0.57373572732E+03  0.62164771889E+03  0.12500000000E+03 0.  0.
</event>
<event>
 5    0  0.5742667E-005  0.4660288E+03  0.7546771E-02  0.1023047E+00
         21   -1    0    0  502  501  0.00000000000E+00  0.00000000000E+00  0.10404782034E+03  0.10404782034E+03  0.00000000000E+00 0.  1.
         21   -1    0    0  501  502 -0.00000000000E+00 -0.00000000000E+00 -0.20873370001E+04  0.20873370001E+04  0.00000000000E+00 0.  1.
         25    1    1    2    0    0  0.17728414246E+03  0.29487112265E+03 -0.64896057215E+03  0.74508621672E+03  0.12500000000E+03 0.  0.
         25    1    1    2    0    0 -0.25731407600E+03 -0.11130039064E+03 -0.91462680892E+03  0.96476189304E+03  0.12500000000E+03 0.  0.
         25    1    1    2    0    0  0.80029933543E+02 -0.18357073201E+03 -0.41970179869E+03  0.48153671069E+03  0.12500000000E+03 0.  0.
</event>
<event>
 5    0  0.5742667E-005  0.4121143E+03  0.7546771E-02  0.1039664E+00
         21   -1    0    0  502  501  0.00000000000E+00  0.00000000000E+00  0.53292121672E+03  0.53292121672E+03  0.00000000000E+00 0. -1.
         21   -1    0    0  501  502 -0.00000000000E+00 -0.00000000000E+00 -0.31869291990E+03  0.31869291990E+03  0.00000000000E+00 0. -1.
         25    1    1    2    0    0 -0.28272251363E+02  0.11245227854E+02  0.30989223968E+02  0.13232954073E+03  0.12500000000E+03 0.  0.
         25    1    1    2    0    0 -0.29881587910E+03 -0.32907795995E+02  0.17213768614E+03  0.36828010485E+03  0.12500000000E+03 0.  0.
         25    1    1    2    0    0  0.32708813046E+03  0.21662568141E+02  0.11101386713E+02  0.35100449104E+03  0.12500000000E+03 0.  0.
</event>
<event>
 5    0  0.5742667E-005  0.4466309E+03  0.7546771E-02  0.1028732E+00
         21   -1    0    0  502  501  0.00000000000E+00  0.00000000000E+00  0.15482106108E+03  0.15482106108E+03  0.00000000000E+00 0.  1.
         21   -1    0    0  501  502 -0.00000000000E+00 -0.00000000000E+00 -0.12884499931E+04  0.12884499931E+04  0.00000000000E+00 0.  1.
         25    1    1    2    0    0 -0.29376969945E+03 -0.20998457188E+03 -0.49542123832E+03  0.62566873034E+03  0.12500000000E+03 0.  0.
         25    1    1    2    0    0  0.56442400115E+02  0.41703795901E+02 -0.38923382393E+03  0.41479262387E+03  0.12500000000E+03 0.  0.
         25    1    1    2    0    0  0.23732729933E+03  0.16828077598E+03 -0.24897386980E+03  0.40280970000E+03  0.12500000000E+03 0.  0.
</event>
<event>
 5    0  0.5742667E-005  0.3494664E+03  0.7546771E-02  0.1062834E+00
         21   -1    0    0  502  501  0.00000000000E+00  0.00000000000E+00  0.82156793606E+02  0.82156793606E+02  0.00000000000E+00 0.  1.
         21   -1    0    0  501  502 -0.00000000000E+00 -0.00000000000E+00 -0.14865083835E+04  0.14865083835E+04  0.00000000000E+00 0.  1.
         25    1    1    2    0    0 -0.10633648303E+03 -0.15512689691E+02 -0.32426913064E+03  0.36376305509E+03  0.12500000000E+03 0.  0.
         25    1    1    2    0    0 -0.37917366108E+02  0.17289552933E+02 -0.26798896594E+02  0.13446128124E+03  0.12500000000E+03 0.  0.
         25    1    1    2    0    0  0.14425384913E+03 -0.17768632424E+01 -0.10532835626E+04  0.10704408407E+04  0.12500000000E+03 0.  0.
</event>
<event>
 5    0  0.5742667E-005  0.3564649E+03  0.7546771E-02  0.1059992E+00
         21   -1    0    0  502  501  0.00000000000E+00  0.00000000000E+00  0.14422174425E+03  0.14422174425E+03  0.00000000000E+00 0. -1.
         21   -1    0    0  501  502 -0.00000000000E+00 -0.00000000000E+00 -0.88105454543E+03  0.88105454543E+03  0.00000000000E+00 0. -1.
         25    1    1    2    0    0 -0.48099583020E+02  0.22219355046E+03 -0.28413023444E+03  0.38475776000E+03  0.12500000000E+03 0.  0.
         25    1    1    2    0    0 -0.76259010396E+02 -0.20031898088E+03 -0.15122827130E+03  0.29058238214E+03  0.12500000000E+03 0.  0.
         25    1    1    2    0    0  0.12435859342E+03 -0.21874569579E+02 -0.30147429544E+03  0.34993614755E+03  0.12500000000E+03 0.  0.
</event>
<event>
 5    0  0.5742667E-005  0.4183531E+03  0.7546771E-02  0.1037604E+00
         21   -1    0    0  502  501  0.00000000000E+00  0.00000000000E+00  0.90640156878E+02  0.90640156878E+02  0.00000000000E+00 0.  1.
         21   -1    0    0  501  502 -0.00000000000E+00 -0.00000000000E+00 -0.19309251128E+04  0.19309251128E+04  0.00000000000E+00 0.  1.
         25    1    1    2    0    0  0.92494922264E+02  0.17605393076E+03 -0.36153400512E+03  0.43114050383E+03  0.12500000000E+03 0.  0.
         25    1    1    2    0    0  0.13653193303E+03  0.56778470929E+02 -0.84191190003E+03  0.86388969835E+03  0.12500000000E+03 0.  0.
         25    1    1    2    0    0 -0.22902685529E+03 -0.23283240169E+03 -0.63683905073E+03  0.72653506747E+03  0.12500000000E+03 0.  0.
</event>
<event>
 5    0  0.6224235E-005  0.2730686E+03  0.7546771E-02  0.1099536E+00
         21   -1    0    0  502  501  0.00000000000E+00  0.00000000000E+00  0.61833618595E+03  0.61833618595E+03  0.00000000000E+00 0.  1.
         21   -1    0    0  501  502 -0.00000000000E+00 -0.00000000000E+00 -0.12059211384E+03  0.12059211384E+03  0.00000000000E+00 0.  1.
         25    1    1    2    0    0 -0.76825864098E+02  0.53113658232E+02  0.18018323343E+03  0.23835744523E+03  0.12500000000E+03 0.  0.
         25    1    1    2    0    0  0.10329756459E+03 -0.15362811913E+03  0.20141575886E+03  0.30077448987E+03  0.12500000000E+03 0.  0.
         25    1    1    2    0    0 -0.26471700496E+02  0.10051446090E+03  0.11614507981E+03  0.19979636469E+03  0.12500000000E+03 0.  0.
</event>
<event>
 5    0  0.5742667E-005  0.3274349E+03  0.7546771E-02  0.1072278E+00
         21   -1    0    0  502  501  0.00000000000E+00  0.00000000000E+00  0.21682270887E+03  0.21682270887E+03  0.00000000000E+00 0.  1.
         21   -1    0    0  501  502 -0.00000000000E+00 -0.00000000000E+00 -0.49447586609E+03  0.49447586609E+03  0.00000000000E+00 0.  1.
         25    1    1    2    0    0  0.24346925720E+03 -0.84567303269E+02 -0.96247331606E+02  0.30218778404E+03  0.12500000000E+03 0.  0.
         25    1    1    2    0    0 -0.90658409822E+02  0.64270417639E+02 -0.68172780687E+02  0.18061606208E+03  0.12500000000E+03 0.  0.
         25    1    1    2    0    0 -0.15281084738E+03  0.20296885631E+02 -0.11323304493E+03  0.22849472884E+03  0.12500000000E+03 0.  0.
</event>
<event>
 5    0  0.5799496E-005  0.3486496E+03  0.7546771E-02  0.1063171E+00
         21   -1    0    0  502  501  0.00000000000E+00  0.00000000000E+00  0.20565944175E+03  0.20565944175E+03  0.00000000000E+00 0.  1.
         21   -1    0    0  501  502 -0.00000000000E+00 -0.00000000000E+00 -0.59105728379E+03  0.59105728379E+03  0.00000000000E+00 0.  1.
         25    1    1    2    0    0  0.10230729259E+02  0.75342034897E+02 -0.23766329910E+03  0.27908768117E+03  0.12500000000E+03 0.  0.
         25    1    1    2    0    0  0.38971296016E+01  0.16176440413E+03 -0.14239244221E+03  0.24916564302E+03  0.12500000000E+03 0.  0.
         25    1    1    2    0    0 -0.14127858861E+02 -0.23710643903E+03 -0.53421007294E+01  0.26846340135E+03  0.12500000000E+03 0.  0.
</event>
<event>
 5    0  0.6546876E-005  0.2643892E+03  0.7546771E-02  0.1104534E+00
         21   -1    0    0  502  501  0.00000000000E+00  0.00000000000E+00  0.15270443476E+03  0.15270443476E+03  0.00000000000E+00 0.  1.
         21   -1    0    0  501  502 -0.00000000000E+00 -0.00000000000E+00 -0.45775787081E+03  0.45775787081E+03  0.00000000000E+00 0.  1.
         25    1    1    2    0    0  0.23427142167E+02  0.40428528473E+02 -0.11355885901E+03  0.17522531599E+03  0.12500000000E+03 0.  0.
         25    1    1    2    0    0  0.19349467669E+02  0.48089386240E+02 -0.23427960273E+03  0.27055299522E+03  0.12500000000E+03 0.  0.
         25    1    1    2    0    0 -0.42776609837E+02 -0.88517914714E+02  0.42785025691E+02  0.16468399436E+03  0.12500000000E+03 0.  0.
</event>
<event>
 5    0  0.5742667E-005  0.3480070E+03  0.7546771E-02  0.1063436E+00
         21   -1    0    0  502  501  0.00000000000E+00  0.00000000000E+00  0.60272440326E+03  0.60272440326E+03  0.00000000000E+00 0.  1.
         21   -1    0    0  501  502 -0.00000000000E+00 -0.00000000000E+00 -0.20093569722E+03  0.20093569722E+03  0.00000000000E+00 0.  1.
         25    1    1    2    0    0 -0.46196671490E+02  0.75492605937E+02  0.16915919801E+03  0.22819531169E+03  0.12500000000E+03 0.  0.
         25    1    1    2    0    0 -0.15038934699E+03  0.50152486110E+02  0.23624555964E+03  0.31075583985E+03  0.12500000000E+03 0.  0.
         25    1    1    2    0    0  0.19658601848E+03 -0.12564509205E+03 -0.36160516068E+01  0.26470894894E+03  0.12500000000E+03 0.  0.
</event>
<event>
 5    0  0.5742667E-005  0.3484391E+03  0.7546771E-02  0.1063258E+00
         21   -1    0    0  502  501  0.00000000000E+00  0.00000000000E+00  0.12034923804E+03  0.12034923804E+03  0.00000000000E+00 0.  1.
         21   -1    0    0  501  502 -0.00000000000E+00 -0.00000000000E+00 -0.10088125616E+04  0.10088125616E+04  0.00000000000E+00 0.  1.
         25    1    1    2    0    0  0.11515278288E+03  0.69063223173E+02 -0.12633613771E+03  0.22274584596E+03  0.12500000000E+03 0.  0.
         25    1    1    2    0    0 -0.22564106379E+03 -0.14121150488E+03 -0.35801540788E+03  0.46330833260E+03  0.12500000000E+03 0.  0.
         25    1    1    2    0    0  0.11048828090E+03  0.72148281708E+02 -0.40411177802E+03  0.44310762113E+03  0.12500000000E+03 0.  0.
</event>
<event>
 5    0  0.5742667E-005  0.5194175E+03  0.7546771E-02  0.1008831E+00
         21   -1    0    0  502  501  0.00000000000E+00  0.00000000000E+00  0.47410326057E+03  0.47410326057E+03  0.00000000000E+00 0.  1.
         21   -1    0    0  501  502 -0.00000000000E+00 -0.00000000000E+00 -0.56906289799E+03  0.56906289799E+03  0.00000000000E+00 0.  1.
         25    1    1    2    0    0 -0.76272009042E+02  0.38472140356E+02  0.76476298639E+02  0.16962060370E+03  0.12500000000E+03 0.  0.
         25    1    1    2    0    0  0.44802716647E+02 -0.42651820885E+03 -0.68923001811E+02  0.45199606865E+03  0.12500000000E+03 0.  0.
         25    1    1    2    0    0  0.31469292395E+02  0.38804606849E+03 -0.10251293425E+03  0.42154948621E+03  0.12500000000E+03 0.  0.
</event>
<event>
 5    0  0.5742667E-005  0.4574454E+03  0.7546771E-02  0.1025525E+00
         21   -1    0    0  502  501  0.00000000000E+00  0.00000000000E+00  0.84455311248E+03  0.84455311248E+03  0.00000000000E+00 0. -1.
         21   -1    0    0  501  502 -0.00000000000E+00 -0.00000000000E+00 -0.24777164011E+03  0.24777164011E+03  0.00000000000E+00 0. -1.
         25    1    1    2    0    0  0.23995735225E+03 -0.13285697833E+03  0.22405597419E+03  0.37557500870E+03  0.12500000000E+03 0.  0.
         25    1    1    2    0    0 -0.34572981727E+03 -0.45019569296E+02  0.23058506012E+03  0.43629157466E+03  0.12500000000E+03 0.  0.
         25    1    1    2    0    0  0.10577246502E+03  0.17787654763E+03  0.14214043806E+03  0.28045816922E+03  0.12500000000E+03 0.  0.
</event>
<event>
 5    0  0.5742667E-005  0.2988880E+03  0.7546771E-02  0.1085798E+00
         21   -1    0    0  502  501  0.00000000000E+00  0.00000000000E+00  0.83434941946E+02  0.83434941946E+02  0.00000000000E+00 0.  1.
         21   -1    0    0  501  502 -0.00000000000E+00 -0.00000000000E+00 -0.10707027016E+04  0.10707027016E+04  0.00000000000E+00 0.  1.
         25    1    1    2    0    0  0.11764755956E+03 -0.39895948788E+02 -0.41459709518E+03  0.45049793155E+03  0.12500000000E+03 0.  0.
         25    1    1    2    0    0 -0.27715775767E+02  0.66760886927E+02 -0.41933067950E+02  0.15036143933E+03  0.12500000000E+03 0.  0.
         25    1    1    2    0    0 -0.89931783794E+02 -0.26864938139E+02 -0.53073759650E+03  0.55327827264E+03  0.12500000000E+03 0.  0.
</event>
<event>
 5    0  0.5742667E-005  0.2969472E+03  0.7546771E-02  0.1086777E+00
         21   -1    0    0  502  501  0.00000000000E+00  0.00000000000E+00  0.80598006765E+03  0.80598006765E+03  0.00000000000E+00 0. -1.
         21   -1    0    0  501  502 -0.00000000000E+00 -0.00000000000E+00 -0.10940426485E+03  0.10940426485E+03  0.00000000000E+00 0. -1.
         25    1    1    2    0    0 -0.62061541810E+02 -0.36976604153E+02  0.58725468400E+03  0.60474124062E+03  0.12500000000E+03 0.  0.
         25    1    1    2    0    0  0.62120076233E+02 -0.13055862741E+02  0.10635219210E+03  0.17596916829E+03  0.12500000000E+03 0.  0.
         25    1    1    2    0    0 -0.58534423885E-01  0.50032466894E+02  0.29689267007E+01  0.13467392359E+03  0.12500000000E+03 0.  0.
</event>
<event>
 5    0  0.6805577E-005  0.3394363E+03  0.7546771E-02  0.1067036E+00
         21   -1    0    0  502  501  0.00000000000E+00  0.00000000000E+00  0.25144920423E+03  0.25144920423E+03  0.00000000000E+00 0.  1.
         21   -1    0    0  501  502 -0.00000000000E+00 -0.00000000000E+00 -0.45821196837E+03  0.45821196837E+03  0.00000000000E+00 0.  1.
         25    1    1    2    0    0  0.51366099125E+02 -0.16729362638E+03 -0.46084049655E+02  0.21994174956E+03  0.12500000000E+03 0.  0.
         25    1    1    2    0    0 -0.29057153484E+02  0.27874745836E+02 -0.24898277990E+03  0.28149377313E+03  0.12500000000E+03 0.  0.
         25    1    1    2    0    0 -0.22308945641E+02  0.13941888055E+03  0.88304065414E+02  0.20822564990E+03  0.12500000000E+03 0.  0.
</event>
<event>
 5    0  0.5742667E-005  0.2681734E+03  0.7546771E-02  0.1102330E+00
         21   -1    0    0  502  501  0.00000000000E+00  0.00000000000E+00  0.95513441804E+02  0.95513441804E+02  0.00000000000E+00 0. -1.
         21   -1    0    0  501  502 -0.00000000000E+00 -0.00000000000E+00 -0.75295120306E+03  0.75295120306E+03  0.00000000000E+00 0. -1.
         25    1    1    2    0    0  0.10928318415E+03  0.53462928496E+02 -0.75693367426E+02  0.19014621988E+03  0.12500000000E+03 0.  0.
         25    1    1    2    0    0 -0.10097836064E+03  0.10686610630E+02 -0.37602125840E+03  0.40905723283E+03  0.12500000000E+03 0.  0.
         25    1    1    2    0    0 -0.83048235038E+01 -0.64149539126E+02 -0.20572313543E+03  0.24926119216E+03  0.12500000000E+03 0.  0.
</event>
<event>
 5    0  0.5742667E-005  0.2351965E+03  0.7546771E-02  0.1123035E+00
         21   -1    0    0  502  501  0.00000000000E+00  0.00000000000E+00  0.13503665998E+03  0.13503665998E+03  0.00000000000E+00 0.  1.
         21   -1    0    0  501  502 -0.00000000000E+00 -0.00000000000E+00 -0.40964713321E+03  0.40964713321E+03  0.00000000000E+00 0.  1.
         25    1    1    2    0    0  0.78698505453E+02  0.45449302522E+02 -0.84501334665E+02  0.17613792726E+03  0.12500000000E+03 0.  0.
         25    1    1    2    0    0 -0.11728111403E+03  0.41957681137E+01 -0.13474674427E+03  0.21806913874E+03  0.12500000000E+03 0.  0.
         25    1    1    2    0    0  0.38582608575E+02 -0.49645070636E+02 -0.55362394294E+02  0.15047672719E+03  0.12500000000E+03 0.  0.
</event>
<event>
 5    0  0.5742667E-005  0.2972081E+03  0.7546771E-02  0.1086645E+00
         21   -1    0    0  502  501  0.00000000000E+00  0.00000000000E+00  0.13799537423E+04  0.13799537423E+04  0.00000000000E+00 0.  1.
         21   -1    0    0  501  502 -0.00000000000E+00 -0.00000000000E+00 -0.64011311912E+02  0.64011311912E+02  0.00000000000E+00 0.  1.
         25    1    1    2    0    0 -0.47140458285E+00  0.86338039509E+02  0.34447313803E+03  0.37648535445E+03  0.12500000000E+03 0.  0.
         25    1    1    2    0    0  0.16207876880E+03 -0.12466101823E+02  0.63207503227E+03  0.66450641638E+03  0.12500000000E+03 0.  0.
         25    1    1    2    0    0 -0.16160736422E+03 -0.73871937686E+02  0.33939426013E+03  0.40297328343E+03  0.12500000000E+03 0.  0.
</event>
<event>
 5    0  0.6048717E-005  0.3585753E+03  0.7546771E-02  0.1059149E+00
         21   -1    0    0  502  501  0.00000000000E+00  0.00000000000E+00  0.33941642261E+03  0.33941642261E+03  0.00000000000E+00 0. -1.
         21   -1    0    0  501  502 -0.00000000000E+00 -0.00000000000E+00 -0.37881573445E+03  0.37881573445E+03  0.00000000000E+00 0. -1.
         25    1    1    2    0    0 -0.16336686645E+03 -0.92232860917E+02  0.11716538122E+03  0.25406369328E+03  0.12500000000E+03 0.  0.
         25    1    1    2    0    0  0.86958046136E+01  0.15945775890E+03 -0.15329992808E+03  0.25422089183E+03  0.12500000000E+03 0.  0.
         25    1    1    2    0    0  0.15467106184E+03 -0.67224897984E+02 -0.32647649729E+01  0.20994757195E+03  0.12500000000E+03 0.  0.
</event>
<event>
 5    0  0.5742667E-005  0.4531063E+03  0.7546771E-02  0.1026800E+00
         21   -1    0    0  502  501  0.00000000000E+00  0.00000000000E+00  0.14575683178E+04  0.14575683178E+04  0.00000000000E+00 0. -1.
         21   -1    0    0  501  502 -0.00000000000E+00 -0.00000000000E+00 -0.14085466040E+03  0.14085466040E+03  0.00000000000E+00 0. -1.
         25    1    1    2    0    0  0.22096124144E+02 -0.75725153122E+02  0.18809699989E+02  0.14900114876E+03  0.12500000000E+03 0.  0.
         25    1    1    2    0    0 -0.61237561798E+02  0.17506364129E+03  0.10827334780E+03  0.24848628800E+03  0.12500000000E+03 0.  0.
         25    1    1    2    0    0  0.39141437654E+02 -0.99338488173E+02  0.11896306097E+04  0.12009355415E+04  0.12500000000E+03 0.  0.
</event>
<event>
 5    0  0.5742667E-005  0.4382310E+03  0.7546771E-02  0.1031291E+00
         21   -1    0    0  502  501  0.00000000000E+00  0.00000000000E+00  0.17386534070E+03  0.17386534070E+03  0.00000000000E+00 0. -1.
         21   -1    0    0  501  502 -0.00000000000E+00 -0.00000000000E+00 -0.11045700337E+04  0.11045700337E+04  0.00000000000E+00 0. -1.
         25    1    1    2    0    0 -0.82078246563E+02  0.30538578900E+03 -0.70140674967E+03  0.77948299992E+03  0.12500000000E+03 0.  0.
         25    1    1    2    0    0  0.10593342796E+03 -0.23679338796E+03 -0.99479709588E+02  0.30465425052E+03  0.12500000000E+03 0.  0.
         25    1    1    2    0    0 -0.23855181393E+02 -0.68592401032E+02 -0.12981823370E+03  0.19429812392E+03  0.12500000000E+03 0.  0.
</event>
<event>
 5    0  0.5742667E-005  0.2479566E+03  0.7546771E-02  0.1114603E+00
         21   -1    0    0  502  501  0.00000000000E+00  0.00000000000E+00  0.71944821988E+03  0.71944821988E+03  0.00000000000E+00 0. -1.
         21   -1    0    0  501  502 -0.00000000000E+00 -0.00000000000E+00 -0.85457832561E+02  0.85457832561E+02  0.00000000000E+00 0. -1.
         25    1    1    2    0    0  0.27292987416E+02 -0.71046841358E+02  0.24169538691E+03  0.28254950165E+03  0.12500000000E+03 0.  0.
         25    1    1    2    0    0 -0.12609313960E+03  0.28268887435E+02  0.19698874040E+03  0.26669865709E+03  0.12500000000E+03 0.  0.
         25    1    1    2    0    0  0.98800152179E+02  0.42777953922E+02  0.19530626001E+03  0.25565789370E+03  0.12500000000E+03 0.  0.
</event>
<event>
 5    0  0.5742667E-005  0.3758383E+03  0.7546771E-02  0.1052483E+00
         21   -1    0    0  502  501  0.00000000000E+00  0.00000000000E+00  0.11384396112E+03  0.11384396112E+03  0.00000000000E+00 0. -1.
         21   -1    0    0  501  502 -0.00000000000E+00 -0.00000000000E+00 -0.12407724237E+04  0.12407724237E+04  0.00000000000E+00 0. -1.
         25    1    1    2    0    0  0.25150825713E+03  0.10560898960E+03 -0.43118618440E+03  0.52531532217E+03  0.12500000000E+03 0.  0.
         25    1    1    2    0    0 -0.21959373232E+03 -0.16687713847E+02 -0.24599561009E+03  0.35304210408E+03  0.12500000000E+03 0.  0.
         25    1    1    2    0    0 -0.31914524813E+02 -0.88921275751E+02 -0.44974666813E+03  0.47625895862E+03  0.12500000000E+03 0.  0.
</event>
<event>
 5    0  0.5742667E-005  0.5262115E+03  0.7546771E-02  0.1007155E+00
         21   -1    0    0  502  501  0.00000000000E+00  0.00000000000E+00  0.18424324168E+04  0.18424324168E+04  0.00000000000E+00 0. -1.
         21   -1    0    0  501  502 -0.00000000000E+00 -0.00000000000E+00 -0.15028963559E+03  0.15028963559E+03  0.00000000000E+00 0. -1.
         25    1    1    2    0    0  0.18842237506E+03  0.10930441979E+03  0.59635437752E+02  0.25813142592E+03  0.12500000000E+03 0.  0.
         25    1    1    2    0    0  0.14341214966E+03 -0.60352321793E+02  0.34834313438E+03  0.40146903577E+03  0.12500000000E+03 0.  0.
         25    1    1    2    0    0 -0.33183452472E+03 -0.48952097999E+02  0.12841642091E+04  0.13331215907E+04  0.12500000000E+03 0.  0.
</event>
<event>
 5    0  0.5742667E-005  0.3630608E+03  0.7546771E-02  0.1057378E+00
         21   -1    0    0  502  501  0.00000000000E+00  0.00000000000E+00  0.13719159117E+04  0.13719159117E+04  0.00000000000E+00 0.  1.
         21   -1    0    0  501  502 -0.00000000000E+00 -0.00000000000E+00 -0.96079634104E+02  0.96079634104E+02  0.00000000000E+00 0.  1.
         25    1    1    2    0    0 -0.41173389833E+02  0.19069731171E+03  0.33808331491E+03  0.40986100149E+03  0.12500000000E+03 0.  0.
         25    1    1    2    0    0 -0.77521254350E+02  0.54205060544E+02  0.52683888928E+03  0.54966530609E+03  0.12500000000E+03 0.  0.
         25    1    1    2    0    0  0.11869464418E+03 -0.24490237225E+03  0.41091407341E+03  0.50846923822E+03  0.12500000000E+03 0.  0.
</event>
<event>
 5    0  0.5742667E-005  0.2658109E+03  0.7546771E-02  0.1103701E+00
         21   -1    0    0  502  501  0.00000000000E+00  0.00000000000E+00  0.80490548220E+03  0.80490548220E+03  0.00000000000E+00 0. -1.
         21   -1    0    0  501  502 -0.00000000000E+00 -0.00000000000E+00 -0.87781012721E+02  0.87781012721E+02  0.00000000000E+00 0. -1.
         25    1    1    2    0    0  0.15944628973E+02  0.16409237030E+03  0.37044466491E+03  0.42430506354E+03  0.12500000000E+03 0.  0.
         25    1    1    2    0    0 -0.25986907728E+02 -0.10381081239E+03  0.12496447969E+03  0.20662314809E+03  0.12500000000E+03 0.  0.
         25    1    1    2    0    0  0.10042278755E+02 -0.60281557904E+02  0.22171532488E+03  0.26175828330E+03  0.12500000000E+03 0.  0.
</event>
<event>
 5    0  0.5742667E-005  0.3830379E+03  0.7546771E-02  0.1049817E+00
         21   -1    0    0  502  501  0.00000000000E+00  0.00000000000E+00  0.11714550519E+03  0.11714550519E+03  0.00000000000E+00 0.  1.
         21   -1    0    0  501  502 -0.00000000000E+00 -0.00000000000E+00 -0.12524427616E+04  0.12524427616E+04  0.00000000000E+00 0.  1.
         25    1    1    2    0    0 -0.35976069397E+02 -0.91387189177E+02 -0.12595337366E+03  0.20281801757E+03  0.12500000000E+03 0.  0.
         25    1    1    2    0    0  0.12603067834E+03  0.27743827685E+03 -0.45145497904E+03  0.55883121552E+03  0.12500000000E+03 0.  0.
         25    1    1    2    0    0 -0.90054608944E+02 -0.18605108767E+03 -0.55788890370E+03  0.60793903369E+03  0.12500000000E+03 0.  0.
</event>
<event>
 5    0  0.5742667E-005  0.3068189E+03  0.7546771E-02  0.1081881E+00
         21   -1    0    0  502  501  0.00000000000E+00  0.00000000000E+00  0.21217625944E+03  0.21217625944E+03  0.00000000000E+00 0. -1.
         21   -1    0    0  501  502 -0.00000000000E+00 -0.00000000000E+00 -0.44367747398E+03  0.44367747398E+03  0.00000000000E+00 0. -1.
         25    1    1    2    0    0  0.22676385182E+01  0.16635669025E+03 -0.67121403682E+02  0.21865491855E+03  0.12500000000E+03 0.  0.
         25    1    1    2    0    0 -0.12878902346E+03 -0.12426060859E+03 -0.58587927437E+02  0.22601959351E+03  0.12500000000E+03 0.  0.
         25    1    1    2    0    0  0.12652138494E+03 -0.42096081656E+02 -0.10579188342E+03  0.21117922136E+03  0.12500000000E+03 0.  0.
</event>
<event>
 5    0  0.5864044E-005  0.3058954E+03  0.7546771E-02  0.1082330E+00
         21   -1    0    0  502  501  0.00000000000E+00  0.00000000000E+00  0.51207149295E+03  0.51207149295E+03  0.00000000000E+00 0.  1.
         21   -1    0    0  501  502 -0.00000000000E+00 -0.00000000000E+00 -0.18273229309E+03  0.18273229309E+03  0.00000000000E+00 0.  1.
         25    1    1    2    0    0  0.94727752886E+02 -0.11206174612E+03  0.19876668858E+03  0.27688333030E+03  0.12500000000E+03 0.  0.
         25    1    1    2    0    0 -0.83999580704E+02  0.16787987745E+03  0.16121457222E+03  0.27722684052E+03  0.12500000000E+03 0.  0.
         25    1    1    2    0    0 -0.10728172182E+02 -0.55818131323E+02 -0.30642060947E+02  0.14069361521E+03  0.12500000000E+03 0.  0.
</event>
<event>
 5    0  0.5742667E-005  0.2474360E+03  0.7546771E-02  0.1114936E+00
         21   -1    0    0  502  501  0.00000000000E+00  0.00000000000E+00  0.15328386263E+03  0.15328386263E+03  0.00000000000E+00 0.  1.
         21   -1    0    0  501  502 -0.00000000000E+00 -0.00000000000E+00 -0.39941949244E+03  0.39941949244E+03  0.00000000000E+00 0.  1.
         25    1    1    2    0    0  0.70444914775E+02  0.71412213925E+02 -0.17040270201E+03  0.23393219353E+03  0.12500000000E+03 0.  0.
         25    1    1    2    0    0 -0.80940422709E+02 -0.71802480246E+02  0.11900913729E+02  0.16575156091E+03  0.12500000000E+03 0.  0.
         25    1    1    2    0    0  0.10495507934E+02  0.39026632069E+00 -0.87633841538E+02  0.15301960063E+03  0.12500000000E+03 0.  0.
</event>
<event>
 5    0  0.5742667E-005  0.4134986E+03  0.7546771E-02  0.1039203E+00
         21   -1    0    0  502  501  0.00000000000E+00  0.00000000000E+00  0.27103336549E+04  0.27103336549E+04  0.00000000000E+00 0. -1.
         21   -1    0    0  501  502 -0.00000000000E+00 -0.00000000000E+00 -0.63084885921E+02  0.63084885921E+02  0.00000000000E+00 0. -1.
         25    1    1    2    0    0 -0.18630075385E+03 -0.20554671217E+01  0.12702932622E+04  0.12899543278E+04  0.12500000000E+03 0.  0.
         25    1    1    2    0    0 -0.10719955551E+03 -0.11409486947E+03  0.66834245565E+03  0.69772202342E+03  0.12500000000E+03 0.  0.
         25    1    1    2    0    0  0.29350030936E+03  0.11615033659E+03  0.70861305114E+03  0.78574218961E+03  0.12500000000E+03 0.  0.
</event>
<event>
 5    0  0.5742667E-005  0.2487085E+03  0.7546771E-02  0.1114124E+00
         21   -1    0    0  502  501  0.00000000000E+00  0.00000000000E+00  0.49165240092E+03  0.49165240092E+03  0.00000000000E+00 0. -1.
         21   -1    0    0  501  502 -0.00000000000E+00 -0.00000000000E+00 -0.12581229577E+03  0.12581229577E+03  0.00000000000E+00 0. -1.
         25    1    1    2    0    0 -0.11134861511E+03 -0.19794775580E+02  0.20361570477E+03  0.26433823495E+03  0.12500000000E+03 0.  0.
         25    1    1    2    0    0  0.84976241764E+02 -0.60365230618E+02  0.80143304114E+02  0.18141905062E+03  0.12500000000E+03 0.  0.
         25    1    1    2    0    0  0.26372373349E+02  0.80160006197E+02  0.82081096270E+02  0.17170741112E+03  0.12500000000E+03 0.  0.
</event>
<event>
 5    0  0.5742667E-005  0.3855287E+03  0.7546771E-02  0.1048909E+00
         21   -1    0    0  502  501  0.00000000000E+00  0.00000000000E+00  0.19158481441E+03  0.19158481441E+03  0.00000000000E+00 0. -1.
         21   -1    0    0  501  502 -0.00000000000E+00 -0.00000000000E+00 -0.77580446362E+03  0.77580446362E+03  0.00000000000E+00 0. -1.
         25    1    1    2    0    0 -0.11409301541E+03  0.22833600371E+03 -0.60765915873E+01  0.28428238025E+03  0.12500000000E+03 0.  0.
         25    1    1    2    0    0  0.40293572765E+02 -0.93237689508E+02 -0.20667920106E+03  0.26202696598E+03  0.12500000000E+03 0.  0.
         25    1    1    2    0    0  0.73799442647E+02 -0.13509831420E+03 -0.37146385656E+03  0.42107993180E+03  0.12500000000E+03 0.  0.
</event>
<event>
 5    0  0.5742667E-005  0.2520991E+03  0.7546771E-02  0.1111985E+00
         21   -1    0    0  502  501  0.00000000000E+00  0.00000000000E+00  0.68672249874E+03  0.68672249874E+03  0.00000000000E+00 0.  1.
         21   -1    0    0  501  502 -0.00000000000E+00 -0.00000000000E+00 -0.92546759731E+02  0.92546759731E+02  0.00000000000E+00 0.  1.
         25    1    1    2    0    0  0.13190798523E+02  0.22060621296E+02  0.36058902991E+03  0.38250505444E+03  0.12500000000E+03 0.  0.
         25    1    1    2    0    0 -0.66054588913E+01  0.88354913087E+02  0.99826085583E+02  0.18286735662E+03  0.12500000000E+03 0.  0.
         25    1    1    2    0    0 -0.65853396321E+01 -0.11041553438E+03  0.13376062351E+03  0.21389684742E+03  0.12500000000E+03 0.  0.
</event>
<event>
 5    0  0.5742667E-005  0.3405034E+03  0.7546771E-02  0.1066582E+00
         21   -1    0    0  502  501  0.00000000000E+00  0.00000000000E+00  0.13617583501E+04  0.13617583501E+04  0.00000000000E+00 0.  1.
         21   -1    0    0  501  502 -0.00000000000E+00 -0.00000000000E+00 -0.85141803758E+02  0.85141803758E+02  0.00000000000E+00 0.  1.
         25    1    1    2    0    0  0.16444158630E+03 -0.89907228734E+02  0.54888948445E+03  0.59332032767E+03  0.12500000000E+03 0.  0.
         25    1    1    2    0    0 -0.13628046193E+03 -0.57761468792E+02  0.15409712190E+03  0.24754731782E+03  0.12500000000E+03 0.  0.
         25    1    1    2    0    0 -0.28161124369E+02  0.14766869753E+03  0.57362994000E+03  0.60603250838E+03  0.12500000000E+03 0.  0.
</event>
<event>
 5    0  0.5742667E-005  0.3075600E+03  0.7546771E-02  0.1081521E+00
         21   -1    0    0  502  501  0.00000000000E+00  0.00000000000E+00  0.10629868010E+03  0.10629868010E+03  0.00000000000E+00 0. -1.
         21   -1    0    0  501  502 -0.00000000000E+00 -0.00000000000E+00 -0.88988076638E+03  0.88988076638E+03  0.00000000000E+00 0. -1.
         25    1    1    2    0    0  0.91490003701E+01 -0.63240185328E+02 -0.66161597706E+02  0.15519465925E+03  0.12500000000E+03 0.  0.
         25    1    1    2    0    0  0.55434209715E+02  0.18028612285E+03 -0.24079644918E+03  0.33042997387E+03  0.12500000000E+03 0.  0.
         25    1    1    2    0    0 -0.64583210085E+02 -0.11704593752E+03 -0.47662403940E+03  0.51055481336E+03  0.12500000000E+03 0.  0.
</event>
<event>
 5    0  0.5742667E-005  0.3607853E+03  0.7546771E-02  0.1058273E+00
         21   -1    0    0  502  501  0.00000000000E+00  0.00000000000E+00  0.60052384049E+02  0.60052384049E+02  0.00000000000E+00 0. -1.
         21   -1    0    0  501  502 -0.00000000000E+00 -0.00000000000E+00 -0.21675419210E+04  0.21675419210E+04  0.00000000000E+00 0. -1.
         25    1    1    2    0    0 -0.47765191033E+02  0.22030626088E+03 -0.40035799831E+03  0.47615952040E+03  0.12500000000E+03 0.  0.
         25    1    1    2    0    0 -0.77832988408E+01 -0.72204369393E+02 -0.33912715043E+03  0.36865468241E+03  0.12500000000E+03 0.  0.
         25    1    1    2    0    0  0.55548489874E+02 -0.14810189149E+03 -0.13680043882E+04  0.13827801022E+04  0.12500000000E+03 0.  0.
</event>
<event>
 5    0  0.5742667E-005  0.2565587E+03  0.7546771E-02  0.1109229E+00
         21   -1    0    0  502  501  0.00000000000E+00  0.00000000000E+00  0.29000097964E+03  0.29000097964E+03  0.00000000000E+00 0. -1.
         21   -1    0    0  501  502 -0.00000000000E+00 -0.00000000000E+00 -0.22697294112E+03  0.22697294112E+03  0.00000000000E+00 0. -1.
         25    1    1    2    0    0 -0.54413331402E+02  0.86620498344E+02 -0.37148288472E+02  0.16573749336E+03  0.12500000000E+03 0.  0.
         25    1    1    2    0    0 -0.25148933962E+02 -0.89234877208E+02 -0.24532301774E+02  0.15755051895E+03  0.12500000000E+03 0.  0.
         25    1    1    2    0    0  0.79562265365E+02  0.26143788637E+01  0.12470862876E+03  0.19368590846E+03  0.12500000000E+03 0.  0.
</event>
<event>
 5    0  0.5742667E-005  0.4720877E+03  0.7546771E-02  0.1021333E+00
         21   -1    0    0  502  501  0.00000000000E+00  0.00000000000E+00  0.25465500586E+03  0.25465500586E+03  0.00000000000E+00 0.  1.
         21   -1    0    0  501  502 -0.00000000000E+00 -0.00000000000E+00 -0.87517148509E+03  0.87517148509E+03  0.00000000000E+00 0.  1.
         25    1    1    2    0    0  0.28956665447E+03  0.92815812459E+02 -0.21435744382E+03  0.39247641476E+03  0.12500000000E+03 0.  0.
         25    1    1    2    0    0 -0.28189011697E+03  0.58954467434E+02 -0.33239091250E+02  0.31570160668E+03  0.12500000000E+03 0.  0.
         25    1    1    2    0    0 -0.76765375048E+01 -0.15177027989E+03 -0.37291994416E+03  0.42164846951E+03  0.12500000000E+03 0.  0.
</event>
<event>
 5    0  0.5742667E-005  0.3786234E+03  0.7546771E-02  0.1051444E+00
         21   -1    0    0  502  501  0.00000000000E+00  0.00000000000E+00  0.12922281662E+03  0.12922281662E+03  0.00000000000E+00 0.  1.
         21   -1    0    0  501  502 -0.00000000000E+00 -0.00000000000E+00 -0.11093681352E+04  0.11093681352E+04  0.00000000000E+00 0.  1.
         25    1    1    2    0    0 -0.10629239774E+03 -0.11996148238E+03 -0.74315838707E+03  0.77045325578E+03  0.12500000000E+03 0.  0.
         25    1    1    2    0    0 -0.41254373317E+02  0.24988682597E+01 -0.19915631251E+03  0.23873919760E+03  0.12500000000E+03 0.  0.
         25    1    1    2    0    0  0.14754677106E+03  0.11746261412E+03 -0.37830619050E+02  0.22939849847E+03  0.12500000000E+03 0.  0.
</event>
<event>
 5    0  0.5742667E-005  0.2646630E+03  0.7546771E-02  0.1104374E+00
         21   -1    0    0  502  501  0.00000000000E+00  0.00000000000E+00  0.12660387771E+03  0.12660387771E+03  0.00000000000E+00 0. -1.
         21   -1    0    0  501  502 -0.00000000000E+00 -0.00000000000E+00 -0.55327291839E+03  0.55327291839E+03  0.00000000000E+00 0. -1.
         25    1    1    2    0    0  0.38023734549E+02  0.92545467483E+02 -0.14083646932E+03  0.21323784615E+03  0.12500000000E+03 0.  0.
         25    1    1    2    0    0  0.57679517982E+02  0.48170412788E+02 -0.17616536126E+03  0.22870625258E+03  0.12500000000E+03 0.  0.
         25    1    1    2    0    0 -0.95703252531E+02 -0.14071588027E+03 -0.10966721010E+03  0.23793269737E+03  0.12500000000E+03 0.  0.
</event>
<event>
 5    0  0.5742667E-005  0.5382022E+03  0.7546771E-02  0.1004262E+00
         21   -1    0    0  502  501  0.00000000000E+00  0.00000000000E+00  0.43309449998E+03  0.43309449998E+03  0.00000000000E+00 0. -1.
         21   -1    0    0  501  502 -0.00000000000E+00 -0.00000000000E+00 -0.66881853846E+03  0.66881853846E+03  0.00000000000E+00 0. -1.
         25    1    1    2    0    0  0.61775922454E+02  0.21074276179E+03 -0.12273138044E+03  0.28092128432E+03  0.12500000000E+03 0.  0.
         25    1    1    2    0    0  0.26959129149E+03  0.99368266382E+02 -0.15272971198E+03  0.34857550363E+03  0.12500000000E+03 0.  0.
         25    1    1    2    0    0 -0.33136721395E+03 -0.31011102817E+03  0.39737053939E+02  0.47241625049E+03  0.12500000000E+03 0.  0.
</event>
<event>
 5    0  0.5742667E-005  0.3305081E+03  0.7546771E-02  0.1070912E+00
         21   -1    0    0  502  501  0.00000000000E+00  0.00000000000E+00  0.72575293063E+02  0.72575293063E+02  0.00000000000E+00 0.  1.
         21   -1    0    0  501  502 -0.00000000000E+00 -0.00000000000E+00 -0.15051350536E+04  0.15051350536E+04  0.00000000000E+00 0.  1.
         25    1    1    2    0    0 -0.77040691903E+02 -0.14658093368E+03 -0.85360723610E+03  0.87845976108E+03  0.12500000000E+03 0.  0.
         25    1    1    2    0    0 -0.88261786668E+01  0.13535447018E+03 -0.13113515382E+03  0.22631871906E+03  0.12500000000E+03 0.  0.
         25    1    1    2    0    0  0.85866870570E+02  0.11226463500E+02 -0.44781737062E+03  0.47293186652E+03  0.12500000000E+03 0.  0.
</event>
<event>
 5    0  0.5742667E-005  0.4282132E+03  0.7546771E-02  0.1034426E+00
         21   -1    0    0  502  501  0.00000000000E+00  0.00000000000E+00  0.11284776593E+03  0.11284776593E+03  0.00000000000E+00 0.  1.
         21   -1    0    0  501  502 -0.00000000000E+00 -0.00000000000E+00 -0.16249021608E+04  0.16249021608E+04  0.00000000000E+00 0.  1.
         25    1    1    2    0    0  0.71201576469E+02  0.15700353802E+00 -0.13169372311E+03  0.19503314038E+03  0.12500000000E+03 0.  0.
         25    1    1    2    0    0  0.23701254556E+03  0.16777760188E+03 -0.61706785858E+03  0.69334119489E+03  0.12500000000E+03 0.  0.
         25    1    1    2    0    0 -0.30821412202E+03 -0.16793460541E+03 -0.76329281318E+03  0.84937559146E+03  0.12500000000E+03 0.  0.
</event>
<event>
 5    0  0.5742667E-005  0.3288484E+03  0.7546771E-02  0.1071648E+00
         21   -1    0    0  502  501  0.00000000000E+00  0.00000000000E+00  0.10846784697E+03  0.10846784697E+03  0.00000000000E+00 0.  1.
         21   -1    0    0  501  502 -0.00000000000E+00 -0.00000000000E+00 -0.99698893335E+03  0.99698893335E+03  0.00000000000E+00 0.  1.
         25    1    1    2    0    0 -0.88523357080E+02 -0.16921325083E+03 -0.63868042032E+03  0.67823829758E+03  0.12500000000E+03 0.  0.
         25    1    1    2    0    0  0.28805680747E+02  0.36242366708E+02 -0.17759669717E+03  0.22205599121E+03  0.12500000000E+03 0.  0.
         25    1    1    2    0    0  0.59717676333E+02  0.13297088412E+03 -0.72243968896E+02  0.20516249153E+03  0.12500000000E+03 0.  0.
</event>
<event>
 5    0  0.5742667E-005  0.2722571E+03  0.7546771E-02  0.1099995E+00
         21   -1    0    0  502  501  0.00000000000E+00  0.00000000000E+00  0.56612781708E+02  0.56612781708E+02  0.00000000000E+00 0. -1.
         21   -1    0    0  501  502 -0.00000000000E+00 -0.00000000000E+00 -0.13093141170E+04  0.13093141170E+04  0.00000000000E+00 0. -1.
         25    1    1    2    0    0  0.26657624338E+02  0.31074793468E+02 -0.70833482950E+02  0.14939429049E+03  0.12500000000E+03 0.  0.
         25    1    1    2    0    0 -0.80655349167E+02 -0.29698279639E+02 -0.58801299830E+03  0.60726564149E+03  0.12500000000E+03 0.  0.
         25    1    1    2    0    0  0.53997724829E+02 -0.13765138287E+01 -0.59385485400E+03  0.60926696668E+03  0.12500000000E+03 0.  0.
</event>
<event>
 5    0  0.5742667E-005  0.3213979E+03  0.7546771E-02  0.1075008E+00
         21   -1    0    0  502  501  0.00000000000E+00  0.00000000000E+00  0.45227289325E+03  0.45227289325E+03  0.00000000000E+00 0.  1.
         21   -1    0    0  501  502 -0.00000000000E+00 -0.00000000000E+00 -0.22839436888E+03  0.22839436888E+03  0.00000000000E+00 0.  1.
         25    1    1    2    0    0  0.36932837272E+02 -0.58166492120E+01  0.23245244956E+03  0.26656520625E+03  0.12500000000E+03 0.  0.
         25    1    1    2    0    0 -0.22138277183E+02 -0.52792605597E+02 -0.15845796867E+03  0.20978820357E+03  0.12500000000E+03 0.  0.
         25    1    1    2    0    0 -0.14794560089E+02  0.58609254809E+02  0.14988404348E+03  0.20431385231E+03  0.12500000000E+03 0.  0.
</event>
<event>
 5    0  0.5742667E-005  0.3325922E+03  0.7546771E-02  0.1069996E+00
         21   -1    0    0  502  501  0.00000000000E+00  0.00000000000E+00  0.31058735195E+03  0.31058735195E+03  0.00000000000E+00 0.  1.
         21   -1    0    0  501  502 -0.00000000000E+00 -0.00000000000E+00 -0.35615597244E+03  0.35615597244E+03  0.00000000000E+00 0.  1.
         25    1    1    2    0    0  0.71362653470E+01  0.18317850347E+03  0.81090531499E+02  0.23623286121E+03  0.12500000000E+03 0.  0.
         25    1    1    2    0    0 -0.75596179285E+02 -0.13693581416E+03  0.42339080531E+02  0.20465531330E+03  0.12500000000E+03 0.  0.
         25    1    1    2    0    0  0.68459913938E+02 -0.46242689312E+02 -0.16899823252E+03  0.22585514988E+03  0.12500000000E+03 0.  0.
</event>
<event>
 5    0  0.5742667E-005  0.3184300E+03  0.7546771E-02  0.1076374E+00
         21   -1    0    0  502  501  0.00000000000E+00  0.00000000000E+00  0.14312228567E+04  0.14312228567E+04  0.00000000000E+00 0. -1.
         21   -1    0    0  501  502 -0.00000000000E+00 -0.00000000000E+00 -0.70846863392E+02  0.70846863392E+02  0.00000000000E+00 0. -1.
         25    1    1    2    0    0 -0.48999624924E+02 -0.19344604475E+02  0.20327151968E+02  0.13716183898E+03  0.12500000000E+03 0.  0.
         25    1    1    2    0    0  0.35048310077E+02  0.72625423502E+01  0.78174153319E+03  0.79248088512E+03  0.12500000000E+03 0.  0.
         25    1    1    2    0    0  0.13951314846E+02  0.12082062125E+02  0.55830730814E+03  0.57242699599E+03  0.12500000000E+03 0.  0.
</event>
<event>
 5    0  0.5742667E-005  0.2510648E+03  0.7546771E-02  0.1112634E+00
         21   -1    0    0  502  501  0.00000000000E+00  0.00000000000E+00  0.33024872772E+03  0.33024872772E+03  0.00000000000E+00 0. -1.
         21   -1    0    0  501  502 -0.00000000000E+00 -0.00000000000E+00 -0.19086680875E+03  0.19086680875E+03  0.00000000000E+00 0. -1.
         25    1    1    2    0    0  0.43880076349E+02  0.97068861230E+02 -0.57632889946E+02  0.17405279350E+03  0.12500000000E+03 0.  0.
         25    1    1    2    0    0 -0.56469331017E+01 -0.90192430402E+02  0.95517991945E+02  0.18142560222E+03  0.12500000000E+03 0.  0.
         25    1    1    2    0    0 -0.38233143248E+02 -0.68764308284E+01  0.10149681696E+03  0.16563714075E+03  0.12500000000E+03 0.  0.
</event>
<event>
 5    0  0.5742667E-005  0.3317544E+03  0.7546771E-02  0.1070363E+00
         21   -1    0    0  502  501  0.00000000000E+00  0.00000000000E+00  0.52895120622E+03  0.52895120622E+03  0.00000000000E+00 0. -1.
         21   -1    0    0  501  502 -0.00000000000E+00 -0.00000000000E+00 -0.20807393801E+03  0.20807393801E+03  0.00000000000E+00 0. -1.
         25    1    1    2    0    0  0.69354020525E+02 -0.14443331007E+03 -0.49247829021E+02  0.20909641289E+03  0.12500000000E+03 0.  0.
         25    1    1    2    0    0 -0.35572508986E+01  0.16994210564E+03  0.12897705468E+03  0.24729143523E+03  0.12500000000E+03 0.  0.
         25    1    1    2    0    0 -0.65796769626E+02 -0.25508795568E+02  0.24114804254E+03  0.28063729611E+03  0.12500000000E+03 0.  0.
</event>
<event>
 5    0  0.5742667E-005  0.3174423E+03  0.7546771E-02  0.1076832E+00
         21   -1    0    0  502  501  0.00000000000E+00  0.00000000000E+00  0.66999406641E+03  0.66999406641E+03  0.00000000000E+00 0. -1.
         21   -1    0    0  501  502 -0.00000000000E+00 -0.00000000000E+00 -0.15040371581E+03  0.15040371581E+03  0.00000000000E+00 0. -1.
         25    1    1    2    0    0 -0.12200800294E+03 -0.46846228627E+02  0.35381922275E+03  0.39735823171E+03  0.12500000000E+03 0.  0.
         25    1    1    2    0    0  0.10460342542E+03  0.98415411739E+02 -0.21268684396E+02  0.19158503807E+03  0.12500000000E+03 0.  0.
         25    1    1    2    0    0  0.17404577522E+02 -0.51569183112E+02  0.18703981224E+03  0.23145451244E+03  0.12500000000E+03 0.  0.
</event>
<event>
 5    0  0.5970691E-005  0.3025695E+03  0.7546771E-02  0.1083963E+00
         21   -1    0    0  502  501  0.00000000000E+00  0.00000000000E+00  0.21413005747E+03  0.21413005747E+03  0.00000000000E+00 0.  1.
         21   -1    0    0  501  502 -0.00000000000E+00 -0.00000000000E+00 -0.42753588930E+03  0.42753588930E+03  0.00000000000E+00 0.  1.
         25    1    1    2    0    0 -0.18740053405E+02 -0.10861751521E+03 -0.10245647003E+03  0.19563047427E+03  0.12500000000E+03 0.  0.
         25    1    1    2    0    0  0.11190733514E+03 -0.81023862677E+02 -0.41089535547E+02  0.19079168722E+03  0.12500000000E+03 0.  0.
         25    1    1    2    0    0 -0.93167281738E+02  0.18964137789E+03 -0.69859826250E+02  0.25524378527E+03  0.12500000000E+03 0.  0.
</event>
<event>
 5    0  0.5742667E-005  0.2483713E+03  0.7546771E-02  0.1114338E+00
         21   -1    0    0  502  501  0.00000000000E+00  0.00000000000E+00  0.56629845208E+02  0.56629845208E+02  0.00000000000E+00 0. -1.
         21   -1    0    0  501  502 -0.00000000000E+00 -0.00000000000E+00 -0.10893250653E+04  0.10893250653E+04  0.00000000000E+00 0. -1.
         25    1    1    2    0    0 -0.40073160081E+02 -0.85569727059E+02 -0.21448231927E+03  0.26562323247E+03  0.12500000000E+03 0.  0.
         25    1    1    2    0    0  0.25633993184E+02 -0.30715172801E+02 -0.20321227931E+03  0.24191063208E+03  0.12500000000E+03 0.  0.
         25    1    1    2    0    0  0.14439166898E+02  0.11628489986E+03 -0.61500062149E+03  0.63842104595E+03  0.12500000000E+03 0.  0.
</event>
<event>
 5    0  0.5742667E-005  0.4422844E+03  0.7546771E-02  0.1030048E+00
         21   -1    0    0  502  501  0.00000000000E+00  0.00000000000E+00  0.22101099324E+03  0.22101099324E+03  0.00000000000E+00 0. -1.
         21   -1    0    0  501  502 -0.00000000000E+00 -0.00000000000E+00 -0.88509377914E+03  0.88509377914E+03  0.00000000000E+00 0. -1.
         25    1    1    2    0    0  0.60603266171E+02 -0.22450562448E+03 -0.54752861923E+03  0.60785534478E+03  0.12500000000E+03 0.  0.
         25    1    1    2    0    0 -0.95038695776E+02  0.29693523070E+03 -0.79275137605E+02  0.34512669031E+03  0.12500000000E+03 0.  0.
         25    1    1    2    0    0  0.34435429604E+02 -0.72429606219E+02 -0.37279029060E+02  0.15312273730E+03  0.12500000000E+03 0.  0.
</event>
<event>
 5    0  0.5742667E-005  0.3686633E+03  0.7546771E-02  0.1055205E+00
         21   -1    0    0  502  501  0.00000000000E+00  0.00000000000E+00  0.17972034235E+03  0.17972034235E+03  0.00000000000E+00 0. -1.
         21   -1    0    0  501  502 -0.00000000000E+00 -0.00000000000E+00 -0.75624504797E+03  0.75624504797E+03  0.00000000000E+00 0. -1.
         25    1    1    2    0    0 -0.20918703901E+02 -0.79335784079E+02 -0.13195235454E+02  0.15010287488E+03  0.12500000000E+03 0.  0.
         25    1    1    2    0    0  0.49622964839E+02  0.24974877361E+03 -0.47864279646E+03  0.55638189687E+03  0.12500000000E+03 0.  0.
         25    1    1    2    0    0 -0.28704260937E+02 -0.17041298953E+03 -0.84686673707E+02  0.22948061857E+03  0.12500000000E+03 0.  0.
</event>
<event>
 5    0  0.5742667E-005  0.3205004E+03  0.7546771E-02  0.1075419E+00
         21   -1    0    0  502  501  0.00000000000E+00  0.00000000000E+00  0.34092398498E+03  0.34092398498E+03  0.00000000000E+00 0.  1.
         21   -1    0    0  501  502 -0.00000000000E+00 -0.00000000000E+00 -0.30130037235E+03  0.30130037235E+03  0.00000000000E+00 0.  1.
         25    1    1    2    0    0 -0.86930238819E+02 -0.13080701811E+03  0.10815332393E+03  0.22801202574E+03  0.12500000000E+03 0.  0.
         25    1    1    2    0    0  0.53605012279E+02 -0.30687763704E+02  0.78841975350E+02  0.16017581983E+03  0.12500000000E+03 0.  0.
         25    1    1    2    0    0  0.33325226540E+02  0.16149478181E+03 -0.14737168665E+03  0.25403651175E+03  0.12500000000E+03 0.  0.
</event>
<event>
 5    0  0.5742667E-005  0.4036697E+03  0.7546771E-02  0.1042516E+00
         21   -1    0    0  502  501  0.00000000000E+00  0.00000000000E+00  0.23489422198E+03  0.23489422198E+03  0.00000000000E+00 0.  1.
         21   -1    0    0  501  502 -0.00000000000E+00 -0.00000000000E+00 -0.69371328898E+03  0.69371328898E+03  0.00000000000E+00 0.  1.
         25    1    1    2    0    0  0.18056993493E+03  0.36330864199E+02 -0.69500125814E+02  0.23319669934E+03  0.12500000000E+03 0.  0.
         25    1    1    2    0    0  0.14093364178E+03 -0.11682004281E+03 -0.16154150550E+03  0.27428064421E+03  0.12500000000E+03 0.  0.
         25    1    1    2    0    0 -0.32150357670E+03  0.80489178607E+02 -0.22777743568E+03  0.42113016742E+03  0.12500000000E+03 0.  0.
</event>
<event>
 5    0  0.5742667E-005  0.3428153E+03  0.7546771E-02  0.1065603E+00
         21   -1    0    0  502  501  0.00000000000E+00  0.00000000000E+00  0.19865321710E+04  0.19865321710E+04  0.00000000000E+00 0.  1.
         21   -1    0    0  501  502 -0.00000000000E+00 -0.00000000000E+00 -0.59159543841E+02  0.59159543841E+02  0.00000000000E+00 0.  1.
         25    1    1    2    0    0 -0.84519015377E+02 -0.37019187420E+02  0.13304713421E+03  0.20454931953E+03  0.12500000000E+03 0.  0.
         25    1    1    2    0    0 -0.54679745256E+02  0.72929236787E+02  0.13342113382E+04  0.13431505660E+04  0.12500000000E+03 0.  0.
         25    1    1    2    0    0  0.13919876063E+03 -0.35910049367E+02  0.46011415478E+03  0.49799182929E+03  0.12500000000E+03 0.  0.
</event>
<event>
 5    0  0.5742667E-005  0.2506888E+03  0.7546771E-02  0.1112870E+00
         21   -1    0    0  502  501  0.00000000000E+00  0.00000000000E+00  0.28470398292E+03  0.28470398292E+03  0.00000000000E+00 0.  1.
         21   -1    0    0  501  502 -0.00000000000E+00 -0.00000000000E+00 -0.22073768871E+03  0.22073768871E+03  0.00000000000E+00 0.  1.
         25    1    1    2    0    0  0.73681761515E+02 -0.37437641006E+02 -0.88857617687E+01  0.15011507488E+03  0.12500000000E+03 0.  0.
         25    1    1    2    0    0  0.32408739769E+02 -0.67303533881E+01 -0.57251485309E+02  0.14141554596E+03  0.12500000000E+03 0.  0.
         25    1    1    2    0    0 -0.10609050128E+03  0.44167994394E+02  0.13010354129E+03  0.21391105078E+03  0.12500000000E+03 0.  0.
</event>
<event>
 5    0  0.5742667E-005  0.2218826E+03  0.7546771E-02  0.1132487E+00
         21   -1    0    0  502  501  0.00000000000E+00  0.00000000000E+00  0.14886878900E+03  0.14886878900E+03  0.00000000000E+00 0. -1.
         21   -1    0    0  501  502 -0.00000000000E+00 -0.00000000000E+00 -0.33070647792E+03  0.33070647792E+03  0.00000000000E+00 0. -1.
         25    1    1    2    0    0  0.51669746893E+02 -0.11807746228E+02 -0.14307374214E+02  0.13652430762E+03  0.12500000000E+03 0.  0.
         25    1    1    2    0    0  0.33319203990E+02 -0.45949975156E+02 -0.84086732567E+02  0.16098803734E+03  0.12500000000E+03 0.  0.
         25    1    1    2    0    0 -0.84988950883E+02  0.57757721384E+02 -0.83443582139E+02  0.18206292196E+03  0.12500000000E+03 0.  0.
</event>
<event>
 5    0  0.5742667E-005  0.2679879E+03  0.7546771E-02  0.1102437E+00
         21   -1    0    0  502  501  0.00000000000E+00  0.00000000000E+00  0.10859016702E+03  0.10859016702E+03  0.00000000000E+00 0. -1.
         21   -1    0    0  501  502 -0.00000000000E+00 -0.00000000000E+00 -0.66136283326E+03  0.66136283326E+03  0.00000000000E+00 0. -1.
         25    1    1    2    0    0  0.39155254327E+02 -0.10310713508E+03 -0.25648189946E+02  0.16866251775E+03  0.12500000000E+03 0.  0.
         25    1    1    2    0    0  0.27227562447E+01  0.43895777229E+02 -0.16654983527E+03  0.21283350368E+03  0.12500000000E+03 0.  0.
         25    1    1    2    0    0 -0.41878010572E+02  0.59211357853E+02 -0.36057464102E+03  0.38845697884E+03  0.12500000000E+03 0.  0.
</event>
<event>
 5    0  0.5742667E-005  0.3250261E+03  0.7546771E-02  0.1073359E+00
         21   -1    0    0  502  501  0.00000000000E+00  0.00000000000E+00  0.96620970644E+03  0.96620970644E+03  0.00000000000E+00 0.  1.
         21   -1    0    0  501  502 -0.00000000000E+00 -0.00000000000E+00 -0.10933644556E+03  0.10933644556E+03  0.00000000000E+00 0.  1.
         25    1    1    2    0    0  0.11189140661E+03 -0.13269433250E+02  0.16123543731E+03  0.23306143177E+03  0.12500000000E+03 0.  0.
         25    1    1    2    0    0 -0.11428612266E+03 -0.17488270535E+03  0.29438746298E+03  0.38201342492E+03  0.12500000000E+03 0.  0.
         25    1    1    2    0    0  0.23947160450E+01  0.18815213860E+03  0.40125036059E+03  0.46047129530E+03  0.12500000000E+03 0.  0.
</event>
<event>
 5    0  0.5742667E-005  0.2303253E+03  0.7546771E-02  0.1126411E+00
         21   -1    0    0  502  501  0.00000000000E+00  0.00000000000E+00  0.96272793624E+03  0.96272793624E+03  0.00000000000E+00 0.  1.
         21   -1    0    0  501  502 -0.00000000000E+00 -0.00000000000E+00 -0.55103563006E+02  0.55103563006E+02  0.00000000000E+00 0.  1.
         25    1    1    2    0    0 -0.55426080864E+02  0.67977338938E+02  0.48323125389E+03  0.50678438589E+03  0.12500000000E+03 0.  0.
         25    1    1    2    0    0 -0.15675425441E+02 -0.60531419527E+02  0.18827101867E+03  0.23447973939E+03  0.12500000000E+03 0.  0.
         25    1    1    2    0    0  0.71101506305E+02 -0.74459194108E+01  0.23612210067E+03  0.27656737396E+03  0.12500000000E+03 0.  0.
</event>
<event>
 5    0  0.5742667E-005  0.3534004E+03  0.7546771E-02  0.1061228E+00
         21   -1    0    0  502  501  0.00000000000E+00  0.00000000000E+00  0.63800430989E+03  0.63800430989E+03  0.00000000000E+00 0. -1.
         21   -1    0    0  501  502 -0.00000000000E+00 -0.00000000000E+00 -0.19575386690E+03  0.19575386690E+03  0.00000000000E+00 0. -1.
         25    1    1    2    0    0 -0.68490997371E+02 -0.14267764230E+03  0.18917901682E+03  0.27651695561E+03  0.12500000000E+03 0.  0.
         25    1    1    2    0    0  0.17580967945E+03  0.22522297326E+03  0.16876166671E+03  0.35459826737E+03  0.12500000000E+03 0.  0.
         25    1    1    2    0    0 -0.10731868208E+03 -0.82545330959E+02  0.84309759465E+02  0.20264295381E+03  0.12500000000E+03 0.  0.
</event>
<event>
 5    0  0.5742667E-005  0.3177953E+03  0.7546771E-02  0.1076668E+00
         21   -1    0    0  502  501  0.00000000000E+00  0.00000000000E+00  0.69751445760E+02  0.69751445760E+02  0.00000000000E+00 0. -1.
         21   -1    0    0  501  502 -0.00000000000E+00 -0.00000000000E+00 -0.14479103997E+04  0.14479103997E+04  0.00000000000E+00 0. -1.
         25    1    1    2    0    0  0.54901356090E+02  0.62566781651E+02 -0.15304006639E+03  0.21441787003E+03  0.12500000000E+03 0.  0.
         25    1    1    2    0    0  0.92869924090E+02 -0.16322180917E+03 -0.65916877603E+03  0.69670270351E+03  0.12500000000E+03 0.  0.
         25    1    1    2    0    0 -0.14777128018E+03  0.10065502752E+03 -0.56595011148E+03  0.60654127188E+03  0.12500000000E+03 0.  0.
</event>
<event>
 5    0  0.5742667E-005  0.3620672E+03  0.7546771E-02  0.1057768E+00
         21   -1    0    0  502  501  0.00000000000E+00  0.00000000000E+00  0.26461114650E+03  0.26461114650E+03  0.00000000000E+00 0.  1.
         21   -1    0    0  501  502 -0.00000000000E+00 -0.00000000000E+00 -0.49541623521E+03  0.49541623521E+03  0.00000000000E+00 0.  1.
         25    1    1    2    0    0 -0.23095901025E+03 -0.45916160363E+02 -0.29533845624E+03  0.39786952878E+03  0.12500000000E+03 0.  0.
         25    1    1    2    0    0  0.14239760832E+03  0.15929867078E+02 -0.73781473164E+01  0.19028998023E+03  0.12500000000E+03 0.  0.
         25    1    1    2    0    0  0.88561401935E+02  0.29986293285E+02  0.71911514851E+02  0.17186787270E+03  0.12500000000E+03 0.  0.
</event>
<event>
 5    0  0.5742667E-005  0.2695211E+03  0.7546771E-02  0.1101554E+00
         21   -1    0    0  502  501  0.00000000000E+00  0.00000000000E+00  0.12491245863E+04  0.12491245863E+04  0.00000000000E+00 0.  1.
         21   -1    0    0  501  502 -0.00000000000E+00 -0.00000000000E+00 -0.58154044261E+02  0.58154044261E+02  0.00000000000E+00 0.  1.
         25    1    1    2    0    0  0.30731774888E+02  0.13443741025E+03  0.20677528999E+03  0.27820654164E+03  0.12500000000E+03 0.  0.
         25    1    1    2    0    0 -0.52313880420E+01 -0.17338950084E+02  0.37206813418E+03  0.39292200636E+03  0.12500000000E+03 0.  0.
         25    1    1    2    0    0 -0.25500386846E+02 -0.11709846017E+03  0.61212711786E+03  0.63615008255E+03  0.12500000000E+03 0.  0.
</event>
<event>
 5    0  0.5742667E-005  0.3224431E+03  0.7546771E-02  0.1074530E+00
         21   -1    0    0  502  501  0.00000000000E+00  0.00000000000E+00  0.30446509137E+03  0.30446509137E+03  0.00000000000E+00 0. -1.
         21   -1    0    0  501  502 -0.00000000000E+00 -0.00000000000E+00 -0.34148266179E+03  0.34148266179E+03  0.00000000000E+00 0. -1.
         25    1    1    2    0    0 -0.48299976002E+02  0.10534784539E+03 -0.20605311810E+03  0.26742091109E+03  0.12500000000E+03 0.  0.
         25    1    1    2    0    0 -0.55771132312E+02 -0.90467676370E+01  0.12237836891E+03  0.18383070576E+03  0.12500000000E+03 0.  0.
         25    1    1    2    0    0  0.10407110831E+03 -0.96301077753E+02  0.46657178778E+02  0.19469613631E+03  0.12500000000E+03 0.  0.
</event>
<event>
 5    0  0.5742667E-005  0.2508723E+03  0.7546771E-02  0.1112755E+00
         21   -1    0    0  502  501  0.00000000000E+00  0.00000000000E+00  0.59708211073E+02  0.59708211073E+02  0.00000000000E+00 0.  1.
         21   -1    0    0  501  502 -0.00000000000E+00 -0.00000000000E+00 -0.10540746288E+04  0.10540746288E+04  0.00000000000E+00 0.  1.
         25    1    1    2    0    0 -0.10135667063E+03  0.10746008207E+03 -0.52240554530E+03  0.55709370638E+03  0.12500000000E+03 0.  0.
         25    1    1    2    0    0  0.52639035601E+02 -0.76360872862E+02 -0.28133196615E+03  0.32151909142E+03  0.12500000000E+03 0.  0.
         25    1    1    2    0    0  0.48717635030E+02 -0.31099209212E+02 -0.19062890623E+03  0.23517004203E+03  0.12500000000E+03 0.  0.
</event>
<event>
 5    0  0.5742667E-005  0.3159724E+03  0.7546771E-02  0.1077518E+00
         21   -1    0    0  502  501  0.00000000000E+00  0.00000000000E+00  0.18351730638E+03  0.18351730638E+03  0.00000000000E+00 0. -1.
         21   -1    0    0  501  502 -0.00000000000E+00 -0.00000000000E+00 -0.54402809511E+03  0.54402809511E+03  0.00000000000E+00 0. -1.
         25    1    1    2    0    0  0.49674850723E+02 -0.10789998833E+03 -0.26672676375E+03  0.31761323143E+03  0.12500000000E+03 0.  0.
         25    1    1    2    0    0 -0.33686209937E+02 -0.92388281810E+02 -0.63964888438E+02  0.17142596743E+03  0.12500000000E+03 0.  0.
         25    1    1    2    0    0 -0.15988640786E+02  0.20028827014E+03 -0.29819136538E+02  0.23850620263E+03  0.12500000000E+03 0.  0.
</event>
<event>
 5    0  0.5742667E-005  0.2616815E+03  0.7546771E-02  0.1106137E+00
         21   -1    0    0  502  501  0.00000000000E+00  0.00000000000E+00  0.25021717508E+03  0.25021717508E+03  0.00000000000E+00 0. -1.
         21   -1    0    0  501  502 -0.00000000000E+00 -0.00000000000E+00 -0.27367099670E+03  0.27367099670E+03  0.00000000000E+00 0. -1.
         25    1    1    2    0    0 -0.81769325328E+02  0.14317443204E+02 -0.19658466532E+01  0.15006690607E+03  0.12500000000E+03 0.  0.
         25    1    1    2    0    0 -0.35873710119E+02  0.96828817572E+02 -0.44244822884E+02  0.16806352175E+03  0.12500000000E+03 0.  0.
         25    1    1    2    0    0  0.11764303545E+03 -0.11114626078E+03  0.22756847918E+02  0.20575774396E+03  0.12500000000E+03 0.  0.
</event>
<event>
 5    0  0.5742667E-005  0.2239976E+03  0.7546771E-02  0.1130937E+00
         21   -1    0    0  502  501  0.00000000000E+00  0.00000000000E+00  0.15218051085E+03  0.15218051085E+03  0.00000000000E+00 0.  1.
         21   -1    0    0  501  502 -0.00000000000E+00 -0.00000000000E+00 -0.32970667321E+03  0.32970667321E+03  0.00000000000E+00 0.  1.
         25    1    1    2    0    0  0.15631207159E+02 -0.49735530968E+02 -0.50079344088E+02  0.14439840159E+03  0.12500000000E+03 0.  0.
         25    1    1    2    0    0 -0.55308342125E+02  0.10160261620E+03 -0.55243108939E+02  0.17905000813E+03  0.12500000000E+03 0.  0.
         25    1    1    2    0    0  0.39677134966E+02 -0.51867085233E+02 -0.72203709341E+02  0.15843877433E+03  0.12500000000E+03 0.  0.
</event>
<event>
 5    0  0.5742667E-005  0.2829330E+03  0.7546771E-02  0.1094098E+00
         21   -1    0    0  502  501  0.00000000000E+00  0.00000000000E+00  0.56053813815E+03  0.56053813815E+03  0.00000000000E+00 0.  1.
         21   -1    0    0  501  502 -0.00000000000E+00 -0.00000000000E+00 -0.14281115306E+03  0.14281115306E+03  0.00000000000E+00 0.  1.
         25    1    1    2    0    0  0.58918502478E+02  0.37324106052E+01  0.40496355274E+02  0.14404955957E+03  0.12500000000E+03 0.  0.
         25    1    1    2    0    0  0.86747365326E+02 -0.71968326742E+02  0.53143093692E+02  0.17650420350E+03  0.12500000000E+03 0.  0.
         25    1    1    2    0    0 -0.14566586780E+03  0.68235916137E+02  0.32408753613E+03  0.38279552814E+03  0.12500000000E+03 0.  0.
</event>
<event>
 5    0  0.5742667E-005  0.2683386E+03  0.7546771E-02  0.1102234E+00
         21   -1    0    0  502  501  0.00000000000E+00  0.00000000000E+00  0.46666251741E+02  0.46666251741E+02  0.00000000000E+00 0. -1.
         21   -1    0    0  501  502 -0.00000000000E+00 -0.00000000000E+00 -0.15429911377E+04  0.15429911377E+04  0.00000000000E+00 0. -1.
         25    1    1    2    0    0  0.52597633900E+02 -0.12447756072E+03 -0.28380000352E+03  0.33827299066E+03  0.12500000000E+03 0.  0.
         25    1    1    2    0    0  0.13735840121E+02  0.89158079255E+02 -0.46882863499E+03  0.49352114989E+03  0.12500000000E+03 0.  0.
         25    1    1    2    0    0 -0.66333474021E+02  0.35319481464E+02 -0.74369624742E+03  0.75786324886E+03  0.12500000000E+03 0.  0.
</event>
<event>
 5    0  0.5742667E-005  0.3716609E+03  0.7546771E-02  0.1054060E+00
         21   -1    0    0  502  501  0.00000000000E+00  0.00000000000E+00  0.25494882395E+03  0.25494882395E+03  0.00000000000E+00 0. -1.
         21   -1    0    0  501  502 -0.00000000000E+00 -0.00000000000E+00 -0.54180208628E+03  0.54180208628E+03  0.00000000000E+00 0. -1.
         25    1    1    2    0    0  0.48636228615E+02  0.10148585460E+03 -0.12177623120E+03  0.20765190079E+03  0.12500000000E+03 0.  0.
         25    1    1    2    0    0 -0.73012564791E+02  0.49447347257E+02 -0.30896115276E+03  0.34475769561E+03  0.12500000000E+03 0.  0.
         25    1    1    2    0    0  0.24376336176E+02 -0.15093320185E+03  0.14388412163E+03  0.24434131383E+03  0.12500000000E+03 0.  0.
</event>
<event>
 5    0  0.5742667E-005  0.2717607E+03  0.7546771E-02  0.1100276E+00
         21   -1    0    0  502  501  0.00000000000E+00  0.00000000000E+00  0.63733886288E+03  0.63733886288E+03  0.00000000000E+00 0. -1.
         21   -1    0    0  501  502 -0.00000000000E+00 -0.00000000000E+00 -0.11587847116E+03  0.11587847116E+03  0.00000000000E+00 0. -1.
         25    1    1    2    0    0 -0.16425370819E+03 -0.27676468594E+02  0.32336766514E+03  0.38462568092E+03  0.12500000000E+03 0.  0.
         25    1    1    2    0    0  0.70627659605E+02 -0.20016578169E+02  0.69604496020E+02  0.16080645375E+03  0.12500000000E+03 0.  0.
         25    1    1    2    0    0  0.93626048582E+02  0.47693046764E+02  0.12848823056E+03  0.20778519936E+03  0.12500000000E+03 0.  0.
</event>
<event>
 5    0  0.5742667E-005  0.2955040E+03  0.7546771E-02  0.1087510E+00
         21   -1    0    0  502  501  0.00000000000E+00  0.00000000000E+00  0.20424803118E+04  0.20424803118E+04  0.00000000000E+00 0.  1.
         21   -1    0    0  501  502 -0.00000000000E+00 -0.00000000000E+00 -0.42753212862E+02  0.42753212862E+02  0.00000000000E+00 0. -1.
         25    1    1    2    0    0  0.27416051912E+02 -0.13036266351E+03  0.89480723912E+03  0.91326395917E+03  0.12500000000E+03 0.  0.
         25    1    1    2    0    0 -0.13349275543E+02 -0.76964817685E+02  0.38145631497E+03  0.40894462528E+03  0.12500000000E+03 0.  0.
         25    1    1    2    0    0 -0.14066776369E+02  0.20732748120E+03  0.72346354489E+03  0.76302494025E+03  0.12500000000E+03 0.  0.
</event>
<event>
 5    0  0.5742667E-005  0.2743334E+03  0.7546771E-02  0.1098825E+00
         21   -1    0    0  502  501  0.00000000000E+00  0.00000000000E+00  0.87659235009E+02  0.87659235009E+02  0.00000000000E+00 0.  1.
         21   -1    0    0  501  502 -0.00000000000E+00 -0.00000000000E+00 -0.85853858440E+03  0.85853858440E+03  0.00000000000E+00 0.  1.
         25    1    1    2    0    0  0.10422685012E+03 -0.10420404120E+03 -0.29796165002E+03  0.35514484844E+03  0.12500000000E+03 0.  0.
         25    1    1    2    0    0 -0.15184935522E+03  0.95345487594E+02 -0.32220933533E+03  0.38934925769E+03  0.12500000000E+03 0.  0.
         25    1    1    2    0    0  0.47622505097E+02  0.88585536065E+01 -0.15070836404E+03  0.20170371329E+03  0.12500000000E+03 0.  0.
</event>
<event>
 5    0  0.5742667E-005  0.3140689E+03  0.7546771E-02  0.1078412E+00
         21   -1    0    0  502  501  0.00000000000E+00  0.00000000000E+00  0.13971204740E+03  0.13971204740E+03  0.00000000000E+00 0.  1.
         21   -1    0    0  501  502 -0.00000000000E+00 -0.00000000000E+00 -0.70601853028E+03  0.70601853028E+03  0.00000000000E+00 0.  1.
         25    1    1    2    0    0 -0.13817337883E+03  0.18783421623E+03 -0.20055041097E+03  0.33199253417E+03  0.12500000000E+03 0.  0.
         25    1    1    2    0    0  0.90575526228E+02 -0.12972918006E+03 -0.14187678581E+03  0.24655143167E+03  0.12500000000E+03 0.  0.
         25    1    1    2    0    0  0.47597852605E+02 -0.58105036171E+02 -0.22387928610E+03  0.26718661184E+03  0.12500000000E+03 0.  0.
</event>
<event>
 5    0  0.5742667E-005  0.3339325E+03  0.7546771E-02  0.1069410E+00
         21   -1    0    0  502  501  0.00000000000E+00  0.00000000000E+00  0.92330092758E+03  0.92330092758E+03  0.00000000000E+00 0. -1.
         21   -1    0    0  501  502 -0.00000000000E+00 -0.00000000000E+00 -0.12077417812E+03  0.12077417812E+03  0.00000000000E+00 0. -1.
         25    1    1    2    0    0 -0.74991003309E+02  0.74725286771E+02  0.15185353057E+02  0.16450870496E+03  0.12500000000E+03 0.  0.
         25    1    1    2    0    0 -0.77466270953E+02 -0.33961887784E+02  0.53975743940E+03  0.56046188661E+03  0.12500000000E+03 0.  0.
         25    1    1    2    0    0  0.15245727426E+03 -0.40763398987E+02  0.24758395700E+03  0.31910451413E+03  0.12500000000E+03 0.  0.
</event>
<event>
 5    0  0.5742667E-005  0.2528513E+03  0.7546771E-02  0.1111516E+00
         21   -1    0    0  502  501  0.00000000000E+00  0.00000000000E+00  0.35886063929E+03  0.35886063929E+03  0.00000000000E+00 0. -1.
         21   -1    0    0  501  502 -0.00000000000E+00 -0.00000000000E+00 -0.17815763210E+03  0.17815763210E+03  0.00000000000E+00 0. -1.
         25    1    1    2    0    0 -0.20038040513E+02 -0.28719430753E+02  0.10055003006E+03  0.16419999183E+03  0.12500000000E+03 0.  0.
         25    1    1    2    0    0 -0.10145920906E+03  0.58439544692E+02  0.94129061446E+02  0.19543395737E+03  0.12500000000E+03 0.  0.
         25    1    1    2    0    0  0.12149724957E+03 -0.29720113939E+02 -0.13976084321E+02  0.17738432219E+03  0.12500000000E+03 0.  0.
</event>
<event>
 5    0  0.5742667E-005  0.4347726E+03  0.7546771E-02  0.1032363E+00
         21   -1    0    0  502  501  0.00000000000E+00  0.00000000000E+00  0.16578136370E+03  0.16578136370E+03  0.00000000000E+00 0.  1.
         21   -1    0    0  501  502 -0.00000000000E+00 -0.00000000000E+00 -0.11402199259E+04  0.11402199259E+04  0.00000000000E+00 0.  1.
         25    1    1    2    0    0  0.24269891735E+02 -0.15618995409E+03 -0.28206371055E+03  0.34665439015E+03  0.12500000000E+03 0.  0.
         25    1    1    2    0    0 -0.95491294271E+02  0.73141009957E+02  0.64031970044E+02  0.18491427151E+03  0.12500000000E+03 0.  0.
         25    1    1    2    0    0  0.71221402536E+02  0.83048944132E+02 -0.75640682169E+03  0.77443262793E+03  0.12500000000E+03 0.  0.
</event>
<event>
 5    0  0.5742667E-005  0.2400504E+03  0.7546771E-02  0.1119759E+00
         21   -1    0    0  502  501  0.00000000000E+00  0.00000000000E+00  0.34052638080E+03  0.34052638080E+03  0.00000000000E+00 0. -1.
         21   -1    0    0  501  502 -0.00000000000E+00 -0.00000000000E+00 -0.16922099133E+03  0.16922099133E+03  0.00000000000E+00 0. -1.
         25    1    1    2    0    0 -0.55598621970E+02 -0.60857117801E+02  0.10748455098E+03  0.18431691255E+03  0.12500000000E+03 0.  0.
         25    1    1    2    0    0  0.85041165284E+02  0.10558503130E+02 -0.35271388087E+02  0.15560383221E+03  0.12500000000E+03 0.  0.
         25    1    1    2    0    0 -0.29442543313E+02  0.50298614672E+02  0.99092226583E+02  0.16982662737E+03  0.12500000000E+03 0.  0.
</event>
<event>
 5    0  0.5742667E-005  0.4540167E+03  0.7546771E-02  0.1026531E+00
         21   -1    0    0  502  501  0.00000000000E+00  0.00000000000E+00  0.10812364410E+04  0.10812364410E+04  0.00000000000E+00 0.  1.
         21   -1    0    0  501  502 -0.00000000000E+00 -0.00000000000E+00 -0.19064395990E+03  0.19064395990E+03  0.00000000000E+00 0.  1.
         25    1    1    2    0    0 -0.22534026405E+03  0.54790743202E+02  0.23626640214E+03  0.35387437449E+03  0.12500000000E+03 0.  0.
         25    1    1    2    0    0  0.31993187068E+01  0.18753662494E+02 -0.71472591886E+02  0.14524209751E+03  0.12500000000E+03 0.  0.
         25    1    1    2    0    0  0.22214094534E+03 -0.73544405697E+02  0.72579867089E+03  0.77276392894E+03  0.12500000000E+03 0.  0.
</event>
<event>
 5    0  0.5742667E-005  0.3777821E+03  0.7546771E-02  0.1051757E+00
         21   -1    0    0  502  501  0.00000000000E+00  0.00000000000E+00  0.69562822744E+03  0.69562822744E+03  0.00000000000E+00 0.  1.
         21   -1    0    0  501  502 -0.00000000000E+00 -0.00000000000E+00 -0.20516611284E+03  0.20516611284E+03  0.00000000000E+00 0.  1.
         25    1    1    2    0    0  0.73744869195E+02  0.18494409243E+03  0.50137551174E+02  0.24037761355E+03  0.12500000000E+03 0.  0.
         25    1    1    2    0    0  0.10989975670E+03 -0.16802203537E+03  0.10722140816E+03  0.25967439470E+03  0.12500000000E+03 0.  0.
         25    1    1    2    0    0 -0.18364462590E+03 -0.16922057053E+02  0.33310315527E+03  0.40074233204E+03  0.12500000000E+03 0.  0.
</event>
<event>
 5    0  0.5742667E-005  0.7330752E+03  0.7546771E-02  0.9662283E-01
         21   -1    0    0  502  501  0.00000000000E+00  0.00000000000E+00  0.30723532216E+03  0.30723532216E+03  0.00000000000E+00 0.  1.
         21   -1    0    0  501  502 -0.00000000000E+00 -0.00000000000E+00 -0.17491453155E+04  0.17491453155E+04  0.00000000000E+00 0.  1.
         25    1    1    2    0    0 -0.63207014435E+03 -0.11254563969E+03 -0.43632591834E+03  0.78624709564E+03  0.12500000000E+03 0.  0.
         25    1    1    2    0    0  0.40437361565E+03  0.11461123179E+03 -0.33753926794E+03  0.55336381602E+03  0.12500000000E+03 0.  0.
         25    1    1    2    0    0  0.22769652870E+03 -0.20655921065E+01 -0.66804480708E+03  0.71676972601E+03  0.12500000000E+03 0.  0.
</event>
<event>
 5    0  0.5984927E-005  0.3050086E+03  0.7546771E-02  0.1082763E+00
         21   -1    0    0  502  501  0.00000000000E+00  0.00000000000E+00  0.54810424969E+03  0.54810424969E+03  0.00000000000E+00 0. -1.
         21   -1    0    0  501  502 -0.00000000000E+00 -0.00000000000E+00 -0.16973094791E+03  0.16973094791E+03  0.00000000000E+00 0. -1.
         25    1    1    2    0    0 -0.14378166017E+03  0.89610122131E+02  0.31112617247E+02  0.21282888606E+03  0.12500000000E+03 0.  0.
         25    1    1    2    0    0 -0.22558703546E+02 -0.94844358626E+02  0.14932829241E+03  0.21778036271E+03  0.12500000000E+03 0.  0.
         25    1    1    2    0    0  0.16634036372E+03  0.52342364956E+01  0.19793239212E+03  0.28722594883E+03  0.12500000000E+03 0.  0.
</event>
<event>
 5    0  0.5742667E-005  0.2463579E+03  0.7546771E-02  0.1115628E+00
         21   -1    0    0  502  501  0.00000000000E+00  0.00000000000E+00  0.13699931161E+03  0.13699931161E+03  0.00000000000E+00 0.  1.
         21   -1    0    0  501  502 -0.00000000000E+00 -0.00000000000E+00 -0.44301096732E+03  0.44301096732E+03  0.00000000000E+00 0.  1.
         25    1    1    2    0    0  0.72205624266E+02 -0.12668056346E+02 -0.51291377644E+02  0.15372032152E+03  0.12500000000E+03 0.  0.
         25    1    1    2    0    0 -0.14534431766E+03 -0.21763581806E+01 -0.17855582324E+03  0.26198642947E+03  0.12500000000E+03 0.  0.
         25    1    1    2    0    0  0.73138693398E+02  0.14844414526E+02 -0.76164454820E+02  0.16430352794E+03  0.12500000000E+03 0.  0.
</event>
<event>
 5    0  0.5742667E-005  0.2372161E+03  0.7546771E-02  0.1121661E+00
         21   -1    0    0  502  501  0.00000000000E+00  0.00000000000E+00  0.25734484858E+03  0.25734484858E+03  0.00000000000E+00 0.  1.
         21   -1    0    0  501  502 -0.00000000000E+00 -0.00000000000E+00 -0.21866170716E+03  0.21866170716E+03  0.00000000000E+00 0.  1.
         25    1    1    2    0    0  0.34892852640E+02 -0.28978792975E+02  0.64121075990E+02  0.14762721292E+03  0.12500000000E+03 0.  0.
         25    1    1    2    0    0 -0.30763901489E+02 -0.11321673281E+02  0.86714192844E+02  0.15562438485E+03  0.12500000000E+03 0.  0.
         25    1    1    2    0    0 -0.41289511506E+01  0.40300466256E+02 -0.11215212742E+03  0.17275495797E+03  0.12500000000E+03 0.  0.
</event>
<event>
 5    0  0.5742667E-005  0.3148339E+03  0.7546771E-02  0.1078052E+00
         21   -1    0    0  502  501  0.00000000000E+00  0.00000000000E+00  0.56628981400E+03  0.56628981400E+03  0.00000000000E+00 0.  1.
         21   -1    0    0  501  502 -0.00000000000E+00 -0.00000000000E+00 -0.17503468068E+03  0.17503468068E+03  0.00000000000E+00 0.  1.
         25    1    1    2    0    0  0.21519735465E+03 -0.53418030039E+02  0.21525383120E+03  0.33335056506E+03  0.12500000000E+03 0.  0.
         25    1    1    2    0    0 -0.20072113425E+03  0.33021926870E+02  0.95142415158E+02  0.25701459210E+03  0.12500000000E+03 0.  0.
         25    1    1    2    0    0 -0.14476220398E+02  0.20396103169E+02  0.80858886968E+02  0.15095933752E+03  0.12500000000E+03 0.  0.
</event>
<event>
 5    0  0.5742667E-005  0.2682466E+03  0.7546771E-02  0.1102287E+00
         21   -1    0    0  502  501  0.00000000000E+00  0.00000000000E+00  0.16575248825E+03  0.16575248825E+03  0.00000000000E+00 0. -1.
         21   -1    0    0  501  502 -0.00000000000E+00 -0.00000000000E+00 -0.43411875010E+03  0.43411875010E+03  0.00000000000E+00 0. -1.
         25    1    1    2    0    0  0.75185253546E+02  0.13415672377E+02 -0.54024586524E+01  0.14658440973E+03  0.12500000000E+03 0.  0.
         25    1    1    2    0    0 -0.11326620894E+03  0.23053602774E+02 -0.15348697829E+02  0.17094234471E+03  0.12500000000E+03 0.  0.
         25    1    1    2    0    0  0.38080955394E+02 -0.36469275151E+02 -0.24761510537E+03  0.28234448392E+03  0.12500000000E+03 0.  0.
</event>
<event>
 5    0  0.5742667E-005  0.3468374E+03  0.7546771E-02  0.1063921E+00
         21   -1    0    0  502  501  0.00000000000E+00  0.00000000000E+00  0.15576888853E+04  0.15576888853E+04  0.00000000000E+00 0. -1.
         21   -1    0    0  501  502 -0.00000000000E+00 -0.00000000000E+00 -0.77227331251E+02  0.77227331251E+02  0.00000000000E+00 0. -1.
         25    1    1    2    0    0 -0.23126659697E+03 -0.24019875874E+02  0.50041395082E+03  0.56577408520E+03  0.12500000000E+03 0.  0.
         25    1    1    2    0    0  0.14925456410E+03 -0.11123366565E+03  0.47180061968E+03  0.52237024993E+03  0.12500000000E+03 0.  0.
         25    1    1    2    0    0  0.82012032870E+02  0.13525354152E+03  0.50824698355E+03  0.54677188143E+03  0.12500000000E+03 0.  0.
</event>
<event>
 5    0  0.5742667E-005  0.4974476E+03  0.7546771E-02  0.1014447E+00
         21   -1    0    0  502  501  0.00000000000E+00  0.00000000000E+00  0.19164318045E+03  0.19164318045E+03  0.00000000000E+00 0. -1.
         21   -1    0    0  501  502 -0.00000000000E+00 -0.00000000000E+00 -0.12912231439E+04  0.12912231439E+04  0.00000000000E+00 0. -1.
         25    1    1    2    0    0  0.17416356556E+03  0.16264624443E+03 -0.26088201546E+02  0.27035595547E+03  0.12500000000E+03 0.  0.
         25    1    1    2    0    0 -0.21577820822E+03 -0.26509886951E+03 -0.52225720506E+03  0.63656518440E+03  0.12500000000E+03 0.  0.
         25    1    1    2    0    0  0.41614642663E+02  0.10245262508E+03 -0.55123455684E+03  0.57594518448E+03  0.12500000000E+03 0.  0.
</event>
<event>
 5    0  0.5742667E-005  0.2730600E+03  0.7546771E-02  0.1099541E+00
         21   -1    0    0  502  501  0.00000000000E+00  0.00000000000E+00  0.22744717032E+03  0.22744717032E+03  0.00000000000E+00 0.  1.
         21   -1    0    0  501  502 -0.00000000000E+00 -0.00000000000E+00 -0.32782012634E+03  0.32782012634E+03  0.00000000000E+00 0.  1.
         25    1    1    2    0    0  0.79021616172E+02 -0.70910323253E+02 -0.85426003519E+01  0.16422748183E+03  0.12500000000E+03 0.  0.
         25    1    1    2    0    0  0.26160490220E+02  0.14675859222E+03 -0.80586961644E+02  0.21057472314E+03  0.12500000000E+03 0.  0.
         25    1    1    2    0    0 -0.10518210639E+03 -0.75848268966E+02 -0.11243394019E+02  0.18046509169E+03  0.12500000000E+03 0.  0.
</event>
<event>
 5    0  0.5742667E-005  0.3995877E+03  0.7546771E-02  0.1043923E+00
         21   -1    0    0  502  501  0.00000000000E+00  0.00000000000E+00  0.37513107857E+03  0.37513107857E+03  0.00000000000E+00 0. -1.
         21   -1    0    0  501  502 -0.00000000000E+00 -0.00000000000E+00 -0.42563873189E+03  0.42563873189E+03  0.00000000000E+00 0. -1.
         25    1    1    2    0    0  0.12538022247E+03 -0.21005390979E+03 -0.11977865588E+02  0.27497511609E+03  0.12500000000E+03 0.  0.
         25    1    1    2    0    0 -0.59142413716E+02 -0.10417302095E+03  0.26384135089E+02  0.17513128213E+03  0.12500000000E+03 0.  0.
         25    1    1    2    0    0 -0.66237808753E+02  0.31422693074E+03 -0.64913922826E+02  0.35066341225E+03  0.12500000000E+03 0.  0.
</event>
<event>
 5    0  0.5742667E-005  0.2295082E+03  0.7546771E-02  0.1126986E+00
         21   -1    0    0  502  501  0.00000000000E+00  0.00000000000E+00  0.47027477901E+03  0.47027477901E+03  0.00000000000E+00 0. -1.
         21   -1    0    0  501  502 -0.00000000000E+00 -0.00000000000E+00 -0.11200689841E+03  0.11200689841E+03  0.00000000000E+00 0. -1.
         25    1    1    2    0    0 -0.36715068504E+01 -0.48810767203E+02  0.59408403647E+01  0.13437360061E+03  0.12500000000E+03 0.  0.
         25    1    1    2    0    0  0.52155236789E+01 -0.25018750980E+02  0.20200310521E+03  0.23892131362E+03  0.12500000000E+03 0.  0.
         25    1    1    2    0    0 -0.15440168285E+01  0.73829518184E+02  0.15032393504E+03  0.20898676319E+03  0.12500000000E+03 0.  0.
</event>
<event>
 5    0  0.5742667E-005  0.3645891E+03  0.7546771E-02  0.1056781E+00
         21   -1    0    0  502  501  0.00000000000E+00  0.00000000000E+00  0.29798559172E+03  0.29798559172E+03  0.00000000000E+00 0.  1.
         21   -1    0    0  501  502 -0.00000000000E+00 -0.00000000000E+00 -0.44607923246E+03  0.44607923246E+03  0.00000000000E+00 0.  1.
         25    1    1    2    0    0  0.40395000152E+01 -0.42555762965E+02  0.69695171010E+02  0.14936441137E+03  0.12500000000E+03 0.  0.
         25    1    1    2    0    0 -0.18404725051E+03  0.12434512976E+03  0.26780079761E+02  0.25627577800E+03  0.12500000000E+03 0.  0.
         25    1    1    2    0    0  0.18000775050E+03 -0.81789366793E+02 -0.24456889151E+03  0.33842463482E+03  0.12500000000E+03 0.  0.
</event>
<event>
 5    0  0.6289972E-005  0.3221511E+03  0.7546771E-02  0.1074664E+00
         21   -1    0    0  502  501  0.00000000000E+00  0.00000000000E+00  0.19676183058E+03  0.19676183058E+03  0.00000000000E+00 0.  1.
         21   -1    0    0  501  502 -0.00000000000E+00 -0.00000000000E+00 -0.52744642915E+03  0.52744642915E+03  0.00000000000E+00 0.  1.
         25    1    1    2    0    0 -0.32788577443E+02  0.14764978186E+03 -0.83206799584E+02  0.21312888211E+03  0.12500000000E+03 0.  0.
         25    1    1    2    0    0  0.79001434936E+02 -0.15895000948E+03  0.13824096589E+02  0.21753721034E+03  0.12500000000E+03 0.  0.
         25    1    1    2    0    0 -0.46212857493E+02  0.11300227617E+02 -0.26130189557E+03  0.29354216728E+03  0.12500000000E+03 0.  0.
</event>
<event>
 5    0  0.5742667E-005  0.3032100E+03  0.7546771E-02  0.1083647E+00
         21   -1    0    0  502  501  0.00000000000E+00  0.00000000000E+00  0.47743348717E+02  0.47743348717E+02  0.00000000000E+00 0.  1.
         21   -1    0    0  501  502 -0.00000000000E+00 -0.00000000000E+00 -0.19256352795E+04  0.19256352795E+04  0.00000000000E+00 0.  1.
         25    1    1    2    0    0 -0.17924222808E+03  0.66072382489E+02 -0.84640503107E+03  0.87665261802E+03  0.12500000000E+03 0.  0.
         25    1    1    2    0    0  0.59342690713E+02 -0.43182736026E+01 -0.18826066684E+03  0.23368200852E+03  0.12500000000E+03 0.  0.
         25    1    1    2    0    0  0.11989953737E+03 -0.61754108886E+02 -0.84322623290E+03  0.86304400171E+03  0.12500000000E+03 0.  0.
</event>
<event>
 5    0  0.5742667E-005  0.4041599E+03  0.7546771E-02  0.1042349E+00
         21   -1    0    0  502  501  0.00000000000E+00  0.00000000000E+00  0.74327624074E+03  0.74327624074E+03  0.00000000000E+00 0. -1.
         21   -1    0    0  501  502 -0.00000000000E+00 -0.00000000000E+00 -0.21976381455E+03  0.21976381455E+03  0.00000000000E+00 0. -1.
         25    1    1    2    0    0  0.13092313997E+03 -0.51196829556E+02 -0.14315509559E+03  0.23639028180E+03  0.12500000000E+03 0.  0.
         25    1    1    2    0    0 -0.76130967171E+02  0.26792168414E+02  0.30616598262E+03  0.34040615941E+03  0.12500000000E+03 0.  0.
         25    1    1    2    0    0 -0.54792172799E+02  0.24404661141E+02  0.36050153916E+03  0.38624361409E+03  0.12500000000E+03 0.  0.
</event>
<event>
 5    0  0.5742667E-005  0.2833447E+03  0.7546771E-02  0.1093876E+00
         21   -1    0    0  502  501  0.00000000000E+00  0.00000000000E+00  0.26847622271E+03  0.26847622271E+03  0.00000000000E+00 0.  1.
         21   -1    0    0  501  502 -0.00000000000E+00 -0.00000000000E+00 -0.29903658906E+03  0.29903658906E+03  0.00000000000E+00 0.  1.
         25    1    1    2    0    0  0.95210208531E+02  0.88724669320E+02  0.86418313173E+02  0.20007542479E+03  0.12500000000E+03 0.  0.
         25    1    1    2    0    0 -0.11484170404E+03 -0.13150107122E+03 -0.74399007499E+02  0.22724735650E+03  0.12500000000E+03 0.  0.
         25    1    1    2    0    0  0.19631495505E+02  0.42776401897E+02 -0.42579672024E+02  0.14019003048E+03  0.12500000000E+03 0.  0.
</event>
<event>
 5    0  0.5742667E-005  0.3141538E+03  0.7546771E-02  0.1078372E+00
         21   -1    0    0  502  501  0.00000000000E+00  0.00000000000E+00  0.24225311792E+03  0.24225311792E+03  0.00000000000E+00 0. -1.
         21   -1    0    0  501  502 -0.00000000000E+00 -0.00000000000E+00 -0.40739463572E+03  0.40739463572E+03  0.00000000000E+00 0. -1.
         25    1    1    2    0    0 -0.26792222885E+02 -0.96307816680E+02 -0.20697242132E+03  0.26164021470E+03  0.12500000000E+03 0.  0.
         25    1    1    2    0    0  0.50486075712E+02 -0.25214055272E+02  0.13196387740E+03  0.19032618675E+03  0.12500000000E+03 0.  0.
         25    1    1    2    0    0 -0.23693852827E+02  0.12152187195E+03 -0.90132973885E+02  0.19768135220E+03  0.12500000000E+03 0.  0.
</event>
<event>
 5    0  0.5742667E-005  0.3854763E+03  0.7546771E-02  0.1048928E+00
         21   -1    0    0  502  501  0.00000000000E+00  0.00000000000E+00  0.34894818262E+03  0.34894818262E+03  0.00000000000E+00 0.  1.
         21   -1    0    0  501  502 -0.00000000000E+00 -0.00000000000E+00 -0.42582819621E+03  0.42582819621E+03  0.00000000000E+00 0.  1.
         25    1    1    2    0    0 -0.17872687313E+02  0.20068444791E+03  0.16442134081E+02  0.23767419792E+03  0.12500000000E+03 0.  0.
         25    1    1    2    0    0 -0.17335223598E+03 -0.16234015401E+03 -0.13706248143E+03  0.30135767310E+03  0.12500000000E+03 0.  0.
         25    1    1    2    0    0  0.19122492329E+03 -0.38344293907E+02  0.43740333753E+02  0.23574450781E+03  0.12500000000E+03 0.  0.
</event>
<event>
 5    0  0.5742667E-005  0.4430624E+03  0.7546771E-02  0.1029811E+00
         21   -1    0    0  502  501  0.00000000000E+00  0.00000000000E+00  0.15767591397E+03  0.15767591397E+03  0.00000000000E+00 0.  1.
         21   -1    0    0  501  502 -0.00000000000E+00 -0.00000000000E+00 -0.12449857402E+04  0.12449857402E+04  0.00000000000E+00 0.  1.
         25    1    1    2    0    0  0.38271560204E+02 -0.53280927454E+02 -0.92586329972E+03  0.93656362268E+03  0.12500000000E+03 0.  0.
         25    1    1    2    0    0  0.40945204472E+02  0.18051639796E+03 -0.15303313556E+03  0.27075232276E+03  0.12500000000E+03 0.  0.
         25    1    1    2    0    0 -0.79216764676E+02 -0.12723547051E+03 -0.84133909125E+01  0.19534570870E+03  0.12500000000E+03 0.  0.
</event>
<event>
 5    0  0.5742667E-005  0.2571186E+03  0.7546771E-02  0.1108887E+00
         21   -1    0    0  502  501  0.00000000000E+00  0.00000000000E+00  0.11285410625E+03  0.11285410625E+03  0.00000000000E+00 0. -1.
         21   -1    0    0  501  502 -0.00000000000E+00 -0.00000000000E+00 -0.58580017642E+03  0.58580017642E+03  0.00000000000E+00 0. -1.
         25    1    1    2    0    0 -0.17473626860E+02 -0.10585960394E+03 -0.49212286755E+02  0.17192565995E+03  0.12500000000E+03 0.  0.
         25    1    1    2    0    0  0.77937000816E+02  0.18134245804E+02 -0.19142375234E+03  0.24222113848E+03  0.12500000000E+03 0.  0.
         25    1    1    2    0    0 -0.60463373957E+02  0.87725358131E+02 -0.23231003108E+03  0.28450748424E+03  0.12500000000E+03 0.  0.
</event>
<event>
 5    0  0.5742667E-005  0.3202976E+03  0.7546771E-02  0.1075512E+00
         21   -1    0    0  502  501  0.00000000000E+00  0.00000000000E+00  0.34040295763E+03  0.34040295763E+03  0.00000000000E+00 0.  1.
         21   -1    0    0  501  502 -0.00000000000E+00 -0.00000000000E+00 -0.30137973254E+03  0.30137973254E+03  0.00000000000E+00 0.  1.
         25    1    1    2    0    0  0.93661355569E+02  0.17797152288E+03 -0.63804880777E+02  0.24523942443E+03  0.12500000000E+03 0.  0.
         25    1    1    2    0    0 -0.12813315567E+03 -0.17675010367E+03  0.85623658657E+02  0.26573504784E+03  0.12500000000E+03 0.  0.
         25    1    1    2    0    0  0.34471800097E+02 -0.12214192141E+01  0.17204447201E+02  0.13080821790E+03  0.12500000000E+03 0.  0.
</event>
<event>
 5    0  0.5742667E-005  0.4958956E+03  0.7546771E-02  0.1014856E+00
         21   -1    0    0  502  501  0.00000000000E+00  0.00000000000E+00  0.12902042622E+03  0.12902042622E+03  0.00000000000E+00 0. -1.
         21   -1    0    0  501  502 -0.00000000000E+00 -0.00000000000E+00 -0.19059964006E+04  0.19059964006E+04  0.00000000000E+00 0. -1.
         25    1    1    2    0    0 -0.67479250379E+02 -0.48607885599E+02 -0.34914548914E+03  0.38005755927E+03  0.12500000000E+03 0.  0.
         25    1    1    2    0    0 -0.13120214262E+03 -0.30052666115E+03 -0.34006495651E+03  0.48867110712E+03  0.12500000000E+03 0.  0.
         25    1    1    2    0    0  0.19868139300E+03  0.34913454675E+03 -0.10877655288E+04  0.11662881605E+04  0.12500000000E+03 0.  0.
</event>
<event>
 5    0  0.5742667E-005  0.3857148E+03  0.7546771E-02  0.1048842E+00
         21   -1    0    0  502  501  0.00000000000E+00  0.00000000000E+00  0.42642909048E+03  0.42642909048E+03  0.00000000000E+00 0.  1.
         21   -1    0    0  501  502 -0.00000000000E+00 -0.00000000000E+00 -0.34888778688E+03  0.34888778688E+03  0.00000000000E+00 0.  1.
         25    1    1    2    0    0  0.86116391764E+00 -0.27146072388E+02 -0.22430075985E+03  0.25821208670E+03  0.12500000000E+03 0.  0.
         25    1    1    2    0    0  0.13223560061E+03  0.11658243041E+03  0.16734703377E+03  0.27332717915E+03  0.12500000000E+03 0.  0.
         25    1    1    2    0    0 -0.13309676453E+03 -0.89436358021E+02  0.13449502968E+03  0.24377761151E+03  0.12500000000E+03 0.  0.
</event>
<event>
 5    0  0.6725438E-005  0.4735841E+03  0.7546771E-02  0.1020913E+00
         21   -1    0    0  502  501  0.00000000000E+00  0.00000000000E+00  0.26886584950E+03  0.26886584950E+03  0.00000000000E+00 0.  1.
         21   -1    0    0  501  502 -0.00000000000E+00 -0.00000000000E+00 -0.83417780417E+03  0.83417780417E+03  0.00000000000E+00 0.  1.
         25    1    1    2    0    0  0.21070220871E+03 -0.11193495855E+03 -0.45140967244E+03  0.52566200935E+03  0.12500000000E+03 0.  0.
         25    1    1    2    0    0 -0.16271704595E+03  0.24590947729E+03 -0.19097798153E+03  0.37288858590E+03  0.12500000000E+03 0.  0.
         25    1    1    2    0    0 -0.47985162755E+02 -0.13397451874E+03  0.77075699301E+02  0.20449305841E+03  0.12500000000E+03 0.  0.
</event>
<event>
 5    0  0.5742667E-005  0.3994506E+03  0.7546771E-02  0.1043970E+00
         21   -1    0    0  502  501  0.00000000000E+00  0.00000000000E+00  0.20183096324E+04  0.20183096324E+04  0.00000000000E+00 0.  1.
         21   -1    0    0  501  502 -0.00000000000E+00 -0.00000000000E+00 -0.79056648598E+02  0.79056648598E+02  0.00000000000E+00 0.  1.
         25    1    1    2    0    0 -0.92006378449E+02  0.14551997586E+03  0.25083730263E+03  0.32891577865E+03  0.12500000000E+03 0.  0.
         25    1    1    2    0    0  0.90797636741E+02 -0.15300261690E+03  0.16010733109E+04  0.16157706392E+04  0.12500000000E+03 0.  0.
         25    1    1    2    0    0  0.12087417080E+01  0.74826410380E+01  0.87342370300E+02  0.15267986319E+03  0.12500000000E+03 0.  0.
</event>
<event>
 5    0  0.5742667E-005  0.3012230E+03  0.7546771E-02  0.1084631E+00
         21   -1    0    0  502  501  0.00000000000E+00  0.00000000000E+00  0.24029386699E+03  0.24029386699E+03  0.00000000000E+00 0. -1.
         21   -1    0    0  501  502 -0.00000000000E+00 -0.00000000000E+00 -0.37760143124E+03  0.37760143124E+03  0.00000000000E+00 0. -1.
         25    1    1    2    0    0 -0.28329249312E+01  0.80111157315E+02 -0.95744016246E+02  0.17668542565E+03  0.12500000000E+03 0.  0.
         25    1    1    2    0    0 -0.29950659746E+02 -0.13416973271E+03  0.12472403805E+03  0.22378481821E+03  0.12500000000E+03 0.  0.
         25    1    1    2    0    0  0.32783584678E+02  0.54058575393E+02 -0.16628758604E+03  0.21742505438E+03  0.12500000000E+03 0.  0.
</event>
<event>
 5    0  0.5742667E-005  0.3269473E+03  0.7546771E-02  0.1072496E+00
         21   -1    0    0  502  501  0.00000000000E+00  0.00000000000E+00  0.50255187572E+03  0.50255187572E+03  0.00000000000E+00 0. -1.
         21   -1    0    0  501  502 -0.00000000000E+00 -0.00000000000E+00 -0.21270344896E+03  0.21270344896E+03  0.00000000000E+00 0. -1.
         25    1    1    2    0    0 -0.12210058706E+03  0.14213447982E+03  0.23531675952E+03  0.32574490176E+03  0.12500000000E+03 0.  0.
         25    1    1    2    0    0  0.60357677766E+00  0.41763565700E+02  0.28028302568E+02  0.13474103113E+03  0.12500000000E+03 0.  0.
         25    1    1    2    0    0  0.12149701028E+03 -0.18389804552E+03  0.26503364675E+02  0.25476939179E+03  0.12500000000E+03 0.  0.
</event>
<event>
 5    0  0.5742667E-005  0.4598161E+03  0.7546771E-02  0.1024835E+00
         21   -1    0    0  502  501  0.00000000000E+00  0.00000000000E+00  0.27524100616E+04  0.27524100616E+04  0.00000000000E+00 0. -1.
         21   -1    0    0  501  502 -0.00000000000E+00 -0.00000000000E+00 -0.76816610365E+02  0.76816610365E+02  0.00000000000E+00 0. -1.
         25    1    1    2    0    0  0.11948582260E+02 -0.12027780203E+03  0.59162908197E+03  0.61665183767E+03  0.12500000000E+03 0.  0.
         25    1    1    2    0    0  0.18400187290E+03  0.28272981600E+03  0.16857712637E+04  0.17237292686E+04  0.12500000000E+03 0.  0.
         25    1    1    2    0    0 -0.19595045516E+03 -0.16245201397E+03  0.39819310555E+03  0.48884556562E+03  0.12500000000E+03 0.  0.
</event>
<event>
 5    0  0.5742667E-005  0.3822949E+03  0.7546771E-02  0.1050089E+00
         21   -1    0    0  502  501  0.00000000000E+00  0.00000000000E+00  0.26780553063E+04  0.26780553063E+04  0.00000000000E+00 0.  1.
         21   -1    0    0  501  502 -0.00000000000E+00 -0.00000000000E+00 -0.54572945824E+02  0.54572945824E+02  0.00000000000E+00 0.  1.
         25    1    1    2    0    0 -0.13731618916E+03  0.85151892706E+02  0.28515294058E+03  0.35077596862E+03  0.12500000000E+03 0.  0.
         25    1    1    2    0    0 -0.15186291174E+02 -0.31467121104E+02  0.23368873048E+03  0.26731297369E+03  0.12500000000E+03 0.  0.
         25    1    1    2    0    0  0.15250248034E+03 -0.53684771602E+02  0.21046406894E+04  0.21145393098E+04  0.12500000000E+03 0.  0.
</event>
<event>
 5    0  0.5742667E-005  0.3354571E+03  0.7546771E-02  0.1068747E+00
         21   -1    0    0  502  501  0.00000000000E+00  0.00000000000E+00  0.32768342133E+03  0.32768342133E+03  0.00000000000E+00 0.  1.
         21   -1    0    0  501  502 -0.00000000000E+00 -0.00000000000E+00 -0.34341524672E+03  0.34341524672E+03  0.00000000000E+00 0.  1.
         25    1    1    2    0    0 -0.25415846880E+03 -0.61420887107E+02  0.35433550181E+02  0.29197532279E+03  0.12500000000E+03 0.  0.
         25    1    1    2    0    0  0.18750067878E+03  0.58823884692E+02 -0.17907069761E+02  0.23358599508E+03  0.12500000000E+03 0.  0.
         25    1    1    2    0    0  0.66657790027E+02  0.25970024145E+01 -0.33258305803E+02  0.14553735018E+03  0.12500000000E+03 0.  0.
</event>
<event>
 5    0  0.5742667E-005  0.2345854E+03  0.7546771E-02  0.1123453E+00
         21   -1    0    0  502  501  0.00000000000E+00  0.00000000000E+00  0.47473138959E+02  0.47473138959E+02  0.00000000000E+00 0.  1.
         21   -1    0    0  501  502 -0.00000000000E+00 -0.00000000000E+00 -0.11591883097E+04  0.11591883097E+04  0.00000000000E+00 0.  1.
         25    1    1    2    0    0 -0.90147260900E+02  0.76861525193E+02 -0.33582148210E+03  0.37740600226E+03  0.12500000000E+03 0.  0.
         25    1    1    2    0    0 -0.51618135500E+01 -0.34229738121E+02 -0.33363425005E+03  0.35795967943E+03  0.12500000000E+03 0.  0.
         25    1    1    2    0    0  0.95309074450E+02 -0.42631787072E+02 -0.44225943864E+03  0.47129576702E+03  0.12500000000E+03 0.  0.
</event>
<event>
 5    0  0.5742667E-005  0.2305020E+03  0.7546771E-02  0.1126287E+00
         21   -1    0    0  502  501  0.00000000000E+00  0.00000000000E+00  0.31982957506E+03  0.31982957506E+03  0.00000000000E+00 0. -1.
         21   -1    0    0  501  502 -0.00000000000E+00 -0.00000000000E+00 -0.16612336339E+03  0.16612336339E+03  0.00000000000E+00 0. -1.
         25    1    1    2    0    0  0.10649893358E+02  0.73175939184E+02 -0.28051876262E+02  0.14791905241E+03  0.12500000000E+03 0.  0.
         25    1    1    2    0    0  0.51037570231E+02 -0.27737021548E+02  0.77492339753E+02  0.15812728626E+03  0.12500000000E+03 0.  0.
         25    1    1    2    0    0 -0.61687463589E+02 -0.45438917636E+02  0.10426574818E+03  0.17990659978E+03  0.12500000000E+03 0.  0.
</event>
<event>
 5    0  0.5742667E-005  0.4309021E+03  0.7546771E-02  0.1033575E+00
         21   -1    0    0  502  501  0.00000000000E+00  0.00000000000E+00  0.65728154325E+03  0.65728154325E+03  0.00000000000E+00 0.  1.
         21   -1    0    0  501  502 -0.00000000000E+00 -0.00000000000E+00 -0.28249175100E+03  0.28249175100E+03  0.00000000000E+00 0.  1.
         25    1    1    2    0    0 -0.16730035339E+03 -0.98205713367E+02 -0.16842108957E+03  0.28569990163E+03  0.12500000000E+03 0.  0.
         25    1    1    2    0    0  0.14928632865E+03  0.51259488211E+02  0.44154813908E+03  0.48528723678E+03  0.12500000000E+03 0.  0.
         25    1    1    2    0    0  0.18014024734E+02  0.46946225156E+02  0.10166274274E+03  0.16878615584E+03  0.12500000000E+03 0.  0.
</event>
<event>
 5    0  0.5742667E-005  0.2863859E+03  0.7546771E-02  0.1092251E+00
         21   -1    0    0  502  501  0.00000000000E+00  0.00000000000E+00  0.63336636357E+03  0.63336636357E+03  0.00000000000E+00 0. -1.
         21   -1    0    0  501  502 -0.00000000000E+00 -0.00000000000E+00 -0.12949355596E+03  0.12949355596E+03  0.00000000000E+00 0. -1.
         25    1    1    2    0    0  0.16735403691E+03  0.60548883102E+02  0.12304994655E+03  0.24987963154E+03  0.12500000000E+03 0.  0.
         25    1    1    2    0    0 -0.11635923779E+03 -0.84154230370E+02  0.29556538077E+03  0.35157545565E+03  0.12500000000E+03 0.  0.
         25    1    1    2    0    0 -0.50994799115E+02  0.23605347268E+02  0.85257480293E+02  0.16140483234E+03  0.12500000000E+03 0.  0.
</event>
<event>
 5    0  0.5742667E-005  0.4880112E+03  0.7546771E-02  0.1016956E+00
         21   -1    0    0  502  501  0.00000000000E+00  0.00000000000E+00  0.24157427534E+03  0.24157427534E+03  0.00000000000E+00 0. -1.
         21   -1    0    0  501  502 -0.00000000000E+00 -0.00000000000E+00 -0.98584545656E+03  0.98584545656E+03  0.00000000000E+00 0. -1.
         25    1    1    2    0    0 -0.12986165917E+03  0.52412510959E+02 -0.35254306392E+03  0.39940297163E+03  0.12500000000E+03 0.  0.
         25    1    1    2    0    0  0.34169589800E+03  0.16039071563E+03 -0.27050932203E+03  0.48091741669E+03  0.12500000000E+03 0.  0.
         25    1    1    2    0    0 -0.21183423883E+03 -0.21280322659E+03 -0.12121879526E+03  0.34709934358E+03  0.12500000000E+03 0.  0.
</event>
<event>
 5    0  0.5742667E-005  0.4546256E+03  0.7546771E-02  0.1026352E+00
         21   -1    0    0  502  501  0.00000000000E+00  0.00000000000E+00  0.10233531517E+03  0.10233531517E+03  0.00000000000E+00 0.  1.
         21   -1    0    0  501  502 -0.00000000000E+00 -0.00000000000E+00 -0.20196788451E+04  0.20196788451E+04  0.00000000000E+00 0.  1.
         25    1    1    2    0    0  0.28018600759E+03 -0.58906083977E+02 -0.23761010387E+03  0.39250183062E+03  0.12500000000E+03 0.  0.
         25    1    1    2    0    0 -0.21933085511E+03  0.59799563565E+00 -0.12145593732E+04  0.12405183806E+04  0.12500000000E+03 0.  0.
         25    1    1    2    0    0 -0.60855152480E+02  0.58308088342E+02 -0.46517405287E+03  0.48899394905E+03  0.12500000000E+03 0.  0.
</event>
<event>
 5    0  0.6203045E-005  0.3512925E+03  0.7546771E-02  0.1062086E+00
         21   -1    0    0  502  501  0.00000000000E+00  0.00000000000E+00  0.54452907391E+03  0.54452907391E+03  0.00000000000E+00 0.  1.
         21   -1    0    0  501  502 -0.00000000000E+00 -0.00000000000E+00 -0.22662957597E+03  0.22662957597E+03  0.00000000000E+00 0.  1.
         25    1    1    2    0    0  0.22330606359E+03 -0.12606491913E+03  0.11883529079E+03  0.30903848985E+03  0.12500000000E+03 0.  0.
         25    1    1    2    0    0 -0.14523382879E+03 -0.21976396090E+02  0.33925841126E+02  0.19583612973E+03  0.12500000000E+03 0.  0.
         25    1    1    2    0    0 -0.78072234796E+02  0.14804131522E+03  0.16513836602E+03  0.26628403030E+03  0.12500000000E+03 0.  0.
</event>
<event>
 5    0  0.5742667E-005  0.3629226E+03  0.7546771E-02  0.1057433E+00
         21   -1    0    0  502  501  0.00000000000E+00  0.00000000000E+00  0.16131511768E+03  0.16131511768E+03  0.00000000000E+00 0. -1.
         21   -1    0    0  501  502 -0.00000000000E+00 -0.00000000000E+00 -0.81649370302E+03  0.81649370302E+03  0.00000000000E+00 0. -1.
         25    1    1    2    0    0 -0.22026530705E+03 -0.11741381843E+03 -0.73681223502E+02  0.28871566106E+03  0.12500000000E+03 0.  0.
         25    1    1    2    0    0  0.93844466131E+02  0.34844213197E+02 -0.17149638654E+03  0.23464209685E+03  0.12500000000E+03 0.  0.
         25    1    1    2    0    0  0.12642084091E+03  0.82569605236E+02 -0.41000097529E+03  0.45445106279E+03  0.12500000000E+03 0.  0.
</event>
<event>
 5    0  0.5742667E-005  0.2527972E+03  0.7546771E-02  0.1111550E+00
         21   -1    0    0  502  501  0.00000000000E+00  0.00000000000E+00  0.17387388173E+04  0.17387388173E+04  0.00000000000E+00 0.  1.
         21   -1    0    0  501  502 -0.00000000000E+00 -0.00000000000E+00 -0.36754480959E+02  0.36754480959E+02  0.00000000000E+00 0.  1.
         25    1    1    2    0    0  0.76410745896E+02 -0.92120515898E+02  0.60387276660E+03  0.62818158981E+03  0.12500000000E+03 0.  0.
         25    1    1    2    0    0  0.49129466694E+02  0.61108428480E+02  0.39815347810E+03  0.42461645829E+03  0.12500000000E+03 0.  0.
         25    1    1    2    0    0 -0.12554021259E+03  0.31012087418E+02  0.69995809167E+03  0.72269525019E+03  0.12500000000E+03 0.  0.
</event>
<event>
 5    0  0.5742667E-005  0.2498929E+03  0.7546771E-02  0.1113373E+00
         21   -1    0    0  502  501  0.00000000000E+00  0.00000000000E+00  0.63026313792E+02  0.63026313792E+02  0.00000000000E+00 0.  1.
         21   -1    0    0  501  502 -0.00000000000E+00 -0.00000000000E+00 -0.99079947613E+03  0.99079947613E+03  0.00000000000E+00 0.  1.
         25    1    1    2    0    0 -0.24443895172E+01 -0.69080293903E+02 -0.29183849691E+03  0.32491963672E+03  0.12500000000E+03 0.  0.
         25    1    1    2    0    0  0.72269012502E+02 -0.37023335625E+02 -0.15062636762E+03  0.21191234077E+03  0.12500000000E+03 0.  0.
         25    1    1    2    0    0 -0.69824622984E+02  0.10610362953E+03 -0.48530829781E+03  0.51699381244E+03  0.12500000000E+03 0.  0.
</event>
<event>
 5    0  0.5742667E-005  0.2777337E+03  0.7546771E-02  0.1096933E+00
         21   -1    0    0  502  501  0.00000000000E+00  0.00000000000E+00  0.11570180566E+04  0.11570180566E+04  0.00000000000E+00 0. -1.
         21   -1    0    0  501  502 -0.00000000000E+00 -0.00000000000E+00 -0.66667924544E+02  0.66667924544E+02  0.00000000000E+00 0. -1.
         25    1    1    2    0    0 -0.75889179402E+02  0.13902307233E+03  0.44991992423E+03  0.49309179714E+03  0.12500000000E+03 0.  0.
         25    1    1    2    0    0  0.75595294085E+02 -0.23184036345E+02  0.14687890417E+03  0.20844798037E+03  0.12500000000E+03 0.  0.
         25    1    1    2    0    0  0.29388531751E+00 -0.11583903599E+03  0.49355130364E+03  0.52214620361E+03  0.12500000000E+03 0.  0.
</event>
<event>
 5    0  0.5838541E-005  0.3075561E+03  0.7546771E-02  0.1081523E+00
         21   -1    0    0  502  501  0.00000000000E+00  0.00000000000E+00  0.95832616427E+02  0.95832616427E+02  0.00000000000E+00 0.  1.
         21   -1    0    0  501  502 -0.00000000000E+00 -0.00000000000E+00 -0.98704135018E+03  0.98704135018E+03  0.00000000000E+00 0.  1.
         25    1    1    2    0    0  0.11233234164E+03 -0.13770752347E+03 -0.46300383454E+03  0.51144840189E+03  0.12500000000E+03 0.  0.
         25    1    1    2    0    0 -0.92663440749E+02  0.73660261640E+00 -0.76606321900E+02  0.17343755185E+03  0.12500000000E+03 0.  0.
         25    1    1    2    0    0 -0.19668900889E+02  0.13697092085E+03 -0.35159857731E+03  0.39798801287E+03  0.12500000000E+03 0.  0.
</event>
<event>
 5    0  0.5742667E-005  0.2283839E+03  0.7546771E-02  0.1127782E+00
         21   -1    0    0  502  501  0.00000000000E+00  0.00000000000E+00  0.12720576227E+04  0.12720576227E+04  0.00000000000E+00 0.  1.
         21   -1    0    0  501  502 -0.00000000000E+00 -0.00000000000E+00 -0.41003813003E+02  0.41003813003E+02  0.00000000000E+00 0.  1.
         25    1    1    2    0    0  0.54144242446E+01  0.45659129182E+02  0.19411311259E+03  0.23541234579E+03  0.12500000000E+03 0.  0.
         25    1    1    2    0    0 -0.41192429486E+02 -0.79154046611E+02  0.44787016047E+03  0.47347107618E+03  0.12500000000E+03 0.  0.
         25    1    1    2    0    0  0.35778005241E+02  0.33494917429E+02  0.58907053666E+03  0.60417801376E+03  0.12500000000E+03 0.  0.
</event>
<event>
 5    0  0.5742667E-005  0.2848453E+03  0.7546771E-02  0.1093072E+00
         21   -1    0    0  502  501  0.00000000000E+00  0.00000000000E+00  0.22141856208E+03  0.22141856208E+03  0.00000000000E+00 0. -1.
         21   -1    0    0  501  502 -0.00000000000E+00 -0.00000000000E+00 -0.36644109328E+03  0.36644109328E+03  0.00000000000E+00 0. -1.
         25    1    1    2    0    0 -0.64583374603E+01 -0.26971019928E+02  0.81987843320E+02  0.15203997004E+03  0.12500000000E+03 0.  0.
         25    1    1    2    0    0  0.12020462355E+03  0.63288904263E+02 -0.56617679564E+02  0.19309375589E+03  0.12500000000E+03 0.  0.
         25    1    1    2    0    0 -0.11374628609E+03 -0.36317884335E+02 -0.17039269495E+03  0.24272592942E+03  0.12500000000E+03 0.  0.
</event>
<event>
 5    0  0.5742667E-005  0.2776223E+03  0.7546771E-02  0.1096995E+00
         21   -1    0    0  502  501  0.00000000000E+00  0.00000000000E+00  0.22377827733E+04  0.22377827733E+04  0.00000000000E+00 0.  1.
         21   -1    0    0  501  502 -0.00000000000E+00 -0.00000000000E+00 -0.34442187040E+02  0.34442187040E+02  0.00000000000E+00 0.  1.
         25    1    1    2    0    0  0.63175375169E+02  0.80308561263E+02  0.45276289659E+03  0.48068683523E+03  0.12500000000E+03 0.  0.
         25    1    1    2    0    0  0.38739182706E+02 -0.10933098269E+03  0.45985726150E+03  0.49045661277E+03  0.12500000000E+03 0.  0.
         25    1    1    2    0    0 -0.10191455787E+03  0.29022421425E+02  0.12907204282E+04  0.13010815124E+04  0.12500000000E+03 0.  0.
</event>
<event>
 5    0  0.5742667E-005  0.4150135E+03  0.7546771E-02  0.1038702E+00
         21   -1    0    0  502  501  0.00000000000E+00  0.00000000000E+00  0.39154879120E+03  0.39154879120E+03  0.00000000000E+00 0. -1.
         21   -1    0    0  501  502 -0.00000000000E+00 -0.00000000000E+00 -0.43988445528E+03  0.43988445528E+03  0.00000000000E+00 0. -1.
         25    1    1    2    0    0 -0.89681704112E+00 -0.92485359065E+02  0.24815216142E+03  0.29284610487E+03  0.12500000000E+03 0.  0.
         25    1    1    2    0    0  0.61413611308E+02  0.11920325861E+03 -0.34366391959E+03  0.38950088337E+03  0.12500000000E+03 0.  0.
         25    1    1    2    0    0 -0.60516794267E+02 -0.26717899541E+02  0.47176094093E+02  0.14908625825E+03  0.12500000000E+03 0.  0.
</event>
<event>
 5    0  0.5742667E-005  0.3019256E+03  0.7546771E-02  0.1084282E+00
         21   -1    0    0  502  501  0.00000000000E+00  0.00000000000E+00  0.71611562786E+03  0.71611562786E+03  0.00000000000E+00 0. -1.
         21   -1    0    0  501  502 -0.00000000000E+00 -0.00000000000E+00 -0.12729659717E+03  0.12729659717E+03  0.00000000000E+00 0. -1.
         25    1    1    2    0    0  0.68934212277E+02 -0.11870937367E+03  0.23109262624E+03  0.29643320145E+03  0.12500000000E+03 0.  0.
         25    1    1    2    0    0 -0.11960423398E+03  0.18573180220E+03  0.27844502325E+03  0.37677328211E+03  0.12500000000E+03 0.  0.
         25    1    1    2    0    0  0.50670021699E+02 -0.67022428534E+02  0.79281381189E+02  0.17020574147E+03  0.12500000000E+03 0.  0.
</event>
<event>
 5    0  0.5742667E-005  0.4306358E+03  0.7546771E-02  0.1033659E+00
         21   -1    0    0  502  501  0.00000000000E+00  0.00000000000E+00  0.45977552894E+03  0.45977552894E+03  0.00000000000E+00 0.  1.
         21   -1    0    0  501  502 -0.00000000000E+00 -0.00000000000E+00 -0.40334298190E+03  0.40334298190E+03  0.00000000000E+00 0.  1.
         25    1    1    2    0    0 -0.77958177881E+02 -0.54029371076E+02  0.95806932420E+02  0.18384944584E+03  0.12500000000E+03 0.  0.
         25    1    1    2    0    0 -0.20978301015E+02  0.33273915377E+03 -0.38968733782E+02  0.35818849197E+03  0.12500000000E+03 0.  0.
         25    1    1    2    0    0  0.98936478896E+02 -0.27870978269E+03 -0.40565159687E+00  0.32108057303E+03  0.12500000000E+03 0.  0.
</event>
<event>
 5    0  0.5742667E-005  0.3622203E+03  0.7546771E-02  0.1057708E+00
         21   -1    0    0  502  501  0.00000000000E+00  0.00000000000E+00  0.22981883487E+03  0.22981883487E+03  0.00000000000E+00 0.  1.
         21   -1    0    0  501  502 -0.00000000000E+00 -0.00000000000E+00 -0.57089996694E+03  0.57089996694E+03  0.00000000000E+00 0.  1.
         25    1    1    2    0    0 -0.24550391732E+03  0.14817842667E+03 -0.15981922231E+03  0.35127795742E+03  0.12500000000E+03 0.  0.
         25    1    1    2    0    0  0.18950107282E+03 -0.66505514479E+02 -0.16651886720E+03  0.28928735401E+03  0.12500000000E+03 0.  0.
         25    1    1    2    0    0  0.56002844501E+02 -0.81672912189E+02 -0.14743042570E+02  0.16015349038E+03  0.12500000000E+03 0.  0.
</event>
<event>
 5    0  0.5742667E-005  0.4474837E+03  0.7546771E-02  0.1028475E+00
         21   -1    0    0  502  501  0.00000000000E+00  0.00000000000E+00  0.10953115770E+04  0.10953115770E+04  0.00000000000E+00 0. -1.
         21   -1    0    0  501  502 -0.00000000000E+00 -0.00000000000E+00 -0.18281710953E+03  0.18281710953E+03  0.00000000000E+00 0. -1.
         25    1    1    2    0    0 -0.26015102135E+03  0.11368436773E+03  0.55096289614E+03  0.63228775277E+03  0.12500000000E+03 0.  0.
         25    1    1    2    0    0  0.28796697933E+03 -0.18775595643E+03  0.33405582970E+03  0.49537417950E+03  0.12500000000E+03 0.  0.
         25    1    1    2    0    0 -0.27815957984E+02  0.74071588697E+02  0.27475741670E+02  0.15046675430E+03  0.12500000000E+03 0.  0.
</event>
<event>
 5    0  0.5742667E-005  0.5614314E+03  0.7546771E-02  0.9988821E-01
         21   -1    0    0  502  501  0.00000000000E+00  0.00000000000E+00  0.17739247187E+04  0.17739247187E+04  0.00000000000E+00 0.  1.
         21   -1    0    0  501  502 -0.00000000000E+00 -0.00000000000E+00 -0.17768804537E+03  0.17768804537E+03  0.00000000000E+00 0.  1.
         25    1    1    2    0    0  0.16274589535E+03 -0.97622586105E+02 -0.70308532484E+01  0.22735617139E+03  0.12500000000E+03 0.  0.
         25    1    1    2    0    0  0.22529382068E+02 -0.12045410681E+03  0.12075496732E+04  0.12201712905E+04  0.12500000000E+03 0.  0.
         25    1    1    2    0    0 -0.18527527741E+03  0.21807669291E+03  0.39571785341E+03  0.50408530222E+03  0.12500000000E+03 0.  0.
</event>
<event>
 5    0  0.5742667E-005  0.2150914E+03  0.7546771E-02  0.1137596E+00
         21   -1    0    0  502  501  0.00000000000E+00  0.00000000000E+00  0.37486938523E+03  0.37486938523E+03  0.00000000000E+00 0.  1.
         21   -1    0    0  501  502 -0.00000000000E+00 -0.00000000000E+00 -0.12341451191E+03  0.12341451191E+03  0.00000000000E+00 0.  1.
         25    1    1    2    0    0 -0.78580769762E+02  0.73035971943E+01  0.94369014344E+02  0.17538184278E+03  0.12500000000E+03 0.  0.
         25    1    1    2    0    0  0.61690324320E+02  0.37879790383E+02  0.10740310895E+03  0.18000278455E+03  0.12500000000E+03 0.  0.
         25    1    1    2    0    0  0.16890445442E+02 -0.45183387578E+02  0.49682750033E+02  0.14289926981E+03  0.12500000000E+03 0.  0.
</event>
<event>
 5    0  0.5742667E-005  0.3090689E+03  0.7546771E-02  0.1080793E+00
         21   -1    0    0  502  501  0.00000000000E+00  0.00000000000E+00  0.76251037987E+03  0.76251037987E+03  0.00000000000E+00 0.  1.
         21   -1    0    0  501  502 -0.00000000000E+00 -0.00000000000E+00 -0.12527508764E+03  0.12527508764E+03  0.00000000000E+00 0.  1.
         25    1    1    2    0    0  0.49941332415E+02 -0.12992073874E+03  0.20724613280E+02  0.18822339024E+03  0.12500000000E+03 0.  0.
         25    1    1    2    0    0  0.53762158377E+02  0.82061615181E+02  0.25668860423E+03  0.30189156646E+03  0.12500000000E+03 0.  0.
         25    1    1    2    0    0 -0.10370349079E+03  0.47859123562E+02  0.35982207473E+03  0.39767051081E+03  0.12500000000E+03 0.  0.
</event>
<event>
 5    0  0.5742667E-005  0.3272910E+03  0.7546771E-02  0.1072342E+00
         21   -1    0    0  502  501  0.00000000000E+00  0.00000000000E+00  0.30080345201E+03  0.30080345201E+03  0.00000000000E+00 0.  1.
         21   -1    0    0  501  502 -0.00000000000E+00 -0.00000000000E+00 -0.35611101425E+03  0.35611101425E+03  0.00000000000E+00 0.  1.
         25    1    1    2    0    0 -0.10598750410E+03  0.14525988463E+03  0.14207107279E+03  0.26104209399E+03  0.12500000000E+03 0.  0.
         25    1    1    2    0    0  0.12803893471E+03 -0.60428108294E+02 -0.89936299855E+02  0.20918667048E+03  0.12500000000E+03 0.  0.
         25    1    1    2    0    0 -0.22051430615E+02 -0.84831776337E+02 -0.10744233517E+03  0.18668570180E+03  0.12500000000E+03 0.  0.
</event>
<event>
 5    0  0.5742667E-005  0.2382564E+03  0.7546771E-02  0.1120960E+00
         21   -1    0    0  502  501  0.00000000000E+00  0.00000000000E+00  0.52378170908E+03  0.52378170908E+03  0.00000000000E+00 0.  1.
         21   -1    0    0  501  502 -0.00000000000E+00 -0.00000000000E+00 -0.10837745245E+03  0.10837745245E+03  0.00000000000E+00 0.  1.
         25    1    1    2    0    0  0.22973246784E+02  0.10448595677E+02  0.81132784476E+02  0.15114387826E+03  0.12500000000E+03 0.  0.
         25    1    1    2    0    0 -0.11258885032E+03 -0.51685050871E+02  0.11580076856E+03  0.21067133573E+03  0.12500000000E+03 0.  0.
         25    1    1    2    0    0  0.89615603541E+02  0.41236455193E+02  0.21847070360E+03  0.27034394753E+03  0.12500000000E+03 0.  0.
</event>
<event>
 5    0  0.5742667E-005  0.4516901E+03  0.7546771E-02  0.1027219E+00
         21   -1    0    0  502  501  0.00000000000E+00  0.00000000000E+00  0.11594540601E+03  0.11594540601E+03  0.00000000000E+00 0.  1.
         21   -1    0    0  501  502 -0.00000000000E+00 -0.00000000000E+00 -0.17596550616E+04  0.17596550616E+04  0.00000000000E+00 0.  1.
         25    1    1    2    0    0 -0.26822455027E+01  0.28151830431E+03 -0.77225552414E+03  0.83142248266E+03  0.12500000000E+03 0.  0.
         25    1    1    2    0    0  0.10165586702E+03 -0.21667101663E+03 -0.16361788633E+03  0.31571515243E+03  0.12500000000E+03 0.  0.
         25    1    1    2    0    0 -0.98973621516E+02 -0.64847287679E+02 -0.70783624515E+03  0.72846283256E+03  0.12500000000E+03 0.  0.
</event>
<event>
 5    0  0.6573803E-005  0.5312832E+03  0.7546771E-02  0.1005921E+00
         21   -1    0    0  502  501  0.00000000000E+00  0.00000000000E+00  0.41456890535E+03  0.41456890535E+03  0.00000000000E+00 0.  1.
         21   -1    0    0  501  502 -0.00000000000E+00 -0.00000000000E+00 -0.68085630740E+03  0.68085630740E+03  0.00000000000E+00 0.  1.
         25    1    1    2    0    0  0.39363079650E+02 -0.32892804999E+02  0.21248539866E+03  0.25180634088E+03  0.12500000000E+03 0.  0.
         25    1    1    2    0    0  0.12373330150E+03  0.28624307676E+03 -0.36996141826E+03  0.49974141303E+03  0.12500000000E+03 0.  0.
         25    1    1    2    0    0 -0.16309638115E+03 -0.25335027176E+03 -0.10881138246E+03  0.34387745884E+03  0.12500000000E+03 0.  0.
</event>
<event>
 5    0  0.5742667E-005  0.3968971E+03  0.7546771E-02  0.1044859E+00
         21   -1    0    0  502  501  0.00000000000E+00  0.00000000000E+00  0.49334717665E+03  0.49334717665E+03  0.00000000000E+00 0. -1.
         21   -1    0    0  501  502 -0.00000000000E+00 -0.00000000000E+00 -0.31930320935E+03  0.31930320935E+03  0.00000000000E+00 0. -1.
         25    1    1    2    0    0 -0.20760461087E+03 -0.87023025780E+02  0.14286604387E+03  0.29446288045E+03  0.12500000000E+03 0.  0.
         25    1    1    2    0    0  0.10043029861E+03 -0.18718768788E+02  0.20189451449E+03  0.25850151289E+03  0.12500000000E+03 0.  0.
         25    1    1    2    0    0  0.10717431226E+03  0.10574179457E+03 -0.17071659105E+03  0.25968599266E+03  0.12500000000E+03 0.  0.
</event>
<event>
 5    0  0.5790802E-005  0.2863191E+03  0.7546771E-02  0.1092287E+00
         21   -1    0    0  502  501  0.00000000000E+00  0.00000000000E+00  0.15534839810E+03  0.15534839810E+03  0.00000000000E+00 0. -1.
         21   -1    0    0  501  502 -0.00000000000E+00 -0.00000000000E+00 -0.52770828258E+03  0.52770828258E+03  0.00000000000E+00 0. -1.
         25    1    1    2    0    0  0.11855791047E+03  0.34234119788E+02  0.36615595483E+02  0.17942590372E+03  0.12500000000E+03 0.  0.
         25    1    1    2    0    0 -0.69510340569E+02  0.27517428831E+02 -0.21712623127E+03  0.26145304863E+03  0.12500000000E+03 0.  0.
         25    1    1    2    0    0 -0.49047569905E+02 -0.61751548619E+02 -0.19184924870E+03  0.24217772832E+03  0.12500000000E+03 0.  0.
</event>
<event>
 5    0  0.5742667E-005  0.4100667E+03  0.7546771E-02  0.1040349E+00
         21   -1    0    0  502  501  0.00000000000E+00  0.00000000000E+00  0.48340754072E+03  0.48340754072E+03  0.00000000000E+00 0.  1.
         21   -1    0    0  501  502 -0.00000000000E+00 -0.00000000000E+00 -0.34785294992E+03  0.34785294992E+03  0.00000000000E+00 0.  1.
         25    1    1    2    0    0  0.16925555797E+03  0.77760086472E+02  0.12343015041E+03  0.25603530417E+03  0.12500000000E+03 0.  0.
         25    1    1    2    0    0 -0.18790046135E+03 -0.19426444060E+03  0.16910327135E+03  0.34244148790E+03  0.12500000000E+03 0.  0.
         25    1    1    2    0    0  0.18644903378E+02  0.11650435412E+03 -0.15697883096E+03  0.23278369857E+03  0.12500000000E+03 0.  0.
</event>
<event>
 5    0  0.5742667E-005  0.4737142E+03  0.7546771E-02  0.1020877E+00
         21   -1    0    0  502  501  0.00000000000E+00  0.00000000000E+00  0.99366647644E+03  0.99366647644E+03  0.00000000000E+00 0.  1.
         21   -1    0    0  501  502 -0.00000000000E+00 -0.00000000000E+00 -0.22583552302E+03  0.22583552302E+03  0.00000000000E+00 0.  1.
         25    1    1    2    0    0  0.39266820101E+03 -0.21538341227E+02  0.28759152707E+03  0.50297723872E+03  0.12500000000E+03 0.  0.
         25    1    1    2    0    0 -0.25225788811E+03  0.93839294064E+02  0.40374637359E+03  0.50107483414E+03  0.12500000000E+03 0.  0.
         25    1    1    2    0    0 -0.14041031290E+03 -0.72300952837E+02  0.76493052766E+02  0.21544992660E+03  0.12500000000E+03 0.  0.
</event>
<event>
 5    0  0.5742667E-005  0.2619773E+03  0.7546771E-02  0.1105961E+00
         21   -1    0    0  502  501  0.00000000000E+00  0.00000000000E+00  0.76425561053E+03  0.76425561053E+03  0.00000000000E+00 0. -1.
         21   -1    0    0  501  502 -0.00000000000E+00 -0.00000000000E+00 -0.89802535750E+02  0.89802535750E+02  0.00000000000E+00 0. -1.
         25    1    1    2    0    0  0.51142109137E+02 -0.55544426521E+02  0.48057332803E+03  0.50227126362E+03  0.12500000000E+03 0.  0.
         25    1    1    2    0    0  0.56468723479E+01 -0.72753510910E+01  0.29844005638E+02  0.12884286000E+03  0.12500000000E+03 0.  0.
         25    1    1    2    0    0 -0.56788981485E+02  0.62819777612E+02  0.16403574112E+03  0.22294402266E+03  0.12500000000E+03 0.  0.
</event>
<event>
 5    0  0.5742667E-005  0.2473453E+03  0.7546771E-02  0.1114994E+00
         21   -1    0    0  502  501  0.00000000000E+00  0.00000000000E+00  0.16775537349E+04  0.16775537349E+04  0.00000000000E+00 0.  1.
         21   -1    0    0  501  502 -0.00000000000E+00 -0.00000000000E+00 -0.36469575641E+02  0.36469575641E+02  0.00000000000E+00 0.  1.
         25    1    1    2    0    0  0.12625293154E+02  0.64094325557E+02  0.10672971362E+04  0.10765758949E+04  0.12500000000E+03 0.  0.
         25    1    1    2    0    0 -0.16440035719E+02  0.73641125281E+01  0.34177941817E+03  0.36436612852E+03  0.12500000000E+03 0.  0.
         25    1    1    2    0    0  0.38147425657E+01 -0.71458438085E+02  0.23200760488E+03  0.27308128709E+03  0.12500000000E+03 0.  0.
</event>
<event>
 5    0  0.5742667E-005  0.3282126E+03  0.7546771E-02  0.1071930E+00
         21   -1    0    0  502  501  0.00000000000E+00  0.00000000000E+00  0.96377548322E+03  0.96377548322E+03  0.00000000000E+00 0. -1.
         21   -1    0    0  501  502 -0.00000000000E+00 -0.00000000000E+00 -0.11177240554E+03  0.11177240554E+03  0.00000000000E+00 0. -1.
         25    1    1    2    0    0 -0.29596469479E+02  0.15693092756E+03  0.12899671829E+03  0.24035061964E+03  0.12500000000E+03 0.  0.
         25    1    1    2    0    0 -0.12129804746E+03 -0.12554862268E+03  0.43947561761E+03  0.48912114189E+03  0.12500000000E+03 0.  0.
         25    1    1    2    0    0  0.15089451694E+03 -0.31382304878E+02  0.28353074178E+03  0.34607612723E+03  0.12500000000E+03 0.  0.
</event>
<event>
 5    0  0.5742667E-005  0.4856425E+03  0.7546771E-02  0.1017596E+00
         21   -1    0    0  502  501  0.00000000000E+00  0.00000000000E+00  0.20721401381E+03  0.20721401381E+03  0.00000000000E+00 0.  1.
         21   -1    0    0  501  502 -0.00000000000E+00 -0.00000000000E+00 -0.11381885484E+04  0.11381885484E+04  0.00000000000E+00 0.  1.
         25    1    1    2    0    0 -0.31663957819E+02 -0.21633146612E+03 -0.31663144115E+03  0.40457678997E+03  0.12500000000E+03 0.  0.
         25    1    1    2    0    0 -0.17074007196E+03 -0.99489518298E+02 -0.46067700955E+03  0.51662234132E+03  0.12500000000E+03 0.  0.
         25    1    1    2    0    0  0.20240402978E+03  0.31582098442E+03 -0.15366608389E+03  0.42420343092E+03  0.12500000000E+03 0.  0.
</event>
<event>
 5    0  0.5742667E-005  0.4115375E+03  0.7546771E-02  0.1039856E+00
         21   -1    0    0  502  501  0.00000000000E+00  0.00000000000E+00  0.36957754949E+03  0.36957754949E+03  0.00000000000E+00 0. -1.
         21   -1    0    0  501  502 -0.00000000000E+00 -0.00000000000E+00 -0.45826144967E+03  0.45826144967E+03  0.00000000000E+00 0. -1.
         25    1    1    2    0    0  0.23369132216E+02 -0.25796300546E+03 -0.53048506475E+02  0.29245541979E+03  0.12500000000E+03 0.  0.
         25    1    1    2    0    0 -0.14188169054E+02 -0.95066024363E+02 -0.31196190677E+02  0.16073909121E+03  0.12500000000E+03 0.  0.
         25    1    1    2    0    0 -0.91809631621E+01  0.35302902982E+03 -0.44392030294E+01  0.37464448816E+03  0.12500000000E+03 0.  0.
</event>
<event>
 5    0  0.5742667E-005  0.3012297E+03  0.7546771E-02  0.1084628E+00
         21   -1    0    0  502  501  0.00000000000E+00  0.00000000000E+00  0.17430418680E+03  0.17430418680E+03  0.00000000000E+00 0. -1.
         21   -1    0    0  501  502 -0.00000000000E+00 -0.00000000000E+00 -0.52058025124E+03  0.52058025124E+03  0.00000000000E+00 0. -1.
         25    1    1    2    0    0  0.20375676516E+02  0.10310632072E+03 -0.37842100879E+03  0.41215718053E+03  0.12500000000E+03 0.  0.
         25    1    1    2    0    0  0.13846542569E+02 -0.77678627556E+02  0.50523294191E+01  0.14790612547E+03  0.12500000000E+03 0.  0.
         25    1    1    2    0    0 -0.34222219085E+02 -0.25427693159E+02  0.27092614940E+02  0.13482113203E+03  0.12500000000E+03 0.  0.
</event>
<event>
 5    0  0.5742667E-005  0.3694096E+03  0.7546771E-02  0.1054919E+00
         21   -1    0    0  502  501  0.00000000000E+00  0.00000000000E+00  0.21117878473E+04  0.21117878473E+04  0.00000000000E+00 0.  1.
         21   -1    0    0  501  502 -0.00000000000E+00 -0.00000000000E+00 -0.64619872502E+02  0.64619872502E+02  0.00000000000E+00 0.  1.
         25    1    1    2    0    0  0.31426820898E+02 -0.96609518635E+02  0.69415613569E+03  0.71260001745E+03  0.12500000000E+03 0.  0.
         25    1    1    2    0    0 -0.18132448651E+03 -0.41347301230E+02  0.25229569875E+03  0.33744079234E+03  0.12500000000E+03 0.  0.
         25    1    1    2    0    0  0.14989766562E+03  0.13795681987E+03  0.11007161403E+04  0.11263669100E+04  0.12500000000E+03 0.  0.
</event>
<event>
 5    0  0.5742667E-005  0.4490232E+03  0.7546771E-02  0.1028014E+00
         21   -1    0    0  502  501  0.00000000000E+00  0.00000000000E+00  0.77911868693E+03  0.77911868693E+03  0.00000000000E+00 0. -1.
         21   -1    0    0  501  502 -0.00000000000E+00 -0.00000000000E+00 -0.25878193104E+03  0.25878193104E+03  0.00000000000E+00 0. -1.
         25    1    1    2    0    0  0.25618308546E+03  0.68290750420E+02  0.35701271489E+03  0.46192691896E+03  0.12500000000E+03 0.  0.
         25    1    1    2    0    0 -0.35207448127E+03 -0.81971780875E+02  0.16801354926E+03  0.41776711928E+03  0.12500000000E+03 0.  0.
         25    1    1    2    0    0  0.95891395808E+02  0.13681030455E+02 -0.46895082534E+01  0.15820657974E+03  0.12500000000E+03 0.  0.
</event>
<event>
 5    0  0.5742667E-005  0.2816751E+03  0.7546771E-02  0.1094778E+00
         21   -1    0    0  502  501  0.00000000000E+00  0.00000000000E+00  0.16412440307E+04  0.16412440307E+04  0.00000000000E+00 0. -1.
         21   -1    0    0  501  502 -0.00000000000E+00 -0.00000000000E+00 -0.48341890978E+02  0.48341890978E+02  0.00000000000E+00 0. -1.
         25    1    1    2    0    0  0.10111822229E+03  0.10608117423E+03  0.38595707343E+03  0.43135365182E+03  0.12500000000E+03 0.  0.
         25    1    1    2    0    0 -0.13627088751E+03 -0.22458245879E+02  0.47604900123E+03  0.51119641936E+03  0.12500000000E+03 0.  0.
         25    1    1    2    0    0  0.35152665213E+02 -0.83622928348E+02  0.73089606504E+03  0.74703585048E+03  0.12500000000E+03 0.  0.
</event>
<event>
 5    0  0.5742667E-005  0.2461200E+03  0.7546771E-02  0.1115782E+00
         21   -1    0    0  502  501  0.00000000000E+00  0.00000000000E+00  0.17766528457E+04  0.17766528457E+04  0.00000000000E+00 0. -1.
         21   -1    0    0  501  502 -0.00000000000E+00 -0.00000000000E+00 -0.34095054786E+02  0.34095054786E+02  0.00000000000E+00 0. -1.
         25    1    1    2    0    0  0.53613630295E+01  0.50975169504E+02  0.48544118890E+03  0.50389022614E+03  0.12500000000E+03 0.  0.
         25    1    1    2    0    0  0.17887787967E+02  0.98995792001E+02  0.57621800017E+03  0.59814072216E+03  0.12500000000E+03 0.  0.
         25    1    1    2    0    0 -0.23249150996E+02 -0.14997096150E+03  0.68089860186E+03  0.70871695220E+03  0.12500000000E+03 0.  0.
</event>
<event>
 5    0  0.5742667E-005  0.3313888E+03  0.7546771E-02  0.1070524E+00
         21   -1    0    0  502  501  0.00000000000E+00  0.00000000000E+00  0.36603273145E+03  0.36603273145E+03  0.00000000000E+00 0.  1.
         21   -1    0    0  501  502 -0.00000000000E+00 -0.00000000000E+00 -0.30002386062E+03  0.30002386062E+03  0.00000000000E+00 0.  1.
         25    1    1    2    0    0  0.14527536318E+03  0.96869754107E+02  0.22705162952E+03  0.31251579620E+03  0.12500000000E+03 0.  0.
         25    1    1    2    0    0 -0.42110508008E+02 -0.32659697316E+02 -0.41211118678E+02  0.14199755990E+03  0.12500000000E+03 0.  0.
         25    1    1    2    0    0 -0.10316485518E+03 -0.64210056791E+02 -0.11983164002E+03  0.21154323597E+03  0.12500000000E+03 0.  0.
</event>
<event>
 5    0  0.5742667E-005  0.2284275E+03  0.7546771E-02  0.1127751E+00
         21   -1    0    0  502  501  0.00000000000E+00  0.00000000000E+00  0.18347459971E+03  0.18347459971E+03  0.00000000000E+00 0.  1.
         21   -1    0    0  501  502 -0.00000000000E+00 -0.00000000000E+00 -0.28439438119E+03  0.28439438119E+03  0.00000000000E+00 0.  1.
         25    1    1    2    0    0 -0.45761593967E+02  0.27611251329E+02  0.17038030627E+02  0.13701021557E+03  0.12500000000E+03 0.  0.
         25    1    1    2    0    0  0.58308266655E+02 -0.45062207525E+02 -0.14056579700E+03  0.20202524544E+03  0.12500000000E+03 0.  0.
         25    1    1    2    0    0 -0.12546672688E+02  0.17450956196E+02  0.22607984900E+02  0.12883351990E+03  0.12500000000E+03 0.  0.
</event>
<event>
 5    0  0.5742667E-005  0.2266282E+03  0.7546771E-02  0.1129036E+00
         21   -1    0    0  502  501  0.00000000000E+00  0.00000000000E+00  0.42482849559E+03  0.42482849559E+03  0.00000000000E+00 0. -1.
         21   -1    0    0  501  502 -0.00000000000E+00 -0.00000000000E+00 -0.12089664095E+03  0.12089664095E+03  0.00000000000E+00 0. -1.
         25    1    1    2    0    0 -0.24077162895E+02  0.98772121277E+02  0.14413247060E+03  0.21618235542E+03  0.12500000000E+03 0.  0.
         25    1    1    2    0    0  0.25235248035E+02 -0.61545634177E+02  0.28433494625E+02  0.14442349686E+03  0.12500000000E+03 0.  0.
         25    1    1    2    0    0 -0.11580851393E+01 -0.37226487100E+02  0.13136588941E+03  0.18511928425E+03  0.12500000000E+03 0.  0.
</event>
<event>
 5    0  0.5742667E-005  0.2849676E+03  0.7546771E-02  0.1093006E+00
         21   -1    0    0  502  501  0.00000000000E+00  0.00000000000E+00  0.95274859633E+02  0.95274859633E+02  0.00000000000E+00 0. -1.
         21   -1    0    0  501  502 -0.00000000000E+00 -0.00000000000E+00 -0.85233978205E+03  0.85233978205E+03  0.00000000000E+00 0. -1.
         25    1    1    2    0    0 -0.14757404777E+03  0.86716062879E+02 -0.39565634757E+03  0.44885044337E+03  0.12500000000E+03 0.  0.
         25    1    1    2    0    0  0.99705230087E+02 -0.24965433254E+02 -0.78745891743E+02  0.17997311252E+03  0.12500000000E+03 0.  0.
         25    1    1    2    0    0  0.47868817680E+02 -0.61750629625E+02 -0.28266268310E+03  0.31879108580E+03  0.12500000000E+03 0.  0.
</event>
<event>
 5    0  0.5742667E-005  0.3318878E+03  0.7546771E-02  0.1070305E+00
         21   -1    0    0  502  501  0.00000000000E+00  0.00000000000E+00  0.46111284411E+03  0.46111284411E+03  0.00000000000E+00 0.  1.
         21   -1    0    0  501  502 -0.00000000000E+00 -0.00000000000E+00 -0.23887749753E+03  0.23887749753E+03  0.00000000000E+00 0.  1.
         25    1    1    2    0    0  0.19773361687E+03  0.62078593882E+02  0.29254850800E+02  0.24378921501E+03  0.12500000000E+03 0.  0.
         25    1    1    2    0    0 -0.73092577028E+00 -0.68430570701E+02 -0.15371585155E+02  0.14333374651E+03  0.12500000000E+03 0.  0.
         25    1    1    2    0    0 -0.19700269110E+03  0.63519768185E+01  0.20835208093E+03  0.31286738011E+03  0.12500000000E+03 0.  0.
</event>
<event>
 5    0  0.5742667E-005  0.4235420E+03  0.7546771E-02  0.1035920E+00
         21   -1    0    0  502  501  0.00000000000E+00  0.00000000000E+00  0.93841219202E+02  0.93841219202E+02  0.00000000000E+00 0.  1.
         21   -1    0    0  501  502 -0.00000000000E+00 -0.00000000000E+00 -0.19116100200E+04  0.19116100200E+04  0.00000000000E+00 0.  1.
         25    1    1    2    0    0  0.93971074812E+02 -0.79564786990E+01 -0.93441171257E+03  0.94744082509E+03  0.12500000000E+03 0.  0.
         25    1    1    2    0    0 -0.28435297243E+02  0.57254885028E+02  0.20487498121E+02  0.14188525494E+03  0.12500000000E+03 0.  0.
         25    1    1    2    0    0 -0.65535777570E+02 -0.49298406329E+02 -0.90384458638E+03  0.91612515921E+03  0.12500000000E+03 0.  0.
</event>
<event>
 5    0  0.5742667E-005  0.2730816E+03  0.7546771E-02  0.1099529E+00
         21   -1    0    0  502  501  0.00000000000E+00  0.00000000000E+00  0.15675695110E+03  0.15675695110E+03  0.00000000000E+00 0.  1.
         21   -1    0    0  501  502 -0.00000000000E+00 -0.00000000000E+00 -0.47572724668E+03  0.47572724668E+03  0.00000000000E+00 0.  1.
         25    1    1    2    0    0  0.11268996323E+01 -0.56215348511E+02 -0.64966989407E+02  0.15168106350E+03  0.12500000000E+03 0.  0.
         25    1    1    2    0    0  0.32601860754E+02 -0.46411559394E+02 -0.28162690532E+03  0.31329798591E+03  0.12500000000E+03 0.  0.
         25    1    1    2    0    0 -0.33728760386E+02  0.10262690790E+03  0.27623599147E+02  0.16750514838E+03  0.12500000000E+03 0.  0.
</event>
<event>
 5    0  0.5742667E-005  0.3165347E+03  0.7546771E-02  0.1077255E+00
         21   -1    0    0  502  501  0.00000000000E+00  0.00000000000E+00  0.11869516939E+03  0.11869516939E+03  0.00000000000E+00 0.  1.
         21   -1    0    0  501  502 -0.00000000000E+00 -0.00000000000E+00 -0.84413068853E+03  0.84413068853E+03  0.00000000000E+00 0.  1.
         25    1    1    2    0    0 -0.69476303821E+02  0.12463345822E+03 -0.65732880887E+02  0.20076420829E+03  0.12500000000E+03 0.  0.
         25    1    1    2    0    0 -0.21423443595E+02  0.54881107655E+02 -0.31315939945E+03  0.34229330899E+03  0.12500000000E+03 0.  0.
         25    1    1    2    0    0  0.90899747416E+02 -0.17951456588E+03 -0.34654323880E+03  0.41976834064E+03  0.12500000000E+03 0.  0.
</event>
<event>
 5    0  0.5742667E-005  0.5275011E+03  0.7546771E-02  0.1006840E+00
         21   -1    0    0  502  501  0.00000000000E+00  0.00000000000E+00  0.82447458364E+03  0.82447458364E+03  0.00000000000E+00 0.  1.
         21   -1    0    0  501  502 -0.00000000000E+00 -0.00000000000E+00 -0.33749664421E+03  0.33749664421E+03  0.00000000000E+00 0.  1.
         25    1    1    2    0    0 -0.32408388444E+03  0.17278511258E+03  0.31884643473E+03  0.50216840623E+03  0.12500000000E+03 0.  0.
         25    1    1    2    0    0 -0.10431064193E+03 -0.10879246178E+02  0.48866535173E+02  0.17032911165E+03  0.12500000000E+03 0.  0.
         25    1    1    2    0    0  0.42839452636E+03 -0.16190586640E+03  0.11926496954E+03  0.48947370997E+03  0.12500000000E+03 0.  0.
</event>
<event>
 5    0  0.5742667E-005  0.2614998E+03  0.7546771E-02  0.1106245E+00
         21   -1    0    0  502  501  0.00000000000E+00  0.00000000000E+00  0.10779390568E+04  0.10779390568E+04  0.00000000000E+00 0.  1.
         21   -1    0    0  501  502 -0.00000000000E+00 -0.00000000000E+00 -0.63437880960E+02  0.63437880960E+02  0.00000000000E+00 0.  1.
         25    1    1    2    0    0 -0.73519696048E+02 -0.71721054779E+02  0.44020898373E+03  0.46899680677E+03  0.12500000000E+03 0.  0.
         25    1    1    2    0    0 -0.42795045089E+02  0.10983873212E+03  0.24120408331E+03  0.29614248727E+03  0.12500000000E+03 0.  0.
         25    1    1    2    0    0  0.11631474114E+03 -0.38117677340E+02  0.33308810881E+03  0.37623764373E+03  0.12500000000E+03 0.  0.
</event>
<event>
 5    0  0.5742667E-005  0.2602466E+03  0.7546771E-02  0.1106995E+00
         21   -1    0    0  502  501  0.00000000000E+00  0.00000000000E+00  0.12595862399E+03  0.12595862399E+03  0.00000000000E+00 0.  1.
         21   -1    0    0  501  502 -0.00000000000E+00 -0.00000000000E+00 -0.53770251748E+03  0.53770251748E+03  0.00000000000E+00 0.  1.
         25    1    1    2    0    0 -0.10044181541E+03 -0.10713872328E+03 -0.92913389148E+02  0.21406812512E+03  0.12500000000E+03 0.  0.
         25    1    1    2    0    0  0.24938048091E+02 -0.10351938839E+02 -0.10696104940E+03  0.16671753048E+03  0.12500000000E+03 0.  0.
         25    1    1    2    0    0  0.75503767316E+02  0.11749066212E+03 -0.21186945495E+03  0.28287548587E+03  0.12500000000E+03 0.  0.
</event>
<event>
 5    0  0.5742667E-005  0.3337773E+03  0.7546771E-02  0.1069478E+00
         21   -1    0    0  502  501  0.00000000000E+00  0.00000000000E+00  0.47997659120E+03  0.47997659120E+03  0.00000000000E+00 0.  1.
         21   -1    0    0  501  502 -0.00000000000E+00 -0.00000000000E+00 -0.23210986785E+03  0.23210986785E+03  0.00000000000E+00 0. -1.
         25    1    1    2    0    0  0.17832059940E+03 -0.73874445127E+02 -0.48477971548E+02  0.23501230508E+03  0.12500000000E+03 0.  0.
         25    1    1    2    0    0 -0.31443972269E+02 -0.12957392643E+02  0.21388392293E+03  0.25005589356E+03  0.12500000000E+03 0.  0.
         25    1    1    2    0    0 -0.14687662713E+03  0.86831837770E+02  0.82460771967E+02  0.22701826041E+03  0.12500000000E+03 0.  0.
</event>
<event>
 5    0  0.5742667E-005  0.2991658E+03  0.7546771E-02  0.1085658E+00
         21   -1    0    0  502  501  0.00000000000E+00  0.00000000000E+00  0.10955096581E+04  0.10955096581E+04  0.00000000000E+00 0. -1.
         21   -1    0    0  501  502 -0.00000000000E+00 -0.00000000000E+00 -0.81697287299E+02  0.81697287299E+02  0.00000000000E+00 0. -1.
         25    1    1    2    0    0 -0.14971729830E+03  0.49764808937E+01  0.67683221127E+03  0.70439113920E+03  0.12500000000E+03 0.  0.
         25    1    1    2    0    0  0.33670879830E+02 -0.28131291558E+02  0.24284362196E+03  0.27662813024E+03  0.12500000000E+03 0.  0.
         25    1    1    2    0    0  0.11604641847E+03  0.23154810664E+02  0.94136537592E+02  0.19618767598E+03  0.12500000000E+03 0.  0.
</event>
<event>
 5    0  0.5742667E-005  0.2181653E+03  0.7546771E-02  0.1135258E+00
         21   -1    0    0  502  501  0.00000000000E+00  0.00000000000E+00  0.29214252134E+02  0.29214252134E+02  0.00000000000E+00 0.  1.
         21   -1    0    0  501  502 -0.00000000000E+00 -0.00000000000E+00 -0.16292077308E+04  0.16292077308E+04  0.00000000000E+00 0.  1.
         25    1    1    2    0    0 -0.15333368376E+02 -0.32981231145E+01 -0.60874510337E+03  0.62164426377E+03  0.12500000000E+03 0.  0.
         25    1    1    2    0    0  0.98956127619E+01 -0.61585536779E+02 -0.29498061667E+03  0.32638821318E+03  0.12500000000E+03 0.  0.
         25    1    1    2    0    0  0.54377556144E+01  0.64883659893E+02 -0.69626775860E+03  0.71038950595E+03  0.12500000000E+03 0.  0.
</event>
<event>
 5    0  0.5742667E-005  0.2438683E+03  0.7546771E-02  0.1117242E+00
         21   -1    0    0  502  501  0.00000000000E+00  0.00000000000E+00  0.60236456932E+03  0.60236456932E+03  0.00000000000E+00 0. -1.
         21   -1    0    0  501  502 -0.00000000000E+00 -0.00000000000E+00 -0.98730500097E+02  0.98730500097E+02  0.00000000000E+00 0. -1.
         25    1    1    2    0    0  0.39680203714E+02 -0.40618154879E+02  0.75182819370E+02  0.15653053824E+03  0.12500000000E+03 0.  0.
         25    1    1    2    0    0 -0.30239430679E+02 -0.55575015450E+02  0.78497962263E+02  0.16059245184E+03  0.12500000000E+03 0.  0.
         25    1    1    2    0    0 -0.94407730349E+01  0.96193170329E+02  0.34995328759E+03  0.38397207933E+03  0.12500000000E+03 0.  0.
</event>
<event>
 5    0  0.5742667E-005  0.2983657E+03  0.7546771E-02  0.1086060E+00
         21   -1    0    0  502  501  0.00000000000E+00  0.00000000000E+00  0.16739900316E+03  0.16739900316E+03  0.00000000000E+00 0.  1.
         21   -1    0    0  501  502 -0.00000000000E+00 -0.00000000000E+00 -0.53179593683E+03  0.53179593683E+03  0.00000000000E+00 0.  1.
         25    1    1    2    0    0 -0.76782847351E+02 -0.35337226154E+02 -0.32914919954E+03  0.36208910610E+03  0.12500000000E+03 0.  0.
         25    1    1    2    0    0 -0.13775065192E+01 -0.56547229642E+02 -0.78521123736E+02  0.15808242653E+03  0.12500000000E+03 0.  0.
         25    1    1    2    0    0  0.78160353871E+02  0.91884455796E+02  0.43273389604E+02  0.17902340736E+03  0.12500000000E+03 0.  0.
</event>
<event>
 5    0  0.5742667E-005  0.2177622E+03  0.7546771E-02  0.1135563E+00
         21   -1    0    0  502  501  0.00000000000E+00  0.00000000000E+00  0.11946375815E+03  0.11946375815E+03  0.00000000000E+00 0. -1.
         21   -1    0    0  501  502 -0.00000000000E+00 -0.00000000000E+00 -0.39694348377E+03  0.39694348377E+03  0.00000000000E+00 0. -1.
         25    1    1    2    0    0 -0.43334518569E+01 -0.13483986035E+02 -0.48902296883E+02  0.13497048316E+03  0.12500000000E+03 0.  0.
         25    1    1    2    0    0  0.46996160513E+01  0.25766176504E+02 -0.84467605230E+01  0.12799347642E+03  0.12500000000E+03 0.  0.
         25    1    1    2    0    0 -0.36616419441E+00 -0.12282190469E+02 -0.22013066821E+03  0.25344328235E+03  0.12500000000E+03 0.  0.
</event>
<event>
 5    0  0.5742667E-005  0.2717424E+03  0.7546771E-02  0.1100287E+00
         21   -1    0    0  502  501  0.00000000000E+00  0.00000000000E+00  0.15947054436E+04  0.15947054436E+04  0.00000000000E+00 0. -1.
         21   -1    0    0  501  502 -0.00000000000E+00 -0.00000000000E+00 -0.46305675149E+02  0.46305675149E+02  0.00000000000E+00 0. -1.
         25    1    1    2    0    0  0.10858699397E+03 -0.26067167686E+02  0.76834509289E+03  0.78641580240E+03  0.12500000000E+03 0.  0.
         25    1    1    2    0    0 -0.64049600338E+02  0.10639762748E+03  0.27812924747E+03  0.32924714841E+03  0.12500000000E+03 0.  0.
         25    1    1    2    0    0 -0.44537393629E+02 -0.80330459791E+02  0.50192542811E+03  0.52534816796E+03  0.12500000000E+03 0.  0.
</event>
<event>
 5    0  0.5742667E-005  0.3959298E+03  0.7546771E-02  0.1045198E+00
         21   -1    0    0  502  501  0.00000000000E+00  0.00000000000E+00  0.29072931333E+03  0.29072931333E+03  0.00000000000E+00 0.  1.
         21   -1    0    0  501  502 -0.00000000000E+00 -0.00000000000E+00 -0.53919711430E+03  0.53919711430E+03  0.00000000000E+00 0.  1.
         25    1    1    2    0    0  0.16055912802E+03  0.10455397369E+03 -0.25121232756E+03  0.33976962860E+03  0.12500000000E+03 0.  0.
         25    1    1    2    0    0  0.83810843810E+01  0.85728760941E+02  0.10954792406E+03  0.18720419518E+03  0.12500000000E+03 0.  0.
         25    1    1    2    0    0 -0.16894021240E+03 -0.19028273463E+03 -0.10680339748E+03  0.30295260385E+03  0.12500000000E+03 0.  0.
</event>
<event>
 5    0  0.6367125E-005  0.3174966E+03  0.7546771E-02  0.1076807E+00
         21   -1    0    0  502  501  0.00000000000E+00  0.00000000000E+00  0.96272158504E+03  0.96272158504E+03  0.00000000000E+00 0. -1.
         21   -1    0    0  501  502 -0.00000000000E+00 -0.00000000000E+00 -0.10470739805E+03  0.10470739805E+03  0.00000000000E+00 0. -1.
         25    1    1    2    0    0 -0.21447629035E+02 -0.14123037519E+03  0.36134279266E+03  0.40816618365E+03  0.12500000000E+03 0.  0.
         25    1    1    2    0    0  0.11269116423E+03  0.87836521838E+01  0.39946695325E+03  0.43356118113E+03  0.12500000000E+03 0.  0.
         25    1    1    2    0    0 -0.91243535191E+02  0.13244672300E+03  0.97204441078E+02  0.22570161832E+03  0.12500000000E+03 0.  0.
</event>
<event>
 5    0  0.5742667E-005  0.2780078E+03  0.7546771E-02  0.1096782E+00
         21   -1    0    0  502  501  0.00000000000E+00  0.00000000000E+00  0.43432316556E+03  0.43432316556E+03  0.00000000000E+00 0. -1.
         21   -1    0    0  501  502 -0.00000000000E+00 -0.00000000000E+00 -0.17795120646E+03  0.17795120646E+03  0.00000000000E+00 0. -1.
         25    1    1    2    0    0  0.23620289304E+02 -0.36147214960E+02  0.10550113898E+02  0.13266817297E+03  0.12500000000E+03 0.  0.
         25    1    1    2    0    0  0.13512931443E+03  0.86561314715E+02  0.11494619330E+03  0.23364592909E+03  0.12500000000E+03 0.  0.
         25    1    1    2    0    0 -0.15874960374E+03 -0.50414099755E+02  0.13087565190E+03  0.24596026996E+03  0.12500000000E+03 0.  0.
</event>
<event>
 5    0  0.5742667E-005  0.3167313E+03  0.7546771E-02  0.1077164E+00
         21   -1    0    0  502  501  0.00000000000E+00  0.00000000000E+00  0.30860629048E+04  0.30860629048E+04  0.00000000000E+00 0. -1.
         21   -1    0    0  501  502 -0.00000000000E+00 -0.00000000000E+00 -0.32507026853E+02  0.32507026853E+02  0.00000000000E+00 0. -1.
         25    1    1    2    0    0 -0.97811694978E+02  0.16631620672E+03  0.19268236734E+04  0.19404903186E+04  0.12500000000E+03 0.  0.
         25    1    1    2    0    0  0.44270835031E+02 -0.15819827230E+02  0.33154663547E+03  0.35743299409E+03  0.12500000000E+03 0.  0.
         25    1    1    2    0    0  0.53540859947E+02 -0.15049637949E+03  0.79518556910E+03  0.82064661897E+03  0.12500000000E+03 0.  0.
</event>
<event>
 5    0  0.5742667E-005  0.2558901E+03  0.7546771E-02  0.1109638E+00
         21   -1    0    0  502  501  0.00000000000E+00  0.00000000000E+00  0.49123140934E+02  0.49123140934E+02  0.00000000000E+00 0.  1.
         21   -1    0    0  501  502 -0.00000000000E+00 -0.00000000000E+00 -0.13329709316E+04  0.13329709316E+04  0.00000000000E+00 0.  1.
         25    1    1    2    0    0  0.31955742856E+02  0.12359699792E+02 -0.12195594355E+03  0.17796680547E+03  0.12500000000E+03 0.  0.
         25    1    1    2    0    0 -0.16614726029E+02  0.21059331623E+02 -0.92476757246E+03  0.93356285682E+03  0.12500000000E+03 0.  0.
         25    1    1    2    0    0 -0.15341016827E+02 -0.33419031415E+02 -0.23712427464E+03  0.27056441022E+03  0.12500000000E+03 0.  0.
</event>
<event>
 5    0  0.5742667E-005  0.3265223E+03  0.7546771E-02  0.1072686E+00
         21   -1    0    0  502  501  0.00000000000E+00  0.00000000000E+00  0.40728136777E+04  0.40728136777E+04  0.00000000000E+00 0.  1.
         21   -1    0    0  501  502 -0.00000000000E+00 -0.00000000000E+00 -0.26177686686E+02  0.26177686686E+02  0.00000000000E+00 0.  1.
         25    1    1    2    0    0  0.11948538782E+03  0.56438634220E+02  0.23264988255E+04  0.23335989078E+04  0.12500000000E+03 0.  0.
         25    1    1    2    0    0  0.34909163012E+02 -0.88378090524E+02  0.11525862118E+04  0.11632322692E+04  0.12500000000E+03 0.  0.
         25    1    1    2    0    0 -0.15439455083E+03  0.31939456304E+02  0.56755095363E+03  0.60216018730E+03  0.12500000000E+03 0.  0.
</event>
<event>
 5    0  0.5742667E-005  0.5415413E+03  0.7546771E-02  0.1003471E+00
         21   -1    0    0  502  501  0.00000000000E+00  0.00000000000E+00  0.12114881074E+03  0.12114881074E+03  0.00000000000E+00 0. -1.
         21   -1    0    0  501  502 -0.00000000000E+00 -0.00000000000E+00 -0.24207171715E+04  0.24207171715E+04  0.00000000000E+00 0. -1.
         25    1    1    2    0    0 -0.37998545962E+03 -0.26828448891E+02 -0.75071058880E+03  0.85105822558E+03  0.12500000000E+03 0.  0.
         25    1    1    2    0    0  0.21906161393E+03 -0.70245694650E+02 -0.21726964603E+03  0.34022573007E+03  0.12500000000E+03 0.  0.
         25    1    1    2    0    0  0.16092384569E+03  0.97074143541E+02 -0.13315881259E+04  0.13505820266E+04  0.12500000000E+03 0.  0.
</event>
<event>
 5    0  0.5742667E-005  0.2308899E+03  0.7546771E-02  0.1126015E+00
         21   -1    0    0  502  501  0.00000000000E+00  0.00000000000E+00  0.19892378329E+03  0.19892378329E+03  0.00000000000E+00 0.  1.
         21   -1    0    0  501  502 -0.00000000000E+00 -0.00000000000E+00 -0.26799277014E+03  0.26799277014E+03  0.00000000000E+00 0.  1.
         25    1    1    2    0    0  0.41044593577E+01 -0.18443785955E+02  0.44234986004E+02  0.13393563310E+03  0.12500000000E+03 0.  0.
         25    1    1    2    0    0  0.74492890462E+02 -0.32134543423E+02 -0.17993959050E+02  0.15010197258E+03  0.12500000000E+03 0.  0.
         25    1    1    2    0    0 -0.78597349820E+02  0.50578329378E+02 -0.95310013802E+02  0.18287894776E+03  0.12500000000E+03 0.  0.
</event>
<event>
 5    0  0.5742667E-005  0.3505247E+03  0.7546771E-02  0.1062400E+00
         21   -1    0    0  502  501  0.00000000000E+00  0.00000000000E+00  0.88392590087E+02  0.88392590087E+02  0.00000000000E+00 0.  1.
         21   -1    0    0  501  502 -0.00000000000E+00 -0.00000000000E+00 -0.13900209821E+04  0.13900209821E+04  0.00000000000E+00 0.  1.
         25    1    1    2    0    0 -0.56425920920E+02 -0.13518442322E+03 -0.62565516962E+02  0.20248001567E+03  0.12500000000E+03 0.  0.
         25    1    1    2    0    0  0.73334857695E+02  0.86975746481E+02 -0.72333685439E+03  0.74282163859E+03  0.12500000000E+03 0.  0.
         25    1    1    2    0    0 -0.16908936775E+02  0.48208676737E+02 -0.51572602064E+03  0.53311191791E+03  0.12500000000E+03 0.  0.
</event>
<event>
 5    0  0.5742667E-005  0.2474238E+03  0.7546771E-02  0.1114944E+00
         21   -1    0    0  502  501  0.00000000000E+00  0.00000000000E+00  0.51088503330E+02  0.51088503330E+02  0.00000000000E+00 0. -1.
         21   -1    0    0  501  502 -0.00000000000E+00 -0.00000000000E+00 -0.11982838014E+04  0.11982838014E+04  0.00000000000E+00 0. -1.
         25    1    1    2    0    0 -0.89403310071E+02 -0.15345577223E+02 -0.25129491033E+03  0.29496198153E+03  0.12500000000E+03 0.  0.
         25    1    1    2    0    0  0.57685109770E+02 -0.52328269233E+02 -0.66729523382E+03  0.68335477516E+03  0.12500000000E+03 0.  0.
         25    1    1    2    0    0  0.31718200300E+02  0.67673846456E+02 -0.22860515391E+03  0.27105554803E+03  0.12500000000E+03 0.  0.
</event>
<event>
 5    0  0.5742667E-005  0.3420243E+03  0.7546771E-02  0.1065937E+00
         21   -1    0    0  502  501  0.00000000000E+00  0.00000000000E+00  0.24218753476E+03  0.24218753476E+03  0.00000000000E+00 0.  1.
         21   -1    0    0  501  502 -0.00000000000E+00 -0.00000000000E+00 -0.48301664786E+03  0.48301664786E+03  0.00000000000E+00 0.  1.
         25    1    1    2    0    0 -0.10182792171E+02 -0.67384004716E+02  0.25042184670E+02  0.14455588664E+03  0.12500000000E+03 0.  0.
         25    1    1    2    0    0 -0.11305149253E+02  0.20924346863E+03 -0.30065199427E+03  0.38720441271E+03  0.12500000000E+03 0.  0.
         25    1    1    2    0    0  0.21487941424E+02 -0.14185946391E+03  0.34780696504E+02  0.19344388328E+03  0.12500000000E+03 0.  0.
</event>
<event>
 5    0  0.5742667E-005  0.3256473E+03  0.7546771E-02  0.1073079E+00
         21   -1    0    0  502  501  0.00000000000E+00  0.00000000000E+00  0.50443337772E+02  0.50443337772E+02  0.00000000000E+00 0. -1.
         21   -1    0    0  501  502 -0.00000000000E+00 -0.00000000000E+00 -0.21022834311E+04  0.21022834311E+04  0.00000000000E+00 0. -1.
         25    1    1    2    0    0  0.45259444674E+02 -0.11984276961E+03 -0.91446411045E+03  0.93181560196E+03  0.12500000000E+03 0.  0.
         25    1    1    2    0    0 -0.62438092857E+02  0.22206542090E+03 -0.51871376148E+03  0.58129212359E+03  0.12500000000E+03 0.  0.
         25    1    1    2    0    0  0.17178648182E+02 -0.10222265129E+03 -0.61866222144E+03  0.63961904336E+03  0.12500000000E+03 0.  0.
</event>
<event>
 5    0  0.5742667E-005  0.2677648E+03  0.7546771E-02  0.1102566E+00
         21   -1    0    0  502  501  0.00000000000E+00  0.00000000000E+00  0.26808332594E+03  0.26808332594E+03  0.00000000000E+00 0. -1.
         21   -1    0    0  501  502 -0.00000000000E+00 -0.00000000000E+00 -0.26744670271E+03  0.26744670271E+03  0.00000000000E+00 0. -1.
         25    1    1    2    0    0  0.50008556520E+02 -0.11149924184E+03  0.10933574885E+03  0.20618497188E+03  0.12500000000E+03 0.  0.
         25    1    1    2    0    0  0.16553006031E+02  0.97007781603E+02 -0.97406787357E+02  0.18654113199E+03  0.12500000000E+03 0.  0.
         25    1    1    2    0    0 -0.66561562551E+02  0.14491460236E+02 -0.11292338259E+02  0.14280392478E+03  0.12500000000E+03 0.  0.
</event>
<event>
 5    0  0.5742667E-005  0.6854385E+03  0.7546771E-02  0.9742463E-01
         21   -1    0    0  502  501  0.00000000000E+00  0.00000000000E+00  0.14329456770E+04  0.14329456770E+04  0.00000000000E+00 0.  1.
         21   -1    0    0  501  502 -0.00000000000E+00 -0.00000000000E+00 -0.32787425739E+03  0.32787425739E+03  0.00000000000E+00 0.  1.
         25    1    1    2    0    0 -0.95827117075E+02  0.14215258741E+02 -0.16603948790E+03  0.22930115893E+03  0.12500000000E+03 0.  0.
         25    1    1    2    0    0 -0.13409460365E+03 -0.24520795760E+03  0.11018253664E+04  0.11435700430E+04  0.12500000000E+03 0.  0.
         25    1    1    2    0    0  0.22992172073E+03  0.23099269886E+03  0.16928554111E+03  0.38794873246E+03  0.12500000000E+03 0.  0.
</event>
<event>
 5    0  0.5742667E-005  0.2960268E+03  0.7546771E-02  0.1087244E+00
         21   -1    0    0  502  501  0.00000000000E+00  0.00000000000E+00  0.27736006686E+04  0.27736006686E+04  0.00000000000E+00 0.  1.
         21   -1    0    0  501  502 -0.00000000000E+00 -0.00000000000E+00 -0.31594973318E+02  0.31594973318E+02  0.00000000000E+00 0.  1.
         25    1    1    2    0    0  0.72629034644E+02 -0.50804522645E+02  0.34247799969E+03  0.37519629058E+03  0.12500000000E+03 0.  0.
         25    1    1    2    0    0 -0.18978381819E+01  0.13667191069E+03  0.77277370401E+03  0.79466156983E+03  0.12500000000E+03 0.  0.
         25    1    1    2    0    0 -0.70731196462E+02 -0.85867388043E+02  0.16267539916E+04  0.16353377815E+04  0.12500000000E+03 0.  0.
</event>
<event>
 5    0  0.5742667E-005  0.3958079E+03  0.7546771E-02  0.1045241E+00
         21   -1    0    0  502  501  0.00000000000E+00  0.00000000000E+00  0.58560493370E+03  0.58560493370E+03  0.00000000000E+00 0.  1.
         21   -1    0    0  501  502 -0.00000000000E+00 -0.00000000000E+00 -0.26752485193E+03  0.26752485193E+03  0.00000000000E+00 0.  1.
         25    1    1    2    0    0 -0.33358582574E+03  0.53583261409E+02  0.17981920772E+03  0.40262962695E+03  0.12500000000E+03 0.  0.
         25    1    1    2    0    0  0.23280542229E+03 -0.23710153033E+02  0.91043096492E+02  0.28048953888E+03  0.12500000000E+03 0.  0.
         25    1    1    2    0    0  0.10078040345E+03 -0.29873108377E+02  0.47217777561E+02  0.17001061979E+03  0.12500000000E+03 0.  0.
</event>
<event>
 5    0  0.5742667E-005  0.2762516E+03  0.7546771E-02  0.1097754E+00
         21   -1    0    0  502  501  0.00000000000E+00  0.00000000000E+00  0.80313720554E+02  0.80313720554E+02  0.00000000000E+00 0.  1.
         21   -1    0    0  501  502 -0.00000000000E+00 -0.00000000000E+00 -0.95021075940E+03  0.95021075940E+03  0.00000000000E+00 0.  1.
         25    1    1    2    0    0 -0.88750478698E+02 -0.55175836576E+01 -0.51692300836E+03  0.53920449531E+03  0.12500000000E+03 0.  0.
         25    1    1    2    0    0  0.42185030787E+02  0.10979939821E+03 -0.19458737592E+03  0.25947009758E+03  0.12500000000E+03 0.  0.
         25    1    1    2    0    0  0.46565447911E+02 -0.10428181455E+03 -0.15838665458E+03  0.23184988707E+03  0.12500000000E+03 0.  0.
</event>
<event>
 5    0  0.5742667E-005  0.2593282E+03  0.7546771E-02  0.1107548E+00
         21   -1    0    0  502  501  0.00000000000E+00  0.00000000000E+00  0.16975940117E+03  0.16975940117E+03  0.00000000000E+00 0. -1.
         21   -1    0    0  501  502 -0.00000000000E+00 -0.00000000000E+00 -0.39615547311E+03  0.39615547311E+03  0.00000000000E+00 0. -1.
         25    1    1    2    0    0 -0.77139870512E+02  0.15626357113E+02 -0.18723307326E+03  0.23848682643E+03  0.12500000000E+03 0.  0.
         25    1    1    2    0    0 -0.37715236493E+02  0.47754117755E+02 -0.45020051057E+02  0.14613247354E+03  0.12500000000E+03 0.  0.
         25    1    1    2    0    0  0.11485510700E+03 -0.63380474869E+02  0.58570523855E+01  0.18129557430E+03  0.12500000000E+03 0.  0.
</event>
<event>
 5    0  0.5742667E-005  0.2428863E+03  0.7546771E-02  0.1117885E+00
         21   -1    0    0  502  501  0.00000000000E+00  0.00000000000E+00  0.32132324031E+03  0.32132324031E+03  0.00000000000E+00 0. -1.
         21   -1    0    0  501  502 -0.00000000000E+00 -0.00000000000E+00 -0.18359632498E+03  0.18359632498E+03  0.00000000000E+00 0. -1.
         25    1    1    2    0    0 -0.24598516254E+02 -0.12105195499E+02  0.12497577699E+03  0.17887304882E+03  0.12500000000E+03 0.  0.
         25    1    1    2    0    0  0.51285134800E+02 -0.82352511592E+02 -0.30919274808E+02  0.16122376615E+03  0.12500000000E+03 0.  0.
         25    1    1    2    0    0 -0.26686618546E+02  0.94457707091E+02  0.43670413156E+02  0.16482275032E+03  0.12500000000E+03 0.  0.
</event>
<event>
 5    0  0.5742667E-005  0.2320714E+03  0.7546771E-02  0.1125190E+00
         21   -1    0    0  502  501  0.00000000000E+00  0.00000000000E+00  0.76179253912E+03  0.76179253912E+03  0.00000000000E+00 0. -1.
         21   -1    0    0  501  502 -0.00000000000E+00 -0.00000000000E+00 -0.70697880942E+02  0.70697880942E+02  0.00000000000E+00 0. -1.
         25    1    1    2    0    0 -0.35633180268E+02 -0.84636660545E+01  0.77744822348E+02  0.15169250008E+03  0.12500000000E+03 0.  0.
         25    1    1    2    0    0  0.69976929871E+02 -0.43301688307E+02  0.38625877511E+03  0.41423742983E+03  0.12500000000E+03 0.  0.
         25    1    1    2    0    0 -0.34343749602E+02  0.51765354362E+02  0.22709106072E+03  0.26656049015E+03  0.12500000000E+03 0.  0.
</event>
<event>
 5    0  0.5742667E-005  0.4038357E+03  0.7546771E-02  0.1042460E+00
         21   -1    0    0  502  501  0.00000000000E+00  0.00000000000E+00  0.61570377406E+03  0.61570377406E+03  0.00000000000E+00 0. -1.
         21   -1    0    0  501  502 -0.00000000000E+00 -0.00000000000E+00 -0.26487301009E+03  0.26487301009E+03  0.00000000000E+00 0. -1.
         25    1    1    2    0    0  0.57992121125E+02  0.10945616154E+03  0.38503270889E+02  0.18014227511E+03  0.12500000000E+03 0.  0.
         25    1    1    2    0    0  0.56253688110E+02  0.21640158573E+03  0.92029779233E+02  0.27219221884E+03  0.12500000000E+03 0.  0.
         25    1    1    2    0    0 -0.11424580923E+03 -0.32585774728E+03  0.22029771385E+03  0.42824229020E+03  0.12500000000E+03 0.  0.
</event>
<event>
 5    0  0.5742667E-005  0.3436519E+03  0.7546771E-02  0.1065251E+00
         21   -1    0    0  502  501  0.00000000000E+00  0.00000000000E+00  0.22856202132E+03  0.22856202132E+03  0.00000000000E+00 0. -1.
         21   -1    0    0  501  502 -0.00000000000E+00 -0.00000000000E+00 -0.51669394279E+03  0.51669394279E+03  0.00000000000E+00 0. -1.
         25    1    1    2    0    0  0.10869941891E+03 -0.79395887537E+02 -0.27586877975E+02  0.18575604019E+03  0.12500000000E+03 0.  0.
         25    1    1    2    0    0  0.49262116362E+02  0.50035770454E+02 -0.31728575752E+03  0.34817464922E+03  0.12500000000E+03 0.  0.
         25    1    1    2    0    0 -0.15796153527E+03  0.29360117083E+02  0.56740714031E+02  0.21132527471E+03  0.12500000000E+03 0.  0.
</event>
<event>
 5    0  0.5742667E-005  0.2547027E+03  0.7546771E-02  0.1110368E+00
         21   -1    0    0  502  501  0.00000000000E+00  0.00000000000E+00  0.53690324664E+03  0.53690324664E+03  0.00000000000E+00 0.  1.
         21   -1    0    0  501  502 -0.00000000000E+00 -0.00000000000E+00 -0.12082898290E+03  0.12082898290E+03  0.00000000000E+00 0.  1.
         25    1    1    2    0    0  0.10710209655E+03 -0.27856557436E+02  0.19215883167E+02  0.16805087635E+03  0.12500000000E+03 0.  0.
         25    1    1    2    0    0 -0.26541068318E+02 -0.14188355478E+02  0.14139403098E+03  0.19110994149E+03  0.12500000000E+03 0.  0.
         25    1    1    2    0    0 -0.80561028229E+02  0.42044912914E+02  0.25546434959E+03  0.29857141170E+03  0.12500000000E+03 0.  0.
</event>
<event>
 5    0  0.5742667E-005  0.2576683E+03  0.7546771E-02  0.1108552E+00
         21   -1    0    0  502  501  0.00000000000E+00  0.00000000000E+00  0.12384339845E+04  0.12384339845E+04  0.00000000000E+00 0. -1.
         21   -1    0    0  501  502 -0.00000000000E+00 -0.00000000000E+00 -0.53610394867E+02  0.53610394867E+02  0.00000000000E+00 0. -1.
         25    1    1    2    0    0 -0.60999171847E+02  0.49009976877E+02  0.28743311957E+03  0.32305676750E+03  0.12500000000E+03 0.  0.
         25    1    1    2    0    0 -0.83411696858E+01  0.92790179936E+02  0.49606982706E+03  0.51999025560E+03  0.12500000000E+03 0.  0.
         25    1    1    2    0    0  0.69340341533E+02 -0.14180015681E+03  0.40132064303E+03  0.44899735629E+03  0.12500000000E+03 0.  0.
</event>
<event>
 5    0  0.5742667E-005  0.4470532E+03  0.7546771E-02  0.1028604E+00
         21   -1    0    0  502  501  0.00000000000E+00  0.00000000000E+00  0.24132035973E+03  0.24132035973E+03  0.00000000000E+00 0. -1.
         21   -1    0    0  501  502 -0.00000000000E+00 -0.00000000000E+00 -0.82817945489E+03  0.82817945489E+03  0.00000000000E+00 0. -1.
         25    1    1    2    0    0  0.21035870408E+03 -0.16789195764E+03 -0.19218623207E+03  0.35355203523E+03  0.12500000000E+03 0.  0.
         25    1    1    2    0    0 -0.12603634708E+03  0.32450022667E+03 -0.31012649865E+03  0.48268934426E+03  0.12500000000E+03 0.  0.
         25    1    1    2    0    0 -0.84322356995E+02 -0.15660826903E+03 -0.84546364442E+02  0.23325843513E+03  0.12500000000E+03 0.  0.
</event>
<event>
 5    0  0.5742667E-005  0.5770175E+03  0.7546771E-02  0.9954269E-01
         21   -1    0    0  502  501  0.00000000000E+00  0.00000000000E+00  0.54039692991E+03  0.54039692991E+03  0.00000000000E+00 0.  1.
         21   -1    0    0  501  502 -0.00000000000E+00 -0.00000000000E+00 -0.61611969976E+03  0.61611969976E+03  0.00000000000E+00 0.  1.
         25    1    1    2    0    0  0.18154534591E+03 -0.16581644118E+03 -0.88933860701E+02  0.28980689496E+03  0.12500000000E+03 0.  0.
         25    1    1    2    0    0 -0.32013181607E+03  0.35056322112E+03 -0.19835701778E+03  0.52948036618E+03  0.12500000000E+03 0.  0.
         25    1    1    2    0    0  0.13858647016E+03 -0.18474677994E+03  0.21156810864E+03  0.33722936854E+03  0.12500000000E+03 0.  0.
</event>
<event>
 5    0  0.5742667E-005  0.2359898E+03  0.7546771E-02  0.1122494E+00
         21   -1    0    0  502  501  0.00000000000E+00  0.00000000000E+00  0.13426675076E+04  0.13426675076E+04  0.00000000000E+00 0. -1.
         21   -1    0    0  501  502 -0.00000000000E+00 -0.00000000000E+00 -0.41478007758E+02  0.41478007758E+02  0.00000000000E+00 0. -1.
         25    1    1    2    0    0  0.81978279701E+02  0.70954457389E+02  0.56353006600E+03  0.58732112907E+03  0.12500000000E+03 0.  0.
         25    1    1    2    0    0 -0.89310800371E+02 -0.84222638587E+02  0.41499788137E+03  0.45046433094E+03  0.12500000000E+03 0.  0.
         25    1    1    2    0    0  0.73325206700E+01  0.13268181198E+02  0.32266155245E+03  0.34636005532E+03  0.12500000000E+03 0.  0.
</event>
<event>
 5    0  0.5742667E-005  0.3830155E+03  0.7546771E-02  0.1049825E+00
         21   -1    0    0  502  501  0.00000000000E+00  0.00000000000E+00  0.10240441274E+04  0.10240441274E+04  0.00000000000E+00 0.  1.
         21   -1    0    0  501  502 -0.00000000000E+00 -0.00000000000E+00 -0.14325637892E+03  0.14325637892E+03  0.00000000000E+00 0.  1.
         25    1    1    2    0    0  0.38373999967E+02 -0.97738364986E+02 -0.35769130796E+02  0.16712205893E+03  0.12500000000E+03 0.  0.
         25    1    1    2    0    0 -0.15292578510E+03  0.78647878530E+02  0.36033246124E+03  0.41837335858E+03  0.12500000000E+03 0.  0.
         25    1    1    2    0    0  0.11455178514E+03  0.19090486455E+02  0.55622441806E+03  0.58180508884E+03  0.12500000000E+03 0.  0.
</event>
<event>
 5    0  0.5742667E-005  0.5141934E+03  0.7546771E-02  0.1010139E+00
         21   -1    0    0  502  501  0.00000000000E+00  0.00000000000E+00  0.19385064915E+04  0.19385064915E+04  0.00000000000E+00 0.  1.
         21   -1    0    0  501  502 -0.00000000000E+00 -0.00000000000E+00 -0.13639100439E+03  0.13639100439E+03  0.00000000000E+00 0.  1.
         25    1    1    2    0    0 -0.30412597306E+03 -0.20948539364E+03  0.46495772860E+03  0.60678449801E+03  0.12500000000E+03 0.  0.
         25    1    1    2    0    0  0.25710268878E+03  0.15378055476E+02  0.34477669963E+03  0.44814534448E+03  0.12500000000E+03 0.  0.
         25    1    1    2    0    0  0.47023284280E+02  0.19410733816E+03  0.99238105890E+03  0.10199676534E+04  0.12500000000E+03 0.  0.
</event>
<event>
 5    0  0.5742667E-005  0.3361931E+03  0.7546771E-02  0.1068429E+00
         21   -1    0    0  502  501  0.00000000000E+00  0.00000000000E+00  0.20745433145E+03  0.20745433145E+03  0.00000000000E+00 0. -1.
         21   -1    0    0  501  502 -0.00000000000E+00 -0.00000000000E+00 -0.54482268728E+03  0.54482268728E+03  0.00000000000E+00 0. -1.
         25    1    1    2    0    0  0.75383253456E+02 -0.12935874619E+03 -0.10947501310E+03  0.22366514841E+03  0.12500000000E+03 0.  0.
         25    1    1    2    0    0 -0.18350214451E+03  0.75844816426E+01 -0.23475080974E+03  0.32320814357E+03  0.12500000000E+03 0.  0.
         25    1    1    2    0    0  0.10811889105E+03  0.12177426455E+03  0.68574670103E+01  0.20540372675E+03  0.12500000000E+03 0.  0.
</event>
<event>
 5    0  0.5742667E-005  0.2869803E+03  0.7546771E-02  0.1091936E+00
         21   -1    0    0  502  501  0.00000000000E+00  0.00000000000E+00  0.25961461894E+03  0.25961461894E+03  0.00000000000E+00 0. -1.
         21   -1    0    0  501  502 -0.00000000000E+00 -0.00000000000E+00 -0.31723061765E+03  0.31723061765E+03  0.00000000000E+00 0. -1.
         25    1    1    2    0    0  0.18450373592E+03  0.34679411201E+02  0.21140988000E+02  0.22653086214E+03  0.12500000000E+03 0.  0.
         25    1    1    2    0    0 -0.30289830357E+02 -0.19564881761E+01 -0.75386569475E+02  0.14909539405E+03  0.12500000000E+03 0.  0.
         25    1    1    2    0    0 -0.15421390557E+03 -0.32722923025E+02 -0.33704172374E+01  0.20121898040E+03  0.12500000000E+03 0.  0.
</event>
<event>
 5    0  0.5742667E-005  0.3587463E+03  0.7546771E-02  0.1059081E+00
         21   -1    0    0  502  501  0.00000000000E+00  0.00000000000E+00  0.22867867788E+04  0.22867867788E+04  0.00000000000E+00 0.  1.
         21   -1    0    0  501  502 -0.00000000000E+00 -0.00000000000E+00 -0.56279358981E+02  0.56279358981E+02  0.00000000000E+00 0.  1.
         25    1    1    2    0    0  0.15347613071E+03  0.12987861060E+02  0.78208006868E+03  0.80684437227E+03  0.12500000000E+03 0.  0.
         25    1    1    2    0    0 -0.13314394199E+03 -0.20911010805E+03  0.82951237182E+03  0.87474003085E+03  0.12500000000E+03 0.  0.
         25    1    1    2    0    0 -0.20332188717E+02  0.19612224699E+03  0.61891497935E+03  0.66148173469E+03  0.12500000000E+03 0.  0.
</event>
<event>
 5    0  0.5742667E-005  0.3431287E+03  0.7546771E-02  0.1065471E+00
         21   -1    0    0  502  501  0.00000000000E+00  0.00000000000E+00  0.93175952869E+02  0.93175952869E+02  0.00000000000E+00 0.  1.
         21   -1    0    0  501  502 -0.00000000000E+00 -0.00000000000E+00 -0.12636018880E+04  0.12636018880E+04  0.00000000000E+00 0.  1.
         25    1    1    2    0    0  0.20705828005E+03 -0.12073353267E+03 -0.45749087640E+03  0.53138744739E+03  0.12500000000E+03 0.  0.
         25    1    1    2    0    0 -0.80148696208E+02  0.14356625145E+03 -0.53096953219E+03  0.56972688736E+03  0.12500000000E+03 0.  0.
         25    1    1    2    0    0 -0.12690958385E+03 -0.22832718779E+02 -0.18196552655E+03  0.25566350614E+03  0.12500000000E+03 0.  0.
</event>
<event>
 5    0  0.5875420E-005  0.2818421E+03  0.7546771E-02  0.1094687E+00
         21   -1    0    0  502  501  0.00000000000E+00  0.00000000000E+00  0.77955341377E+03  0.77955341377E+03  0.00000000000E+00 0.  1.
         21   -1    0    0  501  502 -0.00000000000E+00 -0.00000000000E+00 -0.10189802696E+03  0.10189802696E+03  0.00000000000E+00 0.  1.
         25    1    1    2    0    0  0.15154296092E+03 -0.60489960327E+02  0.13277221466E+03  0.24469933652E+03  0.12500000000E+03 0.  0.
         25    1    1    2    0    0 -0.13940494671E+03  0.40185407030E+02  0.24473020330E+03  0.31075147387E+03  0.12500000000E+03 0.  0.
         25    1    1    2    0    0 -0.12138014217E+02  0.20304553297E+02  0.30015296885E+03  0.32600063034E+03  0.12500000000E+03 0.  0.
</event>
<event>
 5    0  0.5742667E-005  0.3900603E+03  0.7546771E-02  0.1047277E+00
         21   -1    0    0  502  501  0.00000000000E+00  0.00000000000E+00  0.46775865081E+03  0.46775865081E+03  0.00000000000E+00 0. -1.
         21   -1    0    0  501  502 -0.00000000000E+00 -0.00000000000E+00 -0.32526826306E+03  0.32526826306E+03  0.00000000000E+00 0. -1.
         25    1    1    2    0    0 -0.91823967157E+02  0.17468958904E+03  0.24966988735E+03  0.34191833252E+03  0.12500000000E+03 0.  0.
         25    1    1    2    0    0 -0.10394859619E+03 -0.48895352581E+02 -0.72840092525E+02  0.18473425571E+03  0.12500000000E+03 0.  0.
         25    1    1    2    0    0  0.19577256334E+03 -0.12579423646E+03 -0.34339407077E+02  0.26637432565E+03  0.12500000000E+03 0.  0.
</event>
<event>
 5    0  0.5742667E-005  0.2762078E+03  0.7546771E-02  0.1097778E+00
         21   -1    0    0  502  501  0.00000000000E+00  0.00000000000E+00  0.10970003285E+03  0.10970003285E+03  0.00000000000E+00 0. -1.
         21   -1    0    0  501  502 -0.00000000000E+00 -0.00000000000E+00 -0.69544877446E+03  0.69544877446E+03  0.00000000000E+00 0. -1.
         25    1    1    2    0    0  0.79861927755E+02  0.32280052435E+02 -0.39998470819E+03  0.42782320656E+03  0.12500000000E+03 0.  0.
         25    1    1    2    0    0 -0.78479656113E+02 -0.12846344106E+02 -0.20121851603E+03  0.24987592156E+03  0.12500000000E+03 0.  0.
         25    1    1    2    0    0 -0.13822716417E+01 -0.19433708329E+02  0.15454482610E+02  0.12744967920E+03  0.12500000000E+03 0.  0.
</event>
<event>
 5    0  0.5742667E-005  0.2316590E+03  0.7546771E-02  0.1125478E+00
         21   -1    0    0  502  501  0.00000000000E+00  0.00000000000E+00  0.72808736161E+03  0.72808736161E+03  0.00000000000E+00 0.  1.
         21   -1    0    0  501  502 -0.00000000000E+00 -0.00000000000E+00 -0.73708042490E+02  0.73708042490E+02  0.00000000000E+00 0.  1.
         25    1    1    2    0    0 -0.41490696896E+02  0.38487487187E+02  0.24685319011E+03  0.28242567529E+03  0.12500000000E+03 0.  0.
         25    1    1    2    0    0 -0.36038441230E+02  0.10253562136E+00  0.66779910440E+02  0.14623042159E+03  0.12500000000E+03 0.  0.
         25    1    1    2    0    0  0.77529138126E+02 -0.38590022808E+02  0.34074621858E+03  0.37313930722E+03  0.12500000000E+03 0.  0.
</event>
<event>
 5    0  0.5742667E-005  0.4553831E+03  0.7546771E-02  0.1026129E+00
         21   -1    0    0  502  501  0.00000000000E+00  0.00000000000E+00  0.53976814063E+03  0.53976814063E+03  0.00000000000E+00 0. -1.
         21   -1    0    0  501  502 -0.00000000000E+00 -0.00000000000E+00 -0.38419046962E+03  0.38419046962E+03  0.00000000000E+00 0. -1.
         25    1    1    2    0    0  0.14669618042E+03 -0.43149171730E+02  0.40026924604E+03  0.44634301798E+03  0.12500000000E+03 0.  0.
         25    1    1    2    0    0 -0.78470714030E+02 -0.15113032365E+02  0.40303749991E+02  0.15373824824E+03  0.12500000000E+03 0.  0.
         25    1    1    2    0    0 -0.68225466392E+02  0.58262204095E+02 -0.28499532503E+03  0.32387734403E+03  0.12500000000E+03 0.  0.
</event>
<event>
 5    0  0.5742667E-005  0.3605607E+03  0.7546771E-02  0.1058362E+00
         21   -1    0    0  502  501  0.00000000000E+00  0.00000000000E+00  0.38097567964E+03  0.38097567964E+03  0.00000000000E+00 0.  1.
         21   -1    0    0  501  502 -0.00000000000E+00 -0.00000000000E+00 -0.34123972336E+03  0.34123972336E+03  0.00000000000E+00 0.  1.
         25    1    1    2    0    0 -0.28786312143E+02  0.37858647834E+02  0.22948907797E+03  0.26561657684E+03  0.12500000000E+03 0.  0.
         25    1    1    2    0    0 -0.61840765254E+02  0.86532907474E+02 -0.19919778828E+03  0.25810266016E+03  0.12500000000E+03 0.  0.
         25    1    1    2    0    0  0.90627077398E+02 -0.12439155531E+03  0.94446665888E+01  0.19849616600E+03  0.12500000000E+03 0.  0.
</event>
<event>
 5    0  0.5742667E-005  0.2672666E+03  0.7546771E-02  0.1102854E+00
         21   -1    0    0  502  501  0.00000000000E+00  0.00000000000E+00  0.93704817192E+02  0.93704817192E+02  0.00000000000E+00 0.  1.
         21   -1    0    0  501  502 -0.00000000000E+00 -0.00000000000E+00 -0.76230262493E+03  0.76230262493E+03  0.00000000000E+00 0.  1.
         25    1    1    2    0    0 -0.10572350074E+03  0.97186127032E+02 -0.16360026930E+03  0.25102320612E+03  0.12500000000E+03 0.  0.
         25    1    1    2    0    0  0.67624220867E+02  0.17323508871E+02 -0.32329490586E+03  0.35357847130E+03  0.12500000000E+03 0.  0.
         25    1    1    2    0    0  0.38099279878E+02 -0.11450963590E+03 -0.18170263258E+03  0.25140576471E+03  0.12500000000E+03 0.  0.
</event>
<event>
 5    0  0.5742667E-005  0.2755460E+03  0.7546771E-02  0.1098147E+00
         21   -1    0    0  502  501  0.00000000000E+00  0.00000000000E+00  0.14673687398E+03  0.14673687398E+03  0.00000000000E+00 0.  1.
         21   -1    0    0  501  502 -0.00000000000E+00 -0.00000000000E+00 -0.51742671277E+03  0.51742671277E+03  0.00000000000E+00 0.  1.
         25    1    1    2    0    0  0.95594011336E+02 -0.35513536789E+01 -0.11448145766E+03  0.19463255448E+03  0.12500000000E+03 0.  0.
         25    1    1    2    0    0  0.10400044527E+02  0.12890138335E+03 -0.74797464747E+02  0.19479062680E+03  0.12500000000E+03 0.  0.
         25    1    1    2    0    0 -0.10599405586E+03 -0.12535002967E+03 -0.18141091638E+03  0.27474040547E+03  0.12500000000E+03 0.  0.
</event>
<event>
 5    0  0.6183985E-005  0.3533620E+03  0.7546771E-02  0.1061244E+00
         21   -1    0    0  502  501  0.00000000000E+00  0.00000000000E+00  0.12001565626E+04  0.12001565626E+04  0.00000000000E+00 0. -1.
         21   -1    0    0  501  502 -0.00000000000E+00 -0.00000000000E+00 -0.10404035865E+03  0.10404035865E+03  0.00000000000E+00 0. -1.
         25    1    1    2    0    0 -0.33945100817E+02 -0.14203812422E+02  0.36880107938E+02  0.13542215667E+03  0.12500000000E+03 0.  0.
         25    1    1    2    0    0  0.10679329714E+03 -0.17939220341E+03  0.64239009834E+03  0.68693260907E+03  0.12500000000E+03 0.  0.
         25    1    1    2    0    0 -0.72848196324E+02  0.19359601583E+03  0.41684599769E+03  0.48184215553E+03  0.12500000000E+03 0.  0.
</event>
<event>
 5    0  0.5742667E-005  0.2374788E+03  0.7546771E-02  0.1121484E+00
         21   -1    0    0  502  501  0.00000000000E+00  0.00000000000E+00  0.14353695150E+03  0.14353695150E+03  0.00000000000E+00 0.  1.
         21   -1    0    0  501  502 -0.00000000000E+00 -0.00000000000E+00 -0.39290345894E+03  0.39290345894E+03  0.00000000000E+00 0.  1.
         25    1    1    2    0    0  0.51977023605E+02  0.16577083744E+02 -0.17563137925E+03  0.22236859505E+03  0.12500000000E+03 0.  0.
         25    1    1    2    0    0 -0.19086157377E+02 -0.75477406306E+02  0.12681811576E+02  0.14780713315E+03  0.12500000000E+03 0.  0.
         25    1    1    2    0    0 -0.32890866228E+02  0.58900322562E+02 -0.86416939761E+02  0.16626468223E+03  0.12500000000E+03 0.  0.
</event>
<event>
 5    0  0.5742667E-005  0.2404822E+03  0.7546771E-02  0.1119472E+00
         21   -1    0    0  502  501  0.00000000000E+00  0.00000000000E+00  0.37547085871E+03  0.37547085871E+03  0.00000000000E+00 0.  1.
         21   -1    0    0  501  502 -0.00000000000E+00 -0.00000000000E+00 -0.15402437781E+03  0.15402437781E+03  0.00000000000E+00 0.  1.
         25    1    1    2    0    0  0.97455237253E+02  0.99116603218E+02  0.11750782778E+03  0.22080469626E+03  0.12500000000E+03 0.  0.
         25    1    1    2    0    0 -0.37535833618E+02 -0.52479827788E+02  0.26303667901E+02  0.14310819010E+03  0.12500000000E+03 0.  0.
         25    1    1    2    0    0 -0.59919403635E+02 -0.46636775430E+02  0.77634985208E+02  0.16558235015E+03  0.12500000000E+03 0.  0.
</event>
<event>
 5    0  0.5742667E-005  0.2799836E+03  0.7546771E-02  0.1095698E+00
         21   -1    0    0  502  501  0.00000000000E+00  0.00000000000E+00  0.25452158437E+03  0.25452158437E+03  0.00000000000E+00 0. -1.
         21   -1    0    0  501  502 -0.00000000000E+00 -0.00000000000E+00 -0.30799287036E+03  0.30799287036E+03  0.00000000000E+00 0. -1.
         25    1    1    2    0    0  0.14305743724E+03 -0.74397190288E+02 -0.28950125732E+02  0.20606669321E+03  0.12500000000E+03 0.  0.
         25    1    1    2    0    0 -0.38054700908E+02  0.17869231401E+02  0.80272048976E+02  0.15438935047E+03  0.12500000000E+03 0.  0.
         25    1    1    2    0    0 -0.10500273633E+03  0.56527958887E+02 -0.10479320923E+03  0.20205841104E+03  0.12500000000E+03 0.  0.
</event>
<event>
 5    0  0.5742667E-005  0.3712365E+03  0.7546771E-02  0.1054221E+00
         21   -1    0    0  502  501  0.00000000000E+00  0.00000000000E+00  0.11116041449E+03  0.11116041449E+03  0.00000000000E+00 0.  1.
         21   -1    0    0  501  502 -0.00000000000E+00 -0.00000000000E+00 -0.12397986746E+04  0.12397986746E+04  0.00000000000E+00 0.  1.
         25    1    1    2    0    0  0.11946981433E+03 -0.18695349385E+02 -0.17202097215E+03  0.24461963838E+03  0.12500000000E+03 0.  0.
         25    1    1    2    0    0 -0.13326981673E+03  0.90343398656E+02 -0.93860841537E+03  0.96048609107E+03  0.12500000000E+03 0.  0.
         25    1    1    2    0    0  0.13800002407E+02 -0.71648049271E+02 -0.18008872603E+02  0.14585335966E+03  0.12500000000E+03 0.  0.
</event>
<event>
 5    0  0.5742667E-005  0.2399207E+03  0.7546771E-02  0.1119846E+00
         21   -1    0    0  502  501  0.00000000000E+00  0.00000000000E+00  0.15731589738E+03  0.15731589738E+03  0.00000000000E+00 0.  1.
         21   -1    0    0  501  502 -0.00000000000E+00 -0.00000000000E+00 -0.36590027752E+03  0.36590027752E+03  0.00000000000E+00 0.  1.
         25    1    1    2    0    0 -0.10204433494E+02  0.55711187738E+02 -0.18117757143E+02  0.13842369749E+03  0.12500000000E+03 0.  0.
         25    1    1    2    0    0 -0.65670362234E+02  0.42804668491E+02 -0.39669718580E+02  0.15278587203E+03  0.12500000000E+03 0.  0.
         25    1    1    2    0    0  0.75874795728E+02 -0.98515856228E+02 -0.15079690443E+03  0.23200660538E+03  0.12500000000E+03 0.  0.
</event>
<event>
 5    0  0.5742667E-005  0.4719911E+03  0.7546771E-02  0.1021360E+00
         21   -1    0    0  502  501  0.00000000000E+00  0.00000000000E+00  0.19416285260E+04  0.19416285260E+04  0.00000000000E+00 0. -1.
         21   -1    0    0  501  502 -0.00000000000E+00 -0.00000000000E+00 -0.11473644566E+03  0.11473644566E+03  0.00000000000E+00 0. -1.
         25    1    1    2    0    0 -0.27357736380E+03 -0.15283133867E+03  0.72609351828E+03  0.80064898011E+03  0.12500000000E+03 0.  0.
         25    1    1    2    0    0  0.21399572598E+03  0.47080801708E+02  0.15956350072E+03  0.29849000551E+03  0.12500000000E+03 0.  0.
         25    1    1    2    0    0  0.59581637814E+02  0.10575053697E+03  0.94123506136E+03  0.95722598605E+03  0.12500000000E+03 0.  0.
</event>
<event>
 5    0  0.5742667E-005  0.2569823E+03  0.7546771E-02  0.1108970E+00
         21   -1    0    0  502  501  0.00000000000E+00  0.00000000000E+00  0.20001533770E+03  0.20001533770E+03  0.00000000000E+00 0.  1.
         21   -1    0    0  501  502 -0.00000000000E+00 -0.00000000000E+00 -0.33017427854E+03  0.33017427854E+03  0.00000000000E+00 0.  1.
         25    1    1    2    0    0 -0.82713739143E+02 -0.39435070214E+02 -0.14331098927E+03  0.21109175031E+03  0.12500000000E+03 0.  0.
         25    1    1    2    0    0  0.94772489290E+01  0.81961422618E+02  0.59495075338E+02  0.16115879447E+03  0.12500000000E+03 0.  0.
         25    1    1    2    0    0  0.73236490214E+02 -0.42526352404E+02 -0.46343026914E+02  0.15793907145E+03  0.12500000000E+03 0.  0.
</event>
<event>
 5    0  0.5742667E-005  0.3766405E+03  0.7546771E-02  0.1052182E+00
         21   -1    0    0  502  501  0.00000000000E+00  0.00000000000E+00  0.11360433610E+03  0.11360433610E+03  0.00000000000E+00 0.  1.
         21   -1    0    0  501  502 -0.00000000000E+00 -0.00000000000E+00 -0.12487026853E+04  0.12487026853E+04  0.00000000000E+00 0. -1.
         25    1    1    2    0    0 -0.60396114196E+02  0.53368078459E+02 -0.28938390395E+03  0.32536730978E+03  0.12500000000E+03 0.  0.
         25    1    1    2    0    0  0.24729583666E+03 -0.13588263943E+03 -0.25785488482E+03  0.40216099283E+03  0.12500000000E+03 0.  0.
         25    1    1    2    0    0 -0.18689972247E+03  0.82514560972E+02 -0.58785956043E+03  0.63477871878E+03  0.12500000000E+03 0.  0.
</event>
<event>
 5    0  0.5742667E-005  0.2699144E+03  0.7546771E-02  0.1101329E+00
         21   -1    0    0  502  501  0.00000000000E+00  0.00000000000E+00  0.77824783285E+02  0.77824783285E+02  0.00000000000E+00 0.  1.
         21   -1    0    0  501  502 -0.00000000000E+00 -0.00000000000E+00 -0.93612605892E+03  0.93612605892E+03  0.00000000000E+00 0.  1.
         25    1    1    2    0    0 -0.14174371185E+03 -0.21929402742E+02 -0.28174789982E+03  0.33996920097E+03  0.12500000000E+03 0.  0.
         25    1    1    2    0    0  0.30884763099E+01  0.67022961263E+02 -0.34575754597E+03  0.37373104851E+03  0.12500000000E+03 0.  0.
         25    1    1    2    0    0  0.13865523554E+03 -0.45093558521E+02 -0.23079582985E+03  0.30025059273E+03  0.12500000000E+03 0.  0.
</event>
<event>
 5    0  0.5742667E-005  0.4202135E+03  0.7546771E-02  0.1036997E+00
         21   -1    0    0  502  501  0.00000000000E+00  0.00000000000E+00  0.13713051763E+04  0.13713051763E+04  0.00000000000E+00 0. -1.
         21   -1    0    0  501  502 -0.00000000000E+00 -0.00000000000E+00 -0.12876739449E+03  0.12876739449E+03  0.00000000000E+00 0. -1.
         25    1    1    2    0    0  0.11383730536E+03  0.24768291401E+02  0.75770318325E+03  0.77673130120E+03  0.12500000000E+03 0.  0.
         25    1    1    2    0    0 -0.21561142110E+03  0.15623237499E+03  0.27752487123E+03  0.40440313309E+03  0.12500000000E+03 0.  0.
         25    1    1    2    0    0  0.10177411574E+03 -0.18100066639E+03  0.20730972729E+03  0.31893813647E+03  0.12500000000E+03 0.  0.
</event>
<event>
 5    0  0.5742667E-005  0.3133665E+03  0.7546771E-02  0.1078743E+00
         21   -1    0    0  502  501  0.00000000000E+00  0.00000000000E+00  0.79641583129E+02  0.79641583129E+02  0.00000000000E+00 0. -1.
         21   -1    0    0  501  502 -0.00000000000E+00 -0.00000000000E+00 -0.12330064730E+04  0.12330064730E+04  0.00000000000E+00 0. -1.
         25    1    1    2    0    0 -0.11070127647E+03 -0.19049122213E+02 -0.61309242785E+03  0.63570824028E+03  0.12500000000E+03 0.  0.
         25    1    1    2    0    0  0.11583169960E+03 -0.79775092878E+02 -0.46299305031E+03  0.49976855915E+03  0.12500000000E+03 0.  0.
         25    1    1    2    0    0 -0.51304231358E+01  0.98824215090E+02 -0.77279411718E+02  0.17717125671E+03  0.12500000000E+03 0.  0.
</event>
<event>
 5    0  0.5742667E-005  0.3403310E+03  0.7546771E-02  0.1066655E+00
         21   -1    0    0  502  501  0.00000000000E+00  0.00000000000E+00  0.95040186387E+03  0.95040186387E+03  0.00000000000E+00 0. -1.
         21   -1    0    0  501  502 -0.00000000000E+00 -0.00000000000E+00 -0.12186968566E+03  0.12186968566E+03  0.00000000000E+00 0. -1.
         25    1    1    2    0    0 -0.14823985195E+03 -0.40957595810E+02  0.76426543492E+02  0.21241138131E+03  0.12500000000E+03 0.  0.
         25    1    1    2    0    0  0.18501075039E+03  0.12938951517E+03  0.43443255954E+03  0.50529919175E+03  0.12500000000E+03 0.  0.
         25    1    1    2    0    0 -0.36770898440E+02 -0.88431919363E+02  0.31767307518E+03  0.35456097646E+03  0.12500000000E+03 0.  0.
</event>
<event>
 5    0  0.5742667E-005  0.2955622E+03  0.7546771E-02  0.1087480E+00
         21   -1    0    0  502  501  0.00000000000E+00  0.00000000000E+00  0.72176896639E+03  0.72176896639E+03  0.00000000000E+00 0.  1.
         21   -1    0    0  501  502 -0.00000000000E+00 -0.00000000000E+00 -0.12103185183E+03  0.12103185183E+03  0.00000000000E+00 0. -1.
         25    1    1    2    0    0 -0.13640720639E+03 -0.37037259727E+02  0.84090209508E+02  0.20657891446E+03  0.12500000000E+03 0.  0.
         25    1    1    2    0    0  0.72341040690E+02 -0.33200993859E+02  0.72196463685E+02  0.16484192892E+03  0.12500000000E+03 0.  0.
         25    1    1    2    0    0  0.64066165699E+02  0.70238253586E+02  0.44445044136E+03  0.47137997484E+03  0.12500000000E+03 0.  0.
</event>
<event>
 5    0  0.5742667E-005  0.3915437E+03  0.7546771E-02  0.1046748E+00
         21   -1    0    0  502  501  0.00000000000E+00  0.00000000000E+00  0.44534696762E+03  0.44534696762E+03  0.00000000000E+00 0. -1.
         21   -1    0    0  501  502 -0.00000000000E+00 -0.00000000000E+00 -0.34424060071E+03  0.34424060071E+03  0.00000000000E+00 0. -1.
         25    1    1    2    0    0 -0.18554587827E+03  0.56875982062E+02  0.15645304001E+03  0.27886323531E+03  0.12500000000E+03 0.  0.
         25    1    1    2    0    0  0.15101010253E+03 -0.17789178439E+03 -0.15551605645E+03  0.30701755949E+03  0.12500000000E+03 0.  0.
         25    1    1    2    0    0  0.34535775744E+02  0.12101580233E+03  0.10016938334E+03  0.20370677352E+03  0.12500000000E+03 0.  0.
</event>
<event>
 5    0  0.6138520E-005  0.2466883E+03  0.7546771E-02  0.1115416E+00
         21   -1    0    0  502  501  0.00000000000E+00  0.00000000000E+00  0.63760877788E+03  0.63760877788E+03  0.00000000000E+00 0. -1.
         21   -1    0    0  501  502 -0.00000000000E+00 -0.00000000000E+00 -0.95442726138E+02  0.95442726138E+02  0.00000000000E+00 0. -1.
         25    1    1    2    0    0  0.21829962002E+02 -0.83043058473E+02  0.23957680013E+03  0.28353966206E+03  0.12500000000E+03 0.  0.
         25    1    1    2    0    0 -0.26856677669E+02 -0.22851773811E+02  0.24222298901E+03  0.27484624994E+03  0.12500000000E+03 0.  0.
         25    1    1    2    0    0  0.50267156676E+01  0.10589483228E+03  0.60366262608E+02  0.17466559202E+03  0.12500000000E+03 0.  0.
</event>
<event>
 5    0  0.5742667E-005  0.2431427E+03  0.7546771E-02  0.1117717E+00
         21   -1    0    0  502  501  0.00000000000E+00  0.00000000000E+00  0.41780196377E+03  0.41780196377E+03  0.00000000000E+00 0. -1.
         21   -1    0    0  501  502 -0.00000000000E+00 -0.00000000000E+00 -0.14149853114E+03  0.14149853114E+03  0.00000000000E+00 0. -1.
         25    1    1    2    0    0  0.90934103207E+02 -0.21103906917E+01  0.62290123909E+02  0.16666890655E+03  0.12500000000E+03 0.  0.
         25    1    1    2    0    0 -0.38392801290E+02 -0.23992885607E+02 -0.57697725883E+01  0.13307124418E+03  0.12500000000E+03 0.  0.
         25    1    1    2    0    0 -0.52541301917E+02  0.26103276299E+02  0.21978308132E+03  0.25956034419E+03  0.12500000000E+03 0.  0.
</event>
<event>
 5    0  0.5742667E-005  0.3113501E+03  0.7546771E-02  0.1079701E+00
         21   -1    0    0  502  501  0.00000000000E+00  0.00000000000E+00  0.21616299562E+03  0.21616299562E+03  0.00000000000E+00 0.  1.
         21   -1    0    0  501  502 -0.00000000000E+00 -0.00000000000E+00 -0.44845269663E+03  0.44845269663E+03  0.00000000000E+00 0.  1.
         25    1    1    2    0    0 -0.12579470571E+01 -0.13606558526E+03 -0.75662137871E+02  0.19966267811E+03  0.12500000000E+03 0.  0.
         25    1    1    2    0    0 -0.22006533356E+02  0.14085365075E+03 -0.24517669782E+03  0.30993652833E+03  0.12500000000E+03 0.  0.
         25    1    1    2    0    0  0.23264480413E+02 -0.47880654920E+01  0.88549134686E+02  0.15501648581E+03  0.12500000000E+03 0.  0.
</event>
<event>
 5    0  0.6148231E-005  0.3376259E+03  0.7546771E-02  0.1067812E+00
         21   -1    0    0  502  501  0.00000000000E+00  0.00000000000E+00  0.44095852451E+03  0.44095852451E+03  0.00000000000E+00 0.  1.
         21   -1    0    0  501  502 -0.00000000000E+00 -0.00000000000E+00 -0.25850792747E+03  0.25850792747E+03  0.00000000000E+00 0.  1.
         25    1    1    2    0    0  0.16246070446E+03 -0.64788426088E+02 -0.34197179340E+02  0.21768203354E+03  0.12500000000E+03 0.  0.
         25    1    1    2    0    0 -0.19446646798E+03  0.60695824520E+02  0.11362895835E+02  0.23928080927E+03  0.12500000000E+03 0.  0.
         25    1    1    2    0    0  0.32005763518E+02  0.40926015684E+01  0.20528488054E+03  0.24250360918E+03  0.12500000000E+03 0.  0.
</event>
<event>
 5    0  0.5742667E-005  0.2832746E+03  0.7546771E-02  0.1093914E+00
         21   -1    0    0  502  501  0.00000000000E+00  0.00000000000E+00  0.45012955708E+03  0.45012955708E+03  0.00000000000E+00 0.  1.
         21   -1    0    0  501  502 -0.00000000000E+00 -0.00000000000E+00 -0.17826974672E+03  0.17826974672E+03  0.00000000000E+00 0.  1.
         25    1    1    2    0    0  0.16106797671E+03 -0.54498679329E+02  0.16694781642E+03  0.26909026846E+03  0.12500000000E+03 0.  0.
         25    1    1    2    0    0 -0.35562048044E+02  0.91104763682E+02  0.21631895353E+02  0.16018013648E+03  0.12500000000E+03 0.  0.
         25    1    1    2    0    0 -0.12550592867E+03 -0.36606084353E+02  0.83280098586E+02  0.19912889886E+03  0.12500000000E+03 0.  0.
</event>
<event>
 5    0  0.5742667E-005  0.4541896E+03  0.7546771E-02  0.1026480E+00
         21   -1    0    0  502  501  0.00000000000E+00  0.00000000000E+00  0.37165878449E+03  0.37165878449E+03  0.00000000000E+00 0.  1.
         21   -1    0    0  501  502 -0.00000000000E+00 -0.00000000000E+00 -0.55504722620E+03  0.55504722620E+03  0.00000000000E+00 0.  1.
         25    1    1    2    0    0 -0.34216308716E+03  0.62579137820E+02 -0.25164507462E+03  0.44714871160E+03  0.12500000000E+03 0.  0.
         25    1    1    2    0    0  0.20661773821E+03 -0.12635183283E+03 -0.94590542365E+00  0.27254645502E+03  0.12500000000E+03 0.  0.
         25    1    1    2    0    0  0.13554534894E+03  0.63772695015E+02  0.69202538331E+02  0.20701084407E+03  0.12500000000E+03 0.  0.
</event>
<event>
 5    0  0.8627415E-005  0.8622128E+03  0.7546771E-02  0.9474090E-01
         21   -1    0    0  502  501  0.00000000000E+00  0.00000000000E+00  0.55521071247E+03  0.55521071247E+03  0.00000000000E+00 0. -1.
         21   -1    0    0  501  502 -0.00000000000E+00 -0.00000000000E+00 -0.13389707759E+04  0.13389707759E+04  0.00000000000E+00 0. -1.
         25    1    1    2    0    0 -0.55997673053E+03 -0.30136686496E+03 -0.68213564758E+03  0.94091974564E+03  0.12500000000E+03 0.  0.
         25    1    1    2    0    0  0.42462113031E+03  0.39393500108E+03 -0.30258755147E+03  0.66533609228E+03  0.12500000000E+03 0.  0.
         25    1    1    2    0    0  0.13535560022E+03 -0.92568136117E+02  0.20096313560E+03  0.28792565048E+03  0.12500000000E+03 0.  0.
</event>
<event>
 5    0  0.5742667E-005  0.2438036E+03  0.7546771E-02  0.1117285E+00
         21   -1    0    0  502  501  0.00000000000E+00  0.00000000000E+00  0.59677016011E+03  0.59677016011E+03  0.00000000000E+00 0.  1.
         21   -1    0    0  501  502 -0.00000000000E+00 -0.00000000000E+00 -0.99603174974E+02  0.99603174974E+02  0.00000000000E+00 0.  1.
         25    1    1    2    0    0  0.73182108190E+02 -0.61788659624E+02  0.13516280506E+03  0.20752697003E+03  0.12500000000E+03 0.  0.
         25    1    1    2    0    0 -0.48953967104E+02  0.11375821484E+03  0.12862206767E+03  0.21795884619E+03  0.12500000000E+03 0.  0.
         25    1    1    2    0    0 -0.24228141086E+02 -0.51969555214E+02  0.23338211240E+03  0.27088751886E+03  0.12500000000E+03 0.  0.
</event>
<event>
 5    0  0.5742667E-005  0.2371653E+03  0.7546771E-02  0.1121696E+00
         21   -1    0    0  502  501  0.00000000000E+00  0.00000000000E+00  0.58294334552E+03  0.58294334552E+03  0.00000000000E+00 0.  1.
         21   -1    0    0  501  502 -0.00000000000E+00 -0.00000000000E+00 -0.96488562292E+02  0.96488562292E+02  0.00000000000E+00 0.  1.
         25    1    1    2    0    0  0.92497788288E+02 -0.67258349111E+02  0.93058932829E+02  0.19329896881E+03  0.12500000000E+03 0.  0.
         25    1    1    2    0    0 -0.65380036821E+02  0.38067956773E+00  0.20338321708E+03  0.24751651888E+03  0.12500000000E+03 0.  0.
         25    1    1    2    0    0 -0.27117751468E+02  0.66877669543E+02  0.19001263332E+03  0.23861642012E+03  0.12500000000E+03 0.  0.
</event>
<event>
 5    0  0.5742667E-005  0.2561417E+03  0.7546771E-02  0.1109484E+00
         21   -1    0    0  502  501  0.00000000000E+00  0.00000000000E+00  0.74299828797E+02  0.74299828797E+02  0.00000000000E+00 0.  1.
         21   -1    0    0  501  502 -0.00000000000E+00 -0.00000000000E+00 -0.88302436817E+03  0.88302436817E+03  0.00000000000E+00 0.  1.
         25    1    1    2    0    0 -0.50868108490E+02  0.70027799548E+02 -0.29261859666E+03  0.32976067122E+03  0.12500000000E+03 0.  0.
         25    1    1    2    0    0 -0.69065084023E+02  0.30833926361E+02 -0.29448711160E+03  0.32873754843E+03  0.12500000000E+03 0.  0.
         25    1    1    2    0    0  0.11993319251E+03 -0.10086172591E+03 -0.22161883111E+03  0.29882597732E+03  0.12500000000E+03 0.  0.
</event>
<event>
 5    0  0.5742667E-005  0.3940312E+03  0.7546771E-02  0.1045866E+00
         21   -1    0    0  502  501  0.00000000000E+00  0.00000000000E+00  0.63516035080E+03  0.63516035080E+03  0.00000000000E+00 0.  1.
         21   -1    0    0  501  502 -0.00000000000E+00 -0.00000000000E+00 -0.24444313650E+03  0.24444313650E+03  0.00000000000E+00 0.  1.
         25    1    1    2    0    0 -0.22672088543E+03 -0.16658509428E+03  0.27695800847E+03  0.41410589465E+03  0.12500000000E+03 0.  0.
         25    1    1    2    0    0  0.18939316382E+03  0.90087800339E+02  0.17701667084E+03  0.30157168970E+03  0.12500000000E+03 0.  0.
         25    1    1    2    0    0  0.37327721604E+02  0.76497293943E+02 -0.63257465003E+02  0.16392590295E+03  0.12500000000E+03 0.  0.
</event>
<event>
 5    0  0.5742667E-005  0.2765582E+03  0.7546771E-02  0.1097584E+00
         21   -1    0    0  502  501  0.00000000000E+00  0.00000000000E+00  0.11004915507E+03  0.11004915507E+03  0.00000000000E+00 0.  1.
         21   -1    0    0  501  502 -0.00000000000E+00 -0.00000000000E+00 -0.69500261785E+03  0.69500261785E+03  0.00000000000E+00 0.  1.
         25    1    1    2    0    0  0.10175365360E+03 -0.56494528519E+02 -0.25335729678E+03  0.30554927198E+03  0.12500000000E+03 0.  0.
         25    1    1    2    0    0  0.16238478984E+02 -0.70442677961E+02 -0.20623564803E+03  0.25176179535E+03  0.12500000000E+03 0.  0.
         25    1    1    2    0    0 -0.11799213258E+03  0.12693720648E+03 -0.12536051796E+03  0.24774070559E+03  0.12500000000E+03 0.  0.
</event>
<event>
 5    0  0.5742667E-005  0.3091175E+03  0.7546771E-02  0.1080770E+00
         21   -1    0    0  502  501  0.00000000000E+00  0.00000000000E+00  0.15175749592E+04  0.15175749592E+04  0.00000000000E+00 0.  1.
         21   -1    0    0  501  502 -0.00000000000E+00 -0.00000000000E+00 -0.62964695357E+02  0.62964695357E+02  0.00000000000E+00 0.  1.
         25    1    1    2    0    0 -0.59588688142E+02 -0.15573673956E+03  0.30201635772E+03  0.36693817481E+03  0.12500000000E+03 0.  0.
         25    1    1    2    0    0  0.10605663245E+03  0.59155295635E+02  0.86343605433E+03  0.88084855577E+03  0.12500000000E+03 0.  0.
         25    1    1    2    0    0 -0.46467944306E+02  0.96581443922E+02  0.28915785177E+03  0.33275292395E+03  0.12500000000E+03 0.  0.
</event>
<event>
 5    0  0.6593265E-005  0.2841921E+03  0.7546771E-02  0.1093421E+00
         21   -1    0    0  502  501  0.00000000000E+00  0.00000000000E+00  0.20085726125E+03  0.20085726125E+03  0.00000000000E+00 0.  1.
         21   -1    0    0  501  502 -0.00000000000E+00 -0.00000000000E+00 -0.40210225761E+03  0.40210225761E+03  0.00000000000E+00 0.  1.
         25    1    1    2    0    0  0.23067309626E+02  0.17199888116E+03 -0.94436794755E+02  0.23379269470E+03  0.12500000000E+03 0.  0.
         25    1    1    2    0    0 -0.96715950899E+02 -0.90302734278E+02 -0.25275389271E+02  0.18377269732E+03  0.12500000000E+03 0.  0.
         25    1    1    2    0    0  0.73648641273E+02 -0.81696146881E+02 -0.81532812332E+02  0.18539412683E+03  0.12500000000E+03 0.  0.
</event>
<event>
 5    0  0.5742667E-005  0.2621418E+03  0.7546771E-02  0.1105863E+00
         21   -1    0    0  502  501  0.00000000000E+00  0.00000000000E+00  0.57788307272E+03  0.57788307272E+03  0.00000000000E+00 0.  1.
         21   -1    0    0  501  502 -0.00000000000E+00 -0.00000000000E+00 -0.11891388532E+03  0.11891388532E+03  0.00000000000E+00 0.  1.
         25    1    1    2    0    0  0.29709445516E+01  0.39478750688E+02 -0.12336896832E+02  0.13169888872E+03  0.12500000000E+03 0.  0.
         25    1    1    2    0    0  0.12197027092E+02 -0.10932863461E+03  0.22716149053E+03  0.28165379563E+03  0.12500000000E+03 0.  0.
         25    1    1    2    0    0 -0.15167971644E+02  0.69849883918E+02  0.24414459371E+03  0.28344427368E+03  0.12500000000E+03 0.  0.
</event>
<event>
 5    0  0.5742667E-005  0.2335832E+03  0.7546771E-02  0.1124143E+00
         21   -1    0    0  502  501  0.00000000000E+00  0.00000000000E+00  0.13357470550E+04  0.13357470550E+04  0.00000000000E+00 0.  1.
         21   -1    0    0  501  502 -0.00000000000E+00 -0.00000000000E+00 -0.40846898283E+02  0.40846898283E+02  0.00000000000E+00 0.  1.
         25    1    1    2    0    0 -0.92288016592E+01  0.63790659923E+02  0.29624241347E+03  0.32793137485E+03  0.12500000000E+03 0.  0.
         25    1    1    2    0    0  0.84979795405E+02 -0.64770861733E+01  0.63107599529E+03  0.64895718665E+03  0.12500000000E+03 0.  0.
         25    1    1    2    0    0 -0.75750993746E+02 -0.57313573749E+02  0.36758174796E+03  0.39970539178E+03  0.12500000000E+03 0.  0.
</event>
<event>
 5    0  0.6383336E-005  0.4407285E+03  0.7546771E-02  0.1030524E+00
         21   -1    0    0  502  501  0.00000000000E+00  0.00000000000E+00  0.30611073643E+03  0.30611073643E+03  0.00000000000E+00 0.  1.
         21   -1    0    0  501  502 -0.00000000000E+00 -0.00000000000E+00 -0.63454680351E+03  0.63454680351E+03  0.00000000000E+00 0.  1.
         25    1    1    2    0    0  0.20304823051E+03 -0.13442859441E+03 -0.25887773625E+03  0.37675232347E+03  0.12500000000E+03 0.  0.
         25    1    1    2    0    0 -0.88415780457E+02  0.11074893334E+03 -0.25115169898E+03  0.31430057647E+03  0.12500000000E+03 0.  0.
         25    1    1    2    0    0 -0.11463245006E+03  0.23679661074E+02  0.18159336815E+03  0.24960464000E+03  0.12500000000E+03 0.  0.
</event>
<event>
 5    0  0.5742667E-005  0.2527954E+03  0.7546771E-02  0.1111551E+00
         21   -1    0    0  502  501  0.00000000000E+00  0.00000000000E+00  0.55483596672E+02  0.55483596672E+02  0.00000000000E+00 0. -1.
         21   -1    0    0  501  502 -0.00000000000E+00 -0.00000000000E+00 -0.11517910709E+04  0.11517910709E+04  0.00000000000E+00 0. -1.
         25    1    1    2    0    0 -0.17949804136E+02 -0.87179741503E+02 -0.22276734429E+03  0.27050469955E+03  0.12500000000E+03 0.  0.
         25    1    1    2    0    0 -0.11293212338E+02  0.19402962666E+02 -0.69572938431E+03  0.70722583932E+03  0.12500000000E+03 0.  0.
         25    1    1    2    0    0  0.29243016474E+02  0.67776778837E+02 -0.17781074563E+03  0.22954412870E+03  0.12500000000E+03 0.  0.
</event>
<event>
 5    0  0.5742667E-005  0.3883863E+03  0.7546771E-02  0.1047877E+00
         21   -1    0    0  502  501  0.00000000000E+00  0.00000000000E+00  0.14005604444E+03  0.14005604444E+03  0.00000000000E+00 0. -1.
         21   -1    0    0  501  502 -0.00000000000E+00 -0.00000000000E+00 -0.10770255173E+04  0.10770255173E+04  0.00000000000E+00 0. -1.
         25    1    1    2    0    0  0.56040600664E+02 -0.20859606394E+03 -0.27499359183E+03  0.37134800708E+03  0.12500000000E+03 0.  0.
         25    1    1    2    0    0  0.98595046132E+02  0.25970899752E+02 -0.51218023715E+03  0.53698143924E+03  0.12500000000E+03 0.  0.
         25    1    1    2    0    0 -0.15463564680E+03  0.18262516419E+03 -0.14979564389E+03  0.30875211543E+03  0.12500000000E+03 0.  0.
</event>
<event>
 5    0  0.5742667E-005  0.3629945E+03  0.7546771E-02  0.1057404E+00
         21   -1    0    0  502  501  0.00000000000E+00  0.00000000000E+00  0.49404914362E+03  0.49404914362E+03  0.00000000000E+00 0.  1.
         21   -1    0    0  501  502 -0.00000000000E+00 -0.00000000000E+00 -0.26670431405E+03  0.26670431405E+03  0.00000000000E+00 0.  1.
         25    1    1    2    0    0  0.93202345984E+02 -0.71149330265E+02  0.84549783187E+02  0.19110879187E+03  0.12500000000E+03 0.  0.
         25    1    1    2    0    0  0.13412624097E+03 -0.81846518225E+02  0.17552544321E+03  0.26668873669E+03  0.12500000000E+03 0.  0.
         25    1    1    2    0    0 -0.22732858696E+03  0.15299584849E+03 -0.32730396825E+02  0.30295592910E+03  0.12500000000E+03 0.  0.
</event>
<event>
 5    0  0.5742667E-005  0.3362700E+03  0.7546771E-02  0.1068396E+00
         21   -1    0    0  502  501  0.00000000000E+00  0.00000000000E+00  0.45656403479E+03  0.45656403479E+03  0.00000000000E+00 0.  1.
         21   -1    0    0  501  502 -0.00000000000E+00 -0.00000000000E+00 -0.24767060160E+03  0.24767060160E+03  0.00000000000E+00 0.  1.
         25    1    1    2    0    0  0.73874942637E+02  0.23720029272E+03  0.12159754821E+03  0.30353327618E+03  0.12500000000E+03 0.  0.
         25    1    1    2    0    0 -0.11197049597E+03 -0.90928789454E+02  0.14247928304E+02  0.19139864205E+03  0.12500000000E+03 0.  0.
         25    1    1    2    0    0  0.38095553331E+02 -0.14627150327E+03  0.73047956674E+02  0.20930271815E+03  0.12500000000E+03 0.  0.
</event>
<event>
 5    0  0.5742667E-005  0.2195332E+03  0.7546771E-02  0.1134232E+00
         21   -1    0    0  502  501  0.00000000000E+00  0.00000000000E+00  0.60022670407E+03  0.60022670407E+03  0.00000000000E+00 0. -1.
         21   -1    0    0  501  502 -0.00000000000E+00 -0.00000000000E+00 -0.80294383793E+02  0.80294383793E+02  0.00000000000E+00 0. -1.
         25    1    1    2    0    0 -0.24100609747E+01 -0.31712090975E+02  0.12389555388E+03  0.17884790572E+03  0.12500000000E+03 0.  0.
         25    1    1    2    0    0  0.58502632527E+02  0.83327955481E+02  0.19611729444E+03  0.25387614964E+03  0.12500000000E+03 0.  0.
         25    1    1    2    0    0 -0.56092571553E+02 -0.51615864505E+02  0.19991947196E+03  0.24779703251E+03  0.12500000000E+03 0.  0.
</event>
<event>
 5    0  0.5742667E-005  0.3576846E+03  0.7546771E-02  0.1059504E+00
         21   -1    0    0  502  501  0.00000000000E+00  0.00000000000E+00  0.24638439672E+03  0.24638439672E+03  0.00000000000E+00 0.  1.
         21   -1    0    0  501  502 -0.00000000000E+00 -0.00000000000E+00 -0.51926289369E+03  0.51926289369E+03  0.00000000000E+00 0.  1.
         25    1    1    2    0    0 -0.23432005289E+03 -0.11465353172E+03 -0.16716892460E+02  0.28975122780E+03  0.12500000000E+03 0.  0.
         25    1    1    2    0    0  0.64496660224E+02 -0.29195981927E+02 -0.11629168015E+03  0.18482689040E+03  0.12500000000E+03 0.  0.
         25    1    1    2    0    0  0.16982339266E+03  0.14384951365E+03 -0.13986992436E+03  0.29106917221E+03  0.12500000000E+03 0.  0.
</event>
<event>
 5    0  0.5742667E-005  0.3346558E+03  0.7546771E-02  0.1069095E+00
         21   -1    0    0  502  501  0.00000000000E+00  0.00000000000E+00  0.12341885724E+03  0.12341885724E+03  0.00000000000E+00 0. -1.
         21   -1    0    0  501  502 -0.00000000000E+00 -0.00000000000E+00 -0.90743425546E+03  0.90743425546E+03  0.00000000000E+00 0. -1.
         25    1    1    2    0    0 -0.62453975530E+02  0.12082762178E+03 -0.13038723133E+03  0.22610980372E+03  0.12500000000E+03 0.  0.
         25    1    1    2    0    0  0.23107093931E+02  0.11463022724E+03 -0.39829244434E+03  0.43351574135E+03  0.12500000000E+03 0.  0.
         25    1    1    2    0    0  0.39346881599E+02 -0.23545784902E+03 -0.25533572255E+03  0.37122756763E+03  0.12500000000E+03 0.  0.
</event>
<event>
 5    0  0.5742667E-005  0.2461604E+03  0.7546771E-02  0.1115756E+00
         21   -1    0    0  502  501  0.00000000000E+00  0.00000000000E+00  0.10890719783E+03  0.10890719783E+03  0.00000000000E+00 0.  1.
         21   -1    0    0  501  502 -0.00000000000E+00 -0.00000000000E+00 -0.55639046734E+03  0.55639046734E+03  0.00000000000E+00 0.  1.
         25    1    1    2    0    0  0.42515522495E+02 -0.56638023252E+02 -0.10999773315E+03  0.18094180454E+03  0.12500000000E+03 0.  0.
         25    1    1    2    0    0 -0.20777522691E+02  0.13800369959E+03 -0.13057224349E+03  0.22836557823E+03  0.12500000000E+03 0.  0.
         25    1    1    2    0    0 -0.21737999805E+02 -0.81365676335E+02 -0.20691329287E+03  0.25599028240E+03  0.12500000000E+03 0.  0.
</event>
<event>
 5    0  0.5742667E-005  0.3034443E+03  0.7546771E-02  0.1083531E+00
         21   -1    0    0  502  501  0.00000000000E+00  0.00000000000E+00  0.38899612587E+03  0.38899612587E+03  0.00000000000E+00 0. -1.
         21   -1    0    0  501  502 -0.00000000000E+00 -0.00000000000E+00 -0.23670785620E+03  0.23670785620E+03  0.00000000000E+00 0. -1.
         25    1    1    2    0    0 -0.60865072965E+02 -0.23617934339E+02  0.18042894155E+03  0.22900211108E+03  0.12500000000E+03 0.  0.
         25    1    1    2    0    0 -0.82815407779E+02 -0.83270337676E+02 -0.46019283723E+02  0.17758129230E+03  0.12500000000E+03 0.  0.
         25    1    1    2    0    0  0.14368048074E+03  0.10688827202E+03  0.17878611843E+02  0.21912057868E+03  0.12500000000E+03 0.  0.
</event>
<event>
 5    0  0.5742667E-005  0.2731778E+03  0.7546771E-02  0.1099475E+00
         21   -1    0    0  502  501  0.00000000000E+00  0.00000000000E+00  0.93207556145E+03  0.93207556145E+03  0.00000000000E+00 0. -1.
         21   -1    0    0  501  502 -0.00000000000E+00 -0.00000000000E+00 -0.80064425818E+02  0.80064425818E+02  0.00000000000E+00 0. -1.
         25    1    1    2    0    0  0.12936067290E+03  0.94613000682E+02  0.36580740473E+03  0.41848041884E+03  0.12500000000E+03 0.  0.
         25    1    1    2    0    0  0.16263439961E+02 -0.58686230692E+02  0.25999871664E+03  0.29484386683E+03  0.12500000000E+03 0.  0.
         25    1    1    2    0    0 -0.14562411286E+03 -0.35926769990E+02  0.22620501426E+03  0.29881570160E+03  0.12500000000E+03 0.  0.
</event>
<event>
 5    0  0.5762278E-005  0.4315471E+03  0.7546771E-02  0.1033372E+00
         21   -1    0    0  502  501  0.00000000000E+00  0.00000000000E+00  0.24708364466E+03  0.24708364466E+03  0.00000000000E+00 0. -1.
         21   -1    0    0  501  502 -0.00000000000E+00 -0.00000000000E+00 -0.75372420962E+03  0.75372420962E+03  0.00000000000E+00 0. -1.
         25    1    1    2    0    0  0.44887961714E+02 -0.12394511020E+03 -0.44699160346E+03  0.48249747462E+03  0.12500000000E+03 0.  0.
         25    1    1    2    0    0 -0.15034810112E+03 -0.10515168571E+03  0.27365474006E+02  0.22368571185E+03  0.12500000000E+03 0.  0.
         25    1    1    2    0    0  0.10546013940E+03  0.22909679591E+03 -0.87014435507E+02  0.29462466782E+03  0.12500000000E+03 0.  0.
</event>
<event>
 5    0  0.5742667E-005  0.2777090E+03  0.7546771E-02  0.1096947E+00
         21   -1    0    0  502  501  0.00000000000E+00  0.00000000000E+00  0.90364207483E+02  0.90364207483E+02  0.00000000000E+00 0. -1.
         21   -1    0    0  501  502 -0.00000000000E+00 -0.00000000000E+00 -0.85346044239E+03  0.85346044239E+03  0.00000000000E+00 0. -1.
         25    1    1    2    0    0  0.45821311259E+02 -0.11153669580E+03 -0.45328441804E+03  0.48541919071E+03  0.12500000000E+03 0.  0.
         25    1    1    2    0    0 -0.24110076320E+02  0.26004311087E+01 -0.27472169524E+02  0.13026042423E+03  0.12500000000E+03 0.  0.
         25    1    1    2    0    0 -0.21711234939E+02  0.10893626469E+03 -0.28233964734E+03  0.32814503493E+03  0.12500000000E+03 0.  0.
</event>
<event>
 5    0  0.5742667E-005  0.2593766E+03  0.7546771E-02  0.1107518E+00
         21   -1    0    0  502  501  0.00000000000E+00  0.00000000000E+00  0.93978518854E+02  0.93978518854E+02  0.00000000000E+00 0.  1.
         21   -1    0    0  501  502 -0.00000000000E+00 -0.00000000000E+00 -0.71586831752E+03  0.71586831752E+03  0.00000000000E+00 0.  1.
         25    1    1    2    0    0  0.67556829664E+02  0.55945326978E+02 -0.18008856171E+03  0.23611585060E+03  0.12500000000E+03 0.  0.
         25    1    1    2    0    0  0.73768043975E+02  0.44572964103E+02 -0.17004846094E+03  0.22796919202E+03  0.12500000000E+03 0.  0.
         25    1    1    2    0    0 -0.14132487364E+03 -0.10051829108E+03 -0.27175277601E+03  0.34576179376E+03  0.12500000000E+03 0.  0.
</event>
<event>
 5    0  0.5742667E-005  0.2619754E+03  0.7546771E-02  0.1105962E+00
         21   -1    0    0  502  501  0.00000000000E+00  0.00000000000E+00  0.12030068018E+03  0.12030068018E+03  0.00000000000E+00 0.  1.
         21   -1    0    0  501  502 -0.00000000000E+00 -0.00000000000E+00 -0.57049657165E+03  0.57049657165E+03  0.00000000000E+00 0.  1.
         25    1    1    2    0    0  0.86889593408E+02  0.11745064660E+03 -0.14243512376E+03  0.23928481003E+03  0.12500000000E+03 0.  0.
         25    1    1    2    0    0  0.18941561464E+02 -0.45379281620E+02 -0.20522737243E+03  0.24527807962E+03  0.12500000000E+03 0.  0.
         25    1    1    2    0    0 -0.10583115487E+03 -0.72071364983E+02 -0.10253339529E+03  0.20623436218E+03  0.12500000000E+03 0.  0.
</event>
<event>
 5    0  0.5742667E-005  0.2197281E+03  0.7546771E-02  0.1134086E+00
         21   -1    0    0  502  501  0.00000000000E+00  0.00000000000E+00  0.85382484338E+02  0.85382484338E+02  0.00000000000E+00 0. -1.
         21   -1    0    0  501  502 -0.00000000000E+00 -0.00000000000E+00 -0.56546088263E+03  0.56546088263E+03  0.00000000000E+00 0. -1.
         25    1    1    2    0    0  0.36984532709E+02  0.19906550208E+02 -0.10076911709E+03  0.16596246973E+03  0.12500000000E+03 0.  0.
         25    1    1    2    0    0  0.10210783664E+02 -0.39394064312E+02 -0.30180454208E+03  0.32919163723E+03  0.12500000000E+03 0.  0.
         25    1    1    2    0    0 -0.47195316373E+02  0.19487514103E+02 -0.77504739130E+02  0.15568926001E+03  0.12500000000E+03 0.  0.
</event>
<event>
 5    0  0.5742667E-005  0.4299405E+03  0.7546771E-02  0.1033879E+00
         21   -1    0    0  502  501  0.00000000000E+00  0.00000000000E+00  0.10646597117E+04  0.10646597117E+04  0.00000000000E+00 0. -1.
         21   -1    0    0  501  502 -0.00000000000E+00 -0.00000000000E+00 -0.17362247803E+03  0.17362247803E+03  0.00000000000E+00 0. -1.
         25    1    1    2    0    0  0.12564126121E+03 -0.25422444709E+03  0.48745208014E+03  0.57762472805E+03  0.12500000000E+03 0.  0.
         25    1    1    2    0    0 -0.91878010904E+00  0.14413931598E+03  0.41027126467E+03  0.45246491265E+03  0.12500000000E+03 0.  0.
         25    1    1    2    0    0 -0.12472248111E+03  0.11008513110E+03 -0.66861111581E+01  0.20819254902E+03  0.12500000000E+03 0.  0.
</event>
<event>
 5    0  0.5742667E-005  0.4029088E+03  0.7546771E-02  0.1042777E+00
         21   -1    0    0  502  501  0.00000000000E+00  0.00000000000E+00  0.98147939088E+03  0.98147939088E+03  0.00000000000E+00 0. -1.
         21   -1    0    0  501  502 -0.00000000000E+00 -0.00000000000E+00 -0.16539882775E+03  0.16539882775E+03  0.00000000000E+00 0. -1.
         25    1    1    2    0    0  0.88363550994E+02  0.20526274193E+03  0.48155567231E+02  0.26054724912E+03  0.12500000000E+03 0.  0.
         25    1    1    2    0    0  0.58695578335E+02 -0.91660123258E+02  0.13126571568E+03  0.21142950888E+03  0.12500000000E+03 0.  0.
         25    1    1    2    0    0 -0.14705912933E+03 -0.11360261867E+03  0.63665928022E+03  0.67490146064E+03  0.12500000000E+03 0.  0.
</event>
<event>
 5    0  0.5742667E-005  0.4148307E+03  0.7546771E-02  0.1038762E+00
         21   -1    0    0  502  501  0.00000000000E+00  0.00000000000E+00  0.37727895440E+03  0.37727895440E+03  0.00000000000E+00 0. -1.
         21   -1    0    0  501  502 -0.00000000000E+00 -0.00000000000E+00 -0.45612003828E+03  0.45612003828E+03  0.00000000000E+00 0. -1.
         25    1    1    2    0    0 -0.43505490818E+02  0.47476170876E+02 -0.35144398427E+03  0.37852950824E+03  0.12500000000E+03 0.  0.
         25    1    1    2    0    0  0.11026034767E+03  0.51891124600E+02  0.69173109081E+02  0.18777633530E+03  0.12500000000E+03 0.  0.
         25    1    1    2    0    0 -0.66754856847E+02 -0.99367295476E+02  0.20342979130E+03  0.26709314913E+03  0.12500000000E+03 0.  0.
</event>
<event>
 5    0  0.5742667E-005  0.3484650E+03  0.7546771E-02  0.1063247E+00
         21   -1    0    0  502  501  0.00000000000E+00  0.00000000000E+00  0.43096835340E+03  0.43096835340E+03  0.00000000000E+00 0. -1.
         21   -1    0    0  501  502 -0.00000000000E+00 -0.00000000000E+00 -0.28175589859E+03  0.28175589859E+03  0.00000000000E+00 0. -1.
         25    1    1    2    0    0  0.18185580213E+02  0.93951702318E+02  0.11907018581E+03  0.19738375527E+03  0.12500000000E+03 0.  0.
         25    1    1    2    0    0  0.48105536706E+02  0.96566018012E+01 -0.19076381382E+03  0.23328785927E+03  0.12500000000E+03 0.  0.
         25    1    1    2    0    0 -0.66291116919E+02 -0.10360830412E+03  0.22090608282E+03  0.28205263745E+03  0.12500000000E+03 0.  0.
</event>
<event>
 5    0  0.5742667E-005  0.3120678E+03  0.7546771E-02  0.1079359E+00
         21   -1    0    0  502  501  0.00000000000E+00  0.00000000000E+00  0.78781849439E+03  0.78781849439E+03  0.00000000000E+00 0.  1.
         21   -1    0    0  501  502 -0.00000000000E+00 -0.00000000000E+00 -0.12361519780E+03  0.12361519780E+03  0.00000000000E+00 0.  1.
         25    1    1    2    0    0 -0.65661052478E+02  0.40870044106E+02 -0.17074588422E+02  0.14798066052E+03  0.12500000000E+03 0.  0.
         25    1    1    2    0    0  0.45091746364E+02 -0.42909601141E+02  0.59253679070E+03  0.60876871454E+03  0.12500000000E+03 0.  0.
         25    1    1    2    0    0  0.20569306114E+02  0.20395570349E+01  0.88741094307E+02  0.15468431713E+03  0.12500000000E+03 0.  0.
</event>
<event>
 5    0  0.5742667E-005  0.2597955E+03  0.7546771E-02  0.1107266E+00
         21   -1    0    0  502  501  0.00000000000E+00  0.00000000000E+00  0.35219913763E+03  0.35219913763E+03  0.00000000000E+00 0.  1.
         21   -1    0    0  501  502 -0.00000000000E+00 -0.00000000000E+00 -0.19163505554E+03  0.19163505554E+03  0.00000000000E+00 0.  1.
         25    1    1    2    0    0  0.19781413251E+02  0.11568617703E+02 -0.96451559767E+02  0.15954009091E+03  0.12500000000E+03 0.  0.
         25    1    1    2    0    0 -0.56277209405E+02 -0.51463644724E+02  0.16118771472E+03  0.21776618287E+03  0.12500000000E+03 0.  0.
         25    1    1    2    0    0  0.36495796154E+02  0.39895027021E+02  0.95827927138E+02  0.16652791939E+03  0.12500000000E+03 0.  0.
</event>
<event>
 5    0  0.5761285E-005  0.2832432E+03  0.7546771E-02  0.1093931E+00
         21   -1    0    0  502  501  0.00000000000E+00  0.00000000000E+00  0.33891543821E+03  0.33891543821E+03  0.00000000000E+00 0. -1.
         21   -1    0    0  501  502 -0.00000000000E+00 -0.00000000000E+00 -0.23671599741E+03  0.23671599741E+03  0.00000000000E+00 0. -1.
         25    1    1    2    0    0  0.12862322856E+03 -0.57772148916E+02  0.61817197415E+02  0.19831268747E+03  0.12500000000E+03 0.  0.
         25    1    1    2    0    0  0.12537193878E+02 -0.11094322382E+02  0.10744477177E+03  0.16567934150E+03  0.12500000000E+03 0.  0.
         25    1    1    2    0    0 -0.14116042243E+03  0.68866471298E+02 -0.67062528384E+02  0.21163940664E+03  0.12500000000E+03 0.  0.
</event>
<event>
 5    0  0.6425235E-005  0.2842428E+03  0.7546771E-02  0.1093394E+00
         21   -1    0    0  502  501  0.00000000000E+00  0.00000000000E+00  0.23814743186E+03  0.23814743186E+03  0.00000000000E+00 0.  1.
         21   -1    0    0  501  502 -0.00000000000E+00 -0.00000000000E+00 -0.33926018182E+03  0.33926018182E+03  0.00000000000E+00 0.  1.
         25    1    1    2    0    0  0.16234068193E+03  0.29550516185E+02 -0.13211187476E+03  0.24557336474E+03  0.12500000000E+03 0.  0.
         25    1    1    2    0    0 -0.48673671824E+02 -0.77288551394E+02  0.14751279803E+02  0.15551606593E+03  0.12500000000E+03 0.  0.
         25    1    1    2    0    0 -0.11366701011E+03  0.47738035209E+02  0.16247844993E+02  0.17631818301E+03  0.12500000000E+03 0.  0.
</event>
<event>
 5    0  0.5742667E-005  0.3040793E+03  0.7546771E-02  0.1083219E+00
         21   -1    0    0  502  501  0.00000000000E+00  0.00000000000E+00  0.11966801981E+03  0.11966801981E+03  0.00000000000E+00 0. -1.
         21   -1    0    0  501  502 -0.00000000000E+00 -0.00000000000E+00 -0.77267265043E+03  0.77267265043E+03  0.00000000000E+00 0. -1.
         25    1    1    2    0    0  0.13752182034E+03  0.13297605416E+02 -0.11298605888E+03  0.21789889142E+03  0.12500000000E+03 0.  0.
         25    1    1    2    0    0 -0.76613896856E+02  0.67836938461E+02 -0.67194443027E+02  0.17496180322E+03  0.12500000000E+03 0.  0.
         25    1    1    2    0    0 -0.60907923479E+02 -0.81134543877E+02 -0.47282412870E+03  0.49947997561E+03  0.12500000000E+03 0.  0.
</event>
<event>
 5    0  0.5742667E-005  0.2662408E+03  0.7546771E-02  0.1103451E+00
         21   -1    0    0  502  501  0.00000000000E+00  0.00000000000E+00  0.16695467449E+03  0.16695467449E+03  0.00000000000E+00 0. -1.
         21   -1    0    0  501  502 -0.00000000000E+00 -0.00000000000E+00 -0.42457131264E+03  0.42457131264E+03  0.00000000000E+00 0.  1.
         25    1    1    2    0    0  0.78336028619E+02 -0.13877257562E+03 -0.17549501227E+03  0.26798854538E+03  0.12500000000E+03 0.  0.
         25    1    1    2    0    0  0.79321169845E+01  0.42604888100E+02 -0.46816553882E+02  0.14033846475E+03  0.12500000000E+03 0.  0.
         25    1    1    2    0    0 -0.86268145604E+02  0.96167687519E+02 -0.35305071998E+02  0.18319897701E+03  0.12500000000E+03 0.  0.
</event>
<event>
 5    0  0.5742667E-005  0.2855539E+03  0.7546771E-02  0.1092694E+00
         21   -1    0    0  502  501  0.00000000000E+00  0.00000000000E+00  0.46174857254E+03  0.46174857254E+03  0.00000000000E+00 0.  1.
         21   -1    0    0  501  502 -0.00000000000E+00 -0.00000000000E+00 -0.17659178070E+03  0.17659178070E+03  0.00000000000E+00 0.  1.
         25    1    1    2    0    0 -0.36568386421E+02  0.48991146260E+01 -0.36853213321E+02  0.13544152813E+03  0.12500000000E+03 0.  0.
         25    1    1    2    0    0  0.12688232605E+02  0.13135814423E+03  0.23515044249E+03  0.29721487834E+03  0.12500000000E+03 0.  0.
         25    1    1    2    0    0  0.23880153815E+02 -0.13625725885E+03  0.86859562674E+02  0.20568394678E+03  0.12500000000E+03 0.  0.
</event>
<event>
 5    0  0.5742667E-005  0.2809023E+03  0.7546771E-02  0.1095197E+00
         21   -1    0    0  502  501  0.00000000000E+00  0.00000000000E+00  0.79882383319E+03  0.79882383319E+03  0.00000000000E+00 0.  1.
         21   -1    0    0  501  502 -0.00000000000E+00 -0.00000000000E+00 -0.98777877364E+02  0.98777877364E+02  0.00000000000E+00 0.  1.
         25    1    1    2    0    0  0.55004102806E+02 -0.11443606238E+03  0.17310562876E+03  0.24841824089E+03  0.12500000000E+03 0.  0.
         25    1    1    2    0    0 -0.44312102208E+02 -0.74671008716E+02  0.21604819365E+03  0.26427475082E+03  0.12500000000E+03 0.  0.
         25    1    1    2    0    0 -0.10692000598E+02  0.18910707110E+03  0.31089213342E+03  0.38490871884E+03  0.12500000000E+03 0.  0.
</event>
<event>
 5    0  0.5742667E-005  0.3066684E+03  0.7546771E-02  0.1081954E+00
         21   -1    0    0  502  501  0.00000000000E+00  0.00000000000E+00  0.12358581453E+04  0.12358581453E+04  0.00000000000E+00 0. -1.
         21   -1    0    0  501  502 -0.00000000000E+00 -0.00000000000E+00 -0.76097341741E+02  0.76097341741E+02  0.00000000000E+00 0. -1.
         25    1    1    2    0    0  0.11081063076E+03 -0.12523062051E+03  0.53666964573E+03  0.57584808140E+03  0.12500000000E+03 0.  0.
         25    1    1    2    0    0  0.64335535639E+02  0.46309661722E+02  0.15167507877E+03  0.21192917551E+03  0.12500000000E+03 0.  0.
         25    1    1    2    0    0 -0.17514616639E+03  0.78920958791E+02  0.47141607902E+03  0.52417823009E+03  0.12500000000E+03 0.  0.
</event>
<event>
 5    0  0.5742667E-005  0.4643741E+03  0.7546771E-02  0.1023520E+00
         21   -1    0    0  502  501  0.00000000000E+00  0.00000000000E+00  0.75736122255E+02  0.75736122255E+02  0.00000000000E+00 0. -1.
         21   -1    0    0  501  502 -0.00000000000E+00 -0.00000000000E+00 -0.28472980674E+04  0.28472980674E+04  0.00000000000E+00 0. -1.
         25    1    1    2    0    0 -0.16246417170E+03 -0.69084135488E+02 -0.64274597667E+03  0.67817004902E+03  0.12500000000E+03 0.  0.
         25    1    1    2    0    0  0.26861900103E+03 -0.77812487164E+02 -0.40891092161E+03  0.51092474268E+03  0.12500000000E+03 0.  0.
         25    1    1    2    0    0 -0.10615482933E+03  0.14689662265E+03 -0.17199050468E+04  0.17339393979E+04  0.12500000000E+03 0.  0.
</event>
<event>
 5    0  0.5742667E-005  0.3364207E+03  0.7546771E-02  0.1068331E+00
         21   -1    0    0  502  501  0.00000000000E+00  0.00000000000E+00  0.19466540461E+04  0.19466540461E+04  0.00000000000E+00 0. -1.
         21   -1    0    0  501  502 -0.00000000000E+00 -0.00000000000E+00 -0.58140229814E+02  0.58140229814E+02  0.00000000000E+00 0. -1.
         25    1    1    2    0    0  0.66444799554E+02  0.24940186421E+03  0.79722447021E+03  0.84723553818E+03  0.12500000000E+03 0.  0.
         25    1    1    2    0    0 -0.73988059243E+02 -0.13863577237E+03  0.76522907267E+03  0.79113503522E+03  0.12500000000E+03 0.  0.
         25    1    1    2    0    0  0.75432596890E+01 -0.11076609185E+03  0.32606027342E+03  0.36642370252E+03  0.12500000000E+03 0.  0.
</event>
<event>
 5    0  0.5742667E-005  0.2582525E+03  0.7546771E-02  0.1108198E+00
         21   -1    0    0  502  501  0.00000000000E+00  0.00000000000E+00  0.88182031941E+03  0.88182031941E+03  0.00000000000E+00 0.  1.
         21   -1    0    0  501  502 -0.00000000000E+00 -0.00000000000E+00 -0.75632595333E+02  0.75632595333E+02  0.00000000000E+00 0.  1.
         25    1    1    2    0    0 -0.70715469613E+02 -0.62557598466E+02  0.13097709835E+03  0.20419140790E+03  0.12500000000E+03 0.  0.
         25    1    1    2    0    0  0.86058121440E+02 -0.54538379817E+02  0.30279920340E+03  0.34306383184E+03  0.12500000000E+03 0.  0.
         25    1    1    2    0    0 -0.15342651827E+02  0.11709597828E+03  0.37241142232E+03  0.41019767500E+03  0.12500000000E+03 0.  0.
</event>
<event>
 5    0  0.5742667E-005  0.4077769E+03  0.7546771E-02  0.1041120E+00
         21   -1    0    0  502  501  0.00000000000E+00  0.00000000000E+00  0.13638835505E+03  0.13638835505E+03  0.00000000000E+00 0. -1.
         21   -1    0    0  501  502 -0.00000000000E+00 -0.00000000000E+00 -0.12191802268E+04  0.12191802268E+04  0.00000000000E+00 0. -1.
         25    1    1    2    0    0  0.23132792933E+03  0.88989890756E+02 -0.33337585719E+03  0.43381594450E+03  0.12500000000E+03 0.  0.
         25    1    1    2    0    0 -0.48797525146E+02 -0.44984858570E+02 -0.66661343790E+03  0.68147143121E+03  0.12500000000E+03 0.  0.
         25    1    1    2    0    0 -0.18253040419E+03 -0.44005032186E+02 -0.82802576606E+02  0.24028120610E+03  0.12500000000E+03 0.  0.
</event>
<event>
 5    0  0.5742667E-005  0.2316432E+03  0.7546771E-02  0.1125489E+00
         21   -1    0    0  502  501  0.00000000000E+00  0.00000000000E+00  0.69916603002E+03  0.69916603002E+03  0.00000000000E+00 0. -1.
         21   -1    0    0  501  502 -0.00000000000E+00 -0.00000000000E+00 -0.76746521427E+02  0.76746521427E+02  0.00000000000E+00 0. -1.
         25    1    1    2    0    0 -0.67441215395E+02 -0.61962671963E+02  0.21118235347E+03  0.26193639813E+03  0.12500000000E+03 0.  0.
         25    1    1    2    0    0  0.10037880789E+03  0.57654570384E+02  0.29197345696E+03  0.33804356839E+03  0.12500000000E+03 0.  0.
         25    1    1    2    0    0 -0.32937592498E+02  0.43081015791E+01  0.11926369817E+03  0.17593258493E+03  0.12500000000E+03 0.  0.
</event>
<event>
 5    0  0.5742667E-005  0.2599324E+03  0.7546771E-02  0.1107184E+00
         21   -1    0    0  502  501  0.00000000000E+00  0.00000000000E+00  0.41068953371E+03  0.41068953371E+03  0.00000000000E+00 0. -1.
         21   -1    0    0  501  502 -0.00000000000E+00 -0.00000000000E+00 -0.16451566071E+03  0.16451566071E+03  0.00000000000E+00 0. -1.
         25    1    1    2    0    0 -0.92082377351E+02 -0.87856701702E+02  0.12485678775E+03  0.21774338498E+03  0.12500000000E+03 0.  0.
         25    1    1    2    0    0  0.23745519927E+02  0.30300866912E+02 -0.37923870125E+02  0.13618080694E+03  0.12500000000E+03 0.  0.
         25    1    1    2    0    0  0.68336857424E+02  0.57555834790E+02  0.15924095537E+03  0.22128100250E+03  0.12500000000E+03 0.  0.
</event>
<event>
 5    0  0.5742667E-005  0.5707346E+03  0.7546771E-02  0.9968054E-01
         21   -1    0    0  502  501  0.00000000000E+00  0.00000000000E+00  0.46101723324E+03  0.46101723324E+03  0.00000000000E+00 0. -1.
         21   -1    0    0  501  502 -0.00000000000E+00 -0.00000000000E+00 -0.70656352473E+03  0.70656352473E+03  0.00000000000E+00 0. -1.
         25    1    1    2    0    0 -0.83442042926E+02 -0.30765227807E+03  0.29372465235E+03  0.45112267747E+03  0.12500000000E+03 0.  0.
         25    1    1    2    0    0 -0.29345693772E+02  0.22180142813E+03 -0.42295754525E+03  0.49454537542E+03  0.12500000000E+03 0.  0.
         25    1    1    2    0    0  0.11278773670E+03  0.85850849937E+02 -0.11631339858E+03  0.22191270508E+03  0.12500000000E+03 0.  0.
</event>
<event>
 5    0  0.5742667E-005  0.2534574E+03  0.7546771E-02  0.1111139E+00
         21   -1    0    0  502  501  0.00000000000E+00  0.00000000000E+00  0.33374439099E+03  0.33374439099E+03  0.00000000000E+00 0. -1.
         21   -1    0    0  501  502 -0.00000000000E+00 -0.00000000000E+00 -0.19248461327E+03  0.19248461327E+03  0.00000000000E+00 0. -1.
         25    1    1    2    0    0  0.89840532494E+02  0.55304553870E+02  0.11938565402E+03  0.20250394896E+03  0.12500000000E+03 0.  0.
         25    1    1    2    0    0 -0.81233459221E+02  0.32056653359E+02  0.63856793946E+02  0.16531543804E+03  0.12500000000E+03 0.  0.
         25    1    1    2    0    0 -0.86070732727E+01 -0.87361207229E+02 -0.41982670254E+02  0.15840961726E+03  0.12500000000E+03 0.  0.
</event>
<event>
 5    0  0.5742667E-005  0.4507938E+03  0.7546771E-02  0.1027486E+00
         21   -1    0    0  502  501  0.00000000000E+00  0.00000000000E+00  0.30144520986E+03  0.30144520986E+03  0.00000000000E+00 0.  1.
         21   -1    0    0  501  502 -0.00000000000E+00 -0.00000000000E+00 -0.67413599653E+03  0.67413599653E+03  0.00000000000E+00 0.  1.
         25    1    1    2    0    0 -0.11007353803E+03  0.95743374968E+02 -0.81993476797E+02  0.20888012797E+03  0.12500000000E+03 0.  0.
         25    1    1    2    0    0 -0.13383157145E+03  0.16534675307E+03  0.56436054097E+02  0.25310169195E+03  0.12500000000E+03 0.  0.
         25    1    1    2    0    0  0.24390510948E+03 -0.26109012804E+03 -0.34713336398E+03  0.51359938646E+03  0.12500000000E+03 0.  0.
</event>
<event>
 5    0  0.5742667E-005  0.4034549E+03  0.7546771E-02  0.1042590E+00
         21   -1    0    0  502  501  0.00000000000E+00  0.00000000000E+00  0.89116714641E+03  0.89116714641E+03  0.00000000000E+00 0. -1.
         21   -1    0    0  501  502 -0.00000000000E+00 -0.00000000000E+00 -0.18265468386E+03  0.18265468386E+03  0.00000000000E+00 0. -1.
         25    1    1    2    0    0  0.10080973331E+03 -0.10849332401E+03  0.60510240739E+03  0.63537967162E+03  0.12500000000E+03 0.  0.
         25    1    1    2    0    0  0.42406696117E+02  0.11452625578E+03  0.16316407650E+03  0.23908598244E+03  0.12500000000E+03 0.  0.
         25    1    1    2    0    0 -0.14321642943E+03 -0.60329317719E+01 -0.59754021334E+02  0.19935617620E+03  0.12500000000E+03 0.  0.
</event>
<event>
 5    0  0.5742667E-005  0.2379421E+03  0.7546771E-02  0.1121171E+00
         21   -1    0    0  502  501  0.00000000000E+00  0.00000000000E+00  0.44089793575E+02  0.44089793575E+02  0.00000000000E+00 0.  1.
         21   -1    0    0  501  502 -0.00000000000E+00 -0.00000000000E+00 -0.12841164529E+04  0.12841164529E+04  0.00000000000E+00 0.  1.
         25    1    1    2    0    0  0.40701935001E+02 -0.54015713410E+02 -0.16676199304E+03  0.21910934971E+03  0.12500000000E+03 0.  0.
         25    1    1    2    0    0 -0.60655820258E+01 -0.96498003930E+01 -0.35753208214E+03  0.37892492619E+03  0.12500000000E+03 0.  0.
         25    1    1    2    0    0 -0.34636352975E+02  0.63665513803E+02 -0.71573258410E+03  0.73017197052E+03  0.12500000000E+03 0.  0.
</event>
<event>
 5    0  0.6072417E-005  0.2683573E+03  0.7546771E-02  0.1102223E+00
         21   -1    0    0  502  501  0.00000000000E+00  0.00000000000E+00  0.14569016418E+03  0.14569016418E+03  0.00000000000E+00 0.  1.
         21   -1    0    0  501  502 -0.00000000000E+00 -0.00000000000E+00 -0.49430663503E+03  0.49430663503E+03  0.00000000000E+00 0.  1.
         25    1    1    2    0    0  0.67110400212E+02  0.36439141380E+02 -0.22565263962E+03  0.26902737892E+03  0.12500000000E+03 0.  0.
         25    1    1    2    0    0  0.30410942276E+02  0.62920063988E+02 -0.11504990432E+03  0.18369877611E+03  0.12500000000E+03 0.  0.
         25    1    1    2    0    0 -0.97521342489E+02 -0.99359205367E+02 -0.79139269217E+01  0.18727064418E+03  0.12500000000E+03 0.  0.
</event>
<event>
 5    0  0.5742667E-005  0.3719500E+03  0.7546771E-02  0.1053950E+00
         21   -1    0    0  502  501  0.00000000000E+00  0.00000000000E+00  0.71228097821E+03  0.71228097821E+03  0.00000000000E+00 0. -1.
         21   -1    0    0  501  502 -0.00000000000E+00 -0.00000000000E+00 -0.19423068200E+03  0.19423068200E+03  0.00000000000E+00 0. -1.
         25    1    1    2    0    0 -0.56646324351E+02  0.58145626652E+02  0.47156184865E+02  0.15632794290E+03  0.12500000000E+03 0.  0.
         25    1    1    2    0    0  0.76894667184E+02  0.17848802520E+03  0.28611081886E+02  0.23283977106E+03  0.12500000000E+03 0.  0.
         25    1    1    2    0    0 -0.20248342832E+02 -0.23663365185E+03  0.44228302946E+03  0.51734394625E+03  0.12500000000E+03 0.  0.
</event>
<event>
 5    0  0.5742667E-005  0.3881234E+03  0.7546771E-02  0.1047972E+00
         21   -1    0    0  502  501  0.00000000000E+00  0.00000000000E+00  0.90777554704E+02  0.90777554704E+02  0.00000000000E+00 0. -1.
         21   -1    0    0  501  502 -0.00000000000E+00 -0.00000000000E+00 -0.16594383694E+04  0.16594383694E+04  0.00000000000E+00 0. -1.
         25    1    1    2    0    0 -0.64666493012E+02  0.18082941149E+03 -0.19242584498E+03  0.29922188622E+03  0.12500000000E+03 0.  0.
         25    1    1    2    0    0 -0.37585365429E+02  0.64985473032E+02 -0.27628745559E+03  0.31240283212E+03  0.12500000000E+03 0.  0.
         25    1    1    2    0    0  0.10225185844E+03 -0.24581488452E+03 -0.10999475141E+04  0.11385912057E+04  0.12500000000E+03 0.  0.
</event>
<event>
 5    0  0.5742667E-005  0.3196633E+03  0.7546771E-02  0.1075804E+00
         21   -1    0    0  502  501  0.00000000000E+00  0.00000000000E+00  0.10423214963E+03  0.10423214963E+03  0.00000000000E+00 0.  1.
         21   -1    0    0  501  502 -0.00000000000E+00 -0.00000000000E+00 -0.98035626219E+03  0.98035626219E+03  0.00000000000E+00 0.  1.
         25    1    1    2    0    0  0.55119200790E+01 -0.14012603970E+03 -0.11138709114E+03  0.21839819674E+03  0.12500000000E+03 0.  0.
         25    1    1    2    0    0 -0.13507099414E+03  0.11251291592E+02 -0.31759586896E+03  0.36723684592E+03  0.12500000000E+03 0.  0.
         25    1    1    2    0    0  0.12955907406E+03  0.12887474811E+03 -0.44714115246E+03  0.49895336916E+03  0.12500000000E+03 0.  0.
</event>
<event>
 5    0  0.5742667E-005  0.2763119E+03  0.7546771E-02  0.1097721E+00
         21   -1    0    0  502  501  0.00000000000E+00  0.00000000000E+00  0.29795891058E+03  0.29795891058E+03  0.00000000000E+00 0.  1.
         21   -1    0    0  501  502 -0.00000000000E+00 -0.00000000000E+00 -0.25623760725E+03  0.25623760725E+03  0.00000000000E+00 0.  1.
         25    1    1    2    0    0 -0.12252537019E+03  0.77634223245E+02  0.31488590791E+02  0.19405172070E+03  0.12500000000E+03 0.  0.
         25    1    1    2    0    0  0.12638128705E+03 -0.13209444718E+03 -0.12699465085E+02  0.22182752107E+03  0.12500000000E+03 0.  0.
         25    1    1    2    0    0 -0.38559168590E+01  0.54460223939E+02  0.22932177623E+02  0.13831727606E+03  0.12500000000E+03 0.  0.
</event>
<event>
 5    0  0.5742667E-005  0.2625715E+03  0.7546771E-02  0.1105608E+00
         21   -1    0    0  502  501  0.00000000000E+00  0.00000000000E+00  0.12400564745E+03  0.12400564745E+03  0.00000000000E+00 0.  1.
         21   -1    0    0  501  502 -0.00000000000E+00 -0.00000000000E+00 -0.55597313133E+03  0.55597313133E+03  0.00000000000E+00 0.  1.
         25    1    1    2    0    0 -0.44165143603E+02  0.88502815543E+02 -0.28780460260E+03  0.32899817256E+03  0.12500000000E+03 0.  0.
         25    1    1    2    0    0  0.62281148173E+02 -0.44605977266E+02  0.99496975179E+01  0.14694431294E+03  0.12500000000E+03 0.  0.
         25    1    1    2    0    0 -0.18116004570E+02 -0.43896838277E+02 -0.15411257880E+03  0.20403629328E+03  0.12500000000E+03 0.  0.
</event>
<event>
 5    0  0.5742667E-005  0.3418240E+03  0.7546771E-02  0.1066022E+00
         21   -1    0    0  502  501  0.00000000000E+00  0.00000000000E+00  0.45176554661E+03  0.45176554661E+03  0.00000000000E+00 0. -1.
         21   -1    0    0  501  502 -0.00000000000E+00 -0.00000000000E+00 -0.25863774121E+03  0.25863774121E+03  0.00000000000E+00 0. -1.
         25    1    1    2    0    0  0.76195952319E+02 -0.92045449440E+02  0.23795631660E+03  0.29415369541E+03  0.12500000000E+03 0.  0.
         25    1    1    2    0    0  0.90242302048E+02  0.12587686621E+03  0.67692492384E+01  0.19914688363E+03  0.12500000000E+03 0.  0.
         25    1    1    2    0    0 -0.16643825437E+03 -0.33831416766E+02 -0.51597760447E+02  0.21710270878E+03  0.12500000000E+03 0.  0.
</event>
<event>
 5    0  0.5742667E-005  0.2710796E+03  0.7546771E-02  0.1100663E+00
         21   -1    0    0  502  501  0.00000000000E+00  0.00000000000E+00  0.10802361589E+03  0.10802361589E+03  0.00000000000E+00 0. -1.
         21   -1    0    0  501  502 -0.00000000000E+00 -0.00000000000E+00 -0.68026007611E+03  0.68026007611E+03  0.00000000000E+00 0. -1.
         25    1    1    2    0    0  0.11915211757E+02  0.36464665212E+02 -0.56364688870E+02  0.14238547058E+03  0.12500000000E+03 0.  0.
         25    1    1    2    0    0 -0.91126794595E+02  0.61813245789E+02 -0.40132360464E+03  0.43452342363E+03  0.12500000000E+03 0.  0.
         25    1    1    2    0    0  0.79211582838E+02 -0.98277911001E+02 -0.11454816671E+03  0.21137479780E+03  0.12500000000E+03 0.  0.
</event>
<event>
 5    0  0.5742667E-005  0.3218690E+03  0.7546771E-02  0.1074792E+00
         21   -1    0    0  502  501  0.00000000000E+00  0.00000000000E+00  0.52039787777E+03  0.52039787777E+03  0.00000000000E+00 0.  1.
         21   -1    0    0  501  502 -0.00000000000E+00 -0.00000000000E+00 -0.19907777101E+03  0.19907777101E+03  0.00000000000E+00 0.  1.
         25    1    1    2    0    0  0.11171586946E+01 -0.18626741927E+03  0.29912587986E+02  0.22631076520E+03  0.12500000000E+03 0.  0.
         25    1    1    2    0    0  0.28872645634E+01  0.15747764589E+03  0.30370935700E+03  0.36424156652E+03  0.12500000000E+03 0.  0.
         25    1    1    2    0    0 -0.40044232580E+01  0.28789773379E+02 -0.12301838225E+02  0.12892331706E+03  0.12500000000E+03 0.  0.
</event>
<event>
 5    0  0.5742667E-005  0.2904698E+03  0.7546771E-02  0.1090104E+00
         21   -1    0    0  502  501  0.00000000000E+00  0.00000000000E+00  0.48537618133E+03  0.48537618133E+03  0.00000000000E+00 0.  1.
         21   -1    0    0  501  502 -0.00000000000E+00 -0.00000000000E+00 -0.17382952613E+03  0.17382952613E+03  0.00000000000E+00 0.  1.
         25    1    1    2    0    0  0.22924022378E+02  0.10297276472E+03  0.31238791087E+02  0.16652256047E+03  0.12500000000E+03 0.  0.
         25    1    1    2    0    0  0.11341189798E+03 -0.12878060464E+03  0.10631140651E+03  0.23743171206E+03  0.12500000000E+03 0.  0.
         25    1    1    2    0    0 -0.13633592036E+03  0.25807839919E+02  0.17399645760E+03  0.25525143494E+03  0.12500000000E+03 0.  0.
</event>
<event>
 5    0  0.5742667E-005  0.3278345E+03  0.7546771E-02  0.1072099E+00
         21   -1    0    0  502  501  0.00000000000E+00  0.00000000000E+00  0.13320024723E+03  0.13320024723E+03  0.00000000000E+00 0. -1.
         21   -1    0    0  501  502 -0.00000000000E+00 -0.00000000000E+00 -0.80687134084E+03  0.80687134084E+03  0.00000000000E+00 0. -1.
         25    1    1    2    0    0  0.12093689306E+03  0.58044608295E+02  0.47366321665E+01  0.18341849508E+03  0.12500000000E+03 0.  0.
         25    1    1    2    0    0 -0.18352944634E+02 -0.86404214117E+02 -0.45034795250E+03  0.47564776580E+03  0.12500000000E+03 0.  0.
         25    1    1    2    0    0 -0.10258394843E+03  0.28359605822E+02 -0.22805977328E+03  0.28100532718E+03  0.12500000000E+03 0.  0.
</event>
<event>
 5    0  0.5742667E-005  0.3465668E+03  0.7546771E-02  0.1064033E+00
         21   -1    0    0  502  501  0.00000000000E+00  0.00000000000E+00  0.47398200163E+02  0.47398200163E+02  0.00000000000E+00 0.  1.
         21   -1    0    0  501  502 -0.00000000000E+00 -0.00000000000E+00 -0.25340315183E+04  0.25340315183E+04  0.00000000000E+00 0.  1.
         25    1    1    2    0    0 -0.16840712505E+02 -0.39683519591E+02 -0.70014412931E+03  0.71252031068E+03  0.12500000000E+03 0.  0.
         25    1    1    2    0    0  0.12393900660E+03  0.70513582452E+02 -0.16257883833E+04  0.16368096743E+04  0.12500000000E+03 0.  0.
         25    1    1    2    0    0 -0.10709829409E+03 -0.30830062862E+02 -0.16070080550E+03  0.23209973344E+03  0.12500000000E+03 0.  0.
</event>
<event>
 5    0  0.5742667E-005  0.4791740E+03  0.7546771E-02  0.1019362E+00
         21   -1    0    0  502  501  0.00000000000E+00  0.00000000000E+00  0.62573670635E+03  0.62573670635E+03  0.00000000000E+00 0.  1.
         21   -1    0    0  501  502 -0.00000000000E+00 -0.00000000000E+00 -0.36693990327E+03  0.36693990327E+03  0.00000000000E+00 0.  1.
         25    1    1    2    0    0 -0.43885327924E+02 -0.93339512988E+02  0.31980483993E+03  0.35852241538E+03  0.12500000000E+03 0.  0.
         25    1    1    2    0    0 -0.47443075831E+02 -0.10736701992E+03  0.20463567068E+03  0.26698179736E+03  0.12500000000E+03 0.  0.
         25    1    1    2    0    0  0.91328403755E+02  0.20070653291E+03 -0.26564370752E+03  0.36717239688E+03  0.12500000000E+03 0.  0.
</event>
<event>
 5    0  0.5742667E-005  0.3214035E+03  0.7546771E-02  0.1075005E+00
         21   -1    0    0  502  501  0.00000000000E+00  0.00000000000E+00  0.41800626997E+03  0.41800626997E+03  0.00000000000E+00 0. -1.
         21   -1    0    0  501  502 -0.00000000000E+00 -0.00000000000E+00 -0.24712592973E+03  0.24712592973E+03  0.00000000000E+00 0. -1.
         25    1    1    2    0    0  0.15108619956E+03 -0.15515968008E+03  0.23040325912E+02  0.25111237054E+03  0.12500000000E+03 0.  0.
         25    1    1    2    0    0  0.25722908670E+02  0.46983205040E+02  0.12160671912E+02  0.13653560535E+03  0.12500000000E+03 0.  0.
         25    1    1    2    0    0 -0.17680910823E+03  0.10817647503E+03  0.13567934241E+03  0.27748422381E+03  0.12500000000E+03 0.  0.
</event>
<event>
 5    0  0.5742667E-005  0.2482818E+03  0.7546771E-02  0.1114396E+00
         21   -1    0    0  502  501  0.00000000000E+00  0.00000000000E+00  0.22562004097E+03  0.22562004097E+03  0.00000000000E+00 0.  1.
         21   -1    0    0  501  502 -0.00000000000E+00 -0.00000000000E+00 -0.27321974898E+03  0.27321974898E+03  0.00000000000E+00 0.  1.
         25    1    1    2    0    0 -0.57306549958E+02 -0.88985022601E+02 -0.29801859828E+02  0.16647980588E+03  0.12500000000E+03 0.  0.
         25    1    1    2    0    0  0.82176610053E+02  0.35351000385E+01  0.58906421823E+02  0.16081187364E+03  0.12500000000E+03 0.  0.
         25    1    1    2    0    0 -0.24870060095E+02  0.85449922563E+02 -0.76704270010E+02  0.17154811043E+03  0.12500000000E+03 0.  0.
</event>
<event>
 5    0  0.5742667E-005  0.3247791E+03  0.7546771E-02  0.1073471E+00
         21   -1    0    0  502  501  0.00000000000E+00  0.00000000000E+00  0.78255649748E+02  0.78255649748E+02  0.00000000000E+00 0.  1.
         21   -1    0    0  501  502 -0.00000000000E+00 -0.00000000000E+00 -0.13479088277E+04  0.13479088277E+04  0.00000000000E+00 0.  1.
         25    1    1    2    0    0 -0.13699341765E+03  0.17467474988E+03 -0.30535074622E+03  0.39767140071E+03  0.12500000000E+03 0.  0.
         25    1    1    2    0    0  0.74131640071E+02 -0.73229832595E+02 -0.64728208070E+03  0.66742580145E+03  0.12500000000E+03 0.  0.
         25    1    1    2    0    0  0.62861777578E+02 -0.10144491728E+03 -0.31702035107E+03  0.36106727533E+03  0.12500000000E+03 0.  0.
</event>
<event>
 5    0  0.5742667E-005  0.2550807E+03  0.7546771E-02  0.1110135E+00
         21   -1    0    0  502  501  0.00000000000E+00  0.00000000000E+00  0.66527280192E+03  0.66527280192E+03  0.00000000000E+00 0.  1.
         21   -1    0    0  501  502 -0.00000000000E+00 -0.00000000000E+00 -0.97803701842E+02  0.97803701842E+02  0.00000000000E+00 0.  1.
         25    1    1    2    0    0  0.95922116308E+02 -0.51727054237E+01  0.19178145684E+03  0.24825981645E+03  0.12500000000E+03 0.  0.
         25    1    1    2    0    0  0.70060586642E+02 -0.95205403377E+01  0.14825119289E+03  0.20640383398E+03  0.12500000000E+03 0.  0.
         25    1    1    2    0    0 -0.16598270295E+03  0.14693245761E+02  0.22743645034E+03  0.30841285332E+03  0.12500000000E+03 0.  0.
</event>
<event>
 5    0  0.5742667E-005  0.3581070E+03  0.7546771E-02  0.1059336E+00
         21   -1    0    0  502  501  0.00000000000E+00  0.00000000000E+00  0.12249757636E+04  0.12249757636E+04  0.00000000000E+00 0. -1.
         21   -1    0    0  501  502 -0.00000000000E+00 -0.00000000000E+00 -0.10468830280E+03  0.10468830280E+03  0.00000000000E+00 0.  1.
         25    1    1    2    0    0  0.12239702216E+03 -0.26208305026E+03  0.59460913101E+03  0.67294396122E+03  0.12500000000E+03 0.  0.
         25    1    1    2    0    0 -0.64754839045E+02  0.14784679482E+03  0.20372242481E+03  0.28840889426E+03  0.12500000000E+03 0.  0.
         25    1    1    2    0    0 -0.57642183110E+02  0.11423625544E+03  0.32195590498E+03  0.36831121091E+03  0.12500000000E+03 0.  0.
</event>
<event>
 5    0  0.5742667E-005  0.2668098E+03  0.7546771E-02  0.1103119E+00
         21   -1    0    0  502  501  0.00000000000E+00  0.00000000000E+00  0.37816351320E+03  0.37816351320E+03  0.00000000000E+00 0. -1.
         21   -1    0    0  501  502 -0.00000000000E+00 -0.00000000000E+00 -0.18824513797E+03  0.18824513797E+03  0.00000000000E+00 0. -1.
         25    1    1    2    0    0 -0.11235236571E+03 -0.70320069311E+02 -0.27284216893E+02  0.18422104853E+03  0.12500000000E+03 0.  0.
         25    1    1    2    0    0 -0.15443465887E+02  0.38549284753E+02  0.10781477629E+03  0.17021625651E+03  0.12500000000E+03 0.  0.
         25    1    1    2    0    0  0.12779583160E+03  0.31770784557E+02  0.10938781584E+03  0.21197134613E+03  0.12500000000E+03 0.  0.
</event>
<event>
 5    0  0.5742667E-005  0.3806380E+03  0.7546771E-02  0.1050698E+00
         21   -1    0    0  502  501  0.00000000000E+00  0.00000000000E+00  0.89620307630E+02  0.89620307630E+02  0.00000000000E+00 0.  1.
         21   -1    0    0  501  502 -0.00000000000E+00 -0.00000000000E+00 -0.16166568532E+04  0.16166568532E+04  0.00000000000E+00 0.  1.
         25    1    1    2    0    0  0.20128979306E+03  0.13710146848E+03 -0.50109299460E+03  0.57099350494E+03  0.12500000000E+03 0.  0.
         25    1    1    2    0    0 -0.10695651334E+03 -0.13870638436E+03 -0.19721330842E+03  0.29188567253E+03  0.12500000000E+03 0.  0.
         25    1    1    2    0    0 -0.94333279725E+02  0.16049158800E+01 -0.82873024253E+03  0.84339798334E+03  0.12500000000E+03 0.  0.
</event>
<event>
 5    0  0.5742667E-005  0.2666160E+03  0.7546771E-02  0.1103232E+00
         21   -1    0    0  502  501  0.00000000000E+00  0.00000000000E+00  0.13948432059E+03  0.13948432059E+03  0.00000000000E+00 0. -1.
         21   -1    0    0  501  502 -0.00000000000E+00 -0.00000000000E+00 -0.50962057474E+03  0.50962057474E+03  0.00000000000E+00 0. -1.
         25    1    1    2    0    0 -0.85375544818E+02 -0.73634915713E+02 -0.11099580506E+02  0.16869880009E+03  0.12500000000E+03 0.  0.
         25    1    1    2    0    0  0.68503240816E+02  0.11712270746E+03 -0.18687851013E+03  0.26260045726E+03  0.12500000000E+03 0.  0.
         25    1    1    2    0    0  0.16872304002E+02 -0.43487791746E+02 -0.17215816351E+03  0.21780563798E+03  0.12500000000E+03 0.  0.
</event>
<event>
 5    0  0.5742667E-005  0.4921787E+03  0.7546771E-02  0.1015841E+00
         21   -1    0    0  502  501  0.00000000000E+00  0.00000000000E+00  0.27327618754E+04  0.27327618754E+04  0.00000000000E+00 0.  1.
         21   -1    0    0  501  502 -0.00000000000E+00 -0.00000000000E+00 -0.88642868279E+02  0.88642868279E+02  0.00000000000E+00 0.  1.
         25    1    1    2    0    0 -0.21246892714E+02  0.55301778627E+02  0.40781647379E+02  0.14421463148E+03  0.12500000000E+03 0.  0.
         25    1    1    2    0    0  0.28573785162E+03  0.14885135067E+02  0.15795865780E+04  0.16101510626E+04  0.12500000000E+03 0.  0.
         25    1    1    2    0    0 -0.26449095890E+03 -0.70186913694E+02  0.10237507818E+04  0.10670390496E+04  0.12500000000E+03 0.  0.
</event>
<event>
 5    0  0.5742667E-005  0.3304508E+03  0.7546771E-02  0.1070938E+00
         21   -1    0    0  502  501  0.00000000000E+00  0.00000000000E+00  0.21410833707E+04  0.21410833707E+04  0.00000000000E+00 0. -1.
         21   -1    0    0  501  502 -0.00000000000E+00 -0.00000000000E+00 -0.51001160912E+02  0.51001160912E+02  0.00000000000E+00 0. -1.
         25    1    1    2    0    0  0.99775433492E+02 -0.65588737449E+02  0.10684271208E+04  0.10823209007E+04  0.12500000000E+03 0.  0.
         25    1    1    2    0    0 -0.13746085007E+03  0.63575974608E+02  0.92932168412E+03  0.94984271457E+03  0.12500000000E+03 0.  0.
         25    1    1    2    0    0  0.37685416577E+02  0.20127628403E+01  0.92333404904E+02  0.15992091639E+03  0.12500000000E+03 0.  0.
</event>
<event>
 5    0  0.5742667E-005  0.4506907E+03  0.7546771E-02  0.1027516E+00
         21   -1    0    0  502  501  0.00000000000E+00  0.00000000000E+00  0.41569057257E+03  0.41569057257E+03  0.00000000000E+00 0.  1.
         21   -1    0    0  501  502 -0.00000000000E+00 -0.00000000000E+00 -0.48863779011E+03  0.48863779011E+03  0.00000000000E+00 0.  1.
         25    1    1    2    0    0 -0.69548131700E+02 -0.44934865937E+02  0.82975219261E+02  0.17136502505E+03  0.12500000000E+03 0.  0.
         25    1    1    2    0    0  0.16814466910E+03  0.67886118326E+02  0.22782028365E+03  0.31687258709E+03  0.12500000000E+03 0.  0.
         25    1    1    2    0    0 -0.98596537396E+02 -0.22951252389E+02 -0.38374272046E+03  0.41609075053E+03  0.12500000000E+03 0.  0.
</event>
<event>
 5    0  0.5742667E-005  0.3098549E+03  0.7546771E-02  0.1080415E+00
         21   -1    0    0  502  501  0.00000000000E+00  0.00000000000E+00  0.32917204851E+03  0.32917204851E+03  0.00000000000E+00 0.  1.
         21   -1    0    0  501  502 -0.00000000000E+00 -0.00000000000E+00 -0.29167137171E+03  0.29167137171E+03  0.00000000000E+00 0.  1.
         25    1    1    2    0    0  0.10792465939E+03  0.69040529179E+02 -0.14558100682E+02  0.17958637217E+03  0.12500000000E+03 0.  0.
         25    1    1    2    0    0 -0.99661417111E+02 -0.19520123475E+03  0.71915983534E+02  0.26236011282E+03  0.12500000000E+03 0.  0.
         25    1    1    2    0    0 -0.82632422748E+01  0.12616070558E+03 -0.19857206060E+02  0.17889693524E+03  0.12500000000E+03 0.  0.
</event>
<event>
 5    0  0.5742667E-005  0.3360168E+03  0.7546771E-02  0.1068505E+00
         21   -1    0    0  502  501  0.00000000000E+00  0.00000000000E+00  0.16103687823E+04  0.16103687823E+04  0.00000000000E+00 0.  1.
         21   -1    0    0  501  502 -0.00000000000E+00 -0.00000000000E+00 -0.70112672045E+02  0.70112672045E+02  0.00000000000E+00 0.  1.
         25    1    1    2    0    0 -0.17474572102E+03 -0.21564629189E+01  0.86023945164E+03  0.88666658418E+03  0.12500000000E+03 0.  0.
         25    1    1    2    0    0  0.22782382344E+03 -0.18364443003E+02  0.52910899317E+03  0.58976459197E+03  0.12500000000E+03 0.  0.
         25    1    1    2    0    0 -0.53078102412E+02  0.20520905922E+02  0.15090766542E+03  0.20405027816E+03  0.12500000000E+03 0.  0.
</event>
<event>
 5    0  0.5742667E-005  0.3056102E+03  0.7546771E-02  0.1082469E+00
         21   -1    0    0  502  501  0.00000000000E+00  0.00000000000E+00  0.56010454781E+02  0.56010454781E+02  0.00000000000E+00 0. -1.
         21   -1    0    0  501  502 -0.00000000000E+00 -0.00000000000E+00 -0.16675025610E+04  0.16675025610E+04  0.00000000000E+00 0. -1.
         25    1    1    2    0    0  0.12539429743E+03 -0.98132239085E+02 -0.48643529470E+03  0.52687566095E+03  0.12500000000E+03 0.  0.
         25    1    1    2    0    0 -0.12358239145E+03  0.11077899862E+03 -0.31801467409E+03  0.37987225082E+03  0.12500000000E+03 0.  0.
         25    1    1    2    0    0 -0.18119059823E+01 -0.12646759533E+02 -0.80704213742E+03  0.81676510399E+03  0.12500000000E+03 0.  0.
</event>
<event>
 5    0  0.5742667E-005  0.3084664E+03  0.7546771E-02  0.1081083E+00
         21   -1    0    0  502  501  0.00000000000E+00  0.00000000000E+00  0.29299965752E+03  0.29299965752E+03  0.00000000000E+00 0. -1.
         21   -1    0    0  501  502 -0.00000000000E+00 -0.00000000000E+00 -0.32474957031E+03  0.32474957031E+03  0.00000000000E+00 0. -1.
         25    1    1    2    0    0 -0.11616116699E+03 -0.79709026235E+02 -0.11795317448E+03  0.22222712920E+03  0.12500000000E+03 0.  0.
         25    1    1    2    0    0  0.19227845253E+03  0.40320657282E+02  0.69718218199E+02  0.24306869124E+03  0.12500000000E+03 0.  0.
         25    1    1    2    0    0 -0.76117285545E+02  0.39388368952E+02  0.16485043486E+02  0.15245340739E+03  0.12500000000E+03 0.  0.
</event>
<event>
 5    0  0.5742667E-005  0.3614924E+03  0.7546771E-02  0.1057995E+00
         21   -1    0    0  502  501  0.00000000000E+00  0.00000000000E+00  0.11848773498E+03  0.11848773498E+03  0.00000000000E+00 0.  1.
         21   -1    0    0  501  502 -0.00000000000E+00 -0.00000000000E+00 -0.11028714560E+04  0.11028714560E+04  0.00000000000E+00 0.  1.
         25    1    1    2    0    0 -0.90496311424E+01  0.59255355281E+01  0.28256838919E+02  0.12860970702E+03  0.12500000000E+03 0.  0.
         25    1    1    2    0    0  0.42866953865E+02  0.59831824770E+02 -0.11968647631E+03  0.18806189301E+03  0.12500000000E+03 0.  0.
         25    1    1    2    0    0 -0.33817322723E+02 -0.65757360298E+02 -0.89295408364E+03  0.90468759096E+03  0.12500000000E+03 0.  0.
</event>
<event>
 5    0  0.5742667E-005  0.4456361E+03  0.7546771E-02  0.1029031E+00
         21   -1    0    0  502  501  0.00000000000E+00  0.00000000000E+00  0.37447609642E+03  0.37447609642E+03  0.00000000000E+00 0.  1.
         21   -1    0    0  501  502 -0.00000000000E+00 -0.00000000000E+00 -0.53031830489E+03  0.53031830489E+03  0.00000000000E+00 0.  1.
         25    1    1    2    0    0 -0.50513445459E+02  0.33957894590E+03  0.19181790756E+02  0.36586665572E+03  0.12500000000E+03 0.  0.
         25    1    1    2    0    0  0.79410421302E+02 -0.14094604836E+03 -0.21769651516E+03  0.29864456511E+03  0.12500000000E+03 0.  0.
         25    1    1    2    0    0 -0.28896975843E+02 -0.19863289755E+03  0.42672515928E+02  0.24028318047E+03  0.12500000000E+03 0.  0.
</event>
<event>
 5    0  0.5742667E-005  0.2217498E+03  0.7546771E-02  0.1132585E+00
         21   -1    0    0  502  501  0.00000000000E+00  0.00000000000E+00  0.68545061297E+03  0.68545061297E+03  0.00000000000E+00 0.  1.
         21   -1    0    0  501  502 -0.00000000000E+00 -0.00000000000E+00 -0.71738156553E+02  0.71738156553E+02  0.00000000000E+00 0.  1.
         25    1    1    2    0    0  0.59955381470E+01  0.12503836496E+02  0.55595546886E+02  0.13750693524E+03  0.12500000000E+03 0.  0.
         25    1    1    2    0    0 -0.33794442702E+01 -0.14409689989E+02  0.16740126546E+03  0.20944508466E+03  0.12500000000E+03 0.  0.
         25    1    1    2    0    0 -0.26160938769E+01  0.19058534924E+01  0.39071564407E+03  0.41023674963E+03  0.12500000000E+03 0.  0.
</event>
<event>
 5    0  0.5742667E-005  0.4362890E+03  0.7546771E-02  0.1031892E+00
         21   -1    0    0  502  501  0.00000000000E+00  0.00000000000E+00  0.15861087116E+03  0.15861087116E+03  0.00000000000E+00 0.  1.
         21   -1    0    0  501  502 -0.00000000000E+00 -0.00000000000E+00 -0.12000948981E+04  0.12000948981E+04  0.00000000000E+00 0.  1.
         25    1    1    2    0    0 -0.10155876601E+03  0.28873538850E+03 -0.57857730501E+03  0.66637752468E+03  0.12500000000E+03 0.  0.
         25    1    1    2    0    0  0.15854864040E+03 -0.68456040989E+02 -0.75864548008E+02  0.22628373906E+03  0.12500000000E+03 0.  0.
         25    1    1    2    0    0 -0.56989874385E+02 -0.22027934751E+03 -0.38704217392E+03  0.46604450551E+03  0.12500000000E+03 0.  0.
</event>
<event>
 5    0  0.5742667E-005  0.2585248E+03  0.7546771E-02  0.1108033E+00
         21   -1    0    0  502  501  0.00000000000E+00  0.00000000000E+00  0.25884469851E+04  0.25884469851E+04  0.00000000000E+00 0.  1.
         21   -1    0    0  501  502 -0.00000000000E+00 -0.00000000000E+00 -0.25820531648E+02  0.25820531648E+02  0.00000000000E+00 0.  1.
         25    1    1    2    0    0 -0.53070405109E+01  0.16786546253E+02  0.68256682112E+03  0.69414149718E+03  0.12500000000E+03 0.  0.
         25    1    1    2    0    0 -0.75022868112E+02 -0.72192793352E+02  0.14930493367E+04  0.15018859984E+04  0.12500000000E+03 0.  0.
         25    1    1    2    0    0  0.80329908623E+02  0.55406247099E+02  0.38701029555E+03  0.41824002116E+03  0.12500000000E+03 0.  0.
</event>
<event>
 5    0  0.5742667E-005  0.2257418E+03  0.7546771E-02  0.1129673E+00
         21   -1    0    0  502  501  0.00000000000E+00  0.00000000000E+00  0.77362775763E+02  0.77362775763E+02  0.00000000000E+00 0. -1.
         21   -1    0    0  501  502 -0.00000000000E+00 -0.00000000000E+00 -0.65870652748E+03  0.65870652748E+03  0.00000000000E+00 0. -1.
         25    1    1    2    0    0 -0.68181386705E+02  0.88844979466E+02 -0.21208236994E+03  0.27045528930E+03  0.12500000000E+03 0.  0.
         25    1    1    2    0    0  0.67764721247E+02 -0.34708953893E+02 -0.21113349790E+03  0.25690294444E+03  0.12500000000E+03 0.  0.
         25    1    1    2    0    0  0.41666545766E+00 -0.54136025574E+02 -0.15812788388E+03  0.20871106951E+03  0.12500000000E+03 0.  0.
</event>
<event>
 5    0  0.5742667E-005  0.2639550E+03  0.7546771E-02  0.1104790E+00
         21   -1    0    0  502  501  0.00000000000E+00  0.00000000000E+00  0.50965061857E+02  0.50965061857E+02  0.00000000000E+00 0.  1.
         21   -1    0    0  501  502 -0.00000000000E+00 -0.00000000000E+00 -0.13670584968E+04  0.13670584968E+04  0.00000000000E+00 0.  1.
         25    1    1    2    0    0 -0.70379962755E+02 -0.50019431365E+02 -0.18634173262E+03  0.24042363442E+03  0.12500000000E+03 0.  0.
         25    1    1    2    0    0  0.13443347050E+03  0.26274368472E+02 -0.54250135399E+03  0.57331964863E+03  0.12500000000E+03 0.  0.
         25    1    1    2    0    0 -0.64053507745E+02  0.23745062893E+02 -0.58725034833E+03  0.60428027560E+03  0.12500000000E+03 0.  0.
</event>
<event>
 5    0  0.5742667E-005  0.3597022E+03  0.7546771E-02  0.1058702E+00
         21   -1    0    0  502  501  0.00000000000E+00  0.00000000000E+00  0.63688555760E+03  0.63688555760E+03  0.00000000000E+00 0.  1.
         21   -1    0    0  501  502 -0.00000000000E+00 -0.00000000000E+00 -0.20315370468E+03  0.20315370468E+03  0.00000000000E+00 0.  1.
         25    1    1    2    0    0 -0.37153695801E+02 -0.11376736211E+03  0.92370253610E+02  0.19616491415E+03  0.12500000000E+03 0.  0.
         25    1    1    2    0    0  0.69225988551E+02  0.12671656016E+03  0.44083271513E+03  0.48042461098E+03  0.12500000000E+03 0.  0.
         25    1    1    2    0    0 -0.32072292750E+02 -0.12949198053E+02 -0.99471115811E+02  0.16344973715E+03  0.12500000000E+03 0.  0.
</event>
<event>
 5    0  0.5742667E-005  0.2429714E+03  0.7546771E-02  0.1117829E+00
         21   -1    0    0  502  501  0.00000000000E+00  0.00000000000E+00  0.21843694700E+03  0.21843694700E+03  0.00000000000E+00 0.  1.
         21   -1    0    0  501  502 -0.00000000000E+00 -0.00000000000E+00 -0.27026156973E+03  0.27026156973E+03  0.00000000000E+00 0.  1.
         25    1    1    2    0    0 -0.12126279289E+03 -0.15216093277E+02  0.36019406724E+02  0.17848975347E+03  0.12500000000E+03 0.  0.
         25    1    1    2    0    0  0.99989148772E+02  0.11189207073E+02 -0.88697350170E+02  0.18334461583E+03  0.12500000000E+03 0.  0.
         25    1    1    2    0    0  0.21273644118E+02  0.40268862035E+01  0.85332072350E+00  0.12686414743E+03  0.12500000000E+03 0.  0.
</event>
<event>
 5    0  0.5742667E-005  0.3185102E+03  0.7546771E-02  0.1076337E+00
         21   -1    0    0  502  501  0.00000000000E+00  0.00000000000E+00  0.17110562204E+03  0.17110562204E+03  0.00000000000E+00 0. -1.
         21   -1    0    0  501  502 -0.00000000000E+00 -0.00000000000E+00 -0.59290113681E+03  0.59290113681E+03  0.00000000000E+00 0. -1.
         25    1    1    2    0    0  0.57746207640E+02  0.55183169521E+02 -0.50580386047E+02  0.15672645644E+03  0.12500000000E+03 0.  0.
         25    1    1    2    0    0 -0.12271419891E+03 -0.20854871815E+03 -0.21252977749E+03  0.34546381689E+03  0.12500000000E+03 0.  0.
         25    1    1    2    0    0  0.64967991273E+02  0.15336554863E+03 -0.15868535123E+03  0.26181648552E+03  0.12500000000E+03 0.  0.
</event>
<event>
 5    0  0.5742667E-005  0.2498810E+03  0.7546771E-02  0.1113380E+00
         21   -1    0    0  502  501  0.00000000000E+00  0.00000000000E+00  0.19295636839E+04  0.19295636839E+04  0.00000000000E+00 0.  1.
         21   -1    0    0  501  502 -0.00000000000E+00 -0.00000000000E+00 -0.32359915958E+02  0.32359915958E+02  0.00000000000E+00 0.  1.
         25    1    1    2    0    0 -0.71518554132E+02 -0.81987091380E+02  0.76732368313E+03  0.78501428104E+03  0.12500000000E+03 0.  0.
         25    1    1    2    0    0  0.21722152868E+01  0.35878383886E+02  0.84410374541E+03  0.85406563563E+03  0.12500000000E+03 0.  0.
         25    1    1    2    0    0  0.69346338845E+02  0.46108707495E+02  0.28577633944E+03  0.32284368323E+03  0.12500000000E+03 0.  0.
</event>
<event>
 5    0  0.5847132E-005  0.3171334E+03  0.7546771E-02  0.1076976E+00
         21   -1    0    0  502  501  0.00000000000E+00  0.00000000000E+00  0.35940009743E+03  0.35940009743E+03  0.00000000000E+00 0. -1.
         21   -1    0    0  501  502 -0.00000000000E+00 -0.00000000000E+00 -0.27983736859E+03  0.27983736859E+03  0.00000000000E+00 0. -1.
         25    1    1    2    0    0  0.40912569332E+02  0.70240191480E+02  0.17427339167E+03  0.22935504763E+03  0.12500000000E+03 0.  0.
         25    1    1    2    0    0  0.11829044220E+03 -0.48997812939E+02  0.13379666552E+02  0.17943642291E+03  0.12500000000E+03 0.  0.
         25    1    1    2    0    0 -0.15920301153E+03 -0.21242378542E+02 -0.10809032938E+03  0.23044599548E+03  0.12500000000E+03 0.  0.
</event>
<event>
 5    0  0.5742667E-005  0.2153027E+03  0.7546771E-02  0.1137434E+00
         21   -1    0    0  502  501  0.00000000000E+00  0.00000000000E+00  0.57946974204E+03  0.57946974204E+03  0.00000000000E+00 0. -1.
         21   -1    0    0  501  502 -0.00000000000E+00 -0.00000000000E+00 -0.79995968449E+02  0.79995968449E+02  0.00000000000E+00 0. -1.
         25    1    1    2    0    0  0.15499062343E+00  0.65622882973E+02  0.21919741812E+03  0.26072762589E+03  0.12500000000E+03 0.  0.
         25    1    1    2    0    0 -0.31955285847E+02 -0.46033144040E+02  0.20951293484E+03  0.25032151428E+03  0.12500000000E+03 0.  0.
         25    1    1    2    0    0  0.31800295224E+02 -0.19589738934E+02  0.70763420636E+02  0.14841657033E+03  0.12500000000E+03 0.  0.
</event>
<event>
 5    0  0.5742667E-005  0.2488111E+03  0.7546771E-02  0.1114059E+00
         21   -1    0    0  502  501  0.00000000000E+00  0.00000000000E+00  0.45786346495E+02  0.45786346495E+02  0.00000000000E+00 0.  1.
         21   -1    0    0  501  502 -0.00000000000E+00 -0.00000000000E+00 -0.13520831732E+04  0.13520831732E+04  0.00000000000E+00 0.  1.
         25    1    1    2    0    0  0.67475185642E+02 -0.83552103731E+02 -0.23413804889E+03  0.28632059069E+03  0.12500000000E+03 0.  0.
         25    1    1    2    0    0 -0.88071317643E+02  0.43329280847E+02 -0.63813715404E+03  0.65763060371E+03  0.12500000000E+03 0.  0.
         25    1    1    2    0    0  0.20596132001E+02  0.40222822884E+02 -0.43402162380E+03  0.45391832532E+03  0.12500000000E+03 0.  0.
</event>
<event>
 5    0  0.5742667E-005  0.2703181E+03  0.7546771E-02  0.1101098E+00
         21   -1    0    0  502  501  0.00000000000E+00  0.00000000000E+00  0.12541229827E+03  0.12541229827E+03  0.00000000000E+00 0.  1.
         21   -1    0    0  501  502 -0.00000000000E+00 -0.00000000000E+00 -0.58265318122E+03  0.58265318122E+03  0.00000000000E+00 0.  1.
         25    1    1    2    0    0 -0.12902635674E+03  0.22379478092E+02 -0.22236796630E+03  0.28674231325E+03  0.12500000000E+03 0.  0.
         25    1    1    2    0    0  0.14159184678E+03 -0.81951090122E+02 -0.17391081723E+03  0.26950733681E+03  0.12500000000E+03 0.  0.
         25    1    1    2    0    0 -0.12565490042E+02  0.59571612030E+02 -0.60962099415E+02  0.15181582943E+03  0.12500000000E+03 0.  0.
</event>
<event>
 5    0  0.5742667E-005  0.3177633E+03  0.7546771E-02  0.1076683E+00
         21   -1    0    0  502  501  0.00000000000E+00  0.00000000000E+00  0.52294896892E+03  0.52294896892E+03  0.00000000000E+00 0.  1.
         21   -1    0    0  501  502 -0.00000000000E+00 -0.00000000000E+00 -0.19308480844E+03  0.19308480844E+03  0.00000000000E+00 0.  1.
         25    1    1    2    0    0  0.68634754194E+02 -0.16706106600E+03  0.21817376287E+03  0.30958830737E+03  0.12500000000E+03 0.  0.
         25    1    1    2    0    0 -0.12868435521E+03  0.54268444101E+02 -0.13959323084E+02  0.18794837058E+03  0.12500000000E+03 0.  0.
         25    1    1    2    0    0  0.60049601019E+02  0.11279262190E+03  0.12564972069E+03  0.21849709940E+03  0.12500000000E+03 0.  0.
</event>
<event>
 5    0  0.5742667E-005  0.3783650E+03  0.7546771E-02  0.1051540E+00
         21   -1    0    0  502  501  0.00000000000E+00  0.00000000000E+00  0.46139319289E+03  0.46139319289E+03  0.00000000000E+00 0. -1.
         21   -1    0    0  501  502 -0.00000000000E+00 -0.00000000000E+00 -0.31027781086E+03  0.31027781086E+03  0.00000000000E+00 0. -1.
         25    1    1    2    0    0 -0.10235152951E+03  0.46824949620E+02 -0.10511173680E+02  0.16853455513E+03  0.12500000000E+03 0.  0.
         25    1    1    2    0    0 -0.20310833299E+03 -0.13006523555E+01  0.14526886439E+02  0.23893663816E+03  0.12500000000E+03 0.  0.
         25    1    1    2    0    0  0.30545986250E+03 -0.45524297265E+02  0.14709966927E+03  0.36419981046E+03  0.12500000000E+03 0.  0.
</event>
<event>
 5    0  0.5742667E-005  0.3518571E+03  0.7546771E-02  0.1061855E+00
         21   -1    0    0  502  501  0.00000000000E+00  0.00000000000E+00  0.82471650159E+03  0.82471650159E+03  0.00000000000E+00 0. -1.
         21   -1    0    0  501  502 -0.00000000000E+00 -0.00000000000E+00 -0.15011633111E+03  0.15011633111E+03  0.00000000000E+00 0. -1.
         25    1    1    2    0    0 -0.89944497616E+02 -0.62451692099E+02 -0.18713055907E+02  0.16722860090E+03  0.12500000000E+03 0.  0.
         25    1    1    2    0    0 -0.12031461566E+01  0.14626702118E+03  0.17444110070E+03  0.25971173763E+03  0.12500000000E+03 0.  0.
         25    1    1    2    0    0  0.91147643772E+02 -0.83815329086E+02  0.51887212569E+03  0.54789249418E+03  0.12500000000E+03 0.  0.
</event>
<event>
 5    0  0.5742667E-005  0.3246617E+03  0.7546771E-02  0.1073524E+00
         21   -1    0    0  502  501  0.00000000000E+00  0.00000000000E+00  0.14445163219E+03  0.14445163219E+03  0.00000000000E+00 0.  1.
         21   -1    0    0  501  502 -0.00000000000E+00 -0.00000000000E+00 -0.72969222100E+03  0.72969222100E+03  0.00000000000E+00 0.  1.
         25    1    1    2    0    0 -0.65969898599E+02 -0.19743248998E+03 -0.83015647434E+02  0.25660906714E+03  0.12500000000E+03 0.  0.
         25    1    1    2    0    0  0.68053001297E+02  0.22730272132E+02 -0.21563685994E+03  0.25936871751E+03  0.12500000000E+03 0.  0.
         25    1    1    2    0    0 -0.20831026973E+01  0.17470221784E+03 -0.28658808144E+03  0.35816606855E+03  0.12500000000E+03 0.  0.
</event>
<event>
 5    0  0.5742667E-005  0.3900147E+03  0.7546771E-02  0.1047293E+00
         21   -1    0    0  502  501  0.00000000000E+00  0.00000000000E+00  0.14914274132E+03  0.14914274132E+03  0.00000000000E+00 0.  1.
         21   -1    0    0  501  502 -0.00000000000E+00 -0.00000000000E+00 -0.10199052482E+04  0.10199052482E+04  0.00000000000E+00 0.  1.
         25    1    1    2    0    0  0.90654242147E+02  0.84466091776E+01 -0.79250651165E+01  0.15484619299E+03  0.12500000000E+03 0.  0.
         25    1    1    2    0    0  0.18814440751E+03 -0.18274255526E+02 -0.34165749775E+03  0.40998428294E+03  0.12500000000E+03 0.  0.
         25    1    1    2    0    0 -0.27879864965E+03  0.98276463480E+01 -0.52117994398E+03  0.60421751356E+03  0.12500000000E+03 0.  0.
</event>
<event>
 5    0  0.5742667E-005  0.3763113E+03  0.7546771E-02  0.1052306E+00
         21   -1    0    0  502  501  0.00000000000E+00  0.00000000000E+00  0.25822097630E+03  0.25822097630E+03  0.00000000000E+00 0.  1.
         21   -1    0    0  501  502 -0.00000000000E+00 -0.00000000000E+00 -0.54840696461E+03  0.54840696461E+03  0.00000000000E+00 0.  1.
         25    1    1    2    0    0 -0.11669904063E+03  0.24929833116E+02 -0.26038473595E+03  0.31251459707E+03  0.12500000000E+03 0.  0.
         25    1    1    2    0    0 -0.28437241703E+02  0.16076794817E+03 -0.83589077017E+02  0.22196203205E+03  0.12500000000E+03 0.  0.
         25    1    1    2    0    0  0.14513628234E+03 -0.18569778129E+03  0.53787824659E+02  0.27215131179E+03  0.12500000000E+03 0.  0.
</event>
<event>
 5    0  0.5742667E-005  0.3051265E+03  0.7546771E-02  0.1082706E+00
         21   -1    0    0  502  501  0.00000000000E+00  0.00000000000E+00  0.18814444018E+04  0.18814444018E+04  0.00000000000E+00 0. -1.
         21   -1    0    0  501  502 -0.00000000000E+00 -0.00000000000E+00 -0.49484432924E+02  0.49484432924E+02  0.00000000000E+00 0. -1.
         25    1    1    2    0    0 -0.17364347733E+03 -0.12151878652E+03  0.79486700168E+03  0.83208017826E+03  0.12500000000E+03 0.  0.
         25    1    1    2    0    0  0.80657902868E+02  0.79072265197E+01  0.64407488635E+03  0.66107917889E+03  0.12500000000E+03 0.  0.
         25    1    1    2    0    0  0.92985574466E+02  0.11361156000E+03  0.39301808083E+03  0.43776947756E+03  0.12500000000E+03 0.  0.
</event>
<event>
 5    0  0.5742667E-005  0.2259253E+03  0.7546771E-02  0.1129541E+00
         21   -1    0    0  502  501  0.00000000000E+00  0.00000000000E+00  0.18415543358E+03  0.18415543358E+03  0.00000000000E+00 0. -1.
         21   -1    0    0  501  502 -0.00000000000E+00 -0.00000000000E+00 -0.27716937873E+03  0.27716937873E+03  0.00000000000E+00 0. -1.
         25    1    1    2    0    0 -0.46564494590E+02  0.69137694376E+02 -0.11943945285E+03  0.19193503025E+03  0.12500000000E+03 0.  0.
         25    1    1    2    0    0  0.18066816939E+02 -0.27943861107E+02  0.36344724826E+02  0.13436222784E+03  0.12500000000E+03 0.  0.
         25    1    1    2    0    0  0.28497677652E+02 -0.41193833269E+02 -0.99192171297E+01  0.13502755422E+03  0.12500000000E+03 0.  0.
</event>
<event>
 5    0  0.5742667E-005  0.2350000E+03  0.7546771E-02  0.1123169E+00
         21   -1    0    0  502  501  0.00000000000E+00  0.00000000000E+00  0.82590758831E+02  0.82590758831E+02  0.00000000000E+00 0.  1.
         21   -1    0    0  501  502 -0.00000000000E+00 -0.00000000000E+00 -0.66865825144E+03  0.66865825144E+03  0.00000000000E+00 0.  1.
         25    1    1    2    0    0  0.65094178462E+02 -0.21062914954E+02 -0.18000324284E+03  0.22958019490E+03  0.12500000000E+03 0.  0.
         25    1    1    2    0    0 -0.58428001662E+02  0.85890594685E+02 -0.31320474034E+03  0.35286432946E+03  0.12500000000E+03 0.  0.
         25    1    1    2    0    0 -0.66661767995E+01 -0.64827679731E+02 -0.92859509423E+02  0.16880448591E+03  0.12500000000E+03 0.  0.
</event>
<event>
 5    0  0.5742667E-005  0.3622985E+03  0.7546771E-02  0.1057677E+00
         21   -1    0    0  502  501  0.00000000000E+00  0.00000000000E+00  0.64642917201E+03  0.64642917201E+03  0.00000000000E+00 0.  1.
         21   -1    0    0  501  502 -0.00000000000E+00 -0.00000000000E+00 -0.20305425786E+03  0.20305425786E+03  0.00000000000E+00 0.  1.
         25    1    1    2    0    0  0.20090264242E+02 -0.81405279569E+02  0.30003041626E+03  0.33566901695E+03  0.12500000000E+03 0.  0.
         25    1    1    2    0    0  0.12026351055E+02  0.21460996512E+03 -0.41351315536E+02  0.25206547075E+03  0.12500000000E+03 0.  0.
         25    1    1    2    0    0 -0.32116615297E+02 -0.13320468555E+03  0.18469581343E+03  0.26174894217E+03  0.12500000000E+03 0.  0.
</event>
<event>
 5    0  0.5742667E-005  0.3113642E+03  0.7546771E-02  0.1079694E+00
         21   -1    0    0  502  501  0.00000000000E+00  0.00000000000E+00  0.60913279319E+02  0.60913279319E+02  0.00000000000E+00 0.  1.
         21   -1    0    0  501  502 -0.00000000000E+00 -0.00000000000E+00 -0.15915689756E+04  0.15915689756E+04  0.00000000000E+00 0.  1.
         25    1    1    2    0    0 -0.10634009972E+03  0.73568740834E+02 -0.66133088004E+03  0.68534962562E+03  0.12500000000E+03 0.  0.
         25    1    1    2    0    0  0.12870477136E+02 -0.74956331934E+02 -0.76622006687E+03  0.78006556888E+03  0.12500000000E+03 0.  0.
         25    1    1    2    0    0  0.93469622586E+02  0.13875910995E+01 -0.10310474939E+03  0.18706706044E+03  0.12500000000E+03 0.  0.
</event>
<event>
 5    0  0.5742667E-005  0.3845876E+03  0.7546771E-02  0.1049251E+00
         21   -1    0    0  502  501  0.00000000000E+00  0.00000000000E+00  0.24323686972E+03  0.24323686972E+03  0.00000000000E+00 0.  1.
         21   -1    0    0  501  502 -0.00000000000E+00 -0.00000000000E+00 -0.60808075301E+03  0.60808075301E+03  0.00000000000E+00 0.  1.
         25    1    1    2    0    0 -0.50112613262E+02  0.22909161554E+03 -0.32608155568E+03  0.42065237819E+03  0.12500000000E+03 0.  0.
         25    1    1    2    0    0  0.36089894226E+02 -0.59281155644E+02  0.10298721199E+03  0.17620471536E+03  0.12500000000E+03 0.  0.
         25    1    1    2    0    0  0.14022719036E+02 -0.16981045990E+03 -0.14174953959E+03  0.25446052919E+03  0.12500000000E+03 0.  0.
</event>
<event>
 5    0  0.5742667E-005  0.3301147E+03  0.7546771E-02  0.1071086E+00
         21   -1    0    0  502  501  0.00000000000E+00  0.00000000000E+00  0.51924958441E+03  0.51924958441E+03  0.00000000000E+00 0. -1.
         21   -1    0    0  501  502 -0.00000000000E+00 -0.00000000000E+00 -0.20987159833E+03  0.20987159833E+03  0.00000000000E+00 0. -1.
         25    1    1    2    0    0 -0.11746419033E+03 -0.59214957611E+02  0.38232645476E+03  0.42320534640E+03  0.12500000000E+03 0.  0.
         25    1    1    2    0    0  0.13030262275E+02  0.38959197907E+02 -0.47101094450E+02  0.13975378326E+03  0.12500000000E+03 0.  0.
         25    1    1    2    0    0  0.10443392806E+03  0.20255759703E+02 -0.25847374223E+02  0.16616205308E+03  0.12500000000E+03 0.  0.
</event>
<event>
 5    0  0.5742667E-005  0.2891068E+03  0.7546771E-02  0.1090816E+00
         21   -1    0    0  502  501  0.00000000000E+00  0.00000000000E+00  0.45868473315E+03  0.45868473315E+03  0.00000000000E+00 0. -1.
         21   -1    0    0  501  502 -0.00000000000E+00 -0.00000000000E+00 -0.18222264631E+03  0.18222264631E+03  0.00000000000E+00 0. -1.
         25    1    1    2    0    0 -0.78135912351E+01  0.12711068158E+03  0.11358379552E+03  0.21152885426E+03  0.12500000000E+03 0.  0.
         25    1    1    2    0    0 -0.88328025939E+02 -0.97798719166E+02  0.19425104359E+03  0.26594153036E+03  0.12500000000E+03 0.  0.
         25    1    1    2    0    0  0.96141617174E+02 -0.29311962416E+02 -0.31372752268E+02  0.16343699483E+03  0.12500000000E+03 0.  0.
</event>
<event>
 5    0  0.5742667E-005  0.2568396E+03  0.7546771E-02  0.1109057E+00
         21   -1    0    0  502  501  0.00000000000E+00  0.00000000000E+00  0.41390923067E+03  0.41390923067E+03  0.00000000000E+00 0. -1.
         21   -1    0    0  501  502 -0.00000000000E+00 -0.00000000000E+00 -0.15937446080E+03  0.15937446080E+03  0.00000000000E+00 0. -1.
         25    1    1    2    0    0 -0.89159905723E+02  0.30386967782E+02  0.13523147730E+03  0.20684634164E+03  0.12500000000E+03 0.  0.
         25    1    1    2    0    0 -0.69118183864E+02 -0.36059632796E+01  0.54252996953E+02  0.15283557829E+03  0.12500000000E+03 0.  0.
         25    1    1    2    0    0  0.15827808959E+03 -0.26781004502E+02  0.65050295621E+02  0.21360177154E+03  0.12500000000E+03 0.  0.
</event>
<event>
 5    0  0.5742667E-005  0.2249551E+03  0.7546771E-02  0.1130242E+00
         21   -1    0    0  502  501  0.00000000000E+00  0.00000000000E+00  0.56511940027E+03  0.56511940027E+03  0.00000000000E+00 0.  1.
         21   -1    0    0  501  502 -0.00000000000E+00 -0.00000000000E+00 -0.89547089656E+02  0.89547089656E+02  0.00000000000E+00 0.  1.
         25    1    1    2    0    0  0.74607582654E+02 -0.72215100542E+02  0.22026663823E+03  0.27372194660E+03  0.12500000000E+03 0.  0.
         25    1    1    2    0    0 -0.32326794035E+02 -0.49183033019E+01  0.13015607726E+03  0.18339797100E+03  0.12500000000E+03 0.  0.
         25    1    1    2    0    0 -0.42280788619E+02  0.77133403844E+02  0.12514959512E+03  0.19754657232E+03  0.12500000000E+03 0.  0.
</event>
<event>
 5    0  0.5742667E-005  0.7376906E+03  0.7546771E-02  0.9654862E-01
         21   -1    0    0  502  501  0.00000000000E+00  0.00000000000E+00  0.40879416852E+03  0.40879416852E+03  0.00000000000E+00 0.  1.
         21   -1    0    0  501  502 -0.00000000000E+00 -0.00000000000E+00 -0.13312013681E+04  0.13312013681E+04  0.00000000000E+00 0.  1.
         25    1    1    2    0    0 -0.58580444534E+02 -0.40671344833E+03  0.22335347021E+03  0.48410667233E+03  0.12500000000E+03 0.  0.
         25    1    1    2    0    0 -0.27547704509E+02  0.10120935667E+03 -0.49391773696E+03  0.52017491365E+03  0.12500000000E+03 0.  0.
         25    1    1    2    0    0  0.86128149043E+02  0.30550409166E+03 -0.65184293281E+03  0.73571395062E+03  0.12500000000E+03 0.  0.
</event>
<event>
 5    0  0.5742667E-005  0.4132416E+03  0.7546771E-02  0.1039289E+00
         21   -1    0    0  502  501  0.00000000000E+00  0.00000000000E+00  0.78688595193E+03  0.78688595193E+03  0.00000000000E+00 0.  1.
         21   -1    0    0  501  502 -0.00000000000E+00 -0.00000000000E+00 -0.21701822766E+03  0.21701822766E+03  0.00000000000E+00 0.  1.
         25    1    1    2    0    0 -0.17198313653E+03  0.12187976594E+02  0.18224525673E+03  0.28029463003E+03  0.12500000000E+03 0.  0.
         25    1    1    2    0    0  0.27861228675E+03  0.10795022857E+03  0.47661414123E+02  0.32737542451E+03  0.12500000000E+03 0.  0.
         25    1    1    2    0    0 -0.10662915022E+03 -0.12013820516E+03  0.33996105341E+03  0.39623412505E+03  0.12500000000E+03 0.  0.
</event>
<event>
 5    0  0.5742667E-005  0.3199433E+03  0.7546771E-02  0.1075675E+00
         21   -1    0    0  502  501  0.00000000000E+00  0.00000000000E+00  0.34744645312E+03  0.34744645312E+03  0.00000000000E+00 0.  1.
         21   -1    0    0  501  502 -0.00000000000E+00 -0.00000000000E+00 -0.29461728715E+03  0.29461728715E+03  0.00000000000E+00 0.  1.
         25    1    1    2    0    0  0.34503107818E+02 -0.15435011383E+03  0.18182244903E+03  0.27147527523E+03  0.12500000000E+03 0.  0.
         25    1    1    2    0    0 -0.75949663417E+02  0.76402630610E+02 -0.14104722613E+03  0.21708301024E+03  0.12500000000E+03 0.  0.
         25    1    1    2    0    0  0.41446555599E+02  0.77947483218E+02  0.12053943070E+02  0.15350545480E+03  0.12500000000E+03 0.  0.
</event>
<event>
 5    0  0.5742667E-005  0.2960783E+03  0.7546771E-02  0.1087218E+00
         21   -1    0    0  502  501  0.00000000000E+00  0.00000000000E+00  0.37789061286E+03  0.37789061286E+03  0.00000000000E+00 0. -1.
         21   -1    0    0  501  502 -0.00000000000E+00 -0.00000000000E+00 -0.23197809541E+03  0.23197809541E+03  0.00000000000E+00 0. -1.
         25    1    1    2    0    0  0.15435616295E+02 -0.46791667655E+02  0.53171288300E+02  0.14449880384E+03  0.12500000000E+03 0.  0.
         25    1    1    2    0    0  0.16585991608E+03  0.47096059532E+02  0.11841092189E+03  0.24366718492E+03  0.12500000000E+03 0.  0.
         25    1    1    2    0    0 -0.18129553237E+03 -0.30439187716E+00 -0.25669692730E+02  0.22170271951E+03  0.12500000000E+03 0.  0.
</event>
<event>
 5    0  0.5742667E-005  0.2929193E+03  0.7546771E-02  0.1088835E+00
         21   -1    0    0  502  501  0.00000000000E+00  0.00000000000E+00  0.21909058862E+04  0.21909058862E+04  0.00000000000E+00 0. -1.
         21   -1    0    0  501  502 -0.00000000000E+00 -0.00000000000E+00 -0.39162655113E+02  0.39162655113E+02  0.00000000000E+00 0. -1.
         25    1    1    2    0    0 -0.76590218603E+02 -0.16543899090E+03  0.10187924591E+04  0.10424966168E+04  0.12500000000E+03 0.  0.
         25    1    1    2    0    0  0.84501019853E+02  0.13653028681E+02  0.61803643352E+03  0.63633392232E+03  0.12500000000E+03 0.  0.
         25    1    1    2    0    0 -0.79108012496E+01  0.15178596222E+03  0.51491433843E+03  0.55123800216E+03  0.12500000000E+03 0.  0.
</event>
<event>
 5    0  0.5742667E-005  0.4938675E+03  0.7546771E-02  0.1015392E+00
         21   -1    0    0  502  501  0.00000000000E+00  0.00000000000E+00  0.37603182590E+03  0.37603182590E+03  0.00000000000E+00 0.  1.
         21   -1    0    0  501  502 -0.00000000000E+00 -0.00000000000E+00 -0.64862886586E+03  0.64862886586E+03  0.00000000000E+00 0.  1.
         25    1    1    2    0    0  0.13243410532E+03 -0.14724686808E+03  0.52824527756E+02  0.24007470326E+03  0.12500000000E+03 0.  0.
         25    1    1    2    0    0 -0.24431054564E+03  0.78423746805E+02  0.11545042269E+03  0.30788265114E+03  0.12500000000E+03 0.  0.
         25    1    1    2    0    0  0.11187644032E+03  0.68823121275E+02 -0.44087199041E+03  0.47670333736E+03  0.12500000000E+03 0.  0.
</event>
<event>
 5    0  0.5742667E-005  0.3968755E+03  0.7546771E-02  0.1044867E+00
         21   -1    0    0  502  501  0.00000000000E+00  0.00000000000E+00  0.28885352561E+03  0.28885352561E+03  0.00000000000E+00 0.  1.
         21   -1    0    0  501  502 -0.00000000000E+00 -0.00000000000E+00 -0.54529411301E+03  0.54529411301E+03  0.00000000000E+00 0.  1.
         25    1    1    2    0    0 -0.17678933979E+03  0.89917220317E+02 -0.39153406687E+03  0.45635896254E+03  0.12500000000E+03 0.  0.
         25    1    1    2    0    0  0.98697627224E+02 -0.12000698714E+03  0.10103410482E+03  0.22355265357E+03  0.12500000000E+03 0.  0.
         25    1    1    2    0    0  0.78091712568E+02  0.30089766819E+02  0.34059374650E+02  0.15423602251E+03  0.12500000000E+03 0.  0.
</event>
<event>
 5    0  0.5742667E-005  0.2400529E+03  0.7546771E-02  0.1119758E+00
         21   -1    0    0  502  501  0.00000000000E+00  0.00000000000E+00  0.37965085685E+03  0.37965085685E+03  0.00000000000E+00 0.  1.
         21   -1    0    0  501  502 -0.00000000000E+00 -0.00000000000E+00 -0.15178521732E+03  0.15178521732E+03  0.00000000000E+00 0.  1.
         25    1    1    2    0    0 -0.51483454412E+02  0.12700265775E+03  0.84810806867E+02  0.20395610831E+03  0.12500000000E+03 0.  0.
         25    1    1    2    0    0 -0.10925689976E+02 -0.69955655885E+02  0.71147587251E+02  0.16031264349E+03  0.12500000000E+03 0.  0.
         25    1    1    2    0    0  0.62409144388E+02 -0.57047001868E+02  0.71907245409E+02  0.16716732237E+03  0.12500000000E+03 0.  0.
</event>
<event>
 5    0  0.5742667E-005  0.3496123E+03  0.7546771E-02  0.1062774E+00
         21   -1    0    0  502  501  0.00000000000E+00  0.00000000000E+00  0.22092814230E+03  0.22092814230E+03  0.00000000000E+00 0. -1.
         21   -1    0    0  501  502 -0.00000000000E+00 -0.00000000000E+00 -0.55325122402E+03  0.55325122402E+03  0.00000000000E+00 0. -1.
         25    1    1    2    0    0  0.86108603742E+02  0.26385057586E+02  0.48011746296E+02  0.16137221162E+03  0.12500000000E+03 0.  0.
         25    1    1    2    0    0 -0.13183851445E+02 -0.19847307192E+03 -0.28297501828E+03  0.36778422367E+03  0.12500000000E+03 0.  0.
         25    1    1    2    0    0 -0.72924752297E+02  0.17208801433E+03 -0.97359809735E+02  0.24502293102E+03  0.12500000000E+03 0.  0.
</event>
<event>
 5    0  0.5742667E-005  0.4054505E+03  0.7546771E-02  0.1041909E+00
         21   -1    0    0  502  501  0.00000000000E+00  0.00000000000E+00  0.18045054928E+03  0.18045054928E+03  0.00000000000E+00 0.  1.
         21   -1    0    0  501  502 -0.00000000000E+00 -0.00000000000E+00 -0.91099826095E+03  0.91099826095E+03  0.00000000000E+00 0.  1.
         25    1    1    2    0    0  0.57146664238E+02 -0.12716376916E+03 -0.40399509706E+03  0.44527901799E+03  0.12500000000E+03 0.  0.
         25    1    1    2    0    0 -0.25142948342E+03  0.16158074677E+03 -0.19409952250E+03  0.37765691771E+03  0.12500000000E+03 0.  0.
         25    1    1    2    0    0  0.19428281919E+03 -0.34416977614E+02 -0.13245309210E+03  0.26851287453E+03  0.12500000000E+03 0.  0.
</event>
<event>
 5    0  0.5742667E-005  0.3953313E+03  0.7546771E-02  0.1045408E+00
         21   -1    0    0  502  501  0.00000000000E+00  0.00000000000E+00  0.29400000324E+03  0.29400000324E+03  0.00000000000E+00 0.  1.
         21   -1    0    0  501  502 -0.00000000000E+00 -0.00000000000E+00 -0.53158786307E+03  0.53158786307E+03  0.00000000000E+00 0.  1.
         25    1    1    2    0    0  0.51095505435E+02  0.19462398494E+03 -0.48669928979E+01  0.23693445045E+03  0.12500000000E+03 0.  0.
         25    1    1    2    0    0 -0.12507056124E+03  0.73591790883E+02  0.19960567064E+02  0.19256640728E+03  0.12500000000E+03 0.  0.
         25    1    1    2    0    0  0.73975055805E+02 -0.26821577582E+03 -0.25268143400E+03  0.39608700858E+03  0.12500000000E+03 0.  0.
</event>
<event>
 5    0  0.5742667E-005  0.3526656E+03  0.7546771E-02  0.1061526E+00
         21   -1    0    0  502  501  0.00000000000E+00  0.00000000000E+00  0.18727795610E+03  0.18727795610E+03  0.00000000000E+00 0.  1.
         21   -1    0    0  501  502 -0.00000000000E+00 -0.00000000000E+00 -0.66410943575E+03  0.66410943575E+03  0.00000000000E+00 0.  1.
         25    1    1    2    0    0 -0.70710298616E+02  0.10538846031E+03 -0.51592084501E+03  0.54580765129E+03  0.12500000000E+03 0.  0.
         25    1    1    2    0    0  0.83640777236E+01 -0.71789858878E+02  0.67075070279E+02  0.15920994531E+03  0.12500000000E+03 0.  0.
         25    1    1    2    0    0  0.62346220892E+02 -0.33598601432E+02 -0.27985704919E+02  0.14636979524E+03  0.12500000000E+03 0.  0.
</event>
<event>
 5    0  0.5742667E-005  0.2062321E+03  0.7546771E-02  0.1144585E+00
         21   -1    0    0  502  501  0.00000000000E+00  0.00000000000E+00  0.68295328867E+03  0.68295328867E+03  0.00000000000E+00 0.  1.
         21   -1    0    0  501  502 -0.00000000000E+00 -0.00000000000E+00 -0.62276144143E+02  0.62276144143E+02  0.00000000000E+00 0.  1.
         25    1    1    2    0    0 -0.27164311518E+02 -0.12427199455E+02  0.16860248947E+03  0.21200031736E+03  0.12500000000E+03 0.  0.
         25    1    1    2    0    0  0.73746715357E+02  0.29962706947E+02  0.23267543000E+03  0.27586083006E+03  0.12500000000E+03 0.  0.
         25    1    1    2    0    0 -0.46582403839E+02 -0.17535507493E+02  0.21939922505E+03  0.25736828539E+03  0.12500000000E+03 0.  0.
</event>
<event>
 5    0  0.5742667E-005  0.2951635E+03  0.7546771E-02  0.1087684E+00
         21   -1    0    0  502  501  0.00000000000E+00  0.00000000000E+00  0.10461390849E+04  0.10461390849E+04  0.00000000000E+00 0.  1.
         21   -1    0    0  501  502 -0.00000000000E+00 -0.00000000000E+00 -0.83279049320E+02  0.83279049320E+02  0.00000000000E+00 0.  1.
         25    1    1    2    0    0 -0.20159687421E+03 -0.21349618890E+02  0.29839653394E+03  0.38178868159E+03  0.12500000000E+03 0.  0.
         25    1    1    2    0    0  0.12246685180E+03  0.66699403441E+02  0.34025757331E+03  0.38839046899E+03  0.12500000000E+03 0.  0.
         25    1    1    2    0    0  0.79130022413E+02 -0.45349784551E+02  0.32420592832E+03  0.35923898363E+03  0.12500000000E+03 0.  0.
</event>
<event>
 5    0  0.5742667E-005  0.4075510E+03  0.7546771E-02  0.1041196E+00
         21   -1    0    0  502  501  0.00000000000E+00  0.00000000000E+00  0.13925559952E+03  0.13925559952E+03  0.00000000000E+00 0. -1.
         21   -1    0    0  501  502 -0.00000000000E+00 -0.00000000000E+00 -0.11927548610E+04  0.11927548610E+04  0.00000000000E+00 0. -1.
         25    1    1    2    0    0  0.56377061480E+02  0.13483841436E+03 -0.38979844431E+03  0.43465802446E+03  0.12500000000E+03 0.  0.
         25    1    1    2    0    0  0.15057668714E+03 -0.23283136256E+03 -0.51212889611E+03  0.59563813540E+03  0.12500000000E+03 0.  0.
         25    1    1    2    0    0 -0.20695374862E+03  0.97992948200E+02 -0.15157192105E+03  0.30171430065E+03  0.12500000000E+03 0.  0.
</event>
<event>
 5    0  0.5742667E-005  0.5026446E+03  0.7546771E-02  0.1013091E+00
         21   -1    0    0  502  501  0.00000000000E+00  0.00000000000E+00  0.62550407186E+03  0.62550407186E+03  0.00000000000E+00 0. -1.
         21   -1    0    0  501  502 -0.00000000000E+00 -0.00000000000E+00 -0.40391681896E+03  0.40391681896E+03  0.00000000000E+00 0. -1.
         25    1    1    2    0    0 -0.21597124999E+03 -0.29786675660E+02 -0.12206157814E+03  0.27938299112E+03  0.12500000000E+03 0.  0.
         25    1    1    2    0    0  0.34506287481E+03  0.17943074940E+03  0.31205534977E+03  0.51406937539E+03  0.12500000000E+03 0.  0.
         25    1    1    2    0    0 -0.12909162482E+03 -0.14964407374E+03  0.31593481270E+02  0.23596852430E+03  0.12500000000E+03 0.  0.
</event>
<event>
 5    0  0.5742667E-005  0.4079315E+03  0.7546771E-02  0.1041067E+00
         21   -1    0    0  502  501  0.00000000000E+00  0.00000000000E+00  0.17580757961E+03  0.17580757961E+03  0.00000000000E+00 0. -1.
         21   -1    0    0  501  502 -0.00000000000E+00 -0.00000000000E+00 -0.94653549931E+03  0.94653549931E+03  0.00000000000E+00 0. -1.
         25    1    1    2    0    0 -0.68948410594E+02 -0.20223627545E+03 -0.13470786091E+03  0.28182370770E+03  0.12500000000E+03 0.  0.
         25    1    1    2    0    0  0.18075771483E+03  0.43703012572E+02 -0.79010361127E+02  0.23759406968E+03  0.12500000000E+03 0.  0.
         25    1    1    2    0    0 -0.11180930424E+03  0.15853326288E+03 -0.55700969766E+03  0.60292530154E+03  0.12500000000E+03 0.  0.
</event>
<event>
 5    0  0.5742667E-005  0.3121484E+03  0.7546771E-02  0.1079321E+00
         21   -1    0    0  502  501  0.00000000000E+00  0.00000000000E+00  0.32557513480E+03  0.32557513480E+03  0.00000000000E+00 0. -1.
         21   -1    0    0  501  502 -0.00000000000E+00 -0.00000000000E+00 -0.29927533985E+03  0.29927533985E+03  0.00000000000E+00 0. -1.
         25    1    1    2    0    0 -0.78521525217E+02  0.16680053200E+03 -0.11782660663E+03  0.25198443727E+03  0.12500000000E+03 0.  0.
         25    1    1    2    0    0  0.63356195071E+02 -0.49593835802E+02  0.32912579282E+00  0.14865619505E+03  0.12500000000E+03 0.  0.
         25    1    1    2    0    0  0.15165330146E+02 -0.11720669620E+03  0.14379727578E+03  0.22420984232E+03  0.12500000000E+03 0.  0.
</event>
<event>
 5    0  0.5742667E-005  0.3111618E+03  0.7546771E-02  0.1079790E+00
         21   -1    0    0  502  501  0.00000000000E+00  0.00000000000E+00  0.84166577795E+02  0.84166577795E+02  0.00000000000E+00 0.  1.
         21   -1    0    0  501  502 -0.00000000000E+00 -0.00000000000E+00 -0.11503574805E+04  0.11503574805E+04  0.00000000000E+00 0.  1.
         25    1    1    2    0    0 -0.43109113838E+02 -0.14332552158E+03 -0.31588594729E+03  0.37122706331E+03  0.12500000000E+03 0.  0.
         25    1    1    2    0    0  0.15244009587E+03  0.30870815502E+02 -0.22354085679E+03  0.29964396328E+03  0.12500000000E+03 0.  0.
         25    1    1    2    0    0 -0.10933098203E+03  0.11245470608E+03 -0.52676409857E+03  0.56365303166E+03  0.12500000000E+03 0.  0.
</event>
<event>
 5    0  0.5742667E-005  0.2895398E+03  0.7546771E-02  0.1090590E+00
         21   -1    0    0  502  501  0.00000000000E+00  0.00000000000E+00  0.90313902243E+03  0.90313902243E+03  0.00000000000E+00 0.  1.
         21   -1    0    0  501  502 -0.00000000000E+00 -0.00000000000E+00 -0.92824341612E+02  0.92824341612E+02  0.00000000000E+00 0.  1.
         25    1    1    2    0    0  0.33743244945E+02 -0.75550596811E+02  0.25264630978E+03  0.29377143684E+03  0.12500000000E+03 0.  0.
         25    1    1    2    0    0  0.14114232173E+03  0.16634604610E+02  0.34821885016E+03  0.39633222511E+03  0.12500000000E+03 0.  0.
         25    1    1    2    0    0 -0.17488556668E+03  0.58915992201E+02  0.20944952088E+03  0.30585970209E+03  0.12500000000E+03 0.  0.
</event>
<event>
 5    0  0.5742667E-005  0.2920402E+03  0.7546771E-02  0.1089289E+00
         21   -1    0    0  502  501  0.00000000000E+00  0.00000000000E+00  0.85829085529E+02  0.85829085529E+02  0.00000000000E+00 0. -1.
         21   -1    0    0  501  502 -0.00000000000E+00 -0.00000000000E+00 -0.99368962980E+03  0.99368962980E+03  0.00000000000E+00 0. -1.
         25    1    1    2    0    0 -0.21934935583E+02 -0.18900885042E+03 -0.29140809001E+03  0.36979610849E+03  0.12500000000E+03 0.  0.
         25    1    1    2    0    0 -0.51631680095E+02  0.14579992356E+03 -0.38204081880E+03  0.43070132961E+03  0.12500000000E+03 0.  0.
         25    1    1    2    0    0  0.73566615678E+02  0.43208926862E+02 -0.23441163547E+03  0.27902127723E+03  0.12500000000E+03 0.  0.
</event>
<event>
 5    0  0.5742667E-005  0.2388553E+03  0.7546771E-02  0.1120558E+00
         21   -1    0    0  502  501  0.00000000000E+00  0.00000000000E+00  0.23023899946E+03  0.23023899946E+03  0.00000000000E+00 0.  1.
         21   -1    0    0  501  502 -0.00000000000E+00 -0.00000000000E+00 -0.24779413952E+03  0.24779413952E+03  0.00000000000E+00 0.  1.
         25    1    1    2    0    0 -0.29176537359E+02 -0.49943223587E+02 -0.42547864186E+01  0.13779948883E+03  0.12500000000E+03 0.  0.
         25    1    1    2    0    0  0.89279585980E+02  0.66116067324E+02  0.65839974408E+02  0.17972779713E+03  0.12500000000E+03 0.  0.
         25    1    1    2    0    0 -0.60103048621E+02 -0.16172843737E+02 -0.79140328059E+02  0.16050585302E+03  0.12500000000E+03 0.  0.
</event>
<event>
 5    0  0.5742667E-005  0.3311972E+03  0.7546771E-02  0.1070608E+00
         21   -1    0    0  502  501  0.00000000000E+00  0.00000000000E+00  0.72267285800E+03  0.72267285800E+03  0.00000000000E+00 0. -1.
         21   -1    0    0  501  502 -0.00000000000E+00 -0.00000000000E+00 -0.15178593467E+03  0.15178593467E+03  0.00000000000E+00 0. -1.
         25    1    1    2    0    0  0.11007056989E+03 -0.18154459979E+03  0.34976556328E+03  0.42782580722E+03  0.12500000000E+03 0.  0.
         25    1    1    2    0    0 -0.75831649508E+02  0.32167603399E+01  0.18851731793E+02  0.14744888744E+03  0.12500000000E+03 0.  0.
         25    1    1    2    0    0 -0.34238920386E+02  0.17832783945E+03  0.20226962826E+03  0.29918409802E+03  0.12500000000E+03 0.  0.
</event>
<event>
 5    0  0.5742667E-005  0.3451829E+03  0.7546771E-02  0.1064610E+00
         21   -1    0    0  502  501  0.00000000000E+00  0.00000000000E+00  0.63975602534E+02  0.63975602534E+02  0.00000000000E+00 0. -1.
         21   -1    0    0  501  502 -0.00000000000E+00 -0.00000000000E+00 -0.18624484335E+04  0.18624484335E+04  0.00000000000E+00 0. -1.
         25    1    1    2    0    0  0.78611724095E+02  0.24738252487E+03 -0.73821999144E+03  0.79244663703E+03  0.12500000000E+03 0.  0.
         25    1    1    2    0    0 -0.96167622248E+02 -0.63866786672E+02 -0.58270639909E+03  0.60704112344E+03  0.12500000000E+03 0.  0.
         25    1    1    2    0    0  0.17555898153E+02 -0.18351573820E+03 -0.47754644041E+03  0.52693627553E+03  0.12500000000E+03 0.  0.
</event>
<event>
 5    0  0.5742667E-005  0.2598673E+03  0.7546771E-02  0.1107223E+00
         21   -1    0    0  502  501  0.00000000000E+00  0.00000000000E+00  0.83654800694E+03  0.83654800694E+03  0.00000000000E+00 0. -1.
         21   -1    0    0  501  502 -0.00000000000E+00 -0.00000000000E+00 -0.80725787452E+02  0.80725787452E+02  0.00000000000E+00 0. -1.
         25    1    1    2    0    0  0.84803055875E+02  0.42619499442E+02  0.19084659552E+03  0.24709391543E+03  0.12500000000E+03 0.  0.
         25    1    1    2    0    0  0.22427697960E+02  0.62892312242E+02  0.35984887049E+03  0.38674882568E+03  0.12500000000E+03 0.  0.
         25    1    1    2    0    0 -0.10723075384E+03 -0.10551181168E+03  0.20512675348E+03  0.28343105328E+03  0.12500000000E+03 0.  0.
</event>
<event>
 5    0  0.5742667E-005  0.2824653E+03  0.7546771E-02  0.1094350E+00
         21   -1    0    0  502  501  0.00000000000E+00  0.00000000000E+00  0.11759320223E+03  0.11759320223E+03  0.00000000000E+00 0.  1.
         21   -1    0    0  501  502 -0.00000000000E+00 -0.00000000000E+00 -0.67849698725E+03  0.67849698725E+03  0.00000000000E+00 0.  1.
         25    1    1    2    0    0  0.14400343488E+02 -0.15676555015E+03 -0.18571966069E+03  0.27367791283E+03  0.12500000000E+03 0.  0.
         25    1    1    2    0    0 -0.41579914648E+01  0.63801618770E+02 -0.33194805499E+03  0.36041982002E+03  0.12500000000E+03 0.  0.
         25    1    1    2    0    0 -0.10242352023E+02  0.92963931383E+02 -0.43236069338E+02  0.16199245663E+03  0.12500000000E+03 0.  0.
</event>
<event>
 5    0  0.5742667E-005  0.2040660E+03  0.7546771E-02  0.1146353E+00
         21   -1    0    0  502  501  0.00000000000E+00  0.00000000000E+00  0.10876995946E+03  0.10876995946E+03  0.00000000000E+00 0. -1.
         21   -1    0    0  501  502 -0.00000000000E+00 -0.00000000000E+00 -0.38285324353E+03  0.38285324353E+03  0.00000000000E+00 0. -1.
         25    1    1    2    0    0 -0.76231060546E+01 -0.59858639138E+02 -0.67524462144E+02  0.15435582727E+03  0.12500000000E+03 0.  0.
         25    1    1    2    0    0  0.51893836734E+01  0.38616888534E+02 -0.61699812442E+02  0.14474135773E+03  0.12500000000E+03 0.  0.
         25    1    1    2    0    0  0.24337223812E+01  0.21241750604E+02 -0.14485900948E+03  0.19252601798E+03  0.12500000000E+03 0.  0.
</event>
<event>
 5    0  0.5742667E-005  0.2617171E+03  0.7546771E-02  0.1106116E+00
         21   -1    0    0  502  501  0.00000000000E+00  0.00000000000E+00  0.38190439775E+02  0.38190439775E+02  0.00000000000E+00 0.  1.
         21   -1    0    0  501  502 -0.00000000000E+00 -0.00000000000E+00 -0.17935337305E+04  0.17935337305E+04  0.00000000000E+00 0.  1.
         25    1    1    2    0    0 -0.39341758057E+02 -0.28421447415E+02 -0.88363338139E+03  0.89374968829E+03  0.12500000000E+03 0.  0.
         25    1    1    2    0    0  0.40921568547E+02 -0.36763950753E+02 -0.15097345051E+03  0.20357835250E+03  0.12500000000E+03 0.  0.
         25    1    1    2    0    0 -0.15798104901E+01  0.65185398169E+02 -0.72073645878E+03  0.73439612945E+03  0.12500000000E+03 0.  0.
</event>
<event>
 5    0  0.5742667E-005  0.2692064E+03  0.7546771E-02  0.1101735E+00
         21   -1    0    0  502  501  0.00000000000E+00  0.00000000000E+00  0.18782783364E+04  0.18782783364E+04  0.00000000000E+00 0. -1.
         21   -1    0    0  501  502 -0.00000000000E+00 -0.00000000000E+00 -0.38584317668E+02  0.38584317668E+02  0.00000000000E+00 0. -1.
         25    1    1    2    0    0 -0.53553737061E+02  0.11835136886E+03  0.37009490785E+03  0.41166769376E+03  0.12500000000E+03 0.  0.
         25    1    1    2    0    0  0.56282903899E+02 -0.12454674060E+03  0.10861602436E+04  0.11018387952E+04  0.12500000000E+03 0.  0.
         25    1    1    2    0    0 -0.27291668377E+01  0.61953717414E+01  0.38343886730E+03  0.40335616511E+03  0.12500000000E+03 0.  0.
</event>
<event>
 5    0  0.5742667E-005  0.2266870E+03  0.7546771E-02  0.1128994E+00
         21   -1    0    0  502  501  0.00000000000E+00  0.00000000000E+00  0.21157427042E+03  0.21157427042E+03  0.00000000000E+00 0. -1.
         21   -1    0    0  501  502 -0.00000000000E+00 -0.00000000000E+00 -0.24287924172E+03  0.24287924172E+03  0.00000000000E+00 0. -1.
         25    1    1    2    0    0 -0.63899571855E+02 -0.12603374518E+02  0.13528074538E+02  0.14159805484E+03  0.12500000000E+03 0.  0.
         25    1    1    2    0    0 -0.16393460264E+02  0.16080011751E+02 -0.92052703698E+02  0.15692677457E+03  0.12500000000E+03 0.  0.
         25    1    1    2    0    0  0.80293032119E+02 -0.34766372336E+01  0.47219657855E+02  0.15592868274E+03  0.12500000000E+03 0.  0.
</event>
<event>
 5    0  0.6519684E-005  0.2822089E+03  0.7546771E-02  0.1094489E+00
         21   -1    0    0  502  501  0.00000000000E+00  0.00000000000E+00  0.55678308195E+03  0.55678308195E+03  0.00000000000E+00 0. -1.
         21   -1    0    0  501  502 -0.00000000000E+00 -0.00000000000E+00 -0.14303927595E+03  0.14303927595E+03  0.00000000000E+00 0. -1.
         25    1    1    2    0    0 -0.65450275330E+02  0.91825947952E+02 -0.28373263643E+02  0.17072136758E+03  0.12500000000E+03 0.  0.
         25    1    1    2    0    0 -0.81917809379E+00 -0.66647060721E+02  0.16928128562E+03  0.22073435486E+03  0.12500000000E+03 0.  0.
         25    1    1    2    0    0  0.66269453423E+02 -0.25178887232E+02  0.27283578403E+03  0.30836663546E+03  0.12500000000E+03 0.  0.
</event>
<event>
 5    0  0.5742667E-005  0.2738749E+03  0.7546771E-02  0.1099082E+00
         21   -1    0    0  502  501  0.00000000000E+00  0.00000000000E+00  0.36737564449E+03  0.36737564449E+03  0.00000000000E+00 0.  1.
         21   -1    0    0  501  502 -0.00000000000E+00 -0.00000000000E+00 -0.20417101825E+03  0.20417101825E+03  0.00000000000E+00 0.  1.
         25    1    1    2    0    0 -0.14579539693E+03 -0.15346075054E+02  0.44016825689E+02  0.19762155938E+03  0.12500000000E+03 0.  0.
         25    1    1    2    0    0  0.44121314266E+02 -0.19826294470E+02  0.15525191681E+03  0.20510468059E+03  0.12500000000E+03 0.  0.
         25    1    1    2    0    0  0.10167408267E+03  0.35172369524E+02 -0.36064116266E+02  0.16882042278E+03  0.12500000000E+03 0.  0.
</event>
<event>
 5    0  0.5742667E-005  0.3635076E+03  0.7546771E-02  0.1057204E+00
         21   -1    0    0  502  501  0.00000000000E+00  0.00000000000E+00  0.19826547080E+03  0.19826547080E+03  0.00000000000E+00 0. -1.
         21   -1    0    0  501  502 -0.00000000000E+00 -0.00000000000E+00 -0.66646900188E+03  0.66646900188E+03  0.00000000000E+00 0. -1.
         25    1    1    2    0    0  0.10601491334E+03  0.80729099877E+02 -0.14665421032E+02  0.18329327318E+03  0.12500000000E+03 0.  0.
         25    1    1    2    0    0 -0.25176158616E+03 -0.12835648556E+03 -0.24853871615E+03  0.39655488533E+03  0.12500000000E+03 0.  0.
         25    1    1    2    0    0  0.14574667282E+03  0.47627385686E+02 -0.20499939389E+03  0.28488631417E+03  0.12500000000E+03 0.  0.
</event>
<event>
 5    0  0.6395063E-005  0.3048462E+03  0.7546771E-02  0.1082843E+00
         21   -1    0    0  502  501  0.00000000000E+00  0.00000000000E+00  0.51202157595E+03  0.51202157595E+03  0.00000000000E+00 0.  1.
         21   -1    0    0  501  502 -0.00000000000E+00 -0.00000000000E+00 -0.18149858385E+03  0.18149858385E+03  0.00000000000E+00 0.  1.
         25    1    1    2    0    0 -0.67786513702E+02  0.71476598792E+02  0.24065284715E+03  0.28851812500E+03  0.12500000000E+03 0.  0.
         25    1    1    2    0    0 -0.78840040900E+01 -0.17544870973E+03  0.49683865781E+02  0.22121910809E+03  0.12500000000E+03 0.  0.
         25    1    1    2    0    0  0.75670517792E+02  0.10397211093E+03  0.40186279179E+02  0.18378292671E+03  0.12500000000E+03 0.  0.
</event>
<event>
 5    0  0.5742667E-005  0.2541417E+03  0.7546771E-02  0.1110715E+00
         21   -1    0    0  502  501  0.00000000000E+00  0.00000000000E+00  0.17165834614E+03  0.17165834614E+03  0.00000000000E+00 0. -1.
         21   -1    0    0  501  502 -0.00000000000E+00 -0.00000000000E+00 -0.37625901717E+03  0.37625901717E+03  0.00000000000E+00 0. -1.
         25    1    1    2    0    0  0.42426999517E+02 -0.53765196599E+02 -0.17201062366E+03  0.22339069208E+03  0.12500000000E+03 0.  0.
         25    1    1    2    0    0  0.55905212444E+01  0.11408470744E+03 -0.50197217730E+02  0.17661068786E+03  0.12500000000E+03 0.  0.
         25    1    1    2    0    0 -0.48017520761E+02 -0.60319510843E+02  0.17607170355E+02  0.14791598337E+03  0.12500000000E+03 0.  0.
</event>
<event>
 5    0  0.6214869E-005  0.2701353E+03  0.7546771E-02  0.1101202E+00
         21   -1    0    0  502  501  0.00000000000E+00  0.00000000000E+00  0.54948104850E+03  0.54948104850E+03  0.00000000000E+00 0.  1.
         21   -1    0    0  501  502 -0.00000000000E+00 -0.00000000000E+00 -0.13280366166E+03  0.13280366166E+03  0.00000000000E+00 0.  1.
         25    1    1    2    0    0  0.54709051449E+02 -0.92472173119E+02  0.17579603466E+03  0.24098429184E+03  0.12500000000E+03 0.  0.
         25    1    1    2    0    0  0.77917889161E+02 -0.22281564992E+02  0.62102249056E+02  0.16139812554E+03  0.12500000000E+03 0.  0.
         25    1    1    2    0    0 -0.13262694061E+03  0.11475373811E+03  0.17877910313E+03  0.27990229278E+03  0.12500000000E+03 0.  0.
</event>
<event>
 5    0  0.5742667E-005  0.3448596E+03  0.7546771E-02  0.1064745E+00
         21   -1    0    0  502  501  0.00000000000E+00  0.00000000000E+00  0.12798534176E+04  0.12798534176E+04  0.00000000000E+00 0. -1.
         21   -1    0    0  501  502 -0.00000000000E+00 -0.00000000000E+00 -0.92923264951E+02  0.92923264951E+02  0.00000000000E+00 0. -1.
         25    1    1    2    0    0  0.14720081383E+03 -0.84927394170E+01  0.73199690587E+03  0.75708960924E+03  0.12500000000E+03 0.  0.
         25    1    1    2    0    0  0.44325283596E+02 -0.79530456563E+02  0.26015461677E+03  0.30264706989E+03  0.12500000000E+03 0.  0.
         25    1    1    2    0    0 -0.19152609742E+03  0.88023195980E+02  0.19477862997E+03  0.31304000338E+03  0.12500000000E+03 0.  0.
</event>
<event>
 5    0  0.5742667E-005  0.3853440E+03  0.7546771E-02  0.1048976E+00
         21   -1    0    0  502  501  0.00000000000E+00  0.00000000000E+00  0.89987061733E+03  0.89987061733E+03  0.00000000000E+00 0. -1.
         21   -1    0    0  501  502 -0.00000000000E+00 -0.00000000000E+00 -0.16501261254E+03  0.16501261254E+03  0.00000000000E+00 0. -1.
         25    1    1    2    0    0  0.22308693390E+03  0.11482864291E+03  0.61205588611E+03  0.67319447787E+03  0.12500000000E+03 0.  0.
         25    1    1    2    0    0 -0.41602875474E+02 -0.57963319267E+02  0.38475154659E+02  0.14898282839E+03  0.12500000000E+03 0.  0.
         25    1    1    2    0    0 -0.18148405842E+03 -0.56865323645E+02  0.84326964024E+02  0.24270592361E+03  0.12500000000E+03 0.  0.
</event>
<event>
 5    0  0.5742667E-005  0.5029580E+03  0.7546771E-02  0.1013010E+00
         21   -1    0    0  502  501  0.00000000000E+00  0.00000000000E+00  0.57433650146E+03  0.57433650146E+03  0.00000000000E+00 0. -1.
         21   -1    0    0  501  502 -0.00000000000E+00 -0.00000000000E+00 -0.44045049442E+03  0.44045049442E+03  0.00000000000E+00 0. -1.
         25    1    1    2    0    0 -0.73779980589E+02 -0.16008661223E+03  0.71580191219E+02  0.22763991901E+03  0.12500000000E+03 0.  0.
         25    1    1    2    0    0 -0.25569484203E+02  0.93580694874E+02 -0.32582843957E+03  0.36221584312E+03  0.12500000000E+03 0.  0.
         25    1    1    2    0    0  0.99349464792E+02  0.66505917356E+02  0.38813425540E+03  0.42493123375E+03  0.12500000000E+03 0.  0.
</event>
<event>
 5    0  0.5742667E-005  0.3134292E+03  0.7546771E-02  0.1078714E+00
         21   -1    0    0  502  501  0.00000000000E+00  0.00000000000E+00  0.22325321499E+03  0.22325321499E+03  0.00000000000E+00 0.  1.
         21   -1    0    0  501  502 -0.00000000000E+00 -0.00000000000E+00 -0.44002883613E+03  0.44002883613E+03  0.00000000000E+00 0.  1.
         25    1    1    2    0    0  0.12931301676E+03 -0.16487440536E+03 -0.51177569504E+02  0.24929815376E+03  0.12500000000E+03 0.  0.
         25    1    1    2    0    0 -0.52016844969E+02 -0.16987321009E+02 -0.18404626375E+02  0.13768824027E+03  0.12500000000E+03 0.  0.
         25    1    1    2    0    0 -0.77296171793E+02  0.18186172637E+03 -0.14719342525E+03  0.27629565709E+03  0.12500000000E+03 0.  0.
</event>
<event>
 5    0  0.5742667E-005  0.2868827E+03  0.7546771E-02  0.1091988E+00
         21   -1    0    0  502  501  0.00000000000E+00  0.00000000000E+00  0.45690910237E+02  0.45690910237E+02  0.00000000000E+00 0. -1.
         21   -1    0    0  501  502 -0.00000000000E+00 -0.00000000000E+00 -0.18012701186E+04  0.18012701186E+04  0.00000000000E+00 0. -1.
         25    1    1    2    0    0  0.79614264733E+02 -0.92607271167E+02 -0.10101986457E+04  0.10252028295E+04  0.12500000000E+03 0.  0.
         25    1    1    2    0    0 -0.11143632280E+03 -0.21810653319E+02 -0.43621751178E+03  0.46776540725E+03  0.12500000000E+03 0.  0.
         25    1    1    2    0    0  0.31822058062E+02  0.11441792449E+03 -0.30916305086E+03  0.35399279207E+03  0.12500000000E+03 0.  0.
</event>
<event>
 5    0  0.5742667E-005  0.4488976E+03  0.7546771E-02  0.1028051E+00
         21   -1    0    0  502  501  0.00000000000E+00  0.00000000000E+00  0.66247689659E+03  0.66247689659E+03  0.00000000000E+00 0.  1.
         21   -1    0    0  501  502 -0.00000000000E+00 -0.00000000000E+00 -0.30417519899E+03  0.30417519899E+03  0.00000000000E+00 0.  1.
         25    1    1    2    0    0 -0.34867130954E+03 -0.41942567248E+02  0.23512077130E+03  0.44072399315E+03  0.12500000000E+03 0.  0.
         25    1    1    2    0    0  0.23497014744E+03 -0.13695785977E+02 -0.57207617269E+02  0.27257339601E+03  0.12500000000E+03 0.  0.
         25    1    1    2    0    0  0.11370116210E+03  0.55638353225E+02  0.18038854357E+03  0.25335470642E+03  0.12500000000E+03 0.  0.
</event>
<event>
 5    0  0.5742667E-005  0.3060240E+03  0.7546771E-02  0.1082267E+00
         21   -1    0    0  502  501  0.00000000000E+00  0.00000000000E+00  0.94510091494E+03  0.94510091494E+03  0.00000000000E+00 0.  1.
         21   -1    0    0  501  502 -0.00000000000E+00 -0.00000000000E+00 -0.99090644682E+02  0.99090644682E+02  0.00000000000E+00 0.  1.
         25    1    1    2    0    0  0.36209479356E+02 -0.14801907321E+03  0.58624603760E+03  0.61849024975E+03  0.12500000000E+03 0.  0.
         25    1    1    2    0    0 -0.11535772541E+02 -0.82277565874E+01  0.51783843462E+02  0.13604167182E+03  0.12500000000E+03 0.  0.
         25    1    1    2    0    0 -0.24673706814E+02  0.15624682980E+03  0.20798038920E+03  0.28965963806E+03  0.12500000000E+03 0.  0.
</event>
<event>
 5    0  0.5742667E-005  0.2324795E+03  0.7546771E-02  0.1124907E+00
         21   -1    0    0  502  501  0.00000000000E+00  0.00000000000E+00  0.22778407122E+03  0.22778407122E+03  0.00000000000E+00 0.  1.
         21   -1    0    0  501  502 -0.00000000000E+00 -0.00000000000E+00 -0.23727178154E+03  0.23727178154E+03  0.00000000000E+00 0.  1.
         25    1    1    2    0    0 -0.24633458308E+02 -0.31922375802E+02  0.15130188748E+02  0.13221107350E+03  0.12500000000E+03 0.  0.
         25    1    1    2    0    0  0.20577343780E+02 -0.87191244370E+02 -0.41557047574E+02  0.15930388688E+03  0.12500000000E+03 0.  0.
         25    1    1    2    0    0  0.40561145279E+01  0.11911362017E+03  0.16939148513E+02  0.17354089238E+03  0.12500000000E+03 0.  0.
</event>
<event>
 5    0  0.5742667E-005  0.2982876E+03  0.7546771E-02  0.1086100E+00
         21   -1    0    0  502  501  0.00000000000E+00  0.00000000000E+00  0.10975231786E+03  0.10975231786E+03  0.00000000000E+00 0. -1.
         21   -1    0    0  501  502 -0.00000000000E+00 -0.00000000000E+00 -0.81069378261E+03  0.81069378261E+03  0.00000000000E+00 0. -1.
         25    1    1    2    0    0 -0.34873728498E+02  0.10763122534E+03 -0.16383171881E+03  0.23508825937E+03  0.12500000000E+03 0.  0.
         25    1    1    2    0    0 -0.94135571114E+02 -0.13121815645E+03 -0.42706344541E+03  0.47337923142E+03  0.12500000000E+03 0.  0.
         25    1    1    2    0    0  0.12900929961E+03  0.23586931114E+02 -0.11004630053E+03  0.21197860969E+03  0.12500000000E+03 0.  0.
</event>
<event>
 5    0  0.5742667E-005  0.3146636E+03  0.7546771E-02  0.1078132E+00
         21   -1    0    0  502  501  0.00000000000E+00  0.00000000000E+00  0.85036916136E+02  0.85036916136E+02  0.00000000000E+00 0.  1.
         21   -1    0    0  501  502 -0.00000000000E+00 -0.00000000000E+00 -0.11643553579E+04  0.11643553579E+04  0.00000000000E+00 0.  1.
         25    1    1    2    0    0  0.60376629299E+02  0.18473010815E+03 -0.41438693177E+03  0.47445977642E+03  0.12500000000E+03 0.  0.
         25    1    1    2    0    0 -0.32900205892E+02  0.41890962099E+02 -0.26437147186E+03  0.29724493501E+03  0.12500000000E+03 0.  0.
         25    1    1    2    0    0 -0.27476423407E+02 -0.22662107025E+03 -0.40056003817E+03  0.47768756264E+03  0.12500000000E+03 0.  0.
</event>
<event>
 5    0  0.5742667E-005  0.2618893E+03  0.7546771E-02  0.1106013E+00
         21   -1    0    0  502  501  0.00000000000E+00  0.00000000000E+00  0.12272490364E+03  0.12272490364E+03  0.00000000000E+00 0. -1.
         21   -1    0    0  501  502 -0.00000000000E+00 -0.00000000000E+00 -0.55885954944E+03  0.55885954944E+03  0.00000000000E+00 0. -1.
         25    1    1    2    0    0 -0.15780396874E+03 -0.10521356591E+02 -0.26770257252E+03  0.33511559025E+03  0.12500000000E+03 0.  0.
         25    1    1    2    0    0  0.11321367868E+03 -0.23713180723E+01 -0.10626057917E+03  0.19934711153E+03  0.12500000000E+03 0.  0.
         25    1    1    2    0    0  0.44590290056E+02  0.12892674664E+02 -0.62171494095E+02  0.14712175130E+03  0.12500000000E+03 0.  0.
</event>
<event>
 5    0  0.5742667E-005  0.2810613E+03  0.7546771E-02  0.1095111E+00
         21   -1    0    0  502  501  0.00000000000E+00  0.00000000000E+00  0.69071758993E+02  0.69071758993E+02  0.00000000000E+00 0. -1.
         21   -1    0    0  501  502 -0.00000000000E+00 -0.00000000000E+00 -0.11436722679E+04  0.11436722679E+04  0.00000000000E+00 0. -1.
         25    1    1    2    0    0  0.23365586078E+02  0.12989295717E+03 -0.26321430103E+03  0.31988263348E+03  0.12500000000E+03 0.  0.
         25    1    1    2    0    0 -0.70459211098E+02  0.43318789315E+02 -0.26735659401E+03  0.30650540990E+03  0.12500000000E+03 0.  0.
         25    1    1    2    0    0  0.47093625020E+02 -0.17321174649E+03 -0.54402961388E+03  0.58635598353E+03  0.12500000000E+03 0.  0.
</event>
<event>
 5    0  0.5742667E-005  0.2679542E+03  0.7546771E-02  0.1102456E+00
         21   -1    0    0  502  501  0.00000000000E+00  0.00000000000E+00  0.34640374442E+03  0.34640374442E+03  0.00000000000E+00 0. -1.
         21   -1    0    0  501  502 -0.00000000000E+00 -0.00000000000E+00 -0.20727101569E+03  0.20727101569E+03  0.00000000000E+00 0. -1.
         25    1    1    2    0    0 -0.13672334763E+03 -0.32734877552E+02  0.37021315633E+02  0.19173008060E+03  0.12500000000E+03 0.  0.
         25    1    1    2    0    0  0.17239440759E+03  0.63121178177E+00  0.71145649370E+02  0.22451488508E+03  0.12500000000E+03 0.  0.
         25    1    1    2    0    0 -0.35671059960E+02  0.32103665770E+02  0.30965763725E+02  0.13742979443E+03  0.12500000000E+03 0.  0.
</event>
<event>
 5    0  0.5742667E-005  0.2584924E+03  0.7546771E-02  0.1108052E+00
         21   -1    0    0  502  501  0.00000000000E+00  0.00000000000E+00  0.20610343154E+03  0.20610343154E+03  0.00000000000E+00 0. -1.
         21   -1    0    0  501  502 -0.00000000000E+00 -0.00000000000E+00 -0.32419798041E+03  0.32419798041E+03  0.00000000000E+00 0. -1.
         25    1    1    2    0    0 -0.52952586558E+02  0.23188884801E+02 -0.17751114991E+03  0.22467066818E+03  0.12500000000E+03 0.  0.
         25    1    1    2    0    0  0.48550383568E+02 -0.67101475761E+02 -0.19725614130E+02  0.15124102501E+03  0.12500000000E+03 0.  0.
         25    1    1    2    0    0  0.44022029895E+01  0.43912590961E+02  0.79142215158E+02  0.15438971875E+03  0.12500000000E+03 0.  0.
</event>
<event>
 5    0  0.5742667E-005  0.3184299E+03  0.7546771E-02  0.1076374E+00
         21   -1    0    0  502  501  0.00000000000E+00  0.00000000000E+00  0.11697048792E+03  0.11697048792E+03  0.00000000000E+00 0. -1.
         21   -1    0    0  501  502 -0.00000000000E+00 -0.00000000000E+00 -0.86686480606E+03  0.86686480606E+03  0.00000000000E+00 0. -1.
         25    1    1    2    0    0 -0.52708843082E+02  0.32887798323E+02 -0.25957609549E+03  0.29472797418E+03  0.12500000000E+03 0.  0.
         25    1    1    2    0    0 -0.14182096951E+03  0.10264323773E+03 -0.24121394673E+03  0.32319961284E+03  0.12500000000E+03 0.  0.
         25    1    1    2    0    0  0.19452981260E+03 -0.13553103605E+03 -0.24910427593E+03  0.36590770695E+03  0.12500000000E+03 0.  0.
</event>
<event>
 5    0  0.5742667E-005  0.2532941E+03  0.7546771E-02  0.1111241E+00
         21   -1    0    0  502  501  0.00000000000E+00  0.00000000000E+00  0.29074940906E+03  0.29074940906E+03  0.00000000000E+00 0.  1.
         21   -1    0    0  501  502 -0.00000000000E+00 -0.00000000000E+00 -0.22066389525E+03  0.22066389525E+03  0.00000000000E+00 0.  1.
         25    1    1    2    0    0  0.10104696724E+03 -0.41289772323E+02  0.99886062411E+02  0.19369450264E+03  0.12500000000E+03 0.  0.
         25    1    1    2    0    0 -0.24712561514E+02  0.93129731540E+02 -0.37286926439E+02  0.16217019602E+03  0.12500000000E+03 0.  0.
         25    1    1    2    0    0 -0.76334405730E+02 -0.51839959217E+02  0.74863778420E+01  0.15554860566E+03  0.12500000000E+03 0.  0.
</event>
<event>
 5    0  0.5742667E-005  0.3062694E+03  0.7546771E-02  0.1082148E+00
         21   -1    0    0  502  501  0.00000000000E+00  0.00000000000E+00  0.39761490663E+03  0.39761490663E+03  0.00000000000E+00 0. -1.
         21   -1    0    0  501  502 -0.00000000000E+00 -0.00000000000E+00 -0.23590902177E+03  0.23590902177E+03  0.00000000000E+00 0. -1.
         25    1    1    2    0    0  0.98511210491E+02  0.46526123808E+02  0.14679087950E+03  0.22145360935E+03  0.12500000000E+03 0.  0.
         25    1    1    2    0    0 -0.15686274794E+03  0.23983916008E+02 -0.93886699880E+02  0.22275740691E+03  0.12500000000E+03 0.  0.
         25    1    1    2    0    0  0.58351537454E+02 -0.70510039816E+02  0.10880170524E+03  0.18931291214E+03  0.12500000000E+03 0.  0.
</event>
<event>
 5    0  0.5742667E-005  0.2517994E+03  0.7546771E-02  0.1112173E+00
         21   -1    0    0  502  501  0.00000000000E+00  0.00000000000E+00  0.70513293394E+03  0.70513293394E+03  0.00000000000E+00 0. -1.
         21   -1    0    0  501  502 -0.00000000000E+00 -0.00000000000E+00 -0.89916292559E+02  0.89916292559E+02  0.00000000000E+00 0. -1.
         25    1    1    2    0    0  0.13516933420E+03  0.43520810583E+01  0.37857798554E+03  0.42099403874E+03  0.12500000000E+03 0.  0.
         25    1    1    2    0    0 -0.49534664513E+02 -0.11263623434E+02  0.84382902799E+02  0.15914152973E+03  0.12500000000E+03 0.  0.
         25    1    1    2    0    0 -0.85634669691E+02  0.69115423760E+01  0.15225575303E+03  0.21491365802E+03  0.12500000000E+03 0.  0.
</event>
<event>
 5    0  0.5742667E-005  0.4395196E+03  0.7546771E-02  0.1030894E+00
         21   -1    0    0  502  501  0.00000000000E+00  0.00000000000E+00  0.20999310731E+04  0.20999310731E+04  0.00000000000E+00 0. -1.
         21   -1    0    0  501  502 -0.00000000000E+00 -0.00000000000E+00 -0.91992307663E+02  0.91992307663E+02  0.00000000000E+00 0. -1.
         25    1    1    2    0    0 -0.18108627621E+03 -0.28475851508E+03  0.14330444689E+04  0.14775388662E+04  0.12500000000E+03 0.  0.
         25    1    1    2    0    0  0.78625443648E+02  0.14925454258E+03  0.24299342330E+03  0.32113810524E+03  0.12500000000E+03 0.  0.
         25    1    1    2    0    0  0.10246083256E+03  0.13550397250E+03  0.33190087323E+03  0.39324640929E+03  0.12500000000E+03 0.  0.
</event>
<event>
 5    0  0.5742667E-005  0.4171249E+03  0.7546771E-02  0.1038006E+00
         21   -1    0    0  502  501  0.00000000000E+00  0.00000000000E+00  0.14610329950E+03  0.14610329950E+03  0.00000000000E+00 0. -1.
         21   -1    0    0  501  502 -0.00000000000E+00 -0.00000000000E+00 -0.11908917259E+04  0.11908917259E+04  0.00000000000E+00 0. -1.
         25    1    1    2    0    0  0.14399504455E+03 -0.63494184234E+02  0.51502371495E+01  0.20104131224E+03  0.12500000000E+03 0.  0.
         25    1    1    2    0    0 -0.16643096668E+02  0.17619295256E+03 -0.62493644231E+03  0.66143140697E+03  0.12500000000E+03 0.  0.
         25    1    1    2    0    0 -0.12735194788E+03 -0.11269876833E+03 -0.42500222121E+03  0.47452230616E+03  0.12500000000E+03 0.  0.
</event>
<event>
 5    0  0.5742667E-005  0.3872883E+03  0.7546771E-02  0.1048272E+00
         21   -1    0    0  502  501  0.00000000000E+00  0.00000000000E+00  0.40830508487E+03  0.40830508487E+03  0.00000000000E+00 0. -1.
         21   -1    0    0  501  502 -0.00000000000E+00 -0.00000000000E+00 -0.36735332030E+03  0.36735332030E+03  0.00000000000E+00 0. -1.
         25    1    1    2    0    0 -0.13456898084E+03  0.74986033830E+02  0.57039674890E+02  0.20642248033E+03  0.12500000000E+03 0.  0.
         25    1    1    2    0    0  0.15408631008E+03 -0.24271849954E+03 -0.11895886834E+03  0.33530743107E+03  0.12500000000E+03 0.  0.
         25    1    1    2    0    0 -0.19517329239E+02  0.16773246571E+03  0.10287095801E+03  0.23392849377E+03  0.12500000000E+03 0.  0.
</event>
<event>
 5    0  0.5742667E-005  0.2666801E+03  0.7546771E-02  0.1103195E+00
         21   -1    0    0  502  501  0.00000000000E+00  0.00000000000E+00  0.93894660220E+02  0.93894660220E+02  0.00000000000E+00 0.  1.
         21   -1    0    0  501  502 -0.00000000000E+00 -0.00000000000E+00 -0.75742622742E+03  0.75742622742E+03  0.00000000000E+00 0.  1.
         25    1    1    2    0    0 -0.32954290958E+02 -0.43790951076E+02 -0.22610529232E+03  0.26410648592E+03  0.12500000000E+03 0.  0.
         25    1    1    2    0    0 -0.68026966445E+02 -0.17104034691E+02 -0.37982920716E+03  0.40597468243E+03  0.12500000000E+03 0.  0.
         25    1    1    2    0    0  0.10098125740E+03  0.60894985767E+02 -0.57597067722E+02  0.18123971929E+03  0.12500000000E+03 0.  0.
</event>
<event>
 5    0  0.5742667E-005  0.3511352E+03  0.7546771E-02  0.1062150E+00
         21   -1    0    0  502  501  0.00000000000E+00  0.00000000000E+00  0.49946753516E+02  0.49946753516E+02  0.00000000000E+00 0. -1.
         21   -1    0    0  501  502 -0.00000000000E+00 -0.00000000000E+00 -0.24685480944E+04  0.24685480944E+04  0.00000000000E+00 0. -1.
         25    1    1    2    0    0 -0.10234539965E+02  0.29524099973E+02 -0.17416715522E+04  0.17464309932E+04  0.12500000000E+03 0.  0.
         25    1    1    2    0    0  0.12916060367E+02  0.51669180754E+02 -0.57654047361E+03  0.59233474199E+03  0.12500000000E+03 0.  0.
         25    1    1    2    0    0 -0.26815204019E+01 -0.81193280728E+02 -0.10038931512E+03  0.17972911277E+03  0.12500000000E+03 0.  0.
</event>
<event>
 5    0  0.5742667E-005  0.2687335E+03  0.7546771E-02  0.1102007E+00
         21   -1    0    0  502  501  0.00000000000E+00  0.00000000000E+00  0.54655440949E+03  0.54655440949E+03  0.00000000000E+00 0. -1.
         21   -1    0    0  501  502 -0.00000000000E+00 -0.00000000000E+00 -0.13213269815E+03  0.13213269815E+03  0.00000000000E+00 0. -1.
         25    1    1    2    0    0 -0.84908694020E-01 -0.63231758510E+02  0.64639596724E+02  0.15427747716E+03  0.12500000000E+03 0.  0.
         25    1    1    2    0    0 -0.38743042000E+02 -0.95238850044E+02  0.24518296392E+03  0.29378758935E+03  0.12500000000E+03 0.  0.
         25    1    1    2    0    0  0.38827950694E+02  0.15847060855E+03  0.10459915069E+03  0.23062204113E+03  0.12500000000E+03 0.  0.
</event>
<event>
 5    0  0.5742667E-005  0.3725317E+03  0.7546771E-02  0.1053729E+00
         21   -1    0    0  502  501  0.00000000000E+00  0.00000000000E+00  0.10651743998E+04  0.10651743998E+04  0.00000000000E+00 0.  1.
         21   -1    0    0  501  502 -0.00000000000E+00 -0.00000000000E+00 -0.13028837231E+03  0.13028837231E+03  0.00000000000E+00 0.  1.
         25    1    1    2    0    0 -0.69751717065E+02 -0.19234154617E+03  0.40037531396E+03  0.46667543802E+03  0.12500000000E+03 0.  0.
         25    1    1    2    0    0 -0.14391366795E+03  0.21789173501E+02  0.17028355840E+03  0.25652953469E+03  0.12500000000E+03 0.  0.
         25    1    1    2    0    0  0.21366538501E+03  0.17055237267E+03  0.36422715513E+03  0.47225779942E+03  0.12500000000E+03 0.  0.
</event>
<event>
 5    0  0.5742667E-005  0.2933625E+03  0.7546771E-02  0.1088606E+00
         21   -1    0    0  502  501  0.00000000000E+00  0.00000000000E+00  0.52630737175E+02  0.52630737175E+02  0.00000000000E+00 0. -1.
         21   -1    0    0  501  502 -0.00000000000E+00 -0.00000000000E+00 -0.16351961425E+04  0.16351961425E+04  0.00000000000E+00 0. -1.
         25    1    1    2    0    0  0.82670002080E+01  0.58055287173E+02 -0.14793046710E+03  0.20235410240E+03  0.12500000000E+03 0.  0.
         25    1    1    2    0    0  0.94808104383E+02  0.75986808722E+02 -0.69494007890E+03  0.71647001683E+03  0.12500000000E+03 0.  0.
         25    1    1    2    0    0 -0.10307510459E+03 -0.13404209589E+03 -0.73969485928E+03  0.76900276040E+03  0.12500000000E+03 0.  0.
</event>
<event>
 5    0  0.5851801E-005  0.3515817E+03  0.7546771E-02  0.1061968E+00
         21   -1    0    0  502  501  0.00000000000E+00  0.00000000000E+00  0.16235689957E+03  0.16235689957E+03  0.00000000000E+00 0. -1.
         21   -1    0    0  501  502 -0.00000000000E+00 -0.00000000000E+00 -0.76134556803E+03  0.76134556803E+03  0.00000000000E+00 0. -1.
         25    1    1    2    0    0  0.13300935447E+03 -0.62554780944E+02 -0.21673157520E+03  0.29017609254E+03  0.12500000000E+03 0.  0.
         25    1    1    2    0    0 -0.17336626295E+03  0.19115565010E+03 -0.34024984735E+03  0.44496213583E+03  0.12500000000E+03 0.  0.
         25    1    1    2    0    0  0.40356908486E+02 -0.12860086915E+03 -0.42007245899E+02  0.18856423923E+03  0.12500000000E+03 0.  0.
</event>
<event>
 5    0  0.5742667E-005  0.2161505E+03  0.7546771E-02  0.1136786E+00
         21   -1    0    0  502  501  0.00000000000E+00  0.00000000000E+00  0.29399225246E+03  0.29399225246E+03  0.00000000000E+00 0.  1.
         21   -1    0    0  501  502 -0.00000000000E+00 -0.00000000000E+00 -0.15891927589E+03  0.15891927589E+03  0.00000000000E+00 0.  1.
         25    1    1    2    0    0 -0.25730154164E+02 -0.14799506801E+02  0.69354300887E+02  0.14600029208E+03  0.12500000000E+03 0.  0.
         25    1    1    2    0    0 -0.11225555870E+02 -0.66215595403E+02  0.57841218511E+02  0.15323552048E+03  0.12500000000E+03 0.  0.
         25    1    1    2    0    0  0.36955710034E+02  0.81015102205E+02  0.78774571733E+01  0.15367571578E+03  0.12500000000E+03 0.  0.
</event>
<event>
 5    0  0.5742667E-005  0.5152500E+03  0.7546771E-02  0.1009873E+00
         21   -1    0    0  502  501  0.00000000000E+00  0.00000000000E+00  0.12132710307E+04  0.12132710307E+04  0.00000000000E+00 0.  1.
         21   -1    0    0  501  502 -0.00000000000E+00 -0.00000000000E+00 -0.21881555321E+03  0.21881555321E+03  0.00000000000E+00 0.  1.
         25    1    1    2    0    0  0.23419163674E+03 -0.50395075404E+02  0.43327223641E+03  0.51062238218E+03  0.12500000000E+03 0.  0.
         25    1    1    2    0    0  0.81269212552E+02 -0.89797071281E+02  0.52434513611E+03  0.55247716757E+03  0.12500000000E+03 0.  0.
         25    1    1    2    0    0 -0.31546084929E+03  0.14019214668E+03  0.36838105001E+02  0.36898703420E+03  0.12500000000E+03 0.  0.
</event>
<event>
 5    0  0.5742667E-005  0.2768959E+03  0.7546771E-02  0.1097397E+00
         21   -1    0    0  502  501  0.00000000000E+00  0.00000000000E+00  0.23089919642E+04  0.23089919642E+04  0.00000000000E+00 0. -1.
         21   -1    0    0  501  502 -0.00000000000E+00 -0.00000000000E+00 -0.33205550156E+02  0.33205550156E+02  0.00000000000E+00 0. -1.
         25    1    1    2    0    0 -0.43716440286E+02  0.11213634978E+03  0.76925333735E+03  0.78858188232E+03  0.12500000000E+03 0.  0.
         25    1    1    2    0    0  0.12468284948E+03 -0.11465652137E+03  0.11151502175E+04  0.11348466585E+04  0.12500000000E+03 0.  0.
         25    1    1    2    0    0 -0.80966409194E+02  0.25201715815E+01  0.39138285925E+03  0.41876897353E+03  0.12500000000E+03 0.  0.
</event>
<event>
 5    0  0.5742667E-005  0.2499960E+03  0.7546771E-02  0.1113307E+00
         21   -1    0    0  502  501  0.00000000000E+00  0.00000000000E+00  0.28277402200E+03  0.28277402200E+03  0.00000000000E+00 0.  1.
         21   -1    0    0  501  502 -0.00000000000E+00 -0.00000000000E+00 -0.22101748052E+03  0.22101748052E+03  0.00000000000E+00 0.  1.
         25    1    1    2    0    0  0.46480784593E+02 -0.31579859295E+02 -0.81291017923E+02  0.15934547513E+03  0.12500000000E+03 0.  0.
         25    1    1    2    0    0 -0.66225633917E+02 -0.63134371983E+02  0.79058349178E+02  0.17391666420E+03  0.12500000000E+03 0.  0.
         25    1    1    2    0    0  0.19744849324E+02  0.94714231278E+02  0.63989210232E+02  0.17052936318E+03  0.12500000000E+03 0.  0.
</event>
<event>
 5    0  0.5742667E-005  0.3856290E+03  0.7546771E-02  0.1048873E+00
         21   -1    0    0  502  501  0.00000000000E+00  0.00000000000E+00  0.30237125015E+03  0.30237125015E+03  0.00000000000E+00 0.  1.
         21   -1    0    0  501  502 -0.00000000000E+00 -0.00000000000E+00 -0.49181163702E+03  0.49181163702E+03  0.00000000000E+00 0.  1.
         25    1    1    2    0    0  0.23094105443E+03 -0.15960679061E+02 -0.27763386177E+03  0.38248408476E+03  0.12500000000E+03 0.  0.
         25    1    1    2    0    0 -0.81912943449E+02  0.10292399861E+03  0.95058961846E+00  0.18146344925E+03  0.12500000000E+03 0.  0.
         25    1    1    2    0    0 -0.14902811098E+03 -0.86963319546E+02  0.87242885274E+02  0.23023535315E+03  0.12500000000E+03 0.  0.
</event>
<event>
 5    0  0.5942833E-005  0.3337092E+03  0.7546771E-02  0.1069507E+00
         21   -1    0    0  502  501  0.00000000000E+00  0.00000000000E+00  0.42203027597E+03  0.42203027597E+03  0.00000000000E+00 0.  1.
         21   -1    0    0  501  502 -0.00000000000E+00 -0.00000000000E+00 -0.26387159879E+03  0.26387159879E+03  0.00000000000E+00 0.  1.
         25    1    1    2    0    0 -0.11054131048E+03 -0.64996291900E+02 -0.87510914634E+02  0.19931648066E+03  0.12500000000E+03 0.  0.
         25    1    1    2    0    0 -0.78866036420E+02 -0.18159436459E+02  0.18482999258E+03  0.23735362435E+03  0.12500000000E+03 0.  0.
         25    1    1    2    0    0  0.18940734690E+03  0.83155728360E+02  0.60839599229E+02  0.24923176975E+03  0.12500000000E+03 0.  0.
</event>
<event>
 5    0  0.5742667E-005  0.4899106E+03  0.7546771E-02  0.1016446E+00
         21   -1    0    0  502  501  0.00000000000E+00  0.00000000000E+00  0.52439915317E+03  0.52439915317E+03  0.00000000000E+00 0. -1.
         21   -1    0    0  501  502 -0.00000000000E+00 -0.00000000000E+00 -0.45769020431E+03  0.45769020431E+03  0.00000000000E+00 0. -1.
         25    1    1    2    0    0  0.15368209492E+03  0.18136871201E+03  0.32386377565E+03  0.42074403284E+03  0.12500000000E+03 0.  0.
         25    1    1    2    0    0  0.55344419616E+02  0.41510059831E+02 -0.16567159684E+03  0.21876509742E+03  0.12500000000E+03 0.  0.
         25    1    1    2    0    0 -0.20902651453E+03 -0.22287877184E+03 -0.91483229954E+02  0.34258022721E+03  0.12500000000E+03 0.  0.
</event>
<event>
 5    0  0.5742667E-005  0.3860548E+03  0.7546771E-02  0.1048718E+00
         21   -1    0    0  502  501  0.00000000000E+00  0.00000000000E+00  0.10829292906E+03  0.10829292906E+03  0.00000000000E+00 0. -1.
         21   -1    0    0  501  502 -0.00000000000E+00 -0.00000000000E+00 -0.13762514434E+04  0.13762514434E+04  0.00000000000E+00 0. -1.
         25    1    1    2    0    0  0.12777709035E+03  0.89438412683E+02 -0.39913681882E+03  0.44638706816E+03  0.12500000000E+03 0.  0.
         25    1    1    2    0    0 -0.25452826995E+03 -0.18068771028E+03 -0.69933445507E+03  0.77596802054E+03  0.12500000000E+03 0.  0.
         25    1    1    2    0    0  0.12675117960E+03  0.91249297595E+02 -0.16948724045E+03  0.26218928375E+03  0.12500000000E+03 0.  0.
</event>
<event>
 5    0  0.5742667E-005  0.2482118E+03  0.7546771E-02  0.1114440E+00
         21   -1    0    0  502  501  0.00000000000E+00  0.00000000000E+00  0.16487610775E+03  0.16487610775E+03  0.00000000000E+00 0.  1.
         21   -1    0    0  501  502 -0.00000000000E+00 -0.00000000000E+00 -0.37366889429E+03  0.37366889429E+03  0.00000000000E+00 0.  1.
         25    1    1    2    0    0 -0.13964590347E+02 -0.57737761270E+02 -0.50999861132E+02  0.14749455819E+03  0.12500000000E+03 0.  0.
         25    1    1    2    0    0  0.33992373537E+02 -0.88962946115E+02 -0.10894591129E+03  0.19121741246E+03  0.12500000000E+03 0.  0.
         25    1    1    2    0    0 -0.20027783190E+02  0.14670070739E+03 -0.48847014111E+02  0.19983303139E+03  0.12500000000E+03 0.  0.
</event>
<event>
 5    0  0.5742667E-005  0.5689911E+03  0.7546771E-02  0.9971914E-01
         21   -1    0    0  502  501  0.00000000000E+00  0.00000000000E+00  0.13765518436E+04  0.13765518436E+04  0.00000000000E+00 0. -1.
         21   -1    0    0  501  502 -0.00000000000E+00 -0.00000000000E+00 -0.23518977089E+03  0.23518977089E+03  0.00000000000E+00 0. -1.
         25    1    1    2    0    0 -0.17735682876E+02 -0.11757215945E+03  0.39529679128E+03  0.43130304928E+03  0.12500000000E+03 0.  0.
         25    1    1    2    0    0 -0.11712178354E+03  0.30823782754E+03 -0.36249794041E+02  0.35449558259E+03  0.12500000000E+03 0.  0.
         25    1    1    2    0    0  0.13485746642E+03 -0.19066566809E+03  0.78231507548E+03  0.82594298263E+03  0.12500000000E+03 0.  0.
</event>
<event>
 5    0  0.5742667E-005  0.4778590E+03  0.7546771E-02  0.1019725E+00
         21   -1    0    0  502  501  0.00000000000E+00  0.00000000000E+00  0.43717426845E+03  0.43717426845E+03  0.00000000000E+00 0.  1.
         21   -1    0    0  501  502 -0.00000000000E+00 -0.00000000000E+00 -0.52232986630E+03  0.52232986630E+03  0.00000000000E+00 0.  1.
         25    1    1    2    0    0 -0.17791663745E+03  0.83989413418E+02  0.70084405823E+02  0.24340372920E+03  0.12500000000E+03 0.  0.
         25    1    1    2    0    0 -0.14716901029E+03 -0.22923379313E+03 -0.15781735588E+03  0.33873022794E+03  0.12500000000E+03 0.  0.
         25    1    1    2    0    0  0.32508564774E+03  0.14524437971E+03  0.25773522113E+01  0.37737017761E+03  0.12500000000E+03 0.  0.
</event>
<event>
 5    0  0.7054889E-005  0.3418811E+03  0.7546771E-02  0.1065998E+00
         21   -1    0    0  502  501  0.00000000000E+00  0.00000000000E+00  0.43927945019E+03  0.43927945019E+03  0.00000000000E+00 0. -1.
         21   -1    0    0  501  502 -0.00000000000E+00 -0.00000000000E+00 -0.26607817316E+03  0.26607817316E+03  0.00000000000E+00 0. -1.
         25    1    1    2    0    0 -0.18350492529E+03  0.66206853585E+02  0.13884672892E+03  0.27011260467E+03  0.12500000000E+03 0.  0.
         25    1    1    2    0    0 -0.25680553988E+02 -0.74283680753E+02 -0.77761953672E+02  0.16688162726E+03  0.12500000000E+03 0.  0.
         25    1    1    2    0    0  0.20918547928E+03  0.80768271681E+01  0.11211650179E+03  0.26836339142E+03  0.12500000000E+03 0.  0.
</event>
<event>
 5    0  0.5742667E-005  0.2508776E+03  0.7546771E-02  0.1112751E+00
         21   -1    0    0  502  501  0.00000000000E+00  0.00000000000E+00  0.17249939235E+03  0.17249939235E+03  0.00000000000E+00 0.  1.
         21   -1    0    0  501  502 -0.00000000000E+00 -0.00000000000E+00 -0.36486833570E+03  0.36486833570E+03  0.00000000000E+00 0.  1.
         25    1    1    2    0    0 -0.13763634392E+03  0.28634085982E+02 -0.17799621815E+01  0.18812719717E+03  0.12500000000E+03 0.  0.
         25    1    1    2    0    0  0.38356322833E+02 -0.53820535572E+01 -0.75512306089E+02  0.15108700266E+03  0.12500000000E+03 0.  0.
         25    1    1    2    0    0  0.99280021090E+02 -0.23252032424E+02 -0.11507667508E+03  0.19815352822E+03  0.12500000000E+03 0.  0.
</event>
<event>
 5    0  0.5742667E-005  0.2962110E+03  0.7546771E-02  0.1087150E+00
         21   -1    0    0  502  501  0.00000000000E+00  0.00000000000E+00  0.89825679189E+02  0.89825679189E+02  0.00000000000E+00 0.  1.
         21   -1    0    0  501  502 -0.00000000000E+00 -0.00000000000E+00 -0.97679138975E+03  0.97679138975E+03  0.00000000000E+00 0.  1.
         25    1    1    2    0    0 -0.45676866722E+01  0.13594347443E+03 -0.56624822864E+03  0.59562030560E+03  0.12500000000E+03 0.  0.
         25    1    1    2    0    0 -0.62549226197E+02 -0.14659397245E+03 -0.19401628344E+03  0.28048086690E+03  0.12500000000E+03 0.  0.
         25    1    1    2    0    0  0.67116912869E+02  0.10650498024E+02 -0.12670119848E+03  0.19051589644E+03  0.12500000000E+03 0.  0.
</event>
<event>
 5    0  0.5742667E-005  0.2263869E+03  0.7546771E-02  0.1129209E+00
         21   -1    0    0  502  501  0.00000000000E+00  0.00000000000E+00  0.11849223589E+04  0.11849223589E+04  0.00000000000E+00 0.  1.
         21   -1    0    0  501  502 -0.00000000000E+00 -0.00000000000E+00 -0.43252642010E+02  0.43252642010E+02  0.00000000000E+00 0.  1.
         25    1    1    2    0    0 -0.56772494094E+02 -0.31695004067E+02  0.57553157278E+03  0.59252787330E+03  0.12500000000E+03 0.  0.
         25    1    1    2    0    0  0.30154006180E+02 -0.43315790731E+02  0.33070925313E+03  0.35746207061E+03  0.12500000000E+03 0.  0.
         25    1    1    2    0    0  0.26618487913E+02  0.75010794797E+02  0.23542889099E+03  0.27818505701E+03  0.12500000000E+03 0.  0.
</event>
<event>
 5    0  0.5742667E-005  0.2442098E+03  0.7546771E-02  0.1117020E+00
         21   -1    0    0  502  501  0.00000000000E+00  0.00000000000E+00  0.31184895992E+03  0.31184895992E+03  0.00000000000E+00 0. -1.
         21   -1    0    0  501  502 -0.00000000000E+00 -0.00000000000E+00 -0.19124134244E+03  0.19124134244E+03  0.00000000000E+00 0. -1.
         25    1    1    2    0    0  0.43748870065E+02 -0.60952705650E+01  0.22593412901E+02  0.13448634972E+03  0.12500000000E+03 0.  0.
         25    1    1    2    0    0 -0.13309075816E+03  0.37573081514E+01  0.11211606566E+03  0.21429484233E+03  0.12500000000E+03 0.  0.
         25    1    1    2    0    0  0.89341888092E+02  0.23379624135E+01 -0.14101861082E+02  0.15430911030E+03  0.12500000000E+03 0.  0.
</event>
<event>
 5    0  0.5821824E-005  0.4158509E+03  0.7546771E-02  0.1038425E+00
         21   -1    0    0  502  501  0.00000000000E+00  0.00000000000E+00  0.34874576096E+03  0.34874576096E+03  0.00000000000E+00 0. -1.
         21   -1    0    0  501  502 -0.00000000000E+00 -0.00000000000E+00 -0.49586839975E+03  0.49586839975E+03  0.00000000000E+00 0. -1.
         25    1    1    2    0    0 -0.16039574232E+03 -0.12698127233E+03  0.88129478737E+01  0.23990353421E+03  0.12500000000E+03 0.  0.
         25    1    1    2    0    0 -0.57312952681E+02  0.57537405966E+02 -0.27923452808E+03  0.31653159289E+03  0.12500000000E+03 0.  0.
         25    1    1    2    0    0  0.21770869500E+03  0.69443866367E+02  0.12329894142E+03  0.28817903360E+03  0.12500000000E+03 0.  0.
</event>
<event>
 5    0  0.5742667E-005  0.2705606E+03  0.7546771E-02  0.1100959E+00
         21   -1    0    0  502  501  0.00000000000E+00  0.00000000000E+00  0.25102675414E+03  0.25102675414E+03  0.00000000000E+00 0. -1.
         21   -1    0    0  501  502 -0.00000000000E+00 -0.00000000000E+00 -0.29161457207E+03  0.29161457207E+03  0.00000000000E+00 0. -1.
         25    1    1    2    0    0 -0.14214810536E+03 -0.71075545336E+02  0.24932914539E+02  0.20372645197E+03  0.12500000000E+03 0.  0.
         25    1    1    2    0    0  0.11724085427E+03  0.99259206234E+02 -0.64792222440E+02  0.20837667821E+03  0.12500000000E+03 0.  0.
         25    1    1    2    0    0  0.24907251095E+02 -0.28183660898E+02 -0.72851002731E+00  0.13053819604E+03  0.12500000000E+03 0.  0.
</event>
<event>
 5    0  0.5742667E-005  0.3742409E+03  0.7546771E-02  0.1053083E+00
         21   -1    0    0  502  501  0.00000000000E+00  0.00000000000E+00  0.39413218023E+03  0.39413218023E+03  0.00000000000E+00 0.  1.
         21   -1    0    0  501  502 -0.00000000000E+00 -0.00000000000E+00 -0.35535348029E+03  0.35535348029E+03  0.00000000000E+00 0.  1.
         25    1    1    2    0    0  0.12045692266E+02 -0.17329981768E+02 -0.40923627608E+02  0.13321099905E+03  0.12500000000E+03 0.  0.
         25    1    1    2    0    0 -0.84963698379E+02 -0.20384083880E+03 -0.12413424131E+03  0.28249642028E+03  0.12500000000E+03 0.  0.
         25    1    1    2    0    0  0.72918006114E+02  0.22117082057E+03  0.20383656886E+03  0.33377824119E+03  0.12500000000E+03 0.  0.
</event>
<event>
 5    0  0.5742667E-005  0.6247768E+03  0.7546771E-02  0.9855295E-01
         21   -1    0    0  502  501  0.00000000000E+00  0.00000000000E+00  0.98427580617E+03  0.98427580617E+03  0.00000000000E+00 0. -1.
         21   -1    0    0  501  502 -0.00000000000E+00 -0.00000000000E+00 -0.39658197180E+03  0.39658197180E+03  0.00000000000E+00 0. -1.
         25    1    1    2    0    0  0.24654257686E+03 -0.32104090129E+03  0.29774321147E+03  0.51780934955E+03  0.12500000000E+03 0.  0.
         25    1    1    2    0    0 -0.28705426486E+03  0.50003544700E+03  0.19272354727E+03  0.62064721453E+03  0.12500000000E+03 0.  0.
         25    1    1    2    0    0  0.40511687997E+02 -0.17899454571E+03  0.97227075640E+02  0.24240121389E+03  0.12500000000E+03 0.  0.
</event>
<event>
 5    0  0.5742667E-005  0.5995013E+03  0.7546771E-02  0.9906441E-01
         21   -1    0    0  502  501  0.00000000000E+00  0.00000000000E+00  0.68025642748E+03  0.68025642748E+03  0.00000000000E+00 0. -1.
         21   -1    0    0  501  502 -0.00000000000E+00 -0.00000000000E+00 -0.52833281991E+03  0.52833281991E+03  0.00000000000E+00 0. -1.
         25    1    1    2    0    0 -0.50534564117E+03  0.49190298162E+02  0.21327473294E+03  0.56471675573E+03  0.12500000000E+03 0.  0.
         25    1    1    2    0    0  0.28390811055E+03  0.11972998791E+03 -0.98865899503E-01  0.33251179681E+03  0.12500000000E+03 0.  0.
         25    1    1    2    0    0  0.22143753062E+03 -0.16892028607E+03 -0.61252259469E+02  0.31136069486E+03  0.12500000000E+03 0.  0.
</event>
<event>
 5    0  0.5742667E-005  0.4810783E+03  0.7546771E-02  0.1018839E+00
         21   -1    0    0  502  501  0.00000000000E+00  0.00000000000E+00  0.51634885786E+03  0.51634885786E+03  0.00000000000E+00 0. -1.
         21   -1    0    0  501  502 -0.00000000000E+00 -0.00000000000E+00 -0.44821698388E+03  0.44821698388E+03  0.00000000000E+00 0. -1.
         25    1    1    2    0    0 -0.34518283714E+02 -0.77428649798E+02 -0.23303558236E+03  0.27770000066E+03  0.12500000000E+03 0.  0.
         25    1    1    2    0    0 -0.19989822154E+03 -0.15991199039E+02  0.32769575195E+03  0.40401054846E+03  0.12500000000E+03 0.  0.
         25    1    1    2    0    0  0.23441650525E+03  0.93419848836E+02 -0.26528295604E+02  0.28285529261E+03  0.12500000000E+03 0.  0.
</event>
<event>
 5    0  0.5742667E-005  0.2321984E+03  0.7546771E-02  0.1125102E+00
         21   -1    0    0  502  501  0.00000000000E+00  0.00000000000E+00  0.16027702437E+03  0.16027702437E+03  0.00000000000E+00 0.  1.
         21   -1    0    0  501  502 -0.00000000000E+00 -0.00000000000E+00 -0.33639331147E+03  0.33639331147E+03  0.00000000000E+00 0.  1.
         25    1    1    2    0    0  0.26494211295E+02 -0.92311387244E+02 -0.76968176881E+02  0.17542073908E+03  0.12500000000E+03 0.  0.
         25    1    1    2    0    0 -0.38841429904E+01  0.10818699873E+02 -0.11404113060E+03  0.16959513643E+03  0.12500000000E+03 0.  0.
         25    1    1    2    0    0 -0.22610068304E+02  0.81492687371E+02  0.14893020378E+02  0.15165446034E+03  0.12500000000E+03 0.  0.
</event>
<event>
 5    0  0.5742667E-005  0.3345177E+03  0.7546771E-02  0.1069155E+00
         21   -1    0    0  502  501  0.00000000000E+00  0.00000000000E+00  0.47966117393E+03  0.47966117393E+03  0.00000000000E+00 0. -1.
         21   -1    0    0  501  502 -0.00000000000E+00 -0.00000000000E+00 -0.23329406132E+03  0.23329406132E+03  0.00000000000E+00 0. -1.
         25    1    1    2    0    0 -0.30017607115E+02 -0.40918811927E+02  0.19248106547E+03  0.23505183784E+03  0.12500000000E+03 0.  0.
         25    1    1    2    0    0 -0.66317816644E+01 -0.32832186808E+02 -0.16687740063E+03  0.21117528231E+03  0.12500000000E+03 0.  0.
         25    1    1    2    0    0  0.36649388780E+02  0.73750998735E+02  0.22076344777E+03  0.26672811510E+03  0.12500000000E+03 0.  0.
</event>
<event>
 5    0  0.5742667E-005  0.5342126E+03  0.7546771E-02  0.1005216E+00
         21   -1    0    0  502  501  0.00000000000E+00  0.00000000000E+00  0.99018076357E+03  0.99018076357E+03  0.00000000000E+00 0. -1.
         21   -1    0    0  501  502 -0.00000000000E+00 -0.00000000000E+00 -0.28821308535E+03  0.28821308535E+03  0.00000000000E+00 0. -1.
         25    1    1    2    0    0 -0.16035217879E+03  0.18824996442E+03  0.41762668452E+03  0.50118651016E+03  0.12500000000E+03 0.  0.
         25    1    1    2    0    0  0.10121066867E+03  0.13121659015E+03  0.36498081832E+03  0.41987782833E+03  0.12500000000E+03 0.  0.
         25    1    1    2    0    0  0.59141510119E+02 -0.31946655456E+03 -0.80639824618E+02  0.35732951042E+03  0.12500000000E+03 0.  0.
</event>
<event>
 5    0  0.5742667E-005  0.2770832E+03  0.7546771E-02  0.1097293E+00
         21   -1    0    0  502  501  0.00000000000E+00  0.00000000000E+00  0.17413377545E+03  0.17413377545E+03  0.00000000000E+00 0.  1.
         21   -1    0    0  501  502 -0.00000000000E+00 -0.00000000000E+00 -0.44089739162E+03  0.44089739162E+03  0.00000000000E+00 0.  1.
         25    1    1    2    0    0 -0.98897121655E+02 -0.13183998680E+02 -0.14457433726E+03  0.21559498484E+03  0.12500000000E+03 0.  0.
         25    1    1    2    0    0  0.15756689162E+03  0.92048215067E+02 -0.75115656556E+02  0.23359700574E+03  0.12500000000E+03 0.  0.
         25    1    1    2    0    0 -0.58669769969E+02 -0.78864216387E+02 -0.47073622355E+02  0.16583917648E+03  0.12500000000E+03 0.  0.
</event>
<event>
 5    0  0.5742667E-005  0.3279199E+03  0.7546771E-02  0.1072061E+00
         21   -1    0    0  502  501  0.00000000000E+00  0.00000000000E+00  0.40986063034E+03  0.40986063034E+03  0.00000000000E+00 0.  1.
         21   -1    0    0  501  502 -0.00000000000E+00 -0.00000000000E+00 -0.26236105538E+03  0.26236105538E+03  0.00000000000E+00 0.  1.
         25    1    1    2    0    0  0.10088764785E+03  0.17449515465E+03 -0.87642786432E+02  0.25285002373E+03  0.12500000000E+03 0.  0.
         25    1    1    2    0    0 -0.19650376299E+02 -0.14008404748E+03  0.16638989314E+03  0.25163520062E+03  0.12500000000E+03 0.  0.
         25    1    1    2    0    0 -0.81237271552E+02 -0.34411107170E+02  0.68752468245E+02  0.16773646138E+03  0.12500000000E+03 0.  0.
</event>
<event>
 5    0  0.5742667E-005  0.3852781E+03  0.7546771E-02  0.1049000E+00
         21   -1    0    0  502  501  0.00000000000E+00  0.00000000000E+00  0.36291437318E+03  0.36291437318E+03  0.00000000000E+00 0. -1.
         21   -1    0    0  501  502 -0.00000000000E+00 -0.00000000000E+00 -0.40901989735E+03  0.40901989735E+03  0.00000000000E+00 0. -1.
         25    1    1    2    0    0 -0.85087481306E+02 -0.36124445025E+02 -0.27258384542E+03  0.31380217938E+03  0.12500000000E+03 0.  0.
         25    1    1    2    0    0  0.11711837496E+03 -0.10178482038E+03  0.64826829308E+02  0.20953372333E+03  0.12500000000E+03 0.  0.
         25    1    1    2    0    0 -0.32030893657E+02  0.13790926540E+03  0.16165149194E+03  0.24859836781E+03  0.12500000000E+03 0.  0.
</event>
<event>
 5    0  0.5742667E-005  0.2478581E+03  0.7546771E-02  0.1114666E+00
         21   -1    0    0  502  501  0.00000000000E+00  0.00000000000E+00  0.19291547542E+02  0.19291547542E+02  0.00000000000E+00 0. -1.
         21   -1    0    0  501  502 -0.00000000000E+00 -0.00000000000E+00 -0.31844835520E+04  0.31844835520E+04  0.00000000000E+00 0. -1.
         25    1    1    2    0    0  0.10231443977E+03  0.28012262322E+02 -0.17643272620E+04  0.17719279384E+04  0.12500000000E+03 0.  0.
         25    1    1    2    0    0 -0.10596754097E+02  0.26953800153E+02 -0.50783633066E+03  0.52379532002E+03  0.12500000000E+03 0.  0.
         25    1    1    2    0    0 -0.91717685675E+02 -0.54966062475E+02 -0.89302841179E+03  0.90805184112E+03  0.12500000000E+03 0.  0.
</event>
<event>
 5    0  0.5742667E-005  0.2745445E+03  0.7546771E-02  0.1098707E+00
         21   -1    0    0  502  501  0.00000000000E+00  0.00000000000E+00  0.73743700385E+03  0.73743700385E+03  0.00000000000E+00 0.  1.
         21   -1    0    0  501  502 -0.00000000000E+00 -0.00000000000E+00 -0.10221166248E+03  0.10221166248E+03  0.00000000000E+00 0.  1.
         25    1    1    2    0    0  0.71058746123E+02  0.37961974225E+02  0.11877651413E+02  0.14918624431E+03  0.12500000000E+03 0.  0.
         25    1    1    2    0    0  0.12244191910E+02  0.25216482634E+02  0.20792434307E+03  0.24421982654E+03  0.12500000000E+03 0.  0.
         25    1    1    2    0    0 -0.83302938033E+02 -0.63178456859E+02  0.41542334688E+03  0.44624259549E+03  0.12500000000E+03 0.  0.
</event>
<event>
 5    0  0.5742667E-005  0.3212752E+03  0.7546771E-02  0.1075064E+00
         21   -1    0    0  502  501  0.00000000000E+00  0.00000000000E+00  0.14620061031E+03  0.14620061031E+03  0.00000000000E+00 0. -1.
         21   -1    0    0  501  502 -0.00000000000E+00 -0.00000000000E+00 -0.70600091138E+03  0.70600091138E+03  0.00000000000E+00 0. -1.
         25    1    1    2    0    0  0.17499033307E+02 -0.16428807113E+03 -0.33591453504E+03  0.39466487218E+03  0.12500000000E+03 0.  0.
         25    1    1    2    0    0  0.59609893289E+02  0.48886580941E+02 -0.22742163407E+03  0.27071911055E+03  0.12500000000E+03 0.  0.
         25    1    1    2    0    0 -0.77108926596E+02  0.11540149019E+03  0.35358680310E+01  0.18681753896E+03  0.12500000000E+03 0.  0.
</event>
<event>
 5    0  0.5742667E-005  0.5651232E+03  0.7546771E-02  0.9980529E-01
         21   -1    0    0  502  501  0.00000000000E+00  0.00000000000E+00  0.23785973271E+04  0.23785973271E+04  0.00000000000E+00 0. -1.
         21   -1    0    0  501  502 -0.00000000000E+00 -0.00000000000E+00 -0.13426576753E+03  0.13426576753E+03  0.00000000000E+00 0. -1.
         25    1    1    2    0    0 -0.38653813106E+02 -0.48517547526E+03  0.88172200742E+03  0.10148635659E+04  0.12500000000E+03 0.  0.
         25    1    1    2    0    0 -0.14875040715E+02  0.19105040220E+03  0.24877367050E+03  0.33798648220E+03  0.12500000000E+03 0.  0.
         25    1    1    2    0    0  0.53528853821E+02  0.29412507306E+03  0.11138358816E+04  0.11600130465E+04  0.12500000000E+03 0.  0.
</event>
<event>
 5    0  0.5742667E-005  0.3491143E+03  0.7546771E-02  0.1062979E+00
         21   -1    0    0  502  501  0.00000000000E+00  0.00000000000E+00  0.28734219058E+03  0.28734219058E+03  0.00000000000E+00 0.  1.
         21   -1    0    0  501  502 -0.00000000000E+00 -0.00000000000E+00 -0.42416603946E+03  0.42416603946E+03  0.00000000000E+00 0.  1.
         25    1    1    2    0    0  0.61234789018E+02  0.10890007606E+03 -0.28002758703E+03  0.33113347074E+03  0.12500000000E+03 0.  0.
         25    1    1    2    0    0  0.31371850918E+02 -0.54556264430E+02  0.16250723629E+03  0.21446253954E+03  0.12500000000E+03 0.  0.
         25    1    1    2    0    0 -0.92606639937E+02 -0.54343811626E+02 -0.19303498148E+02  0.16591221975E+03  0.12500000000E+03 0.  0.
</event>
<event>
 5    0  0.5742667E-005  0.3496655E+03  0.7546771E-02  0.1062752E+00
         21   -1    0    0  502  501  0.00000000000E+00  0.00000000000E+00  0.21240746460E+03  0.21240746460E+03  0.00000000000E+00 0. -1.
         21   -1    0    0  501  502 -0.00000000000E+00 -0.00000000000E+00 -0.57561990312E+03  0.57561990312E+03  0.00000000000E+00 0. -1.
         25    1    1    2    0    0 -0.21620284171E+03 -0.25208112243E+02 -0.16568442406E+03  0.30075811887E+03  0.12500000000E+03 0.  0.
         25    1    1    2    0    0  0.16301341762E+03 -0.63124382501E+02  0.20213011772E+02  0.21585093892E+03  0.12500000000E+03 0.  0.
         25    1    1    2    0    0  0.53189424096E+02  0.88332494744E+02 -0.21774102623E+03  0.27141830993E+03  0.12500000000E+03 0.  0.
</event>
<event>
 5    0  0.5742667E-005  0.2294243E+03  0.7546771E-02  0.1127046E+00
         21   -1    0    0  502  501  0.00000000000E+00  0.00000000000E+00  0.14419393840E+03  0.14419393840E+03  0.00000000000E+00 0.  1.
         21   -1    0    0  501  502 -0.00000000000E+00 -0.00000000000E+00 -0.36503283470E+03  0.36503283470E+03  0.00000000000E+00 0.  1.
         25    1    1    2    0    0 -0.12647604654E+02  0.36263966056E+02 -0.82730239473E+02  0.15473955429E+03  0.12500000000E+03 0.  0.
         25    1    1    2    0    0 -0.52801299604E+02 -0.10265645212E+03 -0.63421163698E+02  0.18158625610E+03  0.12500000000E+03 0.  0.
         25    1    1    2    0    0  0.65448904258E+02  0.66392486061E+02 -0.74687493131E+02  0.17290096270E+03  0.12500000000E+03 0.  0.
</event>
<event>
 5    0  0.5742667E-005  0.2706191E+03  0.7546771E-02  0.1100926E+00
         21   -1    0    0  502  501  0.00000000000E+00  0.00000000000E+00  0.28405447330E+03  0.28405447330E+03  0.00000000000E+00 0. -1.
         21   -1    0    0  501  502 -0.00000000000E+00 -0.00000000000E+00 -0.25781922830E+03  0.25781922830E+03  0.00000000000E+00 0. -1.
         25    1    1    2    0    0 -0.26111796824E+02 -0.11734260721E+03  0.38556895455E+02  0.17765907685E+03  0.12500000000E+03 0.  0.
         25    1    1    2    0    0  0.22195033841E+01  0.16115357156E+03 -0.72925435125E+02  0.21660683025E+03  0.12500000000E+03 0.  0.
         25    1    1    2    0    0  0.23892293440E+02 -0.43810964349E+02  0.60603784671E+02  0.14760779451E+03  0.12500000000E+03 0.  0.
</event>
<event>
 5    0  0.5742667E-005  0.2930441E+03  0.7546771E-02  0.1088770E+00
         21   -1    0    0  502  501  0.00000000000E+00  0.00000000000E+00  0.67448613816E+02  0.67448613816E+02  0.00000000000E+00 0. -1.
         21   -1    0    0  501  502 -0.00000000000E+00 -0.00000000000E+00 -0.12731890573E+04  0.12731890573E+04  0.00000000000E+00 0. -1.
         25    1    1    2    0    0  0.12334831794E+02 -0.52346356284E+02 -0.27701295768E+03  0.30863160534E+03  0.12500000000E+03 0.  0.
         25    1    1    2    0    0  0.25345638341E+02  0.79175106019E+02 -0.74770359593E+02  0.16771018296E+03  0.12500000000E+03 0.  0.
         25    1    1    2    0    0 -0.37680470136E+02 -0.26828749735E+02 -0.85395712619E+03  0.86429588280E+03  0.12500000000E+03 0.  0.
</event>
<event>
 5    0  0.5742667E-005  0.2253674E+03  0.7546771E-02  0.1129944E+00
         21   -1    0    0  502  501  0.00000000000E+00  0.00000000000E+00  0.96802425496E+03  0.96802425496E+03  0.00000000000E+00 0.  1.
         21   -1    0    0  501  502 -0.00000000000E+00 -0.00000000000E+00 -0.52468194781E+02  0.52468194781E+02  0.00000000000E+00 0.  1.
         25    1    1    2    0    0 -0.64457755949E+02 -0.61662947529E+01  0.23614473103E+03  0.27492209712E+03  0.12500000000E+03 0.  0.
         25    1    1    2    0    0  0.34740347349E+01  0.44314471917E+02  0.16718505982E+03  0.21342840853E+03  0.12500000000E+03 0.  0.
         25    1    1    2    0    0  0.60983721214E+02 -0.38148177164E+02  0.51222626933E+03  0.53214194409E+03  0.12500000000E+03 0.  0.
</event>
<event>
 5    0  0.5742667E-005  0.2474894E+03  0.7546771E-02  0.1114902E+00
         21   -1    0    0  502  501  0.00000000000E+00  0.00000000000E+00  0.72300116695E+03  0.72300116695E+03  0.00000000000E+00 0. -1.
         21   -1    0    0  501  502 -0.00000000000E+00 -0.00000000000E+00 -0.84717697388E+02  0.84717697388E+02  0.00000000000E+00 0. -1.
         25    1    1    2    0    0 -0.12698020753E+03 -0.37458430627E+02  0.16788290025E+03  0.24766262400E+03  0.12500000000E+03 0.  0.
         25    1    1    2    0    0  0.92613310299E+01  0.34497088021E+02  0.16970540326E+03  0.21377732627E+03  0.12500000000E+03 0.  0.
         25    1    1    2    0    0  0.11771887650E+03  0.29613426063E+01  0.30069516605E+03  0.34627891406E+03  0.12500000000E+03 0.  0.
</event>
<event>
 5    0  0.5742667E-005  0.2669939E+03  0.7546771E-02  0.1103013E+00
         21   -1    0    0  502  501  0.00000000000E+00  0.00000000000E+00  0.43424437697E+03  0.43424437697E+03  0.00000000000E+00 0.  1.
         21   -1    0    0  501  502 -0.00000000000E+00 -0.00000000000E+00 -0.16416040675E+03  0.16416040675E+03  0.00000000000E+00 0.  1.
         25    1    1    2    0    0  0.19271493509E+02  0.38384872960E+02  0.56912823756E+01  0.13229580352E+03  0.12500000000E+03 0.  0.
         25    1    1    2    0    0 -0.70216543889E+02 -0.10185151202E+03  0.26367993092E+03  0.31694825998E+03  0.12500000000E+03 0.  0.
         25    1    1    2    0    0  0.50945050381E+02  0.63466639061E+02  0.71275692328E+00  0.14916072021E+03  0.12500000000E+03 0.  0.
</event>
<event>
 5    0  0.5742667E-005  0.3456750E+03  0.7546771E-02  0.1064404E+00
         21   -1    0    0  502  501  0.00000000000E+00  0.00000000000E+00  0.10445815941E+03  0.10445815941E+03  0.00000000000E+00 0. -1.
         21   -1    0    0  501  502 -0.00000000000E+00 -0.00000000000E+00 -0.11439144372E+04  0.11439144372E+04  0.00000000000E+00 0. -1.
         25    1    1    2    0    0  0.10052706805E+03  0.78821511960E+02 -0.67873721907E+03  0.70187444369E+03  0.12500000000E+03 0.  0.
         25    1    1    2    0    0 -0.16821680960E+03 -0.14387378354E+03 -0.22250471635E+03  0.33783118479E+03  0.12500000000E+03 0.  0.
         25    1    1    2    0    0  0.67689741549E+02  0.65052271575E+02 -0.13821434236E+03  0.20866696812E+03  0.12500000000E+03 0.  0.
</event>
<event>
 5    0  0.5742667E-005  0.5019719E+03  0.7546771E-02  0.1013266E+00
         21   -1    0    0  502  501  0.00000000000E+00  0.00000000000E+00  0.12028400366E+04  0.12028400366E+04  0.00000000000E+00 0.  1.
         21   -1    0    0  501  502 -0.00000000000E+00 -0.00000000000E+00 -0.20948401338E+03  0.20948401338E+03  0.00000000000E+00 0.  1.
         25    1    1    2    0    0  0.17655716443E+03 -0.34335934648E+03  0.16085290243E+03  0.43653949345E+03  0.12500000000E+03 0.  0.
         25    1    1    2    0    0 -0.10572188889E+03  0.18546908299E+03  0.23468923159E+03  0.34099843689E+03  0.12500000000E+03 0.  0.
         25    1    1    2    0    0 -0.70835275538E+02  0.15789026348E+03  0.59781388919E+03  0.63478611962E+03  0.12500000000E+03 0.  0.
</event>
<event>
 5    0  0.5742667E-005  0.3784095E+03  0.7546771E-02  0.1051523E+00
         21   -1    0    0  502  501  0.00000000000E+00  0.00000000000E+00  0.20195303808E+03  0.20195303808E+03  0.00000000000E+00 0. -1.
         21   -1    0    0  501  502 -0.00000000000E+00 -0.00000000000E+00 -0.70904486725E+03  0.70904486725E+03  0.00000000000E+00 0.  1.
         25    1    1    2    0    0 -0.19545695845E+02  0.17314758233E+03 -0.48862760893E+03  0.53361414871E+03  0.12500000000E+03 0.  0.
         25    1    1    2    0    0  0.81981393076E+02 -0.18328539254E+03 -0.40335494690E+01  0.23654968495E+03  0.12500000000E+03 0.  0.
         25    1    1    2    0    0 -0.62435697231E+02  0.10137810204E+02 -0.14430670768E+02  0.14083407167E+03  0.12500000000E+03 0.  0.
</event>
<event>
 5    0  0.6068736E-005  0.3180242E+03  0.7546771E-02  0.1076562E+00
         21   -1    0    0  502  501  0.00000000000E+00  0.00000000000E+00  0.41779187669E+03  0.41779187669E+03  0.00000000000E+00 0.  1.
         21   -1    0    0  501  502 -0.00000000000E+00 -0.00000000000E+00 -0.24208078450E+03  0.24208078450E+03  0.00000000000E+00 0.  1.
         25    1    1    2    0    0 -0.69003293707E+02  0.11055408156E+03 -0.36734399149E+02  0.18427717051E+03  0.12500000000E+03 0.  0.
         25    1    1    2    0    0  0.57884586825E+02 -0.18258549900E+02 -0.68065544382E+02  0.15473176264E+03  0.12500000000E+03 0.  0.
         25    1    1    2    0    0  0.11118706882E+02 -0.92295531659E+02  0.28051103573E+03  0.32086372804E+03  0.12500000000E+03 0.  0.
</event>
<event>
 5    0  0.5742667E-005  0.3003592E+03  0.7546771E-02  0.1085061E+00
         21   -1    0    0  502  501  0.00000000000E+00  0.00000000000E+00  0.32427087089E+03  0.32427087089E+03  0.00000000000E+00 0. -1.
         21   -1    0    0  501  502 -0.00000000000E+00 -0.00000000000E+00 -0.27821074688E+03  0.27821074688E+03  0.00000000000E+00 0. -1.
         25    1    1    2    0    0 -0.10343794744E+03  0.12415362690E+03  0.14264940345E+03  0.24917340217E+03  0.12500000000E+03 0.  0.
         25    1    1    2    0    0  0.11242919848E+03 -0.10949504496E+03 -0.11188831346E+02  0.20094695690E+03  0.12500000000E+03 0.  0.
         25    1    1    2    0    0 -0.89912510363E+01 -0.14658581943E+02 -0.85400448091E+02  0.15236125870E+03  0.12500000000E+03 0.  0.
</event>
<event>
 5    0  0.5742667E-005  0.2321308E+03  0.7546771E-02  0.1125149E+00
         21   -1    0    0  502  501  0.00000000000E+00  0.00000000000E+00  0.24937993307E+02  0.24937993307E+02  0.00000000000E+00 0.  1.
         21   -1    0    0  501  502 -0.00000000000E+00 -0.00000000000E+00 -0.21607484800E+04  0.21607484800E+04  0.00000000000E+00 0.  1.
         25    1    1    2    0    0 -0.60711696201E+02  0.30128864540E+02 -0.79290838903E+03  0.80555718104E+03  0.12500000000E+03 0.  0.
         25    1    1    2    0    0  0.11121407410E+03  0.60870063577E+01 -0.91009331592E+03  0.92536504451E+03  0.12500000000E+03 0.  0.
         25    1    1    2    0    0 -0.50502377896E+02 -0.36215870898E+02 -0.43280878170E+03  0.45476424771E+03  0.12500000000E+03 0.  0.
</event>
<event>
 5    0  0.5742667E-005  0.3778994E+03  0.7546771E-02  0.1051713E+00
         21   -1    0    0  502  501  0.00000000000E+00  0.00000000000E+00  0.20668974835E+03  0.20668974835E+03  0.00000000000E+00 0.  1.
         21   -1    0    0  501  502 -0.00000000000E+00 -0.00000000000E+00 -0.69092897780E+03  0.69092897780E+03  0.00000000000E+00 0.  1.
         25    1    1    2    0    0 -0.39558320364E+02 -0.10602247401E+03 -0.67374655981E+02  0.18157634751E+03  0.12500000000E+03 0.  0.
         25    1    1    2    0    0  0.12437780286E+03  0.21850431388E+03 -0.44443032857E+03  0.52569695642E+03  0.12500000000E+03 0.  0.
         25    1    1    2    0    0 -0.84819482491E+02 -0.11248183987E+03  0.27565755105E+02  0.19034542223E+03  0.12500000000E+03 0.  0.
</event>
<event>
 5    0  0.5742667E-005  0.3581212E+03  0.7546771E-02  0.1059330E+00
         21   -1    0    0  502  501  0.00000000000E+00  0.00000000000E+00  0.19034595489E+03  0.19034595489E+03  0.00000000000E+00 0. -1.
         21   -1    0    0  501  502 -0.00000000000E+00 -0.00000000000E+00 -0.67377734344E+03  0.67377734344E+03  0.00000000000E+00 0. -1.
         25    1    1    2    0    0 -0.36241704218E+02 -0.16109545578E+03 -0.30934454262E+02  0.20939710470E+03  0.12500000000E+03 0.  0.
         25    1    1    2    0    0  0.25186258400E+02  0.24952262539E+03 -0.40787862281E+03  0.49485943371E+03  0.12500000000E+03 0.  0.
         25    1    1    2    0    0  0.11055445818E+02 -0.88427169610E+02 -0.44618311482E+02  0.15986675992E+03  0.12500000000E+03 0.  0.
</event>
<event>
 5    0  0.5742667E-005  0.3936469E+03  0.7546771E-02  0.1046002E+00
         21   -1    0    0  502  501  0.00000000000E+00  0.00000000000E+00  0.49128858681E+03  0.49128858681E+03  0.00000000000E+00 0. -1.
         21   -1    0    0  501  502 -0.00000000000E+00 -0.00000000000E+00 -0.31541118158E+03  0.31541118158E+03  0.00000000000E+00 0.  1.
         25    1    1    2    0    0 -0.30943585675E+03 -0.74299709083E+02  0.18016275243E+03  0.38646424618E+03  0.12500000000E+03 0.  0.
         25    1    1    2    0    0  0.12480391358E+03  0.71312649696E+02  0.35382583650E+02  0.19374838858E+03  0.12500000000E+03 0.  0.
         25    1    1    2    0    0  0.18463194317E+03  0.29870593867E+01 -0.39667930857E+02  0.22648713363E+03  0.12500000000E+03 0.  0.
</event>
<event>
 5    0  0.5742667E-005  0.7419158E+03  0.7546771E-02  0.9648119E-01
         21   -1    0    0  502  501  0.00000000000E+00  0.00000000000E+00  0.22672245508E+04  0.22672245508E+04  0.00000000000E+00 0. -1.
         21   -1    0    0  501  502 -0.00000000000E+00 -0.00000000000E+00 -0.24278101309E+03  0.24278101309E+03  0.00000000000E+00 0. -1.
         25    1    1    2    0    0  0.98434729588E+02 -0.15327565182E+03  0.91310451640E+03  0.93945073277E+03  0.12500000000E+03 0.  0.
         25    1    1    2    0    0  0.48041882734E+03  0.72336972241E+02  0.40116936754E+03  0.64233694326E+03  0.12500000000E+03 0.  0.
         25    1    1    2    0    0 -0.57885355693E+03  0.80938679580E+02  0.71016965382E+03  0.92821788791E+03  0.12500000000E+03 0.  0.
</event>
<event>
 5    0  0.5742667E-005  0.3653322E+03  0.7546771E-02  0.1056492E+00
         21   -1    0    0  502  501  0.00000000000E+00  0.00000000000E+00  0.32306961720E+03  0.32306961720E+03  0.00000000000E+00 0. -1.
         21   -1    0    0  501  502 -0.00000000000E+00 -0.00000000000E+00 -0.41312343891E+03  0.41312343891E+03  0.00000000000E+00 0. -1.
         25    1    1    2    0    0  0.10581592852E+03  0.15252331296E+03 -0.15582906758E+03  0.27270509718E+03  0.12500000000E+03 0.  0.
         25    1    1    2    0    0 -0.14834296025E+03 -0.22546927127E+03 -0.35935084819E+01  0.29745577730E+03  0.12500000000E+03 0.  0.
         25    1    1    2    0    0  0.42527031731E+02  0.72945958310E+02  0.69368754350E+02  0.16603218164E+03  0.12500000000E+03 0.  0.
</event>
<event>
 5    0  0.5742667E-005  0.2456729E+03  0.7546771E-02  0.1116070E+00
         21   -1    0    0  502  501  0.00000000000E+00  0.00000000000E+00  0.10649248425E+03  0.10649248425E+03  0.00000000000E+00 0. -1.
         21   -1    0    0  501  502 -0.00000000000E+00 -0.00000000000E+00 -0.56675521924E+03  0.56675521924E+03  0.00000000000E+00 0. -1.
         25    1    1    2    0    0  0.68748066054E+02  0.75294619540E+02 -0.27450334446E+03  0.31839073862E+03  0.12500000000E+03 0.  0.
         25    1    1    2    0    0 -0.24758872196E+02  0.30216165512E+02 -0.60936689661E+02  0.14444479415E+03  0.12500000000E+03 0.  0.
         25    1    1    2    0    0 -0.43989193857E+02 -0.10551078505E+03 -0.12482270087E+03  0.21041217073E+03  0.12500000000E+03 0.  0.
</event>
<event>
 5    0  0.5742667E-005  0.3835350E+03  0.7546771E-02  0.1049635E+00
         21   -1    0    0  502  501  0.00000000000E+00  0.00000000000E+00  0.23977649500E+03  0.23977649500E+03  0.00000000000E+00 0.  1.
         21   -1    0    0  501  502 -0.00000000000E+00 -0.00000000000E+00 -0.61348434517E+03  0.61348434517E+03  0.00000000000E+00 0.  1.
         25    1    1    2    0    0  0.15028552228E+03 -0.48128680831E+02 -0.11117057776E+03  0.22996957513E+03  0.12500000000E+03 0.  0.
         25    1    1    2    0    0 -0.19793703408E+03 -0.17545638474E+03 -0.20282435003E+03  0.35598697921E+03  0.12500000000E+03 0.  0.
         25    1    1    2    0    0  0.47651511794E+02  0.22358506557E+03 -0.59712922372E+02  0.26730428583E+03  0.12500000000E+03 0.  0.
</event>
<event>
 5    0  0.5742667E-005  0.4936713E+03  0.7546771E-02  0.1015444E+00
         21   -1    0    0  502  501  0.00000000000E+00  0.00000000000E+00  0.10947690611E+04  0.10947690611E+04  0.00000000000E+00 0.  1.
         21   -1    0    0  501  502 -0.00000000000E+00 -0.00000000000E+00 -0.22261443346E+03  0.22261443346E+03  0.00000000000E+00 0.  1.
         25    1    1    2    0    0 -0.36348433830E+02 -0.34569805767E+03  0.48364507564E+03  0.60857695891E+03  0.12500000000E+03 0.  0.
         25    1    1    2    0    0 -0.68110809138E+02  0.39572426139E+03  0.30157722557E+03  0.51750419936E+03  0.12500000000E+03 0.  0.
         25    1    1    2    0    0  0.10445924297E+03 -0.50026203717E+02  0.86932326456E+02  0.19130233632E+03  0.12500000000E+03 0.  0.
</event>
<event>
 5    0  0.5742667E-005  0.3233331E+03  0.7546771E-02  0.1074125E+00
         21   -1    0    0  502  501  0.00000000000E+00  0.00000000000E+00  0.85798472867E+02  0.85798472867E+02  0.00000000000E+00 0.  1.
         21   -1    0    0  501  502 -0.00000000000E+00 -0.00000000000E+00 -0.12184865614E+04  0.12184865614E+04  0.00000000000E+00 0.  1.
         25    1    1    2    0    0  0.18600300544E+02 -0.13129643264E+02 -0.66688934483E+03  0.67888493646E+03  0.12500000000E+03 0.  0.
         25    1    1    2    0    0 -0.12249892314E+03 -0.12913708765E+02 -0.56701950952E+02  0.18442576091E+03  0.12500000000E+03 0.  0.
         25    1    1    2    0    0  0.10389862259E+03  0.26043352029E+02 -0.40909679274E+03  0.44097433689E+03  0.12500000000E+03 0.  0.
</event>
<event>
 5    0  0.5742667E-005  0.3055820E+03  0.7546771E-02  0.1082483E+00
         21   -1    0    0  502  501  0.00000000000E+00  0.00000000000E+00  0.96161307677E+02  0.96161307677E+02  0.00000000000E+00 0.  1.
         21   -1    0    0  501  502 -0.00000000000E+00 -0.00000000000E+00 -0.97108041951E+03  0.97108041951E+03  0.00000000000E+00 0.  1.
         25    1    1    2    0    0  0.23966394458E+02  0.13457696891E+03 -0.28271151605E+03  0.33798838727E+03  0.12500000000E+03 0.  0.
         25    1    1    2    0    0  0.10295846226E+03 -0.96388133491E+02 -0.47903916852E+03  0.51477630307E+03  0.12500000000E+03 0.  0.
         25    1    1    2    0    0 -0.12692485672E+03 -0.38188835421E+02 -0.11316842727E+03  0.21447703685E+03  0.12500000000E+03 0.  0.
</event>
<event>
 5    0  0.5742667E-005  0.3151016E+03  0.7546771E-02  0.1077926E+00
         21   -1    0    0  502  501  0.00000000000E+00  0.00000000000E+00  0.51017510040E+03  0.51017510040E+03  0.00000000000E+00 0.  1.
         21   -1    0    0  501  502 -0.00000000000E+00 -0.00000000000E+00 -0.19461758007E+03  0.19461758007E+03  0.00000000000E+00 0.  1.
         25    1    1    2    0    0  0.45067885112E+02  0.62507823743E+02 -0.12338994701E+03  0.19180307954E+03  0.12500000000E+03 0.  0.
         25    1    1    2    0    0 -0.17021013240E+02 -0.33926957576E+02  0.26102783049E+03  0.29189258578E+03  0.12500000000E+03 0.  0.
         25    1    1    2    0    0 -0.28046871872E+02 -0.28580866167E+02  0.17791963686E+03  0.22109701516E+03  0.12500000000E+03 0.  0.
</event>
<event>
 5    0  0.5742667E-005  0.3983113E+03  0.7546771E-02  0.1044366E+00
         21   -1    0    0  502  501  0.00000000000E+00  0.00000000000E+00  0.11059227446E+03  0.11059227446E+03  0.00000000000E+00 0. -1.
         21   -1    0    0  501  502 -0.00000000000E+00 -0.00000000000E+00 -0.14345660902E+04  0.14345660902E+04  0.00000000000E+00 0. -1.
         25    1    1    2    0    0 -0.16257977129E+03  0.22821534503E+03 -0.41963734647E+03  0.51984125297E+03  0.12500000000E+03 0.  0.
         25    1    1    2    0    0 -0.26724670530E+02 -0.16129963465E+03 -0.63173961121E+03  0.66441832946E+03  0.12500000000E+03 0.  0.
         25    1    1    2    0    0  0.18930444183E+03 -0.66915710377E+02 -0.27259685808E+03  0.36089878225E+03  0.12500000000E+03 0.  0.
</event>
<event>
 5    0  0.5742667E-005  0.3240103E+03  0.7546771E-02  0.1073818E+00
         21   -1    0    0  502  501  0.00000000000E+00  0.00000000000E+00  0.30764654295E+03  0.30764654295E+03  0.00000000000E+00 0. -1.
         21   -1    0    0  501  502 -0.00000000000E+00 -0.00000000000E+00 -0.34124448186E+03  0.34124448186E+03  0.00000000000E+00 0. -1.
         25    1    1    2    0    0 -0.67198007622E+02 -0.18261279396E+02  0.14493652640E+03  0.20366797303E+03  0.12500000000E+03 0.  0.
         25    1    1    2    0    0  0.18329973029E+03 -0.35286677202E+01 -0.15716533674E+03  0.27191393068E+03  0.12500000000E+03 0.  0.
         25    1    1    2    0    0 -0.11610172267E+03  0.21789947116E+02 -0.21369128563E+02  0.17330912111E+03  0.12500000000E+03 0.  0.
</event>
<event>
 5    0  0.5742667E-005  0.4026346E+03  0.7546771E-02  0.1042871E+00
         21   -1    0    0  502  501  0.00000000000E+00  0.00000000000E+00  0.40352430412E+03  0.40352430412E+03  0.00000000000E+00 0.  1.
         21   -1    0    0  501  502 -0.00000000000E+00 -0.00000000000E+00 -0.40174677578E+03  0.40174677578E+03  0.00000000000E+00 0.  1.
         25    1    1    2    0    0  0.12459171727E+03 -0.96981862128E+02 -0.11338675976E+03  0.23110632809E+03  0.12500000000E+03 0.  0.
         25    1    1    2    0    0  0.17676148245E+03  0.16366536628E+02  0.96481342862E+02  0.23758395299E+03  0.12500000000E+03 0.  0.
         25    1    1    2    0    0 -0.30135319972E+03  0.80615325500E+02  0.18682945246E+02  0.33658079881E+03  0.12500000000E+03 0.  0.
</event>
<event>
 5    0  0.5742667E-005  0.4330807E+03  0.7546771E-02  0.1032891E+00
         21   -1    0    0  502  501  0.00000000000E+00  0.00000000000E+00  0.16073875881E+04  0.16073875881E+04  0.00000000000E+00 0. -1.
         21   -1    0    0  501  502 -0.00000000000E+00 -0.00000000000E+00 -0.11668556580E+03  0.11668556580E+03  0.00000000000E+00 0. -1.
         25    1    1    2    0    0 -0.35214263669E+03 -0.13656990078E+03  0.85144434822E+03  0.93980756141E+03  0.12500000000E+03 0.  0.
         25    1    1    2    0    0  0.19213885854E+03  0.64536152464E+02  0.35824782191E+03  0.43017293945E+03  0.12500000000E+03 0.  0.
         25    1    1    2    0    0  0.16000377815E+03  0.72033748312E+02  0.28100985219E+03  0.35409265305E+03  0.12500000000E+03 0.  0.
</event>
<event>
 5    0  0.5742667E-005  0.3051528E+03  0.7546771E-02  0.1082693E+00
         21   -1    0    0  502  501  0.00000000000E+00  0.00000000000E+00  0.32747470746E+03  0.32747470746E+03  0.00000000000E+00 0. -1.
         21   -1    0    0  501  502 -0.00000000000E+00 -0.00000000000E+00 -0.28435239919E+03  0.28435239919E+03  0.00000000000E+00 0. -1.
         25    1    1    2    0    0  0.10756545042E+02  0.62785018403E+02  0.82308858212E+02  0.16265733902E+03  0.12500000000E+03 0.  0.
         25    1    1    2    0    0 -0.11329872464E+03 -0.49000362308E+02  0.12709786662E+03  0.21683289467E+03  0.12500000000E+03 0.  0.
         25    1    1    2    0    0  0.10254217960E+03 -0.13784656095E+02 -0.16628441657E+03  0.23233687295E+03  0.12500000000E+03 0.  0.
</event>
<event>
 5    0  0.5742667E-005  0.4615272E+03  0.7546771E-02  0.1024339E+00
         21   -1    0    0  502  501  0.00000000000E+00  0.00000000000E+00  0.15179128268E+03  0.15179128268E+03  0.00000000000E+00 0.  1.
         21   -1    0    0  501  502 -0.00000000000E+00 -0.00000000000E+00 -0.14032911082E+04  0.14032911082E+04  0.00000000000E+00 0.  1.
         25    1    1    2    0    0  0.48839803142E+02  0.24163829921E+02 -0.82558039246E+03  0.83676591797E+03  0.12500000000E+03 0.  0.
         25    1    1    2    0    0  0.10429702554E+03  0.20142907300E+03 -0.10618937953E+03  0.27991556818E+03  0.12500000000E+03 0.  0.
         25    1    1    2    0    0 -0.15313682868E+03 -0.22559290292E+03 -0.31973005355E+03  0.43840090475E+03  0.12500000000E+03 0.  0.
</event>
<event>
 5    0  0.5742667E-005  0.2772089E+03  0.7546771E-02  0.1097223E+00
         21   -1    0    0  502  501  0.00000000000E+00  0.00000000000E+00  0.19527892125E+03  0.19527892125E+03  0.00000000000E+00 0.  1.
         21   -1    0    0  501  502 -0.00000000000E+00 -0.00000000000E+00 -0.39351285054E+03  0.39351285054E+03  0.00000000000E+00 0.  1.
         25    1    1    2    0    0 -0.63574192908E+01 -0.10087364497E+02 -0.79331831771E+02  0.14852848627E+03  0.12500000000E+03 0.  0.
         25    1    1    2    0    0  0.66126746528E+02 -0.10024086111E+03 -0.18285473585E+03  0.25195601057E+03  0.12500000000E+03 0.  0.
         25    1    1    2    0    0 -0.59769327237E+02  0.11032822561E+03  0.63952638326E+02  0.18830727494E+03  0.12500000000E+03 0.  0.
</event>
<event>
 5    0  0.5742667E-005  0.3045659E+03  0.7546771E-02  0.1082980E+00
         21   -1    0    0  502  501  0.00000000000E+00  0.00000000000E+00  0.57292591194E+03  0.57292591194E+03  0.00000000000E+00 0. -1.
         21   -1    0    0  501  502 -0.00000000000E+00 -0.00000000000E+00 -0.16190642280E+03  0.16190642280E+03  0.00000000000E+00 0. -1.
         25    1    1    2    0    0 -0.10354391038E+03  0.16448252047E+03  0.81681463686E+02  0.24509733256E+03  0.12500000000E+03 0.  0.
         25    1    1    2    0    0  0.98321567968E+02 -0.16262474955E+03  0.15543841324E+03  0.27549961925E+03  0.12500000000E+03 0.  0.
         25    1    1    2    0    0  0.52223424135E+01 -0.18577709135E+01  0.17389961221E+03  0.21423538293E+03  0.12500000000E+03 0.  0.
</event>
<event>
 5    0  0.5742667E-005  0.2777157E+03  0.7546771E-02  0.1096943E+00
         21   -1    0    0  502  501  0.00000000000E+00  0.00000000000E+00  0.11950905121E+04  0.11950905121E+04  0.00000000000E+00 0.  1.
         21   -1    0    0  501  502 -0.00000000000E+00 -0.00000000000E+00 -0.64535717148E+02  0.64535717148E+02  0.00000000000E+00 0.  1.
         25    1    1    2    0    0 -0.89718191136E+02 -0.11928530890E+03  0.42371530236E+03  0.46630247286E+03  0.12500000000E+03 0.  0.
         25    1    1    2    0    0  0.14973170513E+03  0.36180345444E+02  0.40121032501E+03  0.44757493877E+03  0.12500000000E+03 0.  0.
         25    1    1    2    0    0 -0.60013513997E+02  0.83104963451E+02  0.30562916761E+03  0.34574881765E+03  0.12500000000E+03 0.  0.
</event>
<event>
 5    0  0.5742667E-005  0.3432053E+03  0.7546771E-02  0.1065439E+00
         21   -1    0    0  502  501  0.00000000000E+00  0.00000000000E+00  0.13420422344E+04  0.13420422344E+04  0.00000000000E+00 0. -1.
         21   -1    0    0  501  502 -0.00000000000E+00 -0.00000000000E+00 -0.87769122037E+02  0.87769122037E+02  0.00000000000E+00 0. -1.
         25    1    1    2    0    0  0.68519288058E+00 -0.70647496703E+02  0.14076651246E+03  0.20107647627E+03  0.12500000000E+03 0.  0.
         25    1    1    2    0    0  0.55933427031E+02  0.22216019356E+03  0.33965266320E+03  0.42833705359E+03  0.12500000000E+03 0.  0.
         25    1    1    2    0    0 -0.56618619912E+02 -0.15151269686E+03  0.77385393666E+03  0.80039782653E+03  0.12500000000E+03 0.  0.
</event>
<event>
 5    0  0.5742667E-005  0.2481759E+03  0.7546771E-02  0.1114463E+00
         21   -1    0    0  502  501  0.00000000000E+00  0.00000000000E+00  0.38606964030E+03  0.38606964030E+03  0.00000000000E+00 0.  1.
         21   -1    0    0  501  502 -0.00000000000E+00 -0.00000000000E+00 -0.15953405781E+03  0.15953405781E+03  0.00000000000E+00 0. -1.
         25    1    1    2    0    0  0.81071256428E+02 -0.11902788726E+03  0.73269159795E+02  0.20428792510E+03  0.12500000000E+03 0.  0.
         25    1    1    2    0    0 -0.28690228076E+02  0.12004404134E+02  0.91117167101E+02  0.15778014148E+03  0.12500000000E+03 0.  0.
         25    1    1    2    0    0 -0.52381028353E+02  0.10702348313E+03  0.62149255597E+02  0.18353563153E+03  0.12500000000E+03 0.  0.
</event>
<event>
 5    0  0.5742667E-005  0.2459152E+03  0.7546771E-02  0.1115914E+00
         21   -1    0    0  502  501  0.00000000000E+00  0.00000000000E+00  0.11173863905E+04  0.11173863905E+04  0.00000000000E+00 0.  1.
         21   -1    0    0  501  502 -0.00000000000E+00 -0.00000000000E+00 -0.54121206959E+02  0.54121206959E+02  0.00000000000E+00 0.  1.
         25    1    1    2    0    0 -0.63154631007E-01 -0.11298406868E+03  0.40561129394E+03  0.43921626283E+03  0.12500000000E+03 0.  0.
         25    1    1    2    0    0  0.19459522342E+02  0.11545654263E+03  0.23290580604E+03  0.28910032987E+03  0.12500000000E+03 0.  0.
         25    1    1    2    0    0 -0.19396367711E+02 -0.24724739544E+01  0.42474808358E+03  0.44319100477E+03  0.12500000000E+03 0.  0.
</event>
<event>
 5    0  0.5742667E-005  0.5194447E+03  0.7546771E-02  0.1008825E+00
         21   -1    0    0  502  501  0.00000000000E+00  0.00000000000E+00  0.17657938715E+03  0.17657938715E+03  0.00000000000E+00 0.  1.
         21   -1    0    0  501  502 -0.00000000000E+00 -0.00000000000E+00 -0.15280539135E+04  0.15280539135E+04  0.00000000000E+00 0. -1.
         25    1    1    2    0    0  0.37089879858E+03 -0.25732131425E+02 -0.97215287268E+03  0.10483006578E+04  0.12500000000E+03 0.  0.
         25    1    1    2    0    0 -0.37743235712E+02 -0.73798779607E+02 -0.18721068130E+03  0.23988257733E+03  0.12500000000E+03 0.  0.
         25    1    1    2    0    0 -0.33315556286E+03  0.99530911032E+02 -0.19211097235E+03  0.41645006545E+03  0.12500000000E+03 0.  0.
</event>
<event>
 5    0  0.5742667E-005  0.2741677E+03  0.7546771E-02  0.1098918E+00
         21   -1    0    0  502  501  0.00000000000E+00  0.00000000000E+00  0.13791491960E+03  0.13791491960E+03  0.00000000000E+00 0. -1.
         21   -1    0    0  501  502 -0.00000000000E+00 -0.00000000000E+00 -0.54503109363E+03  0.54503109363E+03  0.00000000000E+00 0. -1.
         25    1    1    2    0    0  0.39947560487E+02 -0.10491661895E+03 -0.12387047195E+03  0.20873954667E+03  0.12500000000E+03 0.  0.
         25    1    1    2    0    0  0.83310903092E+02  0.40727197032E+02 -0.23378628690E+03  0.28085661661E+03  0.12500000000E+03 0.  0.
         25    1    1    2    0    0 -0.12325846358E+03  0.64189421917E+02 -0.49459415180E+02  0.19334984996E+03  0.12500000000E+03 0.  0.
</event>
<event>
 5    0  0.5742667E-005  0.3607726E+03  0.7546771E-02  0.1058278E+00
         21   -1    0    0  502  501  0.00000000000E+00  0.00000000000E+00  0.47526412061E+03  0.47526412061E+03  0.00000000000E+00 0. -1.
         21   -1    0    0  501  502 -0.00000000000E+00 -0.00000000000E+00 -0.27386214121E+03  0.27386214121E+03  0.00000000000E+00 0. -1.
         25    1    1    2    0    0  0.22867865140E+03  0.96714201311E+02 -0.35081269076E+02  0.28018432822E+03  0.12500000000E+03 0.  0.
         25    1    1    2    0    0 -0.18826066047E+03 -0.14037052006E+03  0.14458568296E+03  0.30278041366E+03  0.12500000000E+03 0.  0.
         25    1    1    2    0    0 -0.40417990927E+02  0.43656318748E+02  0.91897565520E+02  0.16616151993E+03  0.12500000000E+03 0.  0.
</event>
<event>
 5    0  0.6067966E-005  0.2874345E+03  0.7546771E-02  0.1091696E+00
         21   -1    0    0  502  501  0.00000000000E+00  0.00000000000E+00  0.41756031779E+03  0.41756031779E+03  0.00000000000E+00 0.  1.
         21   -1    0    0  501  502 -0.00000000000E+00 -0.00000000000E+00 -0.19786030621E+03  0.19786030621E+03  0.00000000000E+00 0.  1.
         25    1    1    2    0    0 -0.12858966879E+03  0.11127695056E+00  0.21210843147E+02  0.18058298693E+03  0.12500000000E+03 0.  0.
         25    1    1    2    0    0 -0.22938300077E+02 -0.76909980633E+02  0.50213469573E+01  0.14863217908E+03  0.12500000000E+03 0.  0.
         25    1    1    2    0    0  0.15152796887E+03  0.76798703682E+02  0.19346782148E+03  0.28620545799E+03  0.12500000000E+03 0.  0.
</event>
<event>
 5    0  0.5742667E-005  0.3898293E+03  0.7546771E-02  0.1047359E+00
         21   -1    0    0  502  501  0.00000000000E+00  0.00000000000E+00  0.29809312734E+03  0.29809312734E+03  0.00000000000E+00 0.  1.
         21   -1    0    0  501  502 -0.00000000000E+00 -0.00000000000E+00 -0.50979658799E+03  0.50979658799E+03  0.00000000000E+00 0.  1.
         25    1    1    2    0    0  0.15693291771E+03 -0.95872832831E+02 -0.15716970365E+03  0.27229920397E+03  0.12500000000E+03 0.  0.
         25    1    1    2    0    0 -0.31260671328E+02 -0.15387952217E+02  0.17958984710E+03  0.22156608908E+03  0.12500000000E+03 0.  0.
         25    1    1    2    0    0 -0.12567224638E+03  0.11126078505E+03 -0.23412360410E+03  0.31402442229E+03  0.12500000000E+03 0.  0.
</event>
<event>
 5    0  0.5742667E-005  0.3637676E+03  0.7546771E-02  0.1057102E+00
         21   -1    0    0  502  501  0.00000000000E+00  0.00000000000E+00  0.11996517518E+04  0.11996517518E+04  0.00000000000E+00 0.  1.
         21   -1    0    0  501  502 -0.00000000000E+00 -0.00000000000E+00 -0.11030437634E+03  0.11030437634E+03  0.00000000000E+00 0.  1.
         25    1    1    2    0    0 -0.17793876073E+03  0.62985753285E+02  0.14353165941E+03  0.26805921909E+03  0.12500000000E+03 0.  0.
         25    1    1    2    0    0 -0.77614884651E+02 -0.14144338453E+02  0.34546174281E+03  0.37575650144E+03  0.12500000000E+03 0.  0.
         25    1    1    2    0    0  0.25555364539E+03 -0.48841414832E+02  0.60035397329E+03  0.66614040766E+03  0.12500000000E+03 0.  0.
</event>
<event>
 5    0  0.5997969E-005  0.6106371E+03  0.7546771E-02  0.9883580E-01
         21   -1    0    0  502  501  0.00000000000E+00  0.00000000000E+00  0.14357162310E+03  0.14357162310E+03  0.00000000000E+00 0.  1.
         21   -1    0    0  501  502 -0.00000000000E+00 -0.00000000000E+00 -0.25971547501E+04  0.25971547501E+04  0.00000000000E+00 0.  1.
         25    1    1    2    0    0  0.28410974752E+03  0.23597226187E+03 -0.42622006925E+03  0.57765889973E+03  0.12500000000E+03 0.  0.
         25    1    1    2    0    0 -0.18096870837E+03 -0.13019171792E+03 -0.19750950266E+03  0.32300860742E+03  0.12500000000E+03 0.  0.
         25    1    1    2    0    0 -0.10314103914E+03 -0.10578054395E+03 -0.18298535551E+04  0.18400588661E+04  0.12500000000E+03 0.  0.
</event>
<event>
 5    0  0.5742667E-005  0.2717817E+03  0.7546771E-02  0.1100264E+00
         21   -1    0    0  502  501  0.00000000000E+00  0.00000000000E+00  0.68113724616E+02  0.68113724616E+02  0.00000000000E+00 0.  1.
         21   -1    0    0  501  502 -0.00000000000E+00 -0.00000000000E+00 -0.10844404689E+04  0.10844404689E+04  0.00000000000E+00 0.  1.
         25    1    1    2    0    0  0.73184404661E+01 -0.83623539716E+02 -0.64156684375E+03  0.65899883988E+03  0.12500000000E+03 0.  0.
         25    1    1    2    0    0 -0.41681071725E+02 -0.28781486805E+02 -0.93581643230E+02  0.16415909866E+03  0.12500000000E+03 0.  0.
         25    1    1    2    0    0  0.34362631259E+02  0.11240502652E+03 -0.28117825733E+03  0.32939625500E+03  0.12500000000E+03 0.  0.
</event>
<event>
 5    0  0.5742667E-005  0.3879869E+03  0.7546771E-02  0.1048021E+00
         21   -1    0    0  502  501  0.00000000000E+00  0.00000000000E+00  0.37651034894E+03  0.37651034894E+03  0.00000000000E+00 0.  1.
         21   -1    0    0  501  502 -0.00000000000E+00 -0.00000000000E+00 -0.39981317721E+03  0.39981317721E+03  0.00000000000E+00 0.  1.
         25    1    1    2    0    0 -0.12181157189E+03 -0.53660061766E+02  0.19537486576E+03  0.26742064140E+03  0.12500000000E+03 0.  0.
         25    1    1    2    0    0  0.17844447277E+03 -0.99849363641E+02 -0.55059655211E+02  0.24590423118E+03  0.12500000000E+03 0.  0.
         25    1    1    2    0    0 -0.56632900882E+02  0.15350942541E+03 -0.16361803882E+03  0.26299865357E+03  0.12500000000E+03 0.  0.
</event>
<event>
 5    0  0.5742667E-005  0.2791645E+03  0.7546771E-02  0.1096146E+00
         21   -1    0    0  502  501  0.00000000000E+00  0.00000000000E+00  0.11131592503E+04  0.11131592503E+04  0.00000000000E+00 0. -1.
         21   -1    0    0  501  502 -0.00000000000E+00 -0.00000000000E+00 -0.70010478814E+02  0.70010478814E+02  0.00000000000E+00 0. -1.
         25    1    1    2    0    0 -0.66828279863E+02  0.77975454265E+02  0.59277197790E+03  0.61445081840E+03  0.12500000000E+03 0.  0.
         25    1    1    2    0    0 -0.28797353584E+02  0.55700016043E+02  0.20262816946E+03  0.24620104471E+03  0.12500000000E+03 0.  0.
         25    1    1    2    0    0  0.95625633447E+02 -0.13367547031E+03  0.24774862417E+03  0.32251786604E+03  0.12500000000E+03 0.  0.
</event>
<event>
 5    0  0.5742667E-005  0.4572539E+03  0.7546771E-02  0.1025581E+00
         21   -1    0    0  502  501  0.00000000000E+00  0.00000000000E+00  0.92029532539E+03  0.92029532539E+03  0.00000000000E+00 0. -1.
         21   -1    0    0  501  502 -0.00000000000E+00 -0.00000000000E+00 -0.22718914439E+03  0.22718914439E+03  0.00000000000E+00 0. -1.
         25    1    1    2    0    0 -0.34709241395E+03  0.54366081297E+02  0.27634272322E+03  0.46413264838E+03  0.12500000000E+03 0.  0.
         25    1    1    2    0    0 -0.33006205355E+02 -0.35793969961E+02  0.15432485708E+03  0.20447928841E+03  0.12500000000E+03 0.  0.
         25    1    1    2    0    0  0.38009861930E+03 -0.18572111336E+02  0.26243860070E+03  0.47887253299E+03  0.12500000000E+03 0.  0.
</event>
<event>
 5    0  0.5742667E-005  0.2334348E+03  0.7546771E-02  0.1124245E+00
         21   -1    0    0  502  501  0.00000000000E+00  0.00000000000E+00  0.51366875305E+02  0.51366875305E+02  0.00000000000E+00 0.  1.
         21   -1    0    0  501  502 -0.00000000000E+00 -0.00000000000E+00 -0.10608356111E+04  0.10608356111E+04  0.00000000000E+00 0.  1.
         25    1    1    2    0    0 -0.61747178606E+02 -0.13838593441E+01 -0.38582266609E+03  0.41024231717E+03  0.12500000000E+03 0.  0.
         25    1    1    2    0    0  0.95366257276E+02  0.73592748338E+02 -0.31926397279E+03  0.36340762231E+03  0.12500000000E+03 0.  0.
         25    1    1    2    0    0 -0.33619078671E+02 -0.72208888994E+02 -0.30438209692E+03  0.33855254692E+03  0.12500000000E+03 0.  0.
</event>
<event>
 5    0  0.5742667E-005  0.2553177E+03  0.7546771E-02  0.1109990E+00
         21   -1    0    0  502  501  0.00000000000E+00  0.00000000000E+00  0.81576588629E+02  0.81576588629E+02  0.00000000000E+00 0.  1.
         21   -1    0    0  501  502 -0.00000000000E+00 -0.00000000000E+00 -0.79909143328E+03  0.79909143328E+03  0.00000000000E+00 0.  1.
         25    1    1    2    0    0 -0.94520914787E+02  0.58772539631E+02 -0.23439960299E+03  0.28802185443E+03  0.12500000000E+03 0.  0.
         25    1    1    2    0    0  0.12931702768E+03  0.32420546401E+02 -0.22728569831E+03  0.29164665973E+03  0.12500000000E+03 0.  0.
         25    1    1    2    0    0 -0.34796112894E+02 -0.91193086032E+02 -0.25582954335E+03  0.30099950775E+03  0.12500000000E+03 0.  0.
</event>
<event>
 5    0  0.5742667E-005  0.3297625E+03  0.7546771E-02  0.1071242E+00
         21   -1    0    0  502  501  0.00000000000E+00  0.00000000000E+00  0.28301786910E+03  0.28301786910E+03  0.00000000000E+00 0. -1.
         21   -1    0    0  501  502 -0.00000000000E+00 -0.00000000000E+00 -0.38422769725E+03  0.38422769725E+03  0.00000000000E+00 0. -1.
         25    1    1    2    0    0 -0.13195960094E+03 -0.12474584078E+02 -0.23106193098E+03  0.29425085807E+03  0.12500000000E+03 0.  0.
         25    1    1    2    0    0 -0.30427723476E+02  0.55327955661E+02  0.45012523084E+02  0.14709913755E+03  0.12500000000E+03 0.  0.
         25    1    1    2    0    0  0.16238732441E+03 -0.42853371583E+02  0.84839579747E+02  0.22589557074E+03  0.12500000000E+03 0.  0.
</event>
<event>
 5    0  0.5742667E-005  0.3655560E+03  0.7546771E-02  0.1056405E+00
         21   -1    0    0  502  501  0.00000000000E+00  0.00000000000E+00  0.79752571146E+03  0.79752571146E+03  0.00000000000E+00 0. -1.
         21   -1    0    0  501  502 -0.00000000000E+00 -0.00000000000E+00 -0.16755719665E+03  0.16755719665E+03  0.00000000000E+00 0. -1.
         25    1    1    2    0    0 -0.98353282543E+02 -0.15537992921E+03  0.20755503113E+03  0.30417163171E+03  0.12500000000E+03 0.  0.
         25    1    1    2    0    0 -0.95979561769E+02 -0.55222840714E+02  0.49278539813E+02  0.17411206994E+03  0.12500000000E+03 0.  0.
         25    1    1    2    0    0  0.19433284431E+03  0.21060276993E+03  0.37313494386E+03  0.48679920646E+03  0.12500000000E+03 0.  0.
</event>
<event>
 5    0  0.5742667E-005  0.2430780E+03  0.7546771E-02  0.1117759E+00
         21   -1    0    0  502  501  0.00000000000E+00  0.00000000000E+00  0.31306119939E+02  0.31306119939E+02  0.00000000000E+00 0.  1.
         21   -1    0    0  501  502 -0.00000000000E+00 -0.00000000000E+00 -0.18873920209E+04  0.18873920209E+04  0.00000000000E+00 0.  1.
         25    1    1    2    0    0 -0.49857940076E+02  0.35631220845E+02 -0.98268196763E+03  0.99249395343E+03  0.12500000000E+03 0.  0.
         25    1    1    2    0    0 -0.29226375846E+02  0.47891619563E+02 -0.34699584563E+03  0.37306689099E+03  0.12500000000E+03 0.  0.
         25    1    1    2    0    0  0.79084315923E+02 -0.83522840408E+02 -0.52640808772E+03  0.55313729644E+03  0.12500000000E+03 0.  0.
</event>
<event>
 5    0  0.5742667E-005  0.2370981E+03  0.7546771E-02  0.1121741E+00
         21   -1    0    0  502  501  0.00000000000E+00  0.00000000000E+00  0.72592875778E+02  0.72592875778E+02  0.00000000000E+00 0.  1.
         21   -1    0    0  501  502 -0.00000000000E+00 -0.00000000000E+00 -0.77439449954E+03  0.77439449954E+03  0.00000000000E+00 0.  1.
         25    1    1    2    0    0 -0.19534775513E+02 -0.27154048854E+02 -0.95153210387E+02  0.16061781741E+03  0.12500000000E+03 0.  0.
         25    1    1    2    0    0  0.79414896377E+02 -0.32716668010E+02 -0.41849476054E+03  0.44512916185E+03  0.12500000000E+03 0.  0.
         25    1    1    2    0    0 -0.59880120864E+02  0.59870716863E+02 -0.18815365284E+03  0.24124039605E+03  0.12500000000E+03 0.  0.
</event>
<event>
 5    0  0.5742667E-005  0.4900459E+03  0.7546771E-02  0.1016410E+00
         21   -1    0    0  502  501  0.00000000000E+00  0.00000000000E+00  0.64525918799E+03  0.64525918799E+03  0.00000000000E+00 0.  1.
         21   -1    0    0  501  502 -0.00000000000E+00 -0.00000000000E+00 -0.37216825283E+03  0.37216825283E+03  0.00000000000E+00 0.  1.
         25    1    1    2    0    0  0.62183291493E+02  0.67844532174E+01  0.91228077163E+02  0.16691420733E+03  0.12500000000E+03 0.  0.
         25    1    1    2    0    0 -0.85655713111E+02 -0.30058736460E+01  0.49225177676E+03  0.51505606315E+03  0.12500000000E+03 0.  0.
         25    1    1    2    0    0  0.23472421618E+02 -0.37785795714E+01 -0.31038891877E+03  0.33545717034E+03  0.12500000000E+03 0.  0.
</event>
<event>
 5    0  0.5742667E-005  0.2484553E+03  0.7546771E-02  0.1114285E+00
         21   -1    0    0  502  501  0.00000000000E+00  0.00000000000E+00  0.46993121257E+03  0.46993121257E+03  0.00000000000E+00 0.  1.
         21   -1    0    0  501  502 -0.00000000000E+00 -0.00000000000E+00 -0.13135974585E+03  0.13135974585E+03  0.00000000000E+00 0.  1.
         25    1    1    2    0    0  0.89206180807E+01  0.74315281093E+02  0.46516297941E+02  0.15294150648E+03  0.12500000000E+03 0.  0.
         25    1    1    2    0    0 -0.76043853184E+01 -0.26256974268E+02  0.28710988994E+03  0.31433158333E+03  0.12500000000E+03 0.  0.
         25    1    1    2    0    0 -0.13162327623E+01 -0.48058306825E+02  0.49452788420E+01  0.13401786861E+03  0.12500000000E+03 0.  0.
</event>
<event>
 5    0  0.5742667E-005  0.3321263E+03  0.7546771E-02  0.1070200E+00
         21   -1    0    0  502  501  0.00000000000E+00  0.00000000000E+00  0.10888374315E+03  0.10888374315E+03  0.00000000000E+00 0.  1.
         21   -1    0    0  501  502 -0.00000000000E+00 -0.00000000000E+00 -0.10130795769E+04  0.10130795769E+04  0.00000000000E+00 0.  1.
         25    1    1    2    0    0  0.10322260134E+03 -0.14455898113E+03 -0.24595530002E+03  0.32813292133E+03  0.12500000000E+03 0.  0.
         25    1    1    2    0    0 -0.14970897931E+03  0.12057083514E+02 -0.13409713932E+03  0.23699197143E+03  0.12500000000E+03 0.  0.
         25    1    1    2    0    0  0.46486377967E+02  0.13250189762E+03 -0.52414339445E+03  0.55683842734E+03  0.12500000000E+03 0.  0.
</event>
<event>
 5    0  0.5742667E-005  0.3466317E+03  0.7546771E-02  0.1064006E+00
         21   -1    0    0  502  501  0.00000000000E+00  0.00000000000E+00  0.24505914739E+03  0.24505914739E+03  0.00000000000E+00 0.  1.
         21   -1    0    0  501  502 -0.00000000000E+00 -0.00000000000E+00 -0.49030418156E+03  0.49030418156E+03  0.00000000000E+00 0.  1.
         25    1    1    2    0    0  0.73669653176E+02  0.68629062878E+02  0.24514999267E+02  0.16236733434E+03  0.12500000000E+03 0.  0.
         25    1    1    2    0    0  0.89201653262E+01 -0.10697385206E+03  0.85431493264E+02  0.18559772201E+03  0.12500000000E+03 0.  0.
         25    1    1    2    0    0 -0.82589818502E+02  0.38344789185E+02 -0.35519152669E+03  0.38739827260E+03  0.12500000000E+03 0.  0.
</event>
<event>
 5    0  0.5742667E-005  0.2501496E+03  0.7546771E-02  0.1113210E+00
         21   -1    0    0  502  501  0.00000000000E+00  0.00000000000E+00  0.18218579360E+03  0.18218579360E+03  0.00000000000E+00 0.  1.
         21   -1    0    0  501  502 -0.00000000000E+00 -0.00000000000E+00 -0.34346703704E+03  0.34346703704E+03  0.00000000000E+00 0.  1.
         25    1    1    2    0    0  0.65158072954E+02  0.10666893313E+03 -0.28430646451E+01  0.17679626349E+03  0.12500000000E+03 0.  0.
         25    1    1    2    0    0 -0.94887635149E+02 -0.68899041020E+02 -0.12099105704E+03  0.20979651341E+03  0.12500000000E+03 0.  0.
         25    1    1    2    0    0  0.29729562195E+02 -0.37769892110E+02 -0.37447121765E+02  0.13906005374E+03  0.12500000000E+03 0.  0.
</event>
<event>
 5    0  0.5742667E-005  0.7433939E+03  0.7546771E-02  0.9645772E-01
         21   -1    0    0  502  501  0.00000000000E+00  0.00000000000E+00  0.37555767914E+03  0.37555767914E+03  0.00000000000E+00 0. -1.
         21   -1    0    0  501  502 -0.00000000000E+00 -0.00000000000E+00 -0.14715034976E+04  0.14715034976E+04  0.00000000000E+00 0.  1.
         25    1    1    2    0    0 -0.29561737325E+03  0.14274788777E+03 -0.56541398786E+03  0.66564597835E+03  0.12500000000E+03 0.  0.
         25    1    1    2    0    0 -0.54199762442E+01  0.29671423746E+03 -0.54617964598E+03  0.63403936828E+03  0.12500000000E+03 0.  0.
         25    1    1    2    0    0  0.30103734950E+03 -0.43946212523E+03  0.15647815337E+02  0.54737583015E+03  0.12500000000E+03 0.  0.
</event>
<event>
 5    0  0.5742667E-005  0.2783929E+03  0.7546771E-02  0.1096570E+00
         21   -1    0    0  502  501  0.00000000000E+00  0.00000000000E+00  0.26244503611E+03  0.26244503611E+03  0.00000000000E+00 0.  1.
         21   -1    0    0  501  502 -0.00000000000E+00 -0.00000000000E+00 -0.29530983852E+03  0.29530983852E+03  0.00000000000E+00 0.  1.
         25    1    1    2    0    0  0.37616862060E+02  0.31642971728E+02 -0.18863704671E+03  0.23157124468E+03  0.12500000000E+03 0.  0.
         25    1    1    2    0    0 -0.79815889443E+02  0.47804176561E+01  0.96696543362E+02  0.17711197051E+03  0.12500000000E+03 0.  0.
         25    1    1    2    0    0  0.42199027383E+02 -0.36423389385E+02  0.59075700939E+02  0.14907165944E+03  0.12500000000E+03 0.  0.
</event>
<event>
 5    0  0.5742667E-005  0.2990577E+03  0.7546771E-02  0.1085713E+00
         21   -1    0    0  502  501  0.00000000000E+00  0.00000000000E+00  0.12368102499E+03  0.12368102499E+03  0.00000000000E+00 0. -1.
         21   -1    0    0  501  502 -0.00000000000E+00 -0.00000000000E+00 -0.72311440832E+03  0.72311440832E+03  0.00000000000E+00 0. -1.
         25    1    1    2    0    0 -0.12272254258E+03  0.25211240110E+02 -0.51972723121E+03  0.54903353626E+03  0.12500000000E+03 0.  0.
         25    1    1    2    0    0  0.42469031754E+02 -0.21039648534E+02 -0.11271955332E+02  0.13415790117E+03  0.12500000000E+03 0.  0.
         25    1    1    2    0    0  0.80253510828E+02 -0.41715915756E+01 -0.68434196795E+02  0.16360399588E+03  0.12500000000E+03 0.  0.
</event>
<event>
 5    0  0.5742667E-005  0.3335391E+03  0.7546771E-02  0.1069582E+00
         21   -1    0    0  502  501  0.00000000000E+00  0.00000000000E+00  0.10411672190E+04  0.10411672190E+04  0.00000000000E+00 0.  1.
         21   -1    0    0  501  502 -0.00000000000E+00 -0.00000000000E+00 -0.10684960831E+03  0.10684960831E+03  0.00000000000E+00 0.  1.
         25    1    1    2    0    0  0.13707427797E+03 -0.45319037630E+01  0.15749273178E+03  0.24339033751E+03  0.12500000000E+03 0.  0.
         25    1    1    2    0    0 -0.82230531629E+02 -0.98678751646E+02  0.68967469237E+03  0.71258370571E+03  0.12500000000E+03 0.  0.
         25    1    1    2    0    0 -0.54843746343E+02  0.10321065541E+03  0.87150186562E+02  0.19204278409E+03  0.12500000000E+03 0.  0.
</event>
<event>
 5    0  0.5742667E-005  0.2502666E+03  0.7546771E-02  0.1113136E+00
         21   -1    0    0  502  501  0.00000000000E+00  0.00000000000E+00  0.61978431778E+02  0.61978431778E+02  0.00000000000E+00 0. -1.
         21   -1    0    0  501  502 -0.00000000000E+00 -0.00000000000E+00 -0.10105675093E+04  0.10105675093E+04  0.00000000000E+00 0. -1.
         25    1    1    2    0    0  0.53406656680E+02 -0.21556906856E+02 -0.22585619528E+03  0.26448627971E+03  0.12500000000E+03 0.  0.
         25    1    1    2    0    0 -0.40172281937E+02  0.54942128103E+02 -0.10521898658E+03  0.17699854467E+03  0.12500000000E+03 0.  0.
         25    1    1    2    0    0 -0.13234374744E+02 -0.33385221247E+02 -0.61751389567E+03  0.63106111671E+03  0.12500000000E+03 0.  0.
</event>
<event>
 5    0  0.5742667E-005  0.3252719E+03  0.7546771E-02  0.1073248E+00
         21   -1    0    0  502  501  0.00000000000E+00  0.00000000000E+00  0.15375529973E+03  0.15375529973E+03  0.00000000000E+00 0.  1.
         21   -1    0    0  501  502 -0.00000000000E+00 -0.00000000000E+00 -0.68811794897E+03  0.68811794897E+03  0.00000000000E+00 0.  1.
         25    1    1    2    0    0 -0.47328298466E+02 -0.13979557762E+03 -0.34413811249E+03  0.39476424841E+03  0.12500000000E+03 0.  0.
         25    1    1    2    0    0 -0.11751341743E+03  0.79849087318E+02 -0.88261891144E+02  0.20880718725E+03  0.12500000000E+03 0.  0.
         25    1    1    2    0    0  0.16484171589E+03  0.59946490298E+02 -0.10196264561E+03  0.23830181304E+03  0.12500000000E+03 0.  0.
</event>
<event>
 5    0  0.5897191E-005  0.3249327E+03  0.7546771E-02  0.1073401E+00
         21   -1    0    0  502  501  0.00000000000E+00  0.00000000000E+00  0.27170940834E+03  0.27170940834E+03  0.00000000000E+00 0. -1.
         21   -1    0    0  501  502 -0.00000000000E+00 -0.00000000000E+00 -0.38858142979E+03  0.38858142979E+03  0.00000000000E+00 0. -1.
         25    1    1    2    0    0 -0.19872852566E+03 -0.54222070552E+02  0.77528614108E+02  0.25311804726E+03  0.12500000000E+03 0.  0.
         25    1    1    2    0    0  0.12481218198E+03 -0.44009745559E+02 -0.89383395908E+02  0.20280367338E+03  0.12500000000E+03 0.  0.
         25    1    1    2    0    0  0.73916343679E+02  0.98231816111E+02 -0.10501723965E+03  0.20436911749E+03  0.12500000000E+03 0.  0.
</event>
<event>
 5    0  0.5742667E-005  0.4706013E+03  0.7546771E-02  0.1021751E+00
         21   -1    0    0  502  501  0.00000000000E+00  0.00000000000E+00  0.94879851041E+03  0.94879851041E+03  0.00000000000E+00 0.  1.
         21   -1    0    0  501  502 -0.00000000000E+00 -0.00000000000E+00 -0.23341684197E+03  0.23341684197E+03  0.00000000000E+00 0.  1.
         25    1    1    2    0    0  0.19126402132E+03 -0.16471167396E+03  0.50958839986E+02  0.28624057148E+03  0.12500000000E+03 0.  0.
         25    1    1    2    0    0 -0.17394102967E+03  0.24143870536E+03  0.67470248193E+03  0.74792818464E+03  0.12500000000E+03 0.  0.
         25    1    1    2    0    0 -0.17322991650E+02 -0.76727031402E+02 -0.10279653474E+02  0.14804659626E+03  0.12500000000E+03 0.  0.
</event>
<event>
 5    0  0.5742667E-005  0.3266266E+03  0.7546771E-02  0.1072639E+00
         21   -1    0    0  502  501  0.00000000000E+00  0.00000000000E+00  0.16376590701E+03  0.16376590701E+03  0.00000000000E+00 0. -1.
         21   -1    0    0  501  502 -0.00000000000E+00 -0.00000000000E+00 -0.65144782620E+03  0.65144782620E+03  0.00000000000E+00 0. -1.
         25    1    1    2    0    0 -0.11737095866E+03  0.52140084702E+02 -0.16758371742E+03  0.24536469329E+03  0.12500000000E+03 0.  0.
         25    1    1    2    0    0 -0.11864786164E+03 -0.83380557406E+02 -0.73752807581E+02  0.20516848942E+03  0.12500000000E+03 0.  0.
         25    1    1    2    0    0  0.23601882030E+03  0.31240472704E+02 -0.24634539419E+03  0.36468055050E+03  0.12500000000E+03 0.  0.
</event>
<event>
 5    0  0.5742667E-005  0.2245303E+03  0.7546771E-02  0.1130550E+00
         21   -1    0    0  502  501  0.00000000000E+00  0.00000000000E+00  0.57891449004E+02  0.57891449004E+02  0.00000000000E+00 0. -1.
         21   -1    0    0  501  502 -0.00000000000E+00 -0.00000000000E+00 -0.87083416599E+03  0.87083416599E+03  0.00000000000E+00 0. -1.
         25    1    1    2    0    0 -0.67893972801E+02 -0.83976271291E+02 -0.35431592867E+03  0.39093015104E+03  0.12500000000E+03 0.  0.
         25    1    1    2    0    0  0.48946692663E+02  0.49066208338E+02 -0.29735956774E+03  0.32992572505E+03  0.12500000000E+03 0.  0.
         25    1    1    2    0    0  0.18947280138E+02  0.34910062953E+02 -0.16126722058E+03  0.20786973891E+03  0.12500000000E+03 0.  0.
</event>
<event>
 5    0  0.5742667E-005  0.2370895E+03  0.7546771E-02  0.1121747E+00
         21   -1    0    0  502  501  0.00000000000E+00  0.00000000000E+00  0.79593523696E+02  0.79593523696E+02  0.00000000000E+00 0.  1.
         21   -1    0    0  501  502 -0.00000000000E+00 -0.00000000000E+00 -0.70623117677E+03  0.70623117677E+03  0.00000000000E+00 0.  1.
         25    1    1    2    0    0  0.56686787837E+02  0.70577902971E+02 -0.32991285641E+03  0.36422812238E+03  0.12500000000E+03 0.  0.
         25    1    1    2    0    0  0.37195343606E+02 -0.40138078396E+02 -0.17048234949E+03  0.21836618422E+03  0.12500000000E+03 0.  0.
         25    1    1    2    0    0 -0.93882131444E+02 -0.30439824575E+02 -0.12624244717E+03  0.20323039387E+03  0.12500000000E+03 0.  0.
</event>
<event>
 5    0  0.5742667E-005  0.3514185E+03  0.7546771E-02  0.1062034E+00
         21   -1    0    0  502  501  0.00000000000E+00  0.00000000000E+00  0.39894258548E+03  0.39894258548E+03  0.00000000000E+00 0.  1.
         21   -1    0    0  501  502 -0.00000000000E+00 -0.00000000000E+00 -0.30955576672E+03  0.30955576672E+03  0.00000000000E+00 0.  1.
         25    1    1    2    0    0 -0.85254659450E+02 -0.26501371486E+02 -0.35079347829E+02  0.15756344847E+03  0.12500000000E+03 0.  0.
         25    1    1    2    0    0  0.15158295062E+03 -0.11094324111E+03  0.23419178256E+03  0.32520237497E+03  0.12500000000E+03 0.  0.
         25    1    1    2    0    0 -0.66328291172E+02  0.13744461260E+03 -0.10972561597E+03  0.22573252876E+03  0.12500000000E+03 0.  0.
</event>
<event>
 5    0  0.5742667E-005  0.4186253E+03  0.7546771E-02  0.1037515E+00
         21   -1    0    0  502  501  0.00000000000E+00  0.00000000000E+00  0.21831924014E+04  0.21831924014E+04  0.00000000000E+00 0.  1.
         21   -1    0    0  501  502 -0.00000000000E+00 -0.00000000000E+00 -0.80271058345E+02  0.80271058345E+02  0.00000000000E+00 0.  1.
         25    1    1    2    0    0 -0.17916830476E+03 -0.13770694537E+03  0.33337319897E+03  0.42169559404E+03  0.12500000000E+03 0.  0.
         25    1    1    2    0    0  0.13139042204E+03  0.14965858781E+03  0.38787653941E+03  0.45357948116E+03  0.12500000000E+03 0.  0.
         25    1    1    2    0    0  0.47777882725E+02 -0.11951642436E+02  0.13816716047E+04  0.13881883845E+04  0.12500000000E+03 0.  0.
</event>
<event>
 5    0  0.5742667E-005  0.2362671E+03  0.7546771E-02  0.1122305E+00
         21   -1    0    0  502  501  0.00000000000E+00  0.00000000000E+00  0.44454684452E+02  0.44454684452E+02  0.00000000000E+00 0. -1.
         21   -1    0    0  501  502 -0.00000000000E+00 -0.00000000000E+00 -0.12557092946E+04  0.12557092946E+04  0.00000000000E+00 0. -1.
         25    1    1    2    0    0  0.45797789664E+00  0.96153038464E+00 -0.53451193930E+03  0.54893455670E+03  0.12500000000E+03 0.  0.
         25    1    1    2    0    0  0.62413895939E+02 -0.72640812776E+02 -0.23996480452E+03  0.28701966743E+03  0.12500000000E+03 0.  0.
         25    1    1    2    0    0 -0.62871873835E+02  0.71679282391E+02 -0.43677786630E+03  0.46420975489E+03  0.12500000000E+03 0.  0.
</event>
<event>
 5    0  0.5742667E-005  0.2813272E+03  0.7546771E-02  0.1094966E+00
         21   -1    0    0  502  501  0.00000000000E+00  0.00000000000E+00  0.12399234703E+04  0.12399234703E+04  0.00000000000E+00 0. -1.
         21   -1    0    0  501  502 -0.00000000000E+00 -0.00000000000E+00 -0.63830526749E+02  0.63830526749E+02  0.00000000000E+00 0. -1.
         25    1    1    2    0    0  0.34906330781E+02  0.14588196519E+01  0.20391745923E+03  0.24171865932E+03  0.12500000000E+03 0.  0.
         25    1    1    2    0    0 -0.20401057904E+01  0.46631042422E+02  0.89321232615E+03  0.90312340006E+03  0.12500000000E+03 0.  0.
         25    1    1    2    0    0 -0.32866224991E+02 -0.48089862074E+02  0.78963158125E+02  0.15891193763E+03  0.12500000000E+03 0.  0.
</event>
<event>
 5    0  0.5742667E-005  0.5700092E+03  0.7546771E-02  0.9969658E-01
         21   -1    0    0  502  501  0.00000000000E+00  0.00000000000E+00  0.16202507506E+03  0.16202507506E+03  0.00000000000E+00 0. -1.
         21   -1    0    0  501  502 -0.00000000000E+00 -0.00000000000E+00 -0.20053098414E+04  0.20053098414E+04  0.00000000000E+00 0. -1.
         25    1    1    2    0    0  0.21830723464E+03  0.38464718272E+03 -0.49658657865E+03  0.67663486015E+03  0.12500000000E+03 0.  0.
         25    1    1    2    0    0 -0.15138414160E+03 -0.29086707724E+03 -0.41436440626E+03  0.54299509770E+03  0.12500000000E+03 0.  0.
         25    1    1    2    0    0 -0.66923093039E+02 -0.93780105482E+02 -0.93233378141E+03  0.94770495859E+03  0.12500000000E+03 0.  0.
</event>
<event>
 5    0  0.5742667E-005  0.3531709E+03  0.7546771E-02  0.1061321E+00
         21   -1    0    0  502  501  0.00000000000E+00  0.00000000000E+00  0.24637807410E+03  0.24637807410E+03  0.00000000000E+00 0. -1.
         21   -1    0    0  501  502 -0.00000000000E+00 -0.00000000000E+00 -0.50625323083E+03  0.50625323083E+03  0.00000000000E+00 0. -1.
         25    1    1    2    0    0 -0.63050901433E+02  0.11331910590E+03 -0.64275537219E+02  0.19124063538E+03  0.12500000000E+03 0.  0.
         25    1    1    2    0    0 -0.63316004921E+02 -0.17809837594E+03 -0.27489804916E+03  0.35626097937E+03  0.12500000000E+03 0.  0.
         25    1    1    2    0    0  0.12636690635E+03  0.64779270036E+02  0.79298429646E+02  0.20512969018E+03  0.12500000000E+03 0.  0.
</event>
<event>
 5    0  0.5742667E-005  0.3618150E+03  0.7546771E-02  0.1057868E+00
         21   -1    0    0  502  501  0.00000000000E+00  0.00000000000E+00  0.67397464689E+02  0.67397464689E+02  0.00000000000E+00 0.  1.
         21   -1    0    0  501  502 -0.00000000000E+00 -0.00000000000E+00 -0.19423591203E+04  0.19423591203E+04  0.00000000000E+00 0.  1.
         25    1    1    2    0    0 -0.15608400873E+03  0.12850682785E+03 -0.67548143506E+03  0.71608406748E+03  0.12500000000E+03 0.  0.
         25    1    1    2    0    0 -0.39948854926E+02  0.13772683197E+02 -0.11362969404E+03  0.17413301002E+03  0.12500000000E+03 0.  0.
         25    1    1    2    0    0  0.19603286366E+03 -0.14227951105E+03 -0.10858505265E+04  0.11195395075E+04  0.12500000000E+03 0.  0.
</event>
<event>
 5    0  0.5742667E-005  0.2957396E+03  0.7546771E-02  0.1087390E+00
         21   -1    0    0  502  501  0.00000000000E+00  0.00000000000E+00  0.11623742662E+04  0.11623742662E+04  0.00000000000E+00 0.  1.
         21   -1    0    0  501  502 -0.00000000000E+00 -0.00000000000E+00 -0.75244197461E+02  0.75244197461E+02  0.00000000000E+00 0.  1.
         25    1    1    2    0    0 -0.60546719597E+02 -0.11880588377E+03  0.32401186425E+03  0.37200730026E+03  0.12500000000E+03 0.  0.
         25    1    1    2    0    0 -0.53854684530E+02 -0.71514009455E+02  0.28631930592E+03  0.32498973144E+03  0.12500000000E+03 0.  0.
         25    1    1    2    0    0  0.11440140413E+03  0.19031989323E+03  0.47679889855E+03  0.54062143195E+03  0.12500000000E+03 0.  0.
</event>
<event>
 5    0  0.5742667E-005  0.3045966E+03  0.7546771E-02  0.1082965E+00
         21   -1    0    0  502  501  0.00000000000E+00  0.00000000000E+00  0.42815643149E+03  0.42815643149E+03  0.00000000000E+00 0.  1.
         21   -1    0    0  501  502 -0.00000000000E+00 -0.00000000000E+00 -0.21669442931E+03  0.21669442931E+03  0.00000000000E+00 0.  1.
         25    1    1    2    0    0 -0.86135219973E+02 -0.11790169824E+03  0.10394201823E+03  0.21851551369E+03  0.12500000000E+03 0.  0.
         25    1    1    2    0    0  0.17655889544E+03  0.14253793762E+02  0.11416206935E+02  0.21709800546E+03  0.12500000000E+03 0.  0.
         25    1    1    2    0    0 -0.90423675463E+02  0.10364790448E+03  0.96103777017E+02  0.20923734166E+03  0.12500000000E+03 0.  0.
</event>
<event>
 5    0  0.5742667E-005  0.2504377E+03  0.7546771E-02  0.1113029E+00
         21   -1    0    0  502  501  0.00000000000E+00  0.00000000000E+00  0.62861631403E+03  0.62861631403E+03  0.00000000000E+00 0. -1.
         21   -1    0    0  501  502 -0.00000000000E+00 -0.00000000000E+00 -0.99773130927E+02  0.99773130927E+02  0.00000000000E+00 0. -1.
         25    1    1    2    0    0 -0.98002899382E+02 -0.64052751385E+02  0.21750538624E+03  0.27684095848E+03  0.12500000000E+03 0.  0.
         25    1    1    2    0    0  0.33326771543E+02 -0.35771471538E+02  0.60820469703E+02  0.14735807210E+03  0.12500000000E+03 0.  0.
         25    1    1    2    0    0  0.64676127838E+02  0.99824222923E+02  0.25051732716E+03  0.30419041438E+03  0.12500000000E+03 0.  0.
</event>
<event>
 5    0  0.5742667E-005  0.2288478E+03  0.7546771E-02  0.1127453E+00
         21   -1    0    0  502  501  0.00000000000E+00  0.00000000000E+00  0.21075012276E+02  0.21075012276E+02  0.00000000000E+00 0.  1.
         21   -1    0    0  501  502 -0.00000000000E+00 -0.00000000000E+00 -0.24849958091E+04  0.24849958091E+04  0.00000000000E+00 0.  1.
         25    1    1    2    0    0  0.50738002881E+02 -0.16725694473E+02 -0.99485930143E+03  0.10041036418E+04  0.12500000000E+03 0.  0.
         25    1    1    2    0    0  0.89923600085E+01  0.86782837878E+02 -0.86167694198E+03  0.87505672721E+03  0.12500000000E+03 0.  0.
         25    1    1    2    0    0 -0.59730362890E+02 -0.70057143405E+02 -0.60738455346E+03  0.62691045244E+03  0.12500000000E+03 0.  0.
</event>
<event>
 5    0  0.5742667E-005  0.2738840E+03  0.7546771E-02  0.1099077E+00
         21   -1    0    0  502  501  0.00000000000E+00  0.00000000000E+00  0.35765547259E+03  0.35765547259E+03  0.00000000000E+00 0.  1.
         21   -1    0    0  501  502 -0.00000000000E+00 -0.00000000000E+00 -0.20973373884E+03  0.20973373884E+03  0.00000000000E+00 0.  1.
         25    1    1    2    0    0 -0.44450178069E+02  0.57875499124E+02 -0.53468182586E+02  0.15430242473E+03  0.12500000000E+03 0.  0.
         25    1    1    2    0    0 -0.44425557536E+01 -0.25989114521E+02 -0.41015766224E+02  0.13417325909E+03  0.12500000000E+03 0.  0.
         25    1    1    2    0    0  0.48892733822E+02 -0.31886384602E+02  0.24240568256E+03  0.27891352761E+03  0.12500000000E+03 0.  0.
</event>
<event>
 5    0  0.5742667E-005  0.3594196E+03  0.7546771E-02  0.1058814E+00
         21   -1    0    0  502  501  0.00000000000E+00  0.00000000000E+00  0.17535168625E+03  0.17535168625E+03  0.00000000000E+00 0. -1.
         21   -1    0    0  501  502 -0.00000000000E+00 -0.00000000000E+00 -0.73670471112E+03  0.73670471112E+03  0.00000000000E+00 0. -1.
         25    1    1    2    0    0 -0.16786392556E+01  0.97356438750E+02  0.46615093988E+02  0.16516373992E+03  0.12500000000E+03 0.  0.
         25    1    1    2    0    0 -0.69117532486E+02  0.62924788640E+02 -0.45984430204E+03  0.48561151597E+03  0.12500000000E+03 0.  0.
         25    1    1    2    0    0  0.70796171741E+02 -0.16028122739E+03 -0.14812381682E+03  0.26128114148E+03  0.12500000000E+03 0.  0.
</event>
<event>
 5    0  0.5742667E-005  0.3598796E+03  0.7546771E-02  0.1058632E+00
         21   -1    0    0  502  501  0.00000000000E+00  0.00000000000E+00  0.84708381186E+03  0.84708381186E+03  0.00000000000E+00 0.  1.
         21   -1    0    0  501  502 -0.00000000000E+00 -0.00000000000E+00 -0.15289316304E+03  0.15289316304E+03  0.00000000000E+00 0.  1.
         25    1    1    2    0    0  0.21477970771E+02  0.67855703559E+02  0.42238756743E+03  0.44620842311E+03  0.12500000000E+03 0.  0.
         25    1    1    2    0    0  0.18894639460E+03  0.35239120205E+01  0.14524855429E+03  0.26913806961E+03  0.12500000000E+03 0.  0.
         25    1    1    2    0    0 -0.21042436537E+03 -0.71379615579E+02  0.12655452710E+03  0.28463048219E+03  0.12500000000E+03 0.  0.
</event>
<event>
 5    0  0.5742667E-005  0.5556465E+03  0.7546771E-02  0.1000195E+00
         21   -1    0    0  502  501  0.00000000000E+00  0.00000000000E+00  0.62123293222E+03  0.62123293222E+03  0.00000000000E+00 0.  1.
         21   -1    0    0  501  502 -0.00000000000E+00 -0.00000000000E+00 -0.49698434134E+03  0.49698434134E+03  0.00000000000E+00 0.  1.
         25    1    1    2    0    0  0.42040948901E+03  0.51255869296E+02 -0.12313413272E+02  0.44175550108E+03  0.12500000000E+03 0.  0.
         25    1    1    2    0    0  0.47323279315E+02 -0.11151146183E+03  0.23460415791E+02  0.17564079820E+03  0.12500000000E+03 0.  0.
         25    1    1    2    0    0 -0.46773276832E+03  0.60255592529E+02  0.11310158836E+03  0.50082097428E+03  0.12500000000E+03 0.  0.
</event>
<event>
 5    0  0.5742667E-005  0.2494698E+03  0.7546771E-02  0.1113640E+00
         21   -1    0    0  502  501  0.00000000000E+00  0.00000000000E+00  0.66015430821E+03  0.66015430821E+03  0.00000000000E+00 0.  1.
         21   -1    0    0  501  502 -0.00000000000E+00 -0.00000000000E+00 -0.94273677512E+02  0.94273677512E+02  0.00000000000E+00 0.  1.
         25    1    1    2    0    0 -0.98906884561E+01 -0.15825130043E+02  0.11040614883E+03  0.16781769322E+03  0.12500000000E+03 0.  0.
         25    1    1    2    0    0 -0.11760660091E+03 -0.35422671167E+02  0.15831462098E+03  0.23616646127E+03  0.12500000000E+03 0.  0.
         25    1    1    2    0    0  0.12749728937E+03  0.51247801210E+02  0.29715986090E+03  0.35044383124E+03  0.12500000000E+03 0.  0.
</event>
<event>
 5    0  0.5742667E-005  0.2243802E+03  0.7546771E-02  0.1130659E+00
         21   -1    0    0  502  501  0.00000000000E+00  0.00000000000E+00  0.27298247593E+02  0.27298247593E+02  0.00000000000E+00 0. -1.
         21   -1    0    0  501  502 -0.00000000000E+00 -0.00000000000E+00 -0.18443111134E+04  0.18443111134E+04  0.00000000000E+00 0. -1.
         25    1    1    2    0    0  0.15248367925E+02  0.90790285325E+02 -0.52156022326E+03  0.54417410368E+03  0.12500000000E+03 0.  0.
         25    1    1    2    0    0  0.28903745142E+02 -0.90571358728E+02 -0.69529224153E+03  0.71280775714E+03  0.12500000000E+03 0.  0.
         25    1    1    2    0    0 -0.44152113067E+02 -0.21892659738E+00 -0.60016040101E+03  0.61462750016E+03  0.12500000000E+03 0.  0.
</event>
<event>
 5    0  0.5742667E-005  0.3285748E+03  0.7546771E-02  0.1071769E+00
         21   -1    0    0  502  501  0.00000000000E+00  0.00000000000E+00  0.11455256965E+04  0.11455256965E+04  0.00000000000E+00 0.  1.
         21   -1    0    0  501  502 -0.00000000000E+00 -0.00000000000E+00 -0.94246136037E+02  0.94246136037E+02  0.00000000000E+00 0.  1.
         25    1    1    2    0    0 -0.81237662863E+01 -0.18485249933E+03  0.16063699071E+03  0.27507396255E+03  0.12500000000E+03 0.  0.
         25    1    1    2    0    0 -0.14552170494E+02  0.10164879161E+03  0.71239264400E+03  0.73052893284E+03  0.12500000000E+03 0.  0.
         25    1    1    2    0    0  0.22675936780E+02  0.83203707721E+02  0.17824992572E+03  0.23416893711E+03  0.12500000000E+03 0.  0.
</event>
<event>
 5    0  0.5742667E-005  0.2383376E+03  0.7546771E-02  0.1120905E+00
         21   -1    0    0  502  501  0.00000000000E+00  0.00000000000E+00  0.14916720937E+04  0.14916720937E+04  0.00000000000E+00 0.  1.
         21   -1    0    0  501  502 -0.00000000000E+00 -0.00000000000E+00 -0.38081284809E+02  0.38081284809E+02  0.00000000000E+00 0.  1.
         25    1    1    2    0    0  0.33841490118E+02 -0.54221181431E+02  0.30957095311E+03  0.33991816365E+03  0.12500000000E+03 0.  0.
         25    1    1    2    0    0 -0.72310672671E+02 -0.54971822335E+02  0.61171948055E+03  0.63093300557E+03  0.12500000000E+03 0.  0.
         25    1    1    2    0    0  0.38469182553E+02  0.10919300377E+03  0.53230037523E+03  0.55890220929E+03  0.12500000000E+03 0.  0.
</event>
<event>
 5    0  0.5742667E-005  0.2722447E+03  0.7546771E-02  0.1100002E+00
         21   -1    0    0  502  501  0.00000000000E+00  0.00000000000E+00  0.28812305129E+03  0.28812305129E+03  0.00000000000E+00 0.  1.
         21   -1    0    0  501  502 -0.00000000000E+00 -0.00000000000E+00 -0.25724149021E+03  0.25724149021E+03  0.00000000000E+00 0.  1.
         25    1    1    2    0    0  0.65314661608E+02 -0.31645036518E+02 -0.55682892746E+02  0.15489673302E+03  0.12500000000E+03 0.  0.
         25    1    1    2    0    0 -0.13725585644E+03  0.61290505136E+02 -0.36126076443E+02  0.19881093920E+03  0.12500000000E+03 0.  0.
         25    1    1    2    0    0  0.71941194829E+02 -0.29645468618E+02  0.12269053027E+03  0.19165686927E+03  0.12500000000E+03 0.  0.
</event>
<event>
 5    0  0.5742667E-005  0.2597462E+03  0.7546771E-02  0.1107296E+00
         21   -1    0    0  502  501  0.00000000000E+00  0.00000000000E+00  0.25116546071E+03  0.25116546071E+03  0.00000000000E+00 0.  1.
         21   -1    0    0  501  502 -0.00000000000E+00 -0.00000000000E+00 -0.26862013280E+03  0.26862013280E+03  0.00000000000E+00 0.  1.
         25    1    1    2    0    0  0.23340983792E+02  0.45588537074E+02 -0.77621140730E+02  0.15579845225E+03  0.12500000000E+03 0.  0.
         25    1    1    2    0    0  0.10680688366E+03 -0.61095431521E+02  0.50877893691E+02  0.18263056211E+03  0.12500000000E+03 0.  0.
         25    1    1    2    0    0 -0.13014786745E+03  0.15506894448E+02  0.92885749488E+01  0.18135657915E+03  0.12500000000E+03 0.  0.
</event>
<event>
 5    0  0.5742667E-005  0.2336584E+03  0.7546771E-02  0.1124091E+00
         21   -1    0    0  502  501  0.00000000000E+00  0.00000000000E+00  0.20454412067E+02  0.20454412067E+02  0.00000000000E+00 0.  1.
         21   -1    0    0  501  502 -0.00000000000E+00 -0.00000000000E+00 -0.26691680954E+04  0.26691680954E+04  0.00000000000E+00 0.  1.
         25    1    1    2    0    0  0.64378897381E+02 -0.44165664147E+02 -0.92566535006E+03  0.93732416411E+03  0.12500000000E+03 0.  0.
         25    1    1    2    0    0  0.28932375352E+02  0.27219293746E+02 -0.11729507816E+04  0.11802612034E+04  0.12500000000E+03 0.  0.
         25    1    1    2    0    0 -0.93311272733E+02  0.16946370401E+02 -0.55009755168E+03  0.57203713992E+03  0.12500000000E+03 0.  0.
</event>
<event>
 5    0  0.5742667E-005  0.5822229E+03  0.7546771E-02  0.9942990E-01
         21   -1    0    0  502  501  0.00000000000E+00  0.00000000000E+00  0.36122511905E+03  0.36122511905E+03  0.00000000000E+00 0. -1.
         21   -1    0    0  501  502 -0.00000000000E+00 -0.00000000000E+00 -0.93842717865E+03  0.93842717865E+03  0.00000000000E+00 0. -1.
         25    1    1    2    0    0  0.44947166692E+03  0.73295805038E+01  0.37800786886E+02  0.46811579936E+03  0.12500000000E+03 0.  0.
         25    1    1    2    0    0 -0.36094149794E+03  0.19999570390E+02 -0.32285733195E+03  0.50054031261E+03  0.12500000000E+03 0.  0.
         25    1    1    2    0    0 -0.88530168981E+02 -0.27329150894E+02 -0.29214551453E+03  0.33099618573E+03  0.12500000000E+03 0.  0.
</event>
<event>
 5    0  0.5742667E-005  0.2885493E+03  0.7546771E-02  0.1091109E+00
         21   -1    0    0  502  501  0.00000000000E+00  0.00000000000E+00  0.28479299153E+03  0.28479299153E+03  0.00000000000E+00 0. -1.
         21   -1    0    0  501  502 -0.00000000000E+00 -0.00000000000E+00 -0.29235505558E+03  0.29235505558E+03  0.00000000000E+00 0. -1.
         25    1    1    2    0    0  0.12718094826E+03  0.12443640273E+03  0.46427889375E+02  0.22235098568E+03  0.12500000000E+03 0.  0.
         25    1    1    2    0    0 -0.53878925176E+02 -0.42117605091E+02 -0.10889148892E+03  0.17932982908E+03  0.12500000000E+03 0.  0.
         25    1    1    2    0    0 -0.73302023080E+02 -0.82318797635E+02  0.54901535497E+02  0.17546723236E+03  0.12500000000E+03 0.  0.
</event>
<event>
 5    0  0.5742667E-005  0.2814403E+03  0.7546771E-02  0.1094905E+00
         21   -1    0    0  502  501  0.00000000000E+00  0.00000000000E+00  0.72692515044E+02  0.72692515044E+02  0.00000000000E+00 0. -1.
         21   -1    0    0  501  502 -0.00000000000E+00 -0.00000000000E+00 -0.10896394023E+04  0.10896394023E+04  0.00000000000E+00 0. -1.
         25    1    1    2    0    0 -0.36827928807E+02  0.43757334761E+02 -0.20939807121E+03  0.25048663220E+03  0.12500000000E+03 0.  0.
         25    1    1    2    0    0  0.13918789141E+03 -0.82021632215E+00 -0.17013070879E+03  0.25287032238E+03  0.12500000000E+03 0.  0.
         25    1    1    2    0    0 -0.10235996260E+03 -0.42937118439E+02 -0.63741810726E+03  0.65897496276E+03  0.12500000000E+03 0.  0.
</event>
<event>
 5    0  0.5742667E-005  0.3237685E+03  0.7546771E-02  0.1073928E+00
         21   -1    0    0  502  501  0.00000000000E+00  0.00000000000E+00  0.17169833020E+03  0.17169833020E+03  0.00000000000E+00 0.  1.
         21   -1    0    0  501  502 -0.00000000000E+00 -0.00000000000E+00 -0.61052469505E+03  0.61052469505E+03  0.00000000000E+00 0.  1.
         25    1    1    2    0    0  0.18623316296E+03  0.60274539214E+02 -0.26364680711E+03  0.35135516214E+03  0.12500000000E+03 0.  0.
         25    1    1    2    0    0 -0.15530564978E+03  0.18957173759E+02 -0.19361985296E+03  0.27855496181E+03  0.12500000000E+03 0.  0.
         25    1    1    2    0    0 -0.30927513181E+02 -0.79231712973E+02  0.18440295231E+02  0.15231290129E+03  0.12500000000E+03 0.  0.
</event>
<event>
 5    0  0.5896605E-005  0.2908960E+03  0.7546771E-02  0.1089882E+00
         21   -1    0    0  502  501  0.00000000000E+00  0.00000000000E+00  0.84665449256E+02  0.84665449256E+02  0.00000000000E+00 0.  1.
         21   -1    0    0  501  502 -0.00000000000E+00 -0.00000000000E+00 -0.99946888737E+03  0.99946888737E+03  0.00000000000E+00 0.  1.
         25    1    1    2    0    0  0.53301335151E+02 -0.24851341709E+02 -0.63439381503E+03  0.64926045164E+03  0.12500000000E+03 0.  0.
         25    1    1    2    0    0 -0.11989855160E+03 -0.85106715037E+01 -0.21254924883E+03  0.27431784007E+03  0.12500000000E+03 0.  0.
         25    1    1    2    0    0  0.66597216452E+02  0.33362013212E+02 -0.67860374261E+02  0.16055604492E+03  0.12500000000E+03 0.  0.
</event>
<event>
 5    0  0.5742667E-005  0.3238913E+03  0.7546771E-02  0.1073872E+00
         21   -1    0    0  502  501  0.00000000000E+00  0.00000000000E+00  0.25315566737E+03  0.25315566737E+03  0.00000000000E+00 0.  1.
         21   -1    0    0  501  502 -0.00000000000E+00 -0.00000000000E+00 -0.41439161804E+03  0.41439161804E+03  0.00000000000E+00 0.  1.
         25    1    1    2    0    0  0.20575685160E+03 -0.10087118111E+03 -0.90972537059E+02  0.27642698793E+03  0.12500000000E+03 0.  0.
         25    1    1    2    0    0 -0.51283265526E+02 -0.38281358137E+02 -0.79528498476E+01  0.14065448277E+03  0.12500000000E+03 0.  0.
         25    1    1    2    0    0 -0.15447358607E+03  0.13915253925E+03 -0.62310563767E+02  0.25046581470E+03  0.12500000000E+03 0.  0.
</event>
<event>
 5    0  0.5742667E-005  0.3743155E+03  0.7546771E-02  0.1053055E+00
         21   -1    0    0  502  501  0.00000000000E+00  0.00000000000E+00  0.26095847423E+04  0.26095847423E+04  0.00000000000E+00 0.  1.
         21   -1    0    0  501  502 -0.00000000000E+00 -0.00000000000E+00 -0.53691346024E+02  0.53691346024E+02  0.00000000000E+00 0.  1.
         25    1    1    2    0    0  0.47179201154E+02  0.12358908017E+03  0.33909192266E+03  0.38484863228E+03  0.12500000000E+03 0.  0.
         25    1    1    2    0    0  0.42147064794E+02  0.23976672173E+01  0.18993357930E+04  0.19039127024E+04  0.12500000000E+03 0.  0.
         25    1    1    2    0    0 -0.89326265948E+02 -0.12598674739E+03  0.31746568062E+03  0.37451475362E+03  0.12500000000E+03 0.  0.
</event>
<event>
 5    0  0.5742667E-005  0.2639331E+03  0.7546771E-02  0.1104803E+00
         21   -1    0    0  502  501  0.00000000000E+00  0.00000000000E+00  0.13792386841E+03  0.13792386841E+03  0.00000000000E+00 0.  1.
         21   -1    0    0  501  502 -0.00000000000E+00 -0.00000000000E+00 -0.50506630751E+03  0.50506630751E+03  0.00000000000E+00 0.  1.
         25    1    1    2    0    0 -0.29526070150E+02 -0.19541677191E+02 -0.22829567666E+03  0.26267390801E+03  0.12500000000E+03 0.  0.
         25    1    1    2    0    0  0.10051074134E+03 -0.79264145535E+02 -0.58186041392E+02  0.18813779340E+03  0.12500000000E+03 0.  0.
         25    1    1    2    0    0 -0.70984671187E+02  0.98805822726E+02 -0.80660721041E+02  0.19217847452E+03  0.12500000000E+03 0.  0.
</event>
<event>
 5    0  0.6248739E-005  0.3603541E+03  0.7546771E-02  0.1058444E+00
         21   -1    0    0  502  501  0.00000000000E+00  0.00000000000E+00  0.48092662259E+03  0.48092662259E+03  0.00000000000E+00 0. -1.
         21   -1    0    0  501  502 -0.00000000000E+00 -0.00000000000E+00 -0.27001014527E+03  0.27001014527E+03  0.00000000000E+00 0. -1.
         25    1    1    2    0    0  0.10927260827E+02  0.21856063138E+03  0.50704690163E+02  0.25706831820E+03  0.12500000000E+03 0.  0.
         25    1    1    2    0    0 -0.10654496544E+03 -0.17748467138E+03 -0.29912011874E+02  0.24366445512E+03  0.12500000000E+03 0.  0.
         25    1    1    2    0    0  0.95617704609E+02 -0.41075960000E+02  0.19012379904E+03  0.25020399454E+03  0.12500000000E+03 0.  0.
</event>
<event>
 5    0  0.5742667E-005  0.2294598E+03  0.7546771E-02  0.1127021E+00
         21   -1    0    0  502  501  0.00000000000E+00  0.00000000000E+00  0.10603421338E+03  0.10603421338E+03  0.00000000000E+00 0. -1.
         21   -1    0    0  501  502 -0.00000000000E+00 -0.00000000000E+00 -0.49655494918E+03  0.49655494918E+03  0.00000000000E+00 0. -1.
         25    1    1    2    0    0  0.85010150526E+02 -0.39032038417E+02 -0.24741715638E+03  0.29255849840E+03  0.12500000000E+03 0.  0.
         25    1    1    2    0    0 -0.59634516509E+02  0.36650706385E+02 -0.10249041586E+03  0.17615003599E+03  0.12500000000E+03 0.  0.
         25    1    1    2    0    0 -0.25375634018E+02  0.23813320317E+01 -0.40613163565E+02  0.13388062817E+03  0.12500000000E+03 0.  0.
</event>
<event>
 5    0  0.5742667E-005  0.2994418E+03  0.7546771E-02  0.1085520E+00
         21   -1    0    0  502  501  0.00000000000E+00  0.00000000000E+00  0.54611192036E+03  0.54611192036E+03  0.00000000000E+00 0.  1.
         21   -1    0    0  501  502 -0.00000000000E+00 -0.00000000000E+00 -0.16418865720E+03  0.16418865720E+03  0.00000000000E+00 0.  1.
         25    1    1    2    0    0  0.14798218181E+03  0.37023101768E+02  0.17792176915E+03  0.26561361436E+03  0.12500000000E+03 0.  0.
         25    1    1    2    0    0  0.43177995305E+02 -0.78157026804E+02  0.34879695602E+02  0.15752604001E+03  0.12500000000E+03 0.  0.
         25    1    1    2    0    0 -0.19116017712E+03  0.41133925036E+02  0.16912179841E+03  0.28716092318E+03  0.12500000000E+03 0.  0.
</event>
<event>
 5    0  0.5742667E-005  0.3863037E+03  0.7546771E-02  0.1048628E+00
         21   -1    0    0  502  501  0.00000000000E+00  0.00000000000E+00  0.79012815142E+03  0.79012815142E+03  0.00000000000E+00 0. -1.
         21   -1    0    0  501  502 -0.00000000000E+00 -0.00000000000E+00 -0.18886881253E+03  0.18886881253E+03  0.00000000000E+00 0. -1.
         25    1    1    2    0    0 -0.12194461886E+03  0.83207603890E+02  0.54043149437E+03  0.57400800998E+03  0.12500000000E+03 0.  0.
         25    1    1    2    0    0  0.19882563237E+03 -0.29732498991E+02 -0.17339163483E+01  0.23673542204E+03  0.12500000000E+03 0.  0.
         25    1    1    2    0    0 -0.76881013509E+02 -0.53475104899E+02  0.62561760872E+02  0.16825353193E+03  0.12500000000E+03 0.  0.
</event>
<event>
 5    0  0.5742667E-005  0.3224408E+03  0.7546771E-02  0.1074531E+00
         21   -1    0    0  502  501  0.00000000000E+00  0.00000000000E+00  0.67694486989E+03  0.67694486989E+03  0.00000000000E+00 0. -1.
         21   -1    0    0  501  502 -0.00000000000E+00 -0.00000000000E+00 -0.15358424273E+03  0.15358424273E+03  0.00000000000E+00 0. -1.
         25    1    1    2    0    0  0.17625837031E+03 -0.74650738568E+02  0.42368475322E+03  0.48142861983E+03  0.12500000000E+03 0.  0.
         25    1    1    2    0    0 -0.12501648033E+03  0.82952485763E+02  0.32397970720E+02  0.19795167025E+03  0.12500000000E+03 0.  0.
         25    1    1    2    0    0 -0.51241889986E+02 -0.83017471949E+01  0.67277903215E+02  0.15114882255E+03  0.12500000000E+03 0.  0.
</event>
<event>
 5    0  0.5742667E-005  0.4338616E+03  0.7546771E-02  0.1032647E+00
         21   -1    0    0  502  501  0.00000000000E+00  0.00000000000E+00  0.44081612480E+03  0.44081612480E+03  0.00000000000E+00 0.  1.
         21   -1    0    0  501  502 -0.00000000000E+00 -0.00000000000E+00 -0.42701675870E+03  0.42701675870E+03  0.00000000000E+00 0.  1.
         25    1    1    2    0    0 -0.57136879835E+02  0.16508410303E+03  0.24678430858E+03  0.32717713714E+03  0.12500000000E+03 0.  0.
         25    1    1    2    0    0  0.37957290127E+01 -0.26442579682E+03 -0.58687513314E+02  0.29833644397E+03  0.12500000000E+03 0.  0.
         25    1    1    2    0    0  0.53341150823E+02  0.99341693794E+02 -0.17429742916E+03  0.24231930238E+03  0.12500000000E+03 0.  0.
</event>
<event>
 5    0  0.5742667E-005  0.6930936E+03  0.7546771E-02  0.9729116E-01
         21   -1    0    0  502  501  0.00000000000E+00  0.00000000000E+00  0.36782167607E+03  0.36782167607E+03  0.00000000000E+00 0. -1.
         21   -1    0    0  501  502 -0.00000000000E+00 -0.00000000000E+00 -0.13060099499E+04  0.13060099499E+04  0.00000000000E+00 0. -1.
         25    1    1    2    0    0 -0.80368804622E+02 -0.26323836589E+03 -0.29587808799E+02  0.30373346944E+03  0.12500000000E+03 0.  0.
         25    1    1    2    0    0  0.74159237249E+02 -0.23960985315E+03  0.45927866337E+02  0.28398387825E+03  0.12500000000E+03 0.  0.
         25    1    1    2    0    0  0.62095673729E+01  0.50284821904E+03 -0.95452833140E+03  0.10861142783E+04  0.12500000000E+03 0.  0.
</event>
<event>
 5    0  0.5742667E-005  0.2270285E+03  0.7546771E-02  0.1128749E+00
         21   -1    0    0  502  501  0.00000000000E+00  0.00000000000E+00  0.37399661662E+02  0.37399661662E+02  0.00000000000E+00 0. -1.
         21   -1    0    0  501  502 -0.00000000000E+00 -0.00000000000E+00 -0.13781397191E+04  0.13781397191E+04  0.00000000000E+00 0. -1.
         25    1    1    2    0    0  0.65716856937E+02  0.91770195235E+00 -0.32111834859E+03  0.35080128458E+03  0.12500000000E+03 0.  0.
         25    1    1    2    0    0  0.34348105081E+02 -0.28748043459E+02 -0.60505937814E+03  0.61945790285E+03  0.12500000000E+03 0.  0.
         25    1    1    2    0    0 -0.10006496202E+03  0.27830341507E+02 -0.41456233070E+03  0.44528019333E+03  0.12500000000E+03 0.  0.
</event>
<event>
 5    0  0.5742667E-005  0.2958064E+03  0.7546771E-02  0.1087356E+00
         21   -1    0    0  502  501  0.00000000000E+00  0.00000000000E+00  0.67857167618E+03  0.67857167618E+03  0.00000000000E+00 0.  1.
         21   -1    0    0  501  502 -0.00000000000E+00 -0.00000000000E+00 -0.12894942241E+03  0.12894942241E+03  0.00000000000E+00 0.  1.
         25    1    1    2    0    0 -0.72919824443E+02  0.79435565073E+02  0.17228781289E+03  0.23861140012E+03  0.12500000000E+03 0.  0.
         25    1    1    2    0    0  0.11070307192E+03 -0.15181816236E+02  0.38830889992E+03  0.42295916994E+03  0.12500000000E+03 0.  0.
         25    1    1    2    0    0 -0.37783247481E+02 -0.64253748838E+02 -0.10974459037E+02  0.14595052854E+03  0.12500000000E+03 0.  0.
</event>
<event>
 5    0  0.5742667E-005  0.2408815E+03  0.7546771E-02  0.1119207E+00
         21   -1    0    0  502  501  0.00000000000E+00  0.00000000000E+00  0.13658662455E+03  0.13658662455E+03  0.00000000000E+00 0.  1.
         21   -1    0    0  501  502 -0.00000000000E+00 -0.00000000000E+00 -0.42481391770E+03  0.42481391770E+03  0.00000000000E+00 0.  1.
         25    1    1    2    0    0  0.54804825538E+02 -0.31454500055E+02 -0.10194029482E+03  0.17323330564E+03  0.12500000000E+03 0.  0.
         25    1    1    2    0    0 -0.13265460759E+03  0.44257462548E+02 -0.13728983572E+03  0.23244239479E+03  0.12500000000E+03 0.  0.
         25    1    1    2    0    0  0.77849782053E+02 -0.12802962494E+02 -0.48997162615E+02  0.15572484182E+03  0.12500000000E+03 0.  0.
</event>
<event>
 5    0  0.5742667E-005  0.3816168E+03  0.7546771E-02  0.1050338E+00
         21   -1    0    0  502  501  0.00000000000E+00  0.00000000000E+00  0.34481681986E+03  0.34481681986E+03  0.00000000000E+00 0. -1.
         21   -1    0    0  501  502 -0.00000000000E+00 -0.00000000000E+00 -0.42234426316E+03  0.42234426316E+03  0.00000000000E+00 0. -1.
         25    1    1    2    0    0 -0.19017774810E+02 -0.18594093431E+03 -0.23108997311E+03  0.32243337682E+03  0.12500000000E+03 0.  0.
         25    1    1    2    0    0 -0.37679801951E+02  0.23320291066E+02 -0.57913683703E+02  0.14471557694E+03  0.12500000000E+03 0.  0.
         25    1    1    2    0    0  0.56697576761E+02  0.16262064325E+03  0.21147621351E+03  0.30001212926E+03  0.12500000000E+03 0.  0.
</event>
<event>
 5    0  0.5742667E-005  0.5379897E+03  0.7546771E-02  0.1004313E+00
         21   -1    0    0  502  501  0.00000000000E+00  0.00000000000E+00  0.16298004364E+04  0.16298004364E+04  0.00000000000E+00 0. -1.
         21   -1    0    0  501  502 -0.00000000000E+00 -0.00000000000E+00 -0.17758795386E+03  0.17758795386E+03  0.00000000000E+00 0. -1.
         25    1    1    2    0    0  0.22277895202E+03 -0.31591869039E+03  0.86626290161E+03  0.95680274619E+03  0.12500000000E+03 0.  0.
         25    1    1    2    0    0  0.54050953392E+02  0.27856136663E+03  0.27829873304E+03  0.41664508320E+03  0.12500000000E+03 0.  0.
         25    1    1    2    0    0 -0.27682990541E+03  0.37357323760E+02  0.30765084791E+03  0.43394056090E+03  0.12500000000E+03 0.  0.
</event>
<event>
 5    0  0.5742667E-005  0.3192410E+03  0.7546771E-02  0.1075999E+00
         21   -1    0    0  502  501  0.00000000000E+00  0.00000000000E+00  0.32247873032E+03  0.32247873032E+03  0.00000000000E+00 0.  1.
         21   -1    0    0  501  502 -0.00000000000E+00 -0.00000000000E+00 -0.31603580213E+03  0.31603580213E+03  0.00000000000E+00 0.  1.
         25    1    1    2    0    0 -0.10960463430E+03 -0.70075713069E+02  0.13339071562E+02  0.18090525767E+03  0.12500000000E+03 0.  0.
         25    1    1    2    0    0  0.20125727566E+03 -0.39147822317E+02  0.74266234260E+02  0.25135138064E+03  0.12500000000E+03 0.  0.
         25    1    1    2    0    0 -0.91652641361E+02  0.10922353539E+03 -0.81162377631E+02  0.20625789414E+03  0.12500000000E+03 0.  0.
</event>
<event>
 5    0  0.5742667E-005  0.3317004E+03  0.7546771E-02  0.1070387E+00
         21   -1    0    0  502  501  0.00000000000E+00  0.00000000000E+00  0.29117853987E+03  0.29117853987E+03  0.00000000000E+00 0.  1.
         21   -1    0    0  501  502 -0.00000000000E+00 -0.00000000000E+00 -0.37786140572E+03  0.37786140572E+03  0.00000000000E+00 0.  1.
         25    1    1    2    0    0  0.60833643185E+02  0.35653483858E+02 -0.11068473704E+03  0.18124021096E+03  0.12500000000E+03 0.  0.
         25    1    1    2    0    0 -0.98725947795E+02  0.44423717724E+02 -0.17228114639E+03  0.23880132509E+03  0.12500000000E+03 0.  0.
         25    1    1    2    0    0  0.37892304609E+02 -0.80077201581E+02  0.19628301758E+03  0.24899840954E+03  0.12500000000E+03 0.  0.
</event>
<event>
 5    0  0.5824982E-005  0.3063600E+03  0.7546771E-02  0.1082104E+00
         21   -1    0    0  502  501  0.00000000000E+00  0.00000000000E+00  0.14682556201E+03  0.14682556201E+03  0.00000000000E+00 0. -1.
         21   -1    0    0  501  502 -0.00000000000E+00 -0.00000000000E+00 -0.63923781922E+03  0.63923781922E+03  0.00000000000E+00 0. -1.
         25    1    1    2    0    0  0.13768866681E+03 -0.25608271990E+02 -0.16372842879E+03  0.24909024661E+03  0.12500000000E+03 0.  0.
         25    1    1    2    0    0 -0.10645488229E+03  0.10124920708E+03 -0.19871227665E+02  0.19391727511E+03  0.12500000000E+03 0.  0.
         25    1    1    2    0    0 -0.31233784521E+02 -0.75640935089E+02 -0.30881260075E+03  0.34305585950E+03  0.12500000000E+03 0.  0.
</event>
<event>
 5    0  0.5742667E-005  0.4209427E+03  0.7546771E-02  0.1036760E+00
         21   -1    0    0  502  501  0.00000000000E+00  0.00000000000E+00  0.18424410845E+03  0.18424410845E+03  0.00000000000E+00 0.  1.
         21   -1    0    0  501  502 -0.00000000000E+00 -0.00000000000E+00 -0.96172843206E+03  0.96172843206E+03  0.00000000000E+00 0.  1.
         25    1    1    2    0    0  0.38562737990E+02  0.30051312657E+03 -0.32641121425E+03  0.46256297386E+03  0.12500000000E+03 0.  0.
         25    1    1    2    0    0  0.12888031652E+03 -0.11287064282E+03 -0.29123811456E+03  0.36027011723E+03  0.12500000000E+03 0.  0.
         25    1    1    2    0    0 -0.16744305451E+03 -0.18764248375E+03 -0.15983499480E+03  0.32313944943E+03  0.12500000000E+03 0.  0.
</event>
<event>
 5    0  0.5742667E-005  0.2279089E+03  0.7546771E-02  0.1128120E+00
         21   -1    0    0  502  501  0.00000000000E+00  0.00000000000E+00  0.20140956018E+03  0.20140956018E+03  0.00000000000E+00 0.  1.
         21   -1    0    0  501  502 -0.00000000000E+00 -0.00000000000E+00 -0.25789484536E+03  0.25789484536E+03  0.00000000000E+00 0.  1.
         25    1    1    2    0    0  0.18059909543E+02 -0.34654134163E+02 -0.10853244719E+03  0.17009221452E+03  0.12500000000E+03 0.  0.
         25    1    1    2    0    0 -0.19745284810E+02  0.56435143234E+02  0.78978589972E+02  0.15949112620E+03  0.12500000000E+03 0.  0.
         25    1    1    2    0    0  0.16853752660E+01 -0.21781009071E+02 -0.26931427956E+02  0.12972106482E+03  0.12500000000E+03 0.  0.
</event>
<event>
 5    0  0.5742667E-005  0.3070433E+03  0.7546771E-02  0.1081772E+00
         21   -1    0    0  502  501  0.00000000000E+00  0.00000000000E+00  0.26788282665E+03  0.26788282665E+03  0.00000000000E+00 0. -1.
         21   -1    0    0  501  502 -0.00000000000E+00 -0.00000000000E+00 -0.35192838521E+03  0.35192838521E+03  0.00000000000E+00 0. -1.
         25    1    1    2    0    0  0.65992456021E+02  0.13547880750E+03 -0.48166552686E+02  0.20162968118E+03  0.12500000000E+03 0.  0.
         25    1    1    2    0    0 -0.43917470338E+02 -0.14245291935E+03  0.11095759279E+03  0.22396018805E+03  0.12500000000E+03 0.  0.
         25    1    1    2    0    0 -0.22074985684E+02  0.69741118532E+01 -0.14683659866E+03  0.19422134264E+03  0.12500000000E+03 0.  0.
</event>
<event>
 5    0  0.5742667E-005  0.2809472E+03  0.7546771E-02  0.1095173E+00
         21   -1    0    0  502  501  0.00000000000E+00  0.00000000000E+00  0.21821448363E+03  0.21821448363E+03  0.00000000000E+00 0.  1.
         21   -1    0    0  501  502 -0.00000000000E+00 -0.00000000000E+00 -0.36171440874E+03  0.36171440874E+03  0.00000000000E+00 0.  1.
         25    1    1    2    0    0  0.61857967191E+02 -0.80121554458E+02 -0.16369048218E+03  0.22948953255E+03  0.12500000000E+03 0.  0.
         25    1    1    2    0    0 -0.14297701686E+03  0.32733783351E+02  0.22733314999E+02  0.19405084781E+03  0.12500000000E+03 0.  0.
         25    1    1    2    0    0  0.81119049672E+02  0.47387771107E+02 -0.25427579182E+01  0.15638851201E+03  0.12500000000E+03 0.  0.
</event>
<event>
 5    0  0.5742667E-005  0.2951399E+03  0.7546771E-02  0.1087696E+00
         21   -1    0    0  502  501  0.00000000000E+00  0.00000000000E+00  0.14696549282E+04  0.14696549282E+04  0.00000000000E+00 0. -1.
         21   -1    0    0  501  502 -0.00000000000E+00 -0.00000000000E+00 -0.59270767732E+02  0.59270767732E+02  0.00000000000E+00 0. -1.
         25    1    1    2    0    0 -0.61334905769E+02 -0.78469800758E+02  0.88804835891E+03  0.90231611316E+03  0.12500000000E+03 0.  0.
         25    1    1    2    0    0  0.43245494415E+02 -0.63488653271E+02  0.15743936626E+03  0.21520486967E+03  0.12500000000E+03 0.  0.
         25    1    1    2    0    0  0.18089411354E+02  0.14195845403E+03  0.36489643529E+03  0.41140471310E+03  0.12500000000E+03 0.  0.
</event>
<event>
 5    0  0.5742667E-005  0.2228553E+03  0.7546771E-02  0.1131772E+00
         21   -1    0    0  502  501  0.00000000000E+00  0.00000000000E+00  0.30521047652E+03  0.30521047652E+03  0.00000000000E+00 0. -1.
         21   -1    0    0  501  502 -0.00000000000E+00 -0.00000000000E+00 -0.16272201645E+03  0.16272201645E+03  0.00000000000E+00 0. -1.
         25    1    1    2    0    0 -0.70159928410E+01 -0.59048045910E+02  0.50429093605E+02  0.14732273878E+03  0.12500000000E+03 0.  0.
         25    1    1    2    0    0 -0.68962394825E+02  0.30020930457E+02  0.90101151256E+02  0.17146511489E+03  0.12500000000E+03 0.  0.
         25    1    1    2    0    0  0.75978387666E+02  0.29027115453E+02  0.19582152048E+01  0.14914463930E+03  0.12500000000E+03 0.  0.
</event>
<event>
 5    0  0.5742667E-005  0.2766676E+03  0.7546771E-02  0.1097523E+00
         21   -1    0    0  502  501  0.00000000000E+00  0.00000000000E+00  0.41722099444E+03  0.41722099444E+03  0.00000000000E+00 0. -1.
         21   -1    0    0  501  502 -0.00000000000E+00 -0.00000000000E+00 -0.18346384528E+03  0.18346384528E+03  0.00000000000E+00 0. -1.
         25    1    1    2    0    0 -0.71630883562E+02  0.11152413621E+03  0.73234655958E+02  0.19635918942E+03  0.12500000000E+03 0.  0.
         25    1    1    2    0    0  0.11723974196E+03 -0.66792416311E+02 -0.90885849585E+01  0.18415750419E+03  0.12500000000E+03 0.  0.
         25    1    1    2    0    0 -0.45608858400E+02 -0.44731719896E+02  0.16961107816E+03  0.22016814612E+03  0.12500000000E+03 0.  0.
</event>
<event>
 5    0  0.5742667E-005  0.2561399E+03  0.7546771E-02  0.1109485E+00
         21   -1    0    0  502  501  0.00000000000E+00  0.00000000000E+00  0.13278559383E+03  0.13278559383E+03  0.00000000000E+00 0.  1.
         21   -1    0    0  501  502 -0.00000000000E+00 -0.00000000000E+00 -0.49408712682E+03  0.49408712682E+03  0.00000000000E+00 0.  1.
         25    1    1    2    0    0 -0.51389083047E+02  0.57856324432E+02  0.25309285615E+02  0.14917691534E+03  0.12500000000E+03 0.  0.
         25    1    1    2    0    0 -0.19756783602E+02 -0.44634990403E+02 -0.21440900374E+03  0.25294037588E+03  0.12500000000E+03 0.  0.
         25    1    1    2    0    0  0.71145866649E+02 -0.13221334029E+02 -0.17220181487E+03  0.22475542943E+03  0.12500000000E+03 0.  0.
</event>
<event>
 5    0  0.5742667E-005  0.3230052E+03  0.7546771E-02  0.1074274E+00
         21   -1    0    0  502  501  0.00000000000E+00  0.00000000000E+00  0.52530923351E+03  0.52530923351E+03  0.00000000000E+00 0. -1.
         21   -1    0    0  501  502 -0.00000000000E+00 -0.00000000000E+00 -0.19861127697E+03  0.19861127697E+03  0.00000000000E+00 0. -1.
         25    1    1    2    0    0  0.16835744389E+03 -0.17703275887E+03  0.15463296367E+03  0.31499393657E+03  0.12500000000E+03 0.  0.
         25    1    1    2    0    0 -0.21926149733E+02  0.36696110536E+02  0.50224284460E+02  0.14133237181E+03  0.12500000000E+03 0.  0.
         25    1    1    2    0    0 -0.14643129415E+03  0.14033664833E+03  0.12184070841E+03  0.26759420210E+03  0.12500000000E+03 0.  0.
</event>
<event>
 5    0  0.5742667E-005  0.2503118E+03  0.7546771E-02  0.1113108E+00
         21   -1    0    0  502  501  0.00000000000E+00  0.00000000000E+00  0.26222177566E+03  0.26222177566E+03  0.00000000000E+00 0.  1.
         21   -1    0    0  501  502 -0.00000000000E+00 -0.00000000000E+00 -0.23894280111E+03  0.23894280111E+03  0.00000000000E+00 0.  1.
         25    1    1    2    0    0  0.10692403645E+02 -0.88388004026E+02 -0.10388710200E+03  0.18532214307E+03  0.12500000000E+03 0.  0.
         25    1    1    2    0    0 -0.20465292952E+02  0.76230431729E+02  0.11869670036E+03  0.18958853766E+03  0.12500000000E+03 0.  0.
         25    1    1    2    0    0  0.97728893065E+01  0.12157572297E+02  0.84693761850E+01  0.12625389603E+03  0.12500000000E+03 0.  0.
</event>
<event>
 5    0  0.5742667E-005  0.4907432E+03  0.7546771E-02  0.1016224E+00
         21   -1    0    0  502  501  0.00000000000E+00  0.00000000000E+00  0.24405892438E+04  0.24405892438E+04  0.00000000000E+00 0.  1.
         21   -1    0    0  501  502 -0.00000000000E+00 -0.00000000000E+00 -0.98676537863E+02  0.98676537863E+02  0.00000000000E+00 0.  1.
         25    1    1    2    0    0  0.40078958111E+02 -0.28539270061E+03  0.13471906715E+04  0.13833304094E+04  0.12500000000E+03 0.  0.
         25    1    1    2    0    0  0.19152831066E+03  0.18499516888E+03  0.38702024906E+03  0.48612342000E+03  0.12500000000E+03 0.  0.
         25    1    1    2    0    0 -0.23160726877E+03  0.10039753173E+03  0.60770178542E+03  0.66981195221E+03  0.12500000000E+03 0.  0.
</event>
<event>
 5    0  0.5742667E-005  0.5391547E+03  0.7546771E-02  0.1004036E+00
         21   -1    0    0  502  501  0.00000000000E+00  0.00000000000E+00  0.41202936992E+03  0.41202936992E+03  0.00000000000E+00 0.  1.
         21   -1    0    0  501  502 -0.00000000000E+00 -0.00000000000E+00 -0.70550263074E+03  0.70550263074E+03  0.00000000000E+00 0.  1.
         25    1    1    2    0    0 -0.42207212839E+03  0.32993304666E+00 -0.14059638814E+03  0.46210100062E+03  0.12500000000E+03 0.  0.
         25    1    1    2    0    0  0.41227682983E+03 -0.17805106838E+02 -0.24769907163E+03  0.49726153716E+03  0.12500000000E+03 0.  0.
         25    1    1    2    0    0  0.97952985561E+01  0.17475173792E+02  0.94822198957E+02  0.15816946288E+03  0.12500000000E+03 0.  0.
</event>
<event>
 5    0  0.5742667E-005  0.4528828E+03  0.7546771E-02  0.1026866E+00
         21   -1    0    0  502  501  0.00000000000E+00  0.00000000000E+00  0.23296389575E+03  0.23296389575E+03  0.00000000000E+00 0. -1.
         21   -1    0    0  501  502 -0.00000000000E+00 -0.00000000000E+00 -0.88040592150E+03  0.88040592150E+03  0.00000000000E+00 0. -1.
         25    1    1    2    0    0  0.79292057257E+02 -0.22334325594E+02 -0.64642661695E+03  0.66353479453E+03  0.12500000000E+03 0.  0.
         25    1    1    2    0    0 -0.20860012946E+03 -0.45040500801E+01 -0.73485897501E+02  0.25408557143E+03  0.12500000000E+03 0.  0.
         25    1    1    2    0    0  0.12930807221E+03  0.26838375674E+02  0.72470488698E+02  0.19574945129E+03  0.12500000000E+03 0.  0.
</event>
<event>
 5    0  0.5742667E-005  0.3444690E+03  0.7546771E-02  0.1064908E+00
         21   -1    0    0  502  501  0.00000000000E+00  0.00000000000E+00  0.16656379143E+04  0.16656379143E+04  0.00000000000E+00 0. -1.
         21   -1    0    0  501  502 -0.00000000000E+00 -0.00000000000E+00 -0.71239307235E+02  0.71239307235E+02  0.00000000000E+00 0. -1.
         25    1    1    2    0    0  0.38152264174E+02  0.93506257759E+02  0.10329713213E+04  0.10453964637E+04  0.12500000000E+03 0.  0.
         25    1    1    2    0    0 -0.14808678063E+03 -0.68727670532E+02  0.17504225960E+03  0.27003329413E+03  0.12500000000E+03 0.  0.
         25    1    1    2    0    0  0.10993451645E+03 -0.24778587227E+02  0.38638502612E+03  0.42144746375E+03  0.12500000000E+03 0.  0.
</event>
<event>
 5    0  0.5742667E-005  0.5273881E+03  0.7546771E-02  0.1006868E+00
         21   -1    0    0  502  501  0.00000000000E+00  0.00000000000E+00  0.13092971980E+04  0.13092971980E+04  0.00000000000E+00 0.  1.
         21   -1    0    0  501  502 -0.00000000000E+00 -0.00000000000E+00 -0.21243318972E+03  0.21243318972E+03  0.00000000000E+00 0.  1.
         25    1    1    2    0    0  0.16470601892E+03 -0.35414845875E+03  0.76242406832E+03  0.86571627191E+03  0.12500000000E+03 0.  0.
         25    1    1    2    0    0 -0.19116622624E+03  0.91522840760E+02  0.55692810442E+02  0.25228485006E+03  0.12500000000E+03 0.  0.
         25    1    1    2    0    0  0.26460207322E+02  0.26262561799E+03  0.27874712951E+03  0.40372926573E+03  0.12500000000E+03 0.  0.
</event>
<event>
 5    0  0.5742667E-005  0.2332450E+03  0.7546771E-02  0.1124376E+00
         21   -1    0    0  502  501  0.00000000000E+00  0.00000000000E+00  0.40560228581E+02  0.40560228581E+02  0.00000000000E+00 0. -1.
         21   -1    0    0  501  502 -0.00000000000E+00 -0.00000000000E+00 -0.13412955211E+04  0.13412955211E+04  0.00000000000E+00 0. -1.
         25    1    1    2    0    0 -0.78814302697E+02  0.38686452600E+01 -0.38649951477E+03  0.41380374049E+03  0.12500000000E+03 0.  0.
         25    1    1    2    0    0  0.49396279807E+02  0.34865757060E+02 -0.21410792915E+03  0.25519172948E+03  0.12500000000E+03 0.  0.
         25    1    1    2    0    0  0.29418022890E+02 -0.38734402320E+02 -0.70012784858E+03  0.71286027968E+03  0.12500000000E+03 0.  0.
</event>
<event>
 5    0  0.5742667E-005  0.2246255E+03  0.7546771E-02  0.1130481E+00
         21   -1    0    0  502  501  0.00000000000E+00  0.00000000000E+00  0.11173162951E+04  0.11173162951E+04  0.00000000000E+00 0. -1.
         21   -1    0    0  501  502 -0.00000000000E+00 -0.00000000000E+00 -0.45158772655E+02  0.45158772655E+02  0.00000000000E+00 0. -1.
         25    1    1    2    0    0  0.18336419990E+02  0.66830844040E+02  0.34427545927E+03  0.37276423899E+03  0.12500000000E+03 0.  0.
         25    1    1    2    0    0 -0.87021831494E+02 -0.19736894832E+02  0.31723343063E+03  0.35245481084E+03  0.12500000000E+03 0.  0.
         25    1    1    2    0    0  0.68685411504E+02 -0.47093949208E+02  0.41064863257E+03  0.43725601796E+03  0.12500000000E+03 0.  0.
</event>
<event>
 5    0  0.5742667E-005  0.3182890E+03  0.7546771E-02  0.1076439E+00
         21   -1    0    0  502  501  0.00000000000E+00  0.00000000000E+00  0.17293160654E+04  0.17293160654E+04  0.00000000000E+00 0.  1.
         21   -1    0    0  501  502 -0.00000000000E+00 -0.00000000000E+00 -0.58582635815E+02  0.58582635815E+02  0.00000000000E+00 0.  1.
         25    1    1    2    0    0 -0.45345328744E+02  0.10966433525E+02  0.19047229585E+03  0.23255355725E+03  0.12500000000E+03 0.  0.
         25    1    1    2    0    0  0.97016743065E+02  0.16021667013E+03  0.46177310745E+03  0.51375191736E+03  0.12500000000E+03 0.  0.
         25    1    1    2    0    0 -0.51671414321E+02 -0.17118310365E+03  0.10184880263E+04  0.10415932266E+04  0.12500000000E+03 0.  0.
</event>
<event>
 5    0  0.5742667E-005  0.2705058E+03  0.7546771E-02  0.1100990E+00
         21   -1    0    0  502  501  0.00000000000E+00  0.00000000000E+00  0.12483906490E+03  0.12483906490E+03  0.00000000000E+00 0.  1.
         21   -1    0    0  501  502 -0.00000000000E+00 -0.00000000000E+00 -0.58614177479E+03  0.58614177479E+03  0.00000000000E+00 0.  1.
         25    1    1    2    0    0  0.81038792836E+02  0.49189752431E+02 -0.16230760925E+02  0.15771922929E+03  0.12500000000E+03 0.  0.
         25    1    1    2    0    0 -0.12723592475E+03 -0.27214370216E+02 -0.17528189904E+03  0.25155187661E+03  0.12500000000E+03 0.  0.
         25    1    1    2    0    0  0.46197131917E+02 -0.21975382215E+02 -0.26979004993E+03  0.30170973379E+03  0.12500000000E+03 0.  0.
</event>
<event>
 5    0  0.5794724E-005  0.3351673E+03  0.7546771E-02  0.1068873E+00
         21   -1    0    0  502  501  0.00000000000E+00  0.00000000000E+00  0.20997714706E+03  0.20997714706E+03  0.00000000000E+00 0. -1.
         21   -1    0    0  501  502 -0.00000000000E+00 -0.00000000000E+00 -0.53499692253E+03  0.53499692253E+03  0.00000000000E+00 0. -1.
         25    1    1    2    0    0  0.45731503040E+02  0.40857185421E+02 -0.17509149139E+03  0.22370228056E+03  0.12500000000E+03 0.  0.
         25    1    1    2    0    0  0.16193266339E+03  0.65294881192E+02 -0.14026745240E+03  0.25648697274E+03  0.12500000000E+03 0.  0.
         25    1    1    2    0    0 -0.20766416644E+03 -0.10615206661E+03 -0.96608316790E+01  0.26478481629E+03  0.12500000000E+03 0.  0.
</event>
<event>
 5    0  0.5742667E-005  0.3124125E+03  0.7546771E-02  0.1079195E+00
         21   -1    0    0  502  501  0.00000000000E+00  0.00000000000E+00  0.51619944253E+02  0.51619944253E+02  0.00000000000E+00 0.  1.
         21   -1    0    0  501  502 -0.00000000000E+00 -0.00000000000E+00 -0.18907722699E+04  0.18907722699E+04  0.00000000000E+00 0.  1.
         25    1    1    2    0    0 -0.40738420746E+02 -0.93297522163E+02 -0.84809563451E+03  0.86328167584E+03  0.12500000000E+03 0.  0.
         25    1    1    2    0    0  0.16613620306E+03  0.36857717702E+02 -0.32463428416E+03  0.38726237588E+03  0.12500000000E+03 0.  0.
         25    1    1    2    0    0 -0.12539778231E+03  0.56439804460E+02 -0.66642240693E+03  0.69184816239E+03  0.12500000000E+03 0.  0.
</event>
<event>
 5    0  0.5742667E-005  0.2978980E+03  0.7546771E-02  0.1086296E+00
         21   -1    0    0  502  501  0.00000000000E+00  0.00000000000E+00  0.20588311519E+03  0.20588311519E+03  0.00000000000E+00 0. -1.
         21   -1    0    0  501  502 -0.00000000000E+00 -0.00000000000E+00 -0.43103689161E+03  0.43103689161E+03  0.00000000000E+00 0. -1.
         25    1    1    2    0    0 -0.11971192226E+03  0.29906560226E+02 -0.18492586142E+03  0.25504493897E+03  0.12500000000E+03 0.  0.
         25    1    1    2    0    0  0.12113274820E+03  0.96867079063E+02 -0.43099218053E+02  0.20381098177E+03  0.12500000000E+03 0.  0.
         25    1    1    2    0    0 -0.14208259410E+01 -0.12677363929E+03  0.28713030536E+01  0.17806408607E+03  0.12500000000E+03 0.  0.
</event>
<event>
 5    0  0.5859059E-005  0.2762841E+03  0.7546771E-02  0.1097736E+00
         21   -1    0    0  502  501  0.00000000000E+00  0.00000000000E+00  0.51226015343E+03  0.51226015343E+03  0.00000000000E+00 0.  1.
         21   -1    0    0  501  502 -0.00000000000E+00 -0.00000000000E+00 -0.14901193571E+03  0.14901193571E+03  0.00000000000E+00 0.  1.
         25    1    1    2    0    0  0.12317220877E+03 -0.54513043457E+02  0.66566915610E+02  0.19544620532E+03  0.12500000000E+03 0.  0.
         25    1    1    2    0    0  0.31624503159E+01 -0.21827446678E+02  0.22728870483E+03  0.26032977905E+03  0.12500000000E+03 0.  0.
         25    1    1    2    0    0 -0.12633465908E+03  0.76340490135E+02  0.69392597283E+02  0.20549610477E+03  0.12500000000E+03 0.  0.
</event>
<event>
 5    0  0.5742667E-005  0.4865738E+03  0.7546771E-02  0.1017344E+00
         21   -1    0    0  502  501  0.00000000000E+00  0.00000000000E+00  0.13254744469E+03  0.13254744469E+03  0.00000000000E+00 0. -1.
         21   -1    0    0  501  502 -0.00000000000E+00 -0.00000000000E+00 -0.17861835101E+04  0.17861835101E+04  0.00000000000E+00 0. -1.
         25    1    1    2    0    0  0.59368486045E+02 -0.24993502726E+03 -0.35279961859E+03  0.45396553378E+03  0.12500000000E+03 0.  0.
         25    1    1    2    0    0 -0.21437881778E+03 -0.10193552441E+03 -0.48571063847E+03  0.55487742157E+03  0.12500000000E+03 0.  0.
         25    1    1    2    0    0  0.15501033174E+03  0.35187055167E+03 -0.81512580838E+03  0.90988799946E+03  0.12500000000E+03 0.  0.
</event>
<event>
 5    0  0.5742667E-005  0.2978493E+03  0.7546771E-02  0.1086321E+00
         21   -1    0    0  502  501  0.00000000000E+00  0.00000000000E+00  0.45339810131E+03  0.45339810131E+03  0.00000000000E+00 0. -1.
         21   -1    0    0  501  502 -0.00000000000E+00 -0.00000000000E+00 -0.19566513514E+03  0.19566513514E+03  0.00000000000E+00 0. -1.
         25    1    1    2    0    0 -0.11343818743E+01  0.16046610256E+02  0.26706392420E+02  0.12882939074E+03  0.12500000000E+03 0.  0.
         25    1    1    2    0    0 -0.15947150465E+03 -0.11108683973E+03  0.17179330987E+03  0.28793990357E+03  0.12500000000E+03 0.  0.
         25    1    1    2    0    0  0.16060588652E+03  0.95040229475E+02  0.59233263887E+02  0.23229394214E+03  0.12500000000E+03 0.  0.
</event>
<event>
 5    0  0.5742667E-005  0.2429963E+03  0.7546771E-02  0.1117813E+00
         21   -1    0    0  502  501  0.00000000000E+00  0.00000000000E+00  0.51450970956E+03  0.51450970956E+03  0.00000000000E+00 0.  1.
         21   -1    0    0  501  502 -0.00000000000E+00 -0.00000000000E+00 -0.11476405187E+03  0.11476405187E+03  0.00000000000E+00 0.  1.
         25    1    1    2    0    0 -0.10571270517E+02  0.26766985195E+01  0.12277282749E+02  0.12607397887E+03  0.12500000000E+03 0.  0.
         25    1    1    2    0    0 -0.82269662968E+02 -0.29565436078E+02  0.12669797166E+03  0.19829217957E+03  0.12500000000E+03 0.  0.
         25    1    1    2    0    0  0.92840933485E+02  0.26888737558E+02  0.26077040327E+03  0.30490760299E+03  0.12500000000E+03 0.  0.
</event>
<event>
 5    0  0.5742667E-005  0.2513234E+03  0.7546771E-02  0.1112471E+00
         21   -1    0    0  502  501  0.00000000000E+00  0.00000000000E+00  0.29445400684E+03  0.29445400684E+03  0.00000000000E+00 0.  1.
         21   -1    0    0  501  502 -0.00000000000E+00 -0.00000000000E+00 -0.21451033032E+03  0.21451033032E+03  0.00000000000E+00 0.  1.
         25    1    1    2    0    0  0.80594609449E+02  0.21329190732E+01  0.14401203054E+03  0.20703744916E+03  0.12500000000E+03 0.  0.
         25    1    1    2    0    0  0.16306272171E+00  0.15536383237E+02 -0.83034923860E+02  0.15086816886E+03  0.12500000000E+03 0.  0.
         25    1    1    2    0    0 -0.80757672171E+02 -0.17669302310E+02  0.18966569836E+02  0.15105871915E+03  0.12500000000E+03 0.  0.
</event>
<event>
 5    0  0.5742667E-005  0.4455254E+03  0.7546771E-02  0.1029065E+00
         21   -1    0    0  502  501  0.00000000000E+00  0.00000000000E+00  0.50516898953E+03  0.50516898953E+03  0.00000000000E+00 0. -1.
         21   -1    0    0  501  502 -0.00000000000E+00 -0.00000000000E+00 -0.39292368631E+03  0.39292368631E+03  0.00000000000E+00 0. -1.
         25    1    1    2    0    0 -0.12421273103E+02  0.58108117440E+02  0.42737164731E+02  0.14485270652E+03  0.12500000000E+03 0.  0.
         25    1    1    2    0    0 -0.25765660257E+03 -0.20299305117E+03  0.19224480561E+03  0.40022015061E+03  0.12500000000E+03 0.  0.
         25    1    1    2    0    0  0.27007787567E+03  0.14488493373E+03 -0.12273666712E+03  0.35301981871E+03  0.12500000000E+03 0.  0.
</event>
<event>
 5    0  0.5742667E-005  0.3686721E+03  0.7546771E-02  0.1055202E+00
         21   -1    0    0  502  501  0.00000000000E+00  0.00000000000E+00  0.32427976084E+03  0.32427976084E+03  0.00000000000E+00 0.  1.
         21   -1    0    0  501  502 -0.00000000000E+00 -0.00000000000E+00 -0.41914150708E+03  0.41914150708E+03  0.00000000000E+00 0.  1.
         25    1    1    2    0    0  0.17982035505E+03 -0.39197248772E+02  0.68144944036E+02  0.23268115050E+03  0.12500000000E+03 0.  0.
         25    1    1    2    0    0 -0.26384692810E+03  0.33306556398E+02 -0.20009742681E+03  0.35551161497E+03  0.12500000000E+03 0.  0.
         25    1    1    2    0    0  0.84026573046E+02  0.58906923737E+01  0.37090736529E+02  0.15522850244E+03  0.12500000000E+03 0.  0.
</event>
<event>
 5    0  0.5742667E-005  0.3303461E+03  0.7546771E-02  0.1070984E+00
         21   -1    0    0  502  501  0.00000000000E+00  0.00000000000E+00  0.70808885918E+03  0.70808885918E+03  0.00000000000E+00 0. -1.
         21   -1    0    0  501  502 -0.00000000000E+00 -0.00000000000E+00 -0.15411697516E+03  0.15411697516E+03  0.00000000000E+00 0. -1.
         25    1    1    2    0    0 -0.87678248234E+02 -0.59560743984E+02  0.11352864575E+03  0.19937078734E+03  0.12500000000E+03 0.  0.
         25    1    1    2    0    0  0.11455233303E+03  0.53057249967E+02 -0.25631686088E+02  0.17949733176E+03  0.12500000000E+03 0.  0.
         25    1    1    2    0    0 -0.26874084794E+02  0.65034940171E+01  0.46607492436E+03  0.48333771525E+03  0.12500000000E+03 0.  0.
</event>
<event>
 5    0  0.5742667E-005  0.2742824E+03  0.7546771E-02  0.1098853E+00
         21   -1    0    0  502  501  0.00000000000E+00  0.00000000000E+00  0.49462079229E+02  0.49462079229E+02  0.00000000000E+00 0. -1.
         21   -1    0    0  501  502 -0.00000000000E+00 -0.00000000000E+00 -0.15209802953E+04  0.15209802953E+04  0.00000000000E+00 0. -1.
         25    1    1    2    0    0  0.58873405290E+02 -0.54711870326E+02 -0.65330985063E+03  0.66999867727E+03  0.12500000000E+03 0.  0.
         25    1    1    2    0    0  0.13049089647E+02  0.12420330195E+03 -0.22541441108E+03  0.28641472672E+03  0.12500000000E+03 0.  0.
         25    1    1    2    0    0 -0.71922494937E+02 -0.69491431627E+02 -0.59279395437E+03  0.61402897055E+03  0.12500000000E+03 0.  0.
</event>
<event>
 5    0  0.5742667E-005  0.2836088E+03  0.7546771E-02  0.1093734E+00
         21   -1    0    0  502  501  0.00000000000E+00  0.00000000000E+00  0.12715684788E+04  0.12715684788E+04  0.00000000000E+00 0.  1.
         21   -1    0    0  501  502 -0.00000000000E+00 -0.00000000000E+00 -0.63255679633E+02  0.63255679633E+02  0.00000000000E+00 0.  1.
         25    1    1    2    0    0  0.15845986853E+03  0.96177005466E+02  0.49431862469E+03  0.54252691089E+03  0.12500000000E+03 0.  0.
         25    1    1    2    0    0 -0.14410609445E+03 -0.21846606607E+02  0.33534170501E+03  0.38642321333E+03  0.12500000000E+03 0.  0.
         25    1    1    2    0    0 -0.14353774083E+02 -0.74330398859E+02  0.37865246945E+03  0.40587403421E+03  0.12500000000E+03 0.  0.
</event>
<event>
 5    0  0.5742667E-005  0.2894412E+03  0.7546771E-02  0.1090641E+00
         21   -1    0    0  502  501  0.00000000000E+00  0.00000000000E+00  0.29253196649E+03  0.29253196649E+03  0.00000000000E+00 0. -1.
         21   -1    0    0  501  502 -0.00000000000E+00 -0.00000000000E+00 -0.28638317969E+03  0.28638317969E+03  0.00000000000E+00 0. -1.
         25    1    1    2    0    0 -0.46829462194E+00 -0.43103992445E+02 -0.72155449187E+01  0.13242068401E+03  0.12500000000E+03 0.  0.
         25    1    1    2    0    0  0.16378420009E+03  0.10500925558E+03 -0.76663080309E+00  0.23125266632E+03  0.12500000000E+03 0.  0.
         25    1    1    2    0    0 -0.16331590547E+03 -0.61905263131E+02  0.14130962519E+02  0.21524179586E+03  0.12500000000E+03 0.  0.
</event>
<event>
 5    0  0.5742667E-005  0.7220120E+03  0.7546771E-02  0.9680312E-01
         21   -1    0    0  502  501  0.00000000000E+00  0.00000000000E+00  0.59451445019E+03  0.59451445019E+03  0.00000000000E+00 0. -1.
         21   -1    0    0  501  502 -0.00000000000E+00 -0.00000000000E+00 -0.87685214216E+03  0.87685214216E+03  0.00000000000E+00 0. -1.
         25    1    1    2    0    0 -0.15608098989E+03 -0.39994790789E+03  0.69519328963E+02  0.45252352594E+03  0.12500000000E+03 0.  0.
         25    1    1    2    0    0 -0.78774667223E+02 -0.15402338859E+03 -0.34329952441E+03  0.40423782095E+03  0.12500000000E+03 0.  0.
         25    1    1    2    0    0  0.23485565712E+03  0.55397129648E+03 -0.85574965201E+01  0.61460524546E+03  0.12500000000E+03 0.  0.
</event>
<event>
 5    0  0.5742667E-005  0.3834370E+03  0.7546771E-02  0.1049671E+00
         21   -1    0    0  502  501  0.00000000000E+00  0.00000000000E+00  0.55305423312E+03  0.55305423312E+03  0.00000000000E+00 0.  1.
         21   -1    0    0  501  502 -0.00000000000E+00 -0.00000000000E+00 -0.26584001665E+03  0.26584001665E+03  0.00000000000E+00 0.  1.
         25    1    1    2    0    0 -0.99673122336E+02  0.93010826712E+02  0.33098800552E+03  0.37916197726E+03  0.12500000000E+03 0.  0.
         25    1    1    2    0    0  0.19226309454E+03 -0.11172783055E+03 -0.98962263398E+02  0.27361786348E+03  0.12500000000E+03 0.  0.
         25    1    1    2    0    0 -0.92589972204E+02  0.18717003835E+02  0.55188474348E+02  0.16611440903E+03  0.12500000000E+03 0.  0.
</event>
<event>
 5    0  0.5742667E-005  0.3756244E+03  0.7546771E-02  0.1052563E+00
         21   -1    0    0  502  501  0.00000000000E+00  0.00000000000E+00  0.19703910206E+03  0.19703910206E+03  0.00000000000E+00 0.  1.
         21   -1    0    0  501  502 -0.00000000000E+00 -0.00000000000E+00 -0.71606965740E+03  0.71606965740E+03  0.00000000000E+00 0.  1.
         25    1    1    2    0    0  0.55873824099E+02  0.11912647272E+03 -0.47376353712E+02  0.18757003922E+03  0.12500000000E+03 0.  0.
         25    1    1    2    0    0 -0.26531321822E+03 -0.77366838570E+02 -0.24368386143E+03  0.38908039760E+03  0.12500000000E+03 0.  0.
         25    1    1    2    0    0  0.20943939413E+03 -0.41759634154E+02 -0.22797034020E+03  0.33645832263E+03  0.12500000000E+03 0.  0.
</event>
<event>
 5    0  0.5742667E-005  0.2441130E+03  0.7546771E-02  0.1117083E+00
         21   -1    0    0  502  501  0.00000000000E+00  0.00000000000E+00  0.47443249726E+03  0.47443249726E+03  0.00000000000E+00 0.  1.
         21   -1    0    0  501  502 -0.00000000000E+00 -0.00000000000E+00 -0.12560511395E+03  0.12560511395E+03  0.00000000000E+00 0.  1.
         25    1    1    2    0    0 -0.61805837125E+02 -0.39280036843E+00  0.18941951336E+03  0.23521238878E+03  0.12500000000E+03 0.  0.
         25    1    1    2    0    0 -0.28069057454E+02 -0.71781626349E+02  0.12154344367E+03  0.19062602804E+03  0.12500000000E+03 0.  0.
         25    1    1    2    0    0  0.89874894578E+02  0.72174426717E+02  0.37864426284E+02  0.17419919439E+03  0.12500000000E+03 0.  0.
</event>
<event>
 5    0  0.5742667E-005  0.3696536E+03  0.7546771E-02  0.1054825E+00
         21   -1    0    0  502  501  0.00000000000E+00  0.00000000000E+00  0.34920625211E+03  0.34920625211E+03  0.00000000000E+00 0.  1.
         21   -1    0    0  501  502 -0.00000000000E+00 -0.00000000000E+00 -0.39129829291E+03  0.39129829291E+03  0.00000000000E+00 0.  1.
         25    1    1    2    0    0 -0.29263437948E+02 -0.18860822350E+03  0.68372122211E+02  0.23817883589E+03  0.12500000000E+03 0.  0.
         25    1    1    2    0    0  0.10521057898E+03  0.24460040714E+03  0.25060463409E+02  0.29521458624E+03  0.12500000000E+03 0.  0.
         25    1    1    2    0    0 -0.75947141034E+02 -0.55992183639E+02 -0.13552462642E+03  0.20711112289E+03  0.12500000000E+03 0.  0.
</event>
<event>
 5    0  0.5814864E-005  0.3853399E+03  0.7546771E-02  0.1048978E+00
         21   -1    0    0  502  501  0.00000000000E+00  0.00000000000E+00  0.73356936302E+03  0.73356936302E+03  0.00000000000E+00 0. -1.
         21   -1    0    0  501  502 -0.00000000000E+00 -0.00000000000E+00 -0.20241687629E+03  0.20241687629E+03  0.00000000000E+00 0. -1.
         25    1    1    2    0    0 -0.63314727689E+02  0.14919288149E+03  0.12398991870E+03  0.23930267564E+03  0.12500000000E+03 0.  0.
         25    1    1    2    0    0  0.17098848700E+03 -0.15082060620E+03  0.28825711528E+01  0.26003312703E+03  0.12500000000E+03 0.  0.
         25    1    1    2    0    0 -0.10767375931E+03  0.16277247002E+01  0.40427999688E+03  0.43665043663E+03  0.12500000000E+03 0.  0.
</event>
<event>
 5    0  0.5742667E-005  0.5170056E+03  0.7546771E-02  0.1009433E+00
         21   -1    0    0  502  501  0.00000000000E+00  0.00000000000E+00  0.21028420216E+04  0.21028420216E+04  0.00000000000E+00 0. -1.
         21   -1    0    0  501  502 -0.00000000000E+00 -0.00000000000E+00 -0.12711123113E+03  0.12711123113E+03  0.00000000000E+00 0. -1.
         25    1    1    2    0    0  0.11023842977E+00  0.11221217649E+03 -0.40555105546E+02  0.17280422822E+03  0.12500000000E+03 0.  0.
         25    1    1    2    0    0 -0.66368141462E+02 -0.19725308937E+03  0.12272328183E+04  0.12510151485E+04  0.12500000000E+03 0.  0.
         25    1    1    2    0    0  0.66257903032E+02  0.85040912873E+02  0.78905307767E+03  0.80613387595E+03  0.12500000000E+03 0.  0.
</event>
<event>
 5    0  0.5742667E-005  0.2570060E+03  0.7546771E-02  0.1108956E+00
         21   -1    0    0  502  501  0.00000000000E+00  0.00000000000E+00  0.96015757898E+02  0.96015757898E+02  0.00000000000E+00 0.  1.
         21   -1    0    0  501  502 -0.00000000000E+00 -0.00000000000E+00 -0.68792938741E+03  0.68792938741E+03  0.00000000000E+00 0.  1.
         25    1    1    2    0    0  0.21946430801E+02 -0.12749975084E+03 -0.13141649271E+03  0.22278493407E+03  0.12500000000E+03 0.  0.
         25    1    1    2    0    0 -0.72346197783E+02  0.37411719720E+02 -0.28856830582E+03  0.32485423844E+03  0.12500000000E+03 0.  0.
         25    1    1    2    0    0  0.50399766982E+02  0.90088031121E+02 -0.17192883098E+03  0.23630597281E+03  0.12500000000E+03 0.  0.
</event>
<event>
 5    0  0.5742667E-005  0.2531793E+03  0.7546771E-02  0.1111312E+00
         21   -1    0    0  502  501  0.00000000000E+00  0.00000000000E+00  0.27009857220E+03  0.27009857220E+03  0.00000000000E+00 0. -1.
         21   -1    0    0  501  502 -0.00000000000E+00 -0.00000000000E+00 -0.23731979239E+03  0.23731979239E+03  0.00000000000E+00 0. -1.
         25    1    1    2    0    0  0.13099546096E+03  0.10339702159E+02  0.85312295471E+02  0.20042431986E+03  0.12500000000E+03 0.  0.
         25    1    1    2    0    0 -0.73228550383E+02  0.47476776577E+02 -0.36719755645E+02  0.15681136872E+03  0.12500000000E+03 0.  0.
         25    1    1    2    0    0 -0.57766910575E+02 -0.57816478736E+02 -0.15813760016E+02  0.15018267602E+03  0.12500000000E+03 0.  0.
</event>
<event>
 5    0  0.5742667E-005  0.2549170E+03  0.7546771E-02  0.1110236E+00
         21   -1    0    0  502  501  0.00000000000E+00  0.00000000000E+00  0.60025800624E+03  0.60025800624E+03  0.00000000000E+00 0. -1.
         21   -1    0    0  501  502 -0.00000000000E+00 -0.00000000000E+00 -0.10825790720E+03  0.10825790720E+03  0.00000000000E+00 0. -1.
         25    1    1    2    0    0  0.95068165805E+02 -0.63392691616E+00  0.57145507770E+02  0.16711961905E+03  0.12500000000E+03 0.  0.
         25    1    1    2    0    0 -0.12040670677E+03 -0.21350500774E+02  0.15753730799E+03  0.23536487063E+03  0.12500000000E+03 0.  0.
         25    1    1    2    0    0  0.25338540960E+02  0.21984427691E+02  0.27731728328E+03  0.30603142375E+03  0.12500000000E+03 0.  0.
</event>
<event>
 5    0  0.5742667E-005  0.3113895E+03  0.7546771E-02  0.1079682E+00
         21   -1    0    0  502  501  0.00000000000E+00  0.00000000000E+00  0.58709644865E+03  0.58709644865E+03  0.00000000000E+00 0. -1.
         21   -1    0    0  501  502 -0.00000000000E+00 -0.00000000000E+00 -0.16515753194E+03  0.16515753194E+03  0.00000000000E+00 0. -1.
         25    1    1    2    0    0  0.17951362425E+03 -0.51554783927E+02  0.19182389779E+03  0.29547325564E+03  0.12500000000E+03 0.  0.
         25    1    1    2    0    0  0.24474386031E+02 -0.30150162689E+02  0.13114955106E+03  0.18529228971E+03  0.12500000000E+03 0.  0.
         25    1    1    2    0    0 -0.20398801028E+03  0.81704946616E+02  0.98965467850E+02  0.27148843523E+03  0.12500000000E+03 0.  0.
</event>
<event>
 5    0  0.5742667E-005  0.3208470E+03  0.7546771E-02  0.1075260E+00
         21   -1    0    0  502  501  0.00000000000E+00  0.00000000000E+00  0.94021461846E+02  0.94021461846E+02  0.00000000000E+00 0. -1.
         21   -1    0    0  501  502 -0.00000000000E+00 -0.00000000000E+00 -0.10948860698E+04  0.10948860698E+04  0.00000000000E+00 0. -1.
         25    1    1    2    0    0  0.19955252395E+03  0.11068002575E+03 -0.55838108373E+03  0.61602411688E+03  0.12500000000E+03 0.  0.
         25    1    1    2    0    0 -0.12063910564E+03 -0.10466261349E+03 -0.17806671708E+03  0.26989037071E+03  0.12500000000E+03 0.  0.
         25    1    1    2    0    0 -0.78913418305E+02 -0.60174122656E+01 -0.26441680710E+03  0.30299304401E+03  0.12500000000E+03 0.  0.
</event>
<event>
 5    0  0.5742667E-005  0.2909886E+03  0.7546771E-02  0.1089834E+00
         21   -1    0    0  502  501  0.00000000000E+00  0.00000000000E+00  0.10627297009E+03  0.10627297009E+03  0.00000000000E+00 0.  1.
         21   -1    0    0  501  502 -0.00000000000E+00 -0.00000000000E+00 -0.79676306500E+03  0.79676306500E+03  0.00000000000E+00 0.  1.
         25    1    1    2    0    0 -0.74254899470E+02  0.12083375410E+03 -0.86180202297E+02  0.20776576593E+03  0.12500000000E+03 0.  0.
         25    1    1    2    0    0  0.64726768480E+02  0.32894946637E+02 -0.27977018004E+03  0.31490948813E+03  0.12500000000E+03 0.  0.
         25    1    1    2    0    0  0.95281309900E+01 -0.15372870074E+03 -0.32453971257E+03  0.38036078103E+03  0.12500000000E+03 0.  0.
</event>
<event>
 5    0  0.5742667E-005  0.2518662E+03  0.7546771E-02  0.1112131E+00
         21   -1    0    0  502  501  0.00000000000E+00  0.00000000000E+00  0.23425658846E+03  0.23425658846E+03  0.00000000000E+00 0.  1.
         21   -1    0    0  501  502 -0.00000000000E+00 -0.00000000000E+00 -0.27079965151E+03  0.27079965151E+03  0.00000000000E+00 0.  1.
         25    1    1    2    0    0  0.74142804002E+02 -0.65347166415E+02  0.18041485638E+02  0.16036802283E+03  0.12500000000E+03 0.  0.
         25    1    1    2    0    0  0.61859715891E+02  0.14589150267E+02  0.14650909128E+02  0.14099332216E+03  0.12500000000E+03 0.  0.
         25    1    1    2    0    0 -0.13600251989E+03  0.50758016149E+02 -0.69235457814E+02  0.20369489498E+03  0.12500000000E+03 0.  0.
</event>
<event>
 5    0  0.5742667E-005  0.3010435E+03  0.7546771E-02  0.1084720E+00
         21   -1    0    0  502  501  0.00000000000E+00  0.00000000000E+00  0.23612135173E+04  0.23612135173E+04  0.00000000000E+00 0. -1.
         21   -1    0    0  501  502 -0.00000000000E+00 -0.00000000000E+00 -0.38381619667E+02  0.38381619667E+02  0.00000000000E+00 0. -1.
         25    1    1    2    0    0  0.32796785372E+02  0.71080194406E+02  0.42748091533E+03  0.45220897397E+03  0.12500000000E+03 0.  0.
         25    1    1    2    0    0 -0.97592524485E+02 -0.18107694717E+03  0.14056268414E+04  0.14260872971E+04  0.12500000000E+03 0.  0.
         25    1    1    2    0    0  0.64795739113E+02  0.10999675277E+03  0.48972414096E+03  0.52129886598E+03  0.12500000000E+03 0.  0.
</event>
<event>
 5    0  0.5742667E-005  0.2135231E+03  0.7546771E-02  0.1138806E+00
         21   -1    0    0  502  501  0.00000000000E+00  0.00000000000E+00  0.25307119019E+03  0.25307119019E+03  0.00000000000E+00 0. -1.
         21   -1    0    0  501  502 -0.00000000000E+00 -0.00000000000E+00 -0.18015521135E+03  0.18015521135E+03  0.00000000000E+00 0. -1.
         25    1    1    2    0    0 -0.57000429962E+02 -0.21996661365E+01  0.75264388193E+02  0.15666402164E+03  0.12500000000E+03 0.  0.
         25    1    1    2    0    0 -0.10093213974E+02 -0.32176191105E+02  0.11251013681E+02  0.12995678340E+03  0.12500000000E+03 0.  0.
         25    1    1    2    0    0  0.67093643936E+02  0.34375857242E+02 -0.13599423030E+02  0.14660559650E+03  0.12500000000E+03 0.  0.
</event>
<event>
 5    0  0.5742667E-005  0.3631147E+03  0.7546771E-02  0.1057357E+00
         21   -1    0    0  502  501  0.00000000000E+00  0.00000000000E+00  0.80770363149E+03  0.80770363149E+03  0.00000000000E+00 0.  1.
         21   -1    0    0  501  502 -0.00000000000E+00 -0.00000000000E+00 -0.16324342873E+03  0.16324342873E+03  0.00000000000E+00 0.  1.
         25    1    1    2    0    0  0.16774948865E+03 -0.82097680804E+02  0.82274503536E+02  0.23931989902E+03  0.12500000000E+03 0.  0.
         25    1    1    2    0    0 -0.12466881881E+03 -0.10941818429E+03  0.14298216318E+03  0.25215779271E+03  0.12500000000E+03 0.  0.
         25    1    1    2    0    0 -0.43080669833E+02  0.19151586509E+03  0.41920353603E+03  0.47946936849E+03  0.12500000000E+03 0.  0.
</event>
<event>
 5    0  0.5742667E-005  0.3966760E+03  0.7546771E-02  0.1044937E+00
         21   -1    0    0  502  501  0.00000000000E+00  0.00000000000E+00  0.40462818763E+03  0.40462818763E+03  0.00000000000E+00 0.  1.
         21   -1    0    0  501  502 -0.00000000000E+00 -0.00000000000E+00 -0.38888004834E+03  0.38888004834E+03  0.00000000000E+00 0.  1.
         25    1    1    2    0    0 -0.17955626512E+03  0.40705628455E+02  0.24658265814E+03  0.33215268752E+03  0.12500000000E+03 0.  0.
         25    1    1    2    0    0  0.90613096531E+02 -0.22775669359E+02 -0.26088697611E+03  0.30400078730E+03  0.12500000000E+03 0.  0.
         25    1    1    2    0    0  0.88943168589E+02 -0.17929959096E+02  0.30052457258E+02  0.15735476116E+03  0.12500000000E+03 0.  0.
</event>
<event>
 5    0  0.5742667E-005  0.3056524E+03  0.7546771E-02  0.1082449E+00
         21   -1    0    0  502  501  0.00000000000E+00  0.00000000000E+00  0.14519647845E+04  0.14519647845E+04  0.00000000000E+00 0.  1.
         21   -1    0    0  501  502 -0.00000000000E+00 -0.00000000000E+00 -0.64342746272E+02  0.64342746272E+02  0.00000000000E+00 0.  1.
         25    1    1    2    0    0 -0.17735187481E+03 -0.71520410437E+02  0.41935510010E+03  0.47754848612E+03  0.12500000000E+03 0.  0.
         25    1    1    2    0    0  0.14567529732E+03  0.37151576401E+02  0.80236872007E+03  0.82584629007E+03  0.12500000000E+03 0.  0.
         25    1    1    2    0    0  0.31676577495E+02  0.34368834037E+02  0.16589821809E+03  0.21291275462E+03  0.12500000000E+03 0.  0.
</event>
<event>
 5    0  0.5742667E-005  0.3821468E+03  0.7546771E-02  0.1050143E+00
         21   -1    0    0  502  501  0.00000000000E+00  0.00000000000E+00  0.36187072884E+03  0.36187072884E+03  0.00000000000E+00 0. -1.
         21   -1    0    0  501  502 -0.00000000000E+00 -0.00000000000E+00 -0.40355888500E+03  0.40355888500E+03  0.00000000000E+00 0. -1.
         25    1    1    2    0    0 -0.20310726923E+03  0.76079937604E+02 -0.23200601950E+03  0.34130999517E+03  0.12500000000E+03 0.  0.
         25    1    1    2    0    0  0.10959943914E+03  0.54145113400E+02  0.73547443508E+02  0.18967856181E+03  0.12500000000E+03 0.  0.
         25    1    1    2    0    0  0.93507830089E+02 -0.13022505100E+03  0.11677041983E+03  0.23444105687E+03  0.12500000000E+03 0.  0.
</event>
<event>
 5    0  0.5742667E-005  0.2306847E+03  0.7546771E-02  0.1126159E+00
         21   -1    0    0  502  501  0.00000000000E+00  0.00000000000E+00  0.72380459200E+03  0.72380459200E+03  0.00000000000E+00 0.  1.
         21   -1    0    0  501  502 -0.00000000000E+00 -0.00000000000E+00 -0.73521836535E+02  0.73521836535E+02  0.00000000000E+00 0.  1.
         25    1    1    2    0    0  0.82693019700E+02 -0.12194134595E+02  0.12029397713E+03  0.19256810057E+03  0.12500000000E+03 0.  0.
         25    1    1    2    0    0 -0.10412168971E+03  0.20876597827E+02  0.30790330657E+03  0.34886473712E+03  0.12500000000E+03 0.  0.
         25    1    1    2    0    0  0.21428670008E+02 -0.86824632318E+01  0.22208547177E+03  0.25589359084E+03  0.12500000000E+03 0.  0.
</event>
<event>
 5    0  0.5742667E-005  0.4121043E+03  0.7546771E-02  0.1039667E+00
         21   -1    0    0  502  501  0.00000000000E+00  0.00000000000E+00  0.84852936749E+02  0.84852936749E+02  0.00000000000E+00 0. -1.
         21   -1    0    0  501  502 -0.00000000000E+00 -0.00000000000E+00 -0.20014620788E+04  0.20014620788E+04  0.00000000000E+00 0. -1.
         25    1    1    2    0    0 -0.80487381693E+02  0.17207881061E+03 -0.31716363245E+03  0.39026542945E+03  0.12500000000E+03 0.  0.
         25    1    1    2    0    0 -0.47891509235E+02  0.14231847243E+03 -0.69371939380E+03  0.72070780597E+03  0.12500000000E+03 0.  0.
         25    1    1    2    0    0  0.12837889093E+03 -0.31439728305E+03 -0.90572611577E+03  0.97534178010E+03  0.12500000000E+03 0.  0.
</event>
<event>
 5    0  0.5742667E-005  0.2854435E+03  0.7546771E-02  0.1092752E+00
         21   -1    0    0  502  501  0.00000000000E+00  0.00000000000E+00  0.10547680648E+03  0.10547680648E+03  0.00000000000E+00 0.  1.
         21   -1    0    0  501  502 -0.00000000000E+00 -0.00000000000E+00 -0.77247302506E+03  0.77247302506E+03  0.00000000000E+00 0.  1.
         25    1    1    2    0    0  0.30894297893E+02  0.89130305367E+02 -0.21363379143E+03  0.26488311728E+03  0.12500000000E+03 0.  0.
         25    1    1    2    0    0  0.36054153070E+02 -0.17411439344E+03 -0.13931606361E+03  0.25816601158E+03  0.12500000000E+03 0.  0.
         25    1    1    2    0    0 -0.66948450963E+02  0.84984088072E+02 -0.31404636353E+03  0.35490070268E+03  0.12500000000E+03 0.  0.
</event>
<event>
 5    0  0.6274869E-005  0.2577438E+03  0.7546771E-02  0.1108506E+00
         21   -1    0    0  502  501  0.00000000000E+00  0.00000000000E+00  0.45993418568E+03  0.45993418568E+03  0.00000000000E+00 0.  1.
         21   -1    0    0  501  502 -0.00000000000E+00 -0.00000000000E+00 -0.14443781073E+03  0.14443781073E+03  0.00000000000E+00 0.  1.
         25    1    1    2    0    0  0.46257906672E+02  0.25413547966E+02 -0.93019397971E+01  0.13600429564E+03  0.12500000000E+03 0.  0.
         25    1    1    2    0    0  0.23380563621E+02  0.86169289581E+02  0.12138482543E+03  0.19578322979E+03  0.12500000000E+03 0.  0.
         25    1    1    2    0    0 -0.69638470293E+02 -0.11158283755E+03  0.20341348931E+03  0.27258447097E+03  0.12500000000E+03 0.  0.
</event>
<event>
 5    0  0.5966505E-005  0.4200055E+03  0.7546771E-02  0.1037064E+00
         21   -1    0    0  502  501  0.00000000000E+00  0.00000000000E+00  0.64602878082E+03  0.64602878082E+03  0.00000000000E+00 0. -1.
         21   -1    0    0  501  502 -0.00000000000E+00 -0.00000000000E+00 -0.27306005830E+03  0.27306005830E+03  0.00000000000E+00 0.  1.
         25    1    1    2    0    0 -0.27170914857E+02 -0.79206861010E+02  0.38653873985E+03  0.41478811802E+03  0.12500000000E+03 0.  0.
         25    1    1    2    0    0 -0.13989005496E+03  0.18500731530E+03 -0.48071754093E+02  0.26782984847E+03  0.12500000000E+03 0.  0.
         25    1    1    2    0    0  0.16706096981E+03 -0.10580045429E+03  0.34501736762E+02  0.23647087263E+03  0.12500000000E+03 0.  0.
</event>
<event>
 5    0  0.5742667E-005  0.2886515E+03  0.7546771E-02  0.1091055E+00
         21   -1    0    0  502  501  0.00000000000E+00  0.00000000000E+00  0.15980945169E+03  0.15980945169E+03  0.00000000000E+00 0. -1.
         21   -1    0    0  501  502 -0.00000000000E+00 -0.00000000000E+00 -0.52136885279E+03  0.52136885279E+03  0.00000000000E+00 0. -1.
         25    1    1    2    0    0 -0.61450811555E+02  0.13216082359E+02 -0.24088163995E+02  0.14197220403E+03  0.12500000000E+03 0.  0.
         25    1    1    2    0    0  0.55297650483E+02 -0.16741721493E+03 -0.13102203346E+03  0.25274122587E+03  0.12500000000E+03 0.  0.
         25    1    1    2    0    0  0.61531610721E+01  0.15420113257E+03 -0.20644920364E+03  0.28646487457E+03  0.12500000000E+03 0.  0.
</event>
<event>
 5    0  0.5742667E-005  0.3093157E+03  0.7546771E-02  0.1080674E+00
         21   -1    0    0  502  501  0.00000000000E+00  0.00000000000E+00  0.41372319639E+03  0.41372319639E+03  0.00000000000E+00 0.  1.
         21   -1    0    0  501  502 -0.00000000000E+00 -0.00000000000E+00 -0.23125660018E+03  0.23125660018E+03  0.00000000000E+00 0.  1.
         25    1    1    2    0    0  0.17996530548E+03  0.84449991054E+01  0.21344548009E+02  0.22031663331E+03  0.12500000000E+03 0.  0.
         25    1    1    2    0    0 -0.18647484880E+03 -0.64783196392E+02  0.16711794996E+03  0.28726841276E+03  0.12500000000E+03 0.  0.
         25    1    1    2    0    0  0.65095433268E+01  0.56338197286E+02 -0.59959017601E+01  0.13739475050E+03  0.12500000000E+03 0.  0.
</event>
<event>
 5    0  0.5742667E-005  0.2545271E+03  0.7546771E-02  0.1110477E+00
         21   -1    0    0  502  501  0.00000000000E+00  0.00000000000E+00  0.13984516205E+04  0.13984516205E+04  0.00000000000E+00 0. -1.
         21   -1    0    0  501  502 -0.00000000000E+00 -0.00000000000E+00 -0.46325569935E+02  0.46325569935E+02  0.00000000000E+00 0. -1.
         25    1    1    2    0    0 -0.50463749381E+01 -0.30012050628E+02  0.39576927505E+03  0.41615442826E+03  0.12500000000E+03 0.  0.
         25    1    1    2    0    0  0.49078035522E+02 -0.84154513215E+02  0.21611937581E+03  0.26799854527E+03  0.12500000000E+03 0.  0.
         25    1    1    2    0    0 -0.44031660584E+02  0.11416656384E+03  0.74023739975E+03  0.76062421696E+03  0.12500000000E+03 0.  0.
</event>
<event>
 5    0  0.5742667E-005  0.4844584E+03  0.7546771E-02  0.1017917E+00
         21   -1    0    0  502  501  0.00000000000E+00  0.00000000000E+00  0.14659237194E+04  0.14659237194E+04  0.00000000000E+00 0.  1.
         21   -1    0    0  501  502 -0.00000000000E+00 -0.00000000000E+00 -0.16010379241E+03  0.16010379241E+03  0.00000000000E+00 0.  1.
         25    1    1    2    0    0 -0.24079729098E+03  0.15761693323E+03  0.35340491358E+03  0.47259545694E+03  0.12500000000E+03 0.  0.
         25    1    1    2    0    0  0.26709186014E+03 -0.16576200239E+03  0.20590037956E+03  0.39602407690E+03  0.12500000000E+03 0.  0.
         25    1    1    2    0    0 -0.26294569160E+02  0.81450691580E+01  0.74651463384E+03  0.75740797795E+03  0.12500000000E+03 0.  0.
</event>
<event>
 5    0  0.5742667E-005  0.2875035E+03  0.7546771E-02  0.1091660E+00
         21   -1    0    0  502  501  0.00000000000E+00  0.00000000000E+00  0.15252249643E+03  0.15252249643E+03  0.00000000000E+00 0.  1.
         21   -1    0    0  501  502 -0.00000000000E+00 -0.00000000000E+00 -0.54194153059E+03  0.54194153059E+03  0.00000000000E+00 0.  1.
         25    1    1    2    0    0  0.22229213093E+02 -0.11989478763E+02 -0.15374894022E+03  0.19975390393E+03  0.12500000000E+03 0.  0.
         25    1    1    2    0    0  0.33532987801E+02  0.11281701796E+03 -0.27125490177E+03  0.32102392831E+03  0.12500000000E+03 0.  0.
         25    1    1    2    0    0 -0.55762200895E+02 -0.10082753920E+03  0.35584807837E+02  0.17368619478E+03  0.12500000000E+03 0.  0.
</event>
<event>
 5    0  0.5742667E-005  0.2593197E+03  0.7546771E-02  0.1107553E+00
         21   -1    0    0  502  501  0.00000000000E+00  0.00000000000E+00  0.86748677103E+02  0.86748677103E+02  0.00000000000E+00 0.  1.
         21   -1    0    0  501  502 -0.00000000000E+00 -0.00000000000E+00 -0.77518980410E+03  0.77518980410E+03  0.00000000000E+00 0.  1.
         25    1    1    2    0    0  0.88829320268E+01 -0.99373028830E+01 -0.15749045716E+03  0.20150905827E+03  0.12500000000E+03 0.  0.
         25    1    1    2    0    0 -0.73969977338E+02 -0.12876253718E+03 -0.24045308714E+03  0.30902109256E+03  0.12500000000E+03 0.  0.
         25    1    1    2    0    0  0.65087045311E+02  0.13869984007E+03 -0.29049758270E+03  0.35140833037E+03  0.12500000000E+03 0.  0.
</event>
<event>
 5    0  0.5742667E-005  0.5233289E+03  0.7546771E-02  0.1007863E+00
         21   -1    0    0  502  501  0.00000000000E+00  0.00000000000E+00  0.11476718327E+04  0.11476718327E+04  0.00000000000E+00 0. -1.
         21   -1    0    0  501  502 -0.00000000000E+00 -0.00000000000E+00 -0.23863366988E+03  0.23863366988E+03  0.00000000000E+00 0. -1.
         25    1    1    2    0    0 -0.38127496735E+02  0.23653636115E+03 -0.37660282958E+01  0.27026346242E+03  0.12500000000E+03 0.  0.
         25    1    1    2    0    0 -0.23138706617E+03 -0.19975050798E+03  0.58748171076E+03  0.67394361804E+03  0.12500000000E+03 0.  0.
         25    1    1    2    0    0  0.26951456290E+03 -0.36785853173E+02  0.32532248036E+03  0.44209842211E+03  0.12500000000E+03 0.  0.
</event>
<event>
 5    0  0.5742667E-005  0.3263042E+03  0.7546771E-02  0.1072784E+00
         21   -1    0    0  502  501  0.00000000000E+00  0.00000000000E+00  0.15827634294E+03  0.15827634294E+03  0.00000000000E+00 0. -1.
         21   -1    0    0  501  502 -0.00000000000E+00 -0.00000000000E+00 -0.67271208078E+03  0.67271208078E+03  0.00000000000E+00 0. -1.
         25    1    1    2    0    0  0.29764538781E+02  0.55664181639E+02 -0.68570589700E+02  0.15592098851E+03  0.12500000000E+03 0.  0.
         25    1    1    2    0    0 -0.14701245724E+03 -0.20348517601E+03 -0.23965049195E+03  0.36888512810E+03  0.12500000000E+03 0.  0.
         25    1    1    2    0    0  0.11724791846E+03  0.14782099438E+03 -0.20621465619E+03  0.30618230711E+03  0.12500000000E+03 0.  0.
</event>
<event>
 5    0  0.5742667E-005  0.2835292E+03  0.7546771E-02  0.1093777E+00
         21   -1    0    0  502  501  0.00000000000E+00  0.00000000000E+00  0.12186222189E+03  0.12186222189E+03  0.00000000000E+00 0.  1.
         21   -1    0    0  501  502 -0.00000000000E+00 -0.00000000000E+00 -0.65966953692E+03  0.65966953692E+03  0.00000000000E+00 0.  1.
         25    1    1    2    0    0 -0.40398654370E+02 -0.27953988288E+02 -0.16754319152E+03  0.21473052359E+03  0.12500000000E+03 0.  0.
         25    1    1    2    0    0 -0.21664603891E+02 -0.68731358341E+02  0.15708387177E+02  0.14513823793E+03  0.12500000000E+03 0.  0.
         25    1    1    2    0    0  0.62063258261E+02  0.96685346629E+02 -0.38597251068E+03  0.42166299729E+03  0.12500000000E+03 0.  0.
</event>
<event>
 5    0  0.5742667E-005  0.3119075E+03  0.7546771E-02  0.1079435E+00
         21   -1    0    0  502  501  0.00000000000E+00  0.00000000000E+00  0.88623380674E+02  0.88623380674E+02  0.00000000000E+00 0.  1.
         21   -1    0    0  501  502 -0.00000000000E+00 -0.00000000000E+00 -0.10977498161E+04  0.10977498161E+04  0.00000000000E+00 0.  1.
         25    1    1    2    0    0  0.10257678586E+03  0.49682982280E+02 -0.25633413957E+03  0.30711982488E+03  0.12500000000E+03 0.  0.
         25    1    1    2    0    0  0.60569615166E+02 -0.16710643821E+03 -0.37622558927E+03  0.43446971585E+03  0.12500000000E+03 0.  0.
         25    1    1    2    0    0 -0.16314640102E+03  0.11742345593E+03 -0.37656670658E+03  0.44478365603E+03  0.12500000000E+03 0.  0.
</event>
<event>
 5    0  0.5742667E-005  0.3424188E+03  0.7546771E-02  0.1065770E+00
         21   -1    0    0  502  501  0.00000000000E+00  0.00000000000E+00  0.23976568454E+03  0.23976568454E+03  0.00000000000E+00 0.  1.
         21   -1    0    0  501  502 -0.00000000000E+00 -0.00000000000E+00 -0.48902168332E+03  0.48902168332E+03  0.00000000000E+00 0.  1.
         25    1    1    2    0    0 -0.88370238158E+02  0.11498148133E+03 -0.12177469981E+03  0.22690111845E+03  0.12500000000E+03 0.  0.
         25    1    1    2    0    0 -0.90682934275E+02 -0.11483325136E+03  0.72630029313E+02  0.20569441253E+03  0.12500000000E+03 0.  0.
         25    1    1    2    0    0  0.17905317243E+03 -0.14822997195E+00 -0.20011132828E+03  0.29619183688E+03  0.12500000000E+03 0.  0.
</event>
<event>
 5    0  0.5742667E-005  0.2475020E+03  0.7546771E-02  0.1114894E+00
         21   -1    0    0  502  501  0.00000000000E+00  0.00000000000E+00  0.10190520455E+04  0.10190520455E+04  0.00000000000E+00 0. -1.
         21   -1    0    0  501  502 -0.00000000000E+00 -0.00000000000E+00 -0.60111965399E+02  0.60111965399E+02  0.00000000000E+00 0. -1.
         25    1    1    2    0    0 -0.20225142392E+02 -0.38131122174E+02  0.23411709282E+03  0.26888445848E+03  0.12500000000E+03 0.  0.
         25    1    1    2    0    0  0.93880052627E+02 -0.73193592449E+02  0.42989634598E+03  0.46325655370E+03  0.12500000000E+03 0.  0.
         25    1    1    2    0    0 -0.73654910235E+02  0.11132471462E+03  0.29492664127E+03  0.34702299869E+03  0.12500000000E+03 0.  0.
</event>
<event>
 5    0  0.5742667E-005  0.3248247E+03  0.7546771E-02  0.1073450E+00
         21   -1    0    0  502  501  0.00000000000E+00  0.00000000000E+00  0.38548488654E+03  0.38548488654E+03  0.00000000000E+00 0.  1.
         21   -1    0    0  501  502 -0.00000000000E+00 -0.00000000000E+00 -0.27371008386E+03  0.27371008386E+03  0.00000000000E+00 0.  1.
         25    1    1    2    0    0 -0.20748064601E+03  0.38617720596E+02  0.11571525808E+02  0.24555742103E+03  0.12500000000E+03 0.  0.
         25    1    1    2    0    0  0.51717438503E+02  0.72617570318E+02  0.10323006443E+03  0.18501202979E+03  0.12500000000E+03 0.  0.
         25    1    1    2    0    0  0.15576320751E+03 -0.11123529091E+03 -0.30267875565E+01  0.22862551958E+03  0.12500000000E+03 0.  0.
</event>
<event>
 5    0  0.5742667E-005  0.3007280E+03  0.7546771E-02  0.1084877E+00
         21   -1    0    0  502  501  0.00000000000E+00  0.00000000000E+00  0.23894030828E+03  0.23894030828E+03  0.00000000000E+00 0.  1.
         21   -1    0    0  501  502 -0.00000000000E+00 -0.00000000000E+00 -0.37849347126E+03  0.37849347126E+03  0.00000000000E+00 0.  1.
         25    1    1    2    0    0  0.27891066026E+02 -0.46198279221E+02  0.11272112174E+02  0.13661717710E+03  0.12500000000E+03 0.  0.
         25    1    1    2    0    0  0.80613447122E+02  0.97933072334E+02 -0.22941187856E+03  0.29042077153E+03  0.12500000000E+03 0.  0.
         25    1    1    2    0    0 -0.10850451315E+03 -0.51734793113E+02  0.78586603408E+02  0.19039583091E+03  0.12500000000E+03 0.  0.
</event>
<event>
 5    0  0.5742667E-005  0.4504975E+03  0.7546771E-02  0.1027574E+00
         21   -1    0    0  502  501  0.00000000000E+00  0.00000000000E+00  0.54599464680E+03  0.54599464680E+03  0.00000000000E+00 0.  1.
         21   -1    0    0  501  502 -0.00000000000E+00 -0.00000000000E+00 -0.37170332914E+03  0.37170332914E+03  0.00000000000E+00 0.  1.
         25    1    1    2    0    0 -0.89859243457E+02 -0.72405354305E+02  0.10086729179E+01  0.17012711832E+03  0.12500000000E+03 0.  0.
         25    1    1    2    0    0  0.34967990689E+03  0.18425242088E+03  0.63388790594E+02  0.41936634421E+03  0.12500000000E+03 0.  0.
         25    1    1    2    0    0 -0.25982066343E+03 -0.11184706657E+03  0.10989385415E+03  0.32820451342E+03  0.12500000000E+03 0.  0.
</event>
<event>
 5    0  0.5742667E-005  0.4334412E+03  0.7546771E-02  0.1032778E+00
         21   -1    0    0  502  501  0.00000000000E+00  0.00000000000E+00  0.19893619481E+03  0.19893619481E+03  0.00000000000E+00 0. -1.
         21   -1    0    0  501  502 -0.00000000000E+00 -0.00000000000E+00 -0.94437938450E+03  0.94437938450E+03  0.00000000000E+00 0. -1.
         25    1    1    2    0    0  0.58247129032E+02 -0.15290019927E+02 -0.49658987833E+03  0.51560936765E+03  0.12500000000E+03 0.  0.
         25    1    1    2    0    0  0.16732567719E+03 -0.13697872871E+03 -0.19591179356E+02  0.25053915597E+03  0.12500000000E+03 0.  0.
         25    1    1    2    0    0 -0.22557280622E+03  0.15226874864E+03 -0.22926213201E+03  0.37716705568E+03  0.12500000000E+03 0.  0.
</event>
<event>
 5    0  0.5742667E-005  0.3355008E+03  0.7546771E-02  0.1068729E+00
         21   -1    0    0  502  501  0.00000000000E+00  0.00000000000E+00  0.82942859260E+03  0.82942859260E+03  0.00000000000E+00 0.  1.
         21   -1    0    0  501  502 -0.00000000000E+00 -0.00000000000E+00 -0.13570881993E+03  0.13570881993E+03  0.00000000000E+00 0.  1.
         25    1    1    2    0    0  0.52410733283E+02  0.14587086386E+03  0.47724246978E+03  0.51711755805E+03  0.12500000000E+03 0.  0.
         25    1    1    2    0    0 -0.83265651181E+02 -0.30793500166E+02 -0.20624567824E+02  0.15469900167E+03  0.12500000000E+03 0.  0.
         25    1    1    2    0    0  0.30854917898E+02 -0.11507736369E+03  0.23710187072E+03  0.29332085281E+03  0.12500000000E+03 0.  0.
</event>
<event>
 5    0  0.5742667E-005  0.4738354E+03  0.7546771E-02  0.1020843E+00
         21   -1    0    0  502  501  0.00000000000E+00  0.00000000000E+00  0.47858488069E+03  0.47858488069E+03  0.00000000000E+00 0.  1.
         21   -1    0    0  501  502 -0.00000000000E+00 -0.00000000000E+00 -0.46913311056E+03  0.46913311056E+03  0.00000000000E+00 0.  1.
         25    1    1    2    0    0 -0.11603557650E+03 -0.32778002984E+03  0.10389297563E+03  0.38382646256E+03  0.12500000000E+03 0.  0.
         25    1    1    2    0    0  0.81541537189E+02 -0.47325688175E+02 -0.29529304369E+01  0.15659649692E+03  0.12500000000E+03 0.  0.
         25    1    1    2    0    0  0.34494039310E+02  0.37510571801E+03 -0.91488275061E+02  0.40729503177E+03  0.12500000000E+03 0.  0.
</event>
<event>
 5    0  0.5742667E-005  0.3108668E+03  0.7546771E-02  0.1079931E+00
         21   -1    0    0  502  501  0.00000000000E+00  0.00000000000E+00  0.58024917269E+02  0.58024917269E+02  0.00000000000E+00 0.  1.
         21   -1    0    0  501  502 -0.00000000000E+00 -0.00000000000E+00 -0.16654603038E+04  0.16654603038E+04  0.00000000000E+00 0.  1.
         25    1    1    2    0    0 -0.14833661205E+03 -0.24373937463E+02 -0.32129868618E+03  0.37610594923E+03  0.12500000000E+03 0.  0.
         25    1    1    2    0    0  0.16769107058E+02  0.77705326366E+02 -0.95166999467E+03  0.96313036473E+03  0.12500000000E+03 0.  0.
         25    1    1    2    0    0  0.13156750500E+03 -0.53331388903E+02 -0.33446670568E+03  0.38424890712E+03  0.12500000000E+03 0.  0.
</event>
<event>
 5    0  0.5742667E-005  0.2676568E+03  0.7546771E-02  0.1102628E+00
         21   -1    0    0  502  501  0.00000000000E+00  0.00000000000E+00  0.71325259011E+03  0.71325259011E+03  0.00000000000E+00 0.  1.
         21   -1    0    0  501  502 -0.00000000000E+00 -0.00000000000E+00 -0.10044146739E+03  0.10044146739E+03  0.00000000000E+00 0.  1.
         25    1    1    2    0    0  0.74596119463E+02  0.61960031701E+02  0.18072806009E+03  0.24019004616E+03  0.12500000000E+03 0.  0.
         25    1    1    2    0    0  0.44069383943E+01 -0.12702844888E+03  0.34886439595E+03  0.39177418839E+03  0.12500000000E+03 0.  0.
         25    1    1    2    0    0 -0.79003057858E+02  0.65068417179E+02  0.83218666675E+02  0.18172982295E+03  0.12500000000E+03 0.  0.
</event>
<event>
 5    0  0.5742667E-005  0.3474378E+03  0.7546771E-02  0.1063672E+00
         21   -1    0    0  502  501  0.00000000000E+00  0.00000000000E+00  0.13381041603E+03  0.13381041603E+03  0.00000000000E+00 0. -1.
         21   -1    0    0  501  502 -0.00000000000E+00 -0.00000000000E+00 -0.90211990536E+03  0.90211990536E+03  0.00000000000E+00 0. -1.
         25    1    1    2    0    0  0.64588623812E+02  0.23272279793E+03 -0.49812722360E+03  0.56752737546E+03  0.12500000000E+03 0.  0.
         25    1    1    2    0    0  0.10134994157E+02 -0.17633444190E+03 -0.20851854371E+03  0.30050214072E+03  0.12500000000E+03 0.  0.
         25    1    1    2    0    0 -0.74723617969E+02 -0.56388356026E+02 -0.61663722022E+02  0.16790080521E+03  0.12500000000E+03 0.  0.
</event>
<event>
 5    0  0.5742667E-005  0.7720130E+03  0.7546771E-02  0.9601435E-01
         21   -1    0    0  502  501  0.00000000000E+00  0.00000000000E+00  0.14121591380E+04  0.14121591380E+04  0.00000000000E+00 0. -1.
         21   -1    0    0  501  502 -0.00000000000E+00 -0.00000000000E+00 -0.42205164469E+03  0.42205164469E+03  0.00000000000E+00 0. -1.
         25    1    1    2    0    0 -0.26907418890E+03  0.39685796948E+03  0.91173753707E+03  0.10376837204E+04  0.12500000000E+03 0.  0.
         25    1    1    2    0    0  0.25002365804E+03 -0.49334597762E+03 -0.79319185705E+02  0.57255446591E+03  0.12500000000E+03 0.  0.
         25    1    1    2    0    0  0.19050530862E+02  0.96488008142E+02  0.15768914197E+03  0.22397259639E+03  0.12500000000E+03 0.  0.
</event>
<event>
 5    0  0.5742667E-005  0.3213782E+03  0.7546771E-02  0.1075017E+00
         21   -1    0    0  502  501  0.00000000000E+00  0.00000000000E+00  0.13266777685E+03  0.13266777685E+03  0.00000000000E+00 0.  1.
         21   -1    0    0  501  502 -0.00000000000E+00 -0.00000000000E+00 -0.77851548252E+03  0.77851548252E+03  0.00000000000E+00 0.  1.
         25    1    1    2    0    0 -0.77800234133E+01  0.38311738728E+02 -0.11659979451E+03  0.17535344356E+03  0.12500000000E+03 0.  0.
         25    1    1    2    0    0  0.21200361398E+03 -0.55468974166E+01 -0.15688251441E+03  0.29191338397E+03  0.12500000000E+03 0.  0.
         25    1    1    2    0    0 -0.20422359056E+03 -0.32764841312E+02 -0.37236539674E+03  0.44391643184E+03  0.12500000000E+03 0.  0.
</event>
<event>
 5    0  0.5742667E-005  0.3438238E+03  0.7546771E-02  0.1065179E+00
         21   -1    0    0  502  501  0.00000000000E+00  0.00000000000E+00  0.29059686207E+03  0.29059686207E+03  0.00000000000E+00 0. -1.
         21   -1    0    0  501  502 -0.00000000000E+00 -0.00000000000E+00 -0.40679993258E+03  0.40679993258E+03  0.00000000000E+00 0. -1.
         25    1    1    2    0    0 -0.10700166288E+03  0.14524770226E+03  0.71298028790E+02  0.23076971157E+03  0.12500000000E+03 0.  0.
         25    1    1    2    0    0  0.14420574171E+03  0.16140776020E+02 -0.17388509502E+03  0.25868290794E+03  0.12500000000E+03 0.  0.
         25    1    1    2    0    0 -0.37204078825E+02 -0.16138847828E+03 -0.13616004282E+02  0.20794417514E+03  0.12500000000E+03 0.  0.
</event>
<event>
 5    0  0.5742667E-005  0.2756317E+03  0.7546771E-02  0.1098099E+00
         21   -1    0    0  502  501  0.00000000000E+00  0.00000000000E+00  0.18926257393E+04  0.18926257393E+04  0.00000000000E+00 0.  1.
         21   -1    0    0  501  502 -0.00000000000E+00 -0.00000000000E+00 -0.40141500691E+02  0.40141500691E+02  0.00000000000E+00 0.  1.
         25    1    1    2    0    0  0.59075372135E+02  0.17249582711E+03  0.83643101750E+03  0.86515117581E+03  0.12500000000E+03 0.  0.
         25    1    1    2    0    0  0.10858250745E+02 -0.94820293879E+02  0.61349489152E+03  0.63333227587E+03  0.12500000000E+03 0.  0.
         25    1    1    2    0    0 -0.69933622880E+02 -0.77675533232E+02  0.40255832962E+03  0.43428378835E+03  0.12500000000E+03 0.  0.
</event>
<event>
 5    0  0.5742667E-005  0.2457014E+03  0.7546771E-02  0.1116052E+00
         21   -1    0    0  502  501  0.00000000000E+00  0.00000000000E+00  0.22434933111E+03  0.22434933111E+03  0.00000000000E+00 0.  1.
         21   -1    0    0  501  502 -0.00000000000E+00 -0.00000000000E+00 -0.26908566417E+03  0.26908566417E+03  0.00000000000E+00 0.  1.
         25    1    1    2    0    0  0.49237872873E+02 -0.95504190737E+02 -0.15423911078E+02  0.16555456987E+03  0.12500000000E+03 0.  0.
         25    1    1    2    0    0 -0.94961799511E+02 -0.49475428655E+01  0.70253824741E+01  0.15721506781E+03  0.12500000000E+03 0.  0.
         25    1    1    2    0    0  0.45723926639E+02  0.10045173360E+03 -0.36337804461E+02  0.17066535760E+03  0.12500000000E+03 0.  0.
</event>
<event>
 5    0  0.5742667E-005  0.2624375E+03  0.7546771E-02  0.1105688E+00
         21   -1    0    0  502  501  0.00000000000E+00  0.00000000000E+00  0.24422065598E+03  0.24422065598E+03  0.00000000000E+00 0. -1.
         21   -1    0    0  501  502 -0.00000000000E+00 -0.00000000000E+00 -0.28201312025E+03  0.28201312025E+03  0.00000000000E+00 0. -1.
         25    1    1    2    0    0  0.11842041120E+03  0.11692083774E+03 -0.11999080167E+02  0.20847746644E+03  0.12500000000E+03 0.  0.
         25    1    1    2    0    0 -0.45667960729E+02 -0.98567959190E+02  0.15221808495E+02  0.16630667055E+03  0.12500000000E+03 0.  0.
         25    1    1    2    0    0 -0.72752450476E+02 -0.18352878554E+02 -0.41015192596E+02  0.15144963924E+03  0.12500000000E+03 0.  0.
</event>
<event>
 5    0  0.5742667E-005  0.2541693E+03  0.7546771E-02  0.1110698E+00
         21   -1    0    0  502  501  0.00000000000E+00  0.00000000000E+00  0.53387434656E+02  0.53387434656E+02  0.00000000000E+00 0. -1.
         21   -1    0    0  501  502 -0.00000000000E+00 -0.00000000000E+00 -0.12100605710E+04  0.12100605710E+04  0.00000000000E+00 0. -1.
         25    1    1    2    0    0  0.35185771136E+02  0.98988762212E+01 -0.23912948180E+03  0.27229384001E+03  0.12500000000E+03 0.  0.
         25    1    1    2    0    0 -0.60432719869E+02 -0.12522029611E+03 -0.33356372817E+03  0.38238984942E+03  0.12500000000E+03 0.  0.
         25    1    1    2    0    0  0.25246948733E+02  0.11532141989E+03 -0.58397992641E+03  0.60876431626E+03  0.12500000000E+03 0.  0.
</event>
<event>
 5    0  0.5742667E-005  0.5086406E+03  0.7546771E-02  0.1011548E+00
         21   -1    0    0  502  501  0.00000000000E+00  0.00000000000E+00  0.25465780546E+03  0.25465780546E+03  0.00000000000E+00 0. -1.
         21   -1    0    0  501  502 -0.00000000000E+00 -0.00000000000E+00 -0.10159331372E+04  0.10159331372E+04  0.00000000000E+00 0. -1.
         25    1    1    2    0    0  0.21186525431E+02 -0.14191264910E+03 -0.31259078522E+03  0.36595910679E+03  0.12500000000E+03 0.  0.
         25    1    1    2    0    0 -0.14645040269E+03  0.28284831645E+03 -0.55708565558E+03  0.65377390451E+03  0.12500000000E+03 0.  0.
         25    1    1    2    0    0  0.12526387726E+03 -0.14093566734E+03  0.10840110908E+03  0.25085793136E+03  0.12500000000E+03 0.  0.
</event>
<event>
 5    0  0.5742667E-005  0.3348930E+03  0.7546771E-02  0.1068992E+00
         21   -1    0    0  502  501  0.00000000000E+00  0.00000000000E+00  0.25979748884E+03  0.25979748884E+03  0.00000000000E+00 0. -1.
         21   -1    0    0  501  502 -0.00000000000E+00 -0.00000000000E+00 -0.43169519842E+03  0.43169519842E+03  0.00000000000E+00 0. -1.
         25    1    1    2    0    0 -0.11943140708E+03 -0.74973378641E+02  0.22288217030E+02  0.18975413861E+03  0.12500000000E+03 0.  0.
         25    1    1    2    0    0 -0.74391902981E+02 -0.95770021693E+02 -0.93201700798E+02  0.19752875567E+03  0.12500000000E+03 0.  0.
         25    1    1    2    0    0  0.19382331006E+03  0.17074340033E+03 -0.10098422581E+03  0.30420979298E+03  0.12500000000E+03 0.  0.
</event>
<event>
 5    0  0.5742667E-005  0.2563890E+03  0.7546771E-02  0.1109332E+00
         21   -1    0    0  502  501  0.00000000000E+00  0.00000000000E+00  0.42427425713E+02  0.42427425713E+02  0.00000000000E+00 0.  1.
         21   -1    0    0  501  502 -0.00000000000E+00 -0.00000000000E+00 -0.15493594977E+04  0.15493594977E+04  0.00000000000E+00 0.  1.
         25    1    1    2    0    0 -0.64027889601E+01 -0.96589554307E+02 -0.38498334034E+03  0.41618230387E+03  0.12500000000E+03 0.  0.
         25    1    1    2    0    0  0.71347302609E+02  0.14108486092E+03 -0.58714412658E+03  0.62077258392E+03  0.12500000000E+03 0.  0.
         25    1    1    2    0    0 -0.64944513649E+02 -0.44495306609E+02 -0.53480460507E+03  0.55483203563E+03  0.12500000000E+03 0.  0.
</event>
<event>
 5    0  0.5742667E-005  0.4968321E+03  0.7546771E-02  0.1014609E+00
         21   -1    0    0  502  501  0.00000000000E+00  0.00000000000E+00  0.76587814228E+03  0.76587814228E+03  0.00000000000E+00 0. -1.
         21   -1    0    0  501  502 -0.00000000000E+00 -0.00000000000E+00 -0.32229943094E+03  0.32229943094E+03  0.00000000000E+00 0. -1.
         25    1    1    2    0    0 -0.17753172635E+03  0.20591874593E+02  0.52291704372E+02  0.22427875848E+03  0.12500000000E+03 0.  0.
         25    1    1    2    0    0  0.19714219032E+03 -0.86603230564E+02 -0.15899345600E+03  0.29541340829E+03  0.12500000000E+03 0.  0.
         25    1    1    2    0    0 -0.19610463971E+02  0.66011355970E+02  0.55028046297E+03  0.56848540645E+03  0.12500000000E+03 0.  0.
</event>
<event>
 5    0  0.5742667E-005  0.2431355E+03  0.7546771E-02  0.1117721E+00
         21   -1    0    0  502  501  0.00000000000E+00  0.00000000000E+00  0.12384988577E+03  0.12384988577E+03  0.00000000000E+00 0. -1.
         21   -1    0    0  501  502 -0.00000000000E+00 -0.00000000000E+00 -0.47731084618E+03  0.47731084618E+03  0.00000000000E+00 0. -1.
         25    1    1    2    0    0  0.65730215333E+02  0.32695630307E+02 -0.80795463827E+02  0.16595894801E+03  0.12500000000E+03 0.  0.
         25    1    1    2    0    0  0.59722351371E+02  0.44194577910E+02 -0.13119864975E+03  0.19585199939E+03  0.12500000000E+03 0.  0.
         25    1    1    2    0    0 -0.12545256670E+03 -0.76890208217E+02 -0.14146684683E+03  0.23934978455E+03  0.12500000000E+03 0.  0.
</event>
<event>
 5    0  0.5742667E-005  0.3149357E+03  0.7546771E-02  0.1078004E+00
         21   -1    0    0  502  501  0.00000000000E+00  0.00000000000E+00  0.51838303018E+03  0.51838303018E+03  0.00000000000E+00 0. -1.
         21   -1    0    0  501  502 -0.00000000000E+00 -0.00000000000E+00 -0.19133440955E+03  0.19133440955E+03  0.00000000000E+00 0. -1.
         25    1    1    2    0    0  0.12919998082E+03 -0.10531658476E+03  0.21906385476E+03  0.30232133655E+03  0.12500000000E+03 0.  0.
         25    1    1    2    0    0 -0.10072720443E+02 -0.43206729296E+02 -0.36626585348E+02  0.13760373508E+03  0.12500000000E+03 0.  0.
         25    1    1    2    0    0 -0.11912726038E+03  0.14852331406E+03  0.14461135121E+03  0.26979236810E+03  0.12500000000E+03 0.  0.
</event>
<event>
 5    0  0.5742667E-005  0.2431116E+03  0.7546771E-02  0.1117737E+00
         21   -1    0    0  502  501  0.00000000000E+00  0.00000000000E+00  0.14693025148E+03  0.14693025148E+03  0.00000000000E+00 0. -1.
         21   -1    0    0  501  502 -0.00000000000E+00 -0.00000000000E+00 -0.40225373483E+03  0.40225373483E+03  0.00000000000E+00 0. -1.
         25    1    1    2    0    0 -0.28996957413E+02 -0.40884561406E+01  0.19507866933E+02  0.12985798352E+03  0.12500000000E+03 0.  0.
         25    1    1    2    0    0 -0.75587163840E+02 -0.17991214615E+02 -0.92780615504E+02  0.17398375141E+03  0.12500000000E+03 0.  0.
         25    1    1    2    0    0  0.10458412125E+03  0.22079670755E+02 -0.18205073477E+03  0.24534225138E+03  0.12500000000E+03 0.  0.
</event>
<event>
 5    0  0.5742667E-005  0.2701163E+03  0.7546771E-02  0.1101213E+00
         21   -1    0    0  502  501  0.00000000000E+00  0.00000000000E+00  0.57652493113E+03  0.57652493113E+03  0.00000000000E+00 0. -1.
         21   -1    0    0  501  502 -0.00000000000E+00 -0.00000000000E+00 -0.12655620251E+03  0.12655620251E+03  0.00000000000E+00 0. -1.
         25    1    1    2    0    0  0.88710255610E+01 -0.39774743062E+02  0.51038923887E+02  0.14103438245E+03  0.12500000000E+03 0.  0.
         25    1    1    2    0    0 -0.11011966289E+03  0.38234124741E+02  0.35699677474E+03  0.39580283681E+03  0.12500000000E+03 0.  0.
         25    1    1    2    0    0  0.10124863733E+03  0.15406183213E+01  0.41933029991E+02  0.16624391439E+03  0.12500000000E+03 0.  0.
</event>
<event>
 5    0  0.5742667E-005  0.2789497E+03  0.7546771E-02  0.1096264E+00
         21   -1    0    0  502  501  0.00000000000E+00  0.00000000000E+00  0.19106917037E+03  0.19106917037E+03  0.00000000000E+00 0.  1.
         21   -1    0    0  501  502 -0.00000000000E+00 -0.00000000000E+00 -0.40725019641E+03  0.40725019641E+03  0.00000000000E+00 0.  1.
         25    1    1    2    0    0 -0.66628504559E+01 -0.86335665639E+02 -0.18280452513E+03  0.23778295806E+03  0.12500000000E+03 0.  0.
         25    1    1    2    0    0 -0.79671536247E+02  0.45169888855E+02  0.72257498271E+02  0.17097958534E+03  0.12500000000E+03 0.  0.
         25    1    1    2    0    0  0.86334386703E+02  0.41165776783E+02 -0.10563399919E+03  0.18955682338E+03  0.12500000000E+03 0.  0.
</event>
<event>
 5    0  0.5742667E-005  0.3453948E+03  0.7546771E-02  0.1064521E+00
         21   -1    0    0  502  501  0.00000000000E+00  0.00000000000E+00  0.26151608356E+03  0.26151608356E+03  0.00000000000E+00 0.  1.
         21   -1    0    0  501  502 -0.00000000000E+00 -0.00000000000E+00 -0.45617678919E+03  0.45617678919E+03  0.00000000000E+00 0.  1.
         25    1    1    2    0    0  0.64474437538E+02  0.80624837339E+01 -0.28729364933E+03  0.31997593298E+03  0.12500000000E+03 0.  0.
         25    1    1    2    0    0  0.73182228814E+02 -0.71741856875E+02 -0.32288245186E+02  0.16483344145E+03  0.12500000000E+03 0.  0.
         25    1    1    2    0    0 -0.13765666635E+03  0.63679373142E+02  0.12492118889E+03  0.23288349832E+03  0.12500000000E+03 0.  0.
</event>
<event>
 5    0  0.5742667E-005  0.3313476E+03  0.7546771E-02  0.1070542E+00
         21   -1    0    0  502  501  0.00000000000E+00  0.00000000000E+00  0.52020670240E+03  0.52020670240E+03  0.00000000000E+00 0. -1.
         21   -1    0    0  501  502 -0.00000000000E+00 -0.00000000000E+00 -0.21105304778E+03  0.21105304778E+03  0.00000000000E+00 0. -1.
         25    1    1    2    0    0  0.18508749544E+03 -0.10988161435E+03  0.95732079195E+02  0.26668517231E+03  0.12500000000E+03 0.  0.
         25    1    1    2    0    0 -0.79644877208E+02 -0.21169141496E+02  0.20628007670E+03  0.25488803240E+03  0.12500000000E+03 0.  0.
         25    1    1    2    0    0 -0.10544261824E+03  0.13105075585E+03  0.71414987169E+01  0.20968654547E+03  0.12500000000E+03 0.  0.
</event>
<event>
 5    0  0.5742667E-005  0.2636380E+03  0.7546771E-02  0.1104977E+00
         21   -1    0    0  502  501  0.00000000000E+00  0.00000000000E+00  0.59046432994E+02  0.59046432994E+02  0.00000000000E+00 0. -1.
         21   -1    0    0  501  502 -0.00000000000E+00 -0.00000000000E+00 -0.11771244084E+04  0.11771244084E+04  0.00000000000E+00 0. -1.
         25    1    1    2    0    0 -0.69036998093E+02  0.82505604873E+01 -0.43702422216E+03  0.45983622042E+03  0.12500000000E+03 0.  0.
         25    1    1    2    0    0  0.13598627992E+03  0.59942492914E+02 -0.24414606032E+03  0.31195780092E+03  0.12500000000E+03 0.  0.
         25    1    1    2    0    0 -0.66949281829E+02 -0.68193053401E+02 -0.43690769295E+03  0.46437682008E+03  0.12500000000E+03 0.  0.
</event>
<event>
 5    0  0.5742667E-005  0.5312331E+03  0.7546771E-02  0.1005934E+00
         21   -1    0    0  502  501  0.00000000000E+00  0.00000000000E+00  0.79297622951E+03  0.79297622951E+03  0.00000000000E+00 0. -1.
         21   -1    0    0  501  502 -0.00000000000E+00 -0.00000000000E+00 -0.35588536246E+03  0.35588536246E+03  0.00000000000E+00 0. -1.
         25    1    1    2    0    0 -0.93179629326E+02  0.39767675533E+03  0.14813560375E+03  0.45210441510E+03  0.12500000000E+03 0.  0.
         25    1    1    2    0    0 -0.99007130318E+02 -0.36690115939E+03  0.15213921926E+03  0.42800726005E+03  0.12500000000E+03 0.  0.
         25    1    1    2    0    0  0.19218675964E+03 -0.30775595946E+02  0.13681604404E+03  0.26874991683E+03  0.12500000000E+03 0.  0.
</event>
<event>
 5    0  0.5742667E-005  0.3133494E+03  0.7546771E-02  0.1078751E+00
         21   -1    0    0  502  501  0.00000000000E+00  0.00000000000E+00  0.84982872602E+03  0.84982872602E+03  0.00000000000E+00 0. -1.
         21   -1    0    0  501  502 -0.00000000000E+00 -0.00000000000E+00 -0.11553840714E+03  0.11553840714E+03  0.00000000000E+00 0. -1.
         25    1    1    2    0    0  0.17385739776E+03  0.44589882296E+02  0.14010679701E+03  0.25974904606E+03  0.12500000000E+03 0.  0.
         25    1    1    2    0    0 -0.10843406461E+03 -0.90001522823E+02  0.16106208748E+03  0.24783909397E+03  0.12500000000E+03 0.  0.
         25    1    1    2    0    0 -0.65423333156E+02  0.45411640527E+02  0.43312143439E+03  0.45777899312E+03  0.12500000000E+03 0.  0.
</event>
<event>
 5    0  0.5742667E-005  0.2835126E+03  0.7546771E-02  0.1093786E+00
         21   -1    0    0  502  501  0.00000000000E+00  0.00000000000E+00  0.58244047403E+02  0.58244047403E+02  0.00000000000E+00 0. -1.
         21   -1    0    0  501  502 -0.00000000000E+00 -0.00000000000E+00 -0.13800446111E+04  0.13800446111E+04  0.00000000000E+00 0. -1.
         25    1    1    2    0    0 -0.63010933467E+02 -0.69836537145E+02 -0.21458605138E+03  0.26555544262E+03  0.12500000000E+03 0.  0.
         25    1    1    2    0    0 -0.84614477303E+02  0.23295009270E+02 -0.73479281208E+03  0.75049833039E+03  0.12500000000E+03 0.  0.
         25    1    1    2    0    0  0.14762541077E+03  0.46541527876E+02 -0.37242170019E+03  0.42223488546E+03  0.12500000000E+03 0.  0.
</event>
<event>
 5    0  0.5742667E-005  0.5020492E+03  0.7546771E-02  0.1013245E+00
         21   -1    0    0  502  501  0.00000000000E+00  0.00000000000E+00  0.61021483858E+03  0.61021483858E+03  0.00000000000E+00 0. -1.
         21   -1    0    0  501  502 -0.00000000000E+00 -0.00000000000E+00 -0.41305680211E+03  0.41305680211E+03  0.00000000000E+00 0. -1.
         25    1    1    2    0    0  0.47596025649E+02  0.64050266334E+02 -0.11652007366E+03  0.18859943224E+03  0.12500000000E+03 0.  0.
         25    1    1    2    0    0 -0.35525301376E+02 -0.13309380857E+03  0.53756979383E+03  0.56884294155E+03  0.12500000000E+03 0.  0.
         25    1    1    2    0    0 -0.12070724274E+02  0.69043542239E+02 -0.22389168370E+03  0.26582926689E+03  0.12500000000E+03 0.  0.
</event>
<event>
 5    0  0.5742667E-005  0.2315570E+03  0.7546771E-02  0.1125549E+00
         21   -1    0    0  502  501  0.00000000000E+00  0.00000000000E+00  0.97362203001E+03  0.97362203001E+03  0.00000000000E+00 0. -1.
         21   -1    0    0  501  502 -0.00000000000E+00 -0.00000000000E+00 -0.55071332761E+02  0.55071332761E+02  0.00000000000E+00 0. -1.
         25    1    1    2    0    0  0.63380153028E+02  0.33651446039E+02  0.42152730128E+03  0.44548819215E+03  0.12500000000E+03 0.  0.
         25    1    1    2    0    0 -0.23486852956E+01  0.35778716415E+02  0.33162126759E+03  0.35620681912E+03  0.12500000000E+03 0.  0.
         25    1    1    2    0    0 -0.61031467732E+02 -0.69430162454E+02  0.16540212837E+03  0.22699835150E+03  0.12500000000E+03 0.  0.
</event>
<event>
 5    0  0.5742667E-005  0.2817533E+03  0.7546771E-02  0.1094735E+00
         21   -1    0    0  502  501  0.00000000000E+00  0.00000000000E+00  0.62680826278E+03  0.62680826278E+03  0.00000000000E+00 0. -1.
         21   -1    0    0  501  502 -0.00000000000E+00 -0.00000000000E+00 -0.12664947492E+03  0.12664947492E+03  0.00000000000E+00 0. -1.
         25    1    1    2    0    0 -0.95145353588E+02 -0.30230015210E+02  0.41804238894E+03  0.44760577642E+03  0.12500000000E+03 0.  0.
         25    1    1    2    0    0  0.66477823415E+02  0.36873273911E+02 -0.11771537040E+02  0.14677366392E+03  0.12500000000E+03 0.  0.
         25    1    1    2    0    0  0.28667530173E+02 -0.66432587010E+01  0.93887935961E+02  0.15907829736E+03  0.12500000000E+03 0.  0.
</event>
<event>
 5    0  0.5742667E-005  0.3913948E+03  0.7546771E-02  0.1046801E+00
         21   -1    0    0  502  501  0.00000000000E+00  0.00000000000E+00  0.68604292023E+03  0.68604292023E+03  0.00000000000E+00 0. -1.
         21   -1    0    0  501  502 -0.00000000000E+00 -0.00000000000E+00 -0.22329491525E+03  0.22329491525E+03  0.00000000000E+00 0. -1.
         25    1    1    2    0    0  0.19282675767E+02 -0.10906282053E+03  0.45092591549E+02  0.17298804068E+03  0.12500000000E+03 0.  0.
         25    1    1    2    0    0 -0.10927708866E+03  0.10745258564E+03  0.51667625458E+03  0.55323312655E+03  0.12500000000E+03 0.  0.
         25    1    1    2    0    0  0.89994412892E+02  0.16102348916E+01 -0.99020841152E+02  0.18311666825E+03  0.12500000000E+03 0.  0.
</event>
<event>
 5    0  0.5742667E-005  0.3141506E+03  0.7546771E-02  0.1078373E+00
         21   -1    0    0  502  501  0.00000000000E+00  0.00000000000E+00  0.84737959958E+03  0.84737959958E+03  0.00000000000E+00 0.  1.
         21   -1    0    0  501  502 -0.00000000000E+00 -0.00000000000E+00 -0.11646563291E+03  0.11646563291E+03  0.00000000000E+00 0.  1.
         25    1    1    2    0    0  0.10696313996E+03 -0.28796876539E+02  0.12780837224E+03  0.21031013628E+03  0.12500000000E+03 0.  0.
         25    1    1    2    0    0 -0.11722829823E+02  0.17945351316E+03  0.39880713443E+03  0.45498694333E+03  0.12500000000E+03 0.  0.
         25    1    1    2    0    0 -0.95240310136E+02 -0.15065663662E+03  0.20429846000E+03  0.29854815289E+03  0.12500000000E+03 0.  0.
</event>
<event>
 5    0  0.5742667E-005  0.2878887E+03  0.7546771E-02  0.1091457E+00
         21   -1    0    0  502  501  0.00000000000E+00  0.00000000000E+00  0.42683106765E+03  0.42683106765E+03  0.00000000000E+00 0.  1.
         21   -1    0    0  501  502 -0.00000000000E+00 -0.00000000000E+00 -0.19417495493E+03  0.19417495493E+03  0.00000000000E+00 0.  1.
         25    1    1    2    0    0  0.15912756739E+03 -0.10707564731E+02  0.50355860419E+02  0.20879882022E+03  0.12500000000E+03 0.  0.
         25    1    1    2    0    0 -0.33558682159E+02  0.10450674923E+03  0.10835221687E+03  0.19852719885E+03  0.12500000000E+03 0.  0.
         25    1    1    2    0    0 -0.12556888524E+03 -0.93799184500E+02  0.73948035431E+02  0.21368000350E+03  0.12500000000E+03 0.  0.
</event>
<event>
 5    0  0.5742667E-005  0.5034971E+03  0.7546771E-02  0.1012870E+00
         21   -1    0    0  502  501  0.00000000000E+00  0.00000000000E+00  0.47601683958E+03  0.47601683958E+03  0.00000000000E+00 0.  1.
         21   -1    0    0  501  502 -0.00000000000E+00 -0.00000000000E+00 -0.53256385951E+03  0.53256385951E+03  0.00000000000E+00 0.  1.
         25    1    1    2    0    0 -0.14069647177E+03 -0.69490823451E+01  0.97060430640E+02  0.21187145657E+03  0.12500000000E+03 0.  0.
         25    1    1    2    0    0 -0.16901405218E+03  0.17858826777E+03 -0.28714287763E+03  0.39816523127E+03  0.12500000000E+03 0.  0.
         25    1    1    2    0    0  0.30971052395E+03 -0.17163918542E+03  0.13353542706E+03  0.39854401125E+03  0.12500000000E+03 0.  0.
</event>
<event>
 5    0  0.5742667E-005  0.2655321E+03  0.7546771E-02  0.1103864E+00
         21   -1    0    0  502  501  0.00000000000E+00  0.00000000000E+00  0.33900818241E+03  0.33900818241E+03  0.00000000000E+00 0. -1.
         21   -1    0    0  501  502 -0.00000000000E+00 -0.00000000000E+00 -0.20798111568E+03  0.20798111568E+03  0.00000000000E+00 0. -1.
         25    1    1    2    0    0  0.44605435362E+02  0.14786296142E+03  0.13900842934E+03  0.24249008980E+03  0.12500000000E+03 0.  0.
         25    1    1    2    0    0  0.13899309636E+02 -0.59346857102E+02  0.10689930769E+02  0.13947944249E+03  0.12500000000E+03 0.  0.
         25    1    1    2    0    0 -0.58504744998E+02 -0.88516104322E+02 -0.18671293376E+02  0.16501976581E+03  0.12500000000E+03 0.  0.
</event>
<event>
 5    0  0.5742667E-005  0.2292285E+03  0.7546771E-02  0.1127184E+00
         21   -1    0    0  502  501  0.00000000000E+00  0.00000000000E+00  0.11527368052E+03  0.11527368052E+03  0.00000000000E+00 0.  1.
         21   -1    0    0  501  502 -0.00000000000E+00 -0.00000000000E+00 -0.45583433726E+03  0.45583433726E+03  0.00000000000E+00 0.  1.
         25    1    1    2    0    0 -0.39347374173E+02 -0.59814695049E+02 -0.18535534625E+02  0.14523973162E+03  0.12500000000E+03 0.  0.
         25    1    1    2    0    0  0.37181168982E+02  0.68065119590E+02 -0.21816116437E+03  0.26312467286E+03  0.12500000000E+03 0.  0.
         25    1    1    2    0    0  0.21662051909E+01 -0.82504245411E+01 -0.10386395775E+03  0.16274361330E+03  0.12500000000E+03 0.  0.
</event>
<event>
 5    0  0.6000111E-005  0.3236626E+03  0.7546771E-02  0.1073976E+00
         21   -1    0    0  502  501  0.00000000000E+00  0.00000000000E+00  0.44877376833E+03  0.44877376833E+03  0.00000000000E+00 0.  1.
         21   -1    0    0  501  502 -0.00000000000E+00 -0.00000000000E+00 -0.23343052339E+03  0.23343052339E+03  0.00000000000E+00 0. -1.
         25    1    1    2    0    0  0.19893626859E+03 -0.27221328368E+02  0.51314159730E+02  0.24202227721E+03  0.12500000000E+03 0.  0.
         25    1    1    2    0    0 -0.72352887444E+02 -0.78167033541E+02  0.16584938520E+03  0.23340103690E+03  0.12500000000E+03 0.  0.
         25    1    1    2    0    0 -0.12658338114E+03  0.10538836191E+03 -0.18202999934E+01  0.20678097761E+03  0.12500000000E+03 0.  0.
</event>
<event>
 5    0  0.5742667E-005  0.3107766E+03  0.7546771E-02  0.1079974E+00
         21   -1    0    0  502  501  0.00000000000E+00  0.00000000000E+00  0.28126561038E+03  0.28126561038E+03  0.00000000000E+00 0.  1.
         21   -1    0    0  501  502 -0.00000000000E+00 -0.00000000000E+00 -0.34338392569E+03  0.34338392569E+03  0.00000000000E+00 0.  1.
         25    1    1    2    0    0  0.90718283697E+02 -0.75857470533E+02 -0.50438595550E+02  0.17931317507E+03  0.12500000000E+03 0.  0.
         25    1    1    2    0    0 -0.11351834384E+01  0.49629765552E+02  0.16287346074E+03  0.21122775974E+03  0.12500000000E+03 0.  0.
         25    1    1    2    0    0 -0.89583100259E+02  0.26227704981E+02 -0.17455318050E+03  0.23410860126E+03  0.12500000000E+03 0.  0.
</event>
<event>
 5    0  0.5742667E-005  0.4414527E+03  0.7546771E-02  0.1030302E+00
         21   -1    0    0  502  501  0.00000000000E+00  0.00000000000E+00  0.29814991895E+03  0.29814991895E+03  0.00000000000E+00 0. -1.
         21   -1    0    0  501  502 -0.00000000000E+00 -0.00000000000E+00 -0.65363256385E+03  0.65363256385E+03  0.00000000000E+00 0. -1.
         25    1    1    2    0    0  0.56953025337E+02 -0.30054580685E+02 -0.17071482314E+03  0.22116843300E+03  0.12500000000E+03 0.  0.
         25    1    1    2    0    0  0.63878152686E+02  0.24973278126E+03  0.12534069399E+03  0.31270140709E+03  0.12500000000E+03 0.  0.
         25    1    1    2    0    0 -0.12083117802E+03 -0.21967820058E+03 -0.31010851576E+03  0.41791264271E+03  0.12500000000E+03 0.  0.
</event>
<event>
 5    0  0.5742667E-005  0.2130870E+03  0.7546771E-02  0.1139144E+00
         21   -1    0    0  502  501  0.00000000000E+00  0.00000000000E+00  0.35082192877E+03  0.35082192877E+03  0.00000000000E+00 0. -1.
         21   -1    0    0  501  502 -0.00000000000E+00 -0.00000000000E+00 -0.12942766942E+03  0.12942766942E+03  0.00000000000E+00 0. -1.
         25    1    1    2    0    0  0.24610653732E+02  0.17572598099E+02  0.15222907193E+03  0.19928163694E+03  0.12500000000E+03 0.  0.
         25    1    1    2    0    0 -0.55342727792E+02 -0.33280928264E+02  0.52732336191E+02  0.15025357562E+03  0.12500000000E+03 0.  0.
         25    1    1    2    0    0  0.30732074060E+02  0.15708330165E+02  0.16432851238E+02  0.13071438564E+03  0.12500000000E+03 0.  0.
</event>
<event>
 5    0  0.5742667E-005  0.4505881E+03  0.7546771E-02  0.1027547E+00
         21   -1    0    0  502  501  0.00000000000E+00  0.00000000000E+00  0.21704946767E+03  0.21704946767E+03  0.00000000000E+00 0.  1.
         21   -1    0    0  501  502 -0.00000000000E+00 -0.00000000000E+00 -0.93540702211E+03  0.93540702211E+03  0.00000000000E+00 0.  1.
         25    1    1    2    0    0  0.56002018967E+01  0.98458725229E+02 -0.85884467388E+02  0.18090501534E+03  0.12500000000E+03 0.  0.
         25    1    1    2    0    0  0.20556393485E+03  0.20916250065E+03 -0.16006866146E+03  0.35672462681E+03  0.12500000000E+03 0.  0.
         25    1    1    2    0    0 -0.21116413674E+03 -0.30762122588E+03 -0.47240442559E+03  0.61482684764E+03  0.12500000000E+03 0.  0.
</event>
<event>
 5    0  0.6144165E-005  0.2936666E+03  0.7546771E-02  0.1088450E+00
         21   -1    0    0  502  501  0.00000000000E+00  0.00000000000E+00  0.63278099682E+03  0.63278099682E+03  0.00000000000E+00 0.  1.
         21   -1    0    0  501  502 -0.00000000000E+00 -0.00000000000E+00 -0.13628739094E+03  0.13628739094E+03  0.00000000000E+00 0.  1.
         25    1    1    2    0    0 -0.10661369795E+03  0.17868525352E+03  0.25404909156E+03  0.35136994940E+03  0.12500000000E+03 0.  0.
         25    1    1    2    0    0  0.81761578577E+02 -0.46940417648E+02  0.11995904527E+03  0.19723978068E+03  0.12500000000E+03 0.  0.
         25    1    1    2    0    0  0.24852119376E+02 -0.13174483588E+03  0.12248546905E+03  0.22045865768E+03  0.12500000000E+03 0.  0.
</event>
<event>
 5    0  0.5742667E-005  0.4670429E+03  0.7546771E-02  0.1022758E+00
         21   -1    0    0  502  501  0.00000000000E+00  0.00000000000E+00  0.44484547720E+03  0.44484547720E+03  0.00000000000E+00 0. -1.
         21   -1    0    0  501  502 -0.00000000000E+00 -0.00000000000E+00 -0.49034790096E+03  0.49034790096E+03  0.00000000000E+00 0. -1.
         25    1    1    2    0    0 -0.13765368036E+03  0.22753209886E+03 -0.18404523972E+03  0.34672329312E+03  0.12500000000E+03 0.  0.
         25    1    1    2    0    0 -0.12431023042E+02 -0.31243436695E+03  0.44009310456E+01  0.33677014740E+03  0.12500000000E+03 0.  0.
         25    1    1    2    0    0  0.15008470340E+03  0.84902268095E+02  0.13414188492E+03  0.25169993765E+03  0.12500000000E+03 0.  0.
</event>
<event>
 5    0  0.5742667E-005  0.5370705E+03  0.7546771E-02  0.1004532E+00
         21   -1    0    0  502  501  0.00000000000E+00  0.00000000000E+00  0.20407600462E+04  0.20407600462E+04  0.00000000000E+00 0. -1.
         21   -1    0    0  501  502 -0.00000000000E+00 -0.00000000000E+00 -0.14134181590E+03  0.14134181590E+03  0.00000000000E+00 0. -1.
         25    1    1    2    0    0  0.17872517517E+03 -0.12767861666E+03  0.73328646014E+03  0.77561494959E+03  0.12500000000E+03 0.  0.
         25    1    1    2    0    0 -0.27754869927E+03  0.34232014643E+03  0.97688593135E+03  0.10789566655E+04  0.12500000000E+03 0.  0.
         25    1    1    2    0    0  0.98823524097E+02 -0.21464152977E+03  0.18924583883E+03  0.32753024705E+03  0.12500000000E+03 0.  0.
</event>
<event>
 5    0  0.5742667E-005  0.4500685E+03  0.7546771E-02  0.1027702E+00
         21   -1    0    0  502  501  0.00000000000E+00  0.00000000000E+00  0.46463910296E+03  0.46463910296E+03  0.00000000000E+00 0.  1.
         21   -1    0    0  501  502 -0.00000000000E+00 -0.00000000000E+00 -0.43595480438E+03  0.43595480438E+03  0.00000000000E+00 0.  1.
         25    1    1    2    0    0  0.37165684146E+03  0.66618373989E+02 -0.76644942896E+01  0.39780718951E+03  0.12500000000E+03 0.  0.
         25    1    1    2    0    0 -0.17514988672E+03 -0.65634362410E+02 -0.84609691553E+02  0.24035214219E+03  0.12500000000E+03 0.  0.
         25    1    1    2    0    0 -0.19650695473E+03 -0.98401157907E+00  0.12095848443E+03  0.26243457564E+03  0.12500000000E+03 0.  0.
</event>
<event>
 5    0  0.5742667E-005  0.2944084E+03  0.7546771E-02  0.1088070E+00
         21   -1    0    0  502  501  0.00000000000E+00  0.00000000000E+00  0.60515046937E+03  0.60515046937E+03  0.00000000000E+00 0. -1.
         21   -1    0    0  501  502 -0.00000000000E+00 -0.00000000000E+00 -0.14323099079E+03  0.14323099079E+03  0.00000000000E+00 0. -1.
         25    1    1    2    0    0  0.61551924585E+02  0.12105382962E+03  0.37781266201E+02  0.18840141497E+03  0.12500000000E+03 0.  0.
         25    1    1    2    0    0 -0.12792660709E+03 -0.12830084236E+03  0.21775904398E+03  0.30962933354E+03  0.12500000000E+03 0.  0.
         25    1    1    2    0    0  0.66374682509E+02  0.72470127457E+01  0.20637916840E+03  0.25035071165E+03  0.12500000000E+03 0.  0.
</event>
<event>
 5    0  0.5742667E-005  0.4320672E+03  0.7546771E-02  0.1033209E+00
         21   -1    0    0  502  501  0.00000000000E+00  0.00000000000E+00  0.11070833679E+04  0.11070833679E+04  0.00000000000E+00 0. -1.
         21   -1    0    0  501  502 -0.00000000000E+00 -0.00000000000E+00 -0.16862515588E+03  0.16862515588E+03  0.00000000000E+00 0. -1.
         25    1    1    2    0    0  0.11975113904E+03  0.49316406064E+01  0.15753646677E+03  0.23410979207E+03  0.12500000000E+03 0.  0.
         25    1    1    2    0    0  0.23176710838E+03 -0.13031197562E+03  0.29611443987E+03  0.41714022225E+03  0.12500000000E+03 0.  0.
         25    1    1    2    0    0 -0.35151824742E+03  0.12538033501E+03  0.48480730537E+03  0.62445850945E+03  0.12500000000E+03 0.  0.
</event>
<event>
 5    0  0.5742667E-005  0.2265441E+03  0.7546771E-02  0.1129096E+00
         21   -1    0    0  502  501  0.00000000000E+00  0.00000000000E+00  0.68058914027E+03  0.68058914027E+03  0.00000000000E+00 0.  1.
         21   -1    0    0  501  502 -0.00000000000E+00 -0.00000000000E+00 -0.75408545313E+02  0.75408545313E+02  0.00000000000E+00 0.  1.
         25    1    1    2    0    0 -0.63663628458E+02 -0.44483293127E+02  0.99905410180E+02  0.17787049204E+03  0.12500000000E+03 0.  0.
         25    1    1    2    0    0  0.67397593177E+02 -0.58735532199E+01  0.30767878194E+03  0.33892206634E+03  0.12500000000E+03 0.  0.
         25    1    1    2    0    0 -0.37339647184E+01  0.50356846347E+02  0.19759640283E+03  0.23920512720E+03  0.12500000000E+03 0.  0.
</event>
<event>
 5    0  0.5742667E-005  0.3690266E+03  0.7546771E-02  0.1055066E+00
         21   -1    0    0  502  501  0.00000000000E+00  0.00000000000E+00  0.33278460358E+03  0.33278460358E+03  0.00000000000E+00 0. -1.
         21   -1    0    0  501  502 -0.00000000000E+00 -0.00000000000E+00 -0.40921546110E+03  0.40921546110E+03  0.00000000000E+00 0. -1.
         25    1    1    2    0    0 -0.13022834062E+03  0.20731524608E+03 -0.68773325354E+02  0.28336161038E+03  0.12500000000E+03 0.  0.
         25    1    1    2    0    0  0.19493303161E+03 -0.42316475688E+02  0.33848136603E+02  0.23782402587E+03  0.12500000000E+03 0.  0.
         25    1    1    2    0    0 -0.64704690995E+02 -0.16499877039E+03 -0.41505668767E+02  0.22081442844E+03  0.12500000000E+03 0.  0.
</event>
<event>
 5    0  0.5742667E-005  0.4893395E+03  0.7546771E-02  0.1016600E+00
         21   -1    0    0  502  501  0.00000000000E+00  0.00000000000E+00  0.57243262222E+03  0.57243262222E+03  0.00000000000E+00 0.  1.
         21   -1    0    0  501  502 -0.00000000000E+00 -0.00000000000E+00 -0.41830803177E+03  0.41830803177E+03  0.00000000000E+00 0.  1.
         25    1    1    2    0    0  0.15824690989E+02 -0.10728401908E+02 -0.16022993523E+03  0.20411798450E+03  0.12500000000E+03 0.  0.
         25    1    1    2    0    0 -0.10409811940E+03  0.27197491864E+03 -0.41255374002E+02  0.31958376166E+03  0.12500000000E+03 0.  0.
         25    1    1    2    0    0  0.88273428416E+02 -0.26124651674E+03  0.35560989968E+03  0.46703890782E+03  0.12500000000E+03 0.  0.
</event>
<event>
 5    0  0.5742667E-005  0.3896261E+03  0.7546771E-02  0.1047432E+00
         21   -1    0    0  502  501  0.00000000000E+00  0.00000000000E+00  0.42140698973E+03  0.42140698973E+03  0.00000000000E+00 0. -1.
         21   -1    0    0  501  502 -0.00000000000E+00 -0.00000000000E+00 -0.36024200113E+03  0.36024200113E+03  0.00000000000E+00 0. -1.
         25    1    1    2    0    0 -0.23960487343E+03 -0.15304321290E+03 -0.29482256157E+02  0.31197263312E+03  0.12500000000E+03 0.  0.
         25    1    1    2    0    0  0.97359269406E+02  0.18169948332E+03 -0.30585943751E+02  0.24301034861E+03  0.12500000000E+03 0.  0.
         25    1    1    2    0    0  0.14224560402E+03 -0.28656270418E+02  0.12123318850E+03  0.22666600913E+03  0.12500000000E+03 0.  0.
</event>
<event>
 5    0  0.5742667E-005  0.3791289E+03  0.7546771E-02  0.1051256E+00
         21   -1    0    0  502  501  0.00000000000E+00  0.00000000000E+00  0.51862187549E+03  0.51862187549E+03  0.00000000000E+00 0.  1.
         21   -1    0    0  501  502 -0.00000000000E+00 -0.00000000000E+00 -0.27715512822E+03  0.27715512822E+03  0.00000000000E+00 0.  1.
         25    1    1    2    0    0 -0.22514212856E+03  0.17879271618E+02  0.23414801788E+03  0.34850959912E+03  0.12500000000E+03 0.  0.
         25    1    1    2    0    0  0.26493347359E+02  0.48975141983E+02 -0.11086561545E+03  0.17611543565E+03  0.12500000000E+03 0.  0.
         25    1    1    2    0    0  0.19864878120E+03 -0.66854413602E+02  0.11818434484E+03  0.27115196893E+03  0.12500000000E+03 0.  0.
</event>
<event>
 5    0  0.5742667E-005  0.2188838E+03  0.7546771E-02  0.1134718E+00
         21   -1    0    0  502  501  0.00000000000E+00  0.00000000000E+00  0.40954818235E+02  0.40954818235E+02  0.00000000000E+00 0.  1.
         21   -1    0    0  501  502 -0.00000000000E+00 -0.00000000000E+00 -0.11698281743E+04  0.11698281743E+04  0.00000000000E+00 0.  1.
         25    1    1    2    0    0  0.36874353126E+02  0.21787062981E+02 -0.47712646996E+03  0.49508490420E+03  0.12500000000E+03 0.  0.
         25    1    1    2    0    0  0.50653281839E+02  0.58762911030E+01 -0.23481043812E+03  0.27085277848E+03  0.12500000000E+03 0.  0.
         25    1    1    2    0    0 -0.87527634965E+02 -0.27663354084E+02 -0.41693644794E+03  0.44484530981E+03  0.12500000000E+03 0.  0.
</event>
<event>
 5    0  0.5945475E-005  0.3141542E+03  0.7546771E-02  0.1078372E+00
         21   -1    0    0  502  501  0.00000000000E+00  0.00000000000E+00  0.21248602190E+03  0.21248602190E+03  0.00000000000E+00 0. -1.
         21   -1    0    0  501  502 -0.00000000000E+00 -0.00000000000E+00 -0.46446751412E+03  0.46446751412E+03  0.00000000000E+00 0. -1.
         25    1    1    2    0    0 -0.45187934720E+02 -0.85459644294E+02 -0.22896736054E+03  0.27820199934E+03  0.12500000000E+03 0.  0.
         25    1    1    2    0    0 -0.49931957579E+02  0.87992849083E+02 -0.13158609475E+03  0.20778797417E+03  0.12500000000E+03 0.  0.
         25    1    1    2    0    0  0.95119892300E+02 -0.25332047880E+01  0.10857196307E+03  0.19096356250E+03  0.12500000000E+03 0.  0.
</event>
<event>
 5    0  0.5742667E-005  0.5042699E+03  0.7546771E-02  0.1012670E+00
         21   -1    0    0  502  501  0.00000000000E+00  0.00000000000E+00  0.91307173113E+03  0.91307173113E+03  0.00000000000E+00 0. -1.
         21   -1    0    0  501  502 -0.00000000000E+00 -0.00000000000E+00 -0.27849742330E+03  0.27849742330E+03  0.00000000000E+00 0. -1.
         25    1    1    2    0    0  0.86356253368E+02 -0.75055510269E+02  0.74947428782E+03  0.76839276430E+03  0.12500000000E+03 0.  0.
         25    1    1    2    0    0 -0.15872167282E+03  0.44282757317E+02  0.38346466085E+02  0.21035442348E+03  0.12500000000E+03 0.  0.
         25    1    1    2    0    0  0.72365419448E+02  0.30772752953E+02 -0.15324644607E+03  0.21282196665E+03  0.12500000000E+03 0.  0.
</event>
