<event>
 5    0  0.5677492E-005  0.3289736E+03  0.7546771E-02  0.1071592E+00
         21   -1    0    0  502  501  0.00000000000E+00  0.00000000000E+00  0.68742552871E+03  0.68742552871E+03  0.00000000000E+00 0.  1.
         21   -1    0    0  501  502 -0.00000000000E+00 -0.00000000000E+00 -0.15743324916E+03  0.15743324916E+03  0.00000000000E+00 0.  1.
         25    1    1    2    0    0 -0.11536928639E+03  0.17387736189E+03  0.31996424838E+03  0.40192726888E+03  0.12500000000E+03 0.  0.
         25    1    1    2    0    0  0.36281243796E+02 -0.18660888142E+03  0.18309890535E+03  0.29204351117E+03  0.12500000000E+03 0.  0.
         25    1    1    2    0    0  0.79088042598E+02  0.12731519523E+02  0.26929125813E+02  0.15088799783E+03  0.12500000000E+03 0.  0.
</event>
<event>
 5    0  0.5677492E-005  0.2416312E+03  0.7546771E-02  0.1118711E+00
         21   -1    0    0  502  501  0.00000000000E+00  0.00000000000E+00  0.31506302471E+03  0.31506302471E+03  0.00000000000E+00 0. -1.
         21   -1    0    0  501  502 -0.00000000000E+00 -0.00000000000E+00 -0.18531421662E+03  0.18531421662E+03  0.00000000000E+00 0. -1.
         25    1    1    2    0    0 -0.53152900553E+02  0.11720361732E+03  0.71545983859E+02  0.19314695586E+03  0.12500000000E+03 0.  0.
         25    1    1    2    0    0 -0.28465370061E+02 -0.58910986683E+02  0.20250385000E+02  0.14253371439E+03  0.12500000000E+03 0.  0.
         25    1    1    2    0    0  0.81618270614E+02 -0.58292630637E+02  0.37952439226E+02  0.16469657109E+03  0.12500000000E+03 0.  0.
</event>
<event>
 5    0  0.5898210E-005  0.3102363E+03  0.7546771E-02  0.1080233E+00
         21   -1    0    0  502  501  0.00000000000E+00  0.00000000000E+00  0.54889583423E+03  0.54889583423E+03  0.00000000000E+00 0. -1.
         21   -1    0    0  501  502 -0.00000000000E+00 -0.00000000000E+00 -0.17534571547E+03  0.17534571547E+03  0.00000000000E+00 0. -1.
         25    1    1    2    0    0 -0.73091291365E+02 -0.12492587780E+03  0.19553765573E+03  0.27351194970E+03  0.12500000000E+03 0.  0.
         25    1    1    2    0    0 -0.51202961074E+02  0.43974402108E+02 -0.50700921256E+02  0.15083459378E+03  0.12500000000E+03 0.  0.
         25    1    1    2    0    0  0.12429425244E+03  0.80951475689E+02  0.22871338429E+03  0.29989500622E+03  0.12500000000E+03 0.  0.
</event>
<event>
 5    0  0.5677492E-005  0.2766391E+03  0.7546771E-02  0.1097539E+00
         21   -1    0    0  502  501  0.00000000000E+00  0.00000000000E+00  0.10937513280E+03  0.10937513280E+03  0.00000000000E+00 0.  1.
         21   -1    0    0  501  502 -0.00000000000E+00 -0.00000000000E+00 -0.69969437613E+03  0.69969437613E+03  0.00000000000E+00 0.  1.
         25    1    1    2    0    0  0.68669882189E+02  0.10012955476E+03 -0.41870564744E+03  0.45352056145E+03  0.12500000000E+03 0.  0.
         25    1    1    2    0    0 -0.80810155805E+02 -0.10701777381E+03 -0.80407102490E+02  0.20018338423E+03  0.12500000000E+03 0.  0.
         25    1    1    2    0    0  0.12140273617E+02  0.68882190461E+01 -0.91206493406E+02  0.15536556325E+03  0.12500000000E+03 0.  0.
</event>
<event>
 5    0  0.5677492E-005  0.3157790E+03  0.7546771E-02  0.1077608E+00
         21   -1    0    0  502  501  0.00000000000E+00  0.00000000000E+00  0.11214047008E+04  0.11214047008E+04  0.00000000000E+00 0.  1.
         21   -1    0    0  501  502 -0.00000000000E+00 -0.00000000000E+00 -0.88920946514E+02  0.88920946514E+02  0.00000000000E+00 0.  1.
         25    1    1    2    0    0 -0.12411451345E+03  0.86239620972E+01  0.12647104578E+03  0.21702237349E+03  0.12500000000E+03 0.  0.
         25    1    1    2    0    0  0.11124926054E+03  0.44070012896E+02  0.80577006349E+03  0.82414134663E+03  0.12500000000E+03 0.  0.
         25    1    1    2    0    0  0.12865252917E+02 -0.52693974993E+02  0.10024264500E+03  0.16916192719E+03  0.12500000000E+03 0.  0.
</event>
<event>
 5    0  0.5677492E-005  0.2629970E+03  0.7546771E-02  0.1105356E+00
         21   -1    0    0  502  501  0.00000000000E+00  0.00000000000E+00  0.15846247696E+03  0.15846247696E+03  0.00000000000E+00 0. -1.
         21   -1    0    0  501  502 -0.00000000000E+00 -0.00000000000E+00 -0.43649083681E+03  0.43649083681E+03  0.00000000000E+00 0. -1.
         25    1    1    2    0    0 -0.28386747630E+02  0.40903067585E+02 -0.15059321128E+02  0.13539073651E+03  0.12500000000E+03 0.  0.
         25    1    1    2    0    0 -0.81623274168E+01 -0.73551957789E+02  0.19732606984E+02  0.14659771438E+03  0.12500000000E+03 0.  0.
         25    1    1    2    0    0  0.36549075046E+02  0.32648890204E+02 -0.28270164570E+03  0.31296486289E+03  0.12500000000E+03 0.  0.
</event>
<event>
 5    0  0.5677492E-005  0.2340847E+03  0.7546771E-02  0.1123797E+00
         21   -1    0    0  502  501  0.00000000000E+00  0.00000000000E+00  0.11728394276E+03  0.11728394276E+03  0.00000000000E+00 0.  1.
         21   -1    0    0  501  502 -0.00000000000E+00 -0.00000000000E+00 -0.46720497666E+03  0.46720497666E+03  0.00000000000E+00 0.  1.
         25    1    1    2    0    0 -0.54357533592E+02  0.87083458968E+02 -0.19989357155E+03  0.25713947622E+03  0.12500000000E+03 0.  0.
         25    1    1    2    0    0 -0.44063928968E+01  0.14559718368E-01 -0.86792570153E+02  0.15224114669E+03  0.12500000000E+03 0.  0.
         25    1    1    2    0    0  0.58763926489E+02 -0.87098018687E+02 -0.63234892190E+02  0.17510829651E+03  0.12500000000E+03 0.  0.
</event>
<event>
 5    0  0.5677492E-005  0.2986217E+03  0.7546771E-02  0.1085932E+00
         21   -1    0    0  502  501  0.00000000000E+00  0.00000000000E+00  0.13978568406E+03  0.13978568406E+03  0.00000000000E+00 0. -1.
         21   -1    0    0  501  502 -0.00000000000E+00 -0.00000000000E+00 -0.63794012061E+03  0.63794012061E+03  0.00000000000E+00 0. -1.
         25    1    1    2    0    0 -0.46845144014E+02 -0.54156341128E+01 -0.30815118899E+03  0.33586597310E+03  0.12500000000E+03 0.  0.
         25    1    1    2    0    0 -0.82635219852E+00 -0.14811600285E+03 -0.11159405952E+03  0.22364540523E+03  0.12500000000E+03 0.  0.
         25    1    1    2    0    0  0.47671496212E+02  0.15353163696E+03 -0.78409188037E+02  0.21821442635E+03  0.12500000000E+03 0.  0.
</event>
<event>
 5    0  0.5677492E-005  0.4623356E+03  0.7546771E-02  0.1024106E+00
         21   -1    0    0  502  501  0.00000000000E+00  0.00000000000E+00  0.20998255225E+03  0.20998255225E+03  0.00000000000E+00 0.  1.
         21   -1    0    0  501  502 -0.00000000000E+00 -0.00000000000E+00 -0.10179617882E+04  0.10179617882E+04  0.00000000000E+00 0.  1.
         25    1    1    2    0    0 -0.13769098203E+03  0.27426912948E+03 -0.38263457915E+03  0.50617841033E+03  0.12500000000E+03 0.  0.
         25    1    1    2    0    0 -0.80933130514E+01 -0.81019076883E+02 -0.42383403250E+03  0.44932157709E+03  0.12500000000E+03 0.  0.
         25    1    1    2    0    0  0.14578429508E+03 -0.19325005260E+03 -0.15106243024E+01  0.27244435304E+03  0.12500000000E+03 0.  0.
</event>
<event>
 5    0  0.5677492E-005  0.3687750E+03  0.7546771E-02  0.1055162E+00
         21   -1    0    0  502  501  0.00000000000E+00  0.00000000000E+00  0.81673710700E+03  0.81673710700E+03  0.00000000000E+00 0.  1.
         21   -1    0    0  501  502 -0.00000000000E+00 -0.00000000000E+00 -0.16651016441E+03  0.16651016441E+03  0.00000000000E+00 0.  1.
         25    1    1    2    0    0  0.17966304598E+03  0.88829066315E+02  0.19957376043E+03  0.30923146503E+03  0.12500000000E+03 0.  0.
         25    1    1    2    0    0 -0.17494887876E+03  0.34743599078E+02  0.44802544538E+03  0.49816265171E+03  0.12500000000E+03 0.  0.
         25    1    1    2    0    0 -0.47141672130E+01 -0.12357266539E+03  0.26277367773E+01  0.17585315466E+03  0.12500000000E+03 0.  0.
</event>
<event>
 5    0  0.5677492E-005  0.3306377E+03  0.7546771E-02  0.1070855E+00
         21   -1    0    0  502  501  0.00000000000E+00  0.00000000000E+00  0.67756646886E+02  0.67756646886E+02  0.00000000000E+00 0. -1.
         21   -1    0    0  501  502 -0.00000000000E+00 -0.00000000000E+00 -0.16134396791E+04  0.16134396791E+04  0.00000000000E+00 0. -1.
         25    1    1    2    0    0  0.58913971617E+02  0.60156595601E+02 -0.18665568109E+03  0.23990626363E+03  0.12500000000E+03 0.  0.
         25    1    1    2    0    0 -0.10795109145E+03  0.68182229724E+02 -0.11408406651E+04  0.11547487509E+04  0.12500000000E+03 0.  0.
         25    1    1    2    0    0  0.49037119832E+02 -0.12833882532E+03 -0.21818668605E+03  0.28654131147E+03  0.12500000000E+03 0.  0.
</event>
<event>
 5    0  0.5797497E-005  0.3622860E+03  0.7546771E-02  0.1057682E+00
         21   -1    0    0  502  501  0.00000000000E+00  0.00000000000E+00  0.72089160659E+03  0.72089160659E+03  0.00000000000E+00 0. -1.
         21   -1    0    0  501  502 -0.00000000000E+00 -0.00000000000E+00 -0.18206780765E+03  0.18206780765E+03  0.00000000000E+00 0. -1.
         25    1    1    2    0    0  0.93080054912E+01 -0.61834399820E+02 -0.13899837426E+02  0.14045760018E+03  0.12500000000E+03 0.  0.
         25    1    1    2    0    0  0.15981158276E+03  0.18835271901E+03  0.25217841040E+03  0.37448022566E+03  0.12500000000E+03 0.  0.
         25    1    1    2    0    0 -0.16911958825E+03 -0.12651831919E+03  0.30054522596E+03  0.38802158840E+03  0.12500000000E+03 0.  0.
</event>
<event>
 5    0  0.5677492E-005  0.3425235E+03  0.7546771E-02  0.1065726E+00
         21   -1    0    0  502  501  0.00000000000E+00  0.00000000000E+00  0.61872130084E+03  0.61872130084E+03  0.00000000000E+00 0.  1.
         21   -1    0    0  501  502 -0.00000000000E+00 -0.00000000000E+00 -0.18962070542E+03  0.18962070542E+03  0.00000000000E+00 0.  1.
         25    1    1    2    0    0 -0.19800718157E+03 -0.26556916881E+02  0.78835377644E+02  0.24849975967E+03  0.12500000000E+03 0.  0.
         25    1    1    2    0    0  0.22034725915E+03  0.10051503390E+02  0.34952070280E+03  0.43179123314E+03  0.12500000000E+03 0.  0.
         25    1    1    2    0    0 -0.22340077576E+02  0.16505413491E+02  0.74451498279E+00  0.12805101344E+03  0.12500000000E+03 0.  0.
</event>
<event>
 5    0  0.5677492E-005  0.4268758E+03  0.7546771E-02  0.1034851E+00
         21   -1    0    0  502  501  0.00000000000E+00  0.00000000000E+00  0.61721613102E+03  0.61721613102E+03  0.00000000000E+00 0. -1.
         21   -1    0    0  501  502 -0.00000000000E+00 -0.00000000000E+00 -0.29523365699E+03  0.29523365699E+03  0.00000000000E+00 0. -1.
         25    1    1    2    0    0 -0.10157735805E+02  0.17583814666E+02 -0.20806852299E+03  0.24357725755E+03  0.12500000000E+03 0.  0.
         25    1    1    2    0    0 -0.11978011415E+03  0.42905217926E+02  0.40146476821E+03  0.43930296332E+03  0.12500000000E+03 0.  0.
         25    1    1    2    0    0  0.12993784996E+03 -0.60489032592E+02  0.12858622882E+03  0.22956956714E+03  0.12500000000E+03 0.  0.
</event>
<event>
 5    0  0.5677492E-005  0.7522359E+03  0.7546771E-02  0.9631849E-01
         21   -1    0    0  502  501  0.00000000000E+00  0.00000000000E+00  0.44092940030E+03  0.44092940030E+03  0.00000000000E+00 0. -1.
         21   -1    0    0  501  502 -0.00000000000E+00 -0.00000000000E+00 -0.12833322493E+04  0.12833322493E+04  0.00000000000E+00 0. -1.
         25    1    1    2    0    0 -0.35160699237E+03  0.88107475950E+00 -0.11659057621E+03  0.39095602801E+03  0.12500000000E+03 0.  0.
         25    1    1    2    0    0  0.27236689368E+02 -0.49461441314E+03 -0.27876442025E+03  0.58199644065E+03  0.12500000000E+03 0.  0.
         25    1    1    2    0    0  0.32437030300E+03  0.49373333838E+03 -0.44704785252E+03  0.75130918092E+03  0.12500000000E+03 0.  0.
</event>
<event>
 5    0  0.5677492E-005  0.3295513E+03  0.7546771E-02  0.1071336E+00
         21   -1    0    0  502  501  0.00000000000E+00  0.00000000000E+00  0.62862692257E+03  0.62862692257E+03  0.00000000000E+00 0.  1.
         21   -1    0    0  501  502 -0.00000000000E+00 -0.00000000000E+00 -0.17276397759E+03  0.17276397759E+03  0.00000000000E+00 0.  1.
         25    1    1    2    0    0  0.14849381158E+03  0.88355818318E+02  0.37566691524E+03  0.43198124255E+03  0.12500000000E+03 0.  0.
         25    1    1    2    0    0 -0.15619648530E+03 -0.99896126151E+01  0.93546910968E+02  0.22107274579E+03  0.12500000000E+03 0.  0.
         25    1    1    2    0    0  0.77026737254E+01 -0.78366205703E+02 -0.13350881230E+02  0.14833691182E+03  0.12500000000E+03 0.  0.
</event>
<event>
 5    0  0.5677492E-005  0.3221780E+03  0.7546771E-02  0.1074651E+00
         21   -1    0    0  502  501  0.00000000000E+00  0.00000000000E+00  0.14773454623E+04  0.14773454623E+04  0.00000000000E+00 0.  1.
         21   -1    0    0  501  502 -0.00000000000E+00 -0.00000000000E+00 -0.70260241278E+02  0.70260241278E+02  0.00000000000E+00 0.  1.
         25    1    1    2    0    0  0.10325748804E+03 -0.11636294949E+02  0.50234242526E+03  0.52798714417E+03  0.12500000000E+03 0.  0.
         25    1    1    2    0    0 -0.21702386150E+03 -0.89677891312E+02  0.43044909602E+03  0.50601670419E+03  0.12500000000E+03 0.  0.
         25    1    1    2    0    0  0.11376637346E+03  0.10131418626E+03  0.47429369972E+03  0.51360185520E+03  0.12500000000E+03 0.  0.
</event>
<event>
 5    0  0.5677492E-005  0.2820241E+03  0.7546771E-02  0.1094589E+00
         21   -1    0    0  502  501  0.00000000000E+00  0.00000000000E+00  0.70750299638E+02  0.70750299638E+02  0.00000000000E+00 0.  1.
         21   -1    0    0  501  502 -0.00000000000E+00 -0.00000000000E+00 -0.11242015334E+04  0.11242015334E+04  0.00000000000E+00 0.  1.
         25    1    1    2    0    0 -0.11365376393E+03  0.85436829880E+01 -0.42909708277E+03  0.46123690119E+03  0.12500000000E+03 0.  0.
         25    1    1    2    0    0  0.13944271844E+03 -0.97687174299E+02 -0.46608914714E+03  0.51171393262E+03  0.12500000000E+03 0.  0.
         25    1    1    2    0    0 -0.25788954508E+02  0.89143491311E+02 -0.15826500385E+03  0.22200099923E+03  0.12500000000E+03 0.  0.
</event>
<event>
 5    0  0.5677492E-005  0.2273096E+03  0.7546771E-02  0.1128548E+00
         21   -1    0    0  502  501  0.00000000000E+00  0.00000000000E+00  0.37563253188E+04  0.37563253188E+04  0.00000000000E+00 0.  1.
         21   -1    0    0  501  502 -0.00000000000E+00 -0.00000000000E+00 -0.13755370321E+02  0.13755370321E+02  0.00000000000E+00 0.  1.
         25    1    1    2    0    0  0.54573057401E+02  0.29245926494E+02  0.18869262182E+04  0.18920753410E+04  0.12500000000E+03 0.  0.
         25    1    1    2    0    0 -0.81000449321E+02  0.14774853363E+02  0.81583114404E+03  0.82944850634E+03  0.12500000000E+03 0.  0.
         25    1    1    2    0    0  0.26427391920E+02 -0.44020779857E+02  0.10398125862E+04  0.10485568418E+04  0.12500000000E+03 0.  0.
</event>
<event>
 5    0  0.5677492E-005  0.4524868E+03  0.7546771E-02  0.1026983E+00
         21   -1    0    0  502  501  0.00000000000E+00  0.00000000000E+00  0.16414489362E+03  0.16414489362E+03  0.00000000000E+00 0. -1.
         21   -1    0    0  501  502 -0.00000000000E+00 -0.00000000000E+00 -0.12473386604E+04  0.12473386604E+04  0.00000000000E+00 0.  1.
         25    1    1    2    0    0  0.31843337580E+03  0.13480311579E+03 -0.47741771003E+03  0.60259801252E+03  0.12500000000E+03 0.  0.
         25    1    1    2    0    0 -0.25526470520E+03 -0.40949599542E+02 -0.15222739598E+03  0.32501556811E+03  0.12500000000E+03 0.  0.
         25    1    1    2    0    0 -0.63168670599E+02 -0.93853516247E+02 -0.45354866080E+03  0.48386997341E+03  0.12500000000E+03 0.  0.
</event>
<event>
 5    0  0.5677492E-005  0.3841452E+03  0.7546771E-02  0.1049412E+00
         21   -1    0    0  502  501  0.00000000000E+00  0.00000000000E+00  0.46072306825E+03  0.46072306825E+03  0.00000000000E+00 0.  1.
         21   -1    0    0  501  502 -0.00000000000E+00 -0.00000000000E+00 -0.32029548032E+03  0.32029548032E+03  0.00000000000E+00 0.  1.
         25    1    1    2    0    0  0.51557701015E+02  0.77536732934E+01  0.28056531205E+03  0.31154487688E+03  0.12500000000E+03 0.  0.
         25    1    1    2    0    0  0.11082477717E+03 -0.10498850560E+03  0.98422610404E+01  0.19755148100E+03  0.12500000000E+03 0.  0.
         25    1    1    2    0    0 -0.16238247819E+03  0.97234832308E+02 -0.14997998517E+03  0.27192219069E+03  0.12500000000E+03 0.  0.
</event>
<event>
 5    0  0.8458270E-005  0.7667328E+03  0.7546771E-02  0.9609459E-01
         21   -1    0    0  502  501  0.00000000000E+00  0.00000000000E+00  0.43544823649E+03  0.43544823649E+03  0.00000000000E+00 0.  1.
         21   -1    0    0  501  502 -0.00000000000E+00 -0.00000000000E+00 -0.13500551527E+04  0.13500551527E+04  0.00000000000E+00 0.  1.
         25    1    1    2    0    0 -0.29542804899E+03  0.33487444789E+03 -0.98552284920E+02  0.47408457140E+03  0.12500000000E+03 0.  0.
         25    1    1    2    0    0 -0.10750024902E+03 -0.27094209405E+03 -0.82580785269E+03  0.88461829702E+03  0.12500000000E+03 0.  0.
         25    1    1    2    0    0  0.40292829801E+03 -0.63932353832E+02  0.97532213915E+01  0.42680052078E+03  0.12500000000E+03 0.  0.
</event>
<event>
 5    0  0.5677492E-005  0.2920913E+03  0.7546771E-02  0.1089262E+00
         21   -1    0    0  502  501  0.00000000000E+00  0.00000000000E+00  0.17262537637E+03  0.17262537637E+03  0.00000000000E+00 0. -1.
         21   -1    0    0  501  502 -0.00000000000E+00 -0.00000000000E+00 -0.49423397777E+03  0.49423397777E+03  0.00000000000E+00 0. -1.
         25    1    1    2    0    0 -0.81995835507E+02  0.15074824832E+03 -0.12218497644E+03  0.24495411791E+03  0.12500000000E+03 0.  0.
         25    1    1    2    0    0 -0.24486998055E+02 -0.12329682732E+03 -0.18272004597E+03  0.25458463406E+03  0.12500000000E+03 0.  0.
         25    1    1    2    0    0  0.10648283356E+03 -0.27451421006E+02 -0.16703578987E+02  0.16732060217E+03  0.12500000000E+03 0.  0.
</event>
<event>
 5    0  0.5677492E-005  0.5025365E+03  0.7546771E-02  0.1013119E+00
         21   -1    0    0  502  501  0.00000000000E+00  0.00000000000E+00  0.58670941402E+03  0.58670941402E+03  0.00000000000E+00 0.  1.
         21   -1    0    0  501  502 -0.00000000000E+00 -0.00000000000E+00 -0.43043957144E+03  0.43043957144E+03  0.00000000000E+00 0.  1.
         25    1    1    2    0    0  0.40535998446E+03  0.10361567174E+03  0.52264940962E+02  0.43978352457E+03  0.12500000000E+03 0.  0.
         25    1    1    2    0    0 -0.18011131332E+03 -0.19569138508E+03  0.65728045655E+02  0.30113183054E+03  0.12500000000E+03 0.  0.
         25    1    1    2    0    0 -0.22524867114E+03  0.92075713334E+02  0.38276855965E+02  0.27623363035E+03  0.12500000000E+03 0.  0.
</event>
<event>
 5    0  0.5677492E-005  0.4611257E+03  0.7546771E-02  0.1024455E+00
         21   -1    0    0  502  501  0.00000000000E+00  0.00000000000E+00  0.45705183105E+03  0.45705183105E+03  0.00000000000E+00 0. -1.
         21   -1    0    0  501  502 -0.00000000000E+00 -0.00000000000E+00 -0.46523585422E+03  0.46523585422E+03  0.00000000000E+00 0. -1.
         25    1    1    2    0    0 -0.12949747086E+03  0.26628311879E+03 -0.25804458000E+03  0.41217508365E+03  0.12500000000E+03 0.  0.
         25    1    1    2    0    0  0.98250684314E+01 -0.42283576920E+02  0.17110573767E+03  0.21630211814E+03  0.12500000000E+03 0.  0.
         25    1    1    2    0    0  0.11967240243E+03 -0.22399954187E+03  0.78754819154E+02  0.29381048348E+03  0.12500000000E+03 0.  0.
</event>
<event>
 5    0  0.5677492E-005  0.3761872E+03  0.7546771E-02  0.1052352E+00
         21   -1    0    0  502  501  0.00000000000E+00  0.00000000000E+00  0.44473756292E+03  0.44473756292E+03  0.00000000000E+00 0.  1.
         21   -1    0    0  501  502 -0.00000000000E+00 -0.00000000000E+00 -0.31820301849E+03  0.31820301849E+03  0.00000000000E+00 0.  1.
         25    1    1    2    0    0  0.75313959430E+02 -0.85015454168E+02 -0.84350445342E+02  0.18878510948E+03  0.12500000000E+03 0.  0.
         25    1    1    2    0    0 -0.24119918526E+03  0.60751865448E+02  0.23413324467E+03  0.36374608230E+03  0.12500000000E+03 0.  0.
         25    1    1    2    0    0  0.16588522583E+03  0.24263588720E+02 -0.23248254900E+02  0.21040938962E+03  0.12500000000E+03 0.  0.
</event>
<event>
 5    0  0.5677492E-005  0.2534862E+03  0.7546771E-02  0.1111121E+00
         21   -1    0    0  502  501  0.00000000000E+00  0.00000000000E+00  0.70634405340E+03  0.70634405340E+03  0.00000000000E+00 0. -1.
         21   -1    0    0  501  502 -0.00000000000E+00 -0.00000000000E+00 -0.90968794200E+02  0.90968794200E+02  0.00000000000E+00 0. -1.
         25    1    1    2    0    0  0.69493832925E+02  0.41116490727E+02  0.30624021126E+03  0.34048204889E+03  0.12500000000E+03 0.  0.
         25    1    1    2    0    0  0.59277750392E+02 -0.52512020432E+02  0.19124352546E+03  0.24180663765E+03  0.12500000000E+03 0.  0.
         25    1    1    2    0    0 -0.12877158332E+03  0.11395529705E+02  0.11789152249E+03  0.21502416106E+03  0.12500000000E+03 0.  0.
</event>
<event>
 5    0  0.5677492E-005  0.3611031E+03  0.7546771E-02  0.1058148E+00
         21   -1    0    0  502  501  0.00000000000E+00  0.00000000000E+00  0.13179107585E+03  0.13179107585E+03  0.00000000000E+00 0. -1.
         21   -1    0    0  501  502 -0.00000000000E+00 -0.00000000000E+00 -0.98941017917E+03  0.98941017917E+03  0.00000000000E+00 0. -1.
         25    1    1    2    0    0 -0.89278670244E+02 -0.10350402150E+03 -0.22310690122E+03  0.28997491753E+03  0.12500000000E+03 0.  0.
         25    1    1    2    0    0 -0.17536994462E+03 -0.25666141908E+02 -0.24638628076E+03  0.32824467651E+03  0.12500000000E+03 0.  0.
         25    1    1    2    0    0  0.26464861486E+03  0.12917016340E+03 -0.38812592134E+03  0.50298166097E+03  0.12500000000E+03 0.  0.
</event>
<event>
 5    0  0.5677492E-005  0.2810347E+03  0.7546771E-02  0.1095125E+00
         21   -1    0    0  502  501  0.00000000000E+00  0.00000000000E+00  0.20567186487E+03  0.20567186487E+03  0.00000000000E+00 0.  1.
         21   -1    0    0  501  502 -0.00000000000E+00 -0.00000000000E+00 -0.38401209644E+03  0.38401209644E+03  0.00000000000E+00 0.  1.
         25    1    1    2    0    0  0.12118588189E+03 -0.30628061788E+02  0.23372334123E+01  0.17678958906E+03  0.12500000000E+03 0.  0.
         25    1    1    2    0    0 -0.22030144982E+02  0.35584419561E+02 -0.21255609207E+03  0.25011331528E+03  0.12500000000E+03 0.  0.
         25    1    1    2    0    0 -0.99155736910E+02 -0.49563577735E+01  0.31878627089E+02  0.16278105697E+03  0.12500000000E+03 0.  0.
</event>
<event>
 5    0  0.5677492E-005  0.2926666E+03  0.7546771E-02  0.1088965E+00
         21   -1    0    0  502  501  0.00000000000E+00  0.00000000000E+00  0.48659550066E+02  0.48659550066E+02  0.00000000000E+00 0.  1.
         21   -1    0    0  501  502 -0.00000000000E+00 -0.00000000000E+00 -0.17602661728E+04  0.17602661728E+04  0.00000000000E+00 0.  1.
         25    1    1    2    0    0 -0.95591375354E+02  0.13812421997E+01 -0.50721816523E+03  0.53106956796E+03  0.12500000000E+03 0.  0.
         25    1    1    2    0    0  0.18734893380E+03 -0.94975443294E+02 -0.63833975409E+03  0.68353683110E+03  0.12500000000E+03 0.  0.
         25    1    1    2    0    0 -0.91757558448E+02  0.93594201095E+02 -0.56604870346E+03  0.59431932385E+03  0.12500000000E+03 0.  0.
</event>
<event>
 5    0  0.5677492E-005  0.2197649E+03  0.7546771E-02  0.1134058E+00
         21   -1    0    0  502  501  0.00000000000E+00  0.00000000000E+00  0.16750631573E+03  0.16750631573E+03  0.00000000000E+00 0. -1.
         21   -1    0    0  501  502 -0.00000000000E+00 -0.00000000000E+00 -0.28832714849E+03  0.28832714849E+03  0.00000000000E+00 0. -1.
         25    1    1    2    0    0 -0.33721399044E+01 -0.41961703267E+02  0.22982806276E+02  0.13388564245E+03  0.12500000000E+03 0.  0.
         25    1    1    2    0    0  0.35810286783E+02 -0.23282995619E+02 -0.24348965801E+02  0.13432180262E+03  0.12500000000E+03 0.  0.
         25    1    1    2    0    0 -0.32438146879E+02  0.65244698886E+02 -0.11945467323E+03  0.18762601915E+03  0.12500000000E+03 0.  0.
</event>
<event>
 5    0  0.5677492E-005  0.3889844E+03  0.7546771E-02  0.1047662E+00
         21   -1    0    0  502  501  0.00000000000E+00  0.00000000000E+00  0.13431213106E+04  0.13431213106E+04  0.00000000000E+00 0. -1.
         21   -1    0    0  501  502 -0.00000000000E+00 -0.00000000000E+00 -0.11265464175E+03  0.11265464175E+03  0.00000000000E+00 0. -1.
         25    1    1    2    0    0 -0.98449534026E+02 -0.10021811031E+03  0.97169284348E+03  0.98972115389E+03  0.12500000000E+03 0.  0.
         25    1    1    2    0    0  0.13313398421E+03 -0.44934744179E+02  0.90377451177E+02  0.20865491288E+03  0.12500000000E+03 0.  0.
         25    1    1    2    0    0 -0.34684450185E+02  0.14515285449E+03  0.16839637415E+03  0.25739988555E+03  0.12500000000E+03 0.  0.
</event>
<event>
 5    0  0.5677492E-005  0.3244911E+03  0.7546771E-02  0.1073601E+00
         21   -1    0    0  502  501  0.00000000000E+00  0.00000000000E+00  0.50538012018E+02  0.50538012018E+02  0.00000000000E+00 0.  1.
         21   -1    0    0  501  502 -0.00000000000E+00 -0.00000000000E+00 -0.20834709330E+04  0.20834709330E+04  0.00000000000E+00 0.  1.
         25    1    1    2    0    0  0.12544307535E+03  0.14588991103E+03 -0.93601066948E+03  0.96372236909E+03  0.12500000000E+03 0.  0.
         25    1    1    2    0    0  0.68447243102E+02 -0.93872479695E+02 -0.42618078083E+03  0.45907747220E+03  0.12500000000E+03 0.  0.
         25    1    1    2    0    0 -0.19389031846E+03 -0.52017431330E+02 -0.67074147066E+03  0.71120910372E+03  0.12500000000E+03 0.  0.
</event>
<event>
 5    0  0.5677492E-005  0.3714360E+03  0.7546771E-02  0.1054145E+00
         21   -1    0    0  502  501  0.00000000000E+00  0.00000000000E+00  0.12573517044E+03  0.12573517044E+03  0.00000000000E+00 0. -1.
         21   -1    0    0  501  502 -0.00000000000E+00 -0.00000000000E+00 -0.10972644198E+04  0.10972644198E+04  0.00000000000E+00 0. -1.
         25    1    1    2    0    0 -0.13540198741E+03  0.21764282494E+03 -0.30372357922E+03  0.41662346311E+03  0.12500000000E+03 0.  0.
         25    1    1    2    0    0  0.14101182958E+03 -0.17106224512E+03 -0.21142315782E+03  0.33086459383E+03  0.12500000000E+03 0.  0.
         25    1    1    2    0    0 -0.56098421700E+01 -0.46580579816E+02 -0.45638251231E+03  0.47551153328E+03  0.12500000000E+03 0.  0.
</event>
<event>
 5    0  0.5677492E-005  0.3204645E+03  0.7546771E-02  0.1075436E+00
         21   -1    0    0  502  501  0.00000000000E+00  0.00000000000E+00  0.16266230180E+03  0.16266230180E+03  0.00000000000E+00 0. -1.
         21   -1    0    0  501  502 -0.00000000000E+00 -0.00000000000E+00 -0.63135392386E+03  0.63135392386E+03  0.00000000000E+00 0. -1.
         25    1    1    2    0    0  0.54424811179E+02 -0.74548202599E+02 -0.16263427054E+03  0.22493199091E+03  0.12500000000E+03 0.  0.
         25    1    1    2    0    0  0.72640607242E+02  0.20711619564E+03 -0.20375265893E+03  0.32452106609E+03  0.12500000000E+03 0.  0.
         25    1    1    2    0    0 -0.12706541842E+03 -0.13256799304E+03 -0.10230469259E+03  0.24456316866E+03  0.12500000000E+03 0.  0.
</event>
<event>
 5    0  0.5677492E-005  0.4907849E+03  0.7546771E-02  0.1016213E+00
         21   -1    0    0  502  501  0.00000000000E+00  0.00000000000E+00  0.55766776434E+03  0.55766776434E+03  0.00000000000E+00 0.  1.
         21   -1    0    0  501  502 -0.00000000000E+00 -0.00000000000E+00 -0.43192356840E+03  0.43192356840E+03  0.00000000000E+00 0.  1.
         25    1    1    2    0    0 -0.62945830881E+02  0.10010052112E+03  0.42186354975E+03  0.45560525300E+03  0.12500000000E+03 0.  0.
         25    1    1    2    0    0  0.79959982890E+02 -0.64488531757E+02 -0.35511748117E+03  0.39023812605E+03  0.12500000000E+03 0.  0.
         25    1    1    2    0    0 -0.17014152009E+02 -0.35611989367E+02  0.58998127361E+02  0.14374795368E+03  0.12500000000E+03 0.  0.
</event>
<event>
 5    0  0.5677492E-005  0.2539980E+03  0.7546771E-02  0.1110804E+00
         21   -1    0    0  502  501  0.00000000000E+00  0.00000000000E+00  0.15168307586E+03  0.15168307586E+03  0.00000000000E+00 0. -1.
         21   -1    0    0  501  502 -0.00000000000E+00 -0.00000000000E+00 -0.42532748672E+03  0.42532748672E+03  0.00000000000E+00 0. -1.
         25    1    1    2    0    0 -0.75991544755E+02  0.11611237848E+02  0.19819843476E+02  0.14807890435E+03  0.12500000000E+03 0.  0.
         25    1    1    2    0    0 -0.14323867439E+02 -0.69723680872E+02 -0.10216156510E+03  0.17643284909E+03  0.12500000000E+03 0.  0.
         25    1    1    2    0    0  0.90315412194E+02  0.58112443024E+02 -0.19130268923E+03  0.25249880915E+03  0.12500000000E+03 0.  0.
</event>
<event>
 5    0  0.5677492E-005  0.2954762E+03  0.7546771E-02  0.1087524E+00
         21   -1    0    0  502  501  0.00000000000E+00  0.00000000000E+00  0.31911344145E+03  0.31911344145E+03  0.00000000000E+00 0. -1.
         21   -1    0    0  501  502 -0.00000000000E+00 -0.00000000000E+00 -0.27358982317E+03  0.27358982317E+03  0.00000000000E+00 0. -1.
         25    1    1    2    0    0 -0.98660192780E+01  0.28072222506E+02 -0.17562949783E+03  0.21761458710E+03  0.12500000000E+03 0.  0.
         25    1    1    2    0    0  0.22064287879E+02  0.39727082773E+02  0.29682515491E+02  0.13627591728E+03  0.12500000000E+03 0.  0.
         25    1    1    2    0    0 -0.12198268602E+02 -0.67799305280E+02  0.19147060062E+03  0.23881276024E+03  0.12500000000E+03 0.  0.
</event>
<event>
 5    0  0.5677492E-005  0.3554199E+03  0.7546771E-02  0.1060412E+00
         21   -1    0    0  502  501  0.00000000000E+00  0.00000000000E+00  0.25576552449E+03  0.25576552449E+03  0.00000000000E+00 0. -1.
         21   -1    0    0  501  502 -0.00000000000E+00 -0.00000000000E+00 -0.49390268385E+03  0.49390268385E+03  0.00000000000E+00 0. -1.
         25    1    1    2    0    0  0.45033630987E+02  0.13778279234E+03 -0.22275202691E+03  0.29369302219E+03  0.12500000000E+03 0.  0.
         25    1    1    2    0    0  0.14786967026E+03 -0.94196145745E+02  0.30766038348E+02  0.21750839610E+03  0.12500000000E+03 0.  0.
         25    1    1    2    0    0 -0.19290330125E+03 -0.43586646600E+02 -0.46151170793E+02  0.23846679006E+03  0.12500000000E+03 0.  0.
</event>
<event>
 5    0  0.5677492E-005  0.2732901E+03  0.7546771E-02  0.1099411E+00
         21   -1    0    0  502  501  0.00000000000E+00  0.00000000000E+00  0.78855171018E+02  0.78855171018E+02  0.00000000000E+00 0.  1.
         21   -1    0    0  501  502 -0.00000000000E+00 -0.00000000000E+00 -0.94714751744E+03  0.94714751744E+03  0.00000000000E+00 0.  1.
         25    1    1    2    0    0 -0.33566796285E+02 -0.43414152042E+02 -0.29040241259E+03  0.32088951315E+03  0.12500000000E+03 0.  0.
         25    1    1    2    0    0  0.16060779633E+03 -0.39327018729E+02 -0.28462529687E+03  0.35210515228E+03  0.12500000000E+03 0.  0.
         25    1    1    2    0    0 -0.12704100004E+03  0.82741170771E+02 -0.29326463696E+03  0.35300802303E+03  0.12500000000E+03 0.  0.
</event>
<event>
 5    0  0.5677492E-005  0.2416998E+03  0.7546771E-02  0.1118666E+00
         21   -1    0    0  502  501  0.00000000000E+00  0.00000000000E+00  0.19977207290E+03  0.19977207290E+03  0.00000000000E+00 0. -1.
         21   -1    0    0  501  502 -0.00000000000E+00 -0.00000000000E+00 -0.29242711814E+03  0.29242711814E+03  0.00000000000E+00 0. -1.
         25    1    1    2    0    0 -0.69094602207E+02  0.81888821345E+02 -0.11779897182E+02  0.16505638156E+03  0.12500000000E+03 0.  0.
         25    1    1    2    0    0  0.97019655822E+02 -0.89758613734E+02 -0.14044295914E+02  0.18246003563E+03  0.12500000000E+03 0.  0.
         25    1    1    2    0    0 -0.27925053615E+02  0.78697923892E+01 -0.66830852141E+02  0.14468277385E+03  0.12500000000E+03 0.  0.
</event>
<event>
 5    0  0.5677492E-005  0.2268372E+03  0.7546771E-02  0.1128886E+00
         21   -1    0    0  502  501  0.00000000000E+00  0.00000000000E+00  0.27391675421E+04  0.27391675421E+04  0.00000000000E+00 0. -1.
         21   -1    0    0  501  502 -0.00000000000E+00 -0.00000000000E+00 -0.18784939030E+02  0.18784939030E+02  0.00000000000E+00 0. -1.
         25    1    1    2    0    0  0.54258544613E+02  0.35972051901E+02  0.45501663993E+03  0.47634349035E+03  0.12500000000E+03 0.  0.
         25    1    1    2    0    0 -0.32513432314E+02 -0.57165671910E+02  0.10508515736E+04  0.10603014038E+04  0.12500000000E+03 0.  0.
         25    1    1    2    0    0 -0.21745112299E+02  0.21193620009E+02  0.12145143896E+04  0.12213075870E+04  0.12500000000E+03 0.  0.
</event>
<event>
 5    0  0.5677492E-005  0.3694963E+03  0.7546771E-02  0.1054886E+00
         21   -1    0    0  502  501  0.00000000000E+00  0.00000000000E+00  0.25726706033E+03  0.25726706033E+03  0.00000000000E+00 0. -1.
         21   -1    0    0  501  502 -0.00000000000E+00 -0.00000000000E+00 -0.53068412098E+03  0.53068412098E+03  0.00000000000E+00 0. -1.
         25    1    1    2    0    0  0.41738141532E+02  0.20542367093E+03 -0.18839898631E+03  0.30831823670E+03  0.12500000000E+03 0.  0.
         25    1    1    2    0    0  0.11635098646E+02 -0.15587284012E+03  0.11648788435E+03  0.23157319579E+03  0.12500000000E+03 0.  0.
         25    1    1    2    0    0 -0.53373240178E+02 -0.49550830815E+02 -0.20150595869E+03  0.24805974883E+03  0.12500000000E+03 0.  0.
</event>
<event>
 5    0  0.5677492E-005  0.3045272E+03  0.7546771E-02  0.1082999E+00
         21   -1    0    0  502  501  0.00000000000E+00  0.00000000000E+00  0.13968974505E+03  0.13968974505E+03  0.00000000000E+00 0. -1.
         21   -1    0    0  501  502 -0.00000000000E+00 -0.00000000000E+00 -0.66387684266E+03  0.66387684266E+03  0.00000000000E+00 0. -1.
         25    1    1    2    0    0  0.33128828029E+02 -0.15934521378E+03 -0.15874856159E+03  0.25945042341E+03  0.12500000000E+03 0.  0.
         25    1    1    2    0    0  0.82663709582E+02  0.82805692130E+01 -0.56605718579E+02  0.16040905238E+03  0.12500000000E+03 0.  0.
         25    1    1    2    0    0 -0.11579253761E+03  0.15106464457E+03 -0.30883281744E+03  0.38370711192E+03  0.12500000000E+03 0.  0.
</event>
<event>
 5    0  0.5677492E-005  0.4122566E+03  0.7546771E-02  0.1039616E+00
         21   -1    0    0  502  501  0.00000000000E+00  0.00000000000E+00  0.11389035671E+04  0.11389035671E+04  0.00000000000E+00 0.  1.
         21   -1    0    0  501  502 -0.00000000000E+00 -0.00000000000E+00 -0.14922732304E+03  0.14922732304E+03  0.00000000000E+00 0.  1.
         25    1    1    2    0    0  0.22074844386E+03  0.18719056396E+03  0.45281057368E+03  0.55175411039E+03  0.12500000000E+03 0.  0.
         25    1    1    2    0    0 -0.19911218847E+03 -0.28714359314E+02  0.46353975195E+03  0.52054229383E+03  0.12500000000E+03 0.  0.
         25    1    1    2    0    0 -0.21636255391E+02 -0.15847620464E+03  0.73325918402E+02  0.21583448588E+03  0.12500000000E+03 0.  0.
</event>
<event>
 5    0  0.5677492E-005  0.2545117E+03  0.7546771E-02  0.1110486E+00
         21   -1    0    0  502  501  0.00000000000E+00  0.00000000000E+00  0.10936885435E+04  0.10936885435E+04  0.00000000000E+00 0.  1.
         21   -1    0    0  501  502 -0.00000000000E+00 -0.00000000000E+00 -0.59227304678E+02  0.59227304678E+02  0.00000000000E+00 0.  1.
         25    1    1    2    0    0 -0.73693557287E+02  0.22177965731E+02  0.42706054032E+03  0.45158421988E+03  0.12500000000E+03 0.  0.
         25    1    1    2    0    0  0.75615308590E+02 -0.59018561497E+02  0.12352312867E+03  0.20020946234E+03  0.12500000000E+03 0.  0.
         25    1    1    2    0    0 -0.19217513028E+01  0.36840595766E+02  0.48387756982E+03  0.50112216594E+03  0.12500000000E+03 0.  0.
</event>
<event>
 5    0  0.5677492E-005  0.3579993E+03  0.7546771E-02  0.1059379E+00
         21   -1    0    0  502  501  0.00000000000E+00  0.00000000000E+00  0.46759933553E+03  0.46759933553E+03  0.00000000000E+00 0. -1.
         21   -1    0    0  501  502 -0.00000000000E+00 -0.00000000000E+00 -0.27408822360E+03  0.27408822360E+03  0.00000000000E+00 0. -1.
         25    1    1    2    0    0  0.45490209247E+02  0.15373074326E+03  0.14801821709E+03  0.25146946763E+03  0.12500000000E+03 0.  0.
         25    1    1    2    0    0 -0.29391548235E+02  0.12677863996E+03  0.11318218451E+02  0.18080317676E+03  0.12500000000E+03 0.  0.
         25    1    1    2    0    0 -0.16098661012E+02 -0.28050938322E+03  0.34174676386E+02  0.30941491474E+03  0.12500000000E+03 0.  0.
</event>
<event>
 5    0  0.5677492E-005  0.6411438E+03  0.7546771E-02  0.9823541E-01
         21   -1    0    0  502  501  0.00000000000E+00  0.00000000000E+00  0.50205234279E+03  0.50205234279E+03  0.00000000000E+00 0. -1.
         21   -1    0    0  501  502 -0.00000000000E+00 -0.00000000000E+00 -0.81877007148E+03  0.81877007148E+03  0.00000000000E+00 0. -1.
         25    1    1    2    0    0 -0.12553683462E+02  0.36162954851E+03  0.33572088718E+03  0.50918271712E+03  0.12500000000E+03 0.  0.
         25    1    1    2    0    0 -0.84511726320E+02 -0.20200383541E+03 -0.40745587450E+03  0.47915871177E+03  0.12500000000E+03 0.  0.
         25    1    1    2    0    0  0.97065409783E+02 -0.15962571311E+03 -0.24498274137E+03  0.33248098537E+03  0.12500000000E+03 0.  0.
</event>
<event>
 5    0  0.5677492E-005  0.3022679E+03  0.7546771E-02  0.1084112E+00
         21   -1    0    0  502  501  0.00000000000E+00  0.00000000000E+00  0.35970115479E+03  0.35970115479E+03  0.00000000000E+00 0. -1.
         21   -1    0    0  501  502 -0.00000000000E+00 -0.00000000000E+00 -0.25400498216E+03  0.25400498216E+03  0.00000000000E+00 0. -1.
         25    1    1    2    0    0  0.14335982045E+02 -0.20682007766E+02  0.25234070975E+03  0.28272619197E+03  0.12500000000E+03 0.  0.
         25    1    1    2    0    0 -0.67636256519E+02 -0.81524598592E+01 -0.12682443275E+03  0.19065823491E+03  0.12500000000E+03 0.  0.
         25    1    1    2    0    0  0.53300274474E+02  0.28834467625E+02 -0.19820104374E+02  0.14032171008E+03  0.12500000000E+03 0.  0.
</event>
<event>
 5    0  0.7110604E-005  0.5756025E+03  0.7546771E-02  0.9957357E-01
         21   -1    0    0  502  501  0.00000000000E+00  0.00000000000E+00  0.61317607901E+03  0.61317607901E+03  0.00000000000E+00 0.  1.
         21   -1    0    0  501  502 -0.00000000000E+00 -0.00000000000E+00 -0.54033134500E+03  0.54033134500E+03  0.00000000000E+00 0.  1.
         25    1    1    2    0    0 -0.28784304559E+03 -0.18285965887E+03 -0.23278741907E+03  0.43140034332E+03  0.12500000000E+03 0.  0.
         25    1    1    2    0    0  0.13775763460E+03  0.19723133921E+03 -0.85839127179E+02  0.28437778186E+03  0.12500000000E+03 0.  0.
         25    1    1    2    0    0  0.15008541098E+03 -0.14371680341E+02  0.39147128026E+03  0.43772929883E+03  0.12500000000E+03 0.  0.
</event>
<event>
 5    0  0.6006883E-005  0.2788104E+03  0.7546771E-02  0.1096340E+00
         21   -1    0    0  502  501  0.00000000000E+00  0.00000000000E+00  0.13103678720E+03  0.13103678720E+03  0.00000000000E+00 0. -1.
         21   -1    0    0  501  502 -0.00000000000E+00 -0.00000000000E+00 -0.59323199526E+03  0.59323199526E+03  0.00000000000E+00 0. -1.
         25    1    1    2    0    0 -0.38409796099E+02 -0.18974729285E+02 -0.15525475895E+02  0.13304658278E+03  0.12500000000E+03 0.  0.
         25    1    1    2    0    0 -0.18377624734E+02  0.13444201509E+03 -0.32738179527E+03  0.37578748301E+03  0.12500000000E+03 0.  0.
         25    1    1    2    0    0  0.56787420833E+02 -0.11546728580E+03 -0.11928793690E+03  0.21543471667E+03  0.12500000000E+03 0.  0.
</event>
<event>
 5    0  0.5677492E-005  0.2971741E+03  0.7546771E-02  0.1086662E+00
         21   -1    0    0  502  501  0.00000000000E+00  0.00000000000E+00  0.10966749028E+04  0.10966749028E+04  0.00000000000E+00 0. -1.
         21   -1    0    0  501  502 -0.00000000000E+00 -0.00000000000E+00 -0.80527473021E+02  0.80527473021E+02  0.00000000000E+00 0. -1.
         25    1    1    2    0    0  0.62540352736E+00 -0.57437115566E+01  0.57931898650E+03  0.59267939855E+03  0.12500000000E+03 0.  0.
         25    1    1    2    0    0 -0.11640365920E+03  0.95176188808E+02  0.23394234632E+03  0.30489726170E+03  0.12500000000E+03 0.  0.
         25    1    1    2    0    0  0.11577825567E+03 -0.89432477252E+02  0.20288609700E+03  0.27962571561E+03  0.12500000000E+03 0.  0.
</event>
<event>
 5    0  0.5677492E-005  0.2130603E+03  0.7546771E-02  0.1139165E+00
         21   -1    0    0  502  501  0.00000000000E+00  0.00000000000E+00  0.12110623156E+04  0.12110623156E+04  0.00000000000E+00 0. -1.
         21   -1    0    0  501  502 -0.00000000000E+00 -0.00000000000E+00 -0.37483369317E+02  0.37483369317E+02  0.00000000000E+00 0. -1.
         25    1    1    2    0    0 -0.19328672534E+02 -0.21042814446E+02  0.38736974320E+03  0.40804009064E+03  0.12500000000E+03 0.  0.
         25    1    1    2    0    0 -0.33394692596E+02  0.19657355757E+01  0.57033007473E+03  0.58482515657E+03  0.12500000000E+03 0.  0.
         25    1    1    2    0    0  0.52723365130E+02  0.19077078870E+02  0.21587912833E+03  0.25568043769E+03  0.12500000000E+03 0.  0.
</event>
<event>
 5    0  0.5677492E-005  0.3771981E+03  0.7546771E-02  0.1051974E+00
         21   -1    0    0  502  501  0.00000000000E+00  0.00000000000E+00  0.24194109188E+04  0.24194109188E+04  0.00000000000E+00 0.  1.
         21   -1    0    0  501  502 -0.00000000000E+00 -0.00000000000E+00 -0.58807053985E+02  0.58807053985E+02  0.00000000000E+00 0.  1.
         25    1    1    2    0    0  0.16200980737E+03  0.12473595206E+03  0.66430657762E+03  0.70621134548E+03  0.12500000000E+03 0.  0.
         25    1    1    2    0    0 -0.63108611840E+02  0.42958743795E+02  0.15429465415E+03  0.21274395610E+03  0.12500000000E+03 0.  0.
         25    1    1    2    0    0 -0.98901195530E+02 -0.16769469585E+03  0.15420026330E+04  0.15592626712E+04  0.12500000000E+03 0.  0.
</event>
<event>
 5    0  0.5677492E-005  0.3385958E+03  0.7546771E-02  0.1067396E+00
         21   -1    0    0  502  501  0.00000000000E+00  0.00000000000E+00  0.31626628729E+03  0.31626628729E+03  0.00000000000E+00 0. -1.
         21   -1    0    0  501  502 -0.00000000000E+00 -0.00000000000E+00 -0.36250175523E+03  0.36250175523E+03  0.00000000000E+00 0. -1.
         25    1    1    2    0    0 -0.65134529489E+02  0.12572572390E+03  0.27926266301E+02  0.19093019911E+03  0.12500000000E+03 0.  0.
         25    1    1    2    0    0 -0.54392037208E+02 -0.23703304774E+03 -0.15102599195E+02  0.27385442836E+03  0.12500000000E+03 0.  0.
         25    1    1    2    0    0  0.11952656670E+03  0.11130732384E+03 -0.59059135040E+02  0.21398341505E+03  0.12500000000E+03 0.  0.
</event>
<event>
 5    0  0.5677492E-005  0.3099701E+03  0.7546771E-02  0.1080360E+00
         21   -1    0    0  502  501  0.00000000000E+00  0.00000000000E+00  0.24566394740E+04  0.24566394740E+04  0.00000000000E+00 0.  1.
         21   -1    0    0  501  502 -0.00000000000E+00 -0.00000000000E+00 -0.39110935197E+02  0.39110935197E+02  0.00000000000E+00 0.  1.
         25    1    1    2    0    0 -0.69988517217E+02  0.97237237007E+02  0.14700350592E+04  0.14801964559E+04  0.12500000000E+03 0.  0.
         25    1    1    2    0    0  0.57752007800E+00 -0.14973955768E+03  0.36945585581E+03  0.41778570829E+03  0.12500000000E+03 0.  0.
         25    1    1    2    0    0  0.69410997139E+02  0.52502320677E+02  0.57803762376E+03  0.59776824496E+03  0.12500000000E+03 0.  0.
</event>
<event>
 5    0  0.5677492E-005  0.3583335E+03  0.7546771E-02  0.1059246E+00
         21   -1    0    0  502  501  0.00000000000E+00  0.00000000000E+00  0.23577106980E+03  0.23577106980E+03  0.00000000000E+00 0. -1.
         21   -1    0    0  501  502 -0.00000000000E+00 -0.00000000000E+00 -0.54460826261E+03  0.54460826261E+03  0.00000000000E+00 0. -1.
         25    1    1    2    0    0 -0.50166567282E+02  0.19157716335E+03 -0.53399743623E+02  0.24019789051E+03  0.12500000000E+03 0.  0.
         25    1    1    2    0    0  0.20083056670E+03 -0.87537792241E+02 -0.11092920888E+03  0.27554685804E+03  0.12500000000E+03 0.  0.
         25    1    1    2    0    0 -0.15066399942E+03 -0.10403937111E+03 -0.14450824030E+03  0.26463458386E+03  0.12500000000E+03 0.  0.
</event>
<event>
 5    0  0.5677492E-005  0.3846249E+03  0.7546771E-02  0.1049237E+00
         21   -1    0    0  502  501  0.00000000000E+00  0.00000000000E+00  0.87762083897E+03  0.87762083897E+03  0.00000000000E+00 0. -1.
         21   -1    0    0  501  502 -0.00000000000E+00 -0.00000000000E+00 -0.16856521633E+03  0.16856521633E+03  0.00000000000E+00 0. -1.
         25    1    1    2    0    0 -0.26773984534E+03  0.10050383118E+03  0.32015555881E+03  0.44711321464E+03  0.12500000000E+03 0.  0.
         25    1    1    2    0    0  0.29030957324E+03 -0.72384950416E+02  0.25641363803E+03  0.41339107771E+03  0.12500000000E+03 0.  0.
         25    1    1    2    0    0 -0.22569727900E+02 -0.28118880767E+02  0.13248642580E+03  0.18568176295E+03  0.12500000000E+03 0.  0.
</event>
<event>
 5    0  0.5677492E-005  0.3200596E+03  0.7546771E-02  0.1075622E+00
         21   -1    0    0  502  501  0.00000000000E+00  0.00000000000E+00  0.15472088679E+03  0.15472088679E+03  0.00000000000E+00 0. -1.
         21   -1    0    0  501  502 -0.00000000000E+00 -0.00000000000E+00 -0.66208363112E+03  0.66208363112E+03  0.00000000000E+00 0. -1.
         25    1    1    2    0    0  0.19377019674E+01  0.11583611531E+03 -0.14005641664E+02  0.17100560897E+03  0.12500000000E+03 0.  0.
         25    1    1    2    0    0  0.27231294623E+02  0.43407057012E+02 -0.28689612073E+02  0.13810796446E+03  0.12500000000E+03 0.  0.
         25    1    1    2    0    0 -0.29168996590E+02 -0.15924317232E+03 -0.46466749060E+03  0.50769094449E+03  0.12500000000E+03 0.  0.
</event>
<event>
 5    0  0.6494216E-005  0.2785209E+03  0.7546771E-02  0.1096500E+00
         21   -1    0    0  502  501  0.00000000000E+00  0.00000000000E+00  0.61895272716E+03  0.61895272716E+03  0.00000000000E+00 0.  1.
         21   -1    0    0  501  502 -0.00000000000E+00 -0.00000000000E+00 -0.12533085366E+03  0.12533085366E+03  0.00000000000E+00 0.  1.
         25    1    1    2    0    0 -0.71874258567E+02  0.47749535226E+02  0.15922351379E+03  0.22005239036E+03  0.12500000000E+03 0.  0.
         25    1    1    2    0    0  0.13686285678E+02  0.11951902497E+03  0.83112034713E+02  0.19236611463E+03  0.12500000000E+03 0.  0.
         25    1    1    2    0    0  0.58187972890E+02 -0.16726856019E+03  0.25128632501E+03  0.33186507583E+03  0.12500000000E+03 0.  0.
</event>
<event>
 5    0  0.5677492E-005  0.2221083E+03  0.7546771E-02  0.1132321E+00
         21   -1    0    0  502  501  0.00000000000E+00  0.00000000000E+00  0.48285758834E+03  0.48285758834E+03  0.00000000000E+00 0. -1.
         21   -1    0    0  501  502 -0.00000000000E+00 -0.00000000000E+00 -0.10216694572E+03  0.10216694572E+03  0.00000000000E+00 0. -1.
         25    1    1    2    0    0 -0.58851892569E+02  0.33658527224E+02  0.16114714854E+03  0.21491822909E+03  0.12500000000E+03 0.  0.
         25    1    1    2    0    0  0.69150873564E+02  0.19253205323E+02  0.17533534685E+03  0.22698020417E+03  0.12500000000E+03 0.  0.
         25    1    1    2    0    0 -0.10298980995E+02 -0.52911732547E+02  0.44208147234E+02  0.14312610081E+03  0.12500000000E+03 0.  0.
</event>
<event>
 5    0  0.5677492E-005  0.2644646E+03  0.7546771E-02  0.1104490E+00
         21   -1    0    0  502  501  0.00000000000E+00  0.00000000000E+00  0.40138886575E+03  0.40138886575E+03  0.00000000000E+00 0. -1.
         21   -1    0    0  501  502 -0.00000000000E+00 -0.00000000000E+00 -0.17424872700E+03  0.17424872700E+03  0.00000000000E+00 0. -1.
         25    1    1    2    0    0 -0.10489448317E+03  0.83683346510E+02  0.51553274802E+02  0.19049539424E+03  0.12500000000E+03 0.  0.
         25    1    1    2    0    0  0.52775875514E+02  0.57106253812E+02  0.82338461880E+02  0.16867435954E+03  0.12500000000E+03 0.  0.
         25    1    1    2    0    0  0.52118607657E+02 -0.14078960032E+03  0.93248402064E+02  0.21646783897E+03  0.12500000000E+03 0.  0.
</event>
<event>
 5    0  0.5677492E-005  0.2958617E+03  0.7546771E-02  0.1087328E+00
         21   -1    0    0  502  501  0.00000000000E+00  0.00000000000E+00  0.11069092884E+04  0.11069092884E+04  0.00000000000E+00 0. -1.
         21   -1    0    0  501  502 -0.00000000000E+00 -0.00000000000E+00 -0.79079757964E+02  0.79079757964E+02  0.00000000000E+00 0.  1.
         25    1    1    2    0    0  0.21141366652E+03  0.16582186574E+01  0.42336953880E+03  0.48945403713E+03  0.12500000000E+03 0.  0.
         25    1    1    2    0    0 -0.10949542945E+03 -0.18896674581E+02  0.41315394808E+03  0.44572134590E+03  0.12500000000E+03 0.  0.
         25    1    1    2    0    0 -0.10191823707E+03  0.17238455923E+02  0.19130604356E+03  0.25081366333E+03  0.12500000000E+03 0.  0.
</event>
<event>
 5    0  0.5677492E-005  0.3093173E+03  0.7546771E-02  0.1080674E+00
         21   -1    0    0  502  501  0.00000000000E+00  0.00000000000E+00  0.64494522995E+03  0.64494522995E+03  0.00000000000E+00 0. -1.
         21   -1    0    0  501  502 -0.00000000000E+00 -0.00000000000E+00 -0.14834931167E+03  0.14834931167E+03  0.00000000000E+00 0. -1.
         25    1    1    2    0    0  0.58688090335E+02  0.78626210483E+02  0.35399284434E+03  0.38802359048E+03  0.12500000000E+03 0.  0.
         25    1    1    2    0    0  0.54999150207E+02  0.13150014293E+02  0.16167855861E+03  0.21204430130E+03  0.12500000000E+03 0.  0.
         25    1    1    2    0    0 -0.11368724054E+03 -0.91776224776E+02 -0.19075484664E+02  0.19322664985E+03  0.12500000000E+03 0.  0.
</event>
<event>
 5    0  0.5677492E-005  0.2838296E+03  0.7546771E-02  0.1093616E+00
         21   -1    0    0  502  501  0.00000000000E+00  0.00000000000E+00  0.10180040184E+04  0.10180040184E+04  0.00000000000E+00 0.  1.
         21   -1    0    0  501  502 -0.00000000000E+00 -0.00000000000E+00 -0.79134485457E+02  0.79134485457E+02  0.00000000000E+00 0.  1.
         25    1    1    2    0    0  0.61876258398E+02 -0.53406076737E+02  0.18762235648E+03  0.23980831728E+03  0.12500000000E+03 0.  0.
         25    1    1    2    0    0 -0.28679647596E+02  0.98374186518E+02  0.96134792339E+02  0.18806089720E+03  0.12500000000E+03 0.  0.
         25    1    1    2    0    0 -0.33196610802E+02 -0.44968109781E+02  0.65511238416E+03  0.66926928941E+03  0.12500000000E+03 0.  0.
</event>
<event>
 5    0  0.5677492E-005  0.3674151E+03  0.7546771E-02  0.1055686E+00
         21   -1    0    0  502  501  0.00000000000E+00  0.00000000000E+00  0.10270368190E+03  0.10270368190E+03  0.00000000000E+00 0.  1.
         21   -1    0    0  501  502 -0.00000000000E+00 -0.00000000000E+00 -0.13144011654E+04  0.13144011654E+04  0.00000000000E+00 0.  1.
         25    1    1    2    0    0 -0.66592956963E+02  0.20535121318E+03 -0.53963799059E+03  0.59450643694E+03  0.12500000000E+03 0.  0.
         25    1    1    2    0    0  0.17209472929E+03 -0.40942713103E+02 -0.19198723160E+03  0.28944256547E+03  0.12500000000E+03 0.  0.
         25    1    1    2    0    0 -0.10550177232E+03 -0.16440850008E+03 -0.48007226130E+03  0.53315584488E+03  0.12500000000E+03 0.  0.
</event>
<event>
 5    0  0.7325128E-005  0.5937727E+03  0.7546771E-02  0.9918411E-01
         21   -1    0    0  502  501  0.00000000000E+00  0.00000000000E+00  0.98352885573E+03  0.98352885573E+03  0.00000000000E+00 0. -1.
         21   -1    0    0  501  502 -0.00000000000E+00 -0.00000000000E+00 -0.35847040482E+03  0.35847040482E+03  0.00000000000E+00 0. -1.
         25    1    1    2    0    0 -0.18984813508E+03  0.68008543023E+02 -0.10478232341E+03  0.25936810061E+03  0.12500000000E+03 0.  0.
         25    1    1    2    0    0 -0.12868682860E+03 -0.20917248353E+03  0.64710851003E+03  0.70334049469E+03  0.12500000000E+03 0.  0.
         25    1    1    2    0    0  0.31853496368E+03  0.14116394050E+03  0.82732264292E+02  0.37929066524E+03  0.12500000000E+03 0.  0.
</event>
<event>
 5    0  0.5677492E-005  0.2249082E+03  0.7546771E-02  0.1130276E+00
         21   -1    0    0  502  501  0.00000000000E+00  0.00000000000E+00  0.11237541928E+03  0.11237541928E+03  0.00000000000E+00 0. -1.
         21   -1    0    0  501  502 -0.00000000000E+00 -0.00000000000E+00 -0.45013124508E+03  0.45013124508E+03  0.00000000000E+00 0. -1.
         25    1    1    2    0    0  0.13904938889E+02 -0.88086526768E+00 -0.73380431096E+02  0.14561528394E+03  0.12500000000E+03 0.  0.
         25    1    1    2    0    0  0.52571622954E+02  0.26056490662E+02 -0.29049465522E+02  0.14110842531E+03  0.12500000000E+03 0.  0.
         25    1    1    2    0    0 -0.66476561842E+02 -0.25175625394E+02 -0.23532592918E+03  0.27578295511E+03  0.12500000000E+03 0.  0.
</event>
<event>
 5    0  0.5677492E-005  0.4442720E+03  0.7546771E-02  0.1029444E+00
         21   -1    0    0  502  501  0.00000000000E+00  0.00000000000E+00  0.10793771612E+04  0.10793771612E+04  0.00000000000E+00 0. -1.
         21   -1    0    0  501  502 -0.00000000000E+00 -0.00000000000E+00 -0.18286250072E+03  0.18286250072E+03  0.00000000000E+00 0. -1.
         25    1    1    2    0    0  0.72572545303E+01 -0.16398950852E+02 -0.29589349208E+01  0.12631448305E+03  0.12500000000E+03 0.  0.
         25    1    1    2    0    0  0.55399747145E+02 -0.82587742540E+02  0.94520752481E+03  0.95860947844E+03  0.12500000000E+03 0.  0.
         25    1    1    2    0    0 -0.62657001675E+02  0.98986693392E+02 -0.45733929391E+02  0.17731570045E+03  0.12500000000E+03 0.  0.
</event>
<event>
 5    0  0.5677492E-005  0.2357005E+03  0.7546771E-02  0.1122691E+00
         21   -1    0    0  502  501  0.00000000000E+00  0.00000000000E+00  0.18751872389E+03  0.18751872389E+03  0.00000000000E+00 0.  1.
         21   -1    0    0  501  502 -0.00000000000E+00 -0.00000000000E+00 -0.29626220532E+03  0.29626220532E+03  0.00000000000E+00 0.  1.
         25    1    1    2    0    0  0.20736945988E+02  0.11679948653E+02 -0.11299890364E+03  0.17017695012E+03  0.12500000000E+03 0.  0.
         25    1    1    2    0    0 -0.13763006587E+02 -0.17851892650E+01  0.95880432534E+02  0.15814760382E+03  0.12500000000E+03 0.  0.
         25    1    1    2    0    0 -0.69739394012E+01 -0.98947593880E+01 -0.91625010328E+02  0.15545637527E+03  0.12500000000E+03 0.  0.
</event>
<event>
 5    0  0.5677492E-005  0.3612925E+03  0.7546771E-02  0.1058073E+00
         21   -1    0    0  502  501  0.00000000000E+00  0.00000000000E+00  0.14481050784E+03  0.14481050784E+03  0.00000000000E+00 0. -1.
         21   -1    0    0  501  502 -0.00000000000E+00 -0.00000000000E+00 -0.90140045129E+03  0.90140045129E+03  0.00000000000E+00 0. -1.
         25    1    1    2    0    0  0.96170080817E+02 -0.12816658137E+03 -0.11200651894E+03  0.23204701530E+03  0.12500000000E+03 0.  0.
         25    1    1    2    0    0 -0.72774559569E+02  0.16950024282E+03 -0.84453157723E+02  0.23829352632E+03  0.12500000000E+03 0.  0.
         25    1    1    2    0    0 -0.23395521248E+02 -0.41333661452E+02 -0.56013026679E+03  0.57587041751E+03  0.12500000000E+03 0.  0.
</event>
<event>
 5    0  0.5677492E-005  0.3725741E+03  0.7546771E-02  0.1053713E+00
         21   -1    0    0  502  501  0.00000000000E+00  0.00000000000E+00  0.43447063624E+03  0.43447063624E+03  0.00000000000E+00 0.  1.
         21   -1    0    0  501  502 -0.00000000000E+00 -0.00000000000E+00 -0.31949554479E+03  0.31949554479E+03  0.00000000000E+00 0. -1.
         25    1    1    2    0    0  0.42817501801E+02  0.17007192502E+03  0.54944321806E+02  0.22226487946E+03  0.12500000000E+03 0.  0.
         25    1    1    2    0    0  0.28634821614E+01 -0.31053655429E+03  0.34917984194E+02  0.33657899028E+03  0.12500000000E+03 0.  0.
         25    1    1    2    0    0 -0.45680983963E+02  0.14046462927E+03  0.25112785454E+02  0.19512231129E+03  0.12500000000E+03 0.  0.
</event>
<event>
 5    0  0.5677492E-005  0.3402789E+03  0.7546771E-02  0.1066677E+00
         21   -1    0    0  502  501  0.00000000000E+00  0.00000000000E+00  0.71634900746E+02  0.71634900746E+02  0.00000000000E+00 0. -1.
         21   -1    0    0  501  502 -0.00000000000E+00 -0.00000000000E+00 -0.16163874118E+04  0.16163874118E+04  0.00000000000E+00 0. -1.
         25    1    1    2    0    0 -0.11478185765E+02  0.14239848464E+03 -0.69774637316E+03  0.72310723855E+03  0.12500000000E+03 0.  0.
         25    1    1    2    0    0 -0.11102552844E+03 -0.19351615953E+03 -0.33529855800E+03  0.42169336604E+03  0.12500000000E+03 0.  0.
         25    1    1    2    0    0  0.12250371421E+03  0.51117674886E+02 -0.51170757988E+03  0.54322170795E+03  0.12500000000E+03 0.  0.
</event>
<event>
 5    0  0.5677492E-005  0.7877537E+03  0.7546771E-02  0.9577914E-01
         21   -1    0    0  502  501  0.00000000000E+00  0.00000000000E+00  0.27401418491E+03  0.27401418491E+03  0.00000000000E+00 0.  1.
         21   -1    0    0  501  502 -0.00000000000E+00 -0.00000000000E+00 -0.22646854649E+04  0.22646854649E+04  0.00000000000E+00 0.  1.
         25    1    1    2    0    0 -0.43382662873E+03 -0.25786707766E+02 -0.15603649217E+03  0.47837525540E+03  0.12500000000E+03 0.  0.
         25    1    1    2    0    0  0.65925138382E+03  0.24286379492E+02 -0.11951483843E+04  0.13708416669E+04  0.12500000000E+03 0.  0.
         25    1    1    2    0    0 -0.22542475509E+03  0.15003282732E+01 -0.63948640362E+03  0.68948272756E+03  0.12500000000E+03 0.  0.
</event>
<event>
 5    0  0.5677492E-005  0.2631763E+03  0.7546771E-02  0.1105250E+00
         21   -1    0    0  502  501  0.00000000000E+00  0.00000000000E+00  0.11331472896E+03  0.11331472896E+03  0.00000000000E+00 0.  1.
         21   -1    0    0  501  502 -0.00000000000E+00 -0.00000000000E+00 -0.61123345210E+03  0.61123345210E+03  0.00000000000E+00 0.  1.
         25    1    1    2    0    0  0.13970827483E+03  0.51493006315E+02 -0.20312827859E+03  0.28116904047E+03  0.12500000000E+03 0.  0.
         25    1    1    2    0    0 -0.98898628110E+02 -0.56087618040E+02 -0.25503221722E+03  0.30593004324E+03  0.12500000000E+03 0.  0.
         25    1    1    2    0    0 -0.40809646724E+02  0.45946117247E+01 -0.39758227334E+02  0.13744909735E+03  0.12500000000E+03 0.  0.
</event>
<event>
 5    0  0.5677492E-005  0.3071536E+03  0.7546771E-02  0.1081718E+00
         21   -1    0    0  502  501  0.00000000000E+00  0.00000000000E+00  0.56581267843E+03  0.56581267843E+03  0.00000000000E+00 0.  1.
         21   -1    0    0  501  502 -0.00000000000E+00 -0.00000000000E+00 -0.16673955251E+03  0.16673955251E+03  0.00000000000E+00 0.  1.
         25    1    1    2    0    0  0.36807072110E+02  0.65616157630E+02  0.33891224806E+03  0.36898069405E+03  0.12500000000E+03 0.  0.
         25    1    1    2    0    0 -0.19512444217E+02 -0.15592012826E+03  0.12225008992E+02  0.20116230442E+03  0.12500000000E+03 0.  0.
         25    1    1    2    0    0 -0.17294627893E+02  0.90303970630E+02  0.47935868864E+02  0.16240923246E+03  0.12500000000E+03 0.  0.
</event>
<event>
 5    0  0.5677492E-005  0.2176811E+03  0.7546771E-02  0.1135624E+00
         21   -1    0    0  502  501  0.00000000000E+00  0.00000000000E+00  0.81179643991E+02  0.81179643991E+02  0.00000000000E+00 0.  1.
         21   -1    0    0  501  502 -0.00000000000E+00 -0.00000000000E+00 -0.58370604879E+03  0.58370604879E+03  0.00000000000E+00 0.  1.
         25    1    1    2    0    0 -0.36098696873E+02  0.35426409898E+02 -0.19220917516E+03  0.23479249019E+03  0.12500000000E+03 0.  0.
         25    1    1    2    0    0  0.45718377198E+02 -0.74582207630E+02 -0.10096863194E+03  0.18295447615E+03  0.12500000000E+03 0.  0.
         25    1    1    2    0    0 -0.96196803256E+01  0.39155797732E+02 -0.20934859770E+03  0.24713872643E+03  0.12500000000E+03 0.  0.
</event>
<event>
 5    0  0.5677492E-005  0.3304475E+03  0.7546771E-02  0.1070939E+00
         21   -1    0    0  502  501  0.00000000000E+00  0.00000000000E+00  0.34424396624E+03  0.34424396624E+03  0.00000000000E+00 0.  1.
         21   -1    0    0  501  502 -0.00000000000E+00 -0.00000000000E+00 -0.31720386822E+03  0.31720386822E+03  0.00000000000E+00 0.  1.
         25    1    1    2    0    0 -0.61113149678E+02  0.20564266892E+03  0.77997476388E+02  0.26025435764E+03  0.12500000000E+03 0.  0.
         25    1    1    2    0    0  0.88258986280E+02 -0.18723763115E+03 -0.10174031988E+03  0.26234266116E+03  0.12500000000E+03 0.  0.
         25    1    1    2    0    0 -0.27145836602E+02 -0.18405037780E+02  0.50782941507E+02  0.13885081566E+03  0.12500000000E+03 0.  0.
</event>
<event>
 5    0  0.5677492E-005  0.3332290E+03  0.7546771E-02  0.1069717E+00
         21   -1    0    0  502  501  0.00000000000E+00  0.00000000000E+00  0.99909955082E+02  0.99909955082E+02  0.00000000000E+00 0.  1.
         21   -1    0    0  501  502 -0.00000000000E+00 -0.00000000000E+00 -0.11114161075E+04  0.11114161075E+04  0.00000000000E+00 0.  1.
         25    1    1    2    0    0 -0.11874061219E+03 -0.79491428430E+02 -0.17006309879E+03  0.25488169363E+03  0.12500000000E+03 0.  0.
         25    1    1    2    0    0 -0.75626371882E+02  0.14752599425E+03 -0.31196304300E+03  0.37473885214E+03  0.12500000000E+03 0.  0.
         25    1    1    2    0    0  0.19436698407E+03 -0.68034565816E+02 -0.52948001063E+03  0.58170551682E+03  0.12500000000E+03 0.  0.
</event>
<event>
 5    0  0.5677492E-005  0.3002473E+03  0.7546771E-02  0.1085117E+00
         21   -1    0    0  502  501  0.00000000000E+00  0.00000000000E+00  0.29193076702E+03  0.29193076702E+03  0.00000000000E+00 0. -1.
         21   -1    0    0  501  502 -0.00000000000E+00 -0.00000000000E+00 -0.30880069928E+03  0.30880069928E+03  0.00000000000E+00 0. -1.
         25    1    1    2    0    0  0.47398880816E+02  0.65285536696E+02 -0.12165278518E+03  0.19218026784E+03  0.12500000000E+03 0.  0.
         25    1    1    2    0    0  0.74326200152E+02  0.62843601958E+02  0.10855428739E+03  0.19204878455E+03  0.12500000000E+03 0.  0.
         25    1    1    2    0    0 -0.12172508097E+03 -0.12812913865E+03 -0.37714344660E+01  0.21650241391E+03  0.12500000000E+03 0.  0.
</event>
<event>
 5    0  0.5677492E-005  0.2851992E+03  0.7546771E-02  0.1092883E+00
         21   -1    0    0  502  501  0.00000000000E+00  0.00000000000E+00  0.12366355401E+03  0.12366355401E+03  0.00000000000E+00 0.  1.
         21   -1    0    0  501  502 -0.00000000000E+00 -0.00000000000E+00 -0.65774090172E+03  0.65774090172E+03  0.00000000000E+00 0.  1.
         25    1    1    2    0    0 -0.26616012773E+02 -0.94025257460E+02 -0.13278935631E+02  0.15921837616E+03  0.12500000000E+03 0.  0.
         25    1    1    2    0    0  0.10004070849E+02 -0.35455109454E+02 -0.35015998173E+03  0.37362301726E+03  0.12500000000E+03 0.  0.
         25    1    1    2    0    0  0.16611941924E+02  0.12948036691E+03 -0.17063843035E+03  0.24856306231E+03  0.12500000000E+03 0.  0.
</event>
<event>
 5    0  0.5677492E-005  0.2177734E+03  0.7546771E-02  0.1135554E+00
         21   -1    0    0  502  501  0.00000000000E+00  0.00000000000E+00  0.20712082562E+03  0.20712082562E+03  0.00000000000E+00 0.  1.
         21   -1    0    0  501  502 -0.00000000000E+00 -0.00000000000E+00 -0.22897382427E+03  0.22897382427E+03  0.00000000000E+00 0.  1.
         25    1    1    2    0    0 -0.45114782081E+02  0.39681800967E+02 -0.74828259805E+02  0.15758888716E+03  0.12500000000E+03 0.  0.
         25    1    1    2    0    0  0.51381827966E+02  0.69395285995E+01  0.13959193789E+01  0.13533365396E+03  0.12500000000E+03 0.  0.
         25    1    1    2    0    0 -0.62670458846E+01 -0.46621329567E+02  0.51579341771E+02  0.14317210878E+03  0.12500000000E+03 0.  0.
</event>
<event>
 5    0  0.5677492E-005  0.3770195E+03  0.7546771E-02  0.1052041E+00
         21   -1    0    0  502  501  0.00000000000E+00  0.00000000000E+00  0.56159743983E+03  0.56159743983E+03  0.00000000000E+00 0.  1.
         21   -1    0    0  501  502 -0.00000000000E+00 -0.00000000000E+00 -0.25310602440E+03  0.25310602440E+03  0.00000000000E+00 0.  1.
         25    1    1    2    0    0  0.13630205601E+03  0.91315692198E+01  0.16612419344E+03  0.24876471549E+03  0.12500000000E+03 0.  0.
         25    1    1    2    0    0 -0.18461279287E+02 -0.81495318653E+02  0.29098618138E+03  0.32753665986E+03  0.12500000000E+03 0.  0.
         25    1    1    2    0    0 -0.11784077672E+03  0.72363749433E+02 -0.14861895939E+03  0.23840208888E+03  0.12500000000E+03 0.  0.
</event>
<event>
 5    0  0.5677492E-005  0.2559660E+03  0.7546771E-02  0.1109591E+00
         21   -1    0    0  502  501  0.00000000000E+00  0.00000000000E+00  0.25729284070E+03  0.25729284070E+03  0.00000000000E+00 0. -1.
         21   -1    0    0  501  502 -0.00000000000E+00 -0.00000000000E+00 -0.25464598639E+03  0.25464598639E+03  0.00000000000E+00 0. -1.
         25    1    1    2    0    0 -0.23530908301E+02  0.54331465544E+02 -0.98052108677E+02  0.16954299693E+03  0.12500000000E+03 0.  0.
         25    1    1    2    0    0  0.41124481752E+02 -0.12400488378E+03  0.36003813668E+02  0.18436298110E+03  0.12500000000E+03 0.  0.
         25    1    1    2    0    0 -0.17593573451E+02  0.69673418238E+02  0.64695149315E+02  0.15803284906E+03  0.12500000000E+03 0.  0.
</event>
<event>
 5    0  0.5677492E-005  0.2655389E+03  0.7546771E-02  0.1103860E+00
         21   -1    0    0  502  501  0.00000000000E+00  0.00000000000E+00  0.57060614897E+03  0.57060614897E+03  0.00000000000E+00 0. -1.
         21   -1    0    0  501  502 -0.00000000000E+00 -0.00000000000E+00 -0.12357196191E+03  0.12357196191E+03  0.00000000000E+00 0. -1.
         25    1    1    2    0    0  0.90911887973E+02 -0.11876591245E+03  0.17333897218E+03  0.26084806423E+03  0.12500000000E+03 0.  0.
         25    1    1    2    0    0 -0.94843406764E+02  0.13845785771E+03  0.16565221942E+03  0.26689231530E+03  0.12500000000E+03 0.  0.
         25    1    1    2    0    0  0.39315187911E+01 -0.19691945257E+02  0.10804299547E+03  0.16643773135E+03  0.12500000000E+03 0.  0.
</event>
<event>
 5    0  0.5677492E-005  0.2891627E+03  0.7546771E-02  0.1090787E+00
         21   -1    0    0  502  501  0.00000000000E+00  0.00000000000E+00  0.15296193552E+03  0.15296193552E+03  0.00000000000E+00 0. -1.
         21   -1    0    0  501  502 -0.00000000000E+00 -0.00000000000E+00 -0.54663968032E+03  0.54663968032E+03  0.00000000000E+00 0. -1.
         25    1    1    2    0    0  0.15697508843E+03  0.27998377160E+02 -0.17913173425E+03  0.27044087289E+03  0.12500000000E+03 0.  0.
         25    1    1    2    0    0 -0.13296954850E+03 -0.10084877018E+03 -0.18670455643E+03  0.27988384495E+03  0.12500000000E+03 0.  0.
         25    1    1    2    0    0 -0.24005539926E+02  0.72850393017E+02 -0.27841454112E+02  0.14927689800E+03  0.12500000000E+03 0.  0.
</event>
<event>
 5    0  0.5677492E-005  0.3063455E+03  0.7546771E-02  0.1082111E+00
         21   -1    0    0  502  501  0.00000000000E+00  0.00000000000E+00  0.17007100723E+03  0.17007100723E+03  0.00000000000E+00 0. -1.
         21   -1    0    0  501  502 -0.00000000000E+00 -0.00000000000E+00 -0.55181384098E+03  0.55181384098E+03  0.00000000000E+00 0. -1.
         25    1    1    2    0    0  0.10248852940E+03 -0.66289777065E+02 -0.26906939989E+03  0.32081392607E+03  0.12500000000E+03 0.  0.
         25    1    1    2    0    0 -0.16821059009E+03  0.40764117118E+02 -0.13955386505E+03  0.25506233966E+03  0.12500000000E+03 0.  0.
         25    1    1    2    0    0  0.65722060696E+02  0.25525659947E+02  0.26880431183E+02  0.14600858248E+03  0.12500000000E+03 0.  0.
</event>
<event>
 5    0  0.5677492E-005  0.4384728E+03  0.7546771E-02  0.1031216E+00
         21   -1    0    0  502  501  0.00000000000E+00  0.00000000000E+00  0.77027287436E+03  0.77027287436E+03  0.00000000000E+00 0. -1.
         21   -1    0    0  501  502 -0.00000000000E+00 -0.00000000000E+00 -0.24959772432E+03  0.24959772432E+03  0.00000000000E+00 0. -1.
         25    1    1    2    0    0 -0.62545751840E+01  0.56286969773E+02  0.37687892161E+03  0.40108610575E+03  0.12500000000E+03 0.  0.
         25    1    1    2    0    0 -0.38406768648E+02 -0.28185826517E+03 -0.17737068315E+02  0.31122140851E+03  0.12500000000E+03 0.  0.
         25    1    1    2    0    0  0.44661343832E+02  0.22557129540E+03  0.16153329675E+03  0.30756308442E+03  0.12500000000E+03 0.  0.
</event>
<event>
 5    0  0.5677492E-005  0.2163792E+03  0.7546771E-02  0.1136612E+00
         21   -1    0    0  502  501  0.00000000000E+00  0.00000000000E+00  0.19567986275E+02  0.19567986275E+02  0.00000000000E+00 0.  1.
         21   -1    0    0  501  502 -0.00000000000E+00 -0.00000000000E+00 -0.23926822632E+04  0.23926822632E+04  0.00000000000E+00 0.  1.
         25    1    1    2    0    0 -0.21614132267E+02 -0.71115737240E+01 -0.59750585144E+03  0.61086495046E+03  0.12500000000E+03 0.  0.
         25    1    1    2    0    0 -0.33053121990E+02 -0.51357444703E+01 -0.13005828047E+04  0.13070040232E+04  0.12500000000E+03 0.  0.
         25    1    1    2    0    0  0.54667254257E+02  0.12247318194E+02 -0.47502562085E+03  0.49438127589E+03  0.12500000000E+03 0.  0.
</event>
<event>
 5    0  0.5677492E-005  0.3210740E+03  0.7546771E-02  0.1075156E+00
         21   -1    0    0  502  501  0.00000000000E+00  0.00000000000E+00  0.16261380028E+03  0.16261380028E+03  0.00000000000E+00 0.  1.
         21   -1    0    0  501  502 -0.00000000000E+00 -0.00000000000E+00 -0.63394705793E+03  0.63394705793E+03  0.00000000000E+00 0.  1.
         25    1    1    2    0    0 -0.45263926626E+01  0.54854196166E+02 -0.76869227990E+02  0.15672698963E+03  0.12500000000E+03 0.  0.
         25    1    1    2    0    0 -0.35207168134E+02 -0.21115396422E+03 -0.71823483877E+02  0.25808749317E+03  0.12500000000E+03 0.  0.
         25    1    1    2    0    0  0.39733560797E+02  0.15629976806E+03 -0.32264054579E+03  0.38174637541E+03  0.12500000000E+03 0.  0.
</event>
<event>
 5    0  0.5677492E-005  0.2908133E+03  0.7546771E-02  0.1089925E+00
         21   -1    0    0  502  501  0.00000000000E+00  0.00000000000E+00  0.54055149037E+02  0.54055149037E+02  0.00000000000E+00 0.  1.
         21   -1    0    0  501  502 -0.00000000000E+00 -0.00000000000E+00 -0.15645573465E+04  0.15645573465E+04  0.00000000000E+00 0.  1.
         25    1    1    2    0    0 -0.41545554094E+01 -0.53164632998E+02 -0.23024376782E+03  0.26735918004E+03  0.12500000000E+03 0.  0.
         25    1    1    2    0    0  0.60632742457E+02 -0.12562288571E+03 -0.38605578914E+03  0.42909382563E+03  0.12500000000E+03 0.  0.
         25    1    1    2    0    0 -0.56478187048E+02  0.17878751870E+03 -0.89420264054E+03  0.92215948989E+03  0.12500000000E+03 0.  0.
</event>
<event>
 5    0  0.5677492E-005  0.2317971E+03  0.7546771E-02  0.1125381E+00
         21   -1    0    0  502  501  0.00000000000E+00  0.00000000000E+00  0.63236621881E+02  0.63236621881E+02  0.00000000000E+00 0.  1.
         21   -1    0    0  501  502 -0.00000000000E+00 -0.00000000000E+00 -0.84966413627E+03  0.84966413627E+03  0.00000000000E+00 0.  1.
         25    1    1    2    0    0  0.60025523987E+02  0.65955803137E+02 -0.39248698902E+03  0.42145494190E+03  0.12500000000E+03 0.  0.
         25    1    1    2    0    0 -0.17289327465E+02 -0.37224896444E+02 -0.29776075272E+03  0.32553199477E+03  0.12500000000E+03 0.  0.
         25    1    1    2    0    0 -0.42736196521E+02 -0.28730906693E+02 -0.96179772642E+02  0.16591382148E+03  0.12500000000E+03 0.  0.
</event>
<event>
 5    0  0.5677492E-005  0.4395176E+03  0.7546771E-02  0.1030895E+00
         21   -1    0    0  502  501  0.00000000000E+00  0.00000000000E+00  0.46206823931E+03  0.46206823931E+03  0.00000000000E+00 0.  1.
         21   -1    0    0  501  502 -0.00000000000E+00 -0.00000000000E+00 -0.41806757905E+03  0.41806757905E+03  0.00000000000E+00 0.  1.
         25    1    1    2    0    0  0.10729321637E+03  0.24555202575E+03 -0.55481969237E+01  0.29574214126E+03  0.12500000000E+03 0.  0.
         25    1    1    2    0    0 -0.56089449674E+02 -0.33020998557E+03  0.15874483012E+03  0.39116439258E+03  0.12500000000E+03 0.  0.
         25    1    1    2    0    0 -0.51203766698E+02  0.84657959817E+02 -0.10919597294E+03  0.19322928450E+03  0.12500000000E+03 0.  0.
</event>
<event>
 5    0  0.5677492E-005  0.4583107E+03  0.7546771E-02  0.1025272E+00
         21   -1    0    0  502  501  0.00000000000E+00  0.00000000000E+00  0.98796190542E+02  0.98796190542E+02  0.00000000000E+00 0.  1.
         21   -1    0    0  501  502 -0.00000000000E+00 -0.00000000000E+00 -0.21260811256E+04  0.21260811256E+04  0.00000000000E+00 0.  1.
         25    1    1    2    0    0  0.11066465379E+03 -0.30519923000E+03 -0.89190595106E+03  0.95734761770E+03  0.12500000000E+03 0.  0.
         25    1    1    2    0    0  0.10942567734E+03  0.21749289633E+02 -0.22102381572E+03  0.27735092857E+03  0.12500000000E+03 0.  0.
         25    1    1    2    0    0 -0.22009033113E+03  0.28344994037E+03 -0.91435516828E+03  0.99017876987E+03  0.12500000000E+03 0.  0.
</event>
<event>
 5    0  0.5677492E-005  0.2685908E+03  0.7546771E-02  0.1102089E+00
         21   -1    0    0  502  501  0.00000000000E+00  0.00000000000E+00  0.27357616801E+03  0.27357616801E+03  0.00000000000E+00 0.  1.
         21   -1    0    0  501  502 -0.00000000000E+00 -0.00000000000E+00 -0.26369627625E+03  0.26369627625E+03  0.00000000000E+00 0.  1.
         25    1    1    2    0    0  0.79379650283E+02  0.17883738169E+02  0.13613631551E+02  0.14977078465E+03  0.12500000000E+03 0.  0.
         25    1    1    2    0    0  0.16050527666E+02 -0.13688557800E+03 -0.30266472361E+02  0.18851084916E+03  0.12500000000E+03 0.  0.
         25    1    1    2    0    0 -0.95430177948E+02  0.11900183983E+03  0.26532732565E+02  0.19899081045E+03  0.12500000000E+03 0.  0.
</event>
<event>
 5    0  0.5677492E-005  0.3437785E+03  0.7546771E-02  0.1065198E+00
         21   -1    0    0  502  501  0.00000000000E+00  0.00000000000E+00  0.22038164326E+03  0.22038164326E+03  0.00000000000E+00 0.  1.
         21   -1    0    0  501  502 -0.00000000000E+00 -0.00000000000E+00 -0.53626818166E+03  0.53626818166E+03  0.00000000000E+00 0.  1.
         25    1    1    2    0    0 -0.89385419612E+01 -0.52566064495E+02 -0.23758007465E+03  0.27370126149E+03  0.12500000000E+03 0.  0.
         25    1    1    2    0    0  0.26024900138E+02 -0.14796054238E+03  0.65125466222E+02  0.20599986378E+03  0.12500000000E+03 0.  0.
         25    1    1    2    0    0 -0.17086358176E+02  0.20052660687E+03 -0.14343192997E+03  0.27694869965E+03  0.12500000000E+03 0.  0.
</event>
<event>
 5    0  0.5677492E-005  0.3196791E+03  0.7546771E-02  0.1075797E+00
         21   -1    0    0  502  501  0.00000000000E+00  0.00000000000E+00  0.31078460669E+03  0.31078460669E+03  0.00000000000E+00 0. -1.
         21   -1    0    0  501  502 -0.00000000000E+00 -0.00000000000E+00 -0.32882809774E+03  0.32882809774E+03  0.00000000000E+00 0. -1.
         25    1    1    2    0    0  0.11126437951E+03 -0.12043509558E+03 -0.30276676439E+02  0.20838918286E+03  0.12500000000E+03 0.  0.
         25    1    1    2    0    0 -0.95267803225E+02  0.10076373507E+03 -0.13946307131E+03  0.23303268632E+03  0.12500000000E+03 0.  0.
         25    1    1    2    0    0 -0.15996576289E+02  0.19671360510E+02  0.15169625671E+03  0.19819083525E+03  0.12500000000E+03 0.  0.
</event>
<event>
 5    0  0.5677492E-005  0.3220563E+03  0.7546771E-02  0.1074707E+00
         21   -1    0    0  502  501  0.00000000000E+00  0.00000000000E+00  0.57256084373E+03  0.57256084373E+03  0.00000000000E+00 0. -1.
         21   -1    0    0  501  502 -0.00000000000E+00 -0.00000000000E+00 -0.18115146569E+03  0.18115146569E+03  0.00000000000E+00 0. -1.
         25    1    1    2    0    0 -0.89782425967E+02 -0.14220778833E+03  0.14498451910E+03  0.25481257790E+03  0.12500000000E+03 0.  0.
         25    1    1    2    0    0  0.11454737560E+03  0.21957931875E+03  0.20256553165E+03  0.34350250813E+03  0.12500000000E+03 0.  0.
         25    1    1    2    0    0 -0.24764949632E+02 -0.77371530413E+02  0.43859327294E+02  0.15539722340E+03  0.12500000000E+03 0.  0.
</event>
<event>
 5    0  0.5677492E-005  0.6321888E+03  0.7546771E-02  0.9840787E-01
         21   -1    0    0  502  501  0.00000000000E+00  0.00000000000E+00  0.18949732769E+04  0.18949732769E+04  0.00000000000E+00 0.  1.
         21   -1    0    0  501  502 -0.00000000000E+00 -0.00000000000E+00 -0.21090674264E+03  0.21090674264E+03  0.00000000000E+00 0.  1.
         25    1    1    2    0    0 -0.65398060273E+02 -0.63559065589E+02  0.15611611836E+04  0.15688103462E+04  0.12500000000E+03 0.  0.
         25    1    1    2    0    0 -0.61674333833E+02  0.23623577705E+03  0.74373786610E+02  0.28419628067E+03  0.12500000000E+03 0.  0.
         25    1    1    2    0    0  0.12707239411E+03 -0.17267671146E+03  0.48531564069E+02  0.25287339270E+03  0.12500000000E+03 0.  0.
</event>
<event>
 5    0  0.5677492E-005  0.2479341E+03  0.7546771E-02  0.1114617E+00
         21   -1    0    0  502  501  0.00000000000E+00  0.00000000000E+00  0.10684021468E+04  0.10684021468E+04  0.00000000000E+00 0.  1.
         21   -1    0    0  501  502 -0.00000000000E+00 -0.00000000000E+00 -0.57535751143E+02  0.57535751143E+02  0.00000000000E+00 0.  1.
         25    1    1    2    0    0  0.21985118011E+02  0.20418217016E+02  0.40441304126E+03  0.42435263277E+03  0.12500000000E+03 0.  0.
         25    1    1    2    0    0  0.17648242769E+02 -0.72981823142E+02  0.10258911686E+03  0.17829002743E+03  0.12500000000E+03 0.  0.
         25    1    1    2    0    0 -0.39633360780E+02  0.52563606127E+02  0.50386423753E+03  0.52329523774E+03  0.12500000000E+03 0.  0.
</event>
<event>
 5    0  0.5677492E-005  0.3248444E+03  0.7546771E-02  0.1073441E+00
         21   -1    0    0  502  501  0.00000000000E+00  0.00000000000E+00  0.13163541733E+03  0.13163541733E+03  0.00000000000E+00 0.  1.
         21   -1    0    0  501  502 -0.00000000000E+00 -0.00000000000E+00 -0.80163725650E+03  0.80163725650E+03  0.00000000000E+00 0.  1.
         25    1    1    2    0    0  0.82364273976E+01  0.52258331936E+02  0.24416010598E+02  0.13791270270E+03  0.12500000000E+03 0.  0.
         25    1    1    2    0    0 -0.14015728173E+03  0.16124020375E+02 -0.27776596054E+03  0.33568285105E+03  0.12500000000E+03 0.  0.
         25    1    1    2    0    0  0.13192085433E+03 -0.68382352311E+02 -0.41665188923E+03  0.45967712007E+03  0.12500000000E+03 0.  0.
</event>
<event>
 5    0  0.6324220E-005  0.3516213E+03  0.7546771E-02  0.1061952E+00
         21   -1    0    0  502  501  0.00000000000E+00  0.00000000000E+00  0.15203448625E+03  0.15203448625E+03  0.00000000000E+00 0. -1.
         21   -1    0    0  501  502 -0.00000000000E+00 -0.00000000000E+00 -0.81322016607E+03  0.81322016607E+03  0.00000000000E+00 0. -1.
         25    1    1    2    0    0  0.23622044669E+03  0.52631923860E+01 -0.14881977914E+03  0.30594137885E+03  0.12500000000E+03 0.  0.
         25    1    1    2    0    0 -0.91367594413E+02  0.10415226039E+03 -0.29964015715E+03  0.35299426969E+03  0.12500000000E+03 0.  0.
         25    1    1    2    0    0 -0.14485285227E+03 -0.10941545278E+03 -0.21272574353E+03  0.30631900378E+03  0.12500000000E+03 0.  0.
</event>
<event>
 5    0  0.5677492E-005  0.2642123E+03  0.7546771E-02  0.1104639E+00
         21   -1    0    0  502  501  0.00000000000E+00  0.00000000000E+00  0.49126606351E+03  0.49126606351E+03  0.00000000000E+00 0. -1.
         21   -1    0    0  501  502 -0.00000000000E+00 -0.00000000000E+00 -0.14209840560E+03  0.14209840560E+03  0.00000000000E+00 0. -1.
         25    1    1    2    0    0  0.39662837276E+02 -0.13824054926E+03  0.29159855495E+02  0.19276640603E+03  0.12500000000E+03 0.  0.
         25    1    1    2    0    0 -0.33130719463E+02  0.11967510020E+03  0.18009306003E+03  0.25194897192E+03  0.12500000000E+03 0.  0.
         25    1    1    2    0    0 -0.65321178129E+01  0.18565449065E+02  0.13991474239E+03  0.18864909117E+03  0.12500000000E+03 0.  0.
</event>
<event>
 5    0  0.5677492E-005  0.2492276E+03  0.7546771E-02  0.1113794E+00
         21   -1    0    0  502  501  0.00000000000E+00  0.00000000000E+00  0.19157944203E+04  0.19157944203E+04  0.00000000000E+00 0. -1.
         21   -1    0    0  501  502 -0.00000000000E+00 -0.00000000000E+00 -0.32422253648E+02  0.32422253648E+02  0.00000000000E+00 0. -1.
         25    1    1    2    0    0 -0.49716019969E+02 -0.66374492387E+02  0.44707755634E+03  0.47157247297E+03  0.12500000000E+03 0.  0.
         25    1    1    2    0    0 -0.70600286191E+02 -0.25400870473E+02  0.56368850721E+03  0.58223649644E+03  0.12500000000E+03 0.  0.
         25    1    1    2    0    0  0.12031630616E+03  0.91775362861E+02  0.87260610306E+03  0.89440770449E+03  0.12500000000E+03 0.  0.
</event>
<event>
 5    0  0.5677492E-005  0.3167888E+03  0.7546771E-02  0.1077137E+00
         21   -1    0    0  502  501  0.00000000000E+00  0.00000000000E+00  0.10303269244E+04  0.10303269244E+04  0.00000000000E+00 0.  1.
         21   -1    0    0  501  502 -0.00000000000E+00 -0.00000000000E+00 -0.97401284099E+02  0.97401284099E+02  0.00000000000E+00 0.  1.
         25    1    1    2    0    0 -0.16207453267E+03 -0.11092991930E+03  0.50082632435E+03  0.55229123504E+03  0.12500000000E+03 0.  0.
         25    1    1    2    0    0  0.12766494745E+03  0.39871002012E+01  0.33921280505E+03  0.38341174068E+03  0.12500000000E+03 0.  0.
         25    1    1    2    0    0  0.34409585217E+02  0.10694281910E+03  0.92886510857E+02  0.19202523275E+03  0.12500000000E+03 0.  0.
</event>
<event>
 5    0  0.5677492E-005  0.3388114E+03  0.7546771E-02  0.1067303E+00
         21   -1    0    0  502  501  0.00000000000E+00  0.00000000000E+00  0.15264352549E+03  0.15264352549E+03  0.00000000000E+00 0.  1.
         21   -1    0    0  501  502 -0.00000000000E+00 -0.00000000000E+00 -0.75203448531E+03  0.75203448531E+03  0.00000000000E+00 0.  1.
         25    1    1    2    0    0  0.11639336308E+03 -0.15017933511E+03 -0.36477950270E+03  0.42987246161E+03  0.12500000000E+03 0.  0.
         25    1    1    2    0    0 -0.10157830660E+03 -0.19400469938E+02 -0.20518653574E+03  0.26157416741E+03  0.12500000000E+03 0.  0.
         25    1    1    2    0    0 -0.14815056478E+02  0.16957980505E+03 -0.29424921384E+02  0.21323138178E+03  0.12500000000E+03 0.  0.
</event>
<event>
 5    0  0.5677492E-005  0.3146994E+03  0.7546771E-02  0.1078115E+00
         21   -1    0    0  502  501  0.00000000000E+00  0.00000000000E+00  0.86182592211E+02  0.86182592211E+02  0.00000000000E+00 0. -1.
         21   -1    0    0  501  502 -0.00000000000E+00 -0.00000000000E+00 -0.11491384243E+04  0.11491384243E+04  0.00000000000E+00 0. -1.
         25    1    1    2    0    0  0.20423668777E+02  0.18937457512E+02 -0.36975601499E+03  0.39130584479E+03  0.12500000000E+03 0.  0.
         25    1    1    2    0    0  0.16600368994E+03 -0.41920645546E+01 -0.52038068865E+03  0.56035333460E+03  0.12500000000E+03 0.  0.
         25    1    1    2    0    0 -0.18642735871E+03 -0.14745392957E+02 -0.17281912848E+03  0.28366183716E+03  0.12500000000E+03 0.  0.
</event>
<event>
 5    0  0.5677492E-005  0.2554938E+03  0.7546771E-02  0.1109881E+00
         21   -1    0    0  502  501  0.00000000000E+00  0.00000000000E+00  0.40260944457E+03  0.40260944457E+03  0.00000000000E+00 0.  1.
         21   -1    0    0  501  502 -0.00000000000E+00 -0.00000000000E+00 -0.16213497789E+03  0.16213497789E+03  0.00000000000E+00 0.  1.
         25    1    1    2    0    0  0.34005033231E+02  0.12946668295E+02  0.85965605148E+02  0.15600975538E+03  0.12500000000E+03 0.  0.
         25    1    1    2    0    0 -0.91479965214E+02 -0.51940065400E+02 -0.39150925337E+02  0.16800044459E+03  0.12500000000E+03 0.  0.
         25    1    1    2    0    0  0.57474931984E+02  0.38993397104E+02  0.19365978687E+03  0.24073422249E+03  0.12500000000E+03 0.  0.
</event>
<event>
 5    0  0.5677492E-005  0.3339444E+03  0.7546771E-02  0.1069405E+00
         21   -1    0    0  502  501  0.00000000000E+00  0.00000000000E+00  0.13722594070E+03  0.13722594070E+03  0.00000000000E+00 0.  1.
         21   -1    0    0  501  502 -0.00000000000E+00 -0.00000000000E+00 -0.81266616815E+03  0.81266616815E+03  0.00000000000E+00 0.  1.
         25    1    1    2    0    0  0.24652799659E+02  0.40731369279E+02 -0.39535551655E+02  0.13948069694E+03  0.12500000000E+03 0.  0.
         25    1    1    2    0    0  0.63776009279E+02  0.97372905361E+02 -0.56830199750E+03  0.59341471369E+03  0.12500000000E+03 0.  0.
         25    1    1    2    0    0 -0.88428808939E+02 -0.13810427464E+03 -0.67602678293E+02  0.21699669822E+03  0.12500000000E+03 0.  0.
</event>
<event>
 5    0  0.5677492E-005  0.2792843E+03  0.7546771E-02  0.1096080E+00
         21   -1    0    0  502  501  0.00000000000E+00  0.00000000000E+00  0.32486959820E+03  0.32486959820E+03  0.00000000000E+00 0.  1.
         21   -1    0    0  501  502 -0.00000000000E+00 -0.00000000000E+00 -0.24009554763E+03  0.24009554763E+03  0.00000000000E+00 0.  1.
         25    1    1    2    0    0 -0.13287675831E+03  0.10072096730E+03 -0.26123790595E+02  0.21001999569E+03  0.12500000000E+03 0.  0.
         25    1    1    2    0    0  0.14323592489E+03 -0.30613694688E+02  0.50458538552E+02  0.19905977141E+03  0.12500000000E+03 0.  0.
         25    1    1    2    0    0 -0.10359166577E+02 -0.70107272607E+02  0.60439302611E+02  0.15588537874E+03  0.12500000000E+03 0.  0.
</event>
<event>
 5    0  0.5677492E-005  0.5459954E+03  0.7546771E-02  0.1002425E+00
         21   -1    0    0  502  501  0.00000000000E+00  0.00000000000E+00  0.45168371364E+03  0.45168371364E+03  0.00000000000E+00 0. -1.
         21   -1    0    0  501  502 -0.00000000000E+00 -0.00000000000E+00 -0.65999934641E+03  0.65999934641E+03  0.00000000000E+00 0. -1.
         25    1    1    2    0    0  0.32633729882E+03 -0.14222887398E+03  0.17522685379E+03  0.41599823976E+03  0.12500000000E+03 0.  0.
         25    1    1    2    0    0 -0.75861539090E+02 -0.10056614605E+03 -0.23957422218E+03  0.29814313807E+03  0.12500000000E+03 0.  0.
         25    1    1    2    0    0 -0.25047575973E+03  0.24279502003E+03 -0.14396826438E+03  0.39754168223E+03  0.12500000000E+03 0.  0.
</event>
<event>
 5    0  0.5677492E-005  0.4371800E+03  0.7546771E-02  0.1031616E+00
         21   -1    0    0  502  501  0.00000000000E+00  0.00000000000E+00  0.23330923747E+03  0.23330923747E+03  0.00000000000E+00 0. -1.
         21   -1    0    0  501  502 -0.00000000000E+00 -0.00000000000E+00 -0.81919739232E+03  0.81919739232E+03  0.00000000000E+00 0. -1.
         25    1    1    2    0    0  0.92829198133E+00 -0.95039500645E+02 -0.54895808189E+03  0.57097578239E+03  0.12500000000E+03 0.  0.
         25    1    1    2    0    0  0.57547314731E+02  0.92940897642E+02 -0.20515235019E+03  0.26393595942E+03  0.12500000000E+03 0.  0.
         25    1    1    2    0    0 -0.58475606713E+02  0.20986030023E+01  0.16822227723E+03  0.21759488797E+03  0.12500000000E+03 0.  0.
</event>
<event>
 5    0  0.5677492E-005  0.3785575E+03  0.7546771E-02  0.1051468E+00
         21   -1    0    0  502  501  0.00000000000E+00  0.00000000000E+00  0.55539690528E+03  0.55539690528E+03  0.00000000000E+00 0.  1.
         21   -1    0    0  501  502 -0.00000000000E+00 -0.00000000000E+00 -0.25802402901E+03  0.25802402901E+03  0.00000000000E+00 0.  1.
         25    1    1    2    0    0  0.48924426610E+02  0.29868231038E+03  0.22373690739E+03  0.39659541825E+03  0.12500000000E+03 0.  0.
         25    1    1    2    0    0 -0.64940202475E+02 -0.11732469286E+03 -0.21623843931E+01  0.18333572854E+03  0.12500000000E+03 0.  0.
         25    1    1    2    0    0  0.16015775865E+02 -0.18135761752E+03  0.75798353269E+02  0.23348978750E+03  0.12500000000E+03 0.  0.
</event>
<event>
 5    0  0.5677492E-005  0.2281568E+03  0.7546771E-02  0.1127944E+00
         21   -1    0    0  502  501  0.00000000000E+00  0.00000000000E+00  0.51272655124E+03  0.51272655124E+03  0.00000000000E+00 0. -1.
         21   -1    0    0  501  502 -0.00000000000E+00 -0.00000000000E+00 -0.10152690801E+03  0.10152690801E+03  0.00000000000E+00 0. -1.
         25    1    1    2    0    0 -0.63809626518E+02 -0.86369701818E+02  0.15911972950E+03  0.22907527615E+03  0.12500000000E+03 0.  0.
         25    1    1    2    0    0 -0.49314629990E+01  0.35595448273E+01  0.12574139804E+03  0.17740600009E+03  0.12500000000E+03 0.  0.
         25    1    1    2    0    0  0.68741089517E+02  0.82810156991E+02  0.12633851570E+03  0.20777218302E+03  0.12500000000E+03 0.  0.
</event>
<event>
 5    0  0.5677492E-005  0.3255272E+03  0.7546771E-02  0.1073133E+00
         21   -1    0    0  502  501  0.00000000000E+00  0.00000000000E+00  0.47101629237E+03  0.47101629237E+03  0.00000000000E+00 0. -1.
         21   -1    0    0  501  502 -0.00000000000E+00 -0.00000000000E+00 -0.22497730970E+03  0.22497730970E+03  0.00000000000E+00 0. -1.
         25    1    1    2    0    0  0.41367227017E+02 -0.19177588491E+03  0.51024366690E+02  0.23815483094E+03  0.12500000000E+03 0.  0.
         25    1    1    2    0    0 -0.13487491821E+03  0.14634113900E+03  0.17709964997E+03  0.29427242233E+03  0.12500000000E+03 0.  0.
         25    1    1    2    0    0  0.93507691195E+02  0.45434745910E+02  0.17914966016E+02  0.16356634879E+03  0.12500000000E+03 0.  0.
</event>
<event>
 5    0  0.5677492E-005  0.2385698E+03  0.7546771E-02  0.1120749E+00
         21   -1    0    0  502  501  0.00000000000E+00  0.00000000000E+00  0.29430027748E+03  0.29430027748E+03  0.00000000000E+00 0. -1.
         21   -1    0    0  501  502 -0.00000000000E+00 -0.00000000000E+00 -0.19339275487E+03  0.19339275487E+03  0.00000000000E+00 0. -1.
         25    1    1    2    0    0 -0.48227753496E+02  0.42887391578E+02  0.12493300615E+03  0.18814489254E+03  0.12500000000E+03 0.  0.
         25    1    1    2    0    0  0.95226597794E+02 -0.26861266255E+02 -0.39270147452E+02  0.16418519127E+03  0.12500000000E+03 0.  0.
         25    1    1    2    0    0 -0.46998844298E+02 -0.16026125323E+02  0.15244663904E+02  0.13536294853E+03  0.12500000000E+03 0.  0.
</event>
<event>
 5    0  0.5677492E-005  0.2216643E+03  0.7546771E-02  0.1132648E+00
         21   -1    0    0  502  501  0.00000000000E+00  0.00000000000E+00  0.11577531175E+04  0.11577531175E+04  0.00000000000E+00 0. -1.
         21   -1    0    0  501  502 -0.00000000000E+00 -0.00000000000E+00 -0.42440014966E+02  0.42440014966E+02  0.00000000000E+00 0. -1.
         25    1    1    2    0    0  0.58986929116E+02  0.65289438651E+01  0.17289716677E+03  0.22145093179E+03  0.12500000000E+03 0.  0.
         25    1    1    2    0    0 -0.28412572551E+02 -0.15650502833E+01  0.58364376947E+03  0.59755733892E+03  0.12500000000E+03 0.  0.
         25    1    1    2    0    0 -0.30574356565E+02 -0.49638935818E+01  0.35877216630E+03  0.38118486176E+03  0.12500000000E+03 0.  0.
</event>
<event>
 5    0  0.5677492E-005  0.3447514E+03  0.7546771E-02  0.1064790E+00
         21   -1    0    0  502  501  0.00000000000E+00  0.00000000000E+00  0.87172547431E+02  0.87172547431E+02  0.00000000000E+00 0. -1.
         21   -1    0    0  501  502 -0.00000000000E+00 -0.00000000000E+00 -0.13634284628E+04  0.13634284628E+04  0.00000000000E+00 0. -1.
         25    1    1    2    0    0 -0.14390971605E+03 -0.41809225890E+02 -0.24153679512E+03  0.31052059697E+03  0.12500000000E+03 0.  0.
         25    1    1    2    0    0  0.20223092415E+03  0.36910046555E+02 -0.94573763042E+03  0.97586083219E+03  0.12500000000E+03 0.  0.
         25    1    1    2    0    0 -0.58321208098E+02  0.48991793350E+01 -0.88981489814E+02  0.16421958105E+03  0.12500000000E+03 0.  0.
</event>
<event>
 5    0  0.5677492E-005  0.2126981E+03  0.7546771E-02  0.1139447E+00
         21   -1    0    0  502  501  0.00000000000E+00  0.00000000000E+00  0.15694578069E+04  0.15694578069E+04  0.00000000000E+00 0.  1.
         21   -1    0    0  501  502 -0.00000000000E+00 -0.00000000000E+00 -0.28825542638E+02  0.28825542638E+02  0.00000000000E+00 0.  1.
         25    1    1    2    0    0  0.80054512230E+02  0.24760916555E+00  0.63674696395E+03  0.65381991583E+03  0.12500000000E+03 0.  0.
         25    1    1    2    0    0 -0.72463711484E+02 -0.16529347264E+00  0.40153839774E+03  0.42674243012E+03  0.12500000000E+03 0.  0.
         25    1    1    2    0    0 -0.75908007464E+01 -0.82315692906E-01  0.50234690256E+03  0.51772100358E+03  0.12500000000E+03 0.  0.
</event>
<event>
 5    0  0.5677492E-005  0.2045574E+03  0.7546771E-02  0.1145950E+00
         21   -1    0    0  502  501  0.00000000000E+00  0.00000000000E+00  0.76505220252E+02  0.76505220252E+02  0.00000000000E+00 0.  1.
         21   -1    0    0  501  502 -0.00000000000E+00 -0.00000000000E+00 -0.54693953870E+03  0.54693953870E+03  0.00000000000E+00 0.  1.
         25    1    1    2    0    0 -0.20324900479E+02  0.66552220739E+01 -0.10072626225E+03  0.16195114531E+03  0.12500000000E+03 0.  0.
         25    1    1    2    0    0  0.29981297750E+02 -0.56649459305E+01 -0.27744102230E+03  0.30582591564E+03  0.12500000000E+03 0.  0.
         25    1    1    2    0    0 -0.96563972711E+01 -0.99027614341E+00 -0.92267033908E+02  0.15566769800E+03  0.12500000000E+03 0.  0.
</event>
<event>
 5    0  0.5677492E-005  0.2833376E+03  0.7546771E-02  0.1093880E+00
         21   -1    0    0  502  501  0.00000000000E+00  0.00000000000E+00  0.34310270421E+03  0.34310270421E+03  0.00000000000E+00 0. -1.
         21   -1    0    0  501  502 -0.00000000000E+00 -0.00000000000E+00 -0.23398305857E+03  0.23398305857E+03  0.00000000000E+00 0. -1.
         25    1    1    2    0    0  0.29487456646E+02 -0.43613206131E+02 -0.95139906731E+02  0.16567505455E+03  0.12500000000E+03 0.  0.
         25    1    1    2    0    0  0.23876242155E+02  0.37425175792E+02 -0.34093417995E+02  0.13696013972E+03  0.12500000000E+03 0.  0.
         25    1    1    2    0    0 -0.53363698801E+02  0.61880303387E+01  0.23835297037E+03  0.27445056850E+03  0.12500000000E+03 0.  0.
</event>
<event>
 5    0  0.5677492E-005  0.3068642E+03  0.7546771E-02  0.1081859E+00
         21   -1    0    0  502  501  0.00000000000E+00  0.00000000000E+00  0.10253836253E+03  0.10253836253E+03  0.00000000000E+00 0. -1.
         21   -1    0    0  501  502 -0.00000000000E+00 -0.00000000000E+00 -0.91834543124E+03  0.91834543124E+03  0.00000000000E+00 0. -1.
         25    1    1    2    0    0 -0.79004611124E+02  0.66819174447E+02 -0.49726228465E+03  0.52306912583E+03  0.12500000000E+03 0.  0.
         25    1    1    2    0    0 -0.31975465108E+02  0.13922020207E+02 -0.27944113639E+03  0.30810485508E+03  0.12500000000E+03 0.  0.
         25    1    1    2    0    0  0.11098007623E+03 -0.80741194654E+02 -0.39103647665E+02  0.18970981286E+03  0.12500000000E+03 0.  0.
</event>
<event>
 5    0  0.5677492E-005  0.2579104E+03  0.7546771E-02  0.1108405E+00
         21   -1    0    0  502  501  0.00000000000E+00  0.00000000000E+00  0.72558227972E+02  0.72558227972E+02  0.00000000000E+00 0. -1.
         21   -1    0    0  501  502 -0.00000000000E+00 -0.00000000000E+00 -0.91675059896E+03  0.91675059896E+03  0.00000000000E+00 0. -1.
         25    1    1    2    0    0 -0.16078389158E+03 -0.32793494008E+01 -0.33520557647E+03  0.39223716349E+03  0.12500000000E+03 0.  0.
         25    1    1    2    0    0  0.79913067287E+02 -0.38925342036E+02 -0.20573128503E+03  0.25661574819E+03  0.12500000000E+03 0.  0.
         25    1    1    2    0    0  0.80870824294E+02  0.42204691437E+02 -0.30325550948E+03  0.34045591525E+03  0.12500000000E+03 0.  0.
</event>
<event>
 5    0  0.5677492E-005  0.3831820E+03  0.7546771E-02  0.1049764E+00
         21   -1    0    0  502  501  0.00000000000E+00  0.00000000000E+00  0.67693991196E+02  0.67693991196E+02  0.00000000000E+00 0.  1.
         21   -1    0    0  501  502 -0.00000000000E+00 -0.00000000000E+00 -0.21690026175E+04  0.21690026175E+04  0.00000000000E+00 0.  1.
         25    1    1    2    0    0  0.90573856139E+02  0.45272275744E+02 -0.43420529229E+03  0.46304690715E+03  0.12500000000E+03 0.  0.
         25    1    1    2    0    0 -0.19395620894E+03 -0.71894057102E+02 -0.15573559399E+04  0.15759981884E+04  0.12500000000E+03 0.  0.
         25    1    1    2    0    0  0.10338235280E+03  0.26621781358E+02 -0.10974739409E+03  0.19765151308E+03  0.12500000000E+03 0.  0.
</event>
<event>
 5    0  0.5677492E-005  0.3680711E+03  0.7546771E-02  0.1055433E+00
         21   -1    0    0  502  501  0.00000000000E+00  0.00000000000E+00  0.26666188686E+03  0.26666188686E+03  0.00000000000E+00 0.  1.
         21   -1    0    0  501  502 -0.00000000000E+00 -0.00000000000E+00 -0.50804535146E+03  0.50804535146E+03  0.00000000000E+00 0.  1.
         25    1    1    2    0    0 -0.11352946187E+02 -0.59387624696E+02  0.33063755429E+02  0.14273749079E+03  0.12500000000E+03 0.  0.
         25    1    1    2    0    0  0.23070754587E+03  0.86613646583E+02 -0.27377785966E+02  0.27767325882E+03  0.12500000000E+03 0.  0.
         25    1    1    2    0    0 -0.21935459969E+03 -0.27226021887E+02 -0.24706943405E+03  0.35429648871E+03  0.12500000000E+03 0.  0.
</event>
<event>
 5    0  0.5677492E-005  0.4130510E+03  0.7546771E-02  0.1039352E+00
         21   -1    0    0  502  501  0.00000000000E+00  0.00000000000E+00  0.50624183730E+03  0.50624183730E+03  0.00000000000E+00 0.  1.
         21   -1    0    0  501  502 -0.00000000000E+00 -0.00000000000E+00 -0.33701499529E+03  0.33701499529E+03  0.00000000000E+00 0.  1.
         25    1    1    2    0    0  0.14128256827E+03  0.20263155388E+03 -0.14423800797E+02  0.27722437980E+03  0.12500000000E+03 0.  0.
         25    1    1    2    0    0  0.19250749563E+02  0.10554554004E+03  0.37927024741E+02  0.16903819564E+03  0.12500000000E+03 0.  0.
         25    1    1    2    0    0 -0.16053331783E+03 -0.30817709392E+03  0.14572361807E+03  0.39699425715E+03  0.12500000000E+03 0.  0.
</event>
<event>
 5    0  0.5677492E-005  0.3854082E+03  0.7546771E-02  0.1048953E+00
         21   -1    0    0  502  501  0.00000000000E+00  0.00000000000E+00  0.91008967836E+03  0.91008967836E+03  0.00000000000E+00 0. -1.
         21   -1    0    0  501  502 -0.00000000000E+00 -0.00000000000E+00 -0.16321408039E+03  0.16321408039E+03  0.00000000000E+00 0. -1.
         25    1    1    2    0    0  0.17515445617E+03 -0.90442438910E+02  0.45619054013E+03  0.51243899849E+03  0.12500000000E+03 0.  0.
         25    1    1    2    0    0  0.83863578865E+02  0.71939651920E+02  0.24639877342E+02  0.16864322380E+03  0.12500000000E+03 0.  0.
         25    1    1    2    0    0 -0.25901803504E+03  0.18502786991E+02  0.26604518049E+03  0.39222153646E+03  0.12500000000E+03 0.  0.
</event>
<event>
 5    0  0.5748977E-005  0.2620843E+03  0.7546771E-02  0.1105897E+00
         21   -1    0    0  502  501  0.00000000000E+00  0.00000000000E+00  0.14066467986E+03  0.14066467986E+03  0.00000000000E+00 0.  1.
         21   -1    0    0  501  502 -0.00000000000E+00 -0.00000000000E+00 -0.48831158717E+03  0.48831158717E+03  0.00000000000E+00 0.  1.
         25    1    1    2    0    0 -0.31176554543E+01 -0.10449853927E+03 -0.75907384043E+02  0.17976817137E+03  0.12500000000E+03 0.  0.
         25    1    1    2    0    0  0.72136842971E+02  0.10652392874E+03 -0.24544309257E+03  0.30400391971E+03  0.12500000000E+03 0.  0.
         25    1    1    2    0    0 -0.69019187517E+02 -0.20253894722E+01 -0.26296430697E+02  0.14520417596E+03  0.12500000000E+03 0.  0.
</event>
<event>
 5    0  0.5677492E-005  0.2248207E+03  0.7546771E-02  0.1130339E+00
         21   -1    0    0  502  501  0.00000000000E+00  0.00000000000E+00  0.21322576514E+04  0.21322576514E+04  0.00000000000E+00 0.  1.
         21   -1    0    0  501  502 -0.00000000000E+00 -0.00000000000E+00 -0.23704616956E+02  0.23704616956E+02  0.00000000000E+00 0.  1.
         25    1    1    2    0    0  0.11446469903E+02  0.99477062986E+02  0.77565280180E+03  0.79201576794E+03  0.12500000000E+03 0.  0.
         25    1    1    2    0    0 -0.58626427118E+02 -0.52475799807E+02  0.68864799835E+03  0.70430947257E+03  0.12500000000E+03 0.  0.
         25    1    1    2    0    0  0.47179957216E+02 -0.47001263180E+02  0.64425223427E+03  0.65963702782E+03  0.12500000000E+03 0.  0.
</event>
<event>
 5    0  0.5677492E-005  0.2492666E+03  0.7546771E-02  0.1113769E+00
         21   -1    0    0  502  501  0.00000000000E+00  0.00000000000E+00  0.16486067490E+04  0.16486067490E+04  0.00000000000E+00 0.  1.
         21   -1    0    0  501  502 -0.00000000000E+00 -0.00000000000E+00 -0.37688705622E+02  0.37688705622E+02  0.00000000000E+00 0.  1.
         25    1    1    2    0    0  0.60241097937E+02  0.65705137636E+01  0.10584565307E+04  0.10675333198E+04  0.12500000000E+03 0.  0.
         25    1    1    2    0    0 -0.18376087910E+02 -0.71634837723E+01  0.38725202147E+03  0.40740412889E+03  0.12500000000E+03 0.  0.
         25    1    1    2    0    0 -0.41865010027E+02  0.59297000863E+00  0.16520949120E+03  0.21135800590E+03  0.12500000000E+03 0.  0.
</event>
<event>
 5    0  0.5677492E-005  0.2784211E+03  0.7546771E-02  0.1096554E+00
         21   -1    0    0  502  501  0.00000000000E+00  0.00000000000E+00  0.11756418299E+04  0.11756418299E+04  0.00000000000E+00 0. -1.
         21   -1    0    0  501  502 -0.00000000000E+00 -0.00000000000E+00 -0.65937019470E+02  0.65937019470E+02  0.00000000000E+00 0. -1.
         25    1    1    2    0    0 -0.23035567790E+02 -0.81557875797E+02  0.10538503856E+03  0.18415572443E+03  0.12500000000E+03 0.  0.
         25    1    1    2    0    0 -0.52785009392E+02  0.39112531896E+01  0.67869180791E+03  0.69213374809E+03  0.12500000000E+03 0.  0.
         25    1    1    2    0    0  0.75820577182E+02  0.77646622607E+02  0.32562796393E+03  0.36528937682E+03  0.12500000000E+03 0.  0.
</event>
<event>
 5    0  0.5677492E-005  0.2539949E+03  0.7546771E-02  0.1110806E+00
         21   -1    0    0  502  501  0.00000000000E+00  0.00000000000E+00  0.64957967466E+03  0.64957967466E+03  0.00000000000E+00 0. -1.
         21   -1    0    0  501  502 -0.00000000000E+00 -0.00000000000E+00 -0.99315588980E+02  0.99315588980E+02  0.00000000000E+00 0. -1.
         25    1    1    2    0    0  0.32350898927E+02 -0.50340386935E+02  0.29718028683E+02  0.14173530417E+03  0.12500000000E+03 0.  0.
         25    1    1    2    0    0  0.32739661245E+02  0.33837767713E+01  0.38479723685E+03  0.40592763992E+03  0.12500000000E+03 0.  0.
         25    1    1    2    0    0 -0.65090560172E+02  0.46956610164E+02  0.13574882014E+03  0.20123231955E+03  0.12500000000E+03 0.  0.
</event>
<event>
 5    0  0.5677492E-005  0.5520847E+03  0.7546771E-02  0.1001013E+00
         21   -1    0    0  502  501  0.00000000000E+00  0.00000000000E+00  0.56259831054E+03  0.56259831054E+03  0.00000000000E+00 0.  1.
         21   -1    0    0  501  502 -0.00000000000E+00 -0.00000000000E+00 -0.54176754149E+03  0.54176754149E+03  0.00000000000E+00 0.  1.
         25    1    1    2    0    0 -0.30902866391E+03 -0.29834282901E+03 -0.20331332097E+02  0.44782309209E+03  0.12500000000E+03 0.  0.
         25    1    1    2    0    0  0.59777102978E+02  0.34148015470E+03  0.61660335824E+02  0.37364287108E+03  0.12500000000E+03 0.  0.
         25    1    1    2    0    0  0.24925156094E+03 -0.43137325691E+02 -0.20498234668E+02  0.28289988887E+03  0.12500000000E+03 0.  0.
</event>
<event>
 5    0  0.5677492E-005  0.3181695E+03  0.7546771E-02  0.1076495E+00
         21   -1    0    0  502  501  0.00000000000E+00  0.00000000000E+00  0.14182610673E+03  0.14182610673E+03  0.00000000000E+00 0.  1.
         21   -1    0    0  501  502 -0.00000000000E+00 -0.00000000000E+00 -0.71377422485E+03  0.71377422485E+03  0.00000000000E+00 0.  1.
         25    1    1    2    0    0  0.22713681425E+03 -0.35544898855E+02 -0.36987005299E+03  0.45308214301E+03  0.12500000000E+03 0.  0.
         25    1    1    2    0    0 -0.12778532398E+03  0.51603750017E+02 -0.89321304525E+02  0.20638636457E+03  0.12500000000E+03 0.  0.
         25    1    1    2    0    0 -0.99351490267E+02 -0.16058851162E+02 -0.11275676061E+03  0.19613182399E+03  0.12500000000E+03 0.  0.
</event>
<event>
 5    0  0.5677492E-005  0.2649346E+03  0.7546771E-02  0.1104214E+00
         21   -1    0    0  502  501  0.00000000000E+00  0.00000000000E+00  0.22348902575E+04  0.22348902575E+04  0.00000000000E+00 0. -1.
         21   -1    0    0  501  502 -0.00000000000E+00 -0.00000000000E+00 -0.31406622633E+02  0.31406622633E+02  0.00000000000E+00 0. -1.
         25    1    1    2    0    0 -0.95253169280E+02  0.18518020911E+02  0.47066214641E+03  0.49655205107E+03  0.12500000000E+03 0.  0.
         25    1    1    2    0    0 -0.41209662916E+02  0.45843625741E+01  0.34209593797E+03  0.36657043454E+03  0.12500000000E+03 0.  0.
         25    1    1    2    0    0  0.13646283220E+03 -0.23102383485E+02  0.13907255504E+04  0.14031743945E+04  0.12500000000E+03 0.  0.
</event>
<event>
 5    0  0.5924020E-005  0.2701159E+03  0.7546771E-02  0.1101213E+00
         21   -1    0    0  502  501  0.00000000000E+00  0.00000000000E+00  0.29970261020E+03  0.29970261020E+03  0.00000000000E+00 0. -1.
         21   -1    0    0  501  502 -0.00000000000E+00 -0.00000000000E+00 -0.24345007397E+03  0.24345007397E+03  0.00000000000E+00 0. -1.
         25    1    1    2    0    0  0.10763981358E+03  0.87593957334E+02 -0.70882740415E+02  0.19977085302E+03  0.12500000000E+03 0.  0.
         25    1    1    2    0    0  0.12268579114E+01 -0.88582870447E+02  0.60199787474E+02  0.16461301446E+03  0.12500000000E+03 0.  0.
         25    1    1    2    0    0 -0.10886667149E+03  0.98891311248E+00  0.66935489173E+02  0.17876881669E+03  0.12500000000E+03 0.  0.
</event>
<event>
 5    0  0.5677492E-005  0.3695493E+03  0.7546771E-02  0.1054865E+00
         21   -1    0    0  502  501  0.00000000000E+00  0.00000000000E+00  0.19479235386E+04  0.19479235386E+04  0.00000000000E+00 0.  1.
         21   -1    0    0  501  502 -0.00000000000E+00 -0.00000000000E+00 -0.70108835863E+02  0.70108835863E+02  0.00000000000E+00 0.  1.
         25    1    1    2    0    0 -0.64497837228E+02 -0.28087585950E+02  0.27988351162E+03  0.31449747784E+03  0.12500000000E+03 0.  0.
         25    1    1    2    0    0  0.16931775016E+03  0.96062836897E+02  0.14630175259E+04  0.14811960877E+04  0.12500000000E+03 0.  0.
         25    1    1    2    0    0 -0.10481991293E+03 -0.67975250947E+02  0.13491366522E+03  0.22233880892E+03  0.12500000000E+03 0.  0.
</event>
<event>
 5    0  0.5677492E-005  0.3049445E+03  0.7546771E-02  0.1082795E+00
         21   -1    0    0  502  501  0.00000000000E+00  0.00000000000E+00  0.60054804645E+03  0.60054804645E+03  0.00000000000E+00 0. -1.
         21   -1    0    0  501  502 -0.00000000000E+00 -0.00000000000E+00 -0.15484380732E+03  0.15484380732E+03  0.00000000000E+00 0. -1.
         25    1    1    2    0    0  0.73929637259E+02  0.44007807039E+00  0.35882282827E+02  0.14959386069E+03  0.12500000000E+03 0.  0.
         25    1    1    2    0    0 -0.21602140908E+03  0.21536556227E+01  0.28616069951E+03  0.37971414691E+03  0.12500000000E+03 0.  0.
         25    1    1    2    0    0  0.14209177182E+03 -0.25937336931E+01  0.12366125679E+03  0.22608384618E+03  0.12500000000E+03 0.  0.
</event>
<event>
 5    0  0.5677492E-005  0.6211369E+03  0.7546771E-02  0.9862499E-01
         21   -1    0    0  502  501  0.00000000000E+00  0.00000000000E+00  0.23358699492E+03  0.23358699492E+03  0.00000000000E+00 0.  1.
         21   -1    0    0  501  502 -0.00000000000E+00 -0.00000000000E+00 -0.16516801232E+04  0.16516801232E+04  0.00000000000E+00 0. -1.
         25    1    1    2    0    0 -0.36431479827E+03  0.19251702242E+03 -0.34261386775E+03  0.55027024137E+03  0.12500000000E+03 0.  0.
         25    1    1    2    0    0  0.17755128827E+03  0.21559425073E+03 -0.28907895464E+03  0.42094771995E+03  0.12500000000E+03 0.  0.
         25    1    1    2    0    0  0.18676351000E+03 -0.40811127315E+03 -0.78640030588E+03  0.91404915679E+03  0.12500000000E+03 0.  0.
</event>
<event>
 5    0  0.5677492E-005  0.3550223E+03  0.7546771E-02  0.1060572E+00
         21   -1    0    0  502  501  0.00000000000E+00  0.00000000000E+00  0.24265928675E+03  0.24265928675E+03  0.00000000000E+00 0. -1.
         21   -1    0    0  501  502 -0.00000000000E+00 -0.00000000000E+00 -0.51941476536E+03  0.51941476536E+03  0.00000000000E+00 0. -1.
         25    1    1    2    0    0 -0.25260899401E+02  0.17899368335E+03 -0.25516370388E+02  0.22125310591E+03  0.12500000000E+03 0.  0.
         25    1    1    2    0    0  0.62954524993E+02 -0.35549712554E+02  0.73906101050E+02  0.16221641733E+03  0.12500000000E+03 0.  0.
         25    1    1    2    0    0 -0.37693625593E+02 -0.14344397080E+03 -0.32514520927E+03  0.37860452887E+03  0.12500000000E+03 0.  0.
</event>
<event>
 5    0  0.5677492E-005  0.3957217E+03  0.7546771E-02  0.1045271E+00
         21   -1    0    0  502  501  0.00000000000E+00  0.00000000000E+00  0.10102112401E+03  0.10102112401E+03  0.00000000000E+00 0.  1.
         21   -1    0    0  501  502 -0.00000000000E+00 -0.00000000000E+00 -0.15501275220E+04  0.15501275220E+04  0.00000000000E+00 0. -1.
         25    1    1    2    0    0 -0.23126369990E+03  0.13277470325E+02 -0.40672023375E+03  0.48446417685E+03  0.12500000000E+03 0.  0.
         25    1    1    2    0    0  0.32817294814E+03 -0.63613451661E+02 -0.74642877354E+03  0.82736030186E+03  0.12500000000E+03 0.  0.
         25    1    1    2    0    0 -0.96909248233E+02  0.50335981336E+02 -0.29595739071E+03  0.33932416732E+03  0.12500000000E+03 0.  0.
</event>
<event>
 5    0  0.5677492E-005  0.2274002E+03  0.7546771E-02  0.1128483E+00
         21   -1    0    0  502  501  0.00000000000E+00  0.00000000000E+00  0.53081894698E+03  0.53081894698E+03  0.00000000000E+00 0. -1.
         21   -1    0    0  501  502 -0.00000000000E+00 -0.00000000000E+00 -0.97417136229E+02  0.97417136229E+02  0.00000000000E+00 0. -1.
         25    1    1    2    0    0  0.15344397754E+02  0.23755269999E+02  0.29476181123E+03  0.32141762359E+03  0.12500000000E+03 0.  0.
         25    1    1    2    0    0 -0.64275614677E+01  0.20352760095E+02  0.11636899021E+03  0.17211127294E+03  0.12500000000E+03 0.  0.
         25    1    1    2    0    0 -0.89168362860E+01 -0.44108030094E+02  0.22271009314E+02  0.13470718668E+03  0.12500000000E+03 0.  0.
</event>
<event>
 5    0  0.5677492E-005  0.2278831E+03  0.7546771E-02  0.1128139E+00
         21   -1    0    0  502  501  0.00000000000E+00  0.00000000000E+00  0.42654864936E+03  0.42654864936E+03  0.00000000000E+00 0. -1.
         21   -1    0    0  501  502 -0.00000000000E+00 -0.00000000000E+00 -0.12174632295E+03  0.12174632295E+03  0.00000000000E+00 0. -1.
         25    1    1    2    0    0 -0.69006651920E+02 -0.17154054523E+02  0.24425902389E+02  0.14586913417E+03  0.12500000000E+03 0.  0.
         25    1    1    2    0    0  0.82820612341E+02 -0.29862970873E+02  0.16979441557E+03  0.22848674889E+03  0.12500000000E+03 0.  0.
         25    1    1    2    0    0 -0.13813960421E+02  0.47017025396E+02  0.11058200844E+03  0.17393908925E+03  0.12500000000E+03 0.  0.
</event>
<event>
 5    0  0.5677492E-005  0.2861146E+03  0.7546771E-02  0.1092395E+00
         21   -1    0    0  502  501  0.00000000000E+00  0.00000000000E+00  0.31240219347E+03  0.31240219347E+03  0.00000000000E+00 0.  1.
         21   -1    0    0  501  502 -0.00000000000E+00 -0.00000000000E+00 -0.26203899646E+03  0.26203899646E+03  0.00000000000E+00 0.  1.
         25    1    1    2    0    0 -0.12567836754E+03  0.64009420226E+02 -0.43840272211E+02  0.19349218954E+03  0.12500000000E+03 0.  0.
         25    1    1    2    0    0  0.36944148157E+02 -0.12753187254E+03  0.11209329548E+03  0.21405409477E+03  0.12500000000E+03 0.  0.
         25    1    1    2    0    0  0.88734219385E+02  0.63522452311E+02 -0.17889826262E+02  0.16689490562E+03  0.12500000000E+03 0.  0.
</event>
<event>
 5    0  0.5677492E-005  0.2780293E+03  0.7546771E-02  0.1096770E+00
         21   -1    0    0  502  501  0.00000000000E+00  0.00000000000E+00  0.31089305852E+03  0.31089305852E+03  0.00000000000E+00 0.  1.
         21   -1    0    0  501  502 -0.00000000000E+00 -0.00000000000E+00 -0.24863951564E+03  0.24863951564E+03  0.00000000000E+00 0.  1.
         25    1    1    2    0    0  0.12392624739E+03 -0.66653476710E+02  0.50603208449E+02  0.19490019357E+03  0.12500000000E+03 0.  0.
         25    1    1    2    0    0 -0.57367932384E+02  0.12586497474E+03 -0.59151907201E+02  0.19559401744E+03  0.12500000000E+03 0.  0.
         25    1    1    2    0    0 -0.66558315006E+02 -0.59211498028E+02  0.70802241630E+02  0.16903836315E+03  0.12500000000E+03 0.  0.
</event>
<event>
 5    0  0.6605739E-005  0.3389809E+03  0.7546771E-02  0.1067231E+00
         21   -1    0    0  502  501  0.00000000000E+00  0.00000000000E+00  0.37461398763E+03  0.37461398763E+03  0.00000000000E+00 0.  1.
         21   -1    0    0  501  502 -0.00000000000E+00 -0.00000000000E+00 -0.30673716989E+03  0.30673716989E+03  0.00000000000E+00 0.  1.
         25    1    1    2    0    0 -0.37866538196E+02 -0.69566471831E+02  0.15705100584E+03  0.21578551191E+03  0.12500000000E+03 0.  0.
         25    1    1    2    0    0 -0.41583276981E+02  0.11500678422E+02 -0.22194546186E+03  0.25835290316E+03  0.12500000000E+03 0.  0.
         25    1    1    2    0    0  0.79449815177E+02  0.58065793409E+02  0.13277127376E+03  0.20721274245E+03  0.12500000000E+03 0.  0.
</event>
<event>
 5    0  0.5714299E-005  0.2710422E+03  0.7546771E-02  0.1100685E+00
         21   -1    0    0  502  501  0.00000000000E+00  0.00000000000E+00  0.14658238524E+03  0.14658238524E+03  0.00000000000E+00 0.  1.
         21   -1    0    0  501  502 -0.00000000000E+00 -0.00000000000E+00 -0.50117797284E+03  0.50117797284E+03  0.00000000000E+00 0.  1.
         25    1    1    2    0    0  0.40785290001E+02 -0.70651709902E+02 -0.74191450371E+02  0.16668675802E+03  0.12500000000E+03 0.  0.
         25    1    1    2    0    0 -0.11904861303E+03  0.79612637152E+02 -0.33042004826E+02  0.19294434001E+03  0.12500000000E+03 0.  0.
         25    1    1    2    0    0  0.78263323032E+02 -0.89609272499E+01 -0.24736213240E+03  0.28812926004E+03  0.12500000000E+03 0.  0.
</event>
<event>
 5    0  0.5677492E-005  0.3897346E+03  0.7546771E-02  0.1047393E+00
         21   -1    0    0  502  501  0.00000000000E+00  0.00000000000E+00  0.26865839523E+03  0.26865839523E+03  0.00000000000E+00 0. -1.
         21   -1    0    0  501  502 -0.00000000000E+00 -0.00000000000E+00 -0.56537629975E+03  0.56537629975E+03  0.00000000000E+00 0. -1.
         25    1    1    2    0    0  0.26750504435E+03 -0.76393315324E+02 -0.18873292365E+03  0.35866419370E+03  0.12500000000E+03 0.  0.
         25    1    1    2    0    0 -0.72893405577E+02 -0.10548576612E+02 -0.16710287179E+03  0.22129864619E+03  0.12500000000E+03 0.  0.
         25    1    1    2    0    0 -0.19461163877E+03  0.86941891936E+02  0.59117890922E+02  0.25407185508E+03  0.12500000000E+03 0.  0.
</event>
<event>
 5    0  0.6042151E-005  0.3553115E+03  0.7546771E-02  0.1060456E+00
         21   -1    0    0  502  501  0.00000000000E+00  0.00000000000E+00  0.33787161634E+03  0.33787161634E+03  0.00000000000E+00 0.  1.
         21   -1    0    0  501  502 -0.00000000000E+00 -0.00000000000E+00 -0.37365149933E+03  0.37365149933E+03  0.00000000000E+00 0.  1.
         25    1    1    2    0    0 -0.21371628252E+02 -0.59271231846E+02 -0.13590304453E+03  0.19510116076E+03  0.12500000000E+03 0.  0.
         25    1    1    2    0    0  0.16385702404E+03 -0.12269152975E+03  0.15367634282E+02  0.24034038359E+03  0.12500000000E+03 0.  0.
         25    1    1    2    0    0 -0.14248539579E+03  0.18196276160E+03  0.84755527251E+02  0.27608157132E+03  0.12500000000E+03 0.  0.
</event>
<event>
 5    0  0.5677492E-005  0.3049425E+03  0.7546771E-02  0.1082796E+00
         21   -1    0    0  502  501  0.00000000000E+00  0.00000000000E+00  0.37084583766E+03  0.37084583766E+03  0.00000000000E+00 0. -1.
         21   -1    0    0  501  502 -0.00000000000E+00 -0.00000000000E+00 -0.25075087489E+03  0.25075087489E+03  0.00000000000E+00 0. -1.
         25    1    1    2    0    0  0.11766068730E+03  0.11897437908E+03  0.16475838350E+02  0.20951227521E+03  0.12500000000E+03 0.  0.
         25    1    1    2    0    0 -0.12802810427E+03 -0.14295776969E+03  0.15271257703E+03  0.27527123093E+03  0.12500000000E+03 0.  0.
         25    1    1    2    0    0  0.10367416972E+02  0.23983390609E+02 -0.49093452608E+02  0.13681320641E+03  0.12500000000E+03 0.  0.
</event>
<event>
 5    0  0.5677492E-005  0.3631290E+03  0.7546771E-02  0.1057352E+00
         21   -1    0    0  502  501  0.00000000000E+00  0.00000000000E+00  0.41332598693E+03  0.41332598693E+03  0.00000000000E+00 0. -1.
         21   -1    0    0  501  502 -0.00000000000E+00 -0.00000000000E+00 -0.31902828068E+03  0.31902828068E+03  0.00000000000E+00 0. -1.
         25    1    1    2    0    0 -0.34075177611E+01 -0.54804508245E+02 -0.18527618219E+03  0.23014649462E+03  0.12500000000E+03 0.  0.
         25    1    1    2    0    0  0.13855865063E+03 -0.64124262109E+02  0.14705155750E+03  0.24608856377E+03  0.12500000000E+03 0.  0.
         25    1    1    2    0    0 -0.13515113287E+03  0.11892877035E+03  0.13252233094E+03  0.25611920922E+03  0.12500000000E+03 0.  0.
</event>
<event>
 5    0  0.5677492E-005  0.4645540E+03  0.7546771E-02  0.1023469E+00
         21   -1    0    0  502  501  0.00000000000E+00  0.00000000000E+00  0.12415551552E+04  0.12415551552E+04  0.00000000000E+00 0. -1.
         21   -1    0    0  501  502 -0.00000000000E+00 -0.00000000000E+00 -0.17382263525E+03  0.17382263525E+03  0.00000000000E+00 0. -1.
         25    1    1    2    0    0 -0.13374466857E+03 -0.10286202516E+03  0.43989818852E+03  0.48744604712E+03  0.12500000000E+03 0.  0.
         25    1    1    2    0    0  0.44283015065E+02  0.21180751070E+03 -0.22450314691E+02  0.25090321569E+03  0.12500000000E+03 0.  0.
         25    1    1    2    0    0  0.89461653508E+02 -0.10894548555E+03  0.65028464610E+03  0.67702852763E+03  0.12500000000E+03 0.  0.
</event>
<event>
 5    0  0.5677492E-005  0.2387636E+03  0.7546771E-02  0.1120619E+00
         21   -1    0    0  502  501  0.00000000000E+00  0.00000000000E+00  0.11752710470E+03  0.11752710470E+03  0.00000000000E+00 0.  1.
         21   -1    0    0  501  502 -0.00000000000E+00 -0.00000000000E+00 -0.48506299822E+03  0.48506299822E+03  0.00000000000E+00 0.  1.
         25    1    1    2    0    0 -0.59045913874E+02 -0.46496619899E+02 -0.16130246066E+03  0.21746686971E+03  0.12500000000E+03 0.  0.
         25    1    1    2    0    0  0.12721616800E+03  0.26658960730E+02 -0.98509409837E+02  0.20548420235E+03  0.12500000000E+03 0.  0.
         25    1    1    2    0    0 -0.68170254130E+02  0.19837659168E+02 -0.10772402303E+03  0.17963903086E+03  0.12500000000E+03 0.  0.
</event>
<event>
 5    0  0.5677492E-005  0.3193501E+03  0.7546771E-02  0.1075949E+00
         21   -1    0    0  502  501  0.00000000000E+00  0.00000000000E+00  0.17559813470E+03  0.17559813470E+03  0.00000000000E+00 0. -1.
         21   -1    0    0  501  502 -0.00000000000E+00 -0.00000000000E+00 -0.58078344192E+03  0.58078344192E+03  0.00000000000E+00 0. -1.
         25    1    1    2    0    0  0.49831941102E+02 -0.46762492900E+02 -0.63037522518E+02  0.15578408886E+03  0.12500000000E+03 0.  0.
         25    1    1    2    0    0 -0.59835483941E+02  0.18554559020E+03 -0.34262622743E+03  0.41355191077E+03  0.12500000000E+03 0.  0.
         25    1    1    2    0    0  0.10003542839E+02 -0.13878309730E+03  0.47844271761E+00  0.18704557699E+03  0.12500000000E+03 0.  0.
</event>
<event>
 5    0  0.5677492E-005  0.3954225E+03  0.7546771E-02  0.1045376E+00
         21   -1    0    0  502  501  0.00000000000E+00  0.00000000000E+00  0.22273846127E+03  0.22273846127E+03  0.00000000000E+00 0. -1.
         21   -1    0    0  501  502 -0.00000000000E+00 -0.00000000000E+00 -0.70198468764E+03  0.70198468764E+03  0.00000000000E+00 0. -1.
         25    1    1    2    0    0  0.11170345255E+03  0.12713966587E+03 -0.52049237070E+02  0.21674011864E+03  0.12500000000E+03 0.  0.
         25    1    1    2    0    0  0.63947856684E+02 -0.12603005143E+02 -0.44147933001E+03  0.46344057109E+03  0.12500000000E+03 0.  0.
         25    1    1    2    0    0 -0.17565130923E+03 -0.11453666072E+03  0.14282340714E+02  0.24454245918E+03  0.12500000000E+03 0.  0.
</event>
<event>
 5    0  0.5679717E-005  0.3784336E+03  0.7546771E-02  0.1051514E+00
         21   -1    0    0  502  501  0.00000000000E+00  0.00000000000E+00  0.38392738466E+03  0.38392738466E+03  0.00000000000E+00 0. -1.
         21   -1    0    0  501  502 -0.00000000000E+00 -0.00000000000E+00 -0.37301834939E+03  0.37301834939E+03  0.00000000000E+00 0. -1.
         25    1    1    2    0    0  0.33523558203E+02  0.18980990367E+03  0.66080624161E+02  0.23904660084E+03  0.12500000000E+03 0.  0.
         25    1    1    2    0    0 -0.64410630564E+02 -0.51534676908E+02 -0.22069153700E+03  0.26671015495E+03  0.12500000000E+03 0.  0.
         25    1    1    2    0    0  0.30887072361E+02 -0.13827522676E+03  0.16551994811E+03  0.25118897826E+03  0.12500000000E+03 0.  0.
</event>
<event>
 5    0  0.5677492E-005  0.2784634E+03  0.7546771E-02  0.1096531E+00
         21   -1    0    0  502  501  0.00000000000E+00  0.00000000000E+00  0.25502402243E+02  0.25502402243E+02  0.00000000000E+00 0.  1.
         21   -1    0    0  501  502 -0.00000000000E+00 -0.00000000000E+00 -0.30405704751E+04  0.30405704751E+04  0.00000000000E+00 0.  1.
         25    1    1    2    0    0  0.15847214138E+03  0.35091204112E+01 -0.11627003181E+04  0.11800943874E+04  0.12500000000E+03 0.  0.
         25    1    1    2    0    0  0.17833104015E+02  0.42998307204E+02 -0.70529066076E+03  0.71779299953E+03  0.12500000000E+03 0.  0.
         25    1    1    2    0    0 -0.17630524540E+03 -0.46507427616E+02 -0.11470770940E+04  0.11681854903E+04  0.12500000000E+03 0.  0.
</event>
<event>
 5    0  0.5677492E-005  0.3513452E+03  0.7546771E-02  0.1062064E+00
         21   -1    0    0  502  501  0.00000000000E+00  0.00000000000E+00  0.38085846847E+03  0.38085846847E+03  0.00000000000E+00 0. -1.
         21   -1    0    0  501  502 -0.00000000000E+00 -0.00000000000E+00 -0.32411897261E+03  0.32411897261E+03  0.00000000000E+00 0. -1.
         25    1    1    2    0    0 -0.10683980370E+03 -0.25827407134E+02  0.38223116839E+02  0.17078584624E+03  0.12500000000E+03 0.  0.
         25    1    1    2    0    0  0.61822463367E+02 -0.44403496079E+02  0.23128694438E+03  0.27370118392E+03  0.12500000000E+03 0.  0.
         25    1    1    2    0    0  0.45017340335E+02  0.70230903213E+02 -0.21277056536E+03  0.26049041091E+03  0.12500000000E+03 0.  0.
</event>
<event>
 5    0  0.5677492E-005  0.2770952E+03  0.7546771E-02  0.1097286E+00
         21   -1    0    0  502  501  0.00000000000E+00  0.00000000000E+00  0.22138660842E+03  0.22138660842E+03  0.00000000000E+00 0.  1.
         21   -1    0    0  501  502 -0.00000000000E+00 -0.00000000000E+00 -0.34682203648E+03  0.34682203648E+03  0.00000000000E+00 0.  1.
         25    1    1    2    0    0 -0.14521318936E+03  0.21094452065E+02 -0.74037080965E+02  0.20649052189E+03  0.12500000000E+03 0.  0.
         25    1    1    2    0    0  0.22392700941E+02  0.43806615063E+02 -0.10135641082E+03  0.16828123660E+03  0.12500000000E+03 0.  0.
         25    1    1    2    0    0  0.12282048842E+03 -0.64901067129E+02  0.49958063721E+02  0.19343688640E+03  0.12500000000E+03 0.  0.
</event>
<event>
 5    0  0.5677492E-005  0.2966732E+03  0.7546771E-02  0.1086916E+00
         21   -1    0    0  502  501  0.00000000000E+00  0.00000000000E+00  0.39831533952E+03  0.39831533952E+03  0.00000000000E+00 0.  1.
         21   -1    0    0  501  502 -0.00000000000E+00 -0.00000000000E+00 -0.22096817075E+03  0.22096817075E+03  0.00000000000E+00 0.  1.
         25    1    1    2    0    0  0.44737169927E+02 -0.62635614354E+02 -0.16849760429E+02  0.14776179812E+03  0.12500000000E+03 0.  0.
         25    1    1    2    0    0 -0.97209116460E+02  0.97319665692E+02 -0.47859788520E+02  0.19192782240E+03  0.12500000000E+03 0.  0.
         25    1    1    2    0    0  0.52471946533E+02 -0.34684051338E+02  0.24205671771E+03  0.27959388974E+03  0.12500000000E+03 0.  0.
</event>
<event>
 5    0  0.5677492E-005  0.3197543E+03  0.7546771E-02  0.1075762E+00
         21   -1    0    0  502  501  0.00000000000E+00  0.00000000000E+00  0.76556771521E+03  0.76556771521E+03  0.00000000000E+00 0.  1.
         21   -1    0    0  501  502 -0.00000000000E+00 -0.00000000000E+00 -0.13355160747E+03  0.13355160747E+03  0.00000000000E+00 0.  1.
         25    1    1    2    0    0 -0.65079698275E+02 -0.53375142605E+01 -0.28061483766E+02  0.14379256955E+03  0.12500000000E+03 0.  0.
         25    1    1    2    0    0  0.11444900599E+03  0.69793981825E+02  0.19804045390E+03  0.26984216915E+03  0.12500000000E+03 0.  0.
         25    1    1    2    0    0 -0.49369307714E+02 -0.64456467565E+02  0.46203713760E+03  0.48548458398E+03  0.12500000000E+03 0.  0.
</event>
<event>
 5    0  0.5677492E-005  0.2967194E+03  0.7546771E-02  0.1086892E+00
         21   -1    0    0  502  501  0.00000000000E+00  0.00000000000E+00  0.48565708249E+03  0.48565708249E+03  0.00000000000E+00 0. -1.
         21   -1    0    0  501  502 -0.00000000000E+00 -0.00000000000E+00 -0.18128514849E+03  0.18128514849E+03  0.00000000000E+00 0. -1.
         25    1    1    2    0    0 -0.23031684659E+02  0.53686136794E+02  0.32080464507E+03  0.34921809815E+03  0.12500000000E+03 0.  0.
         25    1    1    2    0    0  0.83852110693E+02 -0.84196164438E+02  0.10865270185E+02  0.17280979333E+03  0.12500000000E+03 0.  0.
         25    1    1    2    0    0 -0.60820426034E+02  0.30510027644E+02 -0.27297981253E+02  0.14491433949E+03  0.12500000000E+03 0.  0.
</event>
<event>
 5    0  0.5677492E-005  0.3333736E+03  0.7546771E-02  0.1069654E+00
         21   -1    0    0  502  501  0.00000000000E+00  0.00000000000E+00  0.61510841990E+02  0.61510841990E+02  0.00000000000E+00 0.  1.
         21   -1    0    0  501  502 -0.00000000000E+00 -0.00000000000E+00 -0.18068028787E+04  0.18068028787E+04  0.00000000000E+00 0.  1.
         25    1    1    2    0    0  0.11150507976E+03 -0.71045927928E+02 -0.45090575675E+03  0.48623236026E+03  0.12500000000E+03 0.  0.
         25    1    1    2    0    0  0.80322968977E+02  0.14956854798E+03 -0.36324323642E+03  0.41999187932E+03  0.12500000000E+03 0.  0.
         25    1    1    2    0    0 -0.19182804874E+03 -0.78522620050E+02 -0.93114304350E+03  0.96208948108E+03  0.12500000000E+03 0.  0.
</event>
<event>
 5    0  0.5677492E-005  0.2305436E+03  0.7546771E-02  0.1126258E+00
         21   -1    0    0  502  501  0.00000000000E+00  0.00000000000E+00  0.95791763588E+03  0.95791763588E+03  0.00000000000E+00 0. -1.
         21   -1    0    0  501  502 -0.00000000000E+00 -0.00000000000E+00 -0.55485320695E+02  0.55485320695E+02  0.00000000000E+00 0. -1.
         25    1    1    2    0    0  0.19210705752E+02  0.20165143115E+02  0.59349993886E+03  0.60715966734E+03  0.12500000000E+03 0.  0.
         25    1    1    2    0    0 -0.41132207802E+02  0.13900179780E+02  0.16006328417E+03  0.20767842559E+03  0.12500000000E+03 0.  0.
         25    1    1    2    0    0  0.21921502049E+02 -0.34065322896E+02  0.14886909215E+03  0.19856486364E+03  0.12500000000E+03 0.  0.
</event>
<event>
 5    0  0.5677492E-005  0.2688846E+03  0.7546771E-02  0.1101920E+00
         21   -1    0    0  502  501  0.00000000000E+00  0.00000000000E+00  0.90369019882E+03  0.90369019882E+03  0.00000000000E+00 0.  1.
         21   -1    0    0  501  502 -0.00000000000E+00 -0.00000000000E+00 -0.80004094533E+02  0.80004094533E+02  0.00000000000E+00 0.  1.
         25    1    1    2    0    0 -0.63187305258E+02 -0.21188102848E+02  0.10109164911E+03  0.17402899979E+03  0.12500000000E+03 0.  0.
         25    1    1    2    0    0  0.68324071670E+01 -0.10239295049E+03  0.21142983786E+03  0.26619273926E+03  0.12500000000E+03 0.  0.
         25    1    1    2    0    0  0.56354898091E+02  0.12358105334E+03  0.51116461732E+03  0.54347255430E+03  0.12500000000E+03 0.  0.
</event>
<event>
 5    0  0.6271670E-005  0.4881856E+03  0.7546771E-02  0.1016909E+00
         21   -1    0    0  502  501  0.00000000000E+00  0.00000000000E+00  0.73453108958E+03  0.73453108958E+03  0.00000000000E+00 0. -1.
         21   -1    0    0  501  502 -0.00000000000E+00 -0.00000000000E+00 -0.32445888490E+03  0.32445888490E+03  0.00000000000E+00 0. -1.
         25    1    1    2    0    0 -0.34006385961E+02 -0.17963325652E+03 -0.57585344892E+02  0.22883534054E+03  0.12500000000E+03 0.  0.
         25    1    1    2    0    0  0.28253843643E+03  0.20900227825E+03  0.13779874314E+03  0.39764734877E+03  0.12500000000E+03 0.  0.
         25    1    1    2    0    0 -0.24853205047E+03 -0.29369021736E+02  0.32985880643E+03  0.43250728517E+03  0.12500000000E+03 0.  0.
</event>
<event>
 5    0  0.6606920E-005  0.3515952E+03  0.7546771E-02  0.1061962E+00
         21   -1    0    0  502  501  0.00000000000E+00  0.00000000000E+00  0.70333730835E+03  0.70333730835E+03  0.00000000000E+00 0. -1.
         21   -1    0    0  501  502 -0.00000000000E+00 -0.00000000000E+00 -0.17576086215E+03  0.17576086215E+03  0.00000000000E+00 0. -1.
         25    1    1    2    0    0 -0.59892300673E+02 -0.13197368536E+03  0.15224981566E+03  0.24455908831E+03  0.12500000000E+03 0.  0.
         25    1    1    2    0    0 -0.48125423096E+02  0.22171995068E+03  0.36323844055E+03  0.44614230641E+03  0.12500000000E+03 0.  0.
         25    1    1    2    0    0  0.10801772377E+03 -0.89746265321E+02  0.12088189990E+02  0.18839677578E+03  0.12500000000E+03 0.  0.
</event>
<event>
 5    0  0.5677492E-005  0.3002611E+03  0.7546771E-02  0.1085110E+00
         21   -1    0    0  502  501  0.00000000000E+00  0.00000000000E+00  0.14448555367E+03  0.14448555367E+03  0.00000000000E+00 0. -1.
         21   -1    0    0  501  502 -0.00000000000E+00 -0.00000000000E+00 -0.62398447343E+03  0.62398447343E+03  0.00000000000E+00 0. -1.
         25    1    1    2    0    0  0.21165121695E+03  0.22653041383E+02 -0.26666396076E+03  0.36337868112E+03  0.12500000000E+03 0.  0.
         25    1    1    2    0    0 -0.70727547878E+02  0.33682076626E+02 -0.80080922668E+02  0.16785357455E+03  0.12500000000E+03 0.  0.
         25    1    1    2    0    0 -0.14092366908E+03 -0.56335118009E+02 -0.13275403633E+03  0.23723777142E+03  0.12500000000E+03 0.  0.
</event>
<event>
 5    0  0.5960208E-005  0.3658704E+03  0.7546771E-02  0.1056283E+00
         21   -1    0    0  502  501  0.00000000000E+00  0.00000000000E+00  0.78513104848E+03  0.78513104848E+03  0.00000000000E+00 0.  1.
         21   -1    0    0  501  502 -0.00000000000E+00 -0.00000000000E+00 -0.17049533683E+03  0.17049533683E+03  0.00000000000E+00 0.  1.
         25    1    1    2    0    0 -0.30869537969E+02 -0.60068936386E+02  0.46961340924E+03  0.49063526130E+03  0.12500000000E+03 0.  0.
         25    1    1    2    0    0  0.58802303609E+02  0.20150201315E+03  0.41175493889E+02  0.24775228255E+03  0.12500000000E+03 0.  0.
         25    1    1    2    0    0 -0.27932765640E+02 -0.14143307676E+03  0.10384680853E+03  0.21723884146E+03  0.12500000000E+03 0.  0.
</event>
<event>
 5    0  0.5677492E-005  0.2555055E+03  0.7546771E-02  0.1109874E+00
         21   -1    0    0  502  501  0.00000000000E+00  0.00000000000E+00  0.27443523960E+03  0.27443523960E+03  0.00000000000E+00 0. -1.
         21   -1    0    0  501  502 -0.00000000000E+00 -0.00000000000E+00 -0.23788144460E+03  0.23788144460E+03  0.00000000000E+00 0. -1.
         25    1    1    2    0    0 -0.83893328676E+02 -0.19019470001E+02 -0.56073364802E+02  0.16176851695E+03  0.12500000000E+03 0.  0.
         25    1    1    2    0    0  0.11649366593E+03  0.45775877506E+02 -0.18766616858E+02  0.17788589340E+03  0.12500000000E+03 0.  0.
         25    1    1    2    0    0 -0.32600337255E+02 -0.26756407505E+02  0.11139377666E+03  0.17266227385E+03  0.12500000000E+03 0.  0.
</event>
<event>
 5    0  0.5677492E-005  0.4260918E+03  0.7546771E-02  0.1035102E+00
         21   -1    0    0  502  501  0.00000000000E+00  0.00000000000E+00  0.71674012941E+03  0.71674012941E+03  0.00000000000E+00 0. -1.
         21   -1    0    0  501  502 -0.00000000000E+00 -0.00000000000E+00 -0.25330556517E+03  0.25330556517E+03  0.00000000000E+00 0. -1.
         25    1    1    2    0    0  0.27696608027E+03 -0.10490381582E+03  0.14938313850E+03  0.35447897295E+03  0.12500000000E+03 0.  0.
         25    1    1    2    0    0 -0.29032019782E+03 -0.59560655270E+02  0.20719701295E+03  0.38260801232E+03  0.12500000000E+03 0.  0.
         25    1    1    2    0    0  0.13354117547E+02  0.16446447109E+03  0.10685441279E+03  0.23295870930E+03  0.12500000000E+03 0.  0.
</event>
<event>
 5    0  0.5677492E-005  0.3759907E+03  0.7546771E-02  0.1052426E+00
         21   -1    0    0  502  501  0.00000000000E+00  0.00000000000E+00  0.30743711486E+03  0.30743711486E+03  0.00000000000E+00 0. -1.
         21   -1    0    0  501  502 -0.00000000000E+00 -0.00000000000E+00 -0.45983061421E+03  0.45983061421E+03  0.00000000000E+00 0. -1.
         25    1    1    2    0    0  0.58556992635E+02 -0.26765595341E+02 -0.39876208600E+02  0.14615208002E+03  0.12500000000E+03 0.  0.
         25    1    1    2    0    0 -0.12577354239E+03  0.21237913560E+03  0.11067522721E+03  0.29798974332E+03  0.12500000000E+03 0.  0.
         25    1    1    2    0    0  0.67216549753E+02 -0.18561354026E+03 -0.22319251796E+03  0.32312590574E+03  0.12500000000E+03 0.  0.
</event>
<event>
 5    0  0.5677492E-005  0.2836352E+03  0.7546771E-02  0.1093720E+00
         21   -1    0    0  502  501  0.00000000000E+00  0.00000000000E+00  0.96542597783E+02  0.96542597783E+02  0.00000000000E+00 0.  1.
         21   -1    0    0  501  502 -0.00000000000E+00 -0.00000000000E+00 -0.83329998008E+03  0.83329998008E+03  0.00000000000E+00 0.  1.
         25    1    1    2    0    0  0.82923082469E+02  0.80407869482E+02 -0.30293527147E+03  0.34747149780E+03  0.12500000000E+03 0.  0.
         25    1    1    2    0    0  0.87218147161E+02 -0.62271774913E+02 -0.12013447848E+03  0.20381872354E+03  0.12500000000E+03 0.  0.
         25    1    1    2    0    0 -0.17014122963E+03 -0.18136094569E+02 -0.31368763234E+03  0.37855235652E+03  0.12500000000E+03 0.  0.
</event>
<event>
 5    0  0.5677492E-005  0.3256285E+03  0.7546771E-02  0.1073088E+00
         21   -1    0    0  502  501  0.00000000000E+00  0.00000000000E+00  0.18178383235E+03  0.18178383235E+03  0.00000000000E+00 0. -1.
         21   -1    0    0  501  502 -0.00000000000E+00 -0.00000000000E+00 -0.58329660342E+03  0.58329660342E+03  0.00000000000E+00 0. -1.
         25    1    1    2    0    0 -0.27680459124E+02 -0.81490655605E+02 -0.24200534520E+03  0.28565454989E+03  0.12500000000E+03 0.  0.
         25    1    1    2    0    0  0.16847363335E+03  0.12932185692E+03 -0.35553054468E+02  0.24899101890E+03  0.12500000000E+03 0.  0.
         25    1    1    2    0    0 -0.14079317422E+03 -0.47831201320E+02 -0.12395437140E+03  0.23043486697E+03  0.12500000000E+03 0.  0.
</event>
<event>
 5    0  0.5677492E-005  0.3227891E+03  0.7546771E-02  0.1074373E+00
         21   -1    0    0  502  501  0.00000000000E+00  0.00000000000E+00  0.99150805974E+02  0.99150805974E+02  0.00000000000E+00 0.  1.
         21   -1    0    0  501  502 -0.00000000000E+00 -0.00000000000E+00 -0.10508515914E+04  0.10508515914E+04  0.00000000000E+00 0.  1.
         25    1    1    2    0    0  0.10101058808E+03  0.27977855391E+02 -0.39684840578E+03  0.42906824220E+03  0.12500000000E+03 0.  0.
         25    1    1    2    0    0  0.36595741850E+02  0.14813027907E+03 -0.18045930731E+03  0.26734320544E+03  0.12500000000E+03 0.  0.
         25    1    1    2    0    0 -0.13760632993E+03 -0.17610813446E+03 -0.37439307228E+03  0.45359094968E+03  0.12500000000E+03 0.  0.
</event>
<event>
 5    0  0.5677492E-005  0.3422881E+03  0.7546771E-02  0.1065826E+00
         21   -1    0    0  502  501  0.00000000000E+00  0.00000000000E+00  0.19506001320E+03  0.19506001320E+03  0.00000000000E+00 0.  1.
         21   -1    0    0  501  502 -0.00000000000E+00 -0.00000000000E+00 -0.60064135560E+03  0.60064135560E+03  0.00000000000E+00 0.  1.
         25    1    1    2    0    0 -0.40831575857E+02  0.10327292484E+03 -0.17468154836E+03  0.24180810145E+03  0.12500000000E+03 0.  0.
         25    1    1    2    0    0 -0.18264229676E+03 -0.10775449333E+03 -0.13240188602E+03  0.27950760065E+03  0.12500000000E+03 0.  0.
         25    1    1    2    0    0  0.22347387262E+03  0.44815684950E+01 -0.98497908024E+02  0.27438566669E+03  0.12500000000E+03 0.  0.
</event>
<event>
 5    0  0.5677492E-005  0.2854378E+03  0.7546771E-02  0.1092755E+00
         21   -1    0    0  502  501  0.00000000000E+00  0.00000000000E+00  0.11838245256E+03  0.11838245256E+03  0.00000000000E+00 0. -1.
         21   -1    0    0  501  502 -0.00000000000E+00 -0.00000000000E+00 -0.68823338830E+03  0.68823338830E+03  0.00000000000E+00 0. -1.
         25    1    1    2    0    0  0.10302010593E+02  0.70365754070E+02 -0.10662111561E+02  0.14420870775E+03  0.12500000000E+03 0.  0.
         25    1    1    2    0    0 -0.13372170457E+02 -0.13625010745E+03 -0.18278029349E+03  0.26033928327E+03  0.12500000000E+03 0.  0.
         25    1    1    2    0    0  0.30701598636E+01  0.65884353381E+02 -0.37640853069E+03  0.40206784984E+03  0.12500000000E+03 0.  0.
</event>
<event>
 5    0  0.5677492E-005  0.3182063E+03  0.7546771E-02  0.1076478E+00
         21   -1    0    0  502  501  0.00000000000E+00  0.00000000000E+00  0.15703286428E+03  0.15703286428E+03  0.00000000000E+00 0. -1.
         21   -1    0    0  501  502 -0.00000000000E+00 -0.00000000000E+00 -0.64480287204E+03  0.64480287204E+03  0.00000000000E+00 0. -1.
         25    1    1    2    0    0  0.17612545279E+03  0.50233862024E+02 -0.24306001111E+03  0.32900879170E+03  0.12500000000E+03 0.  0.
         25    1    1    2    0    0 -0.13629627792E+03 -0.11154639070E+03 -0.36234840175E+02  0.21899140690E+03  0.12500000000E+03 0.  0.
         25    1    1    2    0    0 -0.39829174878E+02  0.61312528679E+02 -0.20847515647E+03  0.25383553772E+03  0.12500000000E+03 0.  0.
</event>
<event>
 5    0  0.5677492E-005  0.4801399E+03  0.7546771E-02  0.1019097E+00
         21   -1    0    0  502  501  0.00000000000E+00  0.00000000000E+00  0.11823451551E+04  0.11823451551E+04  0.00000000000E+00 0.  1.
         21   -1    0    0  501  502 -0.00000000000E+00 -0.00000000000E+00 -0.19498056481E+03  0.19498056481E+03  0.00000000000E+00 0.  1.
         25    1    1    2    0    0 -0.29073567922E+03 -0.29974983666E+03  0.29570000070E+03  0.52672639023E+03  0.12500000000E+03 0.  0.
         25    1    1    2    0    0  0.14161450131E+03  0.17399694805E+03  0.29404121513E+03  0.39040343378E+03  0.12500000000E+03 0.  0.
         25    1    1    2    0    0  0.14912117791E+03  0.12575288862E+03  0.39762337450E+03  0.46019589595E+03  0.12500000000E+03 0.  0.
</event>
<event>
 5    0  0.5677492E-005  0.3322758E+03  0.7546771E-02  0.1070134E+00
         21   -1    0    0  502  501  0.00000000000E+00  0.00000000000E+00  0.24635928609E+03  0.24635928609E+03  0.00000000000E+00 0.  1.
         21   -1    0    0  501  502 -0.00000000000E+00 -0.00000000000E+00 -0.44815513931E+03  0.44815513931E+03  0.00000000000E+00 0.  1.
         25    1    1    2    0    0 -0.39008323134E+02  0.99229235357E+02  0.66908913933E+02  0.17739755688E+03  0.12500000000E+03 0.  0.
         25    1    1    2    0    0  0.10021209464E+03  0.77211503808E+02 -0.22729955400E+03  0.28860728938E+03  0.12500000000E+03 0.  0.
         25    1    1    2    0    0 -0.61203771505E+02 -0.17644073916E+03 -0.41405213146E+02  0.22850957914E+03  0.12500000000E+03 0.  0.
</event>
<event>
 5    0  0.5724785E-005  0.3034246E+03  0.7546771E-02  0.1083541E+00
         21   -1    0    0  502  501  0.00000000000E+00  0.00000000000E+00  0.22352247975E+03  0.22352247975E+03  0.00000000000E+00 0. -1.
         21   -1    0    0  501  502 -0.00000000000E+00 -0.00000000000E+00 -0.41188916807E+03  0.41188916807E+03  0.00000000000E+00 0. -1.
         25    1    1    2    0    0  0.39248562153E+01  0.25138276823E+02 -0.24604091041E+03  0.27714340521E+03  0.12500000000E+03 0.  0.
         25    1    1    2    0    0 -0.10470724281E+03 -0.23671696452E+01  0.99177062953E+02  0.19086723136E+03  0.12500000000E+03 0.  0.
         25    1    1    2    0    0  0.10078238660E+03 -0.22771107178E+02 -0.41502840864E+02  0.16740101126E+03  0.12500000000E+03 0.  0.
</event>
<event>
 5    0  0.5677492E-005  0.2449290E+03  0.7546771E-02  0.1116552E+00
         21   -1    0    0  502  501  0.00000000000E+00  0.00000000000E+00  0.26748339544E+04  0.26748339544E+04  0.00000000000E+00 0.  1.
         21   -1    0    0  501  502 -0.00000000000E+00 -0.00000000000E+00 -0.22427641047E+02  0.22427641047E+02  0.00000000000E+00 0.  1.
         25    1    1    2    0    0  0.78226827048E+02 -0.65448092287E+02  0.68340485496E+03  0.70218949368E+03  0.12500000000E+03 0.  0.
         25    1    1    2    0    0 -0.73268614720E+02  0.65218120918E+02  0.15408005485E+04  0.15489716019E+04  0.12500000000E+03 0.  0.
         25    1    1    2    0    0 -0.49582123281E+01  0.22997136896E+00  0.42820090987E+03  0.44610049985E+03  0.12500000000E+03 0.  0.
</event>
<event>
 5    0  0.5677492E-005  0.3089336E+03  0.7546771E-02  0.1080858E+00
         21   -1    0    0  502  501  0.00000000000E+00  0.00000000000E+00  0.92378772669E+03  0.92378772669E+03  0.00000000000E+00 0.  1.
         21   -1    0    0  501  502 -0.00000000000E+00 -0.00000000000E+00 -0.10331376739E+03  0.10331376739E+03  0.00000000000E+00 0.  1.
         25    1    1    2    0    0 -0.12193648252E+03  0.61011635297E+01  0.16515476461E+02  0.17550923317E+03  0.12500000000E+03 0.  0.
         25    1    1    2    0    0  0.67002436381E+02 -0.21168963055E+02  0.41918318144E+03  0.44303159152E+03  0.12500000000E+03 0.  0.
         25    1    1    2    0    0  0.54934046143E+02  0.15067799525E+02  0.38477530140E+03  0.40856066939E+03  0.12500000000E+03 0.  0.
</event>
<event>
 5    0  0.5677492E-005  0.3238526E+03  0.7546771E-02  0.1073890E+00
         21   -1    0    0  502  501  0.00000000000E+00  0.00000000000E+00  0.86435607473E+03  0.86435607473E+03  0.00000000000E+00 0. -1.
         21   -1    0    0  501  502 -0.00000000000E+00 -0.00000000000E+00 -0.12133948212E+03  0.12133948212E+03  0.00000000000E+00 0. -1.
         25    1    1    2    0    0 -0.14601317256E+03 -0.15987976168E+03  0.24289933445E+03  0.34857778391E+03  0.12500000000E+03 0.  0.
         25    1    1    2    0    0  0.10670173062E+03 -0.19261639030E+02  0.27527083663E+03  0.32117799357E+03  0.12500000000E+03 0.  0.
         25    1    1    2    0    0  0.39311441942E+02  0.17914140071E+03  0.22484642153E+03  0.31593977937E+03  0.12500000000E+03 0.  0.
</event>
<event>
 5    0  0.5677492E-005  0.2430797E+03  0.7546771E-02  0.1117758E+00
         21   -1    0    0  502  501  0.00000000000E+00  0.00000000000E+00  0.11090656484E+04  0.11090656484E+04  0.00000000000E+00 0. -1.
         21   -1    0    0  501  502 -0.00000000000E+00 -0.00000000000E+00 -0.53277062990E+02  0.53277062990E+02  0.00000000000E+00 0. -1.
         25    1    1    2    0    0 -0.12024314137E+03  0.60278620754E+02  0.46285030800E+03  0.49794310195E+03  0.12500000000E+03 0.  0.
         25    1    1    2    0    0  0.18473493037E+02 -0.54076022112E+02  0.29997166852E+03  0.32995982790E+03  0.12500000000E+03 0.  0.
         25    1    1    2    0    0  0.10176964834E+03 -0.62025986418E+01  0.29296660890E+03  0.33443978155E+03  0.12500000000E+03 0.  0.
</event>
<event>
 5    0  0.5746939E-005  0.4967088E+03  0.7546771E-02  0.1014642E+00
         21   -1    0    0  502  501  0.00000000000E+00  0.00000000000E+00  0.12842992378E+04  0.12842992378E+04  0.00000000000E+00 0.  1.
         21   -1    0    0  501  502 -0.00000000000E+00 -0.00000000000E+00 -0.19210451299E+03  0.19210451299E+03  0.00000000000E+00 0.  1.
         25    1    1    2    0    0 -0.14697631203E+03 -0.12650843054E+02  0.67659438773E+03  0.70368106812E+03  0.12500000000E+03 0.  0.
         25    1    1    2    0    0 -0.11511245064E+03 -0.69831580669E+02 -0.73579453646E+02  0.19790467895E+03  0.12500000000E+03 0.  0.
         25    1    1    2    0    0  0.26208876267E+03  0.82482423723E+02  0.48917979073E+03  0.57481800372E+03  0.12500000000E+03 0.  0.
</event>
<event>
 5    0  0.5677492E-005  0.3522204E+03  0.7546771E-02  0.1061707E+00
         21   -1    0    0  502  501  0.00000000000E+00  0.00000000000E+00  0.87570844886E+02  0.87570844886E+02  0.00000000000E+00 0. -1.
         21   -1    0    0  501  502 -0.00000000000E+00 -0.00000000000E+00 -0.14166728395E+04  0.14166728395E+04  0.00000000000E+00 0. -1.
         25    1    1    2    0    0  0.35183587695E+02 -0.14177297646E+03 -0.94577892876E+03  0.96512188027E+03  0.12500000000E+03 0.  0.
         25    1    1    2    0    0  0.88940693136E+02  0.25529627369E+02 -0.23247822081E+03  0.27970222009E+03  0.12500000000E+03 0.  0.
         25    1    1    2    0    0 -0.12412428083E+03  0.11624334909E+03 -0.15084484504E+03  0.25941958402E+03  0.12500000000E+03 0.  0.
</event>
<event>
 5    0  0.5677492E-005  0.8491005E+03  0.7546771E-02  0.9491545E-01
         21   -1    0    0  502  501  0.00000000000E+00  0.00000000000E+00  0.98886887085E+03  0.98886887085E+03  0.00000000000E+00 0.  1.
         21   -1    0    0  501  502 -0.00000000000E+00 -0.00000000000E+00 -0.72908721150E+03  0.72908721150E+03  0.00000000000E+00 0.  1.
         25    1    1    2    0    0 -0.21421886625E+03 -0.52032362890E+03  0.33088480087E+03  0.66463234415E+03  0.12500000000E+03 0.  0.
         25    1    1    2    0    0 -0.22338618905E+03 -0.10314511955E+03  0.16446336678E+02  0.27647022830E+03  0.12500000000E+03 0.  0.
         25    1    1    2    0    0  0.43760505530E+03  0.62346874845E+03 -0.87549478205E+02  0.77685350990E+03  0.12500000000E+03 0.  0.
</event>
<event>
 5    0  0.5677492E-005  0.3258795E+03  0.7546771E-02  0.1072975E+00
         21   -1    0    0  502  501  0.00000000000E+00  0.00000000000E+00  0.11315088333E+03  0.11315088333E+03  0.00000000000E+00 0.  1.
         21   -1    0    0  501  502 -0.00000000000E+00 -0.00000000000E+00 -0.93854715789E+03  0.93854715789E+03  0.00000000000E+00 0.  1.
         25    1    1    2    0    0 -0.24365913333E+02  0.21694897595E+02 -0.12315365006E+03  0.17848301835E+03  0.12500000000E+03 0.  0.
         25    1    1    2    0    0 -0.92740054108E+02 -0.11533855170E+03 -0.63945236246E+03  0.66815269437E+03  0.12500000000E+03 0.  0.
         25    1    1    2    0    0  0.11710596744E+03  0.93643654108E+02 -0.62790262036E+02  0.20506232850E+03  0.12500000000E+03 0.  0.
</event>
<event>
 5    0  0.5677492E-005  0.7023409E+03  0.7546771E-02  0.9713237E-01
         21   -1    0    0  502  501  0.00000000000E+00  0.00000000000E+00  0.22131647256E+03  0.22131647256E+03  0.00000000000E+00 0.  1.
         21   -1    0    0  501  502 -0.00000000000E+00 -0.00000000000E+00 -0.22288571067E+04  0.22288571067E+04  0.00000000000E+00 0.  1.
         25    1    1    2    0    0 -0.15314427076E+03  0.28656808289E+03 -0.18442769121E+04  0.18768475597E+04  0.12500000000E+03 0.  0.
         25    1    1    2    0    0  0.43074859708E+02  0.62988736628E+02 -0.10849988539E+03  0.18226423020E+03  0.12500000000E+03 0.  0.
         25    1    1    2    0    0  0.11006941105E+03 -0.34955681952E+03 -0.54763836680E+02  0.39106178940E+03  0.12500000000E+03 0.  0.
</event>
<event>
 5    0  0.5677492E-005  0.2821146E+03  0.7546771E-02  0.1094540E+00
         21   -1    0    0  502  501  0.00000000000E+00  0.00000000000E+00  0.18538092518E+03  0.18538092518E+03  0.00000000000E+00 0. -1.
         21   -1    0    0  501  502 -0.00000000000E+00 -0.00000000000E+00 -0.42932482334E+03  0.42932482334E+03  0.00000000000E+00 0. -1.
         25    1    1    2    0    0 -0.39369595723E+01 -0.73550238971E+02  0.11732372379E+02  0.14556024823E+03  0.12500000000E+03 0.  0.
         25    1    1    2    0    0  0.35418607533E+02  0.21347860058E+02  0.43959649289E+02  0.13880799564E+03  0.12500000000E+03 0.  0.
         25    1    1    2    0    0 -0.31481647961E+02  0.52202378912E+02 -0.29963591983E+03  0.33033750464E+03  0.12500000000E+03 0.  0.
</event>
<event>
 5    0  0.5677492E-005  0.3512843E+03  0.7546771E-02  0.1062089E+00
         21   -1    0    0  502  501  0.00000000000E+00  0.00000000000E+00  0.14530587599E+04  0.14530587599E+04  0.00000000000E+00 0.  1.
         21   -1    0    0  501  502 -0.00000000000E+00 -0.00000000000E+00 -0.84924758713E+02  0.84924758713E+02  0.00000000000E+00 0.  1.
         25    1    1    2    0    0 -0.73967771064E+02  0.17255007722E+03  0.42242304316E+03  0.47886426856E+03  0.12500000000E+03 0.  0.
         25    1    1    2    0    0 -0.25036962610E+02  0.97248908923E+02  0.37904550790E+03  0.41156372148E+03  0.12500000000E+03 0.  0.
         25    1    1    2    0    0  0.99004733674E+02 -0.26979898615E+03  0.56666545012E+03  0.64755552856E+03  0.12500000000E+03 0.  0.
</event>
<event>
 5    0  0.5677492E-005  0.3959063E+03  0.7546771E-02  0.1045206E+00
         21   -1    0    0  502  501  0.00000000000E+00  0.00000000000E+00  0.75433587593E+03  0.75433587593E+03  0.00000000000E+00 0. -1.
         21   -1    0    0  501  502 -0.00000000000E+00 -0.00000000000E+00 -0.20778777477E+03  0.20778777477E+03  0.00000000000E+00 0. -1.
         25    1    1    2    0    0 -0.17763678777E+02  0.29622074559E+03  0.35337080347E+03  0.47807761206E+03  0.12500000000E+03 0.  0.
         25    1    1    2    0    0  0.10531628537E+03 -0.10780785713E+03  0.12453105788E+03  0.23204964641E+03  0.12500000000E+03 0.  0.
         25    1    1    2    0    0 -0.87552606590E+02 -0.18841288847E+03  0.68646239811E+02  0.25199639224E+03  0.12500000000E+03 0.  0.
</event>
<event>
 5    0  0.5677492E-005  0.4189589E+03  0.7546771E-02  0.1037406E+00
         21   -1    0    0  502  501  0.00000000000E+00  0.00000000000E+00  0.11946983476E+04  0.11946983476E+04  0.00000000000E+00 0. -1.
         21   -1    0    0  501  502 -0.00000000000E+00 -0.00000000000E+00 -0.14692122249E+03  0.14692122249E+03  0.00000000000E+00 0. -1.
         25    1    1    2    0    0  0.10855913855E+03 -0.51836606585E+02  0.10049336344E+04  0.10197983770E+04  0.12500000000E+03 0.  0.
         25    1    1    2    0    0 -0.73464786806E+02 -0.40717329371E+02  0.58602284136E+02  0.16159889702E+03  0.12500000000E+03 0.  0.
         25    1    1    2    0    0 -0.35094351741E+02  0.92553935956E+02 -0.15758793371E+02  0.16022229606E+03  0.12500000000E+03 0.  0.
</event>
<event>
 5    0  0.5677492E-005  0.3153397E+03  0.7546771E-02  0.1077814E+00
         21   -1    0    0  502  501  0.00000000000E+00  0.00000000000E+00  0.41267265551E+03  0.41267265551E+03  0.00000000000E+00 0. -1.
         21   -1    0    0  501  502 -0.00000000000E+00 -0.00000000000E+00 -0.24096374372E+03  0.24096374372E+03  0.00000000000E+00 0. -1.
         25    1    1    2    0    0 -0.54694078738E+02  0.84898474272E+02 -0.21965599279E+02  0.16219334368E+03  0.12500000000E+03 0.  0.
         25    1    1    2    0    0  0.74295407589E+02 -0.16743415846E+03  0.24634344132E+03  0.33145753286E+03  0.12500000000E+03 0.  0.
         25    1    1    2    0    0 -0.19601328852E+02  0.82535684187E+02 -0.52668930249E+02  0.15998552269E+03  0.12500000000E+03 0.  0.
</event>
<event>
 5    0  0.5677492E-005  0.3747266E+03  0.7546771E-02  0.1052900E+00
         21   -1    0    0  502  501  0.00000000000E+00  0.00000000000E+00  0.10184456144E+04  0.10184456144E+04  0.00000000000E+00 0.  1.
         21   -1    0    0  501  502 -0.00000000000E+00 -0.00000000000E+00 -0.13787682570E+03  0.13787682570E+03  0.00000000000E+00 0.  1.
         25    1    1    2    0    0 -0.91840310821E+02 -0.14050380161E+03  0.17880003778E+03  0.27526426297E+03  0.12500000000E+03 0.  0.
         25    1    1    2    0    0 -0.24597908464E+02  0.17188985937E+03  0.67148715701E+03  0.70474902120E+03  0.12500000000E+03 0.  0.
         25    1    1    2    0    0  0.11643821929E+03 -0.31386057760E+02  0.30281593895E+02  0.17630915592E+03  0.12500000000E+03 0.  0.
</event>
<event>
 5    0  0.5677492E-005  0.5112745E+03  0.7546771E-02  0.1010877E+00
         21   -1    0    0  502  501  0.00000000000E+00  0.00000000000E+00  0.50653304391E+03  0.50653304391E+03  0.00000000000E+00 0. -1.
         21   -1    0    0  501  502 -0.00000000000E+00 -0.00000000000E+00 -0.51606036087E+03  0.51606036087E+03  0.00000000000E+00 0.  1.
         25    1    1    2    0    0 -0.10757616525E+03 -0.41265407323E+03 -0.69475595997E+02  0.44978647593E+03  0.12500000000E+03 0.  0.
         25    1    1    2    0    0 -0.17855219164E+02  0.18066612003E+03 -0.97699790002E+02  0.24110019648E+03  0.12500000000E+03 0.  0.
         25    1    1    2    0    0  0.12543138441E+03  0.23198795320E+03  0.15764806904E+03  0.33170673237E+03  0.12500000000E+03 0.  0.
</event>
<event>
 5    0  0.7222905E-005  0.4814582E+03  0.7546771E-02  0.1018735E+00
         21   -1    0    0  502  501  0.00000000000E+00  0.00000000000E+00  0.78316493618E+03  0.78316493618E+03  0.00000000000E+00 0. -1.
         21   -1    0    0  501  502 -0.00000000000E+00 -0.00000000000E+00 -0.29598111265E+03  0.29598111265E+03  0.00000000000E+00 0. -1.
         25    1    1    2    0    0 -0.19795139913E+03  0.70151480183E+02 -0.64442994336E+02  0.25275261840E+03  0.12500000000E+03 0.  0.
         25    1    1    2    0    0  0.27135027133E+03  0.44410496084E+02  0.69297872801E+02  0.30988781371E+03  0.12500000000E+03 0.  0.
         25    1    1    2    0    0 -0.73398872199E+02 -0.11456197627E+03  0.48232894506E+03  0.51650561671E+03  0.12500000000E+03 0.  0.
</event>
<event>
 5    0  0.5677492E-005  0.3192027E+03  0.7546771E-02  0.1076017E+00
         21   -1    0    0  502  501  0.00000000000E+00  0.00000000000E+00  0.30317386206E+03  0.30317386206E+03  0.00000000000E+00 0.  1.
         21   -1    0    0  501  502 -0.00000000000E+00 -0.00000000000E+00 -0.33607902578E+03  0.33607902578E+03  0.00000000000E+00 0.  1.
         25    1    1    2    0    0 -0.82430075694E+02  0.13363627419E+02 -0.19907360250E+03  0.24945661573E+03  0.12500000000E+03 0.  0.
         25    1    1    2    0    0 -0.68516140219E+02  0.24555275348E+02  0.28816665293E+02  0.14748838333E+03  0.12500000000E+03 0.  0.
         25    1    1    2    0    0  0.15094621591E+03 -0.37918902767E+02  0.13735177349E+03  0.24230788878E+03  0.12500000000E+03 0.  0.
</event>
<event>
 5    0  0.5677492E-005  0.2626624E+03  0.7546771E-02  0.1105554E+00
         21   -1    0    0  502  501  0.00000000000E+00  0.00000000000E+00  0.27462518507E+04  0.27462518507E+04  0.00000000000E+00 0. -1.
         21   -1    0    0  501  502 -0.00000000000E+00 -0.00000000000E+00 -0.25122073816E+02  0.25122073816E+02  0.00000000000E+00 0. -1.
         25    1    1    2    0    0 -0.21378546262E+02 -0.34769163148E+02  0.57760788274E+03  0.59238653187E+03  0.12500000000E+03 0.  0.
         25    1    1    2    0    0  0.17949364308E+02 -0.12623294583E+03  0.12374187281E+04  0.12502347959E+04  0.12500000000E+03 0.  0.
         25    1    1    2    0    0  0.34291819536E+01  0.16100210898E+03  0.90610316603E+03  0.92875259670E+03  0.12500000000E+03 0.  0.
</event>
<event>
 5    0  0.5834997E-005  0.3030250E+03  0.7546771E-02  0.1083738E+00
         21   -1    0    0  502  501  0.00000000000E+00  0.00000000000E+00  0.36282000874E+03  0.36282000874E+03  0.00000000000E+00 0.  1.
         21   -1    0    0  501  502 -0.00000000000E+00 -0.00000000000E+00 -0.25308462228E+03  0.25308462228E+03  0.00000000000E+00 0.  1.
         25    1    1    2    0    0 -0.35579714016E+02 -0.24413104406E+02  0.19188326047E+03  0.23303669532E+03  0.12500000000E+03 0.  0.
         25    1    1    2    0    0  0.42415087358E+02 -0.11781547842E+03 -0.77964939324E+02  0.19334698951E+03  0.12500000000E+03 0.  0.
         25    1    1    2    0    0 -0.68353733419E+01  0.14222858282E+03 -0.41829346805E+01  0.18952094619E+03  0.12500000000E+03 0.  0.
</event>
<event>
 5    0  0.5677492E-005  0.2248956E+03  0.7546771E-02  0.1130285E+00
         21   -1    0    0  502  501  0.00000000000E+00  0.00000000000E+00  0.61933661184E+02  0.61933661184E+02  0.00000000000E+00 0. -1.
         21   -1    0    0  501  502 -0.00000000000E+00 -0.00000000000E+00 -0.81664846736E+03  0.81664846736E+03  0.00000000000E+00 0. -1.
         25    1    1    2    0    0  0.60141753103E+02  0.35527005540E+02 -0.45267910168E+03  0.47478686554E+03  0.12500000000E+03 0.  0.
         25    1    1    2    0    0 -0.54832119637E+02  0.10236077542E+01 -0.17321870869E+03  0.22053872711E+03  0.12500000000E+03 0.  0.
         25    1    1    2    0    0 -0.53096334656E+01 -0.36550613294E+02 -0.12881699581E+03  0.18325653590E+03  0.12500000000E+03 0.  0.
</event>
<event>
 5    0  0.5880564E-005  0.2501022E+03  0.7546771E-02  0.1113240E+00
         21   -1    0    0  502  501  0.00000000000E+00  0.00000000000E+00  0.41610756988E+03  0.41610756988E+03  0.00000000000E+00 0.  1.
         21   -1    0    0  501  502 -0.00000000000E+00 -0.00000000000E+00 -0.15032438593E+03  0.15032438593E+03  0.00000000000E+00 0.  1.
         25    1    1    2    0    0 -0.47475405516E+02 -0.11211522072E+03  0.18516857690E+03  0.25443297490E+03  0.12500000000E+03 0.  0.
         25    1    1    2    0    0  0.28580649597E+02 -0.58408975828E+01  0.39090163106E+02  0.13417902395E+03  0.12500000000E+03 0.  0.
         25    1    1    2    0    0  0.18894755919E+02  0.11795611830E+03  0.41524443946E+02  0.17781995695E+03  0.12500000000E+03 0.  0.
</event>
<event>
 5    0  0.5677492E-005  0.2723097E+03  0.7546771E-02  0.1099965E+00
         21   -1    0    0  502  501  0.00000000000E+00  0.00000000000E+00  0.72328021405E+03  0.72328021405E+03  0.00000000000E+00 0. -1.
         21   -1    0    0  501  502 -0.00000000000E+00 -0.00000000000E+00 -0.10252258917E+03  0.10252258917E+03  0.00000000000E+00 0. -1.
         25    1    1    2    0    0 -0.12018134202E+03 -0.96182295206E+02  0.17634013489E+03  0.26535906251E+03  0.12500000000E+03 0.  0.
         25    1    1    2    0    0  0.28659458323E+02  0.90125046479E+02  0.10897575082E+03  0.19090469565E+03  0.12500000000E+03 0.  0.
         25    1    1    2    0    0  0.91521883694E+02  0.60572487271E+01  0.33544173916E+03  0.36953904507E+03  0.12500000000E+03 0.  0.
</event>
<event>
 5    0  0.5677492E-005  0.2644958E+03  0.7546771E-02  0.1104472E+00
         21   -1    0    0  502  501  0.00000000000E+00  0.00000000000E+00  0.14952907423E+04  0.14952907423E+04  0.00000000000E+00 0. -1.
         21   -1    0    0  501  502 -0.00000000000E+00 -0.00000000000E+00 -0.46785569978E+02  0.46785569978E+02  0.00000000000E+00 0. -1.
         25    1    1    2    0    0  0.14542264850E+03 -0.95321632057E+01  0.48950596135E+03  0.52581336520E+03  0.12500000000E+03 0.  0.
         25    1    1    2    0    0 -0.71882103754E+02 -0.49348519581E+02  0.27326586174E+03  0.31289222492E+03  0.12500000000E+03 0.  0.
         25    1    1    2    0    0 -0.73540544750E+02  0.58880682787E+02  0.68573334928E+03  0.70337072220E+03  0.12500000000E+03 0.  0.
</event>
<event>
 5    0  0.5809175E-005  0.3995020E+03  0.7546771E-02  0.1043952E+00
         21   -1    0    0  502  501  0.00000000000E+00  0.00000000000E+00  0.33070579822E+03  0.33070579822E+03  0.00000000000E+00 0. -1.
         21   -1    0    0  501  502 -0.00000000000E+00 -0.00000000000E+00 -0.48260964894E+03  0.48260964894E+03  0.00000000000E+00 0. -1.
         25    1    1    2    0    0 -0.12956063343E+03 -0.10673765320E+02 -0.31048938777E+03  0.35906621523E+03  0.12500000000E+03 0.  0.
         25    1    1    2    0    0 -0.42718628554E+02 -0.46400138585E+02  0.18532082663E+03  0.23226420918E+03  0.12500000000E+03 0.  0.
         25    1    1    2    0    0  0.17227926198E+03  0.57073903905E+02 -0.26735289573E+02  0.22198502275E+03  0.12500000000E+03 0.  0.
</event>
<event>
 5    0  0.5677492E-005  0.2356890E+03  0.7546771E-02  0.1122698E+00
         21   -1    0    0  502  501  0.00000000000E+00  0.00000000000E+00  0.96452887102E+02  0.96452887102E+02  0.00000000000E+00 0. -1.
         21   -1    0    0  501  502 -0.00000000000E+00 -0.00000000000E+00 -0.57592187334E+03  0.57592187334E+03  0.00000000000E+00 0. -1.
         25    1    1    2    0    0  0.18761348567E+02  0.37338377841E+02 -0.13082921171E+03  0.18570790316E+03  0.12500000000E+03 0.  0.
         25    1    1    2    0    0 -0.40166055525E+02  0.19662418940E+02 -0.31756202719E+03  0.34419553142E+03  0.12500000000E+03 0.  0.
         25    1    1    2    0    0  0.21404706959E+02 -0.57000796781E+02 -0.31077747339E+02  0.14247132586E+03  0.12500000000E+03 0.  0.
</event>
<event>
 5    0  0.5677492E-005  0.3355988E+03  0.7546771E-02  0.1068686E+00
         21   -1    0    0  502  501  0.00000000000E+00  0.00000000000E+00  0.29878595211E+03  0.29878595211E+03  0.00000000000E+00 0.  1.
         21   -1    0    0  501  502 -0.00000000000E+00 -0.00000000000E+00 -0.37694718227E+03  0.37694718227E+03  0.00000000000E+00 0.  1.
         25    1    1    2    0    0  0.14216325780E+03  0.59933748119E+02 -0.17145963141E+03  0.26234681480E+03  0.12500000000E+03 0.  0.
         25    1    1    2    0    0 -0.32039185039E+02  0.34259410416E+02 -0.79629742580E+02  0.15545453510E+03  0.12500000000E+03 0.  0.
         25    1    1    2    0    0 -0.11012407276E+03 -0.94193158535E+02  0.17292814383E+03  0.25793178448E+03  0.12500000000E+03 0.  0.
</event>
<event>
 5    0  0.5677492E-005  0.3879243E+03  0.7546771E-02  0.1048043E+00
         21   -1    0    0  502  501  0.00000000000E+00  0.00000000000E+00  0.21156336254E+03  0.21156336254E+03  0.00000000000E+00 0.  1.
         21   -1    0    0  501  502 -0.00000000000E+00 -0.00000000000E+00 -0.71130106764E+03  0.71130106764E+03  0.00000000000E+00 0.  1.
         25    1    1    2    0    0 -0.15964332059E+03 -0.14518407116E+03 -0.45179858546E+02  0.25343761352E+03  0.12500000000E+03 0.  0.
         25    1    1    2    0    0  0.11399445894E+03 -0.14965417926E+02 -0.42681586856E+03  0.45936421939E+03  0.12500000000E+03 0.  0.
         25    1    1    2    0    0  0.45648861656E+02  0.16014948908E+03 -0.27741977989E+02  0.21006259726E+03  0.12500000000E+03 0.  0.
</event>
<event>
 5    0  0.5677492E-005  0.2837602E+03  0.7546771E-02  0.1093653E+00
         21   -1    0    0  502  501  0.00000000000E+00  0.00000000000E+00  0.24134841945E+03  0.24134841945E+03  0.00000000000E+00 0. -1.
         21   -1    0    0  501  502 -0.00000000000E+00 -0.00000000000E+00 -0.33362496909E+03  0.33362496909E+03  0.00000000000E+00 0. -1.
         25    1    1    2    0    0  0.29603483567E+02 -0.10333706842E+02 -0.19299796192E+03  0.23206974176E+03  0.12500000000E+03 0.  0.
         25    1    1    2    0    0 -0.10372442716E+03 -0.25903550408E+01 -0.53238128452E+01  0.16253864067E+03  0.12500000000E+03 0.  0.
         25    1    1    2    0    0  0.74120943593E+02  0.12924061883E+02  0.10604522512E+03  0.18036500610E+03  0.12500000000E+03 0.  0.
</event>
<event>
 5    0  0.5677492E-005  0.2541057E+03  0.7546771E-02  0.1110737E+00
         21   -1    0    0  502  501  0.00000000000E+00  0.00000000000E+00  0.14945801185E+04  0.14945801185E+04  0.00000000000E+00 0.  1.
         21   -1    0    0  501  502 -0.00000000000E+00 -0.00000000000E+00 -0.43202558308E+02  0.43202558308E+02  0.00000000000E+00 0.  1.
         25    1    1    2    0    0 -0.35360842348E+02 -0.82198587013E+01  0.68459602235E+03  0.69686058080E+03  0.12500000000E+03 0.  0.
         25    1    1    2    0    0  0.47720872906E+02  0.42345597930E+02  0.65340122493E+03  0.66830276979E+03  0.12500000000E+03 0.  0.
         25    1    1    2    0    0 -0.12360030558E+02 -0.34125739228E+02  0.11338031296E+03  0.17261932626E+03  0.12500000000E+03 0.  0.
</event>
<event>
 5    0  0.5677492E-005  0.2840371E+03  0.7546771E-02  0.1093504E+00
         21   -1    0    0  502  501  0.00000000000E+00  0.00000000000E+00  0.50005214403E+02  0.50005214403E+02  0.00000000000E+00 0.  1.
         21   -1    0    0  501  502 -0.00000000000E+00 -0.00000000000E+00 -0.16133728149E+04  0.16133728149E+04  0.00000000000E+00 0.  1.
         25    1    1    2    0    0  0.69010364825E+02 -0.83803559234E+02 -0.57166237031E+03  0.59515404109E+03  0.12500000000E+03 0.  0.
         25    1    1    2    0    0  0.28467457984E+01 -0.10226829082E+03 -0.39230869962E+03  0.42426173887E+03  0.12500000000E+03 0.  0.
         25    1    1    2    0    0 -0.71857110623E+02  0.18607185006E+03 -0.59939653058E+03  0.64396224937E+03  0.12500000000E+03 0.  0.
</event>
<event>
 5    0  0.5677492E-005  0.2863483E+03  0.7546771E-02  0.1092271E+00
         21   -1    0    0  502  501  0.00000000000E+00  0.00000000000E+00  0.22895183776E+04  0.22895183776E+04  0.00000000000E+00 0. -1.
         21   -1    0    0  501  502 -0.00000000000E+00 -0.00000000000E+00 -0.35813359735E+02  0.35813359735E+02  0.00000000000E+00 0. -1.
         25    1    1    2    0    0 -0.15116819330E+03  0.94378713526E+02  0.83469645779E+03  0.86261366838E+03  0.12500000000E+03 0.  0.
         25    1    1    2    0    0  0.12189673521E+03 -0.19594837961E+02  0.10554358151E+04  0.10699591261E+04  0.12500000000E+03 0.  0.
         25    1    1    2    0    0  0.29271458085E+02 -0.74783875565E+02  0.36357274498E+03  0.39275894286E+03  0.12500000000E+03 0.  0.
</event>
<event>
 5    0  0.5677492E-005  0.3145129E+03  0.7546771E-02  0.1078203E+00
         21   -1    0    0  502  501  0.00000000000E+00  0.00000000000E+00  0.23212210486E+03  0.23212210486E+03  0.00000000000E+00 0.  1.
         21   -1    0    0  501  502 -0.00000000000E+00 -0.00000000000E+00 -0.42614786356E+03  0.42614786356E+03  0.00000000000E+00 0.  1.
         25    1    1    2    0    0  0.13561294569E+03  0.85061822258E+02 -0.23780064985E+03  0.31273076874E+03  0.12500000000E+03 0.  0.
         25    1    1    2    0    0 -0.15918774751E+03 -0.53116350773E+02  0.71841867906E+01  0.20937692857E+03  0.12500000000E+03 0.  0.
         25    1    1    2    0    0  0.23574801824E+02 -0.31945471486E+02  0.36590704363E+02  0.13616227112E+03  0.12500000000E+03 0.  0.
</event>
<event>
 5    0  0.5677492E-005  0.3150484E+03  0.7546771E-02  0.1077951E+00
         21   -1    0    0  502  501  0.00000000000E+00  0.00000000000E+00  0.29993875491E+03  0.29993875491E+03  0.00000000000E+00 0.  1.
         21   -1    0    0  501  502 -0.00000000000E+00 -0.00000000000E+00 -0.33091916730E+03  0.33091916730E+03  0.00000000000E+00 0.  1.
         25    1    1    2    0    0  0.10384747230E+03 -0.11955762562E+03  0.30285469926E+02  0.20401111008E+03  0.12500000000E+03 0.  0.
         25    1    1    2    0    0  0.21119641846E+02 -0.83588287194E+02 -0.38224472980E+02  0.15658592326E+03  0.12500000000E+03 0.  0.
         25    1    1    2    0    0 -0.12496711415E+03  0.20314591281E+03 -0.23041409330E+02  0.27026088887E+03  0.12500000000E+03 0.  0.
</event>
<event>
 5    0  0.5677492E-005  0.2692761E+03  0.7546771E-02  0.1101695E+00
         21   -1    0    0  502  501  0.00000000000E+00  0.00000000000E+00  0.11232813596E+03  0.11232813596E+03  0.00000000000E+00 0. -1.
         21   -1    0    0  501  502 -0.00000000000E+00 -0.00000000000E+00 -0.64551587997E+03  0.64551587997E+03  0.00000000000E+00 0. -1.
         25    1    1    2    0    0 -0.39573311724E+02  0.86316529034E+02 -0.95085136274E+02  0.18352867167E+03  0.12500000000E+03 0.  0.
         25    1    1    2    0    0  0.11545706372E+03  0.38741406696E+02 -0.16447798642E+03  0.23981083831E+03  0.12500000000E+03 0.  0.
         25    1    1    2    0    0 -0.75883751997E+02 -0.12505793573E+03 -0.27362462132E+03  0.33450450595E+03  0.12500000000E+03 0.  0.
</event>
<event>
 5    0  0.5677492E-005  0.6273612E+03  0.7546771E-02  0.9850212E-01
         21   -1    0    0  502  501  0.00000000000E+00  0.00000000000E+00  0.49861572024E+03  0.49861572024E+03  0.00000000000E+00 0. -1.
         21   -1    0    0  501  502 -0.00000000000E+00 -0.00000000000E+00 -0.78934949145E+03  0.78934949145E+03  0.00000000000E+00 0. -1.
         25    1    1    2    0    0 -0.49318252815E+02 -0.89149294197E+02 -0.25782016696E+03  0.30409887406E+03  0.12500000000E+03 0.  0.
         25    1    1    2    0    0  0.20442753673E+03  0.30750698822E+03  0.33354848079E+03  0.51306018615E+03  0.12500000000E+03 0.  0.
         25    1    1    2    0    0 -0.15510928391E+03 -0.21835769403E+03 -0.36646208504E+03  0.47080615147E+03  0.12500000000E+03 0.  0.
</event>
<event>
 5    0  0.5677492E-005  0.3005003E+03  0.7546771E-02  0.1084991E+00
         21   -1    0    0  502  501  0.00000000000E+00  0.00000000000E+00  0.29577874415E+03  0.29577874415E+03  0.00000000000E+00 0. -1.
         21   -1    0    0  501  502 -0.00000000000E+00 -0.00000000000E+00 -0.30529714138E+03  0.30529714138E+03  0.00000000000E+00 0. -1.
         25    1    1    2    0    0  0.16606782527E+03  0.92813528324E+02 -0.41630169754E+02  0.23141077041E+03  0.12500000000E+03 0.  0.
         25    1    1    2    0    0 -0.14412782279E+03 -0.31079329283E+02 -0.58494838714E+02  0.20195395556E+03  0.12500000000E+03 0.  0.
         25    1    1    2    0    0 -0.21940002475E+02 -0.61734199042E+02  0.90606611238E+02  0.16771115956E+03  0.12500000000E+03 0.  0.
</event>
<event>
 5    0  0.5677492E-005  0.2972732E+03  0.7546771E-02  0.1086612E+00
         21   -1    0    0  502  501  0.00000000000E+00  0.00000000000E+00  0.30701446227E+03  0.30701446227E+03  0.00000000000E+00 0.  1.
         21   -1    0    0  501  502 -0.00000000000E+00 -0.00000000000E+00 -0.28784096632E+03  0.28784096632E+03  0.00000000000E+00 0.  1.
         25    1    1    2    0    0 -0.16971946929E+03  0.13790343468E+02 -0.11023751921E+03  0.23826913873E+03  0.12500000000E+03 0.  0.
         25    1    1    2    0    0  0.13805201664E+03 -0.59416342095E+02  0.74858700790E+02  0.20932626708E+03  0.12500000000E+03 0.  0.
         25    1    1    2    0    0  0.31667452651E+02  0.45625998627E+02  0.54552314373E+02  0.14726002279E+03  0.12500000000E+03 0.  0.
</event>
<event>
 5    0  0.5677492E-005  0.4729440E+03  0.7546771E-02  0.1021093E+00
         21   -1    0    0  502  501  0.00000000000E+00  0.00000000000E+00  0.62156247674E+03  0.62156247674E+03  0.00000000000E+00 0. -1.
         21   -1    0    0  501  502 -0.00000000000E+00 -0.00000000000E+00 -0.35986087012E+03  0.35986087012E+03  0.00000000000E+00 0. -1.
         25    1    1    2    0    0  0.28802660019E+02  0.28491741943E+03  0.12571807867E+02  0.31271485330E+03  0.12500000000E+03 0.  0.
         25    1    1    2    0    0  0.51796482904E+02  0.11026009430E+03  0.16081356263E+03  0.23733134214E+03  0.12500000000E+03 0.  0.
         25    1    1    2    0    0 -0.80599142923E+02 -0.39517751374E+03  0.88316236128E+02  0.43137715142E+03  0.12500000000E+03 0.  0.
</event>
<event>
 5    0  0.5677492E-005  0.2970777E+03  0.7546771E-02  0.1086711E+00
         21   -1    0    0  502  501  0.00000000000E+00  0.00000000000E+00  0.81213522094E+02  0.81213522094E+02  0.00000000000E+00 0. -1.
         21   -1    0    0  501  502 -0.00000000000E+00 -0.00000000000E+00 -0.10867055508E+04  0.10867055508E+04  0.00000000000E+00 0. -1.
         25    1    1    2    0    0 -0.93787870624E+01 -0.86510821298E+02 -0.19958310138E+03  0.25105875449E+03  0.12500000000E+03 0.  0.
         25    1    1    2    0    0  0.11788855039E+03  0.15543555514E+03 -0.60353392627E+03  0.64647979262E+03  0.12500000000E+03 0.  0.
         25    1    1    2    0    0 -0.10850976332E+03 -0.68924733846E+02 -0.20237500108E+03  0.27038052581E+03  0.12500000000E+03 0.  0.
</event>
<event>
 5    0  0.5677492E-005  0.2332607E+03  0.7546771E-02  0.1124366E+00
         21   -1    0    0  502  501  0.00000000000E+00  0.00000000000E+00  0.13360164559E+04  0.13360164559E+04  0.00000000000E+00 0.  1.
         21   -1    0    0  501  502 -0.00000000000E+00 -0.00000000000E+00 -0.40725954306E+02  0.40725954306E+02  0.00000000000E+00 0.  1.
         25    1    1    2    0    0  0.42396722012E+02 -0.22216974201E+02  0.25883975123E+03  0.29140022786E+03  0.12500000000E+03 0.  0.
         25    1    1    2    0    0 -0.35964307691E+01 -0.45437257101E+02  0.76500424687E+03  0.77648823325E+03  0.12500000000E+03 0.  0.
         25    1    1    2    0    0 -0.38800291243E+02  0.67654231302E+02  0.27144650350E+03  0.30885394910E+03  0.12500000000E+03 0.  0.
</event>
<event>
 5    0  0.5677492E-005  0.4359635E+03  0.7546771E-02  0.1031993E+00
         21   -1    0    0  502  501  0.00000000000E+00  0.00000000000E+00  0.12521051139E+03  0.12521051139E+03  0.00000000000E+00 0. -1.
         21   -1    0    0  501  502 -0.00000000000E+00 -0.00000000000E+00 -0.15179568914E+04  0.15179568914E+04  0.00000000000E+00 0. -1.
         25    1    1    2    0    0  0.15482770353E+03 -0.74254081434E+01 -0.11066603657E+04  0.11244327101E+04  0.12500000000E+03 0.  0.
         25    1    1    2    0    0 -0.83330805478E+02 -0.13929013239E+03 -0.60689890632E+02  0.21366802978E+03  0.12500000000E+03 0.  0.
         25    1    1    2    0    0 -0.71496898054E+02  0.14671554054E+03 -0.22539612364E+03  0.30506666291E+03  0.12500000000E+03 0.  0.
</event>
<event>
 5    0  0.5677492E-005  0.4148894E+03  0.7546771E-02  0.1038743E+00
         21   -1    0    0  502  501  0.00000000000E+00  0.00000000000E+00  0.74951349108E+03  0.74951349108E+03  0.00000000000E+00 0.  1.
         21   -1    0    0  501  502 -0.00000000000E+00 -0.00000000000E+00 -0.22965996298E+03  0.22965996298E+03  0.00000000000E+00 0.  1.
         25    1    1    2    0    0  0.43421970505E+02  0.27841243789E+02  0.28728911326E+03  0.31752265584E+03  0.12500000000E+03 0.  0.
         25    1    1    2    0    0 -0.17856104494E+03  0.52116111595E+02 -0.12130145777E+03  0.25483166898E+03  0.12500000000E+03 0.  0.
         25    1    1    2    0    0  0.13513907444E+03 -0.79957355384E+02  0.35386587260E+03  0.40681912924E+03  0.12500000000E+03 0.  0.
</event>
<event>
 5    0  0.5677492E-005  0.2321017E+03  0.7546771E-02  0.1125169E+00
         21   -1    0    0  502  501  0.00000000000E+00  0.00000000000E+00  0.50452686691E+03  0.50452686691E+03  0.00000000000E+00 0.  1.
         21   -1    0    0  501  502 -0.00000000000E+00 -0.00000000000E+00 -0.10677566918E+03  0.10677566918E+03  0.00000000000E+00 0.  1.
         25    1    1    2    0    0  0.60673037466E+01 -0.93378606473E+02  0.25002703318E+03  0.29477939827E+03  0.12500000000E+03 0.  0.
         25    1    1    2    0    0  0.15102313913E+02  0.12011159760E+02  0.89839529640E+02  0.15514022344E+03  0.12500000000E+03 0.  0.
         25    1    1    2    0    0 -0.21169617660E+02  0.81367446713E+02  0.57884634902E+02  0.16138291438E+03  0.12500000000E+03 0.  0.
</event>
<event>
 5    0  0.5677492E-005  0.3309906E+03  0.7546771E-02  0.1070699E+00
         21   -1    0    0  502  501  0.00000000000E+00  0.00000000000E+00  0.44001400156E+03  0.44001400156E+03  0.00000000000E+00 0.  1.
         21   -1    0    0  501  502 -0.00000000000E+00 -0.00000000000E+00 -0.24898021999E+03  0.24898021999E+03  0.00000000000E+00 0.  1.
         25    1    1    2    0    0  0.56795413564E+02  0.17165294440E+03 -0.66293201796E+01  0.21990770839E+03  0.12500000000E+03 0.  0.
         25    1    1    2    0    0 -0.14489735389E+03 -0.17104941677E+03  0.18347317373E+03  0.31550047801E+03  0.12500000000E+03 0.  0.
         25    1    1    2    0    0  0.88101940325E+02 -0.60352763052E+00  0.14189928017E+02  0.15358603515E+03  0.12500000000E+03 0.  0.
</event>
<event>
 5    0  0.6005350E-005  0.3097678E+03  0.7546771E-02  0.1080457E+00
         21   -1    0    0  502  501  0.00000000000E+00  0.00000000000E+00  0.39490960509E+03  0.39490960509E+03  0.00000000000E+00 0.  1.
         21   -1    0    0  501  502 -0.00000000000E+00 -0.00000000000E+00 -0.24298240121E+03  0.24298240121E+03  0.00000000000E+00 0.  1.
         25    1    1    2    0    0  0.16095958672E+03 -0.54737810332E+02  0.74705971092E+02  0.22385307359E+03  0.12500000000E+03 0.  0.
         25    1    1    2    0    0 -0.30626158128E+02 -0.34733338015E+02 -0.82604228011E+02  0.15682099610E+03  0.12500000000E+03 0.  0.
         25    1    1    2    0    0 -0.13033342859E+03  0.89471148347E+02  0.15982546081E+03  0.25721793662E+03  0.12500000000E+03 0.  0.
</event>
<event>
 5    0  0.5677492E-005  0.3207584E+03  0.7546771E-02  0.1075301E+00
         21   -1    0    0  502  501  0.00000000000E+00  0.00000000000E+00  0.55172583188E+03  0.55172583188E+03  0.00000000000E+00 0.  1.
         21   -1    0    0  501  502 -0.00000000000E+00 -0.00000000000E+00 -0.18648023086E+03  0.18648023086E+03  0.00000000000E+00 0.  1.
         25    1    1    2    0    0  0.17087848178E+03 -0.46480951225E+02  0.10727310500E+03  0.24185213131E+03  0.12500000000E+03 0.  0.
         25    1    1    2    0    0  0.73662958663E+02  0.31268506804E+02  0.10278637649E+03  0.18053805745E+03  0.12500000000E+03 0.  0.
         25    1    1    2    0    0 -0.24454144045E+03  0.15212444421E+02  0.15518611953E+03  0.31581587398E+03  0.12500000000E+03 0.  0.
</event>
<event>
 5    0  0.5677492E-005  0.2597762E+03  0.7546771E-02  0.1107278E+00
         21   -1    0    0  502  501  0.00000000000E+00  0.00000000000E+00  0.86459732388E+03  0.86459732388E+03  0.00000000000E+00 0. -1.
         21   -1    0    0  501  502 -0.00000000000E+00 -0.00000000000E+00 -0.78052126703E+02  0.78052126703E+02  0.00000000000E+00 0. -1.
         25    1    1    2    0    0  0.67057225177E+02 -0.52599220619E+02  0.78594371504E+02  0.17048584894E+03  0.12500000000E+03 0.  0.
         25    1    1    2    0    0  0.35528450680E+02  0.65479796139E+01  0.21477156821E+03  0.25111147595E+03  0.12500000000E+03 0.  0.
         25    1    1    2    0    0 -0.10258567586E+03  0.46051241005E+02  0.49317925747E+03  0.52105212569E+03  0.12500000000E+03 0.  0.
</event>
<event>
 5    0  0.5677492E-005  0.2570180E+03  0.7546771E-02  0.1108948E+00
         21   -1    0    0  502  501  0.00000000000E+00  0.00000000000E+00  0.21433815511E+03  0.21433815511E+03  0.00000000000E+00 0. -1.
         21   -1    0    0  501  502 -0.00000000000E+00 -0.00000000000E+00 -0.30819649603E+03  0.30819649603E+03  0.00000000000E+00 0. -1.
         25    1    1    2    0    0  0.60728377463E+02 -0.65905505335E+02 -0.49519330607E+02  0.16158166841E+03  0.12500000000E+03 0.  0.
         25    1    1    2    0    0 -0.50505879229E+02  0.81792000312E+02  0.85799770430E+02  0.17951984781E+03  0.12500000000E+03 0.  0.
         25    1    1    2    0    0 -0.10222498234E+02 -0.15886494977E+02 -0.13013878074E+03  0.18143313491E+03  0.12500000000E+03 0.  0.
</event>
<event>
 5    0  0.5677492E-005  0.3414749E+03  0.7546771E-02  0.1066169E+00
         21   -1    0    0  502  501  0.00000000000E+00  0.00000000000E+00  0.11896982110E+03  0.11896982110E+03  0.00000000000E+00 0. -1.
         21   -1    0    0  501  502 -0.00000000000E+00 -0.00000000000E+00 -0.98012347889E+03  0.98012347889E+03  0.00000000000E+00 0. -1.
         25    1    1    2    0    0  0.54889188561E+02 -0.17458928562E+02 -0.15887981920E+03  0.21020331624E+03  0.12500000000E+03 0.  0.
         25    1    1    2    0    0 -0.23609782638E+03  0.11739434683E+03 -0.47258794560E+03  0.55541694484E+03  0.12500000000E+03 0.  0.
         25    1    1    2    0    0  0.18120863782E+03 -0.99935418264E+02 -0.22968589298E+03  0.33347303891E+03  0.12500000000E+03 0.  0.
</event>
<event>
 5    0  0.5677492E-005  0.3911416E+03  0.7546771E-02  0.1046891E+00
         21   -1    0    0  502  501  0.00000000000E+00  0.00000000000E+00  0.58723102657E+03  0.58723102657E+03  0.00000000000E+00 0.  1.
         21   -1    0    0  501  502 -0.00000000000E+00 -0.00000000000E+00 -0.26053082320E+03  0.26053082320E+03  0.00000000000E+00 0.  1.
         25    1    1    2    0    0 -0.17467253251E+03 -0.11992024995E+03  0.85921295498E+02  0.26057403742E+03  0.12500000000E+03 0.  0.
         25    1    1    2    0    0 -0.66650047268E+02  0.14718231322E+03 -0.25337771878E+02  0.20584427320E+03  0.12500000000E+03 0.  0.
         25    1    1    2    0    0  0.24132257978E+03 -0.27262063271E+02  0.26611667975E+03  0.38134353914E+03  0.12500000000E+03 0.  0.
</event>
<event>
 5    0  0.5677492E-005  0.4195227E+03  0.7546771E-02  0.1037222E+00
         21   -1    0    0  502  501  0.00000000000E+00  0.00000000000E+00  0.89205239210E+03  0.89205239210E+03  0.00000000000E+00 0.  1.
         21   -1    0    0  501  502 -0.00000000000E+00 -0.00000000000E+00 -0.19729706909E+03  0.19729706909E+03  0.00000000000E+00 0.  1.
         25    1    1    2    0    0 -0.30470647608E+03  0.15512664930E+03  0.37255898835E+03  0.52089875569E+03  0.12500000000E+03 0.  0.
         25    1    1    2    0    0  0.13996568852E+03 -0.17678081859E+03  0.14851645946E+03  0.29752981450E+03  0.12500000000E+03 0.  0.
         25    1    1    2    0    0  0.16474078756E+03  0.21654169291E+02  0.17367987520E+03  0.27092089100E+03  0.12500000000E+03 0.  0.
</event>
<event>
 5    0  0.5677492E-005  0.2623989E+03  0.7546771E-02  0.1105710E+00
         21   -1    0    0  502  501  0.00000000000E+00  0.00000000000E+00  0.49432798378E+03  0.49432798378E+03  0.00000000000E+00 0.  1.
         21   -1    0    0  501  502 -0.00000000000E+00 -0.00000000000E+00 -0.13928647980E+03  0.13928647980E+03  0.00000000000E+00 0.  1.
         25    1    1    2    0    0 -0.99963029360E+02 -0.96735112017E+01  0.14433931626E+03  0.21574295418E+03  0.12500000000E+03 0.  0.
         25    1    1    2    0    0  0.59800506215E+02 -0.17623333037E+02  0.24268077380E+03  0.28001007193E+03  0.12500000000E+03 0.  0.
         25    1    1    2    0    0  0.40162523145E+02  0.27296844238E+02 -0.31978586085E+02  0.13786143746E+03  0.12500000000E+03 0.  0.
</event>
<event>
 5    0  0.5677492E-005  0.3554027E+03  0.7546771E-02  0.1060419E+00
         21   -1    0    0  502  501  0.00000000000E+00  0.00000000000E+00  0.23118664645E+03  0.23118664645E+03  0.00000000000E+00 0.  1.
         21   -1    0    0  501  502 -0.00000000000E+00 -0.00000000000E+00 -0.54635981443E+03  0.54635981443E+03  0.00000000000E+00 0. -1.
         25    1    1    2    0    0  0.22569565489E+03  0.12443260620E+03 -0.86452014498E+02  0.29920052294E+03  0.12500000000E+03 0.  0.
         25    1    1    2    0    0 -0.10813080986E+03  0.51473853184E+02 -0.11294159177E+03  0.20669453973E+03  0.12500000000E+03 0.  0.
         25    1    1    2    0    0 -0.11756484503E+03 -0.17590645938E+03 -0.11577956171E+03  0.27165139821E+03  0.12500000000E+03 0.  0.
</event>
<event>
 5    0  0.5677492E-005  0.8819606E+03  0.7546771E-02  0.9448417E-01
         21   -1    0    0  502  501  0.00000000000E+00  0.00000000000E+00  0.18019473736E+04  0.18019473736E+04  0.00000000000E+00 0. -1.
         21   -1    0    0  501  502 -0.00000000000E+00 -0.00000000000E+00 -0.43167439794E+03  0.43167439794E+03  0.00000000000E+00 0. -1.
         25    1    1    2    0    0  0.12963520838E+03 -0.74371218176E+03  0.19844960333E+03  0.79051903305E+03  0.12500000000E+03 0.  0.
         25    1    1    2    0    0 -0.58694835529E+02  0.48058564548E+03  0.49863169258E+03  0.70616302028E+03  0.12500000000E+03 0.  0.
         25    1    1    2    0    0 -0.70940372847E+02  0.26312653628E+03  0.67319167978E+03  0.73693971824E+03  0.12500000000E+03 0.  0.
</event>
<event>
 5    0  0.5683198E-005  0.5258282E+03  0.7546771E-02  0.1007249E+00
         21   -1    0    0  502  501  0.00000000000E+00  0.00000000000E+00  0.40605096123E+03  0.40605096123E+03  0.00000000000E+00 0.  1.
         21   -1    0    0  501  502 -0.00000000000E+00 -0.00000000000E+00 -0.68093744539E+03  0.68093744539E+03  0.00000000000E+00 0.  1.
         25    1    1    2    0    0  0.26726150485E+03  0.55987226855E+02  0.78809257954E+02  0.31048217450E+03  0.12500000000E+03 0.  0.
         25    1    1    2    0    0 -0.80615498198E+02  0.24744728317E+03 -0.25761250805E+03  0.38693438824E+03  0.12500000000E+03 0.  0.
         25    1    1    2    0    0 -0.18664600665E+03 -0.30343451002E+03 -0.96083234067E+02  0.38957184388E+03  0.12500000000E+03 0.  0.
</event>
<event>
 5    0  0.5677492E-005  0.2412342E+03  0.7546771E-02  0.1118973E+00
         21   -1    0    0  502  501  0.00000000000E+00  0.00000000000E+00  0.78970124730E+02  0.78970124730E+02  0.00000000000E+00 0. -1.
         21   -1    0    0  501  502 -0.00000000000E+00 -0.00000000000E+00 -0.73691064163E+03  0.73691064163E+03  0.00000000000E+00 0. -1.
         25    1    1    2    0    0 -0.42686466324E+02  0.11372654684E+03 -0.21983859189E+03  0.28055279066E+03  0.12500000000E+03 0.  0.
         25    1    1    2    0    0  0.30532156326E+02  0.12352197714E+01 -0.25290069063E+03  0.28375605308E+03  0.12500000000E+03 0.  0.
         25    1    1    2    0    0  0.12154309999E+02 -0.11496176661E+03 -0.18520123438E+03  0.25157192262E+03  0.12500000000E+03 0.  0.
</event>
<event>
 5    0  0.5677492E-005  0.3039069E+03  0.7546771E-02  0.1083304E+00
         21   -1    0    0  502  501  0.00000000000E+00  0.00000000000E+00  0.37264538077E+03  0.37264538077E+03  0.00000000000E+00 0.  1.
         21   -1    0    0  501  502 -0.00000000000E+00 -0.00000000000E+00 -0.24784789723E+03  0.24784789723E+03  0.00000000000E+00 0.  1.
         25    1    1    2    0    0  0.69939164146E+02 -0.20855991837E+02  0.22346674737E+03  0.26624959391E+03  0.12500000000E+03 0.  0.
         25    1    1    2    0    0 -0.14375895036E+03  0.11503235414E+02 -0.29326024462E+02  0.19309058999E+03  0.12500000000E+03 0.  0.
         25    1    1    2    0    0  0.73819786210E+02  0.93527564223E+01 -0.69343239372E+02  0.16115309409E+03  0.12500000000E+03 0.  0.
</event>
<event>
 5    0  0.5677492E-005  0.4144237E+03  0.7546771E-02  0.1038897E+00
         21   -1    0    0  502  501  0.00000000000E+00  0.00000000000E+00  0.21280975638E+04  0.21280975638E+04  0.00000000000E+00 0.  1.
         21   -1    0    0  501  502 -0.00000000000E+00 -0.00000000000E+00 -0.80704495203E+02  0.80704495203E+02  0.00000000000E+00 0.  1.
         25    1    1    2    0    0 -0.10013436553E+03 -0.26978598464E+03  0.12296614371E+04  0.12690561920E+04  0.12500000000E+03 0.  0.
         25    1    1    2    0    0  0.21088432420E+02  0.10096884325E+03  0.61934262799E+03  0.64019506413E+03  0.12500000000E+03 0.  0.
         25    1    1    2    0    0  0.79045933111E+02  0.16881714139E+03  0.19838900353E+03  0.29955080285E+03  0.12500000000E+03 0.  0.
</event>
<event>
 5    0  0.5677492E-005  0.2237493E+03  0.7546771E-02  0.1131118E+00
         21   -1    0    0  502  501  0.00000000000E+00  0.00000000000E+00  0.56385279477E+03  0.56385279477E+03  0.00000000000E+00 0.  1.
         21   -1    0    0  501  502 -0.00000000000E+00 -0.00000000000E+00 -0.88788687901E+02  0.88788687901E+02  0.00000000000E+00 0.  1.
         25    1    1    2    0    0  0.47358468736E+02  0.40703904746E+02  0.25243585394E+03  0.28852814902E+03  0.12500000000E+03 0.  0.
         25    1    1    2    0    0  0.37245305732E+02 -0.50124980454E+01  0.12571831392E+03  0.18122481174E+03  0.12500000000E+03 0.  0.
         25    1    1    2    0    0 -0.84603774468E+02 -0.35691406700E+02  0.96909939000E+02  0.18288852190E+03  0.12500000000E+03 0.  0.
</event>
<event>
 5    0  0.5677492E-005  0.4841949E+03  0.7546771E-02  0.1017989E+00
         21   -1    0    0  502  501  0.00000000000E+00  0.00000000000E+00  0.52971600067E+03  0.52971600067E+03  0.00000000000E+00 0.  1.
         21   -1    0    0  501  502 -0.00000000000E+00 -0.00000000000E+00 -0.44258572299E+03  0.44258572299E+03  0.00000000000E+00 0.  1.
         25    1    1    2    0    0 -0.29823713460E+02  0.23377950673E+03 -0.25246443529E+03  0.36729498055E+03  0.12500000000E+03 0.  0.
         25    1    1    2    0    0  0.17057994801E+03 -0.22787147475E+03  0.23380153172E+03  0.38898725416E+03  0.12500000000E+03 0.  0.
         25    1    1    2    0    0 -0.14075623455E+03 -0.59080319794E+01  0.10579318126E+03  0.21601948895E+03  0.12500000000E+03 0.  0.
</event>
<event>
 5    0  0.6116543E-005  0.3804877E+03  0.7546771E-02  0.1050754E+00
         21   -1    0    0  502  501  0.00000000000E+00  0.00000000000E+00  0.71501135532E+03  0.71501135532E+03  0.00000000000E+00 0. -1.
         21   -1    0    0  501  502 -0.00000000000E+00 -0.00000000000E+00 -0.20247356634E+03  0.20247356634E+03  0.00000000000E+00 0. -1.
         25    1    1    2    0    0  0.52537322300E+02  0.32773268794E+02  0.47340610497E+03  0.49353074636E+03  0.12500000000E+03 0.  0.
         25    1    1    2    0    0 -0.13938580405E+03  0.63276877902E+02  0.11498021595E+03  0.22864342481E+03  0.12500000000E+03 0.  0.
         25    1    1    2    0    0  0.86848481751E+02 -0.96050146695E+02 -0.75848531938E+02  0.19531075050E+03  0.12500000000E+03 0.  0.
</event>
<event>
 5    0  0.5677492E-005  0.2570003E+03  0.7546771E-02  0.1108959E+00
         21   -1    0    0  502  501  0.00000000000E+00  0.00000000000E+00  0.35035051116E+03  0.35035051116E+03  0.00000000000E+00 0. -1.
         21   -1    0    0  501  502 -0.00000000000E+00 -0.00000000000E+00 -0.18852304728E+03  0.18852304728E+03  0.00000000000E+00 0. -1.
         25    1    1    2    0    0  0.24524249962E+02 -0.61188221072E+02 -0.90878721813E+02  0.16801600910E+03  0.12500000000E+03 0.  0.
         25    1    1    2    0    0  0.36914793392E+01  0.67585688664E+02  0.14847527869E+03  0.20555135785E+03  0.12500000000E+03 0.  0.
         25    1    1    2    0    0 -0.28215729301E+02 -0.63974675920E+01  0.10423090701E+03  0.16530619150E+03  0.12500000000E+03 0.  0.
</event>
<event>
 5    0  0.5677492E-005  0.2753709E+03  0.7546771E-02  0.1098244E+00
         21   -1    0    0  502  501  0.00000000000E+00  0.00000000000E+00  0.16735861242E+03  0.16735861242E+03  0.00000000000E+00 0.  1.
         21   -1    0    0  501  502 -0.00000000000E+00 -0.00000000000E+00 -0.45309373375E+03  0.45309373375E+03  0.00000000000E+00 0.  1.
         25    1    1    2    0    0 -0.48807246374E+02  0.34727315192E+02 -0.11732528544E+03  0.18159943921E+03  0.12500000000E+03 0.  0.
         25    1    1    2    0    0  0.54562952886E+02  0.12936452920E+03 -0.29966255888E+02  0.19035565065E+03  0.12500000000E+03 0.  0.
         25    1    1    2    0    0 -0.57557065120E+01 -0.16409184439E+03 -0.13844358000E+03  0.24849725631E+03  0.12500000000E+03 0.  0.
</event>
<event>
 5    0  0.5677492E-005  0.3238501E+03  0.7546771E-02  0.1073891E+00
         21   -1    0    0  502  501  0.00000000000E+00  0.00000000000E+00  0.51317008641E+03  0.51317008641E+03  0.00000000000E+00 0. -1.
         21   -1    0    0  501  502 -0.00000000000E+00 -0.00000000000E+00 -0.20437445668E+03  0.20437445668E+03  0.00000000000E+00 0. -1.
         25    1    1    2    0    0 -0.37055806903E+01  0.23866183493E+03  0.10004289935E+03  0.28741396016E+03  0.12500000000E+03 0.  0.
         25    1    1    2    0    0 -0.27375947320E+02 -0.53583344295E+02  0.13319701284E+03  0.19232020566E+03  0.12500000000E+03 0.  0.
         25    1    1    2    0    0  0.31081528010E+02 -0.18507849064E+03  0.75555717539E+02  0.23781037726E+03  0.12500000000E+03 0.  0.
</event>
<event>
 5    0  0.5677492E-005  0.2248302E+03  0.7546771E-02  0.1130332E+00
         21   -1    0    0  502  501  0.00000000000E+00  0.00000000000E+00  0.24168730245E+03  0.24168730245E+03  0.00000000000E+00 0.  1.
         21   -1    0    0  501  502 -0.00000000000E+00 -0.00000000000E+00 -0.20914891211E+03  0.20914891211E+03  0.00000000000E+00 0.  1.
         25    1    1    2    0    0  0.60035656974E+02 -0.27647864446E+02 -0.12682120852E+02  0.14196661828E+03  0.12500000000E+03 0.  0.
         25    1    1    2    0    0  0.15363171155E+02  0.77046110321E+02  0.46387034719E+02  0.15475427986E+03  0.12500000000E+03 0.  0.
         25    1    1    2    0    0 -0.75398828129E+02 -0.49398245875E+02 -0.11665235234E+01  0.15411531642E+03  0.12500000000E+03 0.  0.
</event>
<event>
 5    0  0.5677492E-005  0.3302181E+03  0.7546771E-02  0.1071040E+00
         21   -1    0    0  502  501  0.00000000000E+00  0.00000000000E+00  0.14547602266E+03  0.14547602266E+03  0.00000000000E+00 0.  1.
         21   -1    0    0  501  502 -0.00000000000E+00 -0.00000000000E+00 -0.74956658105E+03  0.74956658105E+03  0.00000000000E+00 0.  1.
         25    1    1    2    0    0 -0.12937774270E+03  0.10844746369E+03 -0.10741467805E+03  0.23592873023E+03  0.12500000000E+03 0.  0.
         25    1    1    2    0    0 -0.83429040551E+02  0.23558520473E+02 -0.19957771945E+03  0.25094157646E+03  0.12500000000E+03 0.  0.
         25    1    1    2    0    0  0.21280678325E+03 -0.13200598416E+03 -0.29709816090E+03  0.40817229703E+03  0.12500000000E+03 0.  0.
</event>
<event>
 5    0  0.5677492E-005  0.3108167E+03  0.7546771E-02  0.1079955E+00
         21   -1    0    0  502  501  0.00000000000E+00  0.00000000000E+00  0.18320065220E+03  0.18320065220E+03  0.00000000000E+00 0. -1.
         21   -1    0    0  501  502 -0.00000000000E+00 -0.00000000000E+00 -0.52732887947E+03  0.52732887947E+03  0.00000000000E+00 0. -1.
         25    1    1    2    0    0 -0.12311784161E+03  0.35474390170E+02  0.20970598616E+02  0.18022541798E+03  0.12500000000E+03 0.  0.
         25    1    1    2    0    0  0.18138215393E+03 -0.70221243300E+02 -0.28531093978E+03  0.36722995675E+03  0.12500000000E+03 0.  0.
         25    1    1    2    0    0 -0.58264312317E+02  0.34746853130E+02 -0.79787886112E+02  0.16307415694E+03  0.12500000000E+03 0.  0.
</event>
<event>
 5    0  0.5677492E-005  0.4134684E+03  0.7546771E-02  0.1039213E+00
         21   -1    0    0  502  501  0.00000000000E+00  0.00000000000E+00  0.29065847211E+03  0.29065847211E+03  0.00000000000E+00 0.  1.
         21   -1    0    0  501  502 -0.00000000000E+00 -0.00000000000E+00 -0.58816833147E+03  0.58816833147E+03  0.00000000000E+00 0.  1.
         25    1    1    2    0    0 -0.23637859599E+03  0.14603629759E+02 -0.31548032207E+03  0.41381268741E+03  0.12500000000E+03 0.  0.
         25    1    1    2    0    0 -0.43946807097E+02  0.55505320966E+02  0.40835287515E+02  0.14934752497E+03  0.12500000000E+03 0.  0.
         25    1    1    2    0    0  0.28032540308E+03 -0.70108950725E+02 -0.22864824801E+02  0.31566659120E+03  0.12500000000E+03 0.  0.
</event>
<event>
 5    0  0.5677492E-005  0.4765779E+03  0.7546771E-02  0.1020080E+00
         21   -1    0    0  502  501  0.00000000000E+00  0.00000000000E+00  0.85600007445E+03  0.85600007445E+03  0.00000000000E+00 0.  1.
         21   -1    0    0  501  502 -0.00000000000E+00 -0.00000000000E+00 -0.26533466907E+03  0.26533466907E+03  0.00000000000E+00 0.  1.
         25    1    1    2    0    0 -0.27916525896E+02  0.90600261883E+02  0.19147208821E+03  0.24753646284E+03  0.12500000000E+03 0.  0.
         25    1    1    2    0    0 -0.91033042582E+02  0.30689613375E+03  0.18856945688E+03  0.39198940269E+03  0.12500000000E+03 0.  0.
         25    1    1    2    0    0  0.11894956848E+03 -0.39749639564E+03  0.21062386029E+03  0.48180887799E+03  0.12500000000E+03 0.  0.
</event>
<event>
 5    0  0.5677492E-005  0.2528114E+03  0.7546771E-02  0.1111541E+00
         21   -1    0    0  502  501  0.00000000000E+00  0.00000000000E+00  0.83431023634E+03  0.83431023634E+03  0.00000000000E+00 0.  1.
         21   -1    0    0  501  502 -0.00000000000E+00 -0.00000000000E+00 -0.76606535099E+02  0.76606535099E+02  0.00000000000E+00 0.  1.
         25    1    1    2    0    0  0.24454114541E+02  0.56268499697E+02  0.53725636391E+02  0.14925009810E+03  0.12500000000E+03 0.  0.
         25    1    1    2    0    0  0.19092433376E+02 -0.88723881071E+02  0.36998819485E+03  0.40093978651E+03  0.12500000000E+03 0.  0.
         25    1    1    2    0    0 -0.43546547917E+02  0.32455381374E+02  0.33398987000E+03  0.36072688683E+03  0.12500000000E+03 0.  0.
</event>
<event>
 5    0  0.6707962E-005  0.2901896E+03  0.7546771E-02  0.1090250E+00
         21   -1    0    0  502  501  0.00000000000E+00  0.00000000000E+00  0.51304242281E+03  0.51304242281E+03  0.00000000000E+00 0. -1.
         21   -1    0    0  501  502 -0.00000000000E+00 -0.00000000000E+00 -0.16413844219E+03  0.16413844219E+03  0.00000000000E+00 0. -1.
         25    1    1    2    0    0 -0.79312746412E+02 -0.10852759226E+03  0.15679514949E+03  0.24140933894E+03  0.12500000000E+03 0.  0.
         25    1    1    2    0    0  0.18252445515E+02 -0.85374765893E+02  0.77338373704E+02  0.17096264640E+03  0.12500000000E+03 0.  0.
         25    1    1    2    0    0  0.61060300897E+02  0.19390235816E+03  0.11477045743E+03  0.26480887965E+03  0.12500000000E+03 0.  0.
</event>
<event>
 5    0  0.5677492E-005  0.6036956E+03  0.7546771E-02  0.9897768E-01
         21   -1    0    0  502  501  0.00000000000E+00  0.00000000000E+00  0.23363328732E+03  0.23363328732E+03  0.00000000000E+00 0. -1.
         21   -1    0    0  501  502 -0.00000000000E+00 -0.00000000000E+00 -0.15599161254E+04  0.15599161254E+04  0.00000000000E+00 0. -1.
         25    1    1    2    0    0 -0.42912181306E+03  0.27803696635E+03 -0.74923148941E+03  0.91565436155E+03  0.12500000000E+03 0.  0.
         25    1    1    2    0    0  0.49718192618E+02 -0.10333037583E+03 -0.20447234935E+02  0.17085711768E+03  0.12500000000E+03 0.  0.
         25    1    1    2    0    0  0.37940362044E+03 -0.17470659052E+03 -0.55660411371E+03  0.70703793347E+03  0.12500000000E+03 0.  0.
</event>
<event>
 5    0  0.5677492E-005  0.2615647E+03  0.7546771E-02  0.1106207E+00
         21   -1    0    0  502  501  0.00000000000E+00  0.00000000000E+00  0.11354926647E+03  0.11354926647E+03  0.00000000000E+00 0.  1.
         21   -1    0    0  501  502 -0.00000000000E+00 -0.00000000000E+00 -0.60252360141E+03  0.60252360141E+03  0.00000000000E+00 0.  1.
         25    1    1    2    0    0  0.37218071985E+01  0.72066661327E+02 -0.86609538827E+02  0.16832607564E+03  0.12500000000E+03 0.  0.
         25    1    1    2    0    0 -0.99621378500E+01  0.12470434563E+02 -0.89438360045E+01  0.12633189673E+03  0.12500000000E+03 0.  0.
         25    1    1    2    0    0  0.62403306514E+01 -0.84537095890E+02 -0.39342096011E+03  0.42141489551E+03  0.12500000000E+03 0.  0.
</event>
<event>
 5    0  0.5677492E-005  0.2258832E+03  0.7546771E-02  0.1129571E+00
         21   -1    0    0  502  501  0.00000000000E+00  0.00000000000E+00  0.46016683101E+02  0.46016683101E+02  0.00000000000E+00 0.  1.
         21   -1    0    0  501  502 -0.00000000000E+00 -0.00000000000E+00 -0.11087978788E+04  0.11087978788E+04  0.00000000000E+00 0.  1.
         25    1    1    2    0    0  0.46314260947E+02  0.47561519490E+02 -0.65913482686E+03  0.67415934977E+03  0.12500000000E+03 0.  0.
         25    1    1    2    0    0 -0.13654495531E+02 -0.36876715272E+02 -0.19175281526E+03  0.23225089782E+03  0.12500000000E+03 0.  0.
         25    1    1    2    0    0 -0.32659765416E+02 -0.10684804218E+02 -0.21189355356E+03  0.24840431429E+03  0.12500000000E+03 0.  0.
</event>
<event>
 5    0  0.5677492E-005  0.2916732E+03  0.7546771E-02  0.1089479E+00
         21   -1    0    0  502  501  0.00000000000E+00  0.00000000000E+00  0.65075859209E+03  0.65075859209E+03  0.00000000000E+00 0.  1.
         21   -1    0    0  501  502 -0.00000000000E+00 -0.00000000000E+00 -0.13072936545E+03  0.13072936545E+03  0.00000000000E+00 0.  1.
         25    1    1    2    0    0  0.12816407776E+03  0.12044720988E+03  0.10284944257E+03  0.23903256898E+03  0.12500000000E+03 0.  0.
         25    1    1    2    0    0 -0.14813612459E+03 -0.43866675243E+02  0.24362309979E+03  0.31439753713E+03  0.12500000000E+03 0.  0.
         25    1    1    2    0    0  0.19972046826E+02 -0.76580534635E+02  0.17355668428E+03  0.22805785143E+03  0.12500000000E+03 0.  0.
</event>
<event>
 5    0  0.5677492E-005  0.2383874E+03  0.7546771E-02  0.1120872E+00
         21   -1    0    0  502  501  0.00000000000E+00  0.00000000000E+00  0.12248038387E+03  0.12248038387E+03  0.00000000000E+00 0. -1.
         21   -1    0    0  501  502 -0.00000000000E+00 -0.00000000000E+00 -0.46398086778E+03  0.46398086778E+03  0.00000000000E+00 0. -1.
         25    1    1    2    0    0 -0.10847495492E+02  0.57506124662E+02 -0.55130057867E+02  0.14862350357E+03  0.12500000000E+03 0.  0.
         25    1    1    2    0    0  0.57859020348E+02 -0.98690583595E+02 -0.77031054031E+02  0.18613511440E+03  0.12500000000E+03 0.  0.
         25    1    1    2    0    0 -0.47011524856E+02  0.41184458933E+02 -0.20933937202E+03  0.25170263368E+03  0.12500000000E+03 0.  0.
</event>
<event>
 5    0  0.5677492E-005  0.2939122E+03  0.7546771E-02  0.1088324E+00
         21   -1    0    0  502  501  0.00000000000E+00  0.00000000000E+00  0.91365030291E+02  0.91365030291E+02  0.00000000000E+00 0. -1.
         21   -1    0    0  501  502 -0.00000000000E+00 -0.00000000000E+00 -0.94548649613E+03  0.94548649613E+03  0.00000000000E+00 0. -1.
         25    1    1    2    0    0  0.16698998944E+02  0.13709630616E+03 -0.10506415614E+03  0.21386381329E+03  0.12500000000E+03 0.  0.
         25    1    1    2    0    0  0.75845147349E+02 -0.38607688463E+02 -0.26507528107E+03  0.30517690708E+03  0.12500000000E+03 0.  0.
         25    1    1    2    0    0 -0.92544146293E+02 -0.98488617692E+02 -0.48398202863E+03  0.51781080605E+03  0.12500000000E+03 0.  0.
</event>
<event>
 5    0  0.5677492E-005  0.2318784E+03  0.7546771E-02  0.1125325E+00
         21   -1    0    0  502  501  0.00000000000E+00  0.00000000000E+00  0.52042418797E+03  0.52042418797E+03  0.00000000000E+00 0. -1.
         21   -1    0    0  501  502 -0.00000000000E+00 -0.00000000000E+00 -0.10331497759E+03  0.10331497759E+03  0.00000000000E+00 0. -1.
         25    1    1    2    0    0  0.17893551724E+02  0.82321104435E+02  0.25996229867E+03  0.30050347779E+03  0.12500000000E+03 0.  0.
         25    1    1    2    0    0 -0.25302193304E+02 -0.60668381089E+02  0.13277333169E+03  0.19384171651E+03  0.12500000000E+03 0.  0.
         25    1    1    2    0    0  0.74086415799E+01 -0.21652723346E+02  0.24373580015E+02  0.12939397127E+03  0.12500000000E+03 0.  0.
</event>
<event>
 5    0  0.5677492E-005  0.1995249E+03  0.7546771E-02  0.1150140E+00
         21   -1    0    0  502  501  0.00000000000E+00  0.00000000000E+00  0.13922124965E+03  0.13922124965E+03  0.00000000000E+00 0. -1.
         21   -1    0    0  501  502 -0.00000000000E+00 -0.00000000000E+00 -0.28594900591E+03  0.28594900591E+03  0.00000000000E+00 0. -1.
         25    1    1    2    0    0 -0.35036520267E+02  0.23206706876E+02 -0.63537381516E+01  0.13202832645E+03  0.12500000000E+03 0.  0.
         25    1    1    2    0    0  0.21329969779E+02 -0.33354351427E+02 -0.68156768802E+02  0.14777626840E+03  0.12500000000E+03 0.  0.
         25    1    1    2    0    0  0.13706550488E+02  0.10147644551E+02 -0.72217249311E+02  0.14536566071E+03  0.12500000000E+03 0.  0.
</event>
<event>
 5    0  0.5677492E-005  0.4115828E+03  0.7546771E-02  0.1039841E+00
         21   -1    0    0  502  501  0.00000000000E+00  0.00000000000E+00  0.33191727229E+03  0.33191727229E+03  0.00000000000E+00 0. -1.
         21   -1    0    0  501  502 -0.00000000000E+00 -0.00000000000E+00 -0.51036940194E+03  0.51036940194E+03  0.00000000000E+00 0. -1.
         25    1    1    2    0    0  0.55636153651E+02 -0.24320936710E+03 -0.18445013496E+03  0.33450415562E+03  0.12500000000E+03 0.  0.
         25    1    1    2    0    0 -0.59515429173E+02  0.32581450030E+03  0.32804318419E+02  0.35552538337E+03  0.12500000000E+03 0.  0.
         25    1    1    2    0    0  0.38792755225E+01 -0.82605133195E+02 -0.26806313106E+02  0.15225713524E+03  0.12500000000E+03 0.  0.
</event>
<event>
 5    0  0.5677492E-005  0.2553759E+03  0.7546771E-02  0.1109954E+00
         21   -1    0    0  502  501  0.00000000000E+00  0.00000000000E+00  0.60458377807E+03  0.60458377807E+03  0.00000000000E+00 0. -1.
         21   -1    0    0  501  502 -0.00000000000E+00 -0.00000000000E+00 -0.10787064649E+03  0.10787064649E+03  0.00000000000E+00 0. -1.
         25    1    1    2    0    0  0.89566217564E+02 -0.54787779137E+01  0.17766356926E+03  0.23503503607E+03  0.12500000000E+03 0.  0.
         25    1    1    2    0    0 -0.88437036362E+02 -0.52457139645E+02  0.40790594549E+02  0.16691834382E+03  0.12500000000E+03 0.  0.
         25    1    1    2    0    0 -0.11291812019E+01  0.57935917559E+02  0.27825896777E+03  0.31050104467E+03  0.12500000000E+03 0.  0.
</event>
<event>
 5    0  0.5677492E-005  0.7135324E+03  0.7546771E-02  0.9694366E-01
         21   -1    0    0  502  501  0.00000000000E+00  0.00000000000E+00  0.37333291051E+03  0.37333291051E+03  0.00000000000E+00 0. -1.
         21   -1    0    0  501  502 -0.00000000000E+00 -0.00000000000E+00 -0.13637385102E+04  0.13637385102E+04  0.00000000000E+00 0. -1.
         25    1    1    2    0    0  0.19967718377E+02 -0.27624236878E+03 -0.60512701623E+02  0.30983115264E+03  0.12500000000E+03 0.  0.
         25    1    1    2    0    0  0.13331076670E+03  0.87824722459E+02 -0.10912832790E+04  0.11099590702E+04  0.12500000000E+03 0.  0.
         25    1    1    2    0    0 -0.15327848508E+03  0.18841764632E+03  0.16139038099E+03  0.31728119785E+03  0.12500000000E+03 0.  0.
</event>
<event>
 5    0  0.5677492E-005  0.3515488E+03  0.7546771E-02  0.1061981E+00
         21   -1    0    0  502  501  0.00000000000E+00  0.00000000000E+00  0.50684397556E+03  0.50684397556E+03  0.00000000000E+00 0.  1.
         21   -1    0    0  501  502 -0.00000000000E+00 -0.00000000000E+00 -0.24383547260E+03  0.24383547260E+03  0.00000000000E+00 0.  1.
         25    1    1    2    0    0  0.15618481374E+03  0.10806920362E+03 -0.22009136492E+02  0.22843390927E+03  0.12500000000E+03 0.  0.
         25    1    1    2    0    0  0.79502064442E+02 -0.12414692925E+02  0.13858840286E+03  0.20323987862E+03  0.12500000000E+03 0.  0.
         25    1    1    2    0    0 -0.23568687818E+03 -0.95654510693E+02  0.14642923658E+03  0.31900566028E+03  0.12500000000E+03 0.  0.
</event>
<event>
 5    0  0.5677492E-005  0.2562835E+03  0.7546771E-02  0.1109397E+00
         21   -1    0    0  502  501  0.00000000000E+00  0.00000000000E+00  0.11348334238E+04  0.11348334238E+04  0.00000000000E+00 0. -1.
         21   -1    0    0  501  502 -0.00000000000E+00 -0.00000000000E+00 -0.57877431944E+02  0.57877431944E+02  0.00000000000E+00 0. -1.
         25    1    1    2    0    0 -0.36676154544E+02 -0.20247444482E+02  0.43427454673E+03  0.45384411560E+03  0.12500000000E+03 0.  0.
         25    1    1    2    0    0 -0.10567688106E+02  0.13492708622E+03  0.27247849859E+03  0.32891720359E+03  0.12500000000E+03 0.  0.
         25    1    1    2    0    0  0.47243842651E+02 -0.11467964173E+03  0.37020294651E+03  0.40994953653E+03  0.12500000000E+03 0.  0.
</event>
<event>
 5    0  0.5677492E-005  0.2613184E+03  0.7546771E-02  0.1106354E+00
         21   -1    0    0  502  501  0.00000000000E+00  0.00000000000E+00  0.19556281855E+03  0.19556281855E+03  0.00000000000E+00 0.  1.
         21   -1    0    0  501  502 -0.00000000000E+00 -0.00000000000E+00 -0.34918345435E+03  0.34918345435E+03  0.00000000000E+00 0.  1.
         25    1    1    2    0    0 -0.12705672703E+03  0.43765148752E+02 -0.96056581172E+02  0.20714890035E+03  0.12500000000E+03 0.  0.
         25    1    1    2    0    0  0.10721863026E+03 -0.97065540520E+02 -0.59650543298E+02  0.20025169449E+03  0.12500000000E+03 0.  0.
         25    1    1    2    0    0  0.19838096772E+02  0.53300391768E+02  0.20864886729E+01  0.13734567806E+03  0.12500000000E+03 0.  0.
</event>
<event>
 5    0  0.5677492E-005  0.4001376E+03  0.7546771E-02  0.1043732E+00
         21   -1    0    0  502  501  0.00000000000E+00  0.00000000000E+00  0.17975577057E+03  0.17975577057E+03  0.00000000000E+00 0.  1.
         21   -1    0    0  501  502 -0.00000000000E+00 -0.00000000000E+00 -0.89070910983E+03  0.89070910983E+03  0.00000000000E+00 0.  1.
         25    1    1    2    0    0 -0.42349809683E+02  0.99695917240E+02 -0.17345357995E+03  0.23967462672E+03  0.12500000000E+03 0.  0.
         25    1    1    2    0    0 -0.40971973351E+01 -0.29752321549E+03 -0.10954072805E+03  0.34082403360E+03  0.12500000000E+03 0.  0.
         25    1    1    2    0    0  0.46447007018E+02  0.19782729825E+03 -0.42795903125E+03  0.48996622008E+03  0.12500000000E+03 0.  0.
</event>
<event>
 5    0  0.5677492E-005  0.2873532E+03  0.7546771E-02  0.1091739E+00
         21   -1    0    0  502  501  0.00000000000E+00  0.00000000000E+00  0.15260291771E+04  0.15260291771E+04  0.00000000000E+00 0. -1.
         21   -1    0    0  501  502 -0.00000000000E+00 -0.00000000000E+00 -0.54108979909E+02  0.54108979909E+02  0.00000000000E+00 0. -1.
         25    1    1    2    0    0  0.41897066043E+02 -0.10452704728E+03  0.27514487870E+03  0.32250732089E+03  0.12500000000E+03 0.  0.
         25    1    1    2    0    0  0.25541534262E+02 -0.79357933496E+02  0.55935534352E+03  0.57918343546E+03  0.12500000000E+03 0.  0.
         25    1    1    2    0    0 -0.67438600305E+02  0.18388498078E+03  0.63741997498E+03  0.67844740067E+03  0.12500000000E+03 0.  0.
</event>
<event>
 5    0  0.5677492E-005  0.2804900E+03  0.7546771E-02  0.1095422E+00
         21   -1    0    0  502  501  0.00000000000E+00  0.00000000000E+00  0.32694981614E+03  0.32694981614E+03  0.00000000000E+00 0.  1.
         21   -1    0    0  501  502 -0.00000000000E+00 -0.00000000000E+00 -0.24063220996E+03  0.24063220996E+03  0.00000000000E+00 0.  1.
         25    1    1    2    0    0  0.29074558577E+02  0.36680684782E+02 -0.88572065060E+00  0.13347878893E+03  0.12500000000E+03 0.  0.
         25    1    1    2    0    0  0.11295261798E+03  0.35815857992E+02  0.14309156159E+03  0.22392245218E+03  0.12500000000E+03 0.  0.
         25    1    1    2    0    0 -0.14202717656E+03 -0.72496542774E+02 -0.55888234765E+02  0.21018078499E+03  0.12500000000E+03 0.  0.
</event>
<event>
 5    0  0.5677492E-005  0.2256250E+03  0.7546771E-02  0.1129758E+00
         21   -1    0    0  502  501  0.00000000000E+00  0.00000000000E+00  0.15066523005E+03  0.15066523005E+03  0.00000000000E+00 0.  1.
         21   -1    0    0  501  502 -0.00000000000E+00 -0.00000000000E+00 -0.33787905427E+03  0.33787905427E+03  0.00000000000E+00 0.  1.
         25    1    1    2    0    0  0.83371147290E+00 -0.45451229643E+02  0.30214762266E+02  0.13639809826E+03  0.12500000000E+03 0.  0.
         25    1    1    2    0    0 -0.14064049975E+02  0.69425199655E+02 -0.80329818744E+02  0.16460721621E+03  0.12500000000E+03 0.  0.
         25    1    1    2    0    0  0.13230338502E+02 -0.23973970012E+02 -0.13709876774E+03  0.18753896985E+03  0.12500000000E+03 0.  0.
</event>
<event>
 5    0  0.5677492E-005  0.3297371E+03  0.7546771E-02  0.1071253E+00
         21   -1    0    0  502  501  0.00000000000E+00  0.00000000000E+00  0.12208724298E+03  0.12208724298E+03  0.00000000000E+00 0.  1.
         21   -1    0    0  501  502 -0.00000000000E+00 -0.00000000000E+00 -0.89056447070E+03  0.89056447070E+03  0.00000000000E+00 0.  1.
         25    1    1    2    0    0 -0.22583927841E+03  0.96769113112E+02 -0.27623133062E+03  0.39025169947E+03  0.12500000000E+03 0.  0.
         25    1    1    2    0    0  0.32018474346E+02  0.21602132101E+01 -0.18755555480E+03  0.22766628068E+03  0.12500000000E+03 0.  0.
         25    1    1    2    0    0  0.19382080406E+03 -0.98929326322E+02 -0.30469034230E+03  0.39473373353E+03  0.12500000000E+03 0.  0.
</event>
<event>
 5    0  0.5677492E-005  0.5904019E+03  0.7546771E-02  0.9925522E-01
         21   -1    0    0  502  501  0.00000000000E+00  0.00000000000E+00  0.10467859348E+04  0.10467859348E+04  0.00000000000E+00 0.  1.
         21   -1    0    0  501  502 -0.00000000000E+00 -0.00000000000E+00 -0.33299489644E+03  0.33299489644E+03  0.00000000000E+00 0.  1.
         25    1    1    2    0    0  0.47516705286E+03 -0.14857184755E+03  0.28763978849E+03  0.58840374738E+03  0.12500000000E+03 0.  0.
         25    1    1    2    0    0 -0.27469654362E+03  0.17829643237E+03  0.42804430533E+03  0.55325829067E+03  0.12500000000E+03 0.  0.
         25    1    1    2    0    0 -0.20047050924E+03 -0.29724584825E+02 -0.18930554522E+01  0.23811879321E+03  0.12500000000E+03 0.  0.
</event>
<event>
 5    0  0.5677492E-005  0.2517838E+03  0.7546771E-02  0.1112183E+00
         21   -1    0    0  502  501  0.00000000000E+00  0.00000000000E+00  0.33596265097E+03  0.33596265097E+03  0.00000000000E+00 0.  1.
         21   -1    0    0  501  502 -0.00000000000E+00 -0.00000000000E+00 -0.18869676517E+03  0.18869676517E+03  0.00000000000E+00 0.  1.
         25    1    1    2    0    0 -0.26410927170E+02 -0.48564043848E+01 -0.36978120707E+02  0.13309208522E+03  0.12500000000E+03 0.  0.
         25    1    1    2    0    0 -0.98802053532E+02 -0.16654863908E+02  0.48030482223E+02  0.16724579964E+03  0.12500000000E+03 0.  0.
         25    1    1    2    0    0  0.12521298070E+03  0.21511268292E+02  0.13621352429E+03  0.22432153128E+03  0.12500000000E+03 0.  0.
</event>
<event>
 5    0  0.5960867E-005  0.2976765E+03  0.7546771E-02  0.1086408E+00
         21   -1    0    0  502  501  0.00000000000E+00  0.00000000000E+00  0.36045479777E+03  0.36045479777E+03  0.00000000000E+00 0. -1.
         21   -1    0    0  501  502 -0.00000000000E+00 -0.00000000000E+00 -0.24583187584E+03  0.24583187584E+03  0.00000000000E+00 0. -1.
         25    1    1    2    0    0 -0.14968718598E+02  0.13891771407E+03  0.82250679301E+02  0.20472510365E+03  0.12500000000E+03 0.  0.
         25    1    1    2    0    0  0.10916551423E+03 -0.17201389009E+03  0.34944132998E+02  0.24156154560E+03  0.12500000000E+03 0.  0.
         25    1    1    2    0    0 -0.94196795633E+02  0.33096176018E+02 -0.25718903630E+01  0.16000002436E+03  0.12500000000E+03 0.  0.
</event>
<event>
 5    0  0.5677492E-005  0.3564871E+03  0.7546771E-02  0.1059984E+00
         21   -1    0    0  502  501  0.00000000000E+00  0.00000000000E+00  0.30666805405E+03  0.30666805405E+03  0.00000000000E+00 0. -1.
         21   -1    0    0  501  502 -0.00000000000E+00 -0.00000000000E+00 -0.41439942648E+03  0.41439942648E+03  0.00000000000E+00 0. -1.
         25    1    1    2    0    0  0.21937136512E+03 -0.13311567225E+03  0.27194744595E+02  0.28671960548E+03  0.12500000000E+03 0.  0.
         25    1    1    2    0    0 -0.22517966673E+03  0.90137003937E+02 -0.12921701783E+03  0.30191488781E+03  0.12500000000E+03 0.  0.
         25    1    1    2    0    0  0.58083016106E+01  0.42978668310E+02 -0.57090991906E+01  0.13243298725E+03  0.12500000000E+03 0.  0.
</event>
<event>
 5    0  0.5677492E-005  0.2976718E+03  0.7546771E-02  0.1086410E+00
         21   -1    0    0  502  501  0.00000000000E+00  0.00000000000E+00  0.90838580597E+03  0.90838580597E+03  0.00000000000E+00 0. -1.
         21   -1    0    0  501  502 -0.00000000000E+00 -0.00000000000E+00 -0.97544985919E+02  0.97544985919E+02  0.00000000000E+00 0. -1.
         25    1    1    2    0    0  0.35735916906E+02  0.57168322530E+02  0.29934131375E+02  0.14514243032E+03  0.12500000000E+03 0.  0.
         25    1    1    2    0    0 -0.65762767821E+01  0.90271688345E+02  0.23699165314E+03  0.28281136610E+03  0.12500000000E+03 0.  0.
         25    1    1    2    0    0 -0.29159640124E+02 -0.14744001087E+03  0.54391503553E+03  0.57797699547E+03  0.12500000000E+03 0.  0.
</event>
<event>
 5    0  0.5677492E-005  0.2336134E+03  0.7546771E-02  0.1124122E+00
         21   -1    0    0  502  501  0.00000000000E+00  0.00000000000E+00  0.14828747667E+03  0.14828747667E+03  0.00000000000E+00 0.  1.
         21   -1    0    0  501  502 -0.00000000000E+00 -0.00000000000E+00 -0.36803658998E+03  0.36803658998E+03  0.00000000000E+00 0.  1.
         25    1    1    2    0    0  0.31681041933E+02 -0.45164139827E+02  0.20316747150E+02  0.13813492737E+03  0.12500000000E+03 0.  0.
         25    1    1    2    0    0 -0.55368453473E+02 -0.28387514073E+02 -0.80123730509E+02  0.16098549247E+03  0.12500000000E+03 0.  0.
         25    1    1    2    0    0  0.23687411540E+02  0.73551653901E+02 -0.15994212995E+03  0.21720364682E+03  0.12500000000E+03 0.  0.
</event>
<event>
 5    0  0.5677492E-005  0.2312318E+03  0.7546771E-02  0.1125776E+00
         21   -1    0    0  502  501  0.00000000000E+00  0.00000000000E+00  0.17503012858E+03  0.17503012858E+03  0.00000000000E+00 0.  1.
         21   -1    0    0  501  502 -0.00000000000E+00 -0.00000000000E+00 -0.30547977759E+03  0.30547977759E+03  0.00000000000E+00 0.  1.
         25    1    1    2    0    0 -0.51812004692E+01 -0.54696572575E+02 -0.14536777681E+03  0.19943758529E+03  0.12500000000E+03 0.  0.
         25    1    1    2    0    0  0.32269915889E+02  0.19341679631E+02 -0.41358368469E+02  0.13693415456E+03  0.12500000000E+03 0.  0.
         25    1    1    2    0    0 -0.27088715420E+02  0.35354892943E+02  0.56276496279E+02  0.14413816633E+03  0.12500000000E+03 0.  0.
</event>
<event>
 5    0  0.5677492E-005  0.3383989E+03  0.7546771E-02  0.1067480E+00
         21   -1    0    0  502  501  0.00000000000E+00  0.00000000000E+00  0.17331323321E+03  0.17331323321E+03  0.00000000000E+00 0. -1.
         21   -1    0    0  501  502 -0.00000000000E+00 -0.00000000000E+00 -0.66073334779E+03  0.66073334779E+03  0.00000000000E+00 0. -1.
         25    1    1    2    0    0  0.24956993902E+03  0.43899444494E+02 -0.28794133990E+03  0.40341979489E+03  0.12500000000E+03 0.  0.
         25    1    1    2    0    0 -0.82991856179E+02 -0.52619137265E+02 -0.29617619550E+02  0.16173628284E+03  0.12500000000E+03 0.  0.
         25    1    1    2    0    0 -0.16657808284E+03  0.87196927705E+01 -0.16986115514E+03  0.26889050327E+03  0.12500000000E+03 0.  0.
</event>
<event>
 5    0  0.5677492E-005  0.2863561E+03  0.7546771E-02  0.1092267E+00
         21   -1    0    0  502  501  0.00000000000E+00  0.00000000000E+00  0.19287870328E+04  0.19287870328E+04  0.00000000000E+00 0.  1.
         21   -1    0    0  501  502 -0.00000000000E+00 -0.00000000000E+00 -0.42513684655E+02  0.42513684655E+02  0.00000000000E+00 0.  1.
         25    1    1    2    0    0  0.12624593070E+02  0.58075329987E+02  0.33712341385E+03  0.36443013112E+03  0.12500000000E+03 0.  0.
         25    1    1    2    0    0  0.41589064127E+02  0.13612891092E+03  0.70851291947E+03  0.73340049611E+03  0.12500000000E+03 0.  0.
         25    1    1    2    0    0 -0.54213657197E+02 -0.19420424091E+03  0.84063701483E+03  0.87347009022E+03  0.12500000000E+03 0.  0.
</event>
<event>
 5    0  0.5789571E-005  0.4354140E+03  0.7546771E-02  0.1032163E+00
         21   -1    0    0  502  501  0.00000000000E+00  0.00000000000E+00  0.61731182927E+03  0.61731182927E+03  0.00000000000E+00 0. -1.
         21   -1    0    0  501  502 -0.00000000000E+00 -0.00000000000E+00 -0.30711438116E+03  0.30711438116E+03  0.00000000000E+00 0. -1.
         25    1    1    2    0    0 -0.24424830271E+03 -0.67965222392E+02  0.21671472485E+03  0.35618362792E+03  0.12500000000E+03 0.  0.
         25    1    1    2    0    0  0.13010430112E+03 -0.18342636579E+03  0.36560089921E+02  0.25987304787E+03  0.12500000000E+03 0.  0.
         25    1    1    2    0    0  0.11414400159E+03  0.25139158818E+03  0.56922633341E+02  0.30836953464E+03  0.12500000000E+03 0.  0.
</event>
<event>
 5    0  0.5846562E-005  0.3805809E+03  0.7546771E-02  0.1050719E+00
         21   -1    0    0  502  501  0.00000000000E+00  0.00000000000E+00  0.41142253954E+03  0.41142253954E+03  0.00000000000E+00 0. -1.
         21   -1    0    0  501  502 -0.00000000000E+00 -0.00000000000E+00 -0.35205117622E+03  0.35205117622E+03  0.00000000000E+00 0. -1.
         25    1    1    2    0    0  0.38344132016E+02  0.13020535020E+03  0.14115752826E+03  0.23232338123E+03  0.12500000000E+03 0.  0.
         25    1    1    2    0    0 -0.64173861504E+02  0.12611241510E+03 -0.14482390314E+03  0.23795291270E+03  0.12500000000E+03 0.  0.
         25    1    1    2    0    0  0.25829729488E+02 -0.25631776530E+03  0.63037738203E+02  0.29319742183E+03  0.12500000000E+03 0.  0.
</event>
<event>
 5    0  0.5677492E-005  0.3053210E+03  0.7546771E-02  0.1082611E+00
         21   -1    0    0  502  501  0.00000000000E+00  0.00000000000E+00  0.13953175899E+04  0.13953175899E+04  0.00000000000E+00 0. -1.
         21   -1    0    0  501  502 -0.00000000000E+00 -0.00000000000E+00 -0.66809836950E+02  0.66809836950E+02  0.00000000000E+00 0. -1.
         25    1    1    2    0    0  0.65210316899E+02  0.77556106432E+02  0.81607912705E+02  0.18042224500E+03  0.12500000000E+03 0.  0.
         25    1    1    2    0    0 -0.69591634538E+02 -0.83826262230E+02  0.58420873230E+03  0.60728467850E+03  0.12500000000E+03 0.  0.
         25    1    1    2    0    0  0.43813176392E+01  0.62701557983E+01  0.66269110792E+03  0.67442050334E+03  0.12500000000E+03 0.  0.
</event>
<event>
 5    0  0.5677492E-005  0.2650187E+03  0.7546771E-02  0.1104165E+00
         21   -1    0    0  502  501  0.00000000000E+00  0.00000000000E+00  0.52286735743E+02  0.52286735743E+02  0.00000000000E+00 0.  1.
         21   -1    0    0  501  502 -0.00000000000E+00 -0.00000000000E+00 -0.13432643797E+04  0.13432643797E+04  0.00000000000E+00 0.  1.
         25    1    1    2    0    0  0.22215504008E+01 -0.88865106934E+02 -0.59191518940E+03  0.61146588945E+03  0.12500000000E+03 0.  0.
         25    1    1    2    0    0 -0.81376910211E+01 -0.77154930275E+02 -0.29829539340E+03  0.33260223542E+03  0.12500000000E+03 0.  0.
         25    1    1    2    0    0  0.59161406202E+01  0.16602003721E+03 -0.40076706118E+03  0.45148299060E+03  0.12500000000E+03 0.  0.
</event>
<event>
 5    0  0.5677492E-005  0.2613109E+03  0.7546771E-02  0.1106358E+00
         21   -1    0    0  502  501  0.00000000000E+00  0.00000000000E+00  0.81963177108E+02  0.81963177108E+02  0.00000000000E+00 0.  1.
         21   -1    0    0  501  502 -0.00000000000E+00 -0.00000000000E+00 -0.83309849480E+03  0.83309849480E+03  0.00000000000E+00 0.  1.
         25    1    1    2    0    0  0.12381412594E+03 -0.69929923953E+02 -0.23969777461E+03  0.30545074104E+03  0.12500000000E+03 0.  0.
         25    1    1    2    0    0 -0.65864383611E+02  0.11546857802E+03 -0.33200498496E+03  0.37884484895E+03  0.12500000000E+03 0.  0.
         25    1    1    2    0    0 -0.57949742329E+02 -0.45538654071E+02 -0.17943255812E+03  0.23076608192E+03  0.12500000000E+03 0.  0.
</event>
<event>
 5    0  0.5677492E-005  0.2400532E+03  0.7546771E-02  0.1119757E+00
         21   -1    0    0  502  501  0.00000000000E+00  0.00000000000E+00  0.12834485424E+03  0.12834485424E+03  0.00000000000E+00 0.  1.
         21   -1    0    0  501  502 -0.00000000000E+00 -0.00000000000E+00 -0.44898988002E+03  0.44898988002E+03  0.00000000000E+00 0.  1.
         25    1    1    2    0    0 -0.36466509583E+02 -0.36847535161E+02 -0.67400412560E+02  0.15117990204E+03  0.12500000000E+03 0.  0.
         25    1    1    2    0    0  0.10123400311E+03 -0.59433856511E+02 -0.14064905796E+03  0.22178337221E+03  0.12500000000E+03 0.  0.
         25    1    1    2    0    0 -0.64767493524E+02  0.96281391672E+02 -0.11259555527E+03  0.20437146001E+03  0.12500000000E+03 0.  0.
</event>
<event>
 5    0  0.5677492E-005  0.4630435E+03  0.7546771E-02  0.1023902E+00
         21   -1    0    0  502  501  0.00000000000E+00  0.00000000000E+00  0.13101032939E+03  0.13101032939E+03  0.00000000000E+00 0. -1.
         21   -1    0    0  501  502 -0.00000000000E+00 -0.00000000000E+00 -0.16365826898E+04  0.16365826898E+04  0.00000000000E+00 0. -1.
         25    1    1    2    0    0  0.27793683785E+03 -0.12402388112E+03 -0.37773225805E+03  0.50093659049E+03  0.12500000000E+03 0.  0.
         25    1    1    2    0    0 -0.97110086810E+02 -0.15456822089E+03 -0.40972525419E+03  0.46564094299E+03  0.12500000000E+03 0.  0.
         25    1    1    2    0    0 -0.18082675104E+03  0.27859210201E+03 -0.71811484816E+03  0.80101548570E+03  0.12500000000E+03 0.  0.
</event>
<event>
 5    0  0.5677492E-005  0.2307320E+03  0.7546771E-02  0.1126126E+00
         21   -1    0    0  502  501  0.00000000000E+00  0.00000000000E+00  0.68010651190E+03  0.68010651190E+03  0.00000000000E+00 0. -1.
         21   -1    0    0  501  502 -0.00000000000E+00 -0.00000000000E+00 -0.78277838365E+02  0.78277838365E+02  0.00000000000E+00 0. -1.
         25    1    1    2    0    0  0.81804746816E+02 -0.29610071747E+02  0.25945077463E+03  0.30084626872E+03  0.12500000000E+03 0.  0.
         25    1    1    2    0    0  0.25388486535E+02  0.51051517552E+02  0.15037123067E+03  0.20368441204E+03  0.12500000000E+03 0.  0.
         25    1    1    2    0    0 -0.10719323335E+03 -0.21441445805E+02  0.19200666824E+03  0.25385366951E+03  0.12500000000E+03 0.  0.
</event>
<event>
 5    0  0.5677492E-005  0.3694578E+03  0.7546771E-02  0.1054900E+00
         21   -1    0    0  502  501  0.00000000000E+00  0.00000000000E+00  0.12854999595E+04  0.12854999595E+04  0.00000000000E+00 0. -1.
         21   -1    0    0  501  502 -0.00000000000E+00 -0.00000000000E+00 -0.10618362665E+03  0.10618362665E+03  0.00000000000E+00 0. -1.
         25    1    1    2    0    0  0.88096010630E+02  0.84347579340E+02  0.19410964908E+03  0.26111104361E+03  0.12500000000E+03 0.  0.
         25    1    1    2    0    0  0.19980771319E+02  0.83125725561E+02  0.40152098614E+02  0.15667261565E+03  0.12500000000E+03 0.  0.
         25    1    1    2    0    0 -0.10807678195E+03 -0.16747330490E+03  0.94505458515E+03  0.97389992687E+03  0.12500000000E+03 0.  0.
</event>
<event>
 5    0  0.5677492E-005  0.3519239E+03  0.7546771E-02  0.1061828E+00
         21   -1    0    0  502  501  0.00000000000E+00  0.00000000000E+00  0.20735411970E+03  0.20735411970E+03  0.00000000000E+00 0. -1.
         21   -1    0    0  501  502 -0.00000000000E+00 -0.00000000000E+00 -0.59728959262E+03  0.59728959262E+03  0.00000000000E+00 0. -1.
         25    1    1    2    0    0  0.98796518534E+02 -0.19279546604E+03 -0.39534577114E+02  0.25321695557E+03  0.12500000000E+03 0.  0.
         25    1    1    2    0    0 -0.95206457443E+02  0.12987332934E+03 -0.35648554911E+02  0.20694726545E+03  0.12500000000E+03 0.  0.
         25    1    1    2    0    0 -0.35900610911E+01  0.62922136703E+02 -0.31475234090E+03  0.34447949130E+03  0.12500000000E+03 0.  0.
</event>
<event>
 5    0  0.5677492E-005  0.3703104E+03  0.7546771E-02  0.1054574E+00
         21   -1    0    0  502  501  0.00000000000E+00  0.00000000000E+00  0.36760371828E+03  0.36760371828E+03  0.00000000000E+00 0.  1.
         21   -1    0    0  501  502 -0.00000000000E+00 -0.00000000000E+00 -0.37303692371E+03  0.37303692371E+03  0.00000000000E+00 0.  1.
         25    1    1    2    0    0 -0.12598747028E+03 -0.11940849908E+03 -0.11552972968E+03  0.24311180712E+03  0.12500000000E+03 0.  0.
         25    1    1    2    0    0  0.13679809547E+03 -0.20029142008E+02 -0.10355330492E+03  0.21322094741E+03  0.12500000000E+03 0.  0.
         25    1    1    2    0    0 -0.10810625186E+02  0.13943764109E+03  0.21364982918E+03  0.28430788747E+03  0.12500000000E+03 0.  0.
</event>
<event>
 5    0  0.5677492E-005  0.2915604E+03  0.7546771E-02  0.1089537E+00
         21   -1    0    0  502  501  0.00000000000E+00  0.00000000000E+00  0.34932243520E+03  0.34932243520E+03  0.00000000000E+00 0.  1.
         21   -1    0    0  501  502 -0.00000000000E+00 -0.00000000000E+00 -0.24334962944E+03  0.24334962944E+03  0.00000000000E+00 0.  1.
         25    1    1    2    0    0 -0.53473520629E+02 -0.83185839713E+02  0.18417853401E+03  0.24356936123E+03  0.12500000000E+03 0.  0.
         25    1    1    2    0    0  0.59995853074E+02  0.51535896024E+02  0.60313152632E+02  0.15974394306E+03  0.12500000000E+03 0.  0.
         25    1    1    2    0    0 -0.65223324451E+01  0.31649943689E+02 -0.13851888089E+03  0.18935876034E+03  0.12500000000E+03 0.  0.
</event>
<event>
 5    0  0.5677492E-005  0.4366760E+03  0.7546771E-02  0.1031772E+00
         21   -1    0    0  502  501  0.00000000000E+00  0.00000000000E+00  0.13435232635E+03  0.13435232635E+03  0.00000000000E+00 0. -1.
         21   -1    0    0  501  502 -0.00000000000E+00 -0.00000000000E+00 -0.14192973949E+04  0.14192973949E+04  0.00000000000E+00 0. -1.
         25    1    1    2    0    0 -0.24844342329E+02  0.30943928504E+03 -0.44134282916E+03  0.55387580316E+03  0.12500000000E+03 0.  0.
         25    1    1    2    0    0 -0.30680879025E+02 -0.20851181161E+03 -0.78114957304E+03  0.81868073592E+03  0.12500000000E+03 0.  0.
         25    1    1    2    0    0  0.55525221353E+02 -0.10092747342E+03 -0.62452666370E+02  0.18109318219E+03  0.12500000000E+03 0.  0.
</event>
<event>
 5    0  0.5677492E-005  0.3553266E+03  0.7546771E-02  0.1060450E+00
         21   -1    0    0  502  501  0.00000000000E+00  0.00000000000E+00  0.24516082906E+04  0.24516082906E+04  0.00000000000E+00 0.  1.
         21   -1    0    0  501  502 -0.00000000000E+00 -0.00000000000E+00 -0.51499664528E+02  0.51499664528E+02  0.00000000000E+00 0.  1.
         25    1    1    2    0    0 -0.72742606343E+02 -0.23386362986E+03  0.89754254580E+03  0.93871790527E+03  0.12500000000E+03 0.  0.
         25    1    1    2    0    0  0.83908170567E+02 -0.18306088357E+02  0.60149117643E+03  0.62031631389E+03  0.12500000000E+03 0.  0.
         25    1    1    2    0    0 -0.11165564224E+02  0.25216971822E+03  0.90107490384E+03  0.94407373596E+03  0.12500000000E+03 0.  0.
</event>
<event>
 5    0  0.5677492E-005  0.3731157E+03  0.7546771E-02  0.1053508E+00
         21   -1    0    0  502  501  0.00000000000E+00  0.00000000000E+00  0.48771959679E+03  0.48771959679E+03  0.00000000000E+00 0.  1.
         21   -1    0    0  501  502 -0.00000000000E+00 -0.00000000000E+00 -0.28544136011E+03  0.28544136011E+03  0.00000000000E+00 0.  1.
         25    1    1    2    0    0 -0.28418218871E+03 -0.59640060176E+01  0.40717686741E+02  0.31317409817E+03  0.12500000000E+03 0.  0.
         25    1    1    2    0    0  0.19398348346E+03  0.97342929037E+02  0.10976043408E+03  0.27345491507E+03  0.12500000000E+03 0.  0.
         25    1    1    2    0    0  0.90198705257E+02 -0.91378923019E+02  0.51800115856E+02  0.18653194366E+03  0.12500000000E+03 0.  0.
</event>
<event>
 5    0  0.5677492E-005  0.3810070E+03  0.7546771E-02  0.1050562E+00
         21   -1    0    0  502  501  0.00000000000E+00  0.00000000000E+00  0.19100760560E+03  0.19100760560E+03  0.00000000000E+00 0.  1.
         21   -1    0    0  501  502 -0.00000000000E+00 -0.00000000000E+00 -0.76000294697E+03  0.76000294697E+03  0.00000000000E+00 0.  1.
         25    1    1    2    0    0  0.41347311319E+02  0.75198521957E+02 -0.19900288966E+02  0.15292298506E+03  0.12500000000E+03 0.  0.
         25    1    1    2    0    0 -0.13341197320E+03 -0.10504181271E+03 -0.59680636393E+03  0.63295763922E+03  0.12500000000E+03 0.  0.
         25    1    1    2    0    0  0.92064661883E+02  0.29843290758E+02  0.47711311527E+02  0.16512992829E+03  0.12500000000E+03 0.  0.
</event>
<event>
 5    0  0.5677492E-005  0.2322228E+03  0.7546771E-02  0.1125085E+00
         21   -1    0    0  502  501  0.00000000000E+00  0.00000000000E+00  0.32956703346E+03  0.32956703346E+03  0.00000000000E+00 0.  1.
         21   -1    0    0  501  502 -0.00000000000E+00 -0.00000000000E+00 -0.16363107966E+03  0.16363107966E+03  0.00000000000E+00 0.  1.
         25    1    1    2    0    0 -0.51174751665E+02  0.86752699191E+01 -0.34366670437E+02  0.13964305766E+03  0.12500000000E+03 0.  0.
         25    1    1    2    0    0 -0.61813477567E+01  0.37419726323E+02  0.15257520624E+03  0.20085476976E+03  0.12500000000E+03 0.  0.
         25    1    1    2    0    0  0.57356099422E+02 -0.46094996243E+02  0.47727417996E+02  0.15270028568E+03  0.12500000000E+03 0.  0.
</event>
<event>
 5    0  0.5677492E-005  0.2316362E+03  0.7546771E-02  0.1125493E+00
         21   -1    0    0  502  501  0.00000000000E+00  0.00000000000E+00  0.16476091804E+03  0.16476091804E+03  0.00000000000E+00 0. -1.
         21   -1    0    0  501  502 -0.00000000000E+00 -0.00000000000E+00 -0.32565574743E+03  0.32565574743E+03  0.00000000000E+00 0. -1.
         25    1    1    2    0    0  0.16388052359E+02 -0.61481803669E+02 -0.42752254785E+02  0.14663333772E+03  0.12500000000E+03 0.  0.
         25    1    1    2    0    0 -0.71411600493E+01 -0.41852565342E+01 -0.15330382846E+03  0.19797872704E+03  0.12500000000E+03 0.  0.
         25    1    1    2    0    0 -0.92468923093E+01  0.65667060203E+02  0.35161253866E+02  0.14580460070E+03  0.12500000000E+03 0.  0.
</event>
<event>
 5    0  0.5677492E-005  0.3157914E+03  0.7546771E-02  0.1077603E+00
         21   -1    0    0  502  501  0.00000000000E+00  0.00000000000E+00  0.14636317499E+04  0.14636317499E+04  0.00000000000E+00 0. -1.
         21   -1    0    0  501  502 -0.00000000000E+00 -0.00000000000E+00 -0.68134783430E+02  0.68134783430E+02  0.00000000000E+00 0. -1.
         25    1    1    2    0    0  0.11643739310E+03 -0.81407280262E+02  0.88359404133E+03  0.90363058916E+03  0.12500000000E+03 0.  0.
         25    1    1    2    0    0 -0.31266790941E+02  0.11388179498E+03  0.12842176024E+03  0.21462484467E+03  0.12500000000E+03 0.  0.
         25    1    1    2    0    0 -0.85170602158E+02 -0.32474514723E+02  0.38348116486E+03  0.41351109946E+03  0.12500000000E+03 0.  0.
</event>
<event>
 5    0  0.5677492E-005  0.3132541E+03  0.7546771E-02  0.1078797E+00
         21   -1    0    0  502  501  0.00000000000E+00  0.00000000000E+00  0.55733835217E+02  0.55733835217E+02  0.00000000000E+00 0. -1.
         21   -1    0    0  501  502 -0.00000000000E+00 -0.00000000000E+00 -0.17606564542E+04  0.17606564542E+04  0.00000000000E+00 0. -1.
         25    1    1    2    0    0  0.11941618095E+03 -0.34768602713E+02 -0.69238938920E+03  0.71449083009E+03  0.12500000000E+03 0.  0.
         25    1    1    2    0    0 -0.95648639932E+02  0.96560181389E+02 -0.18152218714E+03  0.25893596771E+03  0.12500000000E+03 0.  0.
         25    1    1    2    0    0 -0.23767541021E+02 -0.61791578675E+02 -0.83101104265E+03  0.84296349162E+03  0.12500000000E+03 0.  0.
</event>
<event>
 5    0  0.5677492E-005  0.3283986E+03  0.7546771E-02  0.1071848E+00
         21   -1    0    0  502  501  0.00000000000E+00  0.00000000000E+00  0.88308245016E+03  0.88308245016E+03  0.00000000000E+00 0.  1.
         21   -1    0    0  501  502 -0.00000000000E+00 -0.00000000000E+00 -0.12212407519E+03  0.12212407519E+03  0.00000000000E+00 0.  1.
         25    1    1    2    0    0 -0.28551192511E+02  0.93704676825E+02  0.37014152325E+02  0.16306681000E+03  0.12500000000E+03 0.  0.
         25    1    1    2    0    0 -0.12279925371E+03  0.30217541202E+02  0.44516371355E+03  0.47936258549E+03  0.12500000000E+03 0.  0.
         25    1    1    2    0    0  0.15135044622E+03 -0.12392221803E+03  0.27878050909E+03  0.36277712985E+03  0.12500000000E+03 0.  0.
</event>
<event>
 5    0  0.5677492E-005  0.2741229E+03  0.7546771E-02  0.1098943E+00
         21   -1    0    0  502  501  0.00000000000E+00  0.00000000000E+00  0.82165037111E+03  0.82165037111E+03  0.00000000000E+00 0.  1.
         21   -1    0    0  501  502 -0.00000000000E+00 -0.00000000000E+00 -0.91454163721E+02  0.91454163721E+02  0.00000000000E+00 0.  1.
         25    1    1    2    0    0 -0.43407060316E+02 -0.76286500056E+02  0.21464312036E+03  0.26343969347E+03  0.12500000000E+03 0.  0.
         25    1    1    2    0    0  0.43318537097E+02  0.47961629819E+02  0.50133485151E+03  0.52070956101E+03  0.12500000000E+03 0.  0.
         25    1    1    2    0    0  0.88523218866E-01  0.28324870237E+02  0.14218235525E+02  0.12895528036E+03  0.12500000000E+03 0.  0.
</event>
<event>
 5    0  0.5677492E-005  0.3511240E+03  0.7546771E-02  0.1062155E+00
         21   -1    0    0  502  501  0.00000000000E+00  0.00000000000E+00  0.62246936582E+03  0.62246936582E+03  0.00000000000E+00 0.  1.
         21   -1    0    0  501  502 -0.00000000000E+00 -0.00000000000E+00 -0.19806290588E+03  0.19806290588E+03  0.00000000000E+00 0.  1.
         25    1    1    2    0    0 -0.15844940361E+02 -0.64210438682E+02  0.10607648650E+03  0.17678026915E+03  0.12500000000E+03 0.  0.
         25    1    1    2    0    0  0.33003564713E+02  0.16924066496E+03  0.40539097834E+03  0.45792846961E+03  0.12500000000E+03 0.  0.
         25    1    1    2    0    0 -0.17158624352E+02 -0.10503022628E+03 -0.87061004898E+02  0.18582353294E+03  0.12500000000E+03 0.  0.
</event>
<event>
 5    0  0.5677492E-005  0.5179026E+03  0.7546771E-02  0.1009209E+00
         21   -1    0    0  502  501  0.00000000000E+00  0.00000000000E+00  0.47080297143E+03  0.47080297143E+03  0.00000000000E+00 0.  1.
         21   -1    0    0  501  502 -0.00000000000E+00 -0.00000000000E+00 -0.56971422596E+03  0.56971422596E+03  0.00000000000E+00 0. -1.
         25    1    1    2    0    0  0.29767546816E+02 -0.37739864895E+03 -0.54615010140E+02  0.40239737375E+03  0.12500000000E+03 0.  0.
         25    1    1    2    0    0  0.89684927953E+02  0.45358311048E+02  0.14713350287E+03  0.21765576113E+03  0.12500000000E+03 0.  0.
         25    1    1    2    0    0 -0.11945247477E+03  0.33204033790E+03 -0.19142974726E+03  0.42046406251E+03  0.12500000000E+03 0.  0.
</event>
<event>
 5    0  0.5677492E-005  0.4007861E+03  0.7546771E-02  0.1043508E+00
         21   -1    0    0  502  501  0.00000000000E+00  0.00000000000E+00  0.21773207571E+03  0.21773207571E+03  0.00000000000E+00 0. -1.
         21   -1    0    0  501  502 -0.00000000000E+00 -0.00000000000E+00 -0.73773915324E+03  0.73773915324E+03  0.00000000000E+00 0. -1.
         25    1    1    2    0    0  0.16610917188E+03 -0.33074723238E+02  0.74579454562E+02  0.22332328437E+03  0.12500000000E+03 0.  0.
         25    1    1    2    0    0  0.67031514179E+02  0.28406423136E+02 -0.31819963090E+03  0.34953705651E+03  0.12500000000E+03 0.  0.
         25    1    1    2    0    0 -0.23314068606E+03  0.46683001020E+01 -0.27638690119E+03  0.38261088807E+03  0.12500000000E+03 0.  0.
</event>
<event>
 5    0  0.5677492E-005  0.3029451E+03  0.7546771E-02  0.1083778E+00
         21   -1    0    0  502  501  0.00000000000E+00  0.00000000000E+00  0.12536069631E+04  0.12536069631E+04  0.00000000000E+00 0.  1.
         21   -1    0    0  501  502 -0.00000000000E+00 -0.00000000000E+00 -0.73209359501E+02  0.73209359501E+02  0.00000000000E+00 0.  1.
         25    1    1    2    0    0  0.24677313455E+02  0.30805188646E+02  0.59942606288E+03  0.61359150443E+03  0.12500000000E+03 0.  0.
         25    1    1    2    0    0 -0.43434963039E+02 -0.15897981590E+03  0.43422156190E+03  0.48097249682E+03  0.12500000000E+03 0.  0.
         25    1    1    2    0    0  0.18757649584E+02  0.12817462725E+03  0.14674997880E+03  0.23225232134E+03  0.12500000000E+03 0.  0.
</event>
<event>
 5    0  0.5677492E-005  0.3870719E+03  0.7546771E-02  0.1048350E+00
         21   -1    0    0  502  501  0.00000000000E+00  0.00000000000E+00  0.10923775917E+04  0.10923775917E+04  0.00000000000E+00 0. -1.
         21   -1    0    0  501  502 -0.00000000000E+00 -0.00000000000E+00 -0.13715460607E+03  0.13715460607E+03  0.00000000000E+00 0. -1.
         25    1    1    2    0    0  0.47688559556E+02  0.51431577806E+02  0.63041463084E+02  0.15658426478E+03  0.12500000000E+03 0.  0.
         25    1    1    2    0    0 -0.27594482682E+03  0.60760664032E+02  0.52430774335E+03  0.60857293357E+03  0.12500000000E+03 0.  0.
         25    1    1    2    0    0  0.22825626726E+03 -0.11219224184E+03  0.36787377923E+03  0.46437499945E+03  0.12500000000E+03 0.  0.
</event>
<event>
 5    0  0.5677492E-005  0.3902393E+03  0.7546771E-02  0.1047213E+00
         21   -1    0    0  502  501  0.00000000000E+00  0.00000000000E+00  0.68441217062E+03  0.68441217062E+03  0.00000000000E+00 0.  1.
         21   -1    0    0  501  502 -0.00000000000E+00 -0.00000000000E+00 -0.22250728691E+03  0.22250728691E+03  0.00000000000E+00 0.  1.
         25    1    1    2    0    0  0.21011169884E+03  0.20938915328E+02  0.47540596870E+03  0.53499644788E+03  0.12500000000E+03 0.  0.
         25    1    1    2    0    0 -0.29665780703E+02 -0.25300736614E+02 -0.65330313877E+02  0.14633262018E+03  0.12500000000E+03 0.  0.
         25    1    1    2    0    0 -0.18044591814E+03  0.43618212859E+01  0.51829228887E+02  0.22559038948E+03  0.12500000000E+03 0.  0.
</event>
<event>
 5    0  0.5677492E-005  0.2668115E+03  0.7546771E-02  0.1103118E+00
         21   -1    0    0  502  501  0.00000000000E+00  0.00000000000E+00  0.52128743124E+02  0.52128743124E+02  0.00000000000E+00 0.  1.
         21   -1    0    0  501  502 -0.00000000000E+00 -0.00000000000E+00 -0.13656256861E+04  0.13656256861E+04  0.00000000000E+00 0.  1.
         25    1    1    2    0    0  0.12991085309E+03  0.79564380089E+02 -0.52201770478E+03  0.55797383848E+03  0.12500000000E+03 0.  0.
         25    1    1    2    0    0  0.12314153108E+02 -0.36070860964E+02 -0.21669452117E+03  0.25304991777E+03  0.12500000000E+03 0.  0.
         25    1    1    2    0    0 -0.14222500620E+03 -0.43493519125E+02 -0.57478471700E+03  0.60673067295E+03  0.12500000000E+03 0.  0.
</event>
<event>
 5    0  0.5677492E-005  0.2370226E+03  0.7546771E-02  0.1121792E+00
         21   -1    0    0  502  501  0.00000000000E+00  0.00000000000E+00  0.14780990776E+03  0.14780990776E+03  0.00000000000E+00 0.  1.
         21   -1    0    0  501  502 -0.00000000000E+00 -0.00000000000E+00 -0.38008090990E+03  0.38008090990E+03  0.00000000000E+00 0.  1.
         25    1    1    2    0    0 -0.11888874358E+01 -0.75317681011E+02 -0.22361690438E+02  0.14764556114E+03  0.12500000000E+03 0.  0.
         25    1    1    2    0    0  0.48772362381E+02  0.87015725974E+02 -0.18350519112E+03  0.24341247928E+03  0.12500000000E+03 0.  0.
         25    1    1    2    0    0 -0.47583474945E+02 -0.11698044964E+02 -0.26404120572E+02  0.13683277724E+03  0.12500000000E+03 0.  0.
</event>
<event>
 5    0  0.5677492E-005  0.5088001E+03  0.7546771E-02  0.1011507E+00
         21   -1    0    0  502  501  0.00000000000E+00  0.00000000000E+00  0.99216158387E+02  0.99216158387E+02  0.00000000000E+00 0. -1.
         21   -1    0    0  501  502 -0.00000000000E+00 -0.00000000000E+00 -0.26092274724E+04  0.26092274724E+04  0.00000000000E+00 0. -1.
         25    1    1    2    0    0  0.12855285720E+03  0.10634061131E+03 -0.12093483251E+04  0.12271848003E+04  0.12500000000E+03 0.  0.
         25    1    1    2    0    0 -0.10066183387E+03  0.10807674785E+03 -0.11941757922E+04  0.12097496480E+04  0.12500000000E+03 0.  0.
         25    1    1    2    0    0 -0.27891023333E+02 -0.21441735915E+03 -0.10648719672E+03  0.27150918245E+03  0.12500000000E+03 0.  0.
</event>
<event>
 5    0  0.5677492E-005  0.3310909E+03  0.7546771E-02  0.1070655E+00
         21   -1    0    0  502  501  0.00000000000E+00  0.00000000000E+00  0.12238156151E+04  0.12238156151E+04  0.00000000000E+00 0. -1.
         21   -1    0    0  501  502 -0.00000000000E+00 -0.00000000000E+00 -0.89573282592E+02  0.89573282592E+02  0.00000000000E+00 0. -1.
         25    1    1    2    0    0  0.10319513538E+03 -0.11107829880E+03  0.86388101727E+02  0.21465211052E+03  0.12500000000E+03 0.  0.
         25    1    1    2    0    0 -0.85578067006E+02 -0.12957919882E+02  0.53625322074E+03  0.55739037487E+03  0.12500000000E+03 0.  0.
         25    1    1    2    0    0 -0.17617068377E+02  0.12403621868E+03  0.51160101002E+03  0.54134641229E+03  0.12500000000E+03 0.  0.
</event>
<event>
 5    0  0.5677492E-005  0.2964643E+03  0.7546771E-02  0.1087022E+00
         21   -1    0    0  502  501  0.00000000000E+00  0.00000000000E+00  0.18137016199E+04  0.18137016199E+04  0.00000000000E+00 0.  1.
         21   -1    0    0  501  502 -0.00000000000E+00 -0.00000000000E+00 -0.48459504792E+02  0.48459504792E+02  0.00000000000E+00 0.  1.
         25    1    1    2    0    0  0.42086593443E+02 -0.77058872142E+02  0.98309139454E+03  0.99488845664E+03  0.12500000000E+03 0.  0.
         25    1    1    2    0    0 -0.13482423358E+03 -0.19927829772E+02  0.31296740367E+03  0.36352206002E+03  0.12500000000E+03 0.  0.
         25    1    1    2    0    0  0.92737640140E+02  0.96986701913E+02  0.46918331693E+03  0.50375060807E+03  0.12500000000E+03 0.  0.
</event>
<event>
 5    0  0.5677492E-005  0.3835752E+03  0.7546771E-02  0.1049620E+00
         21   -1    0    0  502  501  0.00000000000E+00  0.00000000000E+00  0.34424781631E+03  0.34424781631E+03  0.00000000000E+00 0.  1.
         21   -1    0    0  501  502 -0.00000000000E+00 -0.00000000000E+00 -0.42739531631E+03  0.42739531631E+03  0.00000000000E+00 0.  1.
         25    1    1    2    0    0 -0.29133639341E+03  0.37247775320E+02  0.32421362851E+02  0.32084331949E+03  0.12500000000E+03 0.  0.
         25    1    1    2    0    0  0.20964011839E+03 -0.53008675640E+02 -0.15702084414E+03  0.29502448106E+03  0.12500000000E+03 0.  0.
         25    1    1    2    0    0  0.81696275016E+02  0.15760900320E+02  0.41451981285E+02  0.15577533207E+03  0.12500000000E+03 0.  0.
</event>
<event>
 5    0  0.5677492E-005  0.2829369E+03  0.7546771E-02  0.1094096E+00
         21   -1    0    0  502  501  0.00000000000E+00  0.00000000000E+00  0.85202678405E+02  0.85202678405E+02  0.00000000000E+00 0. -1.
         21   -1    0    0  501  502 -0.00000000000E+00 -0.00000000000E+00 -0.93956336650E+03  0.93956336650E+03  0.00000000000E+00 0. -1.
         25    1    1    2    0    0  0.48960656032E+02  0.11573431605E+03 -0.16860529022E+03  0.24463099076E+03  0.12500000000E+03 0.  0.
         25    1    1    2    0    0 -0.14353297423E+03 -0.31962005945E+02 -0.32524065708E+03  0.37819276769E+03  0.12500000000E+03 0.  0.
         25    1    1    2    0    0  0.94572318196E+02 -0.83772310108E+02 -0.36051474079E+03  0.40194228645E+03  0.12500000000E+03 0.  0.
</event>
<event>
 5    0  0.5677492E-005  0.4272046E+03  0.7546771E-02  0.1034747E+00
         21   -1    0    0  502  501  0.00000000000E+00  0.00000000000E+00  0.47387238140E+03  0.47387238140E+03  0.00000000000E+00 0. -1.
         21   -1    0    0  501  502 -0.00000000000E+00 -0.00000000000E+00 -0.38513265775E+03  0.38513265775E+03  0.00000000000E+00 0. -1.
         25    1    1    2    0    0 -0.18573268023E+03 -0.45698584648E+02  0.29696711817E+02  0.23041676119E+03  0.12500000000E+03 0.  0.
         25    1    1    2    0    0  0.33746321246E+03  0.29375312723E+01 -0.98432033399E+02  0.37310040747E+03  0.12500000000E+03 0.  0.
         25    1    1    2    0    0 -0.15173053223E+03  0.42761053376E+02  0.15747504524E+03  0.25548787049E+03  0.12500000000E+03 0.  0.
</event>
<event>
 5    0  0.5677492E-005  0.3395400E+03  0.7546771E-02  0.1066992E+00
         21   -1    0    0  502  501  0.00000000000E+00  0.00000000000E+00  0.18805705507E+03  0.18805705507E+03  0.00000000000E+00 0.  1.
         21   -1    0    0  501  502 -0.00000000000E+00 -0.00000000000E+00 -0.61304471395E+03  0.61304471395E+03  0.00000000000E+00 0.  1.
         25    1    1    2    0    0 -0.11313222121E+03 -0.19334338632E+01 -0.93449394003E+02  0.19277039939E+03  0.12500000000E+03 0.  0.
         25    1    1    2    0    0  0.10444300066E+03  0.13636005615E+03  0.18242711223E+02  0.21321398128E+03  0.12500000000E+03 0.  0.
         25    1    1    2    0    0  0.86892205522E+01 -0.13442662229E+03 -0.34978097610E+03  0.39511738835E+03  0.12500000000E+03 0.  0.
</event>
<event>
 5    0  0.5677492E-005  0.5023724E+03  0.7546771E-02  0.1013162E+00
         21   -1    0    0  502  501  0.00000000000E+00  0.00000000000E+00  0.10695181103E+03  0.10695181103E+03  0.00000000000E+00 0.  1.
         21   -1    0    0  501  502 -0.00000000000E+00 -0.00000000000E+00 -0.23597362836E+04  0.23597362836E+04  0.00000000000E+00 0.  1.
         25    1    1    2    0    0 -0.26868887066E+03 -0.12659365250E+03 -0.17510260526E+04  0.17804316608E+04  0.12500000000E+03 0.  0.
         25    1    1    2    0    0  0.12623531817E+03 -0.38450006072E+02 -0.34530718423E+03  0.39022533234E+03  0.12500000000E+03 0.  0.
         25    1    1    2    0    0  0.14245355249E+03  0.16504365858E+03 -0.15645123572E+03  0.29603110142E+03  0.12500000000E+03 0.  0.
</event>
<event>
 5    0  0.5677492E-005  0.2915423E+03  0.7546771E-02  0.1089547E+00
         21   -1    0    0  502  501  0.00000000000E+00  0.00000000000E+00  0.20869034627E+03  0.20869034627E+03  0.00000000000E+00 0. -1.
         21   -1    0    0  501  502 -0.00000000000E+00 -0.00000000000E+00 -0.40728711111E+03  0.40728711111E+03  0.00000000000E+00 0. -1.
         25    1    1    2    0    0  0.96363673786E+02  0.13393311724E+03 -0.12905898682E+03  0.24393699924E+03  0.12500000000E+03 0.  0.
         25    1    1    2    0    0 -0.53361015852E+02  0.28349504318E+02  0.27168521944E+02  0.14147162610E+03  0.12500000000E+03 0.  0.
         25    1    1    2    0    0 -0.43002657934E+02 -0.16228262156E+03 -0.96706299968E+02  0.23056883203E+03  0.12500000000E+03 0.  0.
</event>
<event>
 5    0  0.5677492E-005  0.2429175E+03  0.7546771E-02  0.1117864E+00
         21   -1    0    0  502  501  0.00000000000E+00  0.00000000000E+00  0.31099211192E+02  0.31099211192E+02  0.00000000000E+00 0.  1.
         21   -1    0    0  501  502 -0.00000000000E+00 -0.00000000000E+00 -0.18974406142E+04  0.18974406142E+04  0.00000000000E+00 0.  1.
         25    1    1    2    0    0 -0.27356357502E+02 -0.11893847079E+03 -0.82724127530E+03  0.84548675784E+03  0.12500000000E+03 0.  0.
         25    1    1    2    0    0  0.11934387722E+02  0.60916292148E+02 -0.29763396382E+03  0.32873119821E+03  0.12500000000E+03 0.  0.
         25    1    1    2    0    0  0.15421969780E+02  0.58022178638E+02 -0.74146616389E+03  0.75432186934E+03  0.12500000000E+03 0.  0.
</event>
<event>
 5    0  0.5677492E-005  0.2868285E+03  0.7546771E-02  0.1092017E+00
         21   -1    0    0  502  501  0.00000000000E+00  0.00000000000E+00  0.13318871170E+03  0.13318871170E+03  0.00000000000E+00 0.  1.
         21   -1    0    0  501  502 -0.00000000000E+00 -0.00000000000E+00 -0.61769943488E+03  0.61769943488E+03  0.00000000000E+00 0.  1.
         25    1    1    2    0    0 -0.46229400533E+02 -0.11472845374E+03 -0.88451802127E+02  0.19684637886E+03  0.12500000000E+03 0.  0.
         25    1    1    2    0    0  0.33795938603E+02  0.17426169245E+03 -0.12785754096E+03  0.25195605510E+03  0.12500000000E+03 0.  0.
         25    1    1    2    0    0  0.12433461930E+02 -0.59533238710E+02 -0.26820138009E+03  0.30208571262E+03  0.12500000000E+03 0.  0.
</event>
<event>
 5    0  0.5677492E-005  0.3141602E+03  0.7546771E-02  0.1078369E+00
         21   -1    0    0  502  501  0.00000000000E+00  0.00000000000E+00  0.13728596755E+04  0.13728596755E+04  0.00000000000E+00 0. -1.
         21   -1    0    0  501  502 -0.00000000000E+00 -0.00000000000E+00 -0.71891276576E+02  0.71891276576E+02  0.00000000000E+00 0. -1.
         25    1    1    2    0    0  0.13134580583E+03  0.12217269242E+03  0.71940706182E+03  0.75189720579E+03  0.12500000000E+03 0.  0.
         25    1    1    2    0    0 -0.94745387416E+02 -0.17546068277E+03  0.34590680426E+03  0.41837740961E+03  0.12500000000E+03 0.  0.
         25    1    1    2    0    0 -0.36600418410E+02  0.53287990353E+02  0.23565453281E+03  0.27447633665E+03  0.12500000000E+03 0.  0.
</event>
<event>
 5    0  0.5677492E-005  0.2907008E+03  0.7546771E-02  0.1089984E+00
         21   -1    0    0  502  501  0.00000000000E+00  0.00000000000E+00  0.14880621385E+03  0.14880621385E+03  0.00000000000E+00 0. -1.
         21   -1    0    0  501  502 -0.00000000000E+00 -0.00000000000E+00 -0.56789932153E+03  0.56789932153E+03  0.00000000000E+00 0.  1.
         25    1    1    2    0    0  0.92339486128E+02  0.14872536647E+03 -0.18937461470E+03  0.28658953230E+03  0.12500000000E+03 0.  0.
         25    1    1    2    0    0 -0.12814020227E+03 -0.93928023042E+02 -0.63093717032E+02  0.21177394098E+03  0.12500000000E+03 0.  0.
         25    1    1    2    0    0  0.35800716138E+02 -0.54797343426E+02 -0.16662477595E+03  0.21834206210E+03  0.12500000000E+03 0.  0.
</event>
<event>
 5    0  0.5677492E-005  0.3047183E+03  0.7546771E-02  0.1082906E+00
         21   -1    0    0  502  501  0.00000000000E+00  0.00000000000E+00  0.14305994711E+03  0.14305994711E+03  0.00000000000E+00 0.  1.
         21   -1    0    0  501  502 -0.00000000000E+00 -0.00000000000E+00 -0.64905107319E+03  0.64905107319E+03  0.00000000000E+00 0.  1.
         25    1    1    2    0    0 -0.94472959455E+01 -0.55733582289E+02 -0.28033815335E+02  0.14002277814E+03  0.12500000000E+03 0.  0.
         25    1    1    2    0    0  0.61572398163E+02 -0.27049269464E+02 -0.47239714059E+03  0.49326147390E+03  0.12500000000E+03 0.  0.
         25    1    1    2    0    0 -0.52125102217E+02  0.82782851753E+02 -0.55601701548E+01  0.15882676827E+03  0.12500000000E+03 0.  0.
</event>
<event>
 5    0  0.5677492E-005  0.2586373E+03  0.7546771E-02  0.1107965E+00
         21   -1    0    0  502  501  0.00000000000E+00  0.00000000000E+00  0.19557908129E+04  0.19557908129E+04  0.00000000000E+00 0. -1.
         21   -1    0    0  501  502 -0.00000000000E+00 -0.00000000000E+00 -0.34202672885E+02  0.34202672885E+02  0.00000000000E+00 0. -1.
         25    1    1    2    0    0  0.70154674846E+02  0.11004867495E+03  0.54219034390E+03  0.57151356789E+03  0.12500000000E+03 0.  0.
         25    1    1    2    0    0  0.43961866998E+02 -0.20685119568E+02  0.44906831842E+03  0.46866605865E+03  0.12500000000E+03 0.  0.
         25    1    1    2    0    0 -0.11411654184E+03 -0.89363555386E+02  0.93032947774E+03  0.94981385929E+03  0.12500000000E+03 0.  0.
</event>
<event>
 5    0  0.5677492E-005  0.4083779E+03  0.7546771E-02  0.1040917E+00
         21   -1    0    0  502  501  0.00000000000E+00  0.00000000000E+00  0.78891687957E+03  0.78891687957E+03  0.00000000000E+00 0.  1.
         21   -1    0    0  501  502 -0.00000000000E+00 -0.00000000000E+00 -0.21139428189E+03  0.21139428189E+03  0.00000000000E+00 0.  1.
         25    1    1    2    0    0  0.95671133253E+01  0.10530506457E+03 -0.11494793636E+03  0.20004678042E+03  0.12500000000E+03 0.  0.
         25    1    1    2    0    0 -0.13928286110E+03 -0.47798676245E+02  0.22827308697E+03  0.29902847871E+03  0.12500000000E+03 0.  0.
         25    1    1    2    0    0  0.12971574777E+03 -0.57506388328E+02  0.46419744707E+03  0.50123590233E+03  0.12500000000E+03 0.  0.
</event>
<event>
 5    0  0.5677492E-005  0.2612239E+03  0.7546771E-02  0.1106410E+00
         21   -1    0    0  502  501  0.00000000000E+00  0.00000000000E+00  0.23057138259E+03  0.23057138259E+03  0.00000000000E+00 0.  1.
         21   -1    0    0  501  502 -0.00000000000E+00 -0.00000000000E+00 -0.29595147880E+03  0.29595147880E+03  0.00000000000E+00 0.  1.
         25    1    1    2    0    0  0.85017598663E+02 -0.26487781880E+02  0.25079419735E+02  0.15551068119E+03  0.12500000000E+03 0.  0.
         25    1    1    2    0    0 -0.77443970472E+02 -0.75210303714E+01  0.71334536949E+02  0.16360852857E+03  0.12500000000E+03 0.  0.
         25    1    1    2    0    0 -0.75736281910E+01  0.34008812251E+02 -0.16179405290E+03  0.20740365163E+03  0.12500000000E+03 0.  0.
</event>
<event>
 5    0  0.5677492E-005  0.3236293E+03  0.7546771E-02  0.1073991E+00
         21   -1    0    0  502  501  0.00000000000E+00  0.00000000000E+00  0.50310805701E+02  0.50310805701E+02  0.00000000000E+00 0. -1.
         21   -1    0    0  501  502 -0.00000000000E+00 -0.00000000000E+00 -0.20817776835E+04  0.20817776835E+04  0.00000000000E+00 0. -1.
         25    1    1    2    0    0 -0.22227889857E+02 -0.79431328708E+02 -0.38387459865E+03  0.41205354331E+03  0.12500000000E+03 0.  0.
         25    1    1    2    0    0 -0.13307095127E+03 -0.25081772336E+01 -0.27164019452E+03  0.32730347432E+03  0.12500000000E+03 0.  0.
         25    1    1    2    0    0  0.15529884113E+03  0.81939505941E+02 -0.13759520847E+04  0.13927314716E+04  0.12500000000E+03 0.  0.
</event>
<event>
 5    0  0.5677492E-005  0.3409596E+03  0.7546771E-02  0.1066388E+00
         21   -1    0    0  502  501  0.00000000000E+00  0.00000000000E+00  0.11630630491E+04  0.11630630491E+04  0.00000000000E+00 0. -1.
         21   -1    0    0  501  502 -0.00000000000E+00 -0.00000000000E+00 -0.99954532951E+02  0.99954532951E+02  0.00000000000E+00 0. -1.
         25    1    1    2    0    0  0.57968510887E+02  0.75715790086E+02  0.47216256172E+03  0.49765019222E+03  0.12500000000E+03 0.  0.
         25    1    1    2    0    0 -0.13509713894E+02 -0.96526170186E+02  0.60952238935E+03  0.62979548825E+03  0.12500000000E+03 0.  0.
         25    1    1    2    0    0 -0.44458796994E+02  0.20810380100E+02 -0.18576434969E+02  0.13557190154E+03  0.12500000000E+03 0.  0.
</event>
<event>
 5    0  0.5677492E-005  0.3844519E+03  0.7546771E-02  0.1049300E+00
         21   -1    0    0  502  501  0.00000000000E+00  0.00000000000E+00  0.20021949473E+03  0.20021949473E+03  0.00000000000E+00 0. -1.
         21   -1    0    0  501  502 -0.00000000000E+00 -0.00000000000E+00 -0.73820627206E+03  0.73820627206E+03  0.00000000000E+00 0.  1.
         25    1    1    2    0    0 -0.20929538206E+03 -0.18404987578E+03 -0.41059617184E+03  0.51175495118E+03  0.12500000000E+03 0.  0.
         25    1    1    2    0    0  0.94334812563E+01  0.84537559537E+02 -0.52663864274E+02  0.16010644004E+03  0.12500000000E+03 0.  0.
         25    1    1    2    0    0  0.19986190080E+03  0.99512316243E+02 -0.74726741215E+02  0.26656437558E+03  0.12500000000E+03 0.  0.
</event>
<event>
 5    0  0.5677492E-005  0.5315620E+03  0.7546771E-02  0.1005854E+00
         21   -1    0    0  502  501  0.00000000000E+00  0.00000000000E+00  0.22894907265E+03  0.22894907265E+03  0.00000000000E+00 0. -1.
         21   -1    0    0  501  502 -0.00000000000E+00 -0.00000000000E+00 -0.12341530265E+04  0.12341530265E+04  0.00000000000E+00 0. -1.
         25    1    1    2    0    0  0.41815590480E+03 -0.78887687195E+02 -0.78437045902E+03  0.90107693617E+03  0.12500000000E+03 0.  0.
         25    1    1    2    0    0 -0.24252896975E+03  0.11354565445E+03 -0.97143166504E+02  0.31108634109E+03  0.12500000000E+03 0.  0.
         25    1    1    2    0    0 -0.17562693505E+03 -0.34657967259E+02 -0.12369032832E+03  0.25093882189E+03  0.12500000000E+03 0.  0.
</event>
<event>
 5    0  0.5677492E-005  0.2972701E+03  0.7546771E-02  0.1086613E+00
         21   -1    0    0  502  501  0.00000000000E+00  0.00000000000E+00  0.13971953119E+04  0.13971953119E+04  0.00000000000E+00 0.  1.
         21   -1    0    0  501  502 -0.00000000000E+00 -0.00000000000E+00 -0.63247769062E+02  0.63247769062E+02  0.00000000000E+00 0.  1.
         25    1    1    2    0    0  0.76356361747E+02 -0.69910070609E+02  0.78841623157E+03  0.80494898357E+03  0.12500000000E+03 0.  0.
         25    1    1    2    0    0 -0.55659689139E+02  0.15782891957E+03  0.32712271158E+03  0.38812657378E+03  0.12500000000E+03 0.  0.
         25    1    1    2    0    0 -0.20696672608E+02 -0.87918848961E+02  0.21840859969E+03  0.26736752360E+03  0.12500000000E+03 0.  0.
</event>
<event>
 5    0  0.5677492E-005  0.3387439E+03  0.7546771E-02  0.1067332E+00
         21   -1    0    0  502  501  0.00000000000E+00  0.00000000000E+00  0.88431126732E+03  0.88431126732E+03  0.00000000000E+00 0.  1.
         21   -1    0    0  501  502 -0.00000000000E+00 -0.00000000000E+00 -0.12975910852E+03  0.12975910852E+03  0.00000000000E+00 0.  1.
         25    1    1    2    0    0 -0.13611833556E+03  0.10481057966E+02  0.37384342319E+03  0.41715939270E+03  0.12500000000E+03 0.  0.
         25    1    1    2    0    0  0.10013459138E+03  0.20230889635E+02  0.42618320407E+03  0.45573385733E+03  0.12500000000E+03 0.  0.
         25    1    1    2    0    0  0.35983744179E+02 -0.30711947601E+02 -0.45474468466E+02  0.14117712581E+03  0.12500000000E+03 0.  0.
</event>
<event>
 5    0  0.5677492E-005  0.3733317E+03  0.7546771E-02  0.1053426E+00
         21   -1    0    0  502  501  0.00000000000E+00  0.00000000000E+00  0.16724703614E+03  0.16724703614E+03  0.00000000000E+00 0.  1.
         21   -1    0    0  501  502 -0.00000000000E+00 -0.00000000000E+00 -0.83335720788E+03  0.83335720788E+03  0.00000000000E+00 0.  1.
         25    1    1    2    0    0 -0.11776379502E+03  0.15289838052E+03 -0.38145103008E+03  0.44539433599E+03  0.12500000000E+03 0.  0.
         25    1    1    2    0    0 -0.91278104688E+02 -0.34743936794E+02 -0.22941932574E+03  0.27892124437E+03  0.12500000000E+03 0.  0.
         25    1    1    2    0    0  0.20904189971E+03 -0.11815444372E+03 -0.55239815920E+02  0.27628866366E+03  0.12500000000E+03 0.  0.
</event>
<event>
 5    0  0.5677492E-005  0.3045444E+03  0.7546771E-02  0.1082991E+00
         21   -1    0    0  502  501  0.00000000000E+00  0.00000000000E+00  0.10983965486E+04  0.10983965486E+04  0.00000000000E+00 0.  1.
         21   -1    0    0  501  502 -0.00000000000E+00 -0.00000000000E+00 -0.84438821665E+02  0.84438821665E+02  0.00000000000E+00 0.  1.
         25    1    1    2    0    0 -0.62788474318E+01  0.21606369441E+03  0.29560123377E+03  0.38694706792E+03  0.12500000000E+03 0.  0.
         25    1    1    2    0    0 -0.11968546365E+02 -0.10015602125E+03  0.44624052426E+03  0.47426794134E+03  0.12500000000E+03 0.  0.
         25    1    1    2    0    0  0.18247393797E+02 -0.11590767316E+03  0.27211596891E+03  0.32162036101E+03  0.12500000000E+03 0.  0.
</event>
<event>
 5    0  0.5677492E-005  0.2981213E+03  0.7546771E-02  0.1086184E+00
         21   -1    0    0  502  501  0.00000000000E+00  0.00000000000E+00  0.95555719727E+03  0.95555719727E+03  0.00000000000E+00 0.  1.
         21   -1    0    0  501  502 -0.00000000000E+00 -0.00000000000E+00 -0.93009960933E+02  0.93009960933E+02  0.00000000000E+00 0.  1.
         25    1    1    2    0    0  0.11027925141E+02 -0.29077101982E+02  0.41923033223E+03  0.43857287246E+03  0.12500000000E+03 0.  0.
         25    1    1    2    0    0 -0.36411290687E+02  0.13602920103E+03  0.69358964418E+02  0.20066238204E+03  0.12500000000E+03 0.  0.
         25    1    1    2    0    0  0.25383365546E+02 -0.10695209904E+03  0.37395793969E+03  0.40933190371E+03  0.12500000000E+03 0.  0.
</event>
<event>
 5    0  0.5677492E-005  0.3100582E+03  0.7546771E-02  0.1080318E+00
         21   -1    0    0  502  501  0.00000000000E+00  0.00000000000E+00  0.86591396294E+03  0.86591396294E+03  0.00000000000E+00 0. -1.
         21   -1    0    0  501  502 -0.00000000000E+00 -0.00000000000E+00 -0.11102270211E+03  0.11102270211E+03  0.00000000000E+00 0.  1.
         25    1    1    2    0    0 -0.19981285877E+03  0.87670334448E+02  0.37801333073E+03  0.45401579739E+03  0.12500000000E+03 0.  0.
         25    1    1    2    0    0  0.36300146688E+02 -0.83481168356E+02  0.13474986580E+03  0.20510809943E+03  0.12500000000E+03 0.  0.
         25    1    1    2    0    0  0.16351271208E+03 -0.41891660921E+01  0.24212806430E+03  0.31781276823E+03  0.12500000000E+03 0.  0.
</event>
<event>
 5    0  0.5677492E-005  0.2728829E+03  0.7546771E-02  0.1099641E+00
         21   -1    0    0  502  501  0.00000000000E+00  0.00000000000E+00  0.57018902011E+03  0.57018902011E+03  0.00000000000E+00 0. -1.
         21   -1    0    0  501  502 -0.00000000000E+00 -0.00000000000E+00 -0.13059713812E+03  0.13059713812E+03  0.00000000000E+00 0. -1.
         25    1    1    2    0    0 -0.87449997247E+02  0.15096925667E+02  0.22495668041E+02  0.15494022804E+03  0.12500000000E+03 0.  0.
         25    1    1    2    0    0  0.20853383017E+02  0.10334735148E+03  0.15550449561E+03  0.22565944872E+03  0.12500000000E+03 0.  0.
         25    1    1    2    0    0  0.66596614229E+02 -0.11844427715E+03  0.26159171834E+03  0.32018648147E+03  0.12500000000E+03 0.  0.
</event>
<event>
 5    0  0.5677492E-005  0.3372580E+03  0.7546771E-02  0.1067970E+00
         21   -1    0    0  502  501  0.00000000000E+00  0.00000000000E+00  0.22857261118E+04  0.22857261118E+04  0.00000000000E+00 0.  1.
         21   -1    0    0  501  502 -0.00000000000E+00 -0.00000000000E+00 -0.49762297410E+02  0.49762297410E+02  0.00000000000E+00 0.  1.
         25    1    1    2    0    0  0.18283447369E+03 -0.11399187684E+03  0.13261808769E+04  0.13493714504E+04  0.12500000000E+03 0.  0.
         25    1    1    2    0    0 -0.10507775505E+03 -0.38358143317E+02  0.43454058455E+03  0.46579308860E+03  0.12500000000E+03 0.  0.
         25    1    1    2    0    0 -0.77756718647E+02  0.15235002016E+03  0.47524235290E+03  0.52032387023E+03  0.12500000000E+03 0.  0.
</event>
<event>
 5    0  0.5677492E-005  0.3182581E+03  0.7546771E-02  0.1076454E+00
         21   -1    0    0  502  501  0.00000000000E+00  0.00000000000E+00  0.16894167981E+03  0.16894167981E+03  0.00000000000E+00 0.  1.
         21   -1    0    0  501  502 -0.00000000000E+00 -0.00000000000E+00 -0.59954538193E+03  0.59954538193E+03  0.00000000000E+00 0.  1.
         25    1    1    2    0    0 -0.39234443082E+02  0.48767425089E+02 -0.16212603019E+03  0.21407347556E+03  0.12500000000E+03 0.  0.
         25    1    1    2    0    0 -0.13949979883E+03 -0.12002297256E+03 -0.23315118102E+03  0.32225794176E+03  0.12500000000E+03 0.  0.
         25    1    1    2    0    0  0.17873424191E+03  0.71255547475E+02 -0.35326490912E+02  0.23215564442E+03  0.12500000000E+03 0.  0.
</event>
<event>
 5    0  0.5677492E-005  0.3460533E+03  0.7546771E-02  0.1064247E+00
         21   -1    0    0  502  501  0.00000000000E+00  0.00000000000E+00  0.84306369199E+03  0.84306369199E+03  0.00000000000E+00 0.  1.
         21   -1    0    0  501  502 -0.00000000000E+00 -0.00000000000E+00 -0.14204491619E+03  0.14204491619E+03  0.00000000000E+00 0.  1.
         25    1    1    2    0    0  0.64122566868E+00  0.20089560762E+03  0.35070180556E+03  0.42305580336E+03  0.12500000000E+03 0.  0.
         25    1    1    2    0    0 -0.17935964304E+02  0.54056573207E+02  0.44523239178E+02  0.14439920619E+03  0.12500000000E+03 0.  0.
         25    1    1    2    0    0  0.17294738635E+02 -0.25495218083E+03  0.30579373106E+03  0.41765359863E+03  0.12500000000E+03 0.  0.
</event>
<event>
 5    0  0.5677492E-005  0.3301121E+03  0.7546771E-02  0.1071087E+00
         21   -1    0    0  502  501  0.00000000000E+00  0.00000000000E+00  0.10371975656E+04  0.10371975656E+04  0.00000000000E+00 0.  1.
         21   -1    0    0  501  502 -0.00000000000E+00 -0.00000000000E+00 -0.10506580928E+03  0.10506580928E+03  0.00000000000E+00 0.  1.
         25    1    1    2    0    0  0.15089998502E+02 -0.17117434862E+03  0.20455122217E+03  0.29494841612E+03  0.12500000000E+03 0.  0.
         25    1    1    2    0    0  0.84961928272E+02 -0.71984843784E+01  0.47756393809E+03  0.50096173746E+03  0.12500000000E+03 0.  0.
         25    1    1    2    0    0 -0.10005192677E+03  0.17837283300E+03  0.25001659607E+03  0.34635322131E+03  0.12500000000E+03 0.  0.
</event>
<event>
 5    0  0.5677492E-005  0.3439528E+03  0.7546771E-02  0.1065125E+00
         21   -1    0    0  502  501  0.00000000000E+00  0.00000000000E+00  0.26862565586E+03  0.26862565586E+03  0.00000000000E+00 0. -1.
         21   -1    0    0  501  502 -0.00000000000E+00 -0.00000000000E+00 -0.44040282243E+03  0.44040282243E+03  0.00000000000E+00 0. -1.
         25    1    1    2    0    0 -0.46817976099E+02  0.12407634610E+03 -0.16086226737E+03  0.24308132715E+03  0.12500000000E+03 0.  0.
         25    1    1    2    0    0  0.84475146528E+01  0.73721273982E+02  0.12580408898E+03  0.19224426011E+03  0.12500000000E+03 0.  0.
         25    1    1    2    0    0  0.38370461446E+02 -0.19779762008E+03 -0.13671898819E+03  0.27370289102E+03  0.12500000000E+03 0.  0.
</event>
<event>
 5    0  0.5677492E-005  0.2274784E+03  0.7546771E-02  0.1128427E+00
         21   -1    0    0  502  501  0.00000000000E+00  0.00000000000E+00  0.47290369774E+03  0.47290369774E+03  0.00000000000E+00 0. -1.
         21   -1    0    0  501  502 -0.00000000000E+00 -0.00000000000E+00 -0.10942275407E+03  0.10942275407E+03  0.00000000000E+00 0. -1.
         25    1    1    2    0    0  0.35667674230E+02  0.49819303594E+02  0.72306305195E+02  0.15686729349E+03  0.12500000000E+03 0.  0.
         25    1    1    2    0    0 -0.41162150049E+02 -0.70672511597E+02  0.25156366375E+03  0.29257170645E+03  0.12500000000E+03 0.  0.
         25    1    1    2    0    0  0.54944758186E+01  0.20853208003E+02  0.39610974719E+02  0.13288745188E+03  0.12500000000E+03 0.  0.
</event>
<event>
 5    0  0.5677492E-005  0.3558315E+03  0.7546771E-02  0.1060247E+00
         21   -1    0    0  502  501  0.00000000000E+00  0.00000000000E+00  0.81920533382E+03  0.81920533382E+03  0.00000000000E+00 0.  1.
         21   -1    0    0  501  502 -0.00000000000E+00 -0.00000000000E+00 -0.15455960280E+03  0.15455960280E+03  0.00000000000E+00 0.  1.
         25    1    1    2    0    0  0.76408502372E+02 -0.10603571736E+03  0.41837095770E+03  0.45578623371E+03  0.12500000000E+03 0.  0.
         25    1    1    2    0    0 -0.51129077208E+02 -0.14463579722E+02  0.30425248920E+03  0.33319356965E+03  0.12500000000E+03 0.  0.
         25    1    1    2    0    0 -0.25279425164E+02  0.12049929708E+03 -0.57977715888E+02  0.18478513326E+03  0.12500000000E+03 0.  0.
</event>
<event>
 5    0  0.5677492E-005  0.2956278E+03  0.7546771E-02  0.1087447E+00
         21   -1    0    0  502  501  0.00000000000E+00  0.00000000000E+00  0.94388074390E+02  0.94388074390E+02  0.00000000000E+00 0.  1.
         21   -1    0    0  501  502 -0.00000000000E+00 -0.00000000000E+00 -0.92592008132E+03  0.92592008132E+03  0.00000000000E+00 0.  1.
         25    1    1    2    0    0  0.45125706855E+02  0.71731721468E+01 -0.19212743868E+03  0.23372149348E+03  0.12500000000E+03 0.  0.
         25    1    1    2    0    0  0.12155017789E+03  0.16512264272E+01 -0.84428785864E+02  0.19372762368E+03  0.12500000000E+03 0.  0.
         25    1    1    2    0    0 -0.16667588474E+03 -0.88243985741E+01 -0.55497578239E+03  0.59285903856E+03  0.12500000000E+03 0.  0.
</event>
<event>
 5    0  0.5677492E-005  0.2579111E+03  0.7546771E-02  0.1108405E+00
         21   -1    0    0  502  501  0.00000000000E+00  0.00000000000E+00  0.99108238356E+03  0.99108238356E+03  0.00000000000E+00 0. -1.
         21   -1    0    0  501  502 -0.00000000000E+00 -0.00000000000E+00 -0.67116671568E+02  0.67116671568E+02  0.00000000000E+00 0. -1.
         25    1    1    2    0    0  0.61753227379E+02 -0.55563892323E+02  0.18719313352E+03  0.23993139948E+03  0.12500000000E+03 0.  0.
         25    1    1    2    0    0 -0.68609713226E+02 -0.85230619979E+02  0.30841423882E+03  0.35030828429E+03  0.12500000000E+03 0.  0.
         25    1    1    2    0    0  0.68564858478E+01  0.14079451230E+03  0.42835833965E+03  0.46795937136E+03  0.12500000000E+03 0.  0.
</event>
<event>
 5    0  0.5677492E-005  0.3231246E+03  0.7546771E-02  0.1074220E+00
         21   -1    0    0  502  501  0.00000000000E+00  0.00000000000E+00  0.19869576917E+03  0.19869576917E+03  0.00000000000E+00 0.  1.
         21   -1    0    0  501  502 -0.00000000000E+00 -0.00000000000E+00 -0.52547427455E+03  0.52547427455E+03  0.00000000000E+00 0.  1.
         25    1    1    2    0    0 -0.19565264615E+01 -0.64902472151E+02 -0.82383810041E+02  0.16318165045E+03  0.12500000000E+03 0.  0.
         25    1    1    2    0    0 -0.11311248250E+03  0.21112123081E+03 -0.76087350423E+02  0.28067934140E+03  0.12500000000E+03 0.  0.
         25    1    1    2    0    0  0.11506900896E+03 -0.14621875866E+03 -0.16830734491E+03  0.28030905187E+03  0.12500000000E+03 0.  0.
</event>
<event>
 5    0  0.5677492E-005  0.2609047E+03  0.7546771E-02  0.1106601E+00
         21   -1    0    0  502  501  0.00000000000E+00  0.00000000000E+00  0.72550539196E+03  0.72550539196E+03  0.00000000000E+00 0. -1.
         21   -1    0    0  501  502 -0.00000000000E+00 -0.00000000000E+00 -0.93826004568E+02  0.93826004568E+02  0.00000000000E+00 0. -1.
         25    1    1    2    0    0  0.61228077014E+02  0.84632777362E+02  0.27171192366E+03  0.31680270497E+03  0.12500000000E+03 0.  0.
         25    1    1    2    0    0  0.12250134526E+02  0.27076988815E+02  0.26904833103E+03  0.29815303713E+03  0.12500000000E+03 0.  0.
         25    1    1    2    0    0 -0.73478211540E+02 -0.11170976618E+03  0.90919132700E+02  0.20437565442E+03  0.12500000000E+03 0.  0.
</event>
<event>
 5    0  0.5677492E-005  0.2644583E+03  0.7546771E-02  0.1104494E+00
         21   -1    0    0  502  501  0.00000000000E+00  0.00000000000E+00  0.71277031690E+03  0.71277031690E+03  0.00000000000E+00 0.  1.
         21   -1    0    0  501  502 -0.00000000000E+00 -0.00000000000E+00 -0.98121615785E+02  0.98121615785E+02  0.00000000000E+00 0.  1.
         25    1    1    2    0    0 -0.51372309856E+02  0.16314233870E+02  0.14139743130E+03  0.19627404827E+03  0.12500000000E+03 0.  0.
         25    1    1    2    0    0 -0.33548870587E+02  0.44273895084E+02  0.42248271308E+03  0.44407470920E+03  0.12500000000E+03 0.  0.
         25    1    1    2    0    0  0.84921180443E+02 -0.60588128954E+02  0.50768556740E+02  0.17054317521E+03  0.12500000000E+03 0.  0.
</event>
<event>
 5    0  0.5800409E-005  0.2757486E+03  0.7546771E-02  0.1098034E+00
         21   -1    0    0  502  501  0.00000000000E+00  0.00000000000E+00  0.40163618714E+03  0.40163618714E+03  0.00000000000E+00 0.  1.
         21   -1    0    0  501  502 -0.00000000000E+00 -0.00000000000E+00 -0.18931886911E+03  0.18931886911E+03  0.00000000000E+00 0.  1.
         25    1    1    2    0    0 -0.18514367311E+02 -0.17624009176E+02 -0.54257020750E+02  0.13864419136E+03  0.12500000000E+03 0.  0.
         25    1    1    2    0    0 -0.26930393213E+02 -0.75016203852E+02  0.96910051953E+01  0.14856511199E+03  0.12500000000E+03 0.  0.
         25    1    1    2    0    0  0.45444760524E+02  0.92640213027E+02  0.25688333359E+03  0.30374575290E+03  0.12500000000E+03 0.  0.
</event>
<event>
 5    0  0.5677492E-005  0.3874068E+03  0.7546771E-02  0.1048230E+00
         21   -1    0    0  502  501  0.00000000000E+00  0.00000000000E+00  0.19637528726E+03  0.19637528726E+03  0.00000000000E+00 0. -1.
         21   -1    0    0  501  502 -0.00000000000E+00 -0.00000000000E+00 -0.76427153260E+03  0.76427153260E+03  0.00000000000E+00 0. -1.
         25    1    1    2    0    0 -0.20348949821E+03  0.23395446917E+03 -0.14460950777E+03  0.36425208203E+03  0.12500000000E+03 0.  0.
         25    1    1    2    0    0  0.13123385028E+03 -0.91234108928E+02 -0.28850443500E+03  0.35271205693E+03  0.12500000000E+03 0.  0.
         25    1    1    2    0    0  0.72255647922E+02 -0.14272036024E+03 -0.13478230258E+03  0.24368268090E+03  0.12500000000E+03 0.  0.
</event>
<event>
 5    0  0.5826685E-005  0.2584208E+03  0.7546771E-02  0.1108096E+00
         21   -1    0    0  502  501  0.00000000000E+00  0.00000000000E+00  0.14072251156E+03  0.14072251156E+03  0.00000000000E+00 0.  1.
         21   -1    0    0  501  502 -0.00000000000E+00 -0.00000000000E+00 -0.47456026603E+03  0.47456026603E+03  0.00000000000E+00 0.  1.
         25    1    1    2    0    0 -0.37116805684E+01  0.37217591241E+02  0.64019209337E+01  0.13063273044E+03  0.12500000000E+03 0.  0.
         25    1    1    2    0    0 -0.90586882373E+02 -0.87772338020E+02 -0.20846529439E+03  0.27384803367E+03  0.12500000000E+03 0.  0.
         25    1    1    2    0    0  0.94298562941E+02  0.50554746779E+02 -0.13177438101E+03  0.21080201348E+03  0.12500000000E+03 0.  0.
</event>
<event>
 5    0  0.5677492E-005  0.3042461E+03  0.7546771E-02  0.1083137E+00
         21   -1    0    0  502  501  0.00000000000E+00  0.00000000000E+00  0.67179950994E+03  0.67179950994E+03  0.00000000000E+00 0. -1.
         21   -1    0    0  501  502 -0.00000000000E+00 -0.00000000000E+00 -0.13778763443E+03  0.13778763443E+03  0.00000000000E+00 0. -1.
         25    1    1    2    0    0 -0.32804331123E+02 -0.73741877341E+02  0.23934840719E+03  0.28182733834E+03  0.12500000000E+03 0.  0.
         25    1    1    2    0    0  0.47204754432E+02  0.19588836699E+03  0.79294650764E+02  0.25002636421E+03  0.12500000000E+03 0.  0.
         25    1    1    2    0    0 -0.14400423309E+02 -0.12214648964E+03  0.21536881756E+03  0.27773344181E+03  0.12500000000E+03 0.  0.
</event>
<event>
 5    0  0.5677492E-005  0.5507206E+03  0.7546771E-02  0.1001327E+00
         21   -1    0    0  502  501  0.00000000000E+00  0.00000000000E+00  0.17558158350E+03  0.17558158350E+03  0.00000000000E+00 0.  1.
         21   -1    0    0  501  502 -0.00000000000E+00 -0.00000000000E+00 -0.17273631279E+04  0.17273631279E+04  0.00000000000E+00 0.  1.
         25    1    1    2    0    0  0.78906674151E+02 -0.67160456774E+02  0.12851579062E+02  0.16287097121E+03  0.12500000000E+03 0.  0.
         25    1    1    2    0    0  0.25606381552E+03 -0.29451060122E+02 -0.11454096411E+04  0.11806880572E+04  0.12500000000E+03 0.  0.
         25    1    1    2    0    0 -0.33497048967E+03  0.96611516895E+02 -0.41922348241E+03  0.55938568300E+03  0.12500000000E+03 0.  0.
</event>
<event>
 5    0  0.6306138E-005  0.3656725E+03  0.7546771E-02  0.1056360E+00
         21   -1    0    0  502  501  0.00000000000E+00  0.00000000000E+00  0.14763011092E+03  0.14763011092E+03  0.00000000000E+00 0. -1.
         21   -1    0    0  501  502 -0.00000000000E+00 -0.00000000000E+00 -0.90575271886E+03  0.90575271886E+03  0.00000000000E+00 0. -1.
         25    1    1    2    0    0 -0.77739377852E+02 -0.70907226529E+02 -0.48083929513E+03  0.50784118914E+03  0.12500000000E+03 0.  0.
         25    1    1    2    0    0  0.10328183494E+03  0.17033662358E+03 -0.30108760717E+03  0.38204770638E+03  0.12500000000E+03 0.  0.
         25    1    1    2    0    0 -0.25542457087E+02 -0.99429397050E+02  0.23804294364E+02  0.16349393427E+03  0.12500000000E+03 0.  0.
</event>
<event>
 5    0  0.5677492E-005  0.5681705E+03  0.7546771E-02  0.9973735E-01
         21   -1    0    0  502  501  0.00000000000E+00  0.00000000000E+00  0.61301223071E+03  0.61301223071E+03  0.00000000000E+00 0. -1.
         21   -1    0    0  501  502 -0.00000000000E+00 -0.00000000000E+00 -0.52660887821E+03  0.52660887821E+03  0.00000000000E+00 0. -1.
         25    1    1    2    0    0  0.46023107850E+03  0.57339290536E+02  0.90230865918E+01  0.48042362135E+03  0.12500000000E+03 0.  0.
         25    1    1    2    0    0  0.16649984415E+02  0.53790779084E+02  0.69653517422E+02  0.15377672901E+03  0.12500000000E+03 0.  0.
         25    1    1    2    0    0 -0.47688106292E+03 -0.11113006962E+03  0.77267484776E+01  0.50542075856E+03  0.12500000000E+03 0.  0.
</event>
<event>
 5    0  0.5982021E-005  0.2767617E+03  0.7546771E-02  0.1097471E+00
         21   -1    0    0  502  501  0.00000000000E+00  0.00000000000E+00  0.43465165103E+03  0.43465165103E+03  0.00000000000E+00 0. -1.
         21   -1    0    0  501  502 -0.00000000000E+00 -0.00000000000E+00 -0.17622630275E+03  0.17622630275E+03  0.00000000000E+00 0. -1.
         25    1    1    2    0    0 -0.72215094184E+02  0.17653744976E+02  0.39718101093E+02  0.15076207114E+03  0.12500000000E+03 0.  0.
         25    1    1    2    0    0 -0.30464136420E+02  0.13003675706E+03  0.72567209904E+02  0.19679588855E+03  0.12500000000E+03 0.  0.
         25    1    1    2    0    0  0.10267923060E+03 -0.14769050204E+03  0.14614003729E+03  0.26331999409E+03  0.12500000000E+03 0.  0.
</event>
<event>
 5    0  0.5677492E-005  0.4407175E+03  0.7546771E-02  0.1030527E+00
         21   -1    0    0  502  501  0.00000000000E+00  0.00000000000E+00  0.89711809049E+03  0.89711809049E+03  0.00000000000E+00 0.  1.
         21   -1    0    0  501  502 -0.00000000000E+00 -0.00000000000E+00 -0.21650652277E+03  0.21650652277E+03  0.00000000000E+00 0.  1.
         25    1    1    2    0    0 -0.97906049896E+02  0.20737765279E+03  0.54120658933E+03  0.60093315586E+03  0.12500000000E+03 0.  0.
         25    1    1    2    0    0  0.91897768888E+02 -0.19761671251E+03 -0.76775293005E+02  0.26271088787E+03  0.12500000000E+03 0.  0.
         25    1    1    2    0    0  0.60082810079E+01 -0.97609402780E+01  0.21618027140E+03  0.24998056952E+03  0.12500000000E+03 0.  0.
</event>
<event>
 5    0  0.5677492E-005  0.2999555E+03  0.7546771E-02  0.1085263E+00
         21   -1    0    0  502  501  0.00000000000E+00  0.00000000000E+00  0.19055977453E+03  0.19055977453E+03  0.00000000000E+00 0.  1.
         21   -1    0    0  501  502 -0.00000000000E+00 -0.00000000000E+00 -0.47215262226E+03  0.47215262226E+03  0.00000000000E+00 0.  1.
         25    1    1    2    0    0 -0.93540632721E+02 -0.13934656256E+03 -0.17334417770E+02  0.20998284812E+03  0.12500000000E+03 0.  0.
         25    1    1    2    0    0  0.12296100803E+03 -0.15862962178E+01 -0.10563032141E+03  0.20470635220E+03  0.12500000000E+03 0.  0.
         25    1    1    2    0    0 -0.29420375309E+02  0.14093285877E+03 -0.15862810855E+03  0.24802319647E+03  0.12500000000E+03 0.  0.
</event>
<event>
 5    0  0.5677492E-005  0.5009386E+03  0.7546771E-02  0.1013534E+00
         21   -1    0    0  502  501  0.00000000000E+00  0.00000000000E+00  0.43158255342E+03  0.43158255342E+03  0.00000000000E+00 0. -1.
         21   -1    0    0  501  502 -0.00000000000E+00 -0.00000000000E+00 -0.58144038719E+03  0.58144038719E+03  0.00000000000E+00 0. -1.
         25    1    1    2    0    0 -0.86657130529E+01  0.40799366072E+03  0.10124684573E+03  0.43864546680E+03  0.12500000000E+03 0.  0.
         25    1    1    2    0    0  0.60352567841E+02 -0.28294461581E+03 -0.85205710214E+02  0.32647373725E+03  0.12500000000E+03 0.  0.
         25    1    1    2    0    0 -0.51686854788E+02 -0.12504904492E+03 -0.16589896929E+03  0.24790373656E+03  0.12500000000E+03 0.  0.
</event>
<event>
 5    0  0.5677492E-005  0.6569245E+03  0.7546771E-02  0.9793872E-01
         21   -1    0    0  502  501  0.00000000000E+00  0.00000000000E+00  0.42830098483E+03  0.42830098483E+03  0.00000000000E+00 0. -1.
         21   -1    0    0  501  502 -0.00000000000E+00 -0.00000000000E+00 -0.10075853944E+04  0.10075853944E+04  0.00000000000E+00 0. -1.
         25    1    1    2    0    0  0.24335516447E+03  0.22430144118E+03  0.15772224765E+03  0.38734245829E+03  0.12500000000E+03 0.  0.
         25    1    1    2    0    0 -0.12207197214E+03 -0.38938325408E+03 -0.67846154420E+03  0.80153350018E+03  0.12500000000E+03 0.  0.
         25    1    1    2    0    0 -0.12128319233E+03  0.16508181290E+03 -0.58545112965E+02  0.24701042072E+03  0.12500000000E+03 0.  0.
</event>
<event>
 5    0  0.5677492E-005  0.2973319E+03  0.7546771E-02  0.1086582E+00
         21   -1    0    0  502  501  0.00000000000E+00  0.00000000000E+00  0.96710568527E+03  0.96710568527E+03  0.00000000000E+00 0.  1.
         21   -1    0    0  501  502 -0.00000000000E+00 -0.00000000000E+00 -0.91413225283E+02  0.91413225283E+02  0.00000000000E+00 0.  1.
         25    1    1    2    0    0 -0.96131430939E+02  0.30548641955E+02  0.14343444754E+03  0.21534370732E+03  0.12500000000E+03 0.  0.
         25    1    1    2    0    0 -0.41162719960E+02  0.75777090776E+01  0.60233053153E+02  0.14493036908E+03  0.12500000000E+03 0.  0.
         25    1    1    2    0    0  0.13729415090E+03 -0.38126351032E+02  0.67202495929E+03  0.69824483415E+03  0.12500000000E+03 0.  0.
</event>
<event>
 5    0  0.5677492E-005  0.3246559E+03  0.7546771E-02  0.1073526E+00
         21   -1    0    0  502  501  0.00000000000E+00  0.00000000000E+00  0.16736576686E+04  0.16736576686E+04  0.00000000000E+00 0. -1.
         21   -1    0    0  501  502 -0.00000000000E+00 -0.00000000000E+00 -0.62976705561E+02  0.62976705561E+02  0.00000000000E+00 0. -1.
         25    1    1    2    0    0 -0.13922891802E+03  0.12822053550E+03  0.36967684488E+03  0.43371784259E+03  0.12500000000E+03 0.  0.
         25    1    1    2    0    0  0.11315651105E+03  0.45070494748E+02  0.67980792806E+03  0.70185437560E+03  0.12500000000E+03 0.  0.
         25    1    1    2    0    0  0.26072406969E+02 -0.17329103025E+03  0.56119619007E+03  0.60106215595E+03  0.12500000000E+03 0.  0.
</event>
<event>
 5    0  0.5677492E-005  0.2628069E+03  0.7546771E-02  0.1105468E+00
         21   -1    0    0  502  501  0.00000000000E+00  0.00000000000E+00  0.22055264447E+04  0.22055264447E+04  0.00000000000E+00 0.  1.
         21   -1    0    0  501  502 -0.00000000000E+00 -0.00000000000E+00 -0.31315636438E+02  0.31315636438E+02  0.00000000000E+00 0.  1.
         25    1    1    2    0    0  0.94636959425E+02  0.81727032598E+02  0.44048640461E+03  0.47464590443E+03  0.12500000000E+03 0.  0.
         25    1    1    2    0    0 -0.10070629643E+03 -0.93738708228E+02  0.89485151140E+03  0.91395455632E+03  0.12500000000E+03 0.  0.
         25    1    1    2    0    0  0.60693370089E+01  0.12011675630E+02  0.83887289221E+03  0.84824162035E+03  0.12500000000E+03 0.  0.
</event>
<event>
 5    0  0.9220967E-005  0.3490853E+03  0.7546771E-02  0.1062991E+00
         21   -1    0    0  502  501  0.00000000000E+00  0.00000000000E+00  0.65535902869E+03  0.65535902869E+03  0.00000000000E+00 0. -1.
         21   -1    0    0  501  502 -0.00000000000E+00 -0.00000000000E+00 -0.18594474721E+03  0.18594474721E+03  0.00000000000E+00 0. -1.
         25    1    1    2    0    0  0.15257644511E+03 -0.55416977565E+02 -0.11872122903E+02  0.20522319632E+03  0.12500000000E+03 0.  0.
         25    1    1    2    0    0  0.28559889534E+02  0.34836573712E+02  0.36046692701E+03  0.38417529805E+03  0.12500000000E+03 0.  0.
         25    1    1    2    0    0 -0.18113633464E+03  0.20580403853E+02  0.12081947737E+03  0.25190528153E+03  0.12500000000E+03 0.  0.
</event>
<event>
 5    0  0.5677492E-005  0.2559629E+03  0.7546771E-02  0.1109593E+00
         21   -1    0    0  502  501  0.00000000000E+00  0.00000000000E+00  0.13382771738E+04  0.13382771738E+04  0.00000000000E+00 0.  1.
         21   -1    0    0  501  502 -0.00000000000E+00 -0.00000000000E+00 -0.48956242652E+02  0.48956242652E+02  0.00000000000E+00 0.  1.
         25    1    1    2    0    0 -0.69345724555E+01  0.68401175325E+02  0.23635974141E+03  0.27607559914E+03  0.12500000000E+03 0.  0.
         25    1    1    2    0    0 -0.93746992792E+02 -0.66870810772E+02  0.74197624528E+03  0.76119245434E+03  0.12500000000E+03 0.  0.
         25    1    1    2    0    0  0.10068156525E+03 -0.15303645525E+01  0.31098494443E+03  0.34996536294E+03  0.12500000000E+03 0.  0.
</event>
<event>
 5    0  0.6553358E-005  0.3431195E+03  0.7546771E-02  0.1065475E+00
         21   -1    0    0  502  501  0.00000000000E+00  0.00000000000E+00  0.47391155683E+03  0.47391155683E+03  0.00000000000E+00 0. -1.
         21   -1    0    0  501  502 -0.00000000000E+00 -0.00000000000E+00 -0.24842394447E+03  0.24842394447E+03  0.00000000000E+00 0. -1.
         25    1    1    2    0    0 -0.10220055187E+03 -0.15550596712E+03 -0.22507997447E+02  0.22529684543E+03  0.12500000000E+03 0.  0.
         25    1    1    2    0    0  0.11557435483E+03  0.16333436126E+03  0.20262300726E+02  0.23679338228E+03  0.12500000000E+03 0.  0.
         25    1    1    2    0    0 -0.13373802962E+02 -0.78283941366E+01  0.22773330908E+03  0.26024527359E+03  0.12500000000E+03 0.  0.
</event>
<event>
 5    0  0.6084238E-005  0.4329416E+03  0.7546771E-02  0.1032935E+00
         21   -1    0    0  502  501  0.00000000000E+00  0.00000000000E+00  0.52300764262E+03  0.52300764262E+03  0.00000000000E+00 0.  1.
         21   -1    0    0  501  502 -0.00000000000E+00 -0.00000000000E+00 -0.35838562994E+03  0.35838562994E+03  0.00000000000E+00 0.  1.
         25    1    1    2    0    0 -0.12100291757E+03  0.22332085301E+03  0.61035469042E+02  0.28959322839E+03  0.12500000000E+03 0.  0.
         25    1    1    2    0    0  0.25210679481E+03  0.12936535441E+02  0.81636948039E+02  0.29328276667E+03  0.12500000000E+03 0.  0.
         25    1    1    2    0    0 -0.13110387724E+03 -0.23625738845E+03  0.21949595598E+02  0.29851727751E+03  0.12500000000E+03 0.  0.
</event>
<event>
 5    0  0.5677492E-005  0.2133334E+03  0.7546771E-02  0.1138953E+00
         21   -1    0    0  502  501  0.00000000000E+00  0.00000000000E+00  0.76458566537E+02  0.76458566537E+02  0.00000000000E+00 0.  1.
         21   -1    0    0  501  502 -0.00000000000E+00 -0.00000000000E+00 -0.59523908308E+03  0.59523908308E+03  0.00000000000E+00 0.  1.
         25    1    1    2    0    0 -0.61978848089E+02 -0.13230405242E+02 -0.21456188904E+03  0.25627763356E+03  0.12500000000E+03 0.  0.
         25    1    1    2    0    0 -0.85860937497E+01 -0.36062956675E+02 -0.12571764900E+03  0.18111925663E+03  0.12500000000E+03 0.  0.
         25    1    1    2    0    0  0.70564941838E+02  0.49293361916E+02 -0.17850097850E+03  0.23430075943E+03  0.12500000000E+03 0.  0.
</event>
<event>
 5    0  0.6238615E-005  0.4541112E+03  0.7546771E-02  0.1026503E+00
         21   -1    0    0  502  501  0.00000000000E+00  0.00000000000E+00  0.25803753332E+03  0.25803753332E+03  0.00000000000E+00 0.  1.
         21   -1    0    0  501  502 -0.00000000000E+00 -0.00000000000E+00 -0.79917428927E+03  0.79917428927E+03  0.00000000000E+00 0.  1.
         25    1    1    2    0    0  0.15544837197E+03  0.82802713589E+02  0.48597783554E+02  0.22137576718E+03  0.12500000000E+03 0.  0.
         25    1    1    2    0    0  0.72547180026E+02 -0.81235342498E+02 -0.54794904326E+03  0.57248181474E+03  0.12500000000E+03 0.  0.
         25    1    1    2    0    0 -0.22799555200E+03 -0.15673710908E+01 -0.41785496244E+02  0.26335424067E+03  0.12500000000E+03 0.  0.
</event>
<event>
 5    0  0.5677492E-005  0.3386441E+03  0.7546771E-02  0.1067375E+00
         21   -1    0    0  502  501  0.00000000000E+00  0.00000000000E+00  0.36580921203E+03  0.36580921203E+03  0.00000000000E+00 0. -1.
         21   -1    0    0  501  502 -0.00000000000E+00 -0.00000000000E+00 -0.31349624178E+03  0.31349624178E+03  0.00000000000E+00 0. -1.
         25    1    1    2    0    0 -0.10938331821E+03  0.13711776809E+03  0.14706169493E+03  0.26080286567E+03  0.12500000000E+03 0.  0.
         25    1    1    2    0    0  0.83139026055E+01 -0.19779500488E+03 -0.73378739527E+02  0.24535978551E+03  0.12500000000E+03 0.  0.
         25    1    1    2    0    0  0.10106941561E+03  0.60677236793E+02 -0.21369985156E+02  0.17314280263E+03  0.12500000000E+03 0.  0.
</event>
<event>
 5    0  0.5677492E-005  0.2755175E+03  0.7546771E-02  0.1098163E+00
         21   -1    0    0  502  501  0.00000000000E+00  0.00000000000E+00  0.89893066518E+03  0.89893066518E+03  0.00000000000E+00 0.  1.
         21   -1    0    0  501  502 -0.00000000000E+00 -0.00000000000E+00 -0.84444651097E+02  0.84444651097E+02  0.00000000000E+00 0.  1.
         25    1    1    2    0    0 -0.10435376807E+03  0.66996261444E+02  0.28758627477E+03  0.33720775998E+03  0.12500000000E+03 0.  0.
         25    1    1    2    0    0  0.14457828812E+03 -0.50699238382E+01  0.15235822676E+03  0.24447211453E+03  0.12500000000E+03 0.  0.
         25    1    1    2    0    0 -0.40224520047E+02 -0.61926337606E+02  0.37454151256E+03  0.40169544176E+03  0.12500000000E+03 0.  0.
</event>
<event>
 5    0  0.5677492E-005  0.5176533E+03  0.7546771E-02  0.1009271E+00
         21   -1    0    0  502  501  0.00000000000E+00  0.00000000000E+00  0.17486422473E+04  0.17486422473E+04  0.00000000000E+00 0. -1.
         21   -1    0    0  501  502 -0.00000000000E+00 -0.00000000000E+00 -0.15324170769E+03  0.15324170769E+03  0.00000000000E+00 0. -1.
         25    1    1    2    0    0 -0.24219645914E+02  0.27702991322E+03  0.58639938306E+03  0.66092465570E+03  0.12500000000E+03 0.  0.
         25    1    1    2    0    0  0.17472434530E+03 -0.40445162097E+03  0.82539356971E+03  0.94393286597E+03  0.12500000000E+03 0.  0.
         25    1    1    2    0    0 -0.15050469939E+03  0.12742170775E+03  0.18360758688E+03  0.29702643334E+03  0.12500000000E+03 0.  0.
</event>
<event>
 5    0  0.5677492E-005  0.4213789E+03  0.7546771E-02  0.1036618E+00
         21   -1    0    0  502  501  0.00000000000E+00  0.00000000000E+00  0.52849098307E+03  0.52849098307E+03  0.00000000000E+00 0.  1.
         21   -1    0    0  501  502 -0.00000000000E+00 -0.00000000000E+00 -0.33597581614E+03  0.33597581614E+03  0.00000000000E+00 0.  1.
         25    1    1    2    0    0 -0.14105326335E+03 -0.22575402385E+03 -0.10897871004E+03  0.31362758429E+03  0.12500000000E+03 0.  0.
         25    1    1    2    0    0  0.46595928554E+02  0.84882100497E+02 -0.27174420289E+02  0.16043565894E+03  0.12500000000E+03 0.  0.
         25    1    1    2    0    0  0.94457334794E+02  0.14087192336E+03  0.32866829726E+03  0.39040355597E+03  0.12500000000E+03 0.  0.
</event>
<event>
 5    0  0.5677492E-005  0.3606431E+03  0.7546771E-02  0.1058330E+00
         21   -1    0    0  502  501  0.00000000000E+00  0.00000000000E+00  0.63743184659E+03  0.63743184659E+03  0.00000000000E+00 0.  1.
         21   -1    0    0  501  502 -0.00000000000E+00 -0.00000000000E+00 -0.20404286980E+03  0.20404286980E+03  0.00000000000E+00 0.  1.
         25    1    1    2    0    0  0.10814155375E+03  0.29619694067E+02  0.26293413651E+02  0.16996548334E+03  0.12500000000E+03 0.  0.
         25    1    1    2    0    0 -0.44638560880E+02 -0.24278001396E+03  0.18125673262E+03  0.33077747719E+03  0.12500000000E+03 0.  0.
         25    1    1    2    0    0 -0.63502992870E+02  0.21316031990E+03  0.22583883052E+03  0.34073175586E+03  0.12500000000E+03 0.  0.
</event>
<event>
 5    0  0.5677492E-005  0.4206544E+03  0.7546771E-02  0.1036854E+00
         21   -1    0    0  502  501  0.00000000000E+00  0.00000000000E+00  0.44637629318E+03  0.44637629318E+03  0.00000000000E+00 0. -1.
         21   -1    0    0  501  502 -0.00000000000E+00 -0.00000000000E+00 -0.39641471323E+03  0.39641471323E+03  0.00000000000E+00 0. -1.
         25    1    1    2    0    0 -0.18182195628E+03  0.29518275996E+03 -0.11926824881E+02  0.36872663955E+03  0.12500000000E+03 0.  0.
         25    1    1    2    0    0  0.30887403764E+02 -0.22451951492E+03  0.60212057263E+02  0.26573207584E+03  0.12500000000E+03 0.  0.
         25    1    1    2    0    0  0.15093455252E+03 -0.70663245034E+02  0.16763475673E+01  0.20833229102E+03  0.12500000000E+03 0.  0.
</event>
<event>
 5    0  0.5677492E-005  0.3415538E+03  0.7546771E-02  0.1066136E+00
         21   -1    0    0  502  501  0.00000000000E+00  0.00000000000E+00  0.14743086594E+04  0.14743086594E+04  0.00000000000E+00 0. -1.
         21   -1    0    0  501  502 -0.00000000000E+00 -0.00000000000E+00 -0.79127912772E+02  0.79127912772E+02  0.00000000000E+00 0. -1.
         25    1    1    2    0    0  0.27459445965E+03 -0.54662695666E+01  0.52325322662E+03  0.60402892029E+03  0.12500000000E+03 0.  0.
         25    1    1    2    0    0 -0.16143888047E+03 -0.17678257721E+02  0.45122801268E+03  0.49558728026E+03  0.12500000000E+03 0.  0.
         25    1    1    2    0    0 -0.11315557918E+03  0.23144527288E+02  0.42069950737E+03  0.45382037167E+03  0.12500000000E+03 0.  0.
</event>
<event>
 5    0  0.5677492E-005  0.2730159E+03  0.7546771E-02  0.1099566E+00
         21   -1    0    0  502  501  0.00000000000E+00  0.00000000000E+00  0.11612553200E+03  0.11612553200E+03  0.00000000000E+00 0.  1.
         21   -1    0    0  501  502 -0.00000000000E+00 -0.00000000000E+00 -0.64187140462E+03  0.64187140462E+03  0.00000000000E+00 0.  1.
         25    1    1    2    0    0 -0.11769731961E+03  0.74740124951E+02 -0.32499536698E+03  0.37508096977E+03  0.12500000000E+03 0.  0.
         25    1    1    2    0    0  0.10374512912E+03 -0.71049234366E+02 -0.45445568416E+02  0.18303372697E+03  0.12500000000E+03 0.  0.
         25    1    1    2    0    0  0.13952190487E+02 -0.36908905850E+01 -0.15530493722E+03  0.19988223988E+03  0.12500000000E+03 0.  0.
</event>
<event>
 5    0  0.5677492E-005  0.2779302E+03  0.7546771E-02  0.1096825E+00
         21   -1    0    0  502  501  0.00000000000E+00  0.00000000000E+00  0.93776591198E+03  0.93776591198E+03  0.00000000000E+00 0.  1.
         21   -1    0    0  501  502 -0.00000000000E+00 -0.00000000000E+00 -0.82371491685E+02  0.82371491685E+02  0.00000000000E+00 0.  1.
         25    1    1    2    0    0 -0.35321667830E+02 -0.11641005845E+03  0.27547808966E+03  0.32605536310E+03  0.12500000000E+03 0.  0.
         25    1    1    2    0    0  0.91471711117E+02  0.17358838426E+03  0.36602065014E+03  0.43370049275E+03  0.12500000000E+03 0.  0.
         25    1    1    2    0    0 -0.56150043287E+02 -0.57178325813E+02  0.21389568050E+03  0.26038154781E+03  0.12500000000E+03 0.  0.
</event>
<event>
 5    0  0.6501710E-005  0.3353375E+03  0.7546771E-02  0.1068799E+00
         21   -1    0    0  502  501  0.00000000000E+00  0.00000000000E+00  0.71501907421E+03  0.71501907421E+03  0.00000000000E+00 0.  1.
         21   -1    0    0  501  502 -0.00000000000E+00 -0.00000000000E+00 -0.15727029281E+03  0.15727029281E+03  0.00000000000E+00 0.  1.
         25    1    1    2    0    0  0.11256229219E+03 -0.18899230879E+03  0.43549010927E+03  0.50365166303E+03  0.12500000000E+03 0.  0.
         25    1    1    2    0    0 -0.95238669853E+02  0.62816746261E+02  0.63546143213E+02  0.18077461150E+03  0.12500000000E+03 0.  0.
         25    1    1    2    0    0 -0.17323622334E+02  0.12617556252E+03  0.58712528923E+02  0.18786309249E+03  0.12500000000E+03 0.  0.
</event>
<event>
 5    0  0.5677492E-005  0.2287632E+03  0.7546771E-02  0.1127513E+00
         21   -1    0    0  502  501  0.00000000000E+00  0.00000000000E+00  0.16364934806E+03  0.16364934806E+03  0.00000000000E+00 0.  1.
         21   -1    0    0  501  502 -0.00000000000E+00 -0.00000000000E+00 -0.31978495312E+03  0.31978495312E+03  0.00000000000E+00 0.  1.
         25    1    1    2    0    0 -0.22037667326E+02 -0.59446924333E+02 -0.10009356748E+03  0.17223042079E+03  0.12500000000E+03 0.  0.
         25    1    1    2    0    0  0.57471683954E+02  0.81688037467E+02 -0.77280789623E+02  0.17768863319E+03  0.12500000000E+03 0.  0.
         25    1    1    2    0    0 -0.35434016628E+02 -0.22241113134E+02  0.21238752046E+02  0.13351524721E+03  0.12500000000E+03 0.  0.
</event>
<event>
 5    0  0.5677492E-005  0.3591201E+03  0.7546771E-02  0.1058933E+00
         21   -1    0    0  502  501  0.00000000000E+00  0.00000000000E+00  0.25148463148E+03  0.25148463148E+03  0.00000000000E+00 0.  1.
         21   -1    0    0  501  502 -0.00000000000E+00 -0.00000000000E+00 -0.51282348801E+03  0.51282348801E+03  0.00000000000E+00 0.  1.
         25    1    1    2    0    0 -0.19304393245E+03  0.18855577579E+02 -0.10538393099E+03  0.25367748337E+03  0.12500000000E+03 0.  0.
         25    1    1    2    0    0  0.24266723292E+03 -0.51361763795E+02 -0.22363788913E+03  0.35660106866E+03  0.12500000000E+03 0.  0.
         25    1    1    2    0    0 -0.49623300474E+02  0.32506186216E+02  0.67682963584E+02  0.15402956746E+03  0.12500000000E+03 0.  0.
</event>
<event>
 5    0  0.5677492E-005  0.4368207E+03  0.7546771E-02  0.1031727E+00
         21   -1    0    0  502  501  0.00000000000E+00  0.00000000000E+00  0.41574404115E+03  0.41574404115E+03  0.00000000000E+00 0.  1.
         21   -1    0    0  501  502 -0.00000000000E+00 -0.00000000000E+00 -0.45896578443E+03  0.45896578443E+03  0.00000000000E+00 0.  1.
         25    1    1    2    0    0  0.40909789351E+02  0.21199691213E+03  0.22557272073E+01  0.24949226425E+03  0.12500000000E+03 0.  0.
         25    1    1    2    0    0  0.21315461935E+03  0.27786307229E+02 -0.52367976951E+02  0.25411488668E+03  0.12500000000E+03 0.  0.
         25    1    1    2    0    0 -0.25406440870E+03 -0.23978321936E+03  0.68905064679E+01  0.37110267465E+03  0.12500000000E+03 0.  0.
</event>
<event>
 5    0  0.5677492E-005  0.3041758E+03  0.7546771E-02  0.1083172E+00
         21   -1    0    0  502  501  0.00000000000E+00  0.00000000000E+00  0.14397910508E+03  0.14397910508E+03  0.00000000000E+00 0.  1.
         21   -1    0    0  501  502 -0.00000000000E+00 -0.00000000000E+00 -0.64261350326E+03  0.64261350326E+03  0.00000000000E+00 0.  1.
         25    1    1    2    0    0 -0.15602737716E+03 -0.20357466577E+02 -0.16784278056E+03  0.26183041812E+03  0.12500000000E+03 0.  0.
         25    1    1    2    0    0  0.24161402798E+02  0.10355240073E+03 -0.26985944610E+03  0.31584172260E+03  0.12500000000E+03 0.  0.
         25    1    1    2    0    0  0.13186597436E+03 -0.83194934156E+02 -0.60932171519E+02  0.20892046762E+03  0.12500000000E+03 0.  0.
</event>
<event>
 5    0  0.5677492E-005  0.3559621E+03  0.7546771E-02  0.1060194E+00
         21   -1    0    0  502  501  0.00000000000E+00  0.00000000000E+00  0.77841864649E+02  0.77841864649E+02  0.00000000000E+00 0.  1.
         21   -1    0    0  501  502 -0.00000000000E+00 -0.00000000000E+00 -0.16277744293E+04  0.16277744293E+04  0.00000000000E+00 0.  1.
         25    1    1    2    0    0  0.53905304044E+02 -0.16099381899E+03 -0.82224667648E+03  0.84884591566E+03  0.12500000000E+03 0.  0.
         25    1    1    2    0    0 -0.18307139891E+03  0.13664021649E+03 -0.33577380734E+03  0.42491732791E+03  0.12500000000E+03 0.  0.
         25    1    1    2    0    0  0.12916609487E+03  0.24353602496E+02 -0.39191208084E+03  0.43185305038E+03  0.12500000000E+03 0.  0.
</event>
<event>
 5    0  0.5677492E-005  0.3573451E+03  0.7546771E-02  0.1059640E+00
         21   -1    0    0  502  501  0.00000000000E+00  0.00000000000E+00  0.51900375537E+03  0.51900375537E+03  0.00000000000E+00 0.  1.
         21   -1    0    0  501  502 -0.00000000000E+00 -0.00000000000E+00 -0.24603962512E+03  0.24603962512E+03  0.00000000000E+00 0.  1.
         25    1    1    2    0    0  0.26595487804E+02  0.16680408968E+03  0.12246119404E+03  0.24321321582E+03  0.12500000000E+03 0.  0.
         25    1    1    2    0    0 -0.64255124046E+02 -0.26043138719E+03 -0.81419183110E+01  0.29604817046E+03  0.12500000000E+03 0.  0.
         25    1    1    2    0    0  0.37659636242E+02  0.93627297511E+02  0.15864485452E+03  0.22578199420E+03  0.12500000000E+03 0.  0.
</event>
<event>
 5    0  0.5677492E-005  0.4622265E+03  0.7546771E-02  0.1024137E+00
         21   -1    0    0  502  501  0.00000000000E+00  0.00000000000E+00  0.13194658296E+03  0.13194658296E+03  0.00000000000E+00 0.  1.
         21   -1    0    0  501  502 -0.00000000000E+00 -0.00000000000E+00 -0.16192413694E+04  0.16192413694E+04  0.00000000000E+00 0.  1.
         25    1    1    2    0    0  0.32791567849E+02  0.15995011669E+03 -0.14466395274E+03  0.25141993949E+03  0.12500000000E+03 0.  0.
         25    1    1    2    0    0 -0.23534622126E+03 -0.21471345551E+03 -0.40196395117E+03  0.52791072150E+03  0.12500000000E+03 0.  0.
         25    1    1    2    0    0  0.20255465341E+03  0.54763338826E+02 -0.94066688251E+03  0.97185729135E+03  0.12500000000E+03 0.  0.
</event>
<event>
 5    0  0.5677492E-005  0.2135645E+03  0.7546771E-02  0.1138774E+00
         21   -1    0    0  502  501  0.00000000000E+00  0.00000000000E+00  0.19336671546E+04  0.19336671546E+04  0.00000000000E+00 0.  1.
         21   -1    0    0  501  502 -0.00000000000E+00 -0.00000000000E+00 -0.23587209856E+02  0.23587209856E+02  0.00000000000E+00 0.  1.
         25    1    1    2    0    0  0.38887997570E+02 -0.72605590921E+02  0.73484617659E+03  0.74993849844E+03  0.12500000000E+03 0.  0.
         25    1    1    2    0    0 -0.47607942003E+02  0.33504701579E+02  0.46339899204E+03  0.48347978965E+03  0.12500000000E+03 0.  0.
         25    1    1    2    0    0  0.87199444326E+01  0.39100889342E+02  0.71183477613E+03  0.72383607639E+03  0.12500000000E+03 0.  0.
</event>
<event>
 5    0  0.5677492E-005  0.4331317E+03  0.7546771E-02  0.1032875E+00
         21   -1    0    0  502  501  0.00000000000E+00  0.00000000000E+00  0.64500799474E+03  0.64500799474E+03  0.00000000000E+00 0.  1.
         21   -1    0    0  501  502 -0.00000000000E+00 -0.00000000000E+00 -0.29085382383E+03  0.29085382383E+03  0.00000000000E+00 0.  1.
         25    1    1    2    0    0  0.24655695753E+03  0.10556525897E+03  0.69690357973E+02  0.30400016974E+03  0.12500000000E+03 0.  0.
         25    1    1    2    0    0 -0.75673473762E+02  0.16486673598E+03  0.12357014229E+03  0.25259076652E+03  0.12500000000E+03 0.  0.
         25    1    1    2    0    0 -0.17088348377E+03 -0.27043199495E+03  0.16089367065E+03  0.37927088232E+03  0.12500000000E+03 0.  0.
</event>
<event>
 5    0  0.5677492E-005  0.2148391E+03  0.7546771E-02  0.1137790E+00
         21   -1    0    0  502  501  0.00000000000E+00  0.00000000000E+00  0.10419941920E+03  0.10419941920E+03  0.00000000000E+00 0.  1.
         21   -1    0    0  501  502 -0.00000000000E+00 -0.00000000000E+00 -0.44295680805E+03  0.44295680805E+03  0.00000000000E+00 0.  1.
         25    1    1    2    0    0  0.58157837215E+02 -0.48763748501E+02 -0.16478727568E+03  0.22031814139E+03  0.12500000000E+03 0.  0.
         25    1    1    2    0    0 -0.68066798792E+02  0.78030015036E+01 -0.11100479477E+03  0.18066831596E+03  0.12500000000E+03 0.  0.
         25    1    1    2    0    0  0.99089615766E+01  0.40960746997E+02 -0.62965318391E+02  0.14616976991E+03  0.12500000000E+03 0.  0.
</event>
<event>
 5    0  0.6029627E-005  0.2539806E+03  0.7546771E-02  0.1110815E+00
         21   -1    0    0  502  501  0.00000000000E+00  0.00000000000E+00  0.43748340104E+03  0.43748340104E+03  0.00000000000E+00 0. -1.
         21   -1    0    0  501  502 -0.00000000000E+00 -0.00000000000E+00 -0.14744815808E+03  0.14744815808E+03  0.00000000000E+00 0. -1.
         25    1    1    2    0    0  0.34105870105E+02  0.15678188676E+03  0.10421429094E+03  0.22853749983E+03  0.12500000000E+03 0.  0.
         25    1    1    2    0    0 -0.42995914569E+02 -0.10246230196E+03  0.94578453329E+02  0.19213863700E+03  0.12500000000E+03 0.  0.
         25    1    1    2    0    0  0.88900444646E+01 -0.54319584803E+02  0.91242498694E+02  0.16425542229E+03  0.12500000000E+03 0.  0.
</event>
<event>
 5    0  0.5677492E-005  0.2735592E+03  0.7546771E-02  0.1099260E+00
         21   -1    0    0  502  501  0.00000000000E+00  0.00000000000E+00  0.12339783844E+04  0.12339783844E+04  0.00000000000E+00 0.  1.
         21   -1    0    0  501  502 -0.00000000000E+00 -0.00000000000E+00 -0.60645004626E+02  0.60645004626E+02  0.00000000000E+00 0.  1.
         25    1    1    2    0    0  0.24337050582E+01 -0.37715191166E+02  0.18746229641E+03  0.22846328182E+03  0.12500000000E+03 0.  0.
         25    1    1    2    0    0 -0.13300224535E+03  0.42190750859E+02  0.72459907853E+03  0.74842399837E+03  0.12500000000E+03 0.  0.
         25    1    1    2    0    0  0.13056854029E+03 -0.44755596924E+01  0.26127200481E+03  0.31773610882E+03  0.12500000000E+03 0.  0.
</event>
<event>
 5    0  0.6431173E-005  0.3067496E+03  0.7546771E-02  0.1081914E+00
         21   -1    0    0  502  501  0.00000000000E+00  0.00000000000E+00  0.17967242923E+03  0.17967242923E+03  0.00000000000E+00 0.  1.
         21   -1    0    0  501  502 -0.00000000000E+00 -0.00000000000E+00 -0.52370468715E+03  0.52370468715E+03  0.00000000000E+00 0.  1.
         25    1    1    2    0    0  0.26138612829E+02 -0.13490923908E+03 -0.95498148843E+02  0.20887466649E+03  0.12500000000E+03 0.  0.
         25    1    1    2    0    0 -0.73281450171E+02  0.13285887119E+03  0.16925594265E+02  0.19731478995E+03  0.12500000000E+03 0.  0.
         25    1    1    2    0    0  0.47142837342E+02  0.20503678889E+01 -0.26545970334E+03  0.29718765994E+03  0.12500000000E+03 0.  0.
</event>
<event>
 5    0  0.5677492E-005  0.2711632E+03  0.7546771E-02  0.1100616E+00
         21   -1    0    0  502  501  0.00000000000E+00  0.00000000000E+00  0.67728447479E+02  0.67728447479E+02  0.00000000000E+00 0.  1.
         21   -1    0    0  501  502 -0.00000000000E+00 -0.00000000000E+00 -0.10856513174E+04  0.10856513174E+04  0.00000000000E+00 0.  1.
         25    1    1    2    0    0  0.10545375478E+03 -0.19730028268E+02 -0.29555350188E+03  0.33835874584E+03  0.12500000000E+03 0.  0.
         25    1    1    2    0    0 -0.97324210140E+02 -0.10668954967E+03 -0.45906538516E+03  0.49721292193E+03  0.12500000000E+03 0.  0.
         25    1    1    2    0    0 -0.81295446406E+01  0.12641957794E+03 -0.26330398287E+03  0.31780809709E+03  0.12500000000E+03 0.  0.
</event>
<event>
 5    0  0.5677492E-005  0.3388455E+03  0.7546771E-02  0.1067289E+00
         21   -1    0    0  502  501  0.00000000000E+00  0.00000000000E+00  0.29879397852E+03  0.29879397852E+03  0.00000000000E+00 0.  1.
         21   -1    0    0  501  502 -0.00000000000E+00 -0.00000000000E+00 -0.38426571727E+03  0.38426571727E+03  0.00000000000E+00 0.  1.
         25    1    1    2    0    0 -0.10655211187E+02  0.22199404639E+02 -0.11360234938E+03  0.17069516946E+03  0.12500000000E+03 0.  0.
         25    1    1    2    0    0 -0.16441599354E+03 -0.73693198713E+02  0.14431200972E+03  0.26251526168E+03  0.12500000000E+03 0.  0.
         25    1    1    2    0    0  0.17507120472E+03  0.51493794073E+02 -0.11618139909E+03  0.24984926465E+03  0.12500000000E+03 0.  0.
</event>
<event>
 5    0  0.5677492E-005  0.2791898E+03  0.7546771E-02  0.1096132E+00
         21   -1    0    0  502  501  0.00000000000E+00  0.00000000000E+00  0.24311241989E+03  0.24311241989E+03  0.00000000000E+00 0. -1.
         21   -1    0    0  501  502 -0.00000000000E+00 -0.00000000000E+00 -0.32062104252E+03  0.32062104252E+03  0.00000000000E+00 0. -1.
         25    1    1    2    0    0  0.15499464579E+02  0.91156370494E+02 -0.37198182379E+02  0.15987001613E+03  0.12500000000E+03 0.  0.
         25    1    1    2    0    0 -0.15207887639E+03 -0.89052959663E+02 -0.10473235726E+02  0.21631713509E+03  0.12500000000E+03 0.  0.
         25    1    1    2    0    0  0.13657941181E+03 -0.21034108312E+01 -0.29837204519E+02  0.18754631119E+03  0.12500000000E+03 0.  0.
</event>
<event>
 5    0  0.5677492E-005  0.3866475E+03  0.7546771E-02  0.1048504E+00
         21   -1    0    0  502  501  0.00000000000E+00  0.00000000000E+00  0.12947676378E+04  0.12947676378E+04  0.00000000000E+00 0. -1.
         21   -1    0    0  501  502 -0.00000000000E+00 -0.00000000000E+00 -0.11546186636E+03  0.11546186636E+03  0.00000000000E+00 0. -1.
         25    1    1    2    0    0 -0.15887719969E+03  0.56316274791E+02  0.27158864177E+03  0.34321841111E+03  0.12500000000E+03 0.  0.
         25    1    1    2    0    0  0.25922122231E+03 -0.90912684740E+02  0.25841365950E+03  0.39732024584E+03  0.12500000000E+03 0.  0.
         25    1    1    2    0    0 -0.10034402262E+03  0.34596409949E+02  0.64930347013E+03  0.66969084717E+03  0.12500000000E+03 0.  0.
</event>
<event>
 5    0  0.5677492E-005  0.2279721E+03  0.7546771E-02  0.1128075E+00
         21   -1    0    0  502  501  0.00000000000E+00  0.00000000000E+00  0.19493896491E+03  0.19493896491E+03  0.00000000000E+00 0.  1.
         21   -1    0    0  501  502 -0.00000000000E+00 -0.00000000000E+00 -0.26660291511E+03  0.26660291511E+03  0.00000000000E+00 0.  1.
         25    1    1    2    0    0 -0.76579458149E+02  0.45916166459E+02 -0.55173483218E+02  0.16322322446E+03  0.12500000000E+03 0.  0.
         25    1    1    2    0    0  0.44367524825E+02  0.39098577739E+02 -0.35017868721E+02  0.14264791330E+03  0.12500000000E+03 0.  0.
         25    1    1    2    0    0  0.32211933324E+02 -0.85014744197E+02  0.18527401731E+02  0.15567074226E+03  0.12500000000E+03 0.  0.
</event>
<event>
 5    0  0.5677492E-005  0.3528153E+03  0.7546771E-02  0.1061465E+00
         21   -1    0    0  502  501  0.00000000000E+00  0.00000000000E+00  0.68353968911E+03  0.68353968911E+03  0.00000000000E+00 0.  1.
         21   -1    0    0  501  502 -0.00000000000E+00 -0.00000000000E+00 -0.18210883011E+03  0.18210883011E+03  0.00000000000E+00 0.  1.
         25    1    1    2    0    0  0.22397394451E+03  0.25882737409E+02  0.18893175104E+03  0.31961609857E+03  0.12500000000E+03 0.  0.
         25    1    1    2    0    0 -0.62489059459E+02  0.12972643523E+03  0.14381747157E+03  0.23883528985E+03  0.12500000000E+03 0.  0.
         25    1    1    2    0    0 -0.16148488505E+03 -0.15560917264E+03  0.16868163639E+03  0.30719713079E+03  0.12500000000E+03 0.  0.
</event>
<event>
 5    0  0.5677492E-005  0.2340200E+03  0.7546771E-02  0.1123842E+00
         21   -1    0    0  502  501  0.00000000000E+00  0.00000000000E+00  0.17179730214E+04  0.17179730214E+04  0.00000000000E+00 0. -1.
         21   -1    0    0  501  502 -0.00000000000E+00 -0.00000000000E+00 -0.31877899971E+02  0.31877899971E+02  0.00000000000E+00 0. -1.
         25    1    1    2    0    0 -0.19467713594E+02 -0.48709198533E+02  0.51734139720E+03  0.53480716072E+03  0.12500000000E+03 0.  0.
         25    1    1    2    0    0  0.82175900440E+02  0.80864552329E+02  0.42847824927E+03  0.46098868157E+03  0.12500000000E+03 0.  0.
         25    1    1    2    0    0 -0.62708186846E+02 -0.32155353796E+02  0.74027547494E+03  0.75405507907E+03  0.12500000000E+03 0.  0.
</event>
<event>
 5    0  0.5677492E-005  0.2427255E+03  0.7546771E-02  0.1117990E+00
         21   -1    0    0  502  501  0.00000000000E+00  0.00000000000E+00  0.53551872214E+03  0.53551872214E+03  0.00000000000E+00 0.  1.
         21   -1    0    0  501  502 -0.00000000000E+00 -0.00000000000E+00 -0.11001607062E+03  0.11001607062E+03  0.00000000000E+00 0.  1.
         25    1    1    2    0    0  0.78848430703E+02 -0.37693056159E+02  0.18823719868E+03  0.24227274810E+03  0.12500000000E+03 0.  0.
         25    1    1    2    0    0  0.10754709132E+02 -0.41860584132E+02  0.34625110615E+02  0.13671821590E+03  0.12500000000E+03 0.  0.
         25    1    1    2    0    0 -0.89603139835E+02  0.79553640291E+02  0.20264034222E+03  0.26654382876E+03  0.12500000000E+03 0.  0.
</event>
<event>
 5    0  0.5677492E-005  0.2338163E+03  0.7546771E-02  0.1123982E+00
         21   -1    0    0  502  501  0.00000000000E+00  0.00000000000E+00  0.81391318178E+02  0.81391318178E+02  0.00000000000E+00 0. -1.
         21   -1    0    0  501  502 -0.00000000000E+00 -0.00000000000E+00 -0.67169410094E+03  0.67169410094E+03  0.00000000000E+00 0. -1.
         25    1    1    2    0    0 -0.58041692295E+02  0.69224527860E+02 -0.87763777816E+02  0.17744958157E+03  0.12500000000E+03 0.  0.
         25    1    1    2    0    0  0.73002752654E+02 -0.27857664554E+02 -0.24279683424E+03  0.28404357779E+03  0.12500000000E+03 0.  0.
         25    1    1    2    0    0 -0.14961060359E+02 -0.41366863306E+02 -0.25974217071E+03  0.29159225976E+03  0.12500000000E+03 0.  0.
</event>
<event>
 5    0  0.5677492E-005  0.6287811E+03  0.7546771E-02  0.9847430E-01
         21   -1    0    0  502  501  0.00000000000E+00  0.00000000000E+00  0.16272218975E+03  0.16272218975E+03  0.00000000000E+00 0. -1.
         21   -1    0    0  501  502 -0.00000000000E+00 -0.00000000000E+00 -0.24296974393E+04  0.24296974393E+04  0.00000000000E+00 0. -1.
         25    1    1    2    0    0  0.22052985785E+03 -0.10304654200E+03 -0.11036755052E+03  0.29505593407E+03  0.12500000000E+03 0.  0.
         25    1    1    2    0    0 -0.21569431276E+03 -0.23268895775E+03 -0.51892826336E+03  0.62095066642E+03  0.12500000000E+03 0.  0.
         25    1    1    2    0    0 -0.48355450860E+01  0.33573549975E+03 -0.16376794357E+04  0.16764130286E+04  0.12500000000E+03 0.  0.
</event>
<event>
 5    0  0.5677492E-005  0.2070075E+03  0.7546771E-02  0.1143958E+00
         21   -1    0    0  502  501  0.00000000000E+00  0.00000000000E+00  0.56863948632E+02  0.56863948632E+02  0.00000000000E+00 0.  1.
         21   -1    0    0  501  502 -0.00000000000E+00 -0.00000000000E+00 -0.75358983453E+03  0.75358983453E+03  0.00000000000E+00 0.  1.
         25    1    1    2    0    0  0.46035054222E+02 -0.17847780008E+02 -0.16903228266E+03  0.21595064726E+03  0.12500000000E+03 0.  0.
         25    1    1    2    0    0 -0.67875514251E+02 -0.13992889994E+02 -0.28167367140E+03  0.31586063947E+03  0.12500000000E+03 0.  0.
         25    1    1    2    0    0  0.21840460029E+02  0.31840670003E+02 -0.24601993183E+03  0.27864249644E+03  0.12500000000E+03 0.  0.
</event>
<event>
 5    0  0.5936908E-005  0.3023893E+03  0.7546771E-02  0.1084052E+00
         21   -1    0    0  502  501  0.00000000000E+00  0.00000000000E+00  0.48494174823E+03  0.48494174823E+03  0.00000000000E+00 0.  1.
         21   -1    0    0  501  502 -0.00000000000E+00 -0.00000000000E+00 -0.18855731476E+03  0.18855731476E+03  0.00000000000E+00 0.  1.
         25    1    1    2    0    0 -0.34254381507E+02  0.15802853385E+02  0.20559766289E+03  0.24355387866E+03  0.12500000000E+03 0.  0.
         25    1    1    2    0    0 -0.14194443689E+03  0.40632904148E+02  0.14531925818E+02  0.19399853848E+03  0.12500000000E+03 0.  0.
         25    1    1    2    0    0  0.17619881840E+03 -0.56435757532E+02  0.76254844771E+02  0.23594664584E+03  0.12500000000E+03 0.  0.
</event>
<event>
 5    0  0.5677492E-005  0.3385372E+03  0.7546771E-02  0.1067421E+00
         21   -1    0    0  502  501  0.00000000000E+00  0.00000000000E+00  0.15970802514E+04  0.15970802514E+04  0.00000000000E+00 0.  1.
         21   -1    0    0  501  502 -0.00000000000E+00 -0.00000000000E+00 -0.71760604455E+02  0.71760604455E+02  0.00000000000E+00 0.  1.
         25    1    1    2    0    0  0.22096972069E+03  0.23860192530E+02  0.39763948143E+03  0.47237599795E+03  0.12500000000E+03 0.  0.
         25    1    1    2    0    0 -0.23304045832E+03 -0.45377979437E+02  0.84053626066E+03  0.88232262904E+03  0.12500000000E+03 0.  0.
         25    1    1    2    0    0  0.12070737639E+02  0.21517786907E+02  0.28714390486E+03  0.31414222887E+03  0.12500000000E+03 0.  0.
</event>
<event>
 5    0  0.5677492E-005  0.2310682E+03  0.7546771E-02  0.1125890E+00
         21   -1    0    0  502  501  0.00000000000E+00  0.00000000000E+00  0.85381983268E+02  0.85381983268E+02  0.00000000000E+00 0. -1.
         21   -1    0    0  501  502 -0.00000000000E+00 -0.00000000000E+00 -0.62533692328E+03  0.62533692328E+03  0.00000000000E+00 0. -1.
         25    1    1    2    0    0 -0.10147693872E+03 -0.20753093890E+02 -0.24400095210E+03  0.29306948771E+03  0.12500000000E+03 0.  0.
         25    1    1    2    0    0  0.91000443495E+02  0.32545861593E+02 -0.10805176206E+03  0.19141707632E+03  0.12500000000E+03 0.  0.
         25    1    1    2    0    0  0.10476495228E+02 -0.11792767703E+02 -0.18790222585E+03  0.22623234252E+03  0.12500000000E+03 0.  0.
</event>
<event>
 5    0  0.5677492E-005  0.2576886E+03  0.7546771E-02  0.1108540E+00
         21   -1    0    0  502  501  0.00000000000E+00  0.00000000000E+00  0.49927922112E+03  0.49927922112E+03  0.00000000000E+00 0.  1.
         21   -1    0    0  501  502 -0.00000000000E+00 -0.00000000000E+00 -0.13299853003E+03  0.13299853003E+03  0.00000000000E+00 0.  1.
         25    1    1    2    0    0 -0.95408677742E+02 -0.49039861613E+02  0.56184601426E+02  0.17403859702E+03  0.12500000000E+03 0.  0.
         25    1    1    2    0    0  0.56305256173E+02  0.68327310579E+02  0.41361153629E+02  0.15866520814E+03  0.12500000000E+03 0.  0.
         25    1    1    2    0    0  0.39103421570E+02 -0.19287448966E+02  0.26873493604E+03  0.29957394599E+03  0.12500000000E+03 0.  0.
</event>
<event>
 5    0  0.5677492E-005  0.4456777E+03  0.7546771E-02  0.1029019E+00
         21   -1    0    0  502  501  0.00000000000E+00  0.00000000000E+00  0.19577038020E+04  0.19577038020E+04  0.00000000000E+00 0.  1.
         21   -1    0    0  501  502 -0.00000000000E+00 -0.00000000000E+00 -0.10145998272E+03  0.10145998272E+03  0.00000000000E+00 0.  1.
         25    1    1    2    0    0  0.28637041903E+03  0.12082547566E+02  0.60110284678E+03  0.67757186871E+03  0.12500000000E+03 0.  0.
         25    1    1    2    0    0 -0.25273120894E+03  0.14098935249E+03  0.43444457193E+03  0.53676638081E+03  0.12500000000E+03 0.  0.
         25    1    1    2    0    0 -0.33639210093E+02 -0.15307190006E+03  0.82069640058E+03  0.84482553522E+03  0.12500000000E+03 0.  0.
</event>
<event>
 5    0  0.5677492E-005  0.2969339E+03  0.7546771E-02  0.1086783E+00
         21   -1    0    0  502  501  0.00000000000E+00  0.00000000000E+00  0.18139677174E+03  0.18139677174E+03  0.00000000000E+00 0.  1.
         21   -1    0    0  501  502 -0.00000000000E+00 -0.00000000000E+00 -0.48606003806E+03  0.48606003806E+03  0.00000000000E+00 0.  1.
         25    1    1    2    0    0 -0.11970982110E+02 -0.56700683047E+02  0.36491795184E+02  0.14253042828E+03  0.12500000000E+03 0.  0.
         25    1    1    2    0    0 -0.65462082178E+01  0.18016531191E+03 -0.22012885836E+03  0.31077983644E+03  0.12500000000E+03 0.  0.
         25    1    1    2    0    0  0.18517190328E+02 -0.12346462886E+03 -0.12102620315E+03  0.21414654507E+03  0.12500000000E+03 0.  0.
</event>
<event>
 5    0  0.5677492E-005  0.2270661E+03  0.7546771E-02  0.1128722E+00
         21   -1    0    0  502  501  0.00000000000E+00  0.00000000000E+00  0.10727683231E+03  0.10727683231E+03  0.00000000000E+00 0. -1.
         21   -1    0    0  501  502 -0.00000000000E+00 -0.00000000000E+00 -0.48061642204E+03  0.48061642204E+03  0.00000000000E+00 0. -1.
         25    1    1    2    0    0  0.52481902180E+01 -0.36081048987E+02 -0.19421808008E+03  0.23382696215E+03  0.12500000000E+03 0.  0.
         25    1    1    2    0    0 -0.64169968851E+02 -0.23565178279E+02 -0.13727203093E+03  0.19784264709E+03  0.12500000000E+03 0.  0.
         25    1    1    2    0    0  0.58921778633E+02  0.59646227266E+02 -0.41849478718E+02  0.15622364512E+03  0.12500000000E+03 0.  0.
</event>
<event>
 5    0  0.5677492E-005  0.2693352E+03  0.7546771E-02  0.1101661E+00
         21   -1    0    0  502  501  0.00000000000E+00  0.00000000000E+00  0.21494879969E+03  0.21494879969E+03  0.00000000000E+00 0. -1.
         21   -1    0    0  501  502 -0.00000000000E+00 -0.00000000000E+00 -0.33748239300E+03  0.33748239300E+03  0.00000000000E+00 0. -1.
         25    1    1    2    0    0  0.11786992704E+02 -0.42450544676E+02 -0.12130596580E+03  0.17966947231E+03  0.12500000000E+03 0.  0.
         25    1    1    2    0    0 -0.13598787553E+03  0.59043416664E+02  0.17888208247E+02  0.19474037932E+03  0.12500000000E+03 0.  0.
         25    1    1    2    0    0  0.12420088283E+03 -0.16592871988E+02 -0.19115835755E+02  0.17802134106E+03  0.12500000000E+03 0.  0.
</event>
<event>
 5    0  0.5677492E-005  0.3574337E+03  0.7546771E-02  0.1059605E+00
         21   -1    0    0  502  501  0.00000000000E+00  0.00000000000E+00  0.32912515358E+03  0.32912515358E+03  0.00000000000E+00 0. -1.
         21   -1    0    0  501  502 -0.00000000000E+00 -0.00000000000E+00 -0.38817702841E+03  0.38817702841E+03  0.00000000000E+00 0. -1.
         25    1    1    2    0    0 -0.74430106412E+02 -0.84214072310E+02 -0.22326784495E+03  0.27947340000E+03  0.12500000000E+03 0.  0.
         25    1    1    2    0    0 -0.42610692467E+02  0.20349935006E+01 -0.59068598029E+02  0.14468556108E+03  0.12500000000E+03 0.  0.
         25    1    1    2    0    0  0.11704079888E+03  0.82179078809E+02  0.22328456815E+03  0.29314322092E+03  0.12500000000E+03 0.  0.
</event>
<event>
 5    0  0.5677492E-005  0.3785835E+03  0.7546771E-02  0.1051459E+00
         21   -1    0    0  502  501  0.00000000000E+00  0.00000000000E+00  0.15156071455E+04  0.15156071455E+04  0.00000000000E+00 0.  1.
         21   -1    0    0  501  502 -0.00000000000E+00 -0.00000000000E+00 -0.94566377551E+02  0.94566377551E+02  0.00000000000E+00 0.  1.
         25    1    1    2    0    0  0.22104960881E+03 -0.67124051687E+02  0.72227726394E+03  0.76855579750E+03  0.12500000000E+03 0.  0.
         25    1    1    2    0    0 -0.18846586336E+03  0.16782887965E+03  0.56048862354E+03  0.62726263369E+03  0.12500000000E+03 0.  0.
         25    1    1    2    0    0 -0.32583745448E+02 -0.10070482796E+03  0.13827488048E+03  0.21435509188E+03  0.12500000000E+03 0.  0.
</event>
<event>
 5    0  0.5677492E-005  0.4175606E+03  0.7546771E-02  0.1037863E+00
         21   -1    0    0  502  501  0.00000000000E+00  0.00000000000E+00  0.26548219390E+03  0.26548219390E+03  0.00000000000E+00 0.  1.
         21   -1    0    0  501  502 -0.00000000000E+00 -0.00000000000E+00 -0.65675525663E+03  0.65675525663E+03  0.00000000000E+00 0.  1.
         25    1    1    2    0    0 -0.23586442407E+02  0.84251579538E+02  0.14340005292E+03  0.20938773627E+03  0.12500000000E+03 0.  0.
         25    1    1    2    0    0 -0.14262427303E+03  0.13526206305E+01 -0.80474756683E+02  0.20602111373E+03  0.12500000000E+03 0.  0.
         25    1    1    2    0    0  0.16621071544E+03 -0.85604200169E+02 -0.45419835897E+03  0.50682860052E+03  0.12500000000E+03 0.  0.
</event>
<event>
 5    0  0.5677492E-005  0.2798042E+03  0.7546771E-02  0.1095796E+00
         21   -1    0    0  502  501  0.00000000000E+00  0.00000000000E+00  0.62668836943E+03  0.62668836943E+03  0.00000000000E+00 0. -1.
         21   -1    0    0  501  502 -0.00000000000E+00 -0.00000000000E+00 -0.12492715231E+03  0.12492715231E+03  0.00000000000E+00 0. -1.
         25    1    1    2    0    0 -0.13158713408E+03 -0.72160029225E+02  0.60408555233E+02  0.20444176975E+03  0.12500000000E+03 0.  0.
         25    1    1    2    0    0  0.97253235927E+02 -0.21989861907E+01  0.14258991329E+03  0.21311947544E+03  0.12500000000E+03 0.  0.
         25    1    1    2    0    0  0.34333898151E+02  0.74359015416E+02  0.29876274859E+03  0.33405427655E+03  0.12500000000E+03 0.  0.
</event>
<event>
 5    0  0.5677492E-005  0.2627303E+03  0.7546771E-02  0.1105514E+00
         21   -1    0    0  502  501  0.00000000000E+00  0.00000000000E+00  0.21312240628E+03  0.21312240628E+03  0.00000000000E+00 0. -1.
         21   -1    0    0  501  502 -0.00000000000E+00 -0.00000000000E+00 -0.32388528948E+03  0.32388528948E+03  0.00000000000E+00 0. -1.
         25    1    1    2    0    0 -0.12867450070E+03  0.23749123004E+01  0.73711512527E+01  0.17956085656E+03  0.12500000000E+03 0.  0.
         25    1    1    2    0    0 -0.83431609745E+01 -0.64109369663E+02 -0.64118061009E+02  0.15464716409E+03  0.12500000000E+03 0.  0.
         25    1    1    2    0    0  0.13701766167E+03  0.61734457362E+02 -0.54015973438E+02  0.20279967511E+03  0.12500000000E+03 0.  0.
</event>
<event>
 5    0  0.5677492E-005  0.6348690E+03  0.7546771E-02  0.9835593E-01
         21   -1    0    0  502  501  0.00000000000E+00  0.00000000000E+00  0.20244480508E+04  0.20244480508E+04  0.00000000000E+00 0.  1.
         21   -1    0    0  501  502 -0.00000000000E+00 -0.00000000000E+00 -0.19909558991E+03  0.19909558991E+03  0.00000000000E+00 0.  1.
         25    1    1    2    0    0 -0.22766677450E+03  0.23761644247E+03  0.21803324331E+03  0.41407394162E+03  0.12500000000E+03 0.  0.
         25    1    1    2    0    0 -0.23371000923E+01 -0.45076743849E+03  0.70507597937E+03  0.84614058070E+03  0.12500000000E+03 0.  0.
         25    1    1    2    0    0  0.23000387459E+03  0.21315099601E+03  0.90224323821E+03  0.96332911838E+03  0.12500000000E+03 0.  0.
</event>
<event>
 5    0  0.6251077E-005  0.7429966E+03  0.7546771E-02  0.9646402E-01
         21   -1    0    0  502  501  0.00000000000E+00  0.00000000000E+00  0.31495132535E+03  0.31495132535E+03  0.00000000000E+00 0. -1.
         21   -1    0    0  501  502 -0.00000000000E+00 -0.00000000000E+00 -0.17527913033E+04  0.17527913033E+04  0.00000000000E+00 0. -1.
         25    1    1    2    0    0  0.81493687318E+02  0.35678312703E+03 -0.14327773643E+03  0.41241839261E+03  0.12500000000E+03 0.  0.
         25    1    1    2    0    0  0.14505542687E+03  0.30691747727E+02 -0.11518091528E+04  0.11680207125E+04  0.12500000000E+03 0.  0.
         25    1    1    2    0    0 -0.22654911419E+03 -0.38747487476E+03 -0.14275308864E+03  0.48730352351E+03  0.12500000000E+03 0.  0.
</event>
<event>
 5    0  0.5677492E-005  0.2578025E+03  0.7546771E-02  0.1108471E+00
         21   -1    0    0  502  501  0.00000000000E+00  0.00000000000E+00  0.39039298526E+02  0.39039298526E+02  0.00000000000E+00 0. -1.
         21   -1    0    0  501  502 -0.00000000000E+00 -0.00000000000E+00 -0.17024412564E+04  0.17024412564E+04  0.00000000000E+00 0. -1.
         25    1    1    2    0    0 -0.16013612218E+03 -0.19538238403E+02 -0.66473107666E+03  0.69535438782E+03  0.12500000000E+03 0.  0.
         25    1    1    2    0    0  0.10944179330E+03  0.45809770487E+02 -0.50007425916E+03  0.52893790360E+03  0.12500000000E+03 0.  0.
         25    1    1    2    0    0  0.50694328875E+02 -0.26271532083E+02 -0.49859662204E+03  0.51718826349E+03  0.12500000000E+03 0.  0.
</event>
<event>
 5    0  0.6178689E-005  0.3255162E+03  0.7546771E-02  0.1073138E+00
         21   -1    0    0  502  501  0.00000000000E+00  0.00000000000E+00  0.64478358475E+03  0.64478358475E+03  0.00000000000E+00 0.  1.
         21   -1    0    0  501  502 -0.00000000000E+00 -0.00000000000E+00 -0.16433547280E+03  0.16433547280E+03  0.00000000000E+00 0.  1.
         25    1    1    2    0    0  0.10498447665E+03 -0.79264602556E+02 -0.25764827661E+01  0.18148348635E+03  0.12500000000E+03 0.  0.
         25    1    1    2    0    0 -0.17135644880E+03  0.11793841653E+03  0.22567384665E+03  0.33140034355E+03  0.12500000000E+03 0.  0.
         25    1    1    2    0    0  0.66371972152E+02 -0.38673813975E+02  0.25735074806E+03  0.29623522765E+03  0.12500000000E+03 0.  0.
</event>
<event>
 5    0  0.5677492E-005  0.4567201E+03  0.7546771E-02  0.1025737E+00
         21   -1    0    0  502  501  0.00000000000E+00  0.00000000000E+00  0.89729129419E+02  0.89729129419E+02  0.00000000000E+00 0. -1.
         21   -1    0    0  501  502 -0.00000000000E+00 -0.00000000000E+00 -0.23246989037E+04  0.23246989037E+04  0.00000000000E+00 0. -1.
         25    1    1    2    0    0 -0.31759253492E+03  0.13506997561E+02 -0.12950175109E+04  0.13393068396E+04  0.12500000000E+03 0.  0.
         25    1    1    2    0    0  0.34817510514E+02  0.82302934520E+02 -0.53543557102E+03  0.55704782809E+03  0.12500000000E+03 0.  0.
         25    1    1    2    0    0  0.28277502441E+03 -0.95809932081E+02 -0.40451669241E+03  0.51807336542E+03  0.12500000000E+03 0.  0.
</event>
<event>
 5    0  0.5677492E-005  0.2534302E+03  0.7546771E-02  0.1111156E+00
         21   -1    0    0  502  501  0.00000000000E+00  0.00000000000E+00  0.27295097104E+03  0.27295097104E+03  0.00000000000E+00 0. -1.
         21   -1    0    0  501  502 -0.00000000000E+00 -0.00000000000E+00 -0.23530552695E+03  0.23530552695E+03  0.00000000000E+00 0. -1.
         25    1    1    2    0    0  0.83831449389E+02 -0.10295766242E+03 -0.15677412192E+02  0.18302670136E+03  0.12500000000E+03 0.  0.
         25    1    1    2    0    0 -0.97807449530E+02  0.75000190185E+02 -0.20488116864E+02  0.17673734366E+03  0.12500000000E+03 0.  0.
         25    1    1    2    0    0  0.13976000141E+02  0.27957472238E+02  0.73810973142E+02  0.14849245297E+03  0.12500000000E+03 0.  0.
</event>
<event>
 5    0  0.5677492E-005  0.2552055E+03  0.7546771E-02  0.1110059E+00
         21   -1    0    0  502  501  0.00000000000E+00  0.00000000000E+00  0.18110987009E+03  0.18110987009E+03  0.00000000000E+00 0. -1.
         21   -1    0    0  501  502 -0.00000000000E+00 -0.00000000000E+00 -0.35961505541E+03  0.35961505541E+03  0.00000000000E+00 0. -1.
         25    1    1    2    0    0 -0.59304388884E+02 -0.23840599590E+02  0.75757877098E+02  0.15952943513E+03  0.12500000000E+03 0.  0.
         25    1    1    2    0    0  0.58073824687E+02 -0.39235369236E+02 -0.14180093440E+03  0.20160478246E+03  0.12500000000E+03 0.  0.
         25    1    1    2    0    0  0.12305641971E+01  0.63075968826E+02 -0.11246212802E+03  0.17959070792E+03  0.12500000000E+03 0.  0.
</event>
<event>
 5    0  0.5677492E-005  0.3672334E+03  0.7546771E-02  0.1055756E+00
         21   -1    0    0  502  501  0.00000000000E+00  0.00000000000E+00  0.41807095265E+03  0.41807095265E+03  0.00000000000E+00 0. -1.
         21   -1    0    0  501  502 -0.00000000000E+00 -0.00000000000E+00 -0.32257769588E+03  0.32257769588E+03  0.00000000000E+00 0. -1.
         25    1    1    2    0    0  0.22809960277E+02 -0.14211004604E+03  0.18836703299E+03  0.26799757199E+03  0.12500000000E+03 0.  0.
         25    1    1    2    0    0 -0.65251433660E+02  0.61701716122E+02 -0.22275515653E+03  0.27075766125E+03  0.12500000000E+03 0.  0.
         25    1    1    2    0    0  0.42441473383E+02  0.80408329920E+02  0.12988138031E+03  0.20189341529E+03  0.12500000000E+03 0.  0.
</event>
<event>
 5    0  0.5677492E-005  0.4102376E+03  0.7546771E-02  0.1040291E+00
         21   -1    0    0  502  501  0.00000000000E+00  0.00000000000E+00  0.11977795788E+03  0.11977795788E+03  0.00000000000E+00 0.  1.
         21   -1    0    0  501  502 -0.00000000000E+00 -0.00000000000E+00 -0.14050570444E+04  0.14050570444E+04  0.00000000000E+00 0.  1.
         25    1    1    2    0    0  0.25293554991E+03 -0.31890596338E+02 -0.28145556129E+03  0.39979449162E+03  0.12500000000E+03 0.  0.
         25    1    1    2    0    0 -0.12317009511E+03  0.77963060714E+02 -0.88212898020E+03  0.90278770975E+03  0.12500000000E+03 0.  0.
         25    1    1    2    0    0 -0.12976545481E+03 -0.46072464376E+02 -0.12169454506E+03  0.22225280095E+03  0.12500000000E+03 0.  0.
</event>
<event>
 5    0  0.5677492E-005  0.2978552E+03  0.7546771E-02  0.1086318E+00
         21   -1    0    0  502  501  0.00000000000E+00  0.00000000000E+00  0.10414745618E+04  0.10414745618E+04  0.00000000000E+00 0. -1.
         21   -1    0    0  501  502 -0.00000000000E+00 -0.00000000000E+00 -0.85184743598E+02  0.85184743598E+02  0.00000000000E+00 0. -1.
         25    1    1    2    0    0 -0.11660530361E+03  0.42135891793E+02  0.15787127631E+03  0.23647530545E+03  0.12500000000E+03 0.  0.
         25    1    1    2    0    0  0.83113419097E+02 -0.11039439420E+03  0.19674259266E+03  0.27097492591E+03  0.12500000000E+03 0.  0.
         25    1    1    2    0    0  0.33491884513E+02  0.68258502408E+02  0.60167594924E+03  0.61920907404E+03  0.12500000000E+03 0.  0.
</event>
<event>
 5    0  0.5843916E-005  0.3428303E+03  0.7546771E-02  0.1065597E+00
         21   -1    0    0  502  501  0.00000000000E+00  0.00000000000E+00  0.61566040545E+03  0.61566040545E+03  0.00000000000E+00 0. -1.
         21   -1    0    0  501  502 -0.00000000000E+00 -0.00000000000E+00 -0.19090491338E+03  0.19090491338E+03  0.00000000000E+00 0. -1.
         25    1    1    2    0    0  0.13477442114E+03  0.11032627407E+03  0.27209276343E+02  0.21610501165E+03  0.12500000000E+03 0.  0.
         25    1    1    2    0    0 -0.15131542234E+03  0.75019757398E+02  0.16221514547E+03  0.26544881702E+03  0.12500000000E+03 0.  0.
         25    1    1    2    0    0  0.16541001201E+02 -0.18534603147E+03  0.23533107026E+03  0.32501149015E+03  0.12500000000E+03 0.  0.
</event>
<event>
 5    0  0.5677492E-005  0.2489205E+03  0.7546771E-02  0.1113989E+00
         21   -1    0    0  502  501  0.00000000000E+00  0.00000000000E+00  0.19715601803E+03  0.19715601803E+03  0.00000000000E+00 0. -1.
         21   -1    0    0  501  502 -0.00000000000E+00 -0.00000000000E+00 -0.31427611164E+03  0.31427611164E+03  0.00000000000E+00 0. -1.
         25    1    1    2    0    0  0.10395239781E+03 -0.21071609552E+02 -0.59744514547E+02  0.17448358306E+03  0.12500000000E+03 0.  0.
         25    1    1    2    0    0 -0.37400845578E+02 -0.51320459341E+02 -0.10009380977E+03  0.17226834750E+03  0.12500000000E+03 0.  0.
         25    1    1    2    0    0 -0.66551552232E+02  0.72392068893E+02  0.42718230698E+02  0.16468019910E+03  0.12500000000E+03 0.  0.
</event>
<event>
 5    0  0.5677492E-005  0.2541152E+03  0.7546771E-02  0.1110731E+00
         21   -1    0    0  502  501  0.00000000000E+00  0.00000000000E+00  0.86952386426E+02  0.86952386426E+02  0.00000000000E+00 0.  1.
         21   -1    0    0  501  502 -0.00000000000E+00 -0.00000000000E+00 -0.74264268238E+03  0.74264268238E+03  0.00000000000E+00 0.  1.
         25    1    1    2    0    0 -0.26629136932E+02 -0.47725571337E+02 -0.12979210814E+03  0.18830250245E+03  0.12500000000E+03 0.  0.
         25    1    1    2    0    0 -0.69753429326E+02  0.38524439001E+02 -0.43353901817E+03  0.45818200923E+03  0.12500000000E+03 0.  0.
         25    1    1    2    0    0  0.96382566258E+02  0.92011323361E+01 -0.92359169641E+02  0.18311055713E+03  0.12500000000E+03 0.  0.
</event>
<event>
 5    0  0.5677492E-005  0.3239722E+03  0.7546771E-02  0.1073836E+00
         21   -1    0    0  502  501  0.00000000000E+00  0.00000000000E+00  0.95660021905E+03  0.95660021905E+03  0.00000000000E+00 0.  1.
         21   -1    0    0  501  502 -0.00000000000E+00 -0.00000000000E+00 -0.10971981422E+03  0.10971981422E+03  0.00000000000E+00 0.  1.
         25    1    1    2    0    0 -0.56409438821E+02  0.18540031955E+03  0.22891816093E+03  0.32493665180E+03  0.12500000000E+03 0.  0.
         25    1    1    2    0    0 -0.52728059996E+02  0.16335418094E+02  0.13376882182E+03  0.19122288536E+03  0.12500000000E+03 0.  0.
         25    1    1    2    0    0  0.10913749882E+03 -0.20173573765E+03  0.48419342208E+03  0.55016049610E+03  0.12500000000E+03 0.  0.
</event>
<event>
 5    0  0.5677492E-005  0.3074912E+03  0.7546771E-02  0.1081555E+00
         21   -1    0    0  502  501  0.00000000000E+00  0.00000000000E+00  0.23075799394E+03  0.23075799394E+03  0.00000000000E+00 0.  1.
         21   -1    0    0  501  502 -0.00000000000E+00 -0.00000000000E+00 -0.40974031468E+03  0.40974031468E+03  0.00000000000E+00 0.  1.
         25    1    1    2    0    0  0.18313314745E+02 -0.11540561387E+03 -0.27003884013E+03  0.31968704758E+03  0.12500000000E+03 0.  0.
         25    1    1    2    0    0 -0.61109581394E+01  0.15284289661E+01 -0.62896109861E+01  0.12531655561E+03  0.12500000000E+03 0.  0.
         25    1    1    2    0    0 -0.12202356606E+02  0.11387718491E+03  0.97346130382E+02  0.19549470543E+03  0.12500000000E+03 0.  0.
</event>
<event>
 5    0  0.5677492E-005  0.5840749E+03  0.7546771E-02  0.9939008E-01
         21   -1    0    0  502  501  0.00000000000E+00  0.00000000000E+00  0.25434292694E+03  0.25434292694E+03  0.00000000000E+00 0. -1.
         21   -1    0    0  501  502 -0.00000000000E+00 -0.00000000000E+00 -0.13412738727E+04  0.13412738727E+04  0.00000000000E+00 0. -1.
         25    1    1    2    0    0  0.15125100054E+03  0.11052038457E+02 -0.11918243800E+04  0.12079194366E+04  0.12500000000E+03 0.  0.
         25    1    1    2    0    0  0.30596335598E+02 -0.50344473120E+02 -0.45616573464E+01  0.13826246940E+03  0.12500000000E+03 0.  0.
         25    1    1    2    0    0 -0.18184733614E+03  0.39292434663E+02  0.10945509155E+03  0.24943489361E+03  0.12500000000E+03 0.  0.
</event>
<event>
 5    0  0.5677492E-005  0.2588169E+03  0.7546771E-02  0.1107856E+00
         21   -1    0    0  502  501  0.00000000000E+00  0.00000000000E+00  0.66008464045E+02  0.66008464045E+02  0.00000000000E+00 0.  1.
         21   -1    0    0  501  502 -0.00000000000E+00 -0.00000000000E+00 -0.10148121115E+04  0.10148121115E+04  0.00000000000E+00 0.  1.
         25    1    1    2    0    0 -0.92961134655E+01  0.11834206328E+03 -0.40083630992E+03  0.43633245240E+03  0.12500000000E+03 0.  0.
         25    1    1    2    0    0 -0.64034713101E+02 -0.13274604974E+03 -0.29751354514E+03  0.35476931624E+03  0.12500000000E+03 0.  0.
         25    1    1    2    0    0  0.73330826566E+02  0.14403986463E+02 -0.25045379243E+03  0.28971880694E+03  0.12500000000E+03 0.  0.
</event>
<event>
 5    0  0.5677492E-005  0.2322065E+03  0.7546771E-02  0.1125096E+00
         21   -1    0    0  502  501  0.00000000000E+00  0.00000000000E+00  0.99816030172E+03  0.99816030172E+03  0.00000000000E+00 0.  1.
         21   -1    0    0  501  502 -0.00000000000E+00 -0.00000000000E+00 -0.54019233340E+02  0.54019233340E+02  0.00000000000E+00 0.  1.
         25    1    1    2    0    0 -0.59860572808E+02 -0.23141138613E+02  0.39759864953E+03  0.42169715031E+03  0.12500000000E+03 0.  0.
         25    1    1    2    0    0  0.99739318883E+02  0.22696091968E+02  0.41211426655E+03  0.44263553067E+03  0.12500000000E+03 0.  0.
         25    1    1    2    0    0 -0.39878746074E+02  0.44504664553E+00  0.13442815231E+03  0.18784685408E+03  0.12500000000E+03 0.  0.
</event>
<event>
 5    0  0.5677492E-005  0.5087737E+03  0.7546771E-02  0.1011514E+00
         21   -1    0    0  502  501  0.00000000000E+00  0.00000000000E+00  0.13127840879E+03  0.13127840879E+03  0.00000000000E+00 0.  1.
         21   -1    0    0  501  502 -0.00000000000E+00 -0.00000000000E+00 -0.19717690584E+04  0.19717690584E+04  0.00000000000E+00 0.  1.
         25    1    1    2    0    0 -0.78710902793E+02  0.25737207209E+03 -0.11043357176E+04  0.11435113322E+04  0.12500000000E+03 0.  0.
         25    1    1    2    0    0  0.40861490404E+02 -0.18923016978E+03 -0.77388769683E+03  0.80746819495E+03  0.12500000000E+03 0.  0.
         25    1    1    2    0    0  0.37849412389E+02 -0.68141902309E+02  0.37732764765E+02  0.15206794010E+03  0.12500000000E+03 0.  0.
</event>
<event>
 5    0  0.5677492E-005  0.5137502E+03  0.7546771E-02  0.1010251E+00
         21   -1    0    0  502  501  0.00000000000E+00  0.00000000000E+00  0.69219024441E+02  0.69219024441E+02  0.00000000000E+00 0. -1.
         21   -1    0    0  501  502 -0.00000000000E+00 -0.00000000000E+00 -0.38131024786E+04  0.38131024786E+04  0.00000000000E+00 0. -1.
         25    1    1    2    0    0 -0.26741518987E+03 -0.37372202445E+02 -0.98211708325E+03  0.10262000441E+04  0.12500000000E+03 0.  0.
         25    1    1    2    0    0  0.22687002817E+02 -0.26180343877E+03 -0.76557955669E+03  0.81901941264E+03  0.12500000000E+03 0.  0.
         25    1    1    2    0    0  0.24472818705E+03  0.29917564121E+03 -0.19961868142E+04  0.20371020463E+04  0.12500000000E+03 0.  0.
</event>
<event>
 5    0  0.5677492E-005  0.3121191E+03  0.7546771E-02  0.1079335E+00
         21   -1    0    0  502  501  0.00000000000E+00  0.00000000000E+00  0.23331023188E+04  0.23331023188E+04  0.00000000000E+00 0. -1.
         21   -1    0    0  501  502 -0.00000000000E+00 -0.00000000000E+00 -0.41754854487E+02  0.41754854487E+02  0.00000000000E+00 0. -1.
         25    1    1    2    0    0 -0.79826685873E+02 -0.18399181661E+03  0.62539802367E+03  0.66856037601E+03  0.12500000000E+03 0.  0.
         25    1    1    2    0    0  0.56579243814E+02  0.47135115891E+02  0.11181513919E+04  0.11275240420E+04  0.12500000000E+03 0.  0.
         25    1    1    2    0    0  0.23247442059E+02  0.13685670072E+03  0.54779804865E+03  0.57877275523E+03  0.12500000000E+03 0.  0.
</event>
<event>
 5    0  0.6214968E-005  0.3109569E+03  0.7546771E-02  0.1079888E+00
         21   -1    0    0  502  501  0.00000000000E+00  0.00000000000E+00  0.32721804411E+03  0.32721804411E+03  0.00000000000E+00 0. -1.
         21   -1    0    0  501  502 -0.00000000000E+00 -0.00000000000E+00 -0.29550377217E+03  0.29550377217E+03  0.00000000000E+00 0. -1.
         25    1    1    2    0    0  0.97971924207E+02  0.10495084097E+03  0.85651033411E+01  0.19055586569E+03  0.12500000000E+03 0.  0.
         25    1    1    2    0    0 -0.19050133524E+03 -0.31002970261E+02 -0.64655429426E+02  0.23886663108E+03  0.12500000000E+03 0.  0.
         25    1    1    2    0    0  0.92529411028E+02 -0.73947870713E+02  0.87804598020E+02  0.19329931951E+03  0.12500000000E+03 0.  0.
</event>
<event>
 5    0  0.5677492E-005  0.2683329E+03  0.7546771E-02  0.1102238E+00
         21   -1    0    0  502  501  0.00000000000E+00  0.00000000000E+00  0.34605683478E+03  0.34605683478E+03  0.00000000000E+00 0.  1.
         21   -1    0    0  501  502 -0.00000000000E+00 -0.00000000000E+00 -0.20806563243E+03  0.20806563243E+03  0.00000000000E+00 0.  1.
         25    1    1    2    0    0  0.13798851939E+01 -0.76107450094E+02 -0.71782982239E+02  0.16300933894E+03  0.12500000000E+03 0.  0.
         25    1    1    2    0    0 -0.72360747031E+02 -0.32369591842E+02  0.11613075770E+03  0.18813617693E+03  0.12500000000E+03 0.  0.
         25    1    1    2    0    0  0.70980861837E+02  0.10847704194E+03  0.93643426890E+02  0.20297695134E+03  0.12500000000E+03 0.  0.
</event>
<event>
 5    0  0.5677492E-005  0.2968112E+03  0.7546771E-02  0.1086846E+00
         21   -1    0    0  502  501  0.00000000000E+00  0.00000000000E+00  0.47470893729E+03  0.47470893729E+03  0.00000000000E+00 0. -1.
         21   -1    0    0  501  502 -0.00000000000E+00 -0.00000000000E+00 -0.18558085753E+03  0.18558085753E+03  0.00000000000E+00 0. -1.
         25    1    1    2    0    0  0.14360640059E+03 -0.87607986403E+02  0.17636361355E+03  0.27391071859E+03  0.12500000000E+03 0.  0.
         25    1    1    2    0    0 -0.12542885937E+02  0.11065263402E+03  0.11617533850E+03  0.20377202624E+03  0.12500000000E+03 0.  0.
         25    1    1    2    0    0 -0.13106351465E+03 -0.23044647616E+02 -0.34108722910E+01  0.18260704999E+03  0.12500000000E+03 0.  0.
</event>
<event>
 5    0  0.5677492E-005  0.2513084E+03  0.7546771E-02  0.1112481E+00
         21   -1    0    0  502  501  0.00000000000E+00  0.00000000000E+00  0.10419898701E+04  0.10419898701E+04  0.00000000000E+00 0.  1.
         21   -1    0    0  501  502 -0.00000000000E+00 -0.00000000000E+00 -0.60610848547E+02  0.60610848547E+02  0.00000000000E+00 0.  1.
         25    1    1    2    0    0  0.71062126087E+02 -0.67156559894E+02  0.36540978455E+03  0.39838315720E+03  0.12500000000E+03 0.  0.
         25    1    1    2    0    0 -0.14282645179E+03  0.47833576742E+02  0.36422975913E+03  0.41349215691E+03  0.12500000000E+03 0.  0.
         25    1    1    2    0    0  0.71764325699E+02  0.19322983152E+02  0.25173947792E+03  0.29072540457E+03  0.12500000000E+03 0.  0.
</event>
<event>
 5    0  0.5677492E-005  0.3209703E+03  0.7546771E-02  0.1075204E+00
         21   -1    0    0  502  501  0.00000000000E+00  0.00000000000E+00  0.12918029629E+03  0.12918029629E+03  0.00000000000E+00 0. -1.
         21   -1    0    0  501  502 -0.00000000000E+00 -0.00000000000E+00 -0.79750490900E+03  0.79750490900E+03  0.00000000000E+00 0. -1.
         25    1    1    2    0    0  0.48094517560E+02 -0.14834278278E+03 -0.36330586173E+03  0.41465022970E+03  0.12500000000E+03 0.  0.
         25    1    1    2    0    0 -0.14079181939E+02  0.10372102321E+03  0.15190001322E+02  0.16374373319E+03  0.12500000000E+03 0.  0.
         25    1    1    2    0    0 -0.34015335621E+02  0.44621759577E+02 -0.32020875229E+03  0.34829124240E+03  0.12500000000E+03 0.  0.
</event>
<event>
 5    0  0.5677492E-005  0.3806490E+03  0.7546771E-02  0.1050694E+00
         21   -1    0    0  502  501  0.00000000000E+00  0.00000000000E+00  0.40350364622E+03  0.40350364622E+03  0.00000000000E+00 0. -1.
         21   -1    0    0  501  502 -0.00000000000E+00 -0.00000000000E+00 -0.35908877935E+03  0.35908877935E+03  0.00000000000E+00 0. -1.
         25    1    1    2    0    0  0.12519902522E+03  0.20574326083E+03 -0.13262978407E+03  0.30202772210E+03  0.12500000000E+03 0.  0.
         25    1    1    2    0    0 -0.18639091398E+03 -0.86158632654E+02  0.11808011250E+03  0.26782978879E+03  0.12500000000E+03 0.  0.
         25    1    1    2    0    0  0.61191888752E+02 -0.11958462817E+03  0.58964538434E+02  0.19273491468E+03  0.12500000000E+03 0.  0.
</event>
<event>
 5    0  0.5677492E-005  0.2873903E+03  0.7546771E-02  0.1091720E+00
         21   -1    0    0  502  501  0.00000000000E+00  0.00000000000E+00  0.11011122387E+04  0.11011122387E+04  0.00000000000E+00 0. -1.
         21   -1    0    0  501  502 -0.00000000000E+00 -0.00000000000E+00 -0.75008885810E+02  0.75008885810E+02  0.00000000000E+00 0. -1.
         25    1    1    2    0    0 -0.11623344015E+03  0.84131266009E+02  0.25187383250E+03  0.31567975866E+03  0.12500000000E+03 0.  0.
         25    1    1    2    0    0  0.36141759040E+02  0.74204401456E+02  0.22944993544E+03  0.27401604482E+03  0.12500000000E+03 0.  0.
         25    1    1    2    0    0  0.80091681111E+02 -0.15833566747E+03  0.54477958494E+03  0.58642532103E+03  0.12500000000E+03 0.  0.
</event>
<event>
 5    0  0.5677492E-005  0.2929965E+03  0.7546771E-02  0.1088795E+00
         21   -1    0    0  502  501  0.00000000000E+00  0.00000000000E+00  0.11946980065E+03  0.11946980065E+03  0.00000000000E+00 0. -1.
         21   -1    0    0  501  502 -0.00000000000E+00 -0.00000000000E+00 -0.71856614395E+03  0.71856614395E+03  0.00000000000E+00 0. -1.
         25    1    1    2    0    0 -0.22515707309E+02 -0.89116892154E+02 -0.26924633727E+03  0.31075290453E+03  0.12500000000E+03 0.  0.
         25    1    1    2    0    0 -0.76410147262E+02 -0.72915831009E+02 -0.22172194079E+03  0.27557367081E+03  0.12500000000E+03 0.  0.
         25    1    1    2    0    0  0.98925854570E+02  0.16203272316E+03 -0.10812806524E+03  0.25170936925E+03  0.12500000000E+03 0.  0.
</event>
<event>
 5    0  0.5677492E-005  0.2230053E+03  0.7546771E-02  0.1131662E+00
         21   -1    0    0  502  501  0.00000000000E+00  0.00000000000E+00  0.21391224764E+03  0.21391224764E+03  0.00000000000E+00 0. -1.
         21   -1    0    0  501  502 -0.00000000000E+00 -0.00000000000E+00 -0.23248478530E+03  0.23248478530E+03  0.00000000000E+00 0. -1.
         25    1    1    2    0    0  0.42595847823E+02  0.19101796999E+02  0.12039274014E+01  0.13343812926E+03  0.12500000000E+03 0.  0.
         25    1    1    2    0    0 -0.10087047785E+03 -0.34504851800E+02 -0.48389769537E+02  0.17126589822E+03  0.12500000000E+03 0.  0.
         25    1    1    2    0    0  0.58274630023E+02  0.15403054801E+02  0.28613304479E+02  0.14169300545E+03  0.12500000000E+03 0.  0.
</event>
<event>
 5    0  0.5677492E-005  0.5522192E+03  0.7546771E-02  0.1000982E+00
         21   -1    0    0  502  501  0.00000000000E+00  0.00000000000E+00  0.17492143931E+04  0.17492143931E+04  0.00000000000E+00 0.  1.
         21   -1    0    0  501  502 -0.00000000000E+00 -0.00000000000E+00 -0.17433317012E+03  0.17433317012E+03  0.00000000000E+00 0.  1.
         25    1    1    2    0    0 -0.59609482769E+02 -0.57524548017E+02  0.74283187415E+03  0.75781696822E+03  0.12500000000E+03 0.  0.
         25    1    1    2    0    0  0.82341575450E+02 -0.34437361508E+03  0.51946987081E+03  0.64097368783E+03  0.12500000000E+03 0.  0.
         25    1    1    2    0    0 -0.22732092681E+02  0.40189816309E+03  0.31257947797E+03  0.52475690713E+03  0.12500000000E+03 0.  0.
</event>
<event>
 5    0  0.5677492E-005  0.3140425E+03  0.7546771E-02  0.1078424E+00
         21   -1    0    0  502  501  0.00000000000E+00  0.00000000000E+00  0.21640534591E+03  0.21640534591E+03  0.00000000000E+00 0.  1.
         21   -1    0    0  501  502 -0.00000000000E+00 -0.00000000000E+00 -0.45573142992E+03  0.45573142992E+03  0.00000000000E+00 0.  1.
         25    1    1    2    0    0 -0.25909349175E+02 -0.93408084027E+02  0.83047330483E+02  0.17865672010E+03  0.12500000000E+03 0.  0.
         25    1    1    2    0    0  0.14232948992E+03  0.32136161633E+02 -0.16323309140E+03  0.25211199637E+03  0.12500000000E+03 0.  0.
         25    1    1    2    0    0 -0.11642014075E+03  0.61271922394E+02 -0.15914032310E+03  0.24136805936E+03  0.12500000000E+03 0.  0.
</event>
<event>
 5    0  0.5677492E-005  0.3178210E+03  0.7546771E-02  0.1076657E+00
         21   -1    0    0  502  501  0.00000000000E+00  0.00000000000E+00  0.10678977909E+03  0.10678977909E+03  0.00000000000E+00 0. -1.
         21   -1    0    0  501  502 -0.00000000000E+00 -0.00000000000E+00 -0.94587852881E+03  0.94587852881E+03  0.00000000000E+00 0. -1.
         25    1    1    2    0    0 -0.18899551586E+03 -0.10590405901E+03 -0.50778455394E+03  0.56604339759E+03  0.12500000000E+03 0.  0.
         25    1    1    2    0    0  0.16655893837E+03  0.88501507172E+02 -0.18641919129E+03  0.29317488229E+03  0.12500000000E+03 0.  0.
         25    1    1    2    0    0  0.22436577489E+02  0.17402551839E+02 -0.14488500448E+03  0.19345002803E+03  0.12500000000E+03 0.  0.
</event>
<event>
 5    0  0.5677492E-005  0.3354597E+03  0.7546771E-02  0.1068746E+00
         21   -1    0    0  502  501  0.00000000000E+00  0.00000000000E+00  0.19861081178E+04  0.19861081178E+04  0.00000000000E+00 0. -1.
         21   -1    0    0  501  502 -0.00000000000E+00 -0.00000000000E+00 -0.56660159187E+02  0.56660159187E+02  0.00000000000E+00 0. -1.
         25    1    1    2    0    0  0.17343208647E+01  0.20783309580E+02  0.89737937208E+02  0.15528313238E+03  0.12500000000E+03 0.  0.
         25    1    1    2    0    0 -0.34096865759E+02  0.43982323783E+02  0.16121597303E+04  0.16179558205E+04  0.12500000000E+03 0.  0.
         25    1    1    2    0    0  0.32362544894E+02 -0.64765633363E+02  0.22755029108E+03  0.26952932410E+03  0.12500000000E+03 0.  0.
</event>
<event>
 5    0  0.5677492E-005  0.2450769E+03  0.7546771E-02  0.1116456E+00
         21   -1    0    0  502  501  0.00000000000E+00  0.00000000000E+00  0.77739045195E+03  0.77739045195E+03  0.00000000000E+00 0. -1.
         21   -1    0    0  501  502 -0.00000000000E+00 -0.00000000000E+00 -0.77261899752E+02  0.77261899752E+02  0.00000000000E+00 0. -1.
         25    1    1    2    0    0 -0.29796257417E+02 -0.12254280713E+03  0.25487365339E+03  0.31062861382E+03  0.12500000000E+03 0.  0.
         25    1    1    2    0    0 -0.52538966827E+02  0.62891975441E+02  0.24499433280E+03  0.28698948885E+03  0.12500000000E+03 0.  0.
         25    1    1    2    0    0  0.82335224244E+02  0.59650831685E+02  0.20026056602E+03  0.25703424903E+03  0.12500000000E+03 0.  0.
</event>
<event>
 5    0  0.5677492E-005  0.3080477E+03  0.7546771E-02  0.1081285E+00
         21   -1    0    0  502  501  0.00000000000E+00  0.00000000000E+00  0.15465207084E+03  0.15465207084E+03  0.00000000000E+00 0.  1.
         21   -1    0    0  501  502 -0.00000000000E+00 -0.00000000000E+00 -0.61359252685E+03  0.61359252685E+03  0.00000000000E+00 0.  1.
         25    1    1    2    0    0 -0.15598910872E+03  0.14507039084E+03 -0.74458619235E+02  0.25796725823E+03  0.12500000000E+03 0.  0.
         25    1    1    2    0    0  0.74450487407E+02 -0.48804894724E+02 -0.13733574095E+03  0.20593906518E+03  0.12500000000E+03 0.  0.
         25    1    1    2    0    0  0.81538621314E+02 -0.96265496116E+02 -0.24714609583E+03  0.30433827428E+03  0.12500000000E+03 0.  0.
</event>
<event>
 5    0  0.5677492E-005  0.3605322E+03  0.7546771E-02  0.1058373E+00
         21   -1    0    0  502  501  0.00000000000E+00  0.00000000000E+00  0.19419348182E+03  0.19419348182E+03  0.00000000000E+00 0.  1.
         21   -1    0    0  501  502 -0.00000000000E+00 -0.00000000000E+00 -0.66935022202E+03  0.66935022202E+03  0.00000000000E+00 0.  1.
         25    1    1    2    0    0  0.85398309074E+02 -0.12637984163E+03 -0.37420337231E+03  0.42298687853E+03  0.12500000000E+03 0.  0.
         25    1    1    2    0    0 -0.38716417227E+02 -0.84997107390E+02 -0.10919505278E+03  0.19045216927E+03  0.12500000000E+03 0.  0.
         25    1    1    2    0    0 -0.46681891847E+02  0.21137694902E+03  0.82416848844E+01  0.25010465604E+03  0.12500000000E+03 0.  0.
</event>
<event>
 5    0  0.5678184E-005  0.3309468E+03  0.7546771E-02  0.1070719E+00
         21   -1    0    0  502  501  0.00000000000E+00  0.00000000000E+00  0.41786315259E+03  0.41786315259E+03  0.00000000000E+00 0.  1.
         21   -1    0    0  501  502 -0.00000000000E+00 -0.00000000000E+00 -0.26210923251E+03  0.26210923251E+03  0.00000000000E+00 0.  1.
         25    1    1    2    0    0  0.89328864418E+02 -0.14221856687E+03 -0.11067825893E+02  0.20965033640E+03  0.12500000000E+03 0.  0.
         25    1    1    2    0    0 -0.84918463038E+02 -0.25147418143E+02  0.20703261480E+03  0.25754813452E+03  0.12500000000E+03 0.  0.
         25    1    1    2    0    0 -0.44104013804E+01  0.16736598502E+03 -0.40210868837E+02  0.21277391418E+03  0.12500000000E+03 0.  0.
</event>
<event>
 5    0  0.5677492E-005  0.4347423E+03  0.7546771E-02  0.1032372E+00
         21   -1    0    0  502  501  0.00000000000E+00  0.00000000000E+00  0.51275875258E+03  0.51275875258E+03  0.00000000000E+00 0.  1.
         21   -1    0    0  501  502 -0.00000000000E+00 -0.00000000000E+00 -0.36859600331E+03  0.36859600331E+03  0.00000000000E+00 0.  1.
         25    1    1    2    0    0  0.26388846915E+03 -0.16726244379E+03  0.25459804629E+03  0.42197039520E+03  0.12500000000E+03 0.  0.
         25    1    1    2    0    0 -0.22206438307E+03  0.35241007698E+02 -0.85918411209E+02  0.27122221929E+03  0.12500000000E+03 0.  0.
         25    1    1    2    0    0 -0.41824086085E+02  0.13202143609E+03 -0.24516885808E+02  0.18816214139E+03  0.12500000000E+03 0.  0.
</event>
<event>
 5    0  0.5677492E-005  0.2504905E+03  0.7546771E-02  0.1112995E+00
         21   -1    0    0  502  501  0.00000000000E+00  0.00000000000E+00  0.32989798848E+04  0.32989798848E+04  0.00000000000E+00 0.  1.
         21   -1    0    0  501  502 -0.00000000000E+00 -0.00000000000E+00 -0.19019662636E+02  0.19019662636E+02  0.00000000000E+00 0.  1.
         25    1    1    2    0    0  0.75113933639E+01 -0.11069896319E+03  0.12321577374E+04  0.12434421463E+04  0.12500000000E+03 0.  0.
         25    1    1    2    0    0 -0.74290638885E+02  0.16341705499E+02  0.64097872772E+03  0.65746853898E+03  0.12500000000E+03 0.  0.
         25    1    1    2    0    0  0.66779245521E+02  0.94357257687E+02  0.14068237570E+04  0.14170888621E+04  0.12500000000E+03 0.  0.
</event>
<event>
 5    0  0.5677492E-005  0.2606574E+03  0.7546771E-02  0.1106749E+00
         21   -1    0    0  502  501  0.00000000000E+00  0.00000000000E+00  0.18337769653E+03  0.18337769653E+03  0.00000000000E+00 0. -1.
         21   -1    0    0  501  502 -0.00000000000E+00 -0.00000000000E+00 -0.37050454295E+03  0.37050454295E+03  0.00000000000E+00 0. -1.
         25    1    1    2    0    0 -0.78304936167E+02 -0.98797208787E+01  0.36802157114E+02  0.15234392236E+03  0.12500000000E+03 0.  0.
         25    1    1    2    0    0 -0.27265188377E+02 -0.62058741931E+02 -0.15401292082E+03  0.20961788504E+03  0.12500000000E+03 0.  0.
         25    1    1    2    0    0  0.10557012454E+03  0.71938462809E+02 -0.69916082715E+02  0.19192043208E+03  0.12500000000E+03 0.  0.
</event>
<event>
 5    0  0.5677492E-005  0.2077259E+03  0.7546771E-02  0.1143380E+00
         21   -1    0    0  502  501  0.00000000000E+00  0.00000000000E+00  0.45637324893E+03  0.45637324893E+03  0.00000000000E+00 0. -1.
         21   -1    0    0  501  502 -0.00000000000E+00 -0.00000000000E+00 -0.94549929355E+02  0.94549929355E+02  0.00000000000E+00 0. -1.
         25    1    1    2    0    0  0.61039063525E+00 -0.14662943804E+02  0.17034806794E+03  0.21179905276E+03  0.12500000000E+03 0.  0.
         25    1    1    2    0    0 -0.34250027932E+02  0.61821313302E+01  0.32173320611E+02  0.13368397705E+03  0.12500000000E+03 0.  0.
         25    1    1    2    0    0  0.33639637297E+02  0.84808124743E+01  0.15930193102E+03  0.20544014847E+03  0.12500000000E+03 0.  0.
</event>
<event>
 5    0  0.5677492E-005  0.2290900E+03  0.7546771E-02  0.1127282E+00
         21   -1    0    0  502  501  0.00000000000E+00  0.00000000000E+00  0.14607462697E+04  0.14607462697E+04  0.00000000000E+00 0.  1.
         21   -1    0    0  501  502 -0.00000000000E+00 -0.00000000000E+00 -0.35928367149E+02  0.35928367149E+02  0.00000000000E+00 0.  1.
         25    1    1    2    0    0 -0.29250655074E+02  0.90010293036E+02  0.68343247578E+03  0.70118642502E+03  0.12500000000E+03 0.  0.
         25    1    1    2    0    0  0.31198100608E+02  0.16554098929E+01  0.26793756933E+03  0.29730725340E+03  0.12500000000E+03 0.  0.
         25    1    1    2    0    0 -0.19474455338E+01 -0.91665702929E+02  0.47344785748E+03  0.49818095848E+03  0.12500000000E+03 0.  0.
</event>
<event>
 5    0  0.5677492E-005  0.2665433E+03  0.7546771E-02  0.1103274E+00
         21   -1    0    0  502  501  0.00000000000E+00  0.00000000000E+00  0.30180858332E+03  0.30180858332E+03  0.00000000000E+00 0. -1.
         21   -1    0    0  501  502 -0.00000000000E+00 -0.00000000000E+00 -0.23539864421E+03  0.23539864421E+03  0.00000000000E+00 0. -1.
         25    1    1    2    0    0 -0.62188334840E+02  0.56880655042E+02 -0.17513716944E+02  0.15177130226E+03  0.12500000000E+03 0.  0.
         25    1    1    2    0    0 -0.98173925083E+01  0.82290579129E+02 -0.32743641582E+02  0.15350982598E+03  0.12500000000E+03 0.  0.
         25    1    1    2    0    0  0.72005727348E+02 -0.13917123417E+03  0.11666729764E+03  0.23192609929E+03  0.12500000000E+03 0.  0.
</event>
<event>
 5    0  0.5677492E-005  0.6092603E+03  0.7546771E-02  0.9886378E-01
         21   -1    0    0  502  501  0.00000000000E+00  0.00000000000E+00  0.54880480599E+03  0.54880480599E+03  0.00000000000E+00 0.  1.
         21   -1    0    0  501  502 -0.00000000000E+00 -0.00000000000E+00 -0.67637545638E+03  0.67637545638E+03  0.00000000000E+00 0.  1.
         25    1    1    2    0    0  0.52276674851E+03  0.21917839118E+03 -0.41592733600E+01  0.58048819115E+03  0.12500000000E+03 0.  0.
         25    1    1    2    0    0 -0.37385131018E+03 -0.11647518044E+03 -0.56855008039E+02  0.41495633712E+03  0.12500000000E+03 0.  0.
         25    1    1    2    0    0 -0.14891543833E+03 -0.10270321074E+03 -0.66556368996E+02  0.22973573410E+03  0.12500000000E+03 0.  0.
</event>
<event>
 5    0  0.5677492E-005  0.2881731E+03  0.7546771E-02  0.1091307E+00
         21   -1    0    0  502  501  0.00000000000E+00  0.00000000000E+00  0.31583426979E+03  0.31583426979E+03  0.00000000000E+00 0.  1.
         21   -1    0    0  501  502 -0.00000000000E+00 -0.00000000000E+00 -0.26293451777E+03  0.26293451777E+03  0.00000000000E+00 0.  1.
         25    1    1    2    0    0 -0.19916261875E+02  0.11835165194E+03  0.97907334267E+02  0.19903421090E+03  0.12500000000E+03 0.  0.
         25    1    1    2    0    0 -0.26104239941E+02 -0.15666778066E+03 -0.10609010574E+03  0.22826812168E+03  0.12500000000E+03 0.  0.
         25    1    1    2    0    0  0.46020501816E+02  0.38316128721E+02  0.61082523495E+02  0.15146645498E+03  0.12500000000E+03 0.  0.
</event>
<event>
 5    0  0.5677492E-005  0.4251279E+03  0.7546771E-02  0.1035410E+00
         21   -1    0    0  502  501  0.00000000000E+00  0.00000000000E+00  0.12803811531E+03  0.12803811531E+03  0.00000000000E+00 0. -1.
         21   -1    0    0  501  502 -0.00000000000E+00 -0.00000000000E+00 -0.14115618205E+04  0.14115618205E+04  0.00000000000E+00 0. -1.
         25    1    1    2    0    0 -0.29861084469E+03 -0.13584732471E+03 -0.43569202690E+03  0.55953147767E+03  0.12500000000E+03 0.  0.
         25    1    1    2    0    0  0.24183071422E+03  0.19346391059E+03 -0.66608533659E+03  0.74512083226E+03  0.12500000000E+03 0.  0.
         25    1    1    2    0    0  0.56780130477E+02 -0.57616585878E+02 -0.18174634165E+03  0.23494762584E+03  0.12500000000E+03 0.  0.
</event>
<event>
 5    0  0.5677492E-005  0.2514982E+03  0.7546771E-02  0.1112362E+00
         21   -1    0    0  502  501  0.00000000000E+00  0.00000000000E+00  0.22367075125E+03  0.22367075125E+03  0.00000000000E+00 0.  1.
         21   -1    0    0  501  502 -0.00000000000E+00 -0.00000000000E+00 -0.28278774652E+03  0.28278774652E+03  0.00000000000E+00 0.  1.
         25    1    1    2    0    0 -0.16604794207E+02 -0.65790383213E+02 -0.13372776208E+03  0.19522348236E+03  0.12500000000E+03 0.  0.
         25    1    1    2    0    0  0.53788731910E+02  0.47504145120E+01  0.94687240622E+02  0.16585073909E+03  0.12500000000E+03 0.  0.
         25    1    1    2    0    0 -0.37183937703E+02  0.61039968701E+02 -0.20076473810E+02  0.14538427633E+03  0.12500000000E+03 0.  0.
</event>
<event>
 5    0  0.5677492E-005  0.2992017E+03  0.7546771E-02  0.1085640E+00
         21   -1    0    0  502  501  0.00000000000E+00  0.00000000000E+00  0.33916412462E+03  0.33916412462E+03  0.00000000000E+00 0.  1.
         21   -1    0    0  501  502 -0.00000000000E+00 -0.00000000000E+00 -0.26394781957E+03  0.26394781957E+03  0.00000000000E+00 0.  1.
         25    1    1    2    0    0 -0.30764541708E+02  0.99451722968E+02 -0.64382582017E+02  0.17494919004E+03  0.12500000000E+03 0.  0.
         25    1    1    2    0    0 -0.11513278341E+03 -0.10211715859E+03  0.14304088766E+02  0.19877896984E+03  0.12500000000E+03 0.  0.
         25    1    1    2    0    0  0.14589732512E+03  0.26654356249E+01  0.12529479831E+03  0.22938378431E+03  0.12500000000E+03 0.  0.
</event>
<event>
 5    0  0.5677492E-005  0.2117011E+03  0.7546771E-02  0.1140226E+00
         21   -1    0    0  502  501  0.00000000000E+00  0.00000000000E+00  0.15691232694E+04  0.15691232694E+04  0.00000000000E+00 0.  1.
         21   -1    0    0  501  502 -0.00000000000E+00 -0.00000000000E+00 -0.28562029827E+02  0.28562029827E+02  0.00000000000E+00 0.  1.
         25    1    1    2    0    0  0.24618404404E+02  0.29649857352E+02  0.36343776514E+03  0.38626051960E+03  0.12500000000E+03 0.  0.
         25    1    1    2    0    0 -0.36935870161E+02 -0.69775497845E+02  0.74913894279E+03  0.76358826222E+03  0.12500000000E+03 0.  0.
         25    1    1    2    0    0  0.12317465757E+02  0.40125640492E+02  0.42798453166E+03  0.44783651742E+03  0.12500000000E+03 0.  0.
</event>
<event>
 5    0  0.5751520E-005  0.3667586E+03  0.7546771E-02  0.1055939E+00
         21   -1    0    0  502  501  0.00000000000E+00  0.00000000000E+00  0.63547518649E+03  0.63547518649E+03  0.00000000000E+00 0. -1.
         21   -1    0    0  501  502 -0.00000000000E+00 -0.00000000000E+00 -0.21167133643E+03  0.21167133643E+03  0.00000000000E+00 0. -1.
         25    1    1    2    0    0 -0.19420563359E+02 -0.18388974191E+03  0.78901655967E+02  0.23673416901E+03  0.12500000000E+03 0.  0.
         25    1    1    2    0    0 -0.43485428408E+02 -0.29675405462E+02 -0.46249186683E+02  0.14330247535E+03  0.12500000000E+03 0.  0.
         25    1    1    2    0    0  0.62905991767E+02  0.21356514737E+03  0.39115138077E+03  0.46710987857E+03  0.12500000000E+03 0.  0.
</event>
<event>
 5    0  0.5677492E-005  0.2726926E+03  0.7546771E-02  0.1099748E+00
         21   -1    0    0  502  501  0.00000000000E+00  0.00000000000E+00  0.57751323247E+03  0.57751323247E+03  0.00000000000E+00 0.  1.
         21   -1    0    0  501  502 -0.00000000000E+00 -0.00000000000E+00 -0.12876112066E+03  0.12876112066E+03  0.00000000000E+00 0.  1.
         25    1    1    2    0    0  0.84914889279E+02  0.13990861100E+03  0.24685845721E+03  0.32147947951E+03  0.12500000000E+03 0.  0.
         25    1    1    2    0    0 -0.93303570182E+02 -0.12789723683E+03  0.12555197450E+03  0.23759536548E+03  0.12500000000E+03 0.  0.
         25    1    1    2    0    0  0.83886809037E+01 -0.12011374164E+02  0.76341680093E+02  0.14719950814E+03  0.12500000000E+03 0.  0.
</event>
<event>
 5    0  0.5677492E-005  0.3608597E+03  0.7546771E-02  0.1058244E+00
         21   -1    0    0  502  501  0.00000000000E+00  0.00000000000E+00  0.29728349991E+03  0.29728349991E+03  0.00000000000E+00 0.  1.
         21   -1    0    0  501  502 -0.00000000000E+00 -0.00000000000E+00 -0.43803207161E+03  0.43803207161E+03  0.00000000000E+00 0.  1.
         25    1    1    2    0    0  0.15249290804E+03  0.86454712507E+02 -0.15124200851E+03  0.26311147724E+03  0.12500000000E+03 0.  0.
         25    1    1    2    0    0  0.70137150942E+02 -0.39762733981E+02 -0.11102323529E+03  0.18561102804E+03  0.12500000000E+03 0.  0.
         25    1    1    2    0    0 -0.22263005898E+03 -0.46691978526E+02  0.12151667210E+03  0.28659306624E+03  0.12500000000E+03 0.  0.
</event>
<event>
 5    0  0.5677492E-005  0.3582206E+03  0.7546771E-02  0.1059291E+00
         21   -1    0    0  502  501  0.00000000000E+00  0.00000000000E+00  0.29303068949E+03  0.29303068949E+03  0.00000000000E+00 0. -1.
         21   -1    0    0  501  502 -0.00000000000E+00 -0.00000000000E+00 -0.43791319865E+03  0.43791319865E+03  0.00000000000E+00 0. -1.
         25    1    1    2    0    0 -0.62818320359E+02  0.37598769237E+02  0.19734094278E+03  0.24480248471E+03  0.12500000000E+03 0.  0.
         25    1    1    2    0    0 -0.72874852783E+02 -0.52648157150E+02 -0.11029314312E+03  0.18939944572E+03  0.12500000000E+03 0.  0.
         25    1    1    2    0    0  0.13569317314E+03  0.15049387912E+02 -0.23193030882E+03  0.29674195771E+03  0.12500000000E+03 0.  0.
</event>
<event>
 5    0  0.5677492E-005  0.3167242E+03  0.7546771E-02  0.1077167E+00
         21   -1    0    0  502  501  0.00000000000E+00  0.00000000000E+00  0.44693336890E+03  0.44693336890E+03  0.00000000000E+00 0. -1.
         21   -1    0    0  501  502 -0.00000000000E+00 -0.00000000000E+00 -0.22445002180E+03  0.22445002180E+03  0.00000000000E+00 0. -1.
         25    1    1    2    0    0  0.12961555222E+03 -0.20767932435E+02  0.20476063209E+02  0.18241646735E+03  0.12500000000E+03 0.  0.
         25    1    1    2    0    0 -0.23480947490E+03  0.28677918520E+02  0.64337767819E+02  0.27517678115E+03  0.12500000000E+03 0.  0.
         25    1    1    2    0    0  0.10519392268E+03 -0.79099860851E+01  0.13766951607E+03  0.21379014220E+03  0.12500000000E+03 0.  0.
</event>
<event>
 5    0  0.5677492E-005  0.2565500E+03  0.7546771E-02  0.1109234E+00
         21   -1    0    0  502  501  0.00000000000E+00  0.00000000000E+00  0.45855729354E+02  0.45855729354E+02  0.00000000000E+00 0. -1.
         21   -1    0    0  501  502 -0.00000000000E+00 -0.00000000000E+00 -0.14353257276E+04  0.14353257276E+04  0.00000000000E+00 0. -1.
         25    1    1    2    0    0 -0.28706223646E+02  0.78632242572E+02 -0.21677828570E+03  0.26386531033E+03  0.12500000000E+03 0.  0.
         25    1    1    2    0    0 -0.27948861763E+02 -0.12649325869E+03 -0.59625825318E+03  0.62284074037E+03  0.12500000000E+03 0.  0.
         25    1    1    2    0    0  0.56655085409E+02  0.47861016121E+02 -0.57643345938E+03  0.59447540627E+03  0.12500000000E+03 0.  0.
</event>
<event>
 5    0  0.5677492E-005  0.2739266E+03  0.7546771E-02  0.1099053E+00
         21   -1    0    0  502  501  0.00000000000E+00  0.00000000000E+00  0.33262672667E+03  0.33262672667E+03  0.00000000000E+00 0. -1.
         21   -1    0    0  501  502 -0.00000000000E+00 -0.00000000000E+00 -0.22558558504E+03  0.22558558504E+03  0.00000000000E+00 0. -1.
         25    1    1    2    0    0  0.13837481517E+02 -0.62074889796E+01  0.50011806033E+02  0.13548501599E+03  0.12500000000E+03 0.  0.
         25    1    1    2    0    0  0.45740011405E+02 -0.44027070873E+02  0.18187262533E+03  0.22963706900E+03  0.12500000000E+03 0.  0.
         25    1    1    2    0    0 -0.59577492922E+02  0.50234559853E+02 -0.12484328974E+03  0.19309022673E+03  0.12500000000E+03 0.  0.
</event>
<event>
 5    0  0.5677492E-005  0.4123688E+03  0.7546771E-02  0.1039579E+00
         21   -1    0    0  502  501  0.00000000000E+00  0.00000000000E+00  0.12368496391E+04  0.12368496391E+04  0.00000000000E+00 0. -1.
         21   -1    0    0  501  502 -0.00000000000E+00 -0.00000000000E+00 -0.13748482747E+03  0.13748482747E+03  0.00000000000E+00 0. -1.
         25    1    1    2    0    0  0.27754385276E+02  0.14456233112E+03 -0.21940349667E+02  0.19435779487E+03  0.12500000000E+03 0.  0.
         25    1    1    2    0    0 -0.65004617154E+02 -0.18333770091E+03  0.72231598955E+03  0.75842184936E+03  0.12500000000E+03 0.  0.
         25    1    1    2    0    0  0.37250231878E+02  0.38775369787E+02  0.39898917172E+03  0.42155482232E+03  0.12500000000E+03 0.  0.
</event>
<event>
 5    0  0.5677492E-005  0.2253012E+03  0.7546771E-02  0.1129991E+00
         21   -1    0    0  502  501  0.00000000000E+00  0.00000000000E+00  0.48918215355E+03  0.48918215355E+03  0.00000000000E+00 0. -1.
         21   -1    0    0  501  502 -0.00000000000E+00 -0.00000000000E+00 -0.10376636058E+03  0.10376636058E+03  0.00000000000E+00 0. -1.
         25    1    1    2    0    0 -0.22991132773E+01  0.28402161071E+02  0.20224984874E+03  0.23946183410E+03  0.12500000000E+03 0.  0.
         25    1    1    2    0    0  0.82047762631E+02 -0.24866668128E+02  0.11496512637E+03  0.19024238965E+03  0.12500000000E+03 0.  0.
         25    1    1    2    0    0 -0.79748649354E+02 -0.35354929429E+01  0.68200817862E+02  0.16324429038E+03  0.12500000000E+03 0.  0.
</event>
<event>
 5    0  0.5677492E-005  0.4448641E+03  0.7546771E-02  0.1029265E+00
         21   -1    0    0  502  501  0.00000000000E+00  0.00000000000E+00  0.11702782226E+03  0.11702782226E+03  0.00000000000E+00 0. -1.
         21   -1    0    0  501  502 -0.00000000000E+00 -0.00000000000E+00 -0.16910856315E+04  0.16910856315E+04  0.00000000000E+00 0. -1.
         25    1    1    2    0    0 -0.10336822400E+03 -0.52803288358E+02 -0.28566569243E+03  0.33272070093E+03  0.12500000000E+03 0.  0.
         25    1    1    2    0    0 -0.22113742724E+03 -0.16797085567E+03 -0.48796635332E+03  0.57519747222E+03  0.12500000000E+03 0.  0.
         25    1    1    2    0    0  0.32450565123E+03  0.22077414403E+03 -0.80042576348E+03  0.90019528059E+03  0.12500000000E+03 0.  0.
</event>
<event>
 5    0  0.5677492E-005  0.2265182E+03  0.7546771E-02  0.1129115E+00
         21   -1    0    0  502  501  0.00000000000E+00  0.00000000000E+00  0.25083137740E+03  0.25083137740E+03  0.00000000000E+00 0. -1.
         21   -1    0    0  501  502 -0.00000000000E+00 -0.00000000000E+00 -0.20456171879E+03  0.20456171879E+03  0.00000000000E+00 0. -1.
         25    1    1    2    0    0  0.75199971109E+02  0.17672502101E+02  0.24419850422E+02  0.14895865896E+03  0.12500000000E+03 0.  0.
         25    1    1    2    0    0  0.90814379321E+01  0.52396223136E+02  0.33072710770E+02  0.13980930195E+03  0.12500000000E+03 0.  0.
         25    1    1    2    0    0 -0.84281409041E+02 -0.70068725237E+02 -0.11222902582E+02  0.16662513528E+03  0.12500000000E+03 0.  0.
</event>
<event>
 5    0  0.5677492E-005  0.4489667E+03  0.7546771E-02  0.1028031E+00
         21   -1    0    0  502  501  0.00000000000E+00  0.00000000000E+00  0.23339700568E+04  0.23339700568E+04  0.00000000000E+00 0. -1.
         21   -1    0    0  501  502 -0.00000000000E+00 -0.00000000000E+00 -0.86364063947E+02  0.86364063947E+02  0.00000000000E+00 0. -1.
         25    1    1    2    0    0  0.14513608898E+03 -0.91227133102E+02  0.48512382460E+03  0.52948748742E+03  0.12500000000E+03 0.  0.
         25    1    1    2    0    0  0.71027100611E+02 -0.72045054059E+02  0.75440440778E+02  0.17762769756E+03  0.12500000000E+03 0.  0.
         25    1    1    2    0    0 -0.21616318959E+03  0.16327218716E+03  0.16870417275E+04  0.17132189358E+04  0.12500000000E+03 0.  0.
</event>
<event>
 5    0  0.5677492E-005  0.2599469E+03  0.7546771E-02  0.1107175E+00
         21   -1    0    0  502  501  0.00000000000E+00  0.00000000000E+00  0.21731851937E+03  0.21731851937E+03  0.00000000000E+00 0.  1.
         21   -1    0    0  501  502 -0.00000000000E+00 -0.00000000000E+00 -0.31093713666E+03  0.31093713666E+03  0.00000000000E+00 0. -1.
         25    1    1    2    0    0  0.86332438037E-01 -0.69743104966E+02  0.42625932587E+02  0.14935219541E+03  0.12500000000E+03 0.  0.
         25    1    1    2    0    0  0.11119177885E+03  0.10338371573E+02 -0.10718001208E+03  0.19895489087E+03  0.12500000000E+03 0.  0.
         25    1    1    2    0    0 -0.11127811129E+03  0.59404733393E+02 -0.29064537797E+02  0.17994856976E+03  0.12500000000E+03 0.  0.
</event>
<event>
 5    0  0.9281796E-005  0.4278746E+03  0.7546771E-02  0.1034533E+00
         21   -1    0    0  502  501  0.00000000000E+00  0.00000000000E+00  0.66391643436E+03  0.66391643436E+03  0.00000000000E+00 0. -1.
         21   -1    0    0  501  502 -0.00000000000E+00 -0.00000000000E+00 -0.27575260057E+03  0.27575260057E+03  0.00000000000E+00 0. -1.
         25    1    1    2    0    0 -0.11817526373E+03 -0.26519756591E+02  0.42949063815E+03  0.46341762883E+03  0.12500000000E+03 0.  0.
         25    1    1    2    0    0  0.24518301391E+03  0.82012554278E+02 -0.12915123691E+02  0.28745881408E+03  0.12500000000E+03 0.  0.
         25    1    1    2    0    0 -0.12700775018E+03 -0.55492797687E+02 -0.28411680675E+02  0.18879259202E+03  0.12500000000E+03 0.  0.
</event>
<event>
 5    0  0.5677492E-005  0.3108515E+03  0.7546771E-02  0.1079938E+00
         21   -1    0    0  502  501  0.00000000000E+00  0.00000000000E+00  0.17431698903E+03  0.17431698903E+03  0.00000000000E+00 0.  1.
         21   -1    0    0  501  502 -0.00000000000E+00 -0.00000000000E+00 -0.55432740768E+03  0.55432740768E+03  0.00000000000E+00 0.  1.
         25    1    1    2    0    0  0.72296555891E+02 -0.49434743471E+02 -0.67188843381E+02  0.16676308504E+03  0.12500000000E+03 0.  0.
         25    1    1    2    0    0 -0.22616120003E+03  0.71160600353E+01 -0.21771906772E+03  0.33797354802E+03  0.12500000000E+03 0.  0.
         25    1    1    2    0    0  0.15386464414E+03  0.42318683436E+02 -0.95102507544E+02  0.22390776365E+03  0.12500000000E+03 0.  0.
</event>
<event>
 5    0  0.5677492E-005  0.3593314E+03  0.7546771E-02  0.1058849E+00
         21   -1    0    0  502  501  0.00000000000E+00  0.00000000000E+00  0.11995512461E+03  0.11995512461E+03  0.00000000000E+00 0. -1.
         21   -1    0    0  501  502 -0.00000000000E+00 -0.00000000000E+00 -0.10763948797E+04  0.10763948797E+04  0.00000000000E+00 0. -1.
         25    1    1    2    0    0 -0.57433685067E+02  0.80314603098E+02 -0.75125972842E+02  0.17611920806E+03  0.12500000000E+03 0.  0.
         25    1    1    2    0    0 -0.76553537446E+02 -0.10976306828E+03 -0.79451223156E+03  0.81534229705E+03  0.12500000000E+03 0.  0.
         25    1    1    2    0    0  0.13398722251E+03  0.29448465178E+02 -0.86801550656E+02  0.20488849918E+03  0.12500000000E+03 0.  0.
</event>
<event>
 5    0  0.6096139E-005  0.6493513E+03  0.7546771E-02  0.9807997E-01
         21   -1    0    0  502  501  0.00000000000E+00  0.00000000000E+00  0.59439571413E+03  0.59439571413E+03  0.00000000000E+00 0. -1.
         21   -1    0    0  501  502 -0.00000000000E+00 -0.00000000000E+00 -0.70938787693E+03  0.70938787693E+03  0.00000000000E+00 0. -1.
         25    1    1    2    0    0  0.48065275133E+03  0.95142712336E+01  0.13408906839E+03  0.51451187254E+03  0.12500000000E+03 0.  0.
         25    1    1    2    0    0 -0.24923521573E+03 -0.21924343455E+03 -0.27937474541E+03  0.45150982794E+03  0.12500000000E+03 0.  0.
         25    1    1    2    0    0 -0.23141753560E+03  0.20972916332E+03  0.30293514217E+02  0.33776189059E+03  0.12500000000E+03 0.  0.
</event>
<event>
 5    0  0.5677492E-005  0.3062174E+03  0.7546771E-02  0.1082173E+00
         21   -1    0    0  502  501  0.00000000000E+00  0.00000000000E+00  0.46041009912E+03  0.46041009912E+03  0.00000000000E+00 0.  1.
         21   -1    0    0  501  502 -0.00000000000E+00 -0.00000000000E+00 -0.20366432972E+03  0.20366432972E+03  0.00000000000E+00 0.  1.
         25    1    1    2    0    0  0.17174638439E+02  0.80713559252E+02  0.44859731315E+02  0.15635549989E+03  0.12500000000E+03 0.  0.
         25    1    1    2    0    0 -0.13498408986E+03 -0.13955447159E+03  0.22917144877E+03  0.32533168918E+03  0.12500000000E+03 0.  0.
         25    1    1    2    0    0  0.11780945142E+03  0.58840912336E+02 -0.17285410678E+02  0.18238723977E+03  0.12500000000E+03 0.  0.
</event>
<event>
 5    0  0.5677492E-005  0.4071530E+03  0.7546771E-02  0.1041331E+00
         21   -1    0    0  502  501  0.00000000000E+00  0.00000000000E+00  0.94116804359E+02  0.94116804359E+02  0.00000000000E+00 0.  1.
         21   -1    0    0  501  502 -0.00000000000E+00 -0.00000000000E+00 -0.17613598999E+04  0.17613598999E+04  0.00000000000E+00 0.  1.
         25    1    1    2    0    0 -0.17578249669E+03  0.57397570071E+02 -0.10317959045E+03  0.24589630960E+03  0.12500000000E+03 0.  0.
         25    1    1    2    0    0  0.19427668389E+03 -0.94814520953E+01 -0.11798954454E+04  0.12023358889E+04  0.12500000000E+03 0.  0.
         25    1    1    2    0    0 -0.18494187207E+02 -0.47916117976E+02 -0.38416805977E+03  0.40724450576E+03  0.12500000000E+03 0.  0.
</event>
<event>
 5    0  0.5677492E-005  0.3685819E+03  0.7546771E-02  0.1055237E+00
         21   -1    0    0  502  501  0.00000000000E+00  0.00000000000E+00  0.35451305347E+03  0.35451305347E+03  0.00000000000E+00 0.  1.
         21   -1    0    0  501  502 -0.00000000000E+00 -0.00000000000E+00 -0.38320910946E+03  0.38320910946E+03  0.00000000000E+00 0.  1.
         25    1    1    2    0    0 -0.21668199467E+03  0.72299084412E+02  0.13530391914E+03  0.29344572744E+03  0.12500000000E+03 0.  0.
         25    1    1    2    0    0  0.24453481005E+02  0.49576589286E+02 -0.11798277302E+03  0.18055676578E+03  0.12500000000E+03 0.  0.
         25    1    1    2    0    0  0.19222851366E+03 -0.12187567370E+03 -0.46017202107E+02  0.26371966971E+03  0.12500000000E+03 0.  0.
</event>
<event>
 5    0  0.5677492E-005  0.2950306E+03  0.7546771E-02  0.1087751E+00
         21   -1    0    0  502  501  0.00000000000E+00  0.00000000000E+00  0.11094016887E+03  0.11094016887E+03  0.00000000000E+00 0. -1.
         21   -1    0    0  501  502 -0.00000000000E+00 -0.00000000000E+00 -0.78459477767E+03  0.78459477767E+03  0.00000000000E+00 0. -1.
         25    1    1    2    0    0 -0.16507934923E+03 -0.23158430642E+02 -0.28976972878E+03  0.35690194755E+03  0.12500000000E+03 0.  0.
         25    1    1    2    0    0  0.44379648862E+02 -0.27851777596E+02 -0.26670196265E+02  0.13813607102E+03  0.12500000000E+03 0.  0.
         25    1    1    2    0    0  0.12069970037E+03  0.51010208238E+02 -0.35721468376E+03  0.40049692796E+03  0.12500000000E+03 0.  0.
</event>
<event>
 5    0  0.5677492E-005  0.3293327E+03  0.7546771E-02  0.1071433E+00
         21   -1    0    0  502  501  0.00000000000E+00  0.00000000000E+00  0.21862330204E+03  0.21862330204E+03  0.00000000000E+00 0.  1.
         21   -1    0    0  501  502 -0.00000000000E+00 -0.00000000000E+00 -0.49610465972E+03  0.49610465972E+03  0.00000000000E+00 0.  1.
         25    1    1    2    0    0  0.36154833438E+02 -0.20251575733E+03 -0.10150802113E+03  0.26124448760E+03  0.12500000000E+03 0.  0.
         25    1    1    2    0    0 -0.58467711947E+02  0.17302503158E+03  0.15488738725E+02  0.22185814369E+03  0.12500000000E+03 0.  0.
         25    1    1    2    0    0  0.22312878509E+02  0.29490725745E+02 -0.19146207527E+03  0.23162533048E+03  0.12500000000E+03 0.  0.
</event>
<event>
 5    0  0.5677492E-005  0.2220796E+03  0.7546771E-02  0.1132342E+00
         21   -1    0    0  502  501  0.00000000000E+00  0.00000000000E+00  0.54476568207E+02  0.54476568207E+02  0.00000000000E+00 0. -1.
         21   -1    0    0  501  502 -0.00000000000E+00 -0.00000000000E+00 -0.90533173009E+03  0.90533173009E+03  0.00000000000E+00 0. -1.
         25    1    1    2    0    0 -0.45231445664E+02  0.10596636237E+01 -0.47381880952E+03  0.49211408313E+03  0.12500000000E+03 0.  0.
         25    1    1    2    0    0  0.63280039048E+02 -0.32116095218E+02 -0.16380524546E+03  0.21792880799E+03  0.12500000000E+03 0.  0.
         25    1    1    2    0    0 -0.18048593384E+02  0.31056431595E+02 -0.21323110690E+03  0.24976540717E+03  0.12500000000E+03 0.  0.
</event>
<event>
 5    0  0.5677492E-005  0.2839438E+03  0.7546771E-02  0.1093554E+00
         21   -1    0    0  502  501  0.00000000000E+00  0.00000000000E+00  0.89617632124E+02  0.89617632124E+02  0.00000000000E+00 0.  1.
         21   -1    0    0  501  502 -0.00000000000E+00 -0.00000000000E+00 -0.89964551876E+03  0.89964551876E+03  0.00000000000E+00 0.  1.
         25    1    1    2    0    0 -0.68042967483E+02  0.80252969242E+02 -0.34671998589E+03  0.38328857681E+03  0.12500000000E+03 0.  0.
         25    1    1    2    0    0 -0.76567297298E+02 -0.87137487038E+02 -0.33424281136E+03  0.37523159463E+03  0.12500000000E+03 0.  0.
         25    1    1    2    0    0  0.14461026478E+03  0.68845177958E+01 -0.12906508938E+03  0.23074297944E+03  0.12500000000E+03 0.  0.
</event>
<event>
 5    0  0.5677492E-005  0.5205160E+03  0.7546771E-02  0.1008558E+00
         21   -1    0    0  502  501  0.00000000000E+00  0.00000000000E+00  0.61699317073E+03  0.61699317073E+03  0.00000000000E+00 0. -1.
         21   -1    0    0  501  502 -0.00000000000E+00 -0.00000000000E+00 -0.43912471746E+03  0.43912471746E+03  0.00000000000E+00 0. -1.
         25    1    1    2    0    0 -0.22282513327E+03  0.96133623944E+02 -0.79966418203E+02  0.28445094781E+03  0.12500000000E+03 0.  0.
         25    1    1    2    0    0  0.18694010880E+03  0.20239835484E+03 -0.68984960666E+02  0.31031536075E+03  0.12500000000E+03 0.  0.
         25    1    1    2    0    0  0.35885024466E+02 -0.29853197879E+03  0.32681983215E+03  0.46135157963E+03  0.12500000000E+03 0.  0.
</event>
<event>
 5    0  0.5677492E-005  0.2480417E+03  0.7546771E-02  0.1114549E+00
         21   -1    0    0  502  501  0.00000000000E+00  0.00000000000E+00  0.60757540851E+02  0.60757540851E+02  0.00000000000E+00 0. -1.
         21   -1    0    0  501  502 -0.00000000000E+00 -0.00000000000E+00 -0.10126267087E+04  0.10126267087E+04  0.00000000000E+00 0. -1.
         25    1    1    2    0    0  0.16044132209E+02  0.89260128185E+02 -0.18326996649E+03  0.23966156404E+03  0.12500000000E+03 0.  0.
         25    1    1    2    0    0 -0.73856738425E+02  0.17109194180E+02 -0.40625214161E+03  0.43175611739E+03  0.12500000000E+03 0.  0.
         25    1    1    2    0    0  0.57812606216E+02 -0.10636932237E+03 -0.36234705972E+03  0.40196656809E+03  0.12500000000E+03 0.  0.
</event>
<event>
 5    0  0.5677492E-005  0.5321264E+03  0.7546771E-02  0.1005718E+00
         21   -1    0    0  502  501  0.00000000000E+00  0.00000000000E+00  0.21479794790E+04  0.21479794790E+04  0.00000000000E+00 0. -1.
         21   -1    0    0  501  502 -0.00000000000E+00 -0.00000000000E+00 -0.13182549890E+03  0.13182549890E+03  0.00000000000E+00 0. -1.
         25    1    1    2    0    0  0.65001121121E+02 -0.42840880728E+03  0.65980995306E+03  0.79920799925E+03  0.12500000000E+03 0.  0.
         25    1    1    2    0    0 -0.16046529704E+03  0.35261177901E+03  0.10748546999E+04  0.11493571265E+04  0.12500000000E+03 0.  0.
         25    1    1    2    0    0  0.95464175920E+02  0.75797028271E+02  0.28148932709E+03  0.33123985214E+03  0.12500000000E+03 0.  0.
</event>
<event>
 5    0  0.5677492E-005  0.3968018E+03  0.7546771E-02  0.1044893E+00
         21   -1    0    0  502  501  0.00000000000E+00  0.00000000000E+00  0.39395413710E+03  0.39395413710E+03  0.00000000000E+00 0.  1.
         21   -1    0    0  501  502 -0.00000000000E+00 -0.00000000000E+00 -0.39967007394E+03  0.39967007394E+03  0.00000000000E+00 0.  1.
         25    1    1    2    0    0  0.21727497687E+03  0.15804365163E+02 -0.89382908955E+02  0.26659425715E+03  0.12500000000E+03 0.  0.
         25    1    1    2    0    0  0.99484222922E+02  0.51747754771E+02 -0.74890165960E+01  0.16809528876E+03  0.12500000000E+03 0.  0.
         25    1    1    2    0    0 -0.31675919979E+03 -0.67552119934E+02  0.91155988710E+02  0.35893466514E+03  0.12500000000E+03 0.  0.
</event>
<event>
 5    0  0.5677492E-005  0.2377632E+03  0.7546771E-02  0.1121292E+00
         21   -1    0    0  502  501  0.00000000000E+00  0.00000000000E+00  0.48889306257E+03  0.48889306257E+03  0.00000000000E+00 0. -1.
         21   -1    0    0  501  502 -0.00000000000E+00 -0.00000000000E+00 -0.11563129094E+03  0.11563129094E+03  0.00000000000E+00 0. -1.
         25    1    1    2    0    0  0.10937175831E+03 -0.18208297470E+02  0.13863777253E+03  0.21711553511E+03  0.12500000000E+03 0.  0.
         25    1    1    2    0    0 -0.47934274903E+02 -0.30677822386E+02  0.18756908511E+03  0.23247792409E+03  0.12500000000E+03 0.  0.
         25    1    1    2    0    0 -0.61437483411E+02  0.48886119856E+02  0.47054913988E+02  0.15493089431E+03  0.12500000000E+03 0.  0.
</event>
<event>
 5    0  0.5677492E-005  0.2491406E+03  0.7546771E-02  0.1113849E+00
         21   -1    0    0  502  501  0.00000000000E+00  0.00000000000E+00  0.11080228970E+03  0.11080228970E+03  0.00000000000E+00 0.  1.
         21   -1    0    0  501  502 -0.00000000000E+00 -0.00000000000E+00 -0.56019620112E+03  0.56019620112E+03  0.00000000000E+00 0.  1.
         25    1    1    2    0    0 -0.14141307788E+02  0.43406223391E+02 -0.25674237141E+02  0.13552949224E+03  0.12500000000E+03 0.  0.
         25    1    1    2    0    0 -0.91509349551E+02 -0.47184540132E+02 -0.18312946542E+03  0.24446215042E+03  0.12500000000E+03 0.  0.
         25    1    1    2    0    0  0.10565065734E+03  0.37783167415E+01 -0.24059020886E+03  0.29100684816E+03  0.12500000000E+03 0.  0.
</event>
<event>
 5    0  0.5677492E-005  0.2242255E+03  0.7546771E-02  0.1130771E+00
         21   -1    0    0  502  501  0.00000000000E+00  0.00000000000E+00  0.50334647217E+02  0.50334647217E+02  0.00000000000E+00 0.  1.
         21   -1    0    0  501  502 -0.00000000000E+00 -0.00000000000E+00 -0.99885606079E+03  0.99885606079E+03  0.00000000000E+00 0.  1.
         25    1    1    2    0    0 -0.31924744015E+02 -0.12670909193E+02 -0.30462626987E+03  0.33106178504E+03  0.12500000000E+03 0.  0.
         25    1    1    2    0    0  0.26413883520E+01 -0.88743426390E+02 -0.34066061700E+03  0.37357332431E+03  0.12500000000E+03 0.  0.
         25    1    1    2    0    0  0.29283355663E+02  0.10141433558E+03 -0.30323452670E+03  0.34455559865E+03  0.12500000000E+03 0.  0.
</event>
<event>
 5    0  0.5677492E-005  0.2794880E+03  0.7546771E-02  0.1095969E+00
         21   -1    0    0  502  501  0.00000000000E+00  0.00000000000E+00  0.19913883761E+04  0.19913883761E+04  0.00000000000E+00 0.  1.
         21   -1    0    0  501  502 -0.00000000000E+00 -0.00000000000E+00 -0.39225675617E+02  0.39225675617E+02  0.00000000000E+00 0.  1.
         25    1    1    2    0    0 -0.36808055014E+02  0.79995315006E+02  0.41294336436E+03  0.44034225950E+03  0.12500000000E+03 0.  0.
         25    1    1    2    0    0  0.10543437209E+03 -0.10888128656E+01  0.12291499757E+04  0.12399807479E+04  0.12500000000E+03 0.  0.
         25    1    1    2    0    0 -0.68626317072E+02 -0.78906502140E+02  0.31006936047E+03  0.35029104439E+03  0.12500000000E+03 0.  0.
</event>
<event>
 5    0  0.5760832E-005  0.2762077E+03  0.7546771E-02  0.1097778E+00
         21   -1    0    0  502  501  0.00000000000E+00  0.00000000000E+00  0.60368438388E+03  0.60368438388E+03  0.00000000000E+00 0.  1.
         21   -1    0    0  501  502 -0.00000000000E+00 -0.00000000000E+00 -0.12637517309E+03  0.12637517309E+03  0.00000000000E+00 0.  1.
         25    1    1    2    0    0 -0.36426407998E+02  0.14485393039E+02 -0.45578389549E+02  0.13870508068E+03  0.12500000000E+03 0.  0.
         25    1    1    2    0    0  0.70550345302E+02 -0.26975584382E+01  0.23414453083E+03  0.27465121401E+03  0.12500000000E+03 0.  0.
         25    1    1    2    0    0 -0.34123937304E+02 -0.11787834601E+02  0.28874306952E+03  0.31670326228E+03  0.12500000000E+03 0.  0.
</event>
<event>
 5    0  0.5677492E-005  0.3453660E+03  0.7546771E-02  0.1064533E+00
         21   -1    0    0  502  501  0.00000000000E+00  0.00000000000E+00  0.20004182172E+04  0.20004182172E+04  0.00000000000E+00 0. -1.
         21   -1    0    0  501  502 -0.00000000000E+00 -0.00000000000E+00 -0.59626359132E+02  0.59626359132E+02  0.00000000000E+00 0. -1.
         25    1    1    2    0    0 -0.74784857871E+02  0.34966745794E+02  0.39501978865E+03  0.42247021398E+03  0.12500000000E+03 0.  0.
         25    1    1    2    0    0 -0.11621558113E+03  0.36736046608E+02  0.17909455985E+03  0.25011089497E+03  0.12500000000E+03 0.  0.
         25    1    1    2    0    0  0.19100043900E+03 -0.71702792403E+02  0.13666775096E+04  0.13874634674E+04  0.12500000000E+03 0.  0.
</event>
<event>
 5    0  0.5677492E-005  0.2269932E+03  0.7546771E-02  0.1128774E+00
         21   -1    0    0  502  501  0.00000000000E+00  0.00000000000E+00  0.75272892716E+02  0.75272892716E+02  0.00000000000E+00 0.  1.
         21   -1    0    0  501  502 -0.00000000000E+00 -0.00000000000E+00 -0.68452172945E+03  0.68452172945E+03  0.00000000000E+00 0.  1.
         25    1    1    2    0    0  0.39397646637E+02  0.98577892020E+01 -0.15514911957E+03  0.20333617453E+03  0.12500000000E+03 0.  0.
         25    1    1    2    0    0  0.30184961734E+02 -0.39447650798E+02 -0.84032730214E+02  0.15859933422E+03  0.12500000000E+03 0.  0.
         25    1    1    2    0    0 -0.69582608372E+02  0.29589861596E+02 -0.37006698695E+03  0.39785911341E+03  0.12500000000E+03 0.  0.
</event>
<event>
 5    0  0.5677492E-005  0.4155833E+03  0.7546771E-02  0.1038513E+00
         21   -1    0    0  502  501  0.00000000000E+00  0.00000000000E+00  0.19437830751E+04  0.19437830751E+04  0.00000000000E+00 0. -1.
         21   -1    0    0  501  502 -0.00000000000E+00 -0.00000000000E+00 -0.88852248501E+02  0.88852248501E+02  0.00000000000E+00 0. -1.
         25    1    1    2    0    0  0.12633217997E+03 -0.21715825931E+03  0.49479442711E+03  0.56882691074E+03  0.12500000000E+03 0.  0.
         25    1    1    2    0    0 -0.37968946696E+02  0.15883459420E+03  0.12490834608E+04  0.12659006917E+04  0.12500000000E+03 0.  0.
         25    1    1    2    0    0 -0.88363233269E+02  0.58323665117E+02  0.11105293873E+03  0.19790772119E+03  0.12500000000E+03 0.  0.
</event>
<event>
 5    0  0.5677492E-005  0.3203882E+03  0.7546771E-02  0.1075471E+00
         21   -1    0    0  502  501  0.00000000000E+00  0.00000000000E+00  0.10031938549E+04  0.10031938549E+04  0.00000000000E+00 0.  1.
         21   -1    0    0  501  502 -0.00000000000E+00 -0.00000000000E+00 -0.10232179733E+03  0.10232179733E+03  0.00000000000E+00 0.  1.
         25    1    1    2    0    0  0.50115293748E+02 -0.15443290862E+03  0.12502885639E+03  0.24003808211E+03  0.12500000000E+03 0.  0.
         25    1    1    2    0    0  0.90780728574E+02  0.52096547731E+02  0.41344824350E+03  0.44443181819E+03  0.12500000000E+03 0.  0.
         25    1    1    2    0    0 -0.14089602232E+03  0.10233636089E+03  0.36239495772E+03  0.42104575196E+03  0.12500000000E+03 0.  0.
</event>
<event>
 5    0  0.5677492E-005  0.3511627E+03  0.7546771E-02  0.1062139E+00
         21   -1    0    0  502  501  0.00000000000E+00  0.00000000000E+00  0.66375984179E+03  0.66375984179E+03  0.00000000000E+00 0.  1.
         21   -1    0    0  501  502 -0.00000000000E+00 -0.00000000000E+00 -0.18578290419E+03  0.18578290419E+03  0.00000000000E+00 0.  1.
         25    1    1    2    0    0 -0.96164302972E+02 -0.78463493788E+02 -0.16371503695E+01  0.17615837557E+03  0.12500000000E+03 0.  0.
         25    1    1    2    0    0 -0.54266882063E+02 -0.12308256200E+03  0.13025081627E+03  0.22513215385E+03  0.12500000000E+03 0.  0.
         25    1    1    2    0    0  0.15043118504E+03  0.20154605579E+03  0.34936327170E+03  0.44825221656E+03  0.12500000000E+03 0.  0.
</event>
<event>
 5    0  0.5677492E-005  0.3506890E+03  0.7546771E-02  0.1062333E+00
         21   -1    0    0  502  501  0.00000000000E+00  0.00000000000E+00  0.51003733046E+03  0.51003733046E+03  0.00000000000E+00 0. -1.
         21   -1    0    0  501  502 -0.00000000000E+00 -0.00000000000E+00 -0.24112501682E+03  0.24112501682E+03  0.00000000000E+00 0. -1.
         25    1    1    2    0    0  0.26182317859E+02 -0.22467230034E+02  0.35790415384E+03  0.38067134582E+03  0.12500000000E+03 0.  0.
         25    1    1    2    0    0  0.10678634281E+03  0.56811628294E+02 -0.42839763957E+02  0.17913997180E+03  0.12500000000E+03 0.  0.
         25    1    1    2    0    0 -0.13296866067E+03 -0.34344398260E+02 -0.46152076242E+02  0.19135102966E+03  0.12500000000E+03 0.  0.
</event>
<event>
 5    0  0.5677492E-005  0.2203347E+03  0.7546771E-02  0.1133634E+00
         21   -1    0    0  502  501  0.00000000000E+00  0.00000000000E+00  0.12958840379E+04  0.12958840379E+04  0.00000000000E+00 0. -1.
         21   -1    0    0  501  502 -0.00000000000E+00 -0.00000000000E+00 -0.37462744313E+02  0.37462744313E+02  0.00000000000E+00 0. -1.
         25    1    1    2    0    0 -0.33695723565E+02 -0.12336496901E+02  0.56020687020E+03  0.57510375443E+03  0.12500000000E+03 0.  0.
         25    1    1    2    0    0  0.67184132897E+00 -0.21590055290E+01  0.15230553572E+03  0.19704590553E+03  0.12500000000E+03 0.  0.
         25    1    1    2    0    0  0.33023882236E+02  0.14495502430E+02  0.54590888769E+03  0.56119712227E+03  0.12500000000E+03 0.  0.
</event>
<event>
 5    0  0.5677492E-005  0.2573886E+03  0.7546771E-02  0.1108722E+00
         21   -1    0    0  502  501  0.00000000000E+00  0.00000000000E+00  0.40932788515E+03  0.40932788515E+03  0.00000000000E+00 0.  1.
         21   -1    0    0  501  502 -0.00000000000E+00 -0.00000000000E+00 -0.16184792413E+03  0.16184792413E+03  0.00000000000E+00 0.  1.
         25    1    1    2    0    0  0.31282942712E+02  0.41234174888E+02  0.14971694828E+03  0.20178960401E+03  0.12500000000E+03 0.  0.
         25    1    1    2    0    0 -0.13406434868E+03 -0.34598084350E+02  0.90315011547E+02  0.20724883193E+03  0.12500000000E+03 0.  0.
         25    1    1    2    0    0  0.10278140597E+03 -0.66360905384E+01  0.74480012014E+01  0.16213737334E+03  0.12500000000E+03 0.  0.
</event>
<event>
 5    0  0.5677492E-005  0.2475174E+03  0.7546771E-02  0.1114884E+00
         21   -1    0    0  502  501  0.00000000000E+00  0.00000000000E+00  0.60974468108E+02  0.60974468108E+02  0.00000000000E+00 0. -1.
         21   -1    0    0  501  502 -0.00000000000E+00 -0.00000000000E+00 -0.10047624266E+04  0.10047624266E+04  0.00000000000E+00 0. -1.
         25    1    1    2    0    0  0.61009254980E+02 -0.80073662469E+00 -0.44444475133E+03  0.46570259539E+03  0.12500000000E+03 0.  0.
         25    1    1    2    0    0  0.37536556561E+02  0.30025500521E+01 -0.84022472602E+02  0.15525071429E+03  0.12500000000E+03 0.  0.
         25    1    1    2    0    0 -0.98545811541E+02 -0.22018134274E+01 -0.41532073460E+03  0.44478358507E+03  0.12500000000E+03 0.  0.
</event>
<event>
 5    0  0.5677492E-005  0.2751509E+03  0.7546771E-02  0.1098367E+00
         21   -1    0    0  502  501  0.00000000000E+00  0.00000000000E+00  0.74504054832E+02  0.74504054832E+02  0.00000000000E+00 0. -1.
         21   -1    0    0  501  502 -0.00000000000E+00 -0.00000000000E+00 -0.10161600412E+04  0.10161600412E+04  0.00000000000E+00 0. -1.
         25    1    1    2    0    0 -0.34250713147E+02 -0.54859930674E+02 -0.44154482731E+03  0.46343236602E+03  0.12500000000E+03 0.  0.
         25    1    1    2    0    0  0.46453692092E+02 -0.10477698946E+03 -0.28295364110E+03  0.32988471628E+03  0.12500000000E+03 0.  0.
         25    1    1    2    0    0 -0.12202978945E+02  0.15963692013E+03 -0.21715751792E+03  0.29734701370E+03  0.12500000000E+03 0.  0.
</event>
<event>
 5    0  0.5677492E-005  0.5558568E+03  0.7546771E-02  0.1000147E+00
         21   -1    0    0  502  501  0.00000000000E+00  0.00000000000E+00  0.23707154035E+04  0.23707154035E+04  0.00000000000E+00 0. -1.
         21   -1    0    0  501  502 -0.00000000000E+00 -0.00000000000E+00 -0.13033060872E+03  0.13033060872E+03  0.00000000000E+00 0. -1.
         25    1    1    2    0    0  0.59753264344E+02  0.24502030380E+02 -0.17074231327E+01  0.14070791515E+03  0.12500000000E+03 0.  0.
         25    1    1    2    0    0 -0.11782731963E+03 -0.13252740193E+03  0.15676241573E+03  0.26766816116E+03  0.12500000000E+03 0.  0.
         25    1    1    2    0    0  0.58074055291E+02  0.10802537155E+03  0.20853298022E+04  0.20926699359E+04  0.12500000000E+03 0.  0.
</event>
<event>
 5    0  0.5677492E-005  0.2262562E+03  0.7546771E-02  0.1129303E+00
         21   -1    0    0  502  501  0.00000000000E+00  0.00000000000E+00  0.57732698704E+02  0.57732698704E+02  0.00000000000E+00 0.  1.
         21   -1    0    0  501  502 -0.00000000000E+00 -0.00000000000E+00 -0.88670526672E+03  0.88670526672E+03  0.00000000000E+00 0.  1.
         25    1    1    2    0    0 -0.67083705365E+01 -0.62896114185E+02 -0.18113980049E+03  0.22899246873E+03  0.12500000000E+03 0.  0.
         25    1    1    2    0    0  0.48448938121E+02  0.77474116224E+02 -0.23148607165E+03  0.27849657028E+03  0.12500000000E+03 0.  0.
         25    1    1    2    0    0 -0.41740567585E+02 -0.14578002039E+02 -0.41634669588E+03  0.43694892641E+03  0.12500000000E+03 0.  0.
</event>
<event>
 5    0  0.5677492E-005  0.1022986E+04  0.7546771E-02  0.9283688E-01
         21   -1    0    0  502  501  0.00000000000E+00  0.00000000000E+00  0.29833434712E+04  0.29833434712E+04  0.00000000000E+00 0. -1.
         21   -1    0    0  501  502 -0.00000000000E+00 -0.00000000000E+00 -0.35078084300E+03  0.35078084300E+03  0.00000000000E+00 0. -1.
         25    1    1    2    0    0  0.44748592963E+03  0.33231856778E+03  0.18757218896E+04  0.19607745650E+04  0.12500000000E+03 0.  0.
         25    1    1    2    0    0  0.15910871420E+03  0.15238618306E+03  0.47425424967E+03  0.53766088295E+03  0.12500000000E+03 0.  0.
         25    1    1    2    0    0 -0.60659464383E+03 -0.48470475085E+03  0.28258648894E+03  0.83568886623E+03  0.12500000000E+03 0.  0.
</event>
<event>
 5    0  0.5677492E-005  0.2953912E+03  0.7546771E-02  0.1087567E+00
         21   -1    0    0  502  501  0.00000000000E+00  0.00000000000E+00  0.17317512238E+04  0.17317512238E+04  0.00000000000E+00 0.  1.
         21   -1    0    0  501  502 -0.00000000000E+00 -0.00000000000E+00 -0.50385952108E+02  0.50385952108E+02  0.00000000000E+00 0.  1.
         25    1    1    2    0    0  0.81406200536E+02  0.16284406877E+03  0.46432144103E+03  0.51416394353E+03  0.12500000000E+03 0.  0.
         25    1    1    2    0    0 -0.50186720237E+02 -0.88838993765E+02  0.93858285803E+03  0.95235174967E+03  0.12500000000E+03 0.  0.
         25    1    1    2    0    0 -0.31219480299E+02 -0.74005075007E+02  0.27846097266E+03  0.31562148275E+03  0.12500000000E+03 0.  0.
</event>
<event>
 5    0  0.5677492E-005  0.3084366E+03  0.7546771E-02  0.1081098E+00
         21   -1    0    0  502  501  0.00000000000E+00  0.00000000000E+00  0.30709589303E+03  0.30709589303E+03  0.00000000000E+00 0. -1.
         21   -1    0    0  501  502 -0.00000000000E+00 -0.00000000000E+00 -0.30978310252E+03  0.30978310252E+03  0.00000000000E+00 0. -1.
         25    1    1    2    0    0 -0.10150987828E+03  0.99342616598E+02  0.16694282043E+03  0.25232541718E+03  0.12500000000E+03 0.  0.
         25    1    1    2    0    0 -0.25294985681E+02 -0.33293106001E+02 -0.55745315403E+02  0.14311117146E+03  0.12500000000E+03 0.  0.
         25    1    1    2    0    0  0.12680486396E+03 -0.66049510596E+02 -0.11388471452E+03  0.22144240690E+03  0.12500000000E+03 0.  0.
</event>
<event>
 5    0  0.5677492E-005  0.2680918E+03  0.7546771E-02  0.1102377E+00
         21   -1    0    0  502  501  0.00000000000E+00  0.00000000000E+00  0.20603232759E+03  0.20603232759E+03  0.00000000000E+00 0.  1.
         21   -1    0    0  501  502 -0.00000000000E+00 -0.00000000000E+00 -0.34884439389E+03  0.34884439389E+03  0.00000000000E+00 0.  1.
         25    1    1    2    0    0 -0.29370341089E+02 -0.90232358839E+02 -0.18183670762E+03  0.24019592785E+03  0.12500000000E+03 0.  0.
         25    1    1    2    0    0 -0.21979928701E+02  0.70359938912E+02 -0.47853558136E+02  0.15280249113E+03  0.12500000000E+03 0.  0.
         25    1    1    2    0    0  0.51350269789E+02  0.19872419927E+02  0.86878199449E+02  0.16187830250E+03  0.12500000000E+03 0.  0.
</event>
<event>
 5    0  0.6609418E-005  0.3638535E+03  0.7546771E-02  0.1057068E+00
         21   -1    0    0  502  501  0.00000000000E+00  0.00000000000E+00  0.20940881206E+03  0.20940881206E+03  0.00000000000E+00 0.  1.
         21   -1    0    0  501  502 -0.00000000000E+00 -0.00000000000E+00 -0.63220546607E+03  0.63220546607E+03  0.00000000000E+00 0.  1.
         25    1    1    2    0    0  0.20386389718E+03 -0.46577920340E+02 -0.22461930391E+03  0.33137414342E+03  0.12500000000E+03 0.  0.
         25    1    1    2    0    0 -0.13948719184E+03  0.21936317526E+02  0.74256394421E+02  0.20267434674E+03  0.12500000000E+03 0.  0.
         25    1    1    2    0    0 -0.64376705344E+02  0.24641602814E+02 -0.27243374451E+03  0.30756578797E+03  0.12500000000E+03 0.  0.
</event>
<event>
 5    0  0.5677492E-005  0.3382901E+03  0.7546771E-02  0.1067527E+00
         21   -1    0    0  502  501  0.00000000000E+00  0.00000000000E+00  0.13211174796E+03  0.13211174796E+03  0.00000000000E+00 0.  1.
         21   -1    0    0  501  502 -0.00000000000E+00 -0.00000000000E+00 -0.86623782643E+03  0.86623782643E+03  0.00000000000E+00 0.  1.
         25    1    1    2    0    0 -0.13634109034E+03  0.16388287222E+03 -0.23248898226E+03  0.33929723782E+03  0.12500000000E+03 0.  0.
         25    1    1    2    0    0  0.28311147395E+01  0.59310347770E+02 -0.14784158401E+03  0.20250399138E+03  0.12500000000E+03 0.  0.
         25    1    1    2    0    0  0.13350997560E+03 -0.22319321999E+03 -0.35379551220E+03  0.45654834518E+03  0.12500000000E+03 0.  0.
</event>
<event>
 5    0  0.5677492E-005  0.3289518E+03  0.7546771E-02  0.1071602E+00
         21   -1    0    0  502  501  0.00000000000E+00  0.00000000000E+00  0.20152615032E+03  0.20152615032E+03  0.00000000000E+00 0.  1.
         21   -1    0    0  501  502 -0.00000000000E+00 -0.00000000000E+00 -0.53694925080E+03  0.53694925080E+03  0.00000000000E+00 0.  1.
         25    1    1    2    0    0  0.53105316362E+02 -0.66647888251E+02 -0.33247180749E+03  0.36527334752E+03  0.12500000000E+03 0.  0.
         25    1    1    2    0    0 -0.15883567139E+03  0.33846971742E+02 -0.16989176509E+02  0.20564051186E+03  0.12500000000E+03 0.  0.
         25    1    1    2    0    0  0.10573035502E+03  0.32800916510E+02  0.14037883520E+02  0.16756154174E+03  0.12500000000E+03 0.  0.
</event>
<event>
 5    0  0.5677492E-005  0.3031944E+03  0.7546771E-02  0.1083655E+00
         21   -1    0    0  502  501  0.00000000000E+00  0.00000000000E+00  0.50756329175E+03  0.50756329175E+03  0.00000000000E+00 0. -1.
         21   -1    0    0  501  502 -0.00000000000E+00 -0.00000000000E+00 -0.18111405907E+03  0.18111405907E+03  0.00000000000E+00 0. -1.
         25    1    1    2    0    0  0.45030038693E+02  0.12780929556E+03  0.11371065777E+03  0.21660571116E+03  0.12500000000E+03 0.  0.
         25    1    1    2    0    0 -0.17124533421E+03 -0.22719332057E+02  0.12984783284E+03  0.24965294357E+03  0.12500000000E+03 0.  0.
         25    1    1    2    0    0  0.12621529552E+03 -0.10508996351E+03  0.82890742064E+02  0.22241869610E+03  0.12500000000E+03 0.  0.
</event>
<event>
 5    0  0.5677492E-005  0.2959917E+03  0.7546771E-02  0.1087262E+00
         21   -1    0    0  502  501  0.00000000000E+00  0.00000000000E+00  0.26435119152E+04  0.26435119152E+04  0.00000000000E+00 0. -1.
         21   -1    0    0  501  502 -0.00000000000E+00 -0.00000000000E+00 -0.33141939358E+02  0.33141939358E+02  0.00000000000E+00 0. -1.
         25    1    1    2    0    0 -0.71052503924E+02 -0.46086865585E+02  0.92859678637E+03  0.94079192660E+03  0.12500000000E+03 0.  0.
         25    1    1    2    0    0 -0.12198396094E+03 -0.37970133159E+02  0.86041946524E+03  0.87878807109E+03  0.12500000000E+03 0.  0.
         25    1    1    2    0    0  0.19303646487E+03  0.84056998744E+02  0.82135372423E+03  0.85707385686E+03  0.12500000000E+03 0.  0.
</event>
<event>
 5    0  0.5677492E-005  0.2508065E+03  0.7546771E-02  0.1112796E+00
         21   -1    0    0  502  501  0.00000000000E+00  0.00000000000E+00  0.18839130054E+03  0.18839130054E+03  0.00000000000E+00 0. -1.
         21   -1    0    0  501  502 -0.00000000000E+00 -0.00000000000E+00 -0.33390016791E+03  0.33390016791E+03  0.00000000000E+00 0. -1.
         25    1    1    2    0    0  0.29976788781E+02 -0.12014898891E+02 -0.53795568699E+02  0.13986396560E+03  0.12500000000E+03 0.  0.
         25    1    1    2    0    0  0.49885730065E+02  0.76620597561E+02 -0.14493128924E+03  0.21210700280E+03  0.12500000000E+03 0.  0.
         25    1    1    2    0    0 -0.79862518845E+02 -0.64605698670E+02  0.53217990567E+02  0.17032050005E+03  0.12500000000E+03 0.  0.
</event>
<event>
 5    0  0.5677492E-005  0.4322901E+03  0.7546771E-02  0.1033139E+00
         21   -1    0    0  502  501  0.00000000000E+00  0.00000000000E+00  0.26570515400E+03  0.26570515400E+03  0.00000000000E+00 0.  1.
         21   -1    0    0  501  502 -0.00000000000E+00 -0.00000000000E+00 -0.70331607833E+03  0.70331607833E+03  0.00000000000E+00 0.  1.
         25    1    1    2    0    0 -0.15621709025E+03  0.11714925520E+03 -0.18444718245E+03  0.29626591163E+03  0.12500000000E+03 0.  0.
         25    1    1    2    0    0  0.12228196497E+03 -0.31729777171E+03 -0.62845439205E+02  0.36770273880E+03  0.12500000000E+03 0.  0.
         25    1    1    2    0    0  0.33935125281E+02  0.20014851652E+03 -0.19031830267E+03  0.30505258190E+03  0.12500000000E+03 0.  0.
</event>
<event>
 5    0  0.5677492E-005  0.3162131E+03  0.7546771E-02  0.1077405E+00
         21   -1    0    0  502  501  0.00000000000E+00  0.00000000000E+00  0.15395279267E+03  0.15395279267E+03  0.00000000000E+00 0.  1.
         21   -1    0    0  501  502 -0.00000000000E+00 -0.00000000000E+00 -0.64948958254E+03  0.64948958254E+03  0.00000000000E+00 0.  1.
         25    1    1    2    0    0 -0.49285340948E+01  0.83839374840E+02 -0.28968586776E+03  0.32649078578E+03  0.12500000000E+03 0.  0.
         25    1    1    2    0    0  0.48116066229E+02  0.89313064119E+01 -0.27126748733E+03  0.30266478776E+03  0.12500000000E+03 0.  0.
         25    1    1    2    0    0 -0.43187532134E+02 -0.92770681251E+02  0.65416565226E+02  0.17428680167E+03  0.12500000000E+03 0.  0.
</event>
<event>
 5    0  0.5677492E-005  0.2835885E+03  0.7546771E-02  0.1093745E+00
         21   -1    0    0  502  501  0.00000000000E+00  0.00000000000E+00  0.10921249808E+04  0.10921249808E+04  0.00000000000E+00 0. -1.
         21   -1    0    0  501  502 -0.00000000000E+00 -0.00000000000E+00 -0.73638474488E+02  0.73638474488E+02  0.00000000000E+00 0. -1.
         25    1    1    2    0    0 -0.57340579704E+02 -0.10864165359E+03  0.47213651569E+03  0.50361576665E+03  0.12500000000E+03 0.  0.
         25    1    1    2    0    0 -0.23244987321E+02  0.14631689587E+03  0.17818421434E+03  0.26329370993E+03  0.12500000000E+03 0.  0.
         25    1    1    2    0    0  0.80585567025E+02 -0.37675242276E+02  0.36816577624E+03  0.39885397865E+03  0.12500000000E+03 0.  0.
</event>
<event>
 5    0  0.5677492E-005  0.2618629E+03  0.7546771E-02  0.1106029E+00
         21   -1    0    0  502  501  0.00000000000E+00  0.00000000000E+00  0.91466944233E+03  0.91466944233E+03  0.00000000000E+00 0. -1.
         21   -1    0    0  501  502 -0.00000000000E+00 -0.00000000000E+00 -0.74969339776E+02  0.74969339776E+02  0.00000000000E+00 0. -1.
         25    1    1    2    0    0 -0.23606590391E+02 -0.18714481401E+01  0.26580221148E+03  0.29468048638E+03  0.12500000000E+03 0.  0.
         25    1    1    2    0    0  0.59047045806E+02 -0.11284978195E+02  0.54344037479E+03  0.56086214465E+03  0.12500000000E+03 0.  0.
         25    1    1    2    0    0 -0.35440455415E+02  0.13156426335E+02  0.30457516287E+02  0.13409615107E+03  0.12500000000E+03 0.  0.
</event>
<event>
 5    0  0.5677492E-005  0.3498533E+03  0.7546771E-02  0.1062675E+00
         21   -1    0    0  502  501  0.00000000000E+00  0.00000000000E+00  0.52233576241E+02  0.52233576241E+02  0.00000000000E+00 0. -1.
         21   -1    0    0  501  502 -0.00000000000E+00 -0.00000000000E+00 -0.23432685813E+04  0.23432685813E+04  0.00000000000E+00 0. -1.
         25    1    1    2    0    0  0.13592540068E+03  0.20870135685E+03 -0.10906579930E+04  0.11256961528E+04  0.12500000000E+03 0.  0.
         25    1    1    2    0    0  0.20220983989E+02 -0.80245510632E+02 -0.26267630834E+03  0.30244350403E+03  0.12500000000E+03 0.  0.
         25    1    1    2    0    0 -0.15614638467E+03 -0.12845584622E+03 -0.93770070375E+03  0.96736250067E+03  0.12500000000E+03 0.  0.
</event>
<event>
 5    0  0.5677492E-005  0.3091919E+03  0.7546771E-02  0.1080734E+00
         21   -1    0    0  502  501  0.00000000000E+00  0.00000000000E+00  0.42883495735E+03  0.42883495735E+03  0.00000000000E+00 0.  1.
         21   -1    0    0  501  502 -0.00000000000E+00 -0.00000000000E+00 -0.22292870000E+03  0.22292870000E+03  0.00000000000E+00 0.  1.
         25    1    1    2    0    0  0.58904881122E+02 -0.15112646353E+03  0.19404522571E+03  0.28211264172E+03  0.12500000000E+03 0.  0.
         25    1    1    2    0    0 -0.85640713931E+02  0.82084413519E+02  0.10047216614E+03  0.19947891867E+03  0.12500000000E+03 0.  0.
         25    1    1    2    0    0  0.26735832809E+02  0.69042050015E+02 -0.88611134493E+02  0.17017209696E+03  0.12500000000E+03 0.  0.
</event>
<event>
 5    0  0.5677492E-005  0.3230157E+03  0.7546771E-02  0.1074270E+00
         21   -1    0    0  502  501  0.00000000000E+00  0.00000000000E+00  0.74114101647E+03  0.74114101647E+03  0.00000000000E+00 0.  1.
         21   -1    0    0  501  502 -0.00000000000E+00 -0.00000000000E+00 -0.14078177960E+03  0.14078177960E+03  0.00000000000E+00 0.  1.
         25    1    1    2    0    0  0.78953198737E+02 -0.64679156698E+02  0.41174082862E+02  0.16654520708E+03  0.12500000000E+03 0.  0.
         25    1    1    2    0    0  0.10212629001E+03  0.63628881890E+02  0.42150289000E+03  0.45581586195E+03  0.12500000000E+03 0.  0.
         25    1    1    2    0    0 -0.18107948875E+03  0.10502748084E+01  0.13768226400E+03  0.25956172704E+03  0.12500000000E+03 0.  0.
</event>
<event>
 5    0  0.5677492E-005  0.3460485E+03  0.7546771E-02  0.1064249E+00
         21   -1    0    0  502  501  0.00000000000E+00  0.00000000000E+00  0.64109346281E+02  0.64109346281E+02  0.00000000000E+00 0.  1.
         21   -1    0    0  501  502 -0.00000000000E+00 -0.00000000000E+00 -0.18678952722E+04  0.18678952722E+04  0.00000000000E+00 0.  1.
         25    1    1    2    0    0 -0.38679376665E+02  0.22352993231E+03 -0.33682806349E+03  0.42489983428E+03  0.12500000000E+03 0.  0.
         25    1    1    2    0    0  0.52489831187E+02 -0.12875324720E+03 -0.73608461858E+03  0.75945911461E+03  0.12500000000E+03 0.  0.
         25    1    1    2    0    0 -0.13810454522E+02 -0.94776685110E+02 -0.73087324384E+03  0.74764566959E+03  0.12500000000E+03 0.  0.
</event>
<event>
 5    0  0.5677492E-005  0.3535562E+03  0.7546771E-02  0.1061165E+00
         21   -1    0    0  502  501  0.00000000000E+00  0.00000000000E+00  0.32398137229E+03  0.32398137229E+03  0.00000000000E+00 0. -1.
         21   -1    0    0  501  502 -0.00000000000E+00 -0.00000000000E+00 -0.38583083844E+03  0.38583083844E+03  0.00000000000E+00 0. -1.
         25    1    1    2    0    0  0.24442185121E+03  0.46622505771E+02 -0.92497269785E+02  0.29342195608E+03  0.12500000000E+03 0.  0.
         25    1    1    2    0    0 -0.29610442894E+01 -0.24119377352E+02  0.62245660895E+02  0.14173931864E+03  0.12500000000E+03 0.  0.
         25    1    1    2    0    0 -0.24146080692E+03 -0.22503128419E+02 -0.31597857266E+02  0.27465093601E+03  0.12500000000E+03 0.  0.
</event>
<event>
 5    0  0.5677492E-005  0.3274771E+03  0.7546771E-02  0.1072259E+00
         21   -1    0    0  502  501  0.00000000000E+00  0.00000000000E+00  0.16132491376E+03  0.16132491376E+03  0.00000000000E+00 0. -1.
         21   -1    0    0  501  502 -0.00000000000E+00 -0.00000000000E+00 -0.66475330101E+03  0.66475330101E+03  0.00000000000E+00 0. -1.
         25    1    1    2    0    0 -0.10826154754E+03 -0.20608445509E+03 -0.22349321378E+03  0.34607164274E+03  0.12500000000E+03 0.  0.
         25    1    1    2    0    0  0.83554137895E+02  0.19473785902E+02 -0.55288220604E+02  0.16137629824E+03  0.12500000000E+03 0.  0.
         25    1    1    2    0    0  0.24707409642E+02  0.18661066919E+03 -0.22464695286E+03  0.31863027379E+03  0.12500000000E+03 0.  0.
</event>
<event>
 5    0  0.5677492E-005  0.2743251E+03  0.7546771E-02  0.1098829E+00
         21   -1    0    0  502  501  0.00000000000E+00  0.00000000000E+00  0.17910866425E+03  0.17910866425E+03  0.00000000000E+00 0. -1.
         21   -1    0    0  501  502 -0.00000000000E+00 -0.00000000000E+00 -0.42015975661E+03  0.42015975661E+03  0.00000000000E+00 0. -1.
         25    1    1    2    0    0 -0.83045686956E+02 -0.98050583673E+02  0.53145634557E+02  0.18697583147E+03  0.12500000000E+03 0.  0.
         25    1    1    2    0    0  0.10489234925E+02  0.53023114874E+02 -0.12003619890E+03  0.18153557174E+03  0.12500000000E+03 0.  0.
         25    1    1    2    0    0  0.72556452031E+02  0.45027468800E+02 -0.17416052802E+03  0.23075701766E+03  0.12500000000E+03 0.  0.
</event>
<event>
 5    0  0.5677492E-005  0.3105591E+03  0.7546771E-02  0.1080078E+00
         21   -1    0    0  502  501  0.00000000000E+00  0.00000000000E+00  0.10901474399E+03  0.10901474399E+03  0.00000000000E+00 0. -1.
         21   -1    0    0  501  502 -0.00000000000E+00 -0.00000000000E+00 -0.88471500488E+03  0.88471500488E+03  0.00000000000E+00 0. -1.
         25    1    1    2    0    0 -0.67671028890E+02 -0.13283439659E+03 -0.10332011928E+03  0.22028252794E+03  0.12500000000E+03 0.  0.
         25    1    1    2    0    0  0.14951859684E+03  0.77466911339E+02 -0.47884986868E+03  0.52276106386E+03  0.12500000000E+03 0.  0.
         25    1    1    2    0    0 -0.81847567952E+02  0.55367485250E+02 -0.19353027293E+03  0.25068615706E+03  0.12500000000E+03 0.  0.
</event>
<event>
 5    0  0.5677492E-005  0.3630552E+03  0.7546771E-02  0.1057381E+00
         21   -1    0    0  502  501  0.00000000000E+00  0.00000000000E+00  0.77558762654E+02  0.77558762654E+02  0.00000000000E+00 0. -1.
         21   -1    0    0  501  502 -0.00000000000E+00 -0.00000000000E+00 -0.16994737608E+04  0.16994737608E+04  0.00000000000E+00 0. -1.
         25    1    1    2    0    0  0.10488292548E+03 -0.18912268174E+03 -0.93367194028E+03  0.96650716959E+03  0.12500000000E+03 0.  0.
         25    1    1    2    0    0  0.56689268309E+02  0.64658555180E+01 -0.13245672516E+03  0.19085403970E+03  0.12500000000E+03 0.  0.
         25    1    1    2    0    0 -0.16157219379E+03  0.18265682622E+03 -0.55578633267E+03  0.61967131413E+03  0.12500000000E+03 0.  0.
</event>
<event>
 5    0  0.5677492E-005  0.2963171E+03  0.7546771E-02  0.1087096E+00
         21   -1    0    0  502  501  0.00000000000E+00  0.00000000000E+00  0.94431420551E+03  0.94431420551E+03  0.00000000000E+00 0. -1.
         21   -1    0    0  501  502 -0.00000000000E+00 -0.00000000000E+00 -0.92981577199E+02  0.92981577199E+02  0.00000000000E+00 0. -1.
         25    1    1    2    0    0  0.10793954704E+03 -0.15680353248E+02  0.74021463506E+02  0.18166176359E+03  0.12500000000E+03 0.  0.
         25    1    1    2    0    0 -0.15334324309E+03 -0.55924638070E+02  0.47930025261E+03  0.52153182789E+03  0.12500000000E+03 0.  0.
         25    1    1    2    0    0  0.45403696056E+02  0.71604991318E+02  0.29801091219E+03  0.33410219122E+03  0.12500000000E+03 0.  0.
</event>
<event>
 5    0  0.5677492E-005  0.3248188E+03  0.7546771E-02  0.1073453E+00
         21   -1    0    0  502  501  0.00000000000E+00  0.00000000000E+00  0.20545662285E+03  0.20545662285E+03  0.00000000000E+00 0. -1.
         21   -1    0    0  501  502 -0.00000000000E+00 -0.00000000000E+00 -0.51352571885E+03  0.51352571885E+03  0.00000000000E+00 0. -1.
         25    1    1    2    0    0  0.52664491636E+02 -0.10957311177E+03 -0.15525164279E+03  0.23346924442E+03  0.12500000000E+03 0.  0.
         25    1    1    2    0    0 -0.91985696915E+02 -0.34664663575E+02  0.83175042985E+02  0.17946056701E+03  0.12500000000E+03 0.  0.
         25    1    1    2    0    0  0.39321205279E+02  0.14423777535E+03 -0.23599249620E+03  0.30605253027E+03  0.12500000000E+03 0.  0.
</event>
<event>
 5    0  0.5677492E-005  0.3279203E+03  0.7546771E-02  0.1072061E+00
         21   -1    0    0  502  501  0.00000000000E+00  0.00000000000E+00  0.79573400747E+02  0.79573400747E+02  0.00000000000E+00 0. -1.
         21   -1    0    0  501  502 -0.00000000000E+00 -0.00000000000E+00 -0.13513522114E+04  0.13513522114E+04  0.00000000000E+00 0. -1.
         25    1    1    2    0    0 -0.38712035632E+02  0.13794456221E+03 -0.47074139420E+03  0.50769063824E+03  0.12500000000E+03 0.  0.
         25    1    1    2    0    0  0.18017335038E+03 -0.12439057029E+03 -0.32767139743E+03  0.41343559941E+03  0.12500000000E+03 0.  0.
         25    1    1    2    0    0 -0.14146131475E+03 -0.13553991922E+02 -0.47336601900E+03  0.50979937447E+03  0.12500000000E+03 0.  0.
</event>
<event>
 5    0  0.5677492E-005  0.4614288E+03  0.7546771E-02  0.1024368E+00
         21   -1    0    0  502  501  0.00000000000E+00  0.00000000000E+00  0.24315419470E+03  0.24315419470E+03  0.00000000000E+00 0. -1.
         21   -1    0    0  501  502 -0.00000000000E+00 -0.00000000000E+00 -0.87564404462E+03  0.87564404462E+03  0.00000000000E+00 0.  1.
         25    1    1    2    0    0 -0.10076476972E+03 -0.31653289773E+03 -0.27875255442E+03  0.45130322485E+03  0.12500000000E+03 0.  0.
         25    1    1    2    0    0  0.69769342054E+02 -0.68919871589E+02 -0.11537006441E+03  0.19634908086E+03  0.12500000000E+03 0.  0.
         25    1    1    2    0    0  0.30995427666E+02  0.38545276932E+03 -0.23836723108E+03  0.47114593362E+03  0.12500000000E+03 0.  0.
</event>
<event>
 5    0  0.5677492E-005  0.2637296E+03  0.7546771E-02  0.1104923E+00
         21   -1    0    0  502  501  0.00000000000E+00  0.00000000000E+00  0.11335572500E+04  0.11335572500E+04  0.00000000000E+00 0.  1.
         21   -1    0    0  501  502 -0.00000000000E+00 -0.00000000000E+00 -0.61358430462E+02  0.61358430462E+02  0.00000000000E+00 0.  1.
         25    1    1    2    0    0  0.12030820007E+02  0.17080760382E+02  0.37914831205E+03  0.39976860249E+03  0.12500000000E+03 0.  0.
         25    1    1    2    0    0  0.13897793221E+03 -0.20582126870E+02  0.27190107027E+03  0.33059594916E+03  0.12500000000E+03 0.  0.
         25    1    1    2    0    0 -0.15100875222E+03  0.35013664879E+01  0.42114943721E+03  0.46455112881E+03  0.12500000000E+03 0.  0.
</event>
<event>
 5    0  0.5677492E-005  0.6124700E+03  0.7546771E-02  0.9879867E-01
         21   -1    0    0  502  501  0.00000000000E+00  0.00000000000E+00  0.61186679386E+03  0.61186679386E+03  0.00000000000E+00 0.  1.
         21   -1    0    0  501  502 -0.00000000000E+00 -0.00000000000E+00 -0.61307376112E+03  0.61307376112E+03  0.00000000000E+00 0.  1.
         25    1    1    2    0    0 -0.63373416111E+02  0.66090371375E+02  0.90681668215E+02  0.17953354007E+03  0.12500000000E+03 0.  0.
         25    1    1    2    0    0  0.11733644670E+03 -0.26584918702E+03 -0.48787824426E+03  0.58145835034E+03  0.12500000000E+03 0.  0.
         25    1    1    2    0    0 -0.53963030585E+02  0.19975881564E+03  0.39598960878E+03  0.46394866457E+03  0.12500000000E+03 0.  0.
</event>
<event>
 5    0  0.5677492E-005  0.3992075E+03  0.7546771E-02  0.1044054E+00
         21   -1    0    0  502  501  0.00000000000E+00  0.00000000000E+00  0.23074909812E+03  0.23074909812E+03  0.00000000000E+00 0. -1.
         21   -1    0    0  501  502 -0.00000000000E+00 -0.00000000000E+00 -0.69064886434E+03  0.69064886434E+03  0.00000000000E+00 0.  1.
         25    1    1    2    0    0  0.59771726142E+02  0.12302369640E+02  0.49116335389E+02  0.14751753098E+03  0.12500000000E+03 0.  0.
         25    1    1    2    0    0 -0.23892404217E+03 -0.59416113564E+02 -0.75655897451E+02  0.28629318416E+03  0.12500000000E+03 0.  0.
         25    1    1    2    0    0  0.17915231603E+03  0.47113743924E+02 -0.43336020416E+03  0.48758724732E+03  0.12500000000E+03 0.  0.
</event>
<event>
 5    0  0.5677492E-005  0.3860782E+03  0.7546771E-02  0.1048710E+00
         21   -1    0    0  502  501  0.00000000000E+00  0.00000000000E+00  0.19589315568E+03  0.19589315568E+03  0.00000000000E+00 0. -1.
         21   -1    0    0  501  502 -0.00000000000E+00 -0.00000000000E+00 -0.76090645879E+03  0.76090645879E+03  0.00000000000E+00 0. -1.
         25    1    1    2    0    0 -0.11170565129E+03  0.31440002857E+02 -0.28069090675E+03  0.32844940469E+03  0.12500000000E+03 0.  0.
         25    1    1    2    0    0  0.24395962431E+03 -0.10947261861E+03 -0.31074917024E+03  0.42859141303E+03  0.12500000000E+03 0.  0.
         25    1    1    2    0    0 -0.13225397303E+03  0.78032615758E+02  0.26426773875E+02  0.19975879675E+03  0.12500000000E+03 0.  0.
</event>
<event>
 5    0  0.5677492E-005  0.3317243E+03  0.7546771E-02  0.1070376E+00
         21   -1    0    0  502  501  0.00000000000E+00  0.00000000000E+00  0.47330052050E+03  0.47330052050E+03  0.00000000000E+00 0. -1.
         21   -1    0    0  501  502 -0.00000000000E+00 -0.00000000000E+00 -0.23249716601E+03  0.23249716601E+03  0.00000000000E+00 0. -1.
         25    1    1    2    0    0  0.17252062502E+03  0.17061980575E+03  0.10500833079E+03  0.29244868560E+03  0.12500000000E+03 0.  0.
         25    1    1    2    0    0 -0.13428006679E+02 -0.13513558742E+03  0.54697275422E+02  0.19250644220E+03  0.12500000000E+03 0.  0.
         25    1    1    2    0    0 -0.15909261834E+03 -0.35484218337E+02  0.81097748281E+02  0.22084255871E+03  0.12500000000E+03 0.  0.
</event>
<event>
 5    0  0.5677492E-005  0.2261599E+03  0.7546771E-02  0.1129372E+00
         21   -1    0    0  502  501  0.00000000000E+00  0.00000000000E+00  0.13382148572E+03  0.13382148572E+03  0.00000000000E+00 0.  1.
         21   -1    0    0  501  502 -0.00000000000E+00 -0.00000000000E+00 -0.38221302926E+03  0.38221302926E+03  0.00000000000E+00 0.  1.
         25    1    1    2    0    0  0.50678078144E+01  0.92700389607E+02 -0.10536563261E+03  0.18800521654E+03  0.12500000000E+03 0.  0.
         25    1    1    2    0    0 -0.10517704620E+02 -0.73697601833E+02 -0.12184043163E+02  0.14599797784E+03  0.12500000000E+03 0.  0.
         25    1    1    2    0    0  0.54498968058E+01 -0.19002787774E+02 -0.13084186776E+03  0.18203132059E+03  0.12500000000E+03 0.  0.
</event>
<event>
 5    0  0.5677492E-005  0.4020822E+03  0.7546771E-02  0.1043061E+00
         21   -1    0    0  502  501  0.00000000000E+00  0.00000000000E+00  0.13000715149E+04  0.13000715149E+04  0.00000000000E+00 0. -1.
         21   -1    0    0  501  502 -0.00000000000E+00 -0.00000000000E+00 -0.12435475199E+03  0.12435475199E+03  0.00000000000E+00 0. -1.
         25    1    1    2    0    0  0.13995589105E+01  0.16539618517E+03  0.35436746610E+03  0.41055956677E+03  0.12500000000E+03 0.  0.
         25    1    1    2    0    0  0.19090029656E+03 -0.84141144683E+02  0.11938277660E+03  0.27092416431E+03  0.12500000000E+03 0.  0.
         25    1    1    2    0    0 -0.19229985547E+03 -0.81255040488E+02  0.70196652021E+03  0.74294253581E+03  0.12500000000E+03 0.  0.
</event>
<event>
 5    0  0.5677492E-005  0.3946838E+03  0.7546771E-02  0.1045636E+00
         21   -1    0    0  502  501  0.00000000000E+00  0.00000000000E+00  0.25249830223E+03  0.25249830223E+03  0.00000000000E+00 0.  1.
         21   -1    0    0  501  502 -0.00000000000E+00 -0.00000000000E+00 -0.61693616558E+03  0.61693616558E+03  0.00000000000E+00 0.  1.
         25    1    1    2    0    0 -0.73391565094E+02  0.32978972821E+02  0.35565309412E+02  0.15285230031E+03  0.12500000000E+03 0.  0.
         25    1    1    2    0    0 -0.15158332379E+03  0.12850023409E+03 -0.28244333649E+02  0.23645836123E+03  0.12500000000E+03 0.  0.
         25    1    1    2    0    0  0.22497488888E+03 -0.16147920691E+03 -0.37175883912E+03  0.48012380628E+03  0.12500000000E+03 0.  0.
</event>
<event>
 5    0  0.5677492E-005  0.3403987E+03  0.7546771E-02  0.1066626E+00
         21   -1    0    0  502  501  0.00000000000E+00  0.00000000000E+00  0.17513521752E+04  0.17513521752E+04  0.00000000000E+00 0.  1.
         21   -1    0    0  501  502 -0.00000000000E+00 -0.00000000000E+00 -0.66161024713E+02  0.66161024713E+02  0.00000000000E+00 0.  1.
         25    1    1    2    0    0  0.89885086533E+02 -0.87572548128E+00  0.90949752830E+03  0.92243745027E+03  0.12500000000E+03 0.  0.
         25    1    1    2    0    0 -0.11205510097E+03 -0.46957362721E+02  0.73212046675E+03  0.75258668431E+03  0.12500000000E+03 0.  0.
         25    1    1    2    0    0  0.22170014439E+02  0.47833088202E+02  0.43573155451E+02  0.14248906535E+03  0.12500000000E+03 0.  0.
</event>
<event>
 5    0  0.5677492E-005  0.3767069E+03  0.7546771E-02  0.1052158E+00
         21   -1    0    0  502  501  0.00000000000E+00  0.00000000000E+00  0.73352695235E+02  0.73352695235E+02  0.00000000000E+00 0.  1.
         21   -1    0    0  501  502 -0.00000000000E+00 -0.00000000000E+00 -0.19345998123E+04  0.19345998123E+04  0.00000000000E+00 0.  1.
         25    1    1    2    0    0  0.24146989094E+03  0.19432294286E+02 -0.52150958037E+03  0.58845778498E+03  0.12500000000E+03 0.  0.
         25    1    1    2    0    0 -0.23402943923E+03  0.96643093715E+02 -0.64534818152E+03  0.70442099726E+03  0.12500000000E+03 0.  0.
         25    1    1    2    0    0 -0.74404517076E+01 -0.11607538800E+03 -0.69438935521E+03  0.71507372532E+03  0.12500000000E+03 0.  0.
</event>
<event>
 5    0  0.5677492E-005  0.4013360E+03  0.7546771E-02  0.1043318E+00
         21   -1    0    0  502  501  0.00000000000E+00  0.00000000000E+00  0.75272656822E+02  0.75272656822E+02  0.00000000000E+00 0. -1.
         21   -1    0    0  501  502 -0.00000000000E+00 -0.00000000000E+00 -0.21398282548E+04  0.21398282548E+04  0.00000000000E+00 0. -1.
         25    1    1    2    0    0  0.12563298998E+03  0.13145952800E+03 -0.31286355503E+03  0.38284965684E+03  0.12500000000E+03 0.  0.
         25    1    1    2    0    0 -0.15812439492E+03  0.12135861518E+02 -0.26551316475E+03  0.33357584454E+03  0.12500000000E+03 0.  0.
         25    1    1    2    0    0  0.32491404943E+02 -0.14359538952E+03 -0.14861788782E+04  0.14986754103E+04  0.12500000000E+03 0.  0.
</event>
<event>
 5    0  0.5677492E-005  0.3060726E+03  0.7546771E-02  0.1082244E+00
         21   -1    0    0  502  501  0.00000000000E+00  0.00000000000E+00  0.22748201848E+04  0.22748201848E+04  0.00000000000E+00 0.  1.
         21   -1    0    0  501  502 -0.00000000000E+00 -0.00000000000E+00 -0.41181456353E+02  0.41181456353E+02  0.00000000000E+00 0.  1.
         25    1    1    2    0    0  0.21233017240E+03 -0.34666567606E+02  0.68336348763E+03  0.72725272722E+03  0.12500000000E+03 0.  0.
         25    1    1    2    0    0 -0.83060429062E+02  0.28320914100E+02  0.48796831670E+03  0.51131124294E+03  0.12500000000E+03 0.  0.
         25    1    1    2    0    0 -0.12926974333E+03  0.63456535066E+01  0.10623069241E+04  0.10774376710E+04  0.12500000000E+03 0.  0.
</event>
<event>
 5    0  0.5677492E-005  0.6352024E+03  0.7546771E-02  0.9834949E-01
         21   -1    0    0  502  501  0.00000000000E+00  0.00000000000E+00  0.21035304286E+03  0.21035304286E+03  0.00000000000E+00 0.  1.
         21   -1    0    0  501  502 -0.00000000000E+00 -0.00000000000E+00 -0.19181184469E+04  0.19181184469E+04  0.00000000000E+00 0.  1.
         25    1    1    2    0    0 -0.21919606739E+03  0.33392049992E+01 -0.11372102303E+04  0.11648734585E+04  0.12500000000E+03 0.  0.
         25    1    1    2    0    0 -0.14302224706E+02  0.23722983957E+03 -0.54174083488E+03  0.60464095345E+03  0.12500000000E+03 0.  0.
         25    1    1    2    0    0  0.23349829209E+03 -0.24056904457E+03 -0.28814338819E+02  0.35895707785E+03  0.12500000000E+03 0.  0.
</event>
<event>
 5    0  0.5677492E-005  0.3447534E+03  0.7546771E-02  0.1064789E+00
         21   -1    0    0  502  501  0.00000000000E+00  0.00000000000E+00  0.20783440925E+03  0.20783440925E+03  0.00000000000E+00 0. -1.
         21   -1    0    0  501  502 -0.00000000000E+00 -0.00000000000E+00 -0.57187320348E+03  0.57187320348E+03  0.00000000000E+00 0. -1.
         25    1    1    2    0    0  0.10925744486E+03  0.90164752206E+02 -0.23207846266E+03  0.29925287739E+03  0.12500000000E+03 0.  0.
         25    1    1    2    0    0  0.23054969452E+02  0.39583525404E+02 -0.20574559803E+03  0.24506047867E+03  0.12500000000E+03 0.  0.
         25    1    1    2    0    0 -0.13231241431E+03 -0.12974827761E+03  0.73785266456E+02  0.23539425666E+03  0.12500000000E+03 0.  0.
</event>
<event>
 5    0  0.5677492E-005  0.4130778E+03  0.7546771E-02  0.1039343E+00
         21   -1    0    0  502  501  0.00000000000E+00  0.00000000000E+00  0.75740960652E+03  0.75740960652E+03  0.00000000000E+00 0.  1.
         21   -1    0    0  501  502 -0.00000000000E+00 -0.00000000000E+00 -0.22528527482E+03  0.22528527482E+03  0.00000000000E+00 0.  1.
         25    1    1    2    0    0  0.18346889887E+02 -0.35149695909E+02  0.42084080199E+03  0.44079937626E+03  0.12500000000E+03 0.  0.
         25    1    1    2    0    0 -0.19327637944E+03  0.22860201643E+02  0.20306927439E+03  0.30779941174E+03  0.12500000000E+03 0.  0.
         25    1    1    2    0    0  0.17492948956E+03  0.12289494265E+02 -0.91785744678E+02  0.23409609333E+03  0.12500000000E+03 0.  0.
</event>
<event>
 5    0  0.5677492E-005  0.2321514E+03  0.7546771E-02  0.1125135E+00
         21   -1    0    0  502  501  0.00000000000E+00  0.00000000000E+00  0.83133474185E+03  0.83133474185E+03  0.00000000000E+00 0. -1.
         21   -1    0    0  501  502 -0.00000000000E+00 -0.00000000000E+00 -0.64828624514E+02  0.64828624514E+02  0.00000000000E+00 0. -1.
         25    1    1    2    0    0  0.35692285694E+02 -0.37322476740E+02  0.36860653825E+03  0.39263556457E+03  0.12500000000E+03 0.  0.
         25    1    1    2    0    0 -0.35202896024E+02  0.85919483945E+02  0.29822540663E+03  0.33642947964E+03  0.12500000000E+03 0.  0.
         25    1    1    2    0    0 -0.48938967014E+00 -0.48597007205E+02  0.99674172459E+02  0.16709832216E+03  0.12500000000E+03 0.  0.
</event>
<event>
 5    0  0.5677492E-005  0.2837022E+03  0.7546771E-02  0.1093684E+00
         21   -1    0    0  502  501  0.00000000000E+00  0.00000000000E+00  0.93326121025E+03  0.93326121025E+03  0.00000000000E+00 0. -1.
         21   -1    0    0  501  502 -0.00000000000E+00 -0.00000000000E+00 -0.86242696652E+02  0.86242696652E+02  0.00000000000E+00 0. -1.
         25    1    1    2    0    0 -0.60840203444E+02  0.12926612265E+03  0.27683745889E+03  0.33567132654E+03  0.12500000000E+03 0.  0.
         25    1    1    2    0    0  0.12862932114E+03 -0.45478338449E+02  0.17130890161E+03  0.25216169672E+03  0.12500000000E+03 0.  0.
         25    1    1    2    0    0 -0.67789117694E+02 -0.83787784197E+02  0.39887215311E+03  0.43167088364E+03  0.12500000000E+03 0.  0.
</event>
<event>
 5    0  0.5677492E-005  0.3899048E+03  0.7546771E-02  0.1047332E+00
         21   -1    0    0  502  501  0.00000000000E+00  0.00000000000E+00  0.77008985712E+03  0.77008985712E+03  0.00000000000E+00 0.  1.
         21   -1    0    0  501  502 -0.00000000000E+00 -0.00000000000E+00 -0.19741305173E+03  0.19741305173E+03  0.00000000000E+00 0.  1.
         25    1    1    2    0    0  0.24366766327E+03 -0.11390726254E+03  0.95542498498E+02  0.31161220067E+03  0.12500000000E+03 0.  0.
         25    1    1    2    0    0  0.24185243481E+01 -0.94755254341E+01  0.24320164716E+03  0.27361958268E+03  0.12500000000E+03 0.  0.
         25    1    1    2    0    0 -0.24608618762E+03  0.12338278798E+03  0.23393265973E+03  0.38227112551E+03  0.12500000000E+03 0.  0.
</event>
<event>
 5    0  0.5677492E-005  0.4362712E+03  0.7546771E-02  0.1031897E+00
         21   -1    0    0  502  501  0.00000000000E+00  0.00000000000E+00  0.18051591217E+03  0.18051591217E+03  0.00000000000E+00 0. -1.
         21   -1    0    0  501  502 -0.00000000000E+00 -0.00000000000E+00 -0.10543812363E+04  0.10543812363E+04  0.00000000000E+00 0. -1.
         25    1    1    2    0    0  0.31776908693E+01  0.11541471239E+03 -0.83487096281E+02  0.18954088952E+03  0.12500000000E+03 0.  0.
         25    1    1    2    0    0  0.28258201524E+03 -0.70826558817E+02 -0.59623577183E+03  0.67527112509E+03  0.12500000000E+03 0.  0.
         25    1    1    2    0    0 -0.28575970611E+03 -0.44588153574E+02 -0.19414245603E+03  0.37008513387E+03  0.12500000000E+03 0.  0.
</event>
<event>
 5    0  0.5677492E-005  0.2743606E+03  0.7546771E-02  0.1098810E+00
         21   -1    0    0  502  501  0.00000000000E+00  0.00000000000E+00  0.24335501366E+02  0.24335501366E+02  0.00000000000E+00 0.  1.
         21   -1    0    0  501  502 -0.00000000000E+00 -0.00000000000E+00 -0.30931652731E+04  0.30931652731E+04  0.00000000000E+00 0.  1.
         25    1    1    2    0    0 -0.11870401442E+03 -0.92439100963E+02 -0.11183437500E+04  0.11353208241E+04  0.12500000000E+03 0.  0.
         25    1    1    2    0    0  0.60417194900E+02  0.10764438837E+03 -0.15142765012E+04  0.15244329680E+04  0.12500000000E+03 0.  0.
         25    1    1    2    0    0  0.58286819524E+02 -0.15205287407E+02 -0.43620952058E+03  0.45774698245E+03  0.12500000000E+03 0.  0.
</event>
<event>
 5    0  0.5677492E-005  0.3965594E+03  0.7546771E-02  0.1044978E+00
         21   -1    0    0  502  501  0.00000000000E+00  0.00000000000E+00  0.70950641937E+03  0.70950641937E+03  0.00000000000E+00 0. -1.
         21   -1    0    0  501  502 -0.00000000000E+00 -0.00000000000E+00 -0.22164615612E+03  0.22164615612E+03  0.00000000000E+00 0. -1.
         25    1    1    2    0    0  0.34482579747E+02  0.10983831212E+03  0.46490753509E+03  0.49499244368E+03  0.12500000000E+03 0.  0.
         25    1    1    2    0    0  0.93983064210E+02 -0.13236214818E+03 -0.89269845494E+02  0.22348749393E+03  0.12500000000E+03 0.  0.
         25    1    1    2    0    0 -0.12846564396E+03  0.22523836053E+02  0.11222257365E+03  0.21267263788E+03  0.12500000000E+03 0.  0.
</event>
<event>
 5    0  0.5677492E-005  0.2549219E+03  0.7546771E-02  0.1110233E+00
         21   -1    0    0  502  501  0.00000000000E+00  0.00000000000E+00  0.21729615909E+03  0.21729615909E+03  0.00000000000E+00 0.  1.
         21   -1    0    0  501  502 -0.00000000000E+00 -0.00000000000E+00 -0.29906258535E+03  0.29906258535E+03  0.00000000000E+00 0.  1.
         25    1    1    2    0    0 -0.21069289352E+02 -0.71566718811E+02  0.74696712678E+02  0.16361634723E+03  0.12500000000E+03 0.  0.
         25    1    1    2    0    0  0.54449854340E+01  0.12490374679E+03 -0.11023186848E+03  0.20834264723E+03  0.12500000000E+03 0.  0.
         25    1    1    2    0    0  0.15624303918E+02 -0.53337027976E+02 -0.46231270452E+02  0.14439974998E+03  0.12500000000E+03 0.  0.
</event>
<event>
 5    0  0.5677492E-005  0.3200128E+03  0.7546771E-02  0.1075643E+00
         21   -1    0    0  502  501  0.00000000000E+00  0.00000000000E+00  0.56155830920E+02  0.56155830920E+02  0.00000000000E+00 0. -1.
         21   -1    0    0  501  502 -0.00000000000E+00 -0.00000000000E+00 -0.18236433298E+04  0.18236433298E+04  0.00000000000E+00 0. -1.
         25    1    1    2    0    0  0.52442885374E+02  0.28150953126E+02 -0.67353381730E+03  0.68761583419E+03  0.12500000000E+03 0.  0.
         25    1    1    2    0    0 -0.22275168393E+00 -0.12813618321E+03 -0.96132259358E+03  0.97784715574E+03  0.12500000000E+03 0.  0.
         25    1    1    2    0    0 -0.52220133690E+02  0.99985230086E+02 -0.13263108798E+03  0.21433617076E+03  0.12500000000E+03 0.  0.
</event>
<event>
 5    0  0.5677492E-005  0.2640619E+03  0.7546771E-02  0.1104727E+00
         21   -1    0    0  502  501  0.00000000000E+00  0.00000000000E+00  0.37000763105E+03  0.37000763105E+03  0.00000000000E+00 0.  1.
         21   -1    0    0  501  502 -0.00000000000E+00 -0.00000000000E+00 -0.18845199847E+03  0.18845199847E+03  0.00000000000E+00 0.  1.
         25    1    1    2    0    0 -0.69177114696E+02 -0.11826105577E+03 -0.50764231801E+01  0.18553145442E+03  0.12500000000E+03 0.  0.
         25    1    1    2    0    0 -0.32871671933E+02  0.93113372563E+02  0.84715511519E+02  0.18042273930E+03  0.12500000000E+03 0.  0.
         25    1    1    2    0    0  0.10204878663E+03  0.25147683203E+02  0.10191654424E+03  0.19250543580E+03  0.12500000000E+03 0.  0.
</event>
<event>
 5    0  0.5677492E-005  0.2354398E+03  0.7546771E-02  0.1122869E+00
         21   -1    0    0  502  501  0.00000000000E+00  0.00000000000E+00  0.92357038879E+03  0.92357038879E+03  0.00000000000E+00 0. -1.
         21   -1    0    0  501  502 -0.00000000000E+00 -0.00000000000E+00 -0.60019128912E+02  0.60019128912E+02  0.00000000000E+00 0. -1.
         25    1    1    2    0    0 -0.89771756016E+02 -0.52202380146E+02  0.32816495877E+03  0.36619843915E+03  0.12500000000E+03 0.  0.
         25    1    1    2    0    0  0.25086830790E+02  0.89784557852E+02  0.21654827745E+03  0.26684971871E+03  0.12500000000E+03 0.  0.
         25    1    1    2    0    0  0.64684925226E+02 -0.37582177707E+02  0.31883802365E+03  0.35054135984E+03  0.12500000000E+03 0.  0.
</event>
<event>
 5    0  0.5677492E-005  0.3211634E+03  0.7546771E-02  0.1075115E+00
         21   -1    0    0  502  501  0.00000000000E+00  0.00000000000E+00  0.33982976597E+03  0.33982976597E+03  0.00000000000E+00 0.  1.
         21   -1    0    0  501  502 -0.00000000000E+00 -0.00000000000E+00 -0.30352240217E+03  0.30352240217E+03  0.00000000000E+00 0.  1.
         25    1    1    2    0    0 -0.99850946350E+02 -0.35853745091E+02  0.49157559737E+02  0.17116415572E+03  0.12500000000E+03 0.  0.
         25    1    1    2    0    0 -0.64563468780E+02  0.47187961165E+02  0.14843884303E+03  0.20989100815E+03  0.12500000000E+03 0.  0.
         25    1    1    2    0    0  0.16441441513E+03 -0.11334216074E+02 -0.16128903898E+03  0.26229700427E+03  0.12500000000E+03 0.  0.
</event>
<event>
 5    0  0.5677492E-005  0.3430718E+03  0.7546771E-02  0.1065495E+00
         21   -1    0    0  502  501  0.00000000000E+00  0.00000000000E+00  0.13269815426E+04  0.13269815426E+04  0.00000000000E+00 0.  1.
         21   -1    0    0  501  502 -0.00000000000E+00 -0.00000000000E+00 -0.88696212452E+02  0.88696212452E+02  0.00000000000E+00 0.  1.
         25    1    1    2    0    0  0.12430093105E+03  0.11052450770E+02  0.23708015794E+03  0.29564316230E+03  0.12500000000E+03 0.  0.
         25    1    1    2    0    0  0.40161101195E+02 -0.18107157501E+03  0.57318056621E+03  0.61527294009E+03  0.12500000000E+03 0.  0.
         25    1    1    2    0    0 -0.16446203225E+03  0.17001912424E+03  0.42802460605E+03  0.50476165270E+03  0.12500000000E+03 0.  0.
</event>
<event>
 5    0  0.5677492E-005  0.4128572E+03  0.7546771E-02  0.1039416E+00
         21   -1    0    0  502  501  0.00000000000E+00  0.00000000000E+00  0.37305213806E+03  0.37305213806E+03  0.00000000000E+00 0.  1.
         21   -1    0    0  501  502 -0.00000000000E+00 -0.00000000000E+00 -0.45690955275E+03  0.45690955275E+03  0.00000000000E+00 0.  1.
         25    1    1    2    0    0  0.73541681955E+02 -0.63367543044E+02  0.21098633201E+03  0.26374998917E+03  0.12500000000E+03 0.  0.
         25    1    1    2    0    0  0.46607702909E+01  0.21970995440E+03 -0.87353114558E+02  0.26748785667E+03  0.12500000000E+03 0.  0.
         25    1    1    2    0    0 -0.78202452246E+02 -0.15634241136E+03 -0.20749063214E+03  0.29872384497E+03  0.12500000000E+03 0.  0.
</event>
<event>
 5    0  0.5677492E-005  0.4394767E+03  0.7546771E-02  0.1030907E+00
         21   -1    0    0  502  501  0.00000000000E+00  0.00000000000E+00  0.37105357836E+03  0.37105357836E+03  0.00000000000E+00 0.  1.
         21   -1    0    0  501  502 -0.00000000000E+00 -0.00000000000E+00 -0.52051721679E+03  0.52051721679E+03  0.00000000000E+00 0.  1.
         25    1    1    2    0    0  0.17346454062E+03  0.26988027599E+03 -0.31160446788E+02  0.34571850350E+03  0.12500000000E+03 0.  0.
         25    1    1    2    0    0 -0.43127910600E+02 -0.11151180171E+03 -0.22435030922E+03  0.28328953359E+03  0.12500000000E+03 0.  0.
         25    1    1    2    0    0 -0.13033663002E+03 -0.15836847428E+03  0.10604711758E+03  0.26256275806E+03  0.12500000000E+03 0.  0.
</event>
<event>
 5    0  0.5677492E-005  0.4245841E+03  0.7546771E-02  0.1035585E+00
         21   -1    0    0  502  501  0.00000000000E+00  0.00000000000E+00  0.26511899115E+03  0.26511899115E+03  0.00000000000E+00 0. -1.
         21   -1    0    0  501  502 -0.00000000000E+00 -0.00000000000E+00 -0.67996493019E+03  0.67996493019E+03  0.00000000000E+00 0. -1.
         25    1    1    2    0    0 -0.17874207707E+03 -0.13419494069E+03 -0.67711752552E+02  0.26489034270E+03  0.12500000000E+03 0.  0.
         25    1    1    2    0    0  0.27168764733E+03  0.16491735108E+03 -0.52539896659E+02  0.34553921794E+03  0.12500000000E+03 0.  0.
         25    1    1    2    0    0 -0.92945570253E+02 -0.30722410390E+02 -0.29459428983E+03  0.33465436070E+03  0.12500000000E+03 0.  0.
</event>
<event>
 5    0  0.5677492E-005  0.3366488E+03  0.7546771E-02  0.1068232E+00
         21   -1    0    0  502  501  0.00000000000E+00  0.00000000000E+00  0.67054567901E+03  0.67054567901E+03  0.00000000000E+00 0. -1.
         21   -1    0    0  501  502 -0.00000000000E+00 -0.00000000000E+00 -0.16901520609E+03  0.16901520609E+03  0.00000000000E+00 0. -1.
         25    1    1    2    0    0  0.74353117919E+01  0.22833076709E+03  0.31497179264E+03  0.40868380592E+03  0.12500000000E+03 0.  0.
         25    1    1    2    0    0 -0.31795830368E+00 -0.21756900648E+03  0.72540834663E+02  0.26119637511E+03  0.12500000000E+03 0.  0.
         25    1    1    2    0    0 -0.71173534882E+01 -0.10761760609E+02  0.11401784561E+03  0.16968070406E+03  0.12500000000E+03 0.  0.
</event>
<event>
 5    0  0.5677492E-005  0.2524728E+03  0.7546771E-02  0.1111752E+00
         21   -1    0    0  502  501  0.00000000000E+00  0.00000000000E+00  0.70125429449E+02  0.70125429449E+02  0.00000000000E+00 0.  1.
         21   -1    0    0  501  502 -0.00000000000E+00 -0.00000000000E+00 -0.90897850657E+03  0.90897850657E+03  0.00000000000E+00 0.  1.
         25    1    1    2    0    0 -0.63752200196E+02  0.28510178870E+02 -0.16929371511E+03  0.22172626210E+03  0.12500000000E+03 0.  0.
         25    1    1    2    0    0 -0.18091581576E+02 -0.10146057776E+03 -0.47273476982E+03  0.49972464094E+03  0.12500000000E+03 0.  0.
         25    1    1    2    0    0  0.81843781772E+02  0.72950398890E+02 -0.19682459218E+03  0.25765303298E+03  0.12500000000E+03 0.  0.
</event>
<event>
 5    0  0.5677492E-005  0.2759150E+03  0.7546771E-02  0.1097941E+00
         21   -1    0    0  502  501  0.00000000000E+00  0.00000000000E+00  0.86995464793E+02  0.86995464793E+02  0.00000000000E+00 0. -1.
         21   -1    0    0  501  502 -0.00000000000E+00 -0.00000000000E+00 -0.87509287720E+03  0.87509287720E+03  0.00000000000E+00 0. -1.
         25    1    1    2    0    0 -0.72809285669E+02  0.22541157832E+02 -0.59802609906E+03  0.61568621150E+03  0.12500000000E+03 0.  0.
         25    1    1    2    0    0  0.42220005492E+02 -0.61831819140E+02 -0.14217415842E+03  0.20357847147E+03  0.12500000000E+03 0.  0.
         25    1    1    2    0    0  0.30589280177E+02  0.39290661308E+02 -0.47897154927E+02  0.14282365903E+03  0.12500000000E+03 0.  0.
</event>
<event>
 5    0  0.5677492E-005  0.2532768E+03  0.7546771E-02  0.1111251E+00
         21   -1    0    0  502  501  0.00000000000E+00  0.00000000000E+00  0.67401342432E+02  0.67401342432E+02  0.00000000000E+00 0.  1.
         21   -1    0    0  501  502 -0.00000000000E+00 -0.00000000000E+00 -0.95174879489E+03  0.95174879489E+03  0.00000000000E+00 0.  1.
         25    1    1    2    0    0 -0.33188103083E+02 -0.31359924494E+02 -0.95524702362E+02  0.16381350314E+03  0.12500000000E+03 0.  0.
         25    1    1    2    0    0  0.25212896893E+02  0.57112969991E+02 -0.65695709032E+03  0.67165109993E+03  0.12500000000E+03 0.  0.
         25    1    1    2    0    0  0.79752061895E+01 -0.25753045497E+02 -0.13186565978E+03  0.18368553426E+03  0.12500000000E+03 0.  0.
</event>
<event>
 5    0  0.5677492E-005  0.2228972E+03  0.7546771E-02  0.1131741E+00
         21   -1    0    0  502  501  0.00000000000E+00  0.00000000000E+00  0.13482855260E+03  0.13482855260E+03  0.00000000000E+00 0.  1.
         21   -1    0    0  501  502 -0.00000000000E+00 -0.00000000000E+00 -0.36849125168E+03  0.36849125168E+03  0.00000000000E+00 0.  1.
         25    1    1    2    0    0  0.57097523144E+02  0.40074905509E+02 -0.51917677831E+02  0.15227137115E+03  0.12500000000E+03 0.  0.
         25    1    1    2    0    0 -0.44938564890E+02  0.51740748923E+02 -0.65715734344E+02  0.15697177279E+03  0.12500000000E+03 0.  0.
         25    1    1    2    0    0 -0.12158958254E+02 -0.91815654432E+02 -0.11602928691E+03  0.19407666033E+03  0.12500000000E+03 0.  0.
</event>
<event>
 5    0  0.5677492E-005  0.3866296E+03  0.7546771E-02  0.1048510E+00
         21   -1    0    0  502  501  0.00000000000E+00  0.00000000000E+00  0.45098480297E+03  0.45098480297E+03  0.00000000000E+00 0.  1.
         21   -1    0    0  501  502 -0.00000000000E+00 -0.00000000000E+00 -0.33145785464E+03  0.33145785464E+03  0.00000000000E+00 0.  1.
         25    1    1    2    0    0 -0.29415841723E+01 -0.20526860057E+03  0.19847742797E+03  0.31170842259E+03  0.12500000000E+03 0.  0.
         25    1    1    2    0    0 -0.18550083132E+02 -0.58241233193E+02 -0.10899242284E+03  0.17674980923E+03  0.12500000000E+03 0.  0.
         25    1    1    2    0    0  0.21491667304E+02  0.26350983377E+03  0.30041943203E+02  0.29398442579E+03  0.12500000000E+03 0.  0.
</event>
<event>
 5    0  0.5677492E-005  0.5047595E+03  0.7546771E-02  0.1012544E+00
         21   -1    0    0  502  501  0.00000000000E+00  0.00000000000E+00  0.54891470867E+03  0.54891470867E+03  0.00000000000E+00 0.  1.
         21   -1    0    0  501  502 -0.00000000000E+00 -0.00000000000E+00 -0.46415620116E+03  0.46415620116E+03  0.00000000000E+00 0.  1.
         25    1    1    2    0    0  0.12038220378E+03  0.30480834911E+02  0.40133820698E+03  0.43831303046E+03  0.12500000000E+03 0.  0.
         25    1    1    2    0    0 -0.25045926837E+03  0.43154778078E+02 -0.21064561404E+03  0.35297132277E+03  0.12500000000E+03 0.  0.
         25    1    1    2    0    0  0.13007706459E+03 -0.73635612989E+02 -0.10593408543E+03  0.22178655660E+03  0.12500000000E+03 0.  0.
</event>
<event>
 5    0  0.6078056E-005  0.3529794E+03  0.7546771E-02  0.1061399E+00
         21   -1    0    0  502  501  0.00000000000E+00  0.00000000000E+00  0.44213676143E+03  0.44213676143E+03  0.00000000000E+00 0. -1.
         21   -1    0    0  501  502 -0.00000000000E+00 -0.00000000000E+00 -0.28180066556E+03  0.28180066556E+03  0.00000000000E+00 0. -1.
         25    1    1    2    0    0 -0.22494438004E+03  0.11180422793E+02  0.11348650947E+03  0.28147675534E+03  0.12500000000E+03 0.  0.
         25    1    1    2    0    0  0.10753120253E+03  0.13402182045E+03 -0.20364880808E+01  0.21249460030E+03  0.12500000000E+03 0.  0.
         25    1    1    2    0    0  0.11741317751E+03 -0.14520224324E+03  0.48886074477E+02  0.22996607135E+03  0.12500000000E+03 0.  0.
</event>
<event>
 5    0  0.5677492E-005  0.2641026E+03  0.7546771E-02  0.1104703E+00
         21   -1    0    0  502  501  0.00000000000E+00  0.00000000000E+00  0.23452443506E+03  0.23452443506E+03  0.00000000000E+00 0. -1.
         21   -1    0    0  501  502 -0.00000000000E+00 -0.00000000000E+00 -0.29741126386E+03  0.29741126386E+03  0.00000000000E+00 0. -1.
         25    1    1    2    0    0 -0.10568960170E+03  0.56442664189E+02  0.13071199602E+02  0.17364308943E+03  0.12500000000E+03 0.  0.
         25    1    1    2    0    0  0.28035195135E+02 -0.88046933107E+02  0.48662829683E+02  0.16288433193E+03  0.12500000000E+03 0.  0.
         25    1    1    2    0    0  0.77654406562E+02  0.31604268918E+02 -0.12462085808E+03  0.19540827757E+03  0.12500000000E+03 0.  0.
</event>
<event>
 5    0  0.6103820E-005  0.3780464E+03  0.7546771E-02  0.1051658E+00
         21   -1    0    0  502  501  0.00000000000E+00  0.00000000000E+00  0.55535107466E+03  0.55535107466E+03  0.00000000000E+00 0. -1.
         21   -1    0    0  501  502 -0.00000000000E+00 -0.00000000000E+00 -0.25734910585E+03  0.25734910585E+03  0.00000000000E+00 0. -1.
         25    1    1    2    0    0 -0.14825589080E+02  0.13676122904E+03  0.19423145892E+03  0.26883878347E+03  0.12500000000E+03 0.  0.
         25    1    1    2    0    0  0.12050755826E+03  0.45842622269E+02 -0.11664163370E+03  0.21413521039E+03  0.12500000000E+03 0.  0.
         25    1    1    2    0    0 -0.10568196918E+03 -0.18260385131E+03  0.22041214360E+03  0.32972618666E+03  0.12500000000E+03 0.  0.
</event>
<event>
 5    0  0.5677492E-005  0.3215759E+03  0.7546771E-02  0.1074926E+00
         21   -1    0    0  502  501  0.00000000000E+00  0.00000000000E+00  0.68620200046E+02  0.68620200046E+02  0.00000000000E+00 0.  1.
         21   -1    0    0  501  502 -0.00000000000E+00 -0.00000000000E+00 -0.15070057130E+04  0.15070057130E+04  0.00000000000E+00 0.  1.
         25    1    1    2    0    0 -0.41243658382E+02  0.22938801268E+01 -0.11022621219E+04  0.11100959808E+04  0.12500000000E+03 0.  0.
         25    1    1    2    0    0  0.71538477914E+02 -0.86419587593E+02 -0.16339915113E+03  0.23432964288E+03  0.12500000000E+03 0.  0.
         25    1    1    2    0    0 -0.30294819532E+02  0.84125707466E+02 -0.17272423999E+03  0.23120028942E+03  0.12500000000E+03 0.  0.
</event>
<event>
 5    0  0.5677492E-005  0.3298171E+03  0.7546771E-02  0.1071218E+00
         21   -1    0    0  502  501  0.00000000000E+00  0.00000000000E+00  0.53842387048E+03  0.53842387048E+03  0.00000000000E+00 0.  1.
         21   -1    0    0  501  502 -0.00000000000E+00 -0.00000000000E+00 -0.20203288823E+03  0.20203288823E+03  0.00000000000E+00 0.  1.
         25    1    1    2    0    0  0.43025862831E+02  0.91991211637E+02  0.96439872140E+02  0.18772122104E+03  0.12500000000E+03 0.  0.
         25    1    1    2    0    0 -0.36450629376E+02 -0.25629267888E+03  0.10519565152E+03  0.30611388522E+03  0.12500000000E+03 0.  0.
         25    1    1    2    0    0 -0.65752334544E+01  0.16430146724E+03  0.13475545859E+03  0.24662165244E+03  0.12500000000E+03 0.  0.
</event>
<event>
 5    0  0.5677492E-005  0.3719896E+03  0.7546771E-02  0.1053935E+00
         21   -1    0    0  502  501  0.00000000000E+00  0.00000000000E+00  0.12251220180E+04  0.12251220180E+04  0.00000000000E+00 0. -1.
         21   -1    0    0  501  502 -0.00000000000E+00 -0.00000000000E+00 -0.11294893659E+03  0.11294893659E+03  0.00000000000E+00 0. -1.
         25    1    1    2    0    0  0.83323816686E+02 -0.10082154787E+03  0.81559290987E+02  0.19845594193E+03  0.12500000000E+03 0.  0.
         25    1    1    2    0    0  0.76156828845E+02  0.86035927192E+02  0.12330223784E+03  0.20983442331E+03  0.12500000000E+03 0.  0.
         25    1    1    2    0    0 -0.15948064553E+03  0.14785620675E+02  0.90731155263E+03  0.92978058940E+03  0.12500000000E+03 0.  0.
</event>
<event>
 5    0  0.5677492E-005  0.2586702E+03  0.7546771E-02  0.1107945E+00
         21   -1    0    0  502  501  0.00000000000E+00  0.00000000000E+00  0.48662076311E+03  0.48662076311E+03  0.00000000000E+00 0.  1.
         21   -1    0    0  501  502 -0.00000000000E+00 -0.00000000000E+00 -0.13749984491E+03  0.13749984491E+03  0.00000000000E+00 0.  1.
         25    1    1    2    0    0 -0.74585503201E+02 -0.89772466955E+02  0.13044123307E+03  0.21508604881E+03  0.12500000000E+03 0.  0.
         25    1    1    2    0    0  0.12040982463E+03  0.11696833337E+03  0.14316815956E+03  0.25357886109E+03  0.12500000000E+03 0.  0.
         25    1    1    2    0    0 -0.45824321426E+02 -0.27195866417E+02  0.75511525574E+02  0.15545569812E+03  0.12500000000E+03 0.  0.
</event>
<event>
 5    0  0.5677492E-005  0.3459582E+03  0.7546771E-02  0.1064286E+00
         21   -1    0    0  502  501  0.00000000000E+00  0.00000000000E+00  0.18568169936E+04  0.18568169936E+04  0.00000000000E+00 0.  1.
         21   -1    0    0  501  502 -0.00000000000E+00 -0.00000000000E+00 -0.64458201572E+02  0.64458201572E+02  0.00000000000E+00 0.  1.
         25    1    1    2    0    0  0.65260391705E+02  0.31595693795E+01  0.14695740828E+03  0.20369187871E+03  0.12500000000E+03 0.  0.
         25    1    1    2    0    0 -0.21124650706E+03 -0.70932261462E+02  0.59409329360E+03  0.64670573986E+03  0.12500000000E+03 0.  0.
         25    1    1    2    0    0  0.14598611536E+03  0.67772692083E+02  0.10513080901E+04  0.10708775766E+04  0.12500000000E+03 0.  0.
</event>
<event>
 5    0  0.5677492E-005  0.4630745E+03  0.7546771E-02  0.1023893E+00
         21   -1    0    0  502  501  0.00000000000E+00  0.00000000000E+00  0.14102336172E+03  0.14102336172E+03  0.00000000000E+00 0.  1.
         21   -1    0    0  501  502 -0.00000000000E+00 -0.00000000000E+00 -0.15205846438E+04  0.15205846438E+04  0.00000000000E+00 0.  1.
         25    1    1    2    0    0 -0.27008947298E+03 -0.15401293969E+03 -0.56999347299E+03  0.66120032384E+03  0.12500000000E+03 0.  0.
         25    1    1    2    0    0  0.12789269399E+03  0.21423187422E+03 -0.73839639941E+03  0.78937068591E+03  0.12500000000E+03 0.  0.
         25    1    1    2    0    0  0.14219677899E+03 -0.60218934530E+02 -0.71171409704E+02  0.21103699578E+03  0.12500000000E+03 0.  0.
</event>
<event>
 5    0  0.5677492E-005  0.5353430E+03  0.7546771E-02  0.1004945E+00
         21   -1    0    0  502  501  0.00000000000E+00  0.00000000000E+00  0.19071988469E+03  0.19071988469E+03  0.00000000000E+00 0.  1.
         21   -1    0    0  501  502 -0.00000000000E+00 -0.00000000000E+00 -0.15026863885E+04  0.15026863885E+04  0.00000000000E+00 0.  1.
         25    1    1    2    0    0 -0.65648298659E+01 -0.10961135783E+03 -0.41573456999E+02  0.17149664453E+03  0.12500000000E+03 0.  0.
         25    1    1    2    0    0 -0.67128654643E+01  0.44222720108E+03 -0.88705009820E+03  0.99904596323E+03  0.12500000000E+03 0.  0.
         25    1    1    2    0    0  0.13277695330E+02 -0.33261584324E+03 -0.38334294859E+03  0.52286366540E+03  0.12500000000E+03 0.  0.
</event>
<event>
 5    0  0.5677492E-005  0.2451026E+03  0.7546771E-02  0.1116440E+00
         21   -1    0    0  502  501  0.00000000000E+00  0.00000000000E+00  0.70730549395E+02  0.70730549395E+02  0.00000000000E+00 0.  1.
         21   -1    0    0  501  502 -0.00000000000E+00 -0.00000000000E+00 -0.84935442902E+03  0.84935442902E+03  0.00000000000E+00 0.  1.
         25    1    1    2    0    0  0.47348043435E+02  0.63763284143E+02 -0.40048352886E+03  0.42698905198E+03  0.12500000000E+03 0.  0.
         25    1    1    2    0    0 -0.67772379813E+02  0.44002824401E+02 -0.20120451965E+03  0.25027505419E+03  0.12500000000E+03 0.  0.
         25    1    1    2    0    0  0.20424336378E+02 -0.10776610854E+03 -0.17693583111E+03  0.24282087225E+03  0.12500000000E+03 0.  0.
</event>
<event>
 5    0  0.5677492E-005  0.3162282E+03  0.7546771E-02  0.1077398E+00
         21   -1    0    0  502  501  0.00000000000E+00  0.00000000000E+00  0.36502635980E+03  0.36502635980E+03  0.00000000000E+00 0. -1.
         21   -1    0    0  501  502 -0.00000000000E+00 -0.00000000000E+00 -0.27395355821E+03  0.27395355821E+03  0.00000000000E+00 0. -1.
         25    1    1    2    0    0  0.64131549979E+02 -0.11731790148E+03  0.13123170184E+03  0.22521790621E+03  0.12500000000E+03 0.  0.
         25    1    1    2    0    0 -0.11559711613E+03 -0.19864241920E+02 -0.11578265770E+03  0.20685237535E+03  0.12500000000E+03 0.  0.
         25    1    1    2    0    0  0.51465566148E+02  0.13718214340E+03  0.75623757444E+02  0.20690963645E+03  0.12500000000E+03 0.  0.
</event>
<event>
 5    0  0.5677492E-005  0.3904791E+03  0.7546771E-02  0.1047127E+00
         21   -1    0    0  502  501  0.00000000000E+00  0.00000000000E+00  0.14543093911E+04  0.14543093911E+04  0.00000000000E+00 0. -1.
         21   -1    0    0  501  502 -0.00000000000E+00 -0.00000000000E+00 -0.10484282374E+03  0.10484282374E+03  0.00000000000E+00 0. -1.
         25    1    1    2    0    0 -0.74201354654E+02  0.13730213994E+03  0.36407548675E+03  0.41537173557E+03  0.12500000000E+03 0.  0.
         25    1    1    2    0    0  0.62806828848E+02  0.17546535282E+03  0.25688468927E+03  0.34109753938E+03  0.12500000000E+03 0.  0.
         25    1    1    2    0    0  0.11394525806E+02 -0.31276749275E+03  0.72850639131E+03  0.80268293985E+03  0.12500000000E+03 0.  0.
</event>
<event>
 5    0  0.5677492E-005  0.3326514E+03  0.7546771E-02  0.1069970E+00
         21   -1    0    0  502  501  0.00000000000E+00  0.00000000000E+00  0.10030552946E+03  0.10030552946E+03  0.00000000000E+00 0. -1.
         21   -1    0    0  501  502 -0.00000000000E+00 -0.00000000000E+00 -0.11031991556E+04  0.11031991556E+04  0.00000000000E+00 0. -1.
         25    1    1    2    0    0  0.57518178328E+02  0.14982577630E+02 -0.47262757878E+03  0.49247806723E+03  0.12500000000E+03 0.  0.
         25    1    1    2    0    0 -0.17812638005E+03  0.26617427885E+02 -0.91982600798E+02  0.23774627986E+03  0.12500000000E+03 0.  0.
         25    1    1    2    0    0  0.12060820172E+03 -0.41600005514E+02 -0.43828344656E+03  0.47328033797E+03  0.12500000000E+03 0.  0.
</event>
<event>
 5    0  0.5677492E-005  0.2081880E+03  0.7546771E-02  0.1143009E+00
         21   -1    0    0  502  501  0.00000000000E+00  0.00000000000E+00  0.56425707362E+03  0.56425707362E+03  0.00000000000E+00 0.  1.
         21   -1    0    0  501  502 -0.00000000000E+00 -0.00000000000E+00 -0.76812964667E+02  0.76812964667E+02  0.00000000000E+00 0.  1.
         25    1    1    2    0    0 -0.45991666935E+02 -0.57336238625E+02  0.15470090871E+03  0.21203784767E+03  0.12500000000E+03 0.  0.
         25    1    1    2    0    0  0.52996668792E+02  0.49818892469E+02  0.16180715200E+03  0.21701871668E+03  0.12500000000E+03 0.  0.
         25    1    1    2    0    0 -0.70050018565E+01  0.75173461560E+01  0.17093604824E+03  0.21201347394E+03  0.12500000000E+03 0.  0.
</event>
<event>
 5    0  0.5677492E-005  0.2312304E+03  0.7546771E-02  0.1125777E+00
         21   -1    0    0  502  501  0.00000000000E+00  0.00000000000E+00  0.13481715719E+03  0.13481715719E+03  0.00000000000E+00 0.  1.
         21   -1    0    0  501  502 -0.00000000000E+00 -0.00000000000E+00 -0.39659279054E+03  0.39659279054E+03  0.00000000000E+00 0.  1.
         25    1    1    2    0    0  0.31563705488E+02 -0.31549997274E+02 -0.72296468200E+02  0.15114049473E+03  0.12500000000E+03 0.  0.
         25    1    1    2    0    0  0.22212106588E+02 -0.60326551359E+02 -0.16095074919E+02  0.14148046478E+03  0.12500000000E+03 0.  0.
         25    1    1    2    0    0 -0.53775812075E+02  0.91876548633E+02 -0.17338409023E+03  0.23878898822E+03  0.12500000000E+03 0.  0.
</event>
<event>
 5    0  0.5677492E-005  0.2505808E+03  0.7546771E-02  0.1112938E+00
         21   -1    0    0  502  501  0.00000000000E+00  0.00000000000E+00  0.14410228416E+03  0.14410228416E+03  0.00000000000E+00 0.  1.
         21   -1    0    0  501  502 -0.00000000000E+00 -0.00000000000E+00 -0.43573742051E+03  0.43573742051E+03  0.00000000000E+00 0.  1.
         25    1    1    2    0    0 -0.55855083732E+02  0.77606406589E+01 -0.18419784219E+03  0.22963854857E+03  0.12500000000E+03 0.  0.
         25    1    1    2    0    0  0.22283893499E+02 -0.57443722338E+02 -0.15041824975E+03  0.20505365884E+03  0.12500000000E+03 0.  0.
         25    1    1    2    0    0  0.33571190233E+02  0.49683081679E+02  0.42980955585E+02  0.14514749726E+03  0.12500000000E+03 0.  0.
</event>
<event>
 5    0  0.6104587E-005  0.2773171E+03  0.7546771E-02  0.1097163E+00
         21   -1    0    0  502  501  0.00000000000E+00  0.00000000000E+00  0.57251925638E+03  0.57251925638E+03  0.00000000000E+00 0. -1.
         21   -1    0    0  501  502 -0.00000000000E+00 -0.00000000000E+00 -0.13432698095E+03  0.13432698095E+03  0.00000000000E+00 0. -1.
         25    1    1    2    0    0  0.63222665148E+02  0.68923144080E+02 -0.19169352018E+02  0.15728944413E+03  0.12500000000E+03 0.  0.
         25    1    1    2    0    0 -0.42349762672E+02 -0.10848712403E+03  0.23425600396E+03  0.28993763790E+03  0.12500000000E+03 0.  0.
         25    1    1    2    0    0 -0.20872902476E+02  0.39563979951E+02  0.22310562349E+03  0.25961915530E+03  0.12500000000E+03 0.  0.
</event>
<event>
 5    0  0.5677492E-005  0.2570095E+03  0.7546771E-02  0.1108953E+00
         21   -1    0    0  502  501  0.00000000000E+00  0.00000000000E+00  0.32522486926E+03  0.32522486926E+03  0.00000000000E+00 0. -1.
         21   -1    0    0  501  502 -0.00000000000E+00 -0.00000000000E+00 -0.20310219849E+03  0.20310219849E+03  0.00000000000E+00 0. -1.
         25    1    1    2    0    0 -0.57449651145E+02  0.48282615404E+02  0.38566426084E+01  0.14584768445E+03  0.12500000000E+03 0.  0.
         25    1    1    2    0    0  0.13030552170E+03  0.49640983630E+02  0.42366960026E+02  0.19199925923E+03  0.12500000000E+03 0.  0.
         25    1    1    2    0    0 -0.72855870559E+02 -0.97923599035E+02  0.75899068131E+02  0.19048012407E+03  0.12500000000E+03 0.  0.
</event>
<event>
 5    0  0.5677492E-005  0.3405929E+03  0.7546771E-02  0.1066544E+00
         21   -1    0    0  502  501  0.00000000000E+00  0.00000000000E+00  0.23163984954E+03  0.23163984954E+03  0.00000000000E+00 0. -1.
         21   -1    0    0  501  502 -0.00000000000E+00 -0.00000000000E+00 -0.50079266252E+03  0.50079266252E+03  0.00000000000E+00 0. -1.
         25    1    1    2    0    0 -0.58524074667E+02 -0.79642570101E+02 -0.27879705457E+03  0.32112428112E+03  0.12500000000E+03 0.  0.
         25    1    1    2    0    0  0.15157371060E+03  0.97691855955E+02 -0.76462982447E+02  0.23235721670E+03  0.12500000000E+03 0.  0.
         25    1    1    2    0    0 -0.93049635936E+02 -0.18049285855E+02  0.86107224034E+02  0.17895101424E+03  0.12500000000E+03 0.  0.
</event>
<event>
 5    0  0.5677492E-005  0.2586985E+03  0.7546771E-02  0.1107928E+00
         21   -1    0    0  502  501  0.00000000000E+00  0.00000000000E+00  0.76448541164E+03  0.76448541164E+03  0.00000000000E+00 0. -1.
         21   -1    0    0  501  502 -0.00000000000E+00 -0.00000000000E+00 -0.87542427169E+02  0.87542427169E+02  0.00000000000E+00 0. -1.
         25    1    1    2    0    0 -0.64771247045E+02  0.89902846890E+00  0.40362928352E+03  0.42747832835E+03  0.12500000000E+03 0.  0.
         25    1    1    2    0    0 -0.17437810808E+02  0.54821959312E+02  0.21362432063E+03  0.25410603069E+03  0.12500000000E+03 0.  0.
         25    1    1    2    0    0  0.82209057853E+02 -0.55720987781E+02  0.59689380324E+02  0.17044347977E+03  0.12500000000E+03 0.  0.
</event>
<event>
 5    0  0.5677492E-005  0.4862258E+03  0.7546771E-02  0.1017438E+00
         21   -1    0    0  502  501  0.00000000000E+00  0.00000000000E+00  0.37753199958E+03  0.37753199958E+03  0.00000000000E+00 0.  1.
         21   -1    0    0  501  502 -0.00000000000E+00 -0.00000000000E+00 -0.62621318449E+03  0.62621318449E+03  0.00000000000E+00 0.  1.
         25    1    1    2    0    0  0.13792891316E+03  0.11627502500E+03  0.96869932110E+02  0.23990216813E+03  0.12500000000E+03 0.  0.
         25    1    1    2    0    0 -0.32911059637E+01  0.24523852060E+03 -0.12663978795E+03  0.30301055965E+03  0.12500000000E+03 0.  0.
         25    1    1    2    0    0 -0.13463780720E+03 -0.36151354560E+03 -0.21891132907E+03  0.46083245630E+03  0.12500000000E+03 0.  0.
</event>
<event>
 5    0  0.6318855E-005  0.5634416E+03  0.7546771E-02  0.9984297E-01
         21   -1    0    0  502  501  0.00000000000E+00  0.00000000000E+00  0.23238503138E+03  0.23238503138E+03  0.00000000000E+00 0. -1.
         21   -1    0    0  501  502 -0.00000000000E+00 -0.00000000000E+00 -0.13661224087E+04  0.13661224087E+04  0.00000000000E+00 0. -1.
         25    1    1    2    0    0  0.25692989503E+03  0.23913582944E+03 -0.53178964802E+03  0.64932591633E+03  0.12500000000E+03 0.  0.
         25    1    1    2    0    0  0.75879910932E+02 -0.31741841027E+03 -0.18410668476E+03  0.39500946752E+03  0.12500000000E+03 0.  0.
         25    1    1    2    0    0 -0.33280980596E+03  0.78282580829E+02 -0.41784104451E+03  0.55417205621E+03  0.12500000000E+03 0.  0.
</event>
<event>
 5    0  0.6616208E-005  0.3854111E+03  0.7546771E-02  0.1048952E+00
         21   -1    0    0  502  501  0.00000000000E+00  0.00000000000E+00  0.67906069256E+03  0.67906069256E+03  0.00000000000E+00 0.  1.
         21   -1    0    0  501  502 -0.00000000000E+00 -0.00000000000E+00 -0.21874589126E+03  0.21874589126E+03  0.00000000000E+00 0.  1.
         25    1    1    2    0    0  0.19210440041E+03  0.61014780122E+02  0.32704795693E+03  0.40399538387E+03  0.12500000000E+03 0.  0.
         25    1    1    2    0    0 -0.29650288035E+02 -0.16652327749E+03 -0.28411481893E+02  0.21222948388E+03  0.12500000000E+03 0.  0.
         25    1    1    2    0    0 -0.16245411237E+03  0.10550849737E+03  0.16167832626E+03  0.28158171607E+03  0.12500000000E+03 0.  0.
</event>
<event>
 5    0  0.5677492E-005  0.4600543E+03  0.7546771E-02  0.1024765E+00
         21   -1    0    0  502  501  0.00000000000E+00  0.00000000000E+00  0.44294840131E+02  0.44294840131E+02  0.00000000000E+00 0. -1.
         21   -1    0    0  501  502 -0.00000000000E+00 -0.00000000000E+00 -0.47782085081E+04  0.47782085081E+04  0.00000000000E+00 0. -1.
         25    1    1    2    0    0 -0.84972111279E+02  0.29102410715E+01 -0.40874859451E+04  0.40902805626E+04  0.12500000000E+03 0.  0.
         25    1    1    2    0    0  0.13318864670E+03 -0.52245684866E+02 -0.45779502685E+03  0.49565120176E+03  0.12500000000E+03 0.  0.
         25    1    1    2    0    0 -0.48216535418E+02  0.49335443795E+02 -0.18863269604E+03  0.23657158392E+03  0.12500000000E+03 0.  0.
</event>
<event>
 5    0  0.5677492E-005  0.2964295E+03  0.7546771E-02  0.1087039E+00
         21   -1    0    0  502  501  0.00000000000E+00  0.00000000000E+00  0.14010413643E+03  0.14010413643E+03  0.00000000000E+00 0.  1.
         21   -1    0    0  501  502 -0.00000000000E+00 -0.00000000000E+00 -0.62717941746E+03  0.62717941746E+03  0.00000000000E+00 0.  1.
         25    1    1    2    0    0  0.39966167644E+02 -0.45964454535E+01 -0.11766736093E+03  0.17632081470E+03  0.12500000000E+03 0.  0.
         25    1    1    2    0    0 -0.25392274181E+02  0.18020189768E+03 -0.28142631677E+03  0.35769157564E+03  0.12500000000E+03 0.  0.
         25    1    1    2    0    0 -0.14573893463E+02 -0.17560545222E+03 -0.87981603334E+02  0.23327116356E+03  0.12500000000E+03 0.  0.
</event>
<event>
 5    0  0.5764346E-005  0.2466759E+03  0.7546771E-02  0.1115424E+00
         21   -1    0    0  502  501  0.00000000000E+00  0.00000000000E+00  0.42503316665E+03  0.42503316665E+03  0.00000000000E+00 0.  1.
         21   -1    0    0  501  502 -0.00000000000E+00 -0.00000000000E+00 -0.14316293783E+03  0.14316293783E+03  0.00000000000E+00 0.  1.
         25    1    1    2    0    0  0.45009126550E+01  0.10420543570E+02  0.10812415084E+03  0.16566435325E+03  0.12500000000E+03 0.  0.
         25    1    1    2    0    0  0.70283403401E+02  0.39874726169E+02  0.19676443680E+03  0.24672047781E+03  0.12500000000E+03 0.  0.
         25    1    1    2    0    0 -0.74784316056E+02 -0.50295269738E+02 -0.23018358814E+02  0.15581127343E+03  0.12500000000E+03 0.  0.
</event>
<event>
 5    0  0.5677492E-005  0.3206814E+03  0.7546771E-02  0.1075336E+00
         21   -1    0    0  502  501  0.00000000000E+00  0.00000000000E+00  0.24403679397E+03  0.24403679397E+03  0.00000000000E+00 0.  1.
         21   -1    0    0  501  502 -0.00000000000E+00 -0.00000000000E+00 -0.42139777599E+03  0.42139777599E+03  0.00000000000E+00 0.  1.
         25    1    1    2    0    0 -0.12352893171E+03 -0.14298030073E+03 -0.88713099302E+02  0.24330593366E+03  0.12500000000E+03 0.  0.
         25    1    1    2    0    0 -0.41959141226E+02  0.73101884143E+02  0.54849837615E+02  0.16043054474E+03  0.12500000000E+03 0.  0.
         25    1    1    2    0    0  0.16548807293E+03  0.69878416587E+02 -0.14349772034E+03  0.26169809157E+03  0.12500000000E+03 0.  0.
</event>
<event>
 5    0  0.5677492E-005  0.2477618E+03  0.7546771E-02  0.1114728E+00
         21   -1    0    0  502  501  0.00000000000E+00  0.00000000000E+00  0.13378243749E+03  0.13378243749E+03  0.00000000000E+00 0. -1.
         21   -1    0    0  501  502 -0.00000000000E+00 -0.00000000000E+00 -0.45884866684E+03  0.45884866684E+03  0.00000000000E+00 0. -1.
         25    1    1    2    0    0 -0.45634646861E+00  0.25379356564E+02 -0.19055070761E+03  0.22930087693E+03  0.12500000000E+03 0.  0.
         25    1    1    2    0    0 -0.10734054247E+03 -0.17851717249E+02 -0.10297512150E+03  0.19511420121E+03  0.12500000000E+03 0.  0.
         25    1    1    2    0    0  0.10779688894E+03 -0.75276393150E+01 -0.31540400231E+02  0.16821602618E+03  0.12500000000E+03 0.  0.
</event>
<event>
 5    0  0.5677492E-005  0.2122731E+03  0.7546771E-02  0.1139779E+00
         21   -1    0    0  502  501  0.00000000000E+00  0.00000000000E+00  0.89014831799E+02  0.89014831799E+02  0.00000000000E+00 0. -1.
         21   -1    0    0  501  502 -0.00000000000E+00 -0.00000000000E+00 -0.50620610577E+03  0.50620610577E+03  0.00000000000E+00 0. -1.
         25    1    1    2    0    0  0.20071922386E+02  0.26983366751E+02 -0.47149058439E+02  0.13776435628E+03  0.12500000000E+03 0.  0.
         25    1    1    2    0    0 -0.14121487628E+02 -0.16182706854E+02 -0.10689998718E+03  0.16587315537E+03  0.12500000000E+03 0.  0.
         25    1    1    2    0    0 -0.59504347586E+01 -0.10800659897E+02 -0.26314222835E+03  0.29158342592E+03  0.12500000000E+03 0.  0.
</event>
<event>
 5    0  0.5677492E-005  0.8423032E+03  0.7546771E-02  0.9500726E-01
         21   -1    0    0  502  501  0.00000000000E+00  0.00000000000E+00  0.40391697474E+03  0.40391697474E+03  0.00000000000E+00 0. -1.
         21   -1    0    0  501  502 -0.00000000000E+00 -0.00000000000E+00 -0.17564865422E+04  0.17564865422E+04  0.00000000000E+00 0. -1.
         25    1    1    2    0    0 -0.77792890356E+03 -0.77631796706E+02 -0.57519957053E+03  0.97861106717E+03  0.12500000000E+03 0.  0.
         25    1    1    2    0    0  0.73368940892E+03  0.18985845219E+02 -0.63375758686E+03  0.97771892176E+03  0.12500000000E+03 0.  0.
         25    1    1    2    0    0  0.44239494643E+02  0.58645951487E+02 -0.14361241011E+03  0.20407352805E+03  0.12500000000E+03 0.  0.
</event>
<event>
 5    0  0.5677492E-005  0.3094891E+03  0.7546771E-02  0.1080591E+00
         21   -1    0    0  502  501  0.00000000000E+00  0.00000000000E+00  0.28666059587E+03  0.28666059587E+03  0.00000000000E+00 0. -1.
         21   -1    0    0  501  502 -0.00000000000E+00 -0.00000000000E+00 -0.33413567037E+03  0.33413567037E+03  0.00000000000E+00 0. -1.
         25    1    1    2    0    0 -0.13682473220E+03 -0.29592006212E+02  0.30289439466E+02  0.19010298345E+03  0.12500000000E+03 0.  0.
         25    1    1    2    0    0  0.17049577421E+03  0.13987815231E+03 -0.43116839107E+02  0.25713570023E+03  0.12500000000E+03 0.  0.
         25    1    1    2    0    0 -0.33671042019E+02 -0.11028614609E+03 -0.34647674865E+02  0.17355758256E+03  0.12500000000E+03 0.  0.
</event>
<event>
 5    0  0.5677492E-005  0.3111773E+03  0.7546771E-02  0.1079783E+00
         21   -1    0    0  502  501  0.00000000000E+00  0.00000000000E+00  0.53536699707E+03  0.53536699707E+03  0.00000000000E+00 0.  1.
         21   -1    0    0  501  502 -0.00000000000E+00 -0.00000000000E+00 -0.18086900154E+03  0.18086900154E+03  0.00000000000E+00 0.  1.
         25    1    1    2    0    0  0.28459409517E+02  0.13695380058E+03  0.20059053413E+03  0.27464130037E+03  0.12500000000E+03 0.  0.
         25    1    1    2    0    0 -0.11583483906E+03 -0.17781098868E+03  0.13948998552E+03  0.28304931319E+03  0.12500000000E+03 0.  0.
         25    1    1    2    0    0  0.87375429544E+02  0.40857188102E+02  0.14417475872E+02  0.15854538504E+03  0.12500000000E+03 0.  0.
</event>
<event>
 5    0  0.5677492E-005  0.3096857E+03  0.7546771E-02  0.1080497E+00
         21   -1    0    0  502  501  0.00000000000E+00  0.00000000000E+00  0.60390317339E+02  0.60390317339E+02  0.00000000000E+00 0. -1.
         21   -1    0    0  501  502 -0.00000000000E+00 -0.00000000000E+00 -0.15880900034E+04  0.15880900034E+04  0.00000000000E+00 0. -1.
         25    1    1    2    0    0 -0.11909907089E+03  0.72793323480E+01 -0.21360958066E+03  0.27475740266E+03  0.12500000000E+03 0.  0.
         25    1    1    2    0    0 -0.12577393156E+02  0.13469554110E+01 -0.15062424902E+03  0.19614451178E+03  0.12500000000E+03 0.  0.
         25    1    1    2    0    0  0.13167646405E+03 -0.86262877590E+01 -0.11634658563E+04  0.11775784062E+04  0.12500000000E+03 0.  0.
</event>
<event>
 5    0  0.5677492E-005  0.2444268E+03  0.7546771E-02  0.1116878E+00
         21   -1    0    0  502  501  0.00000000000E+00  0.00000000000E+00  0.13303698150E+04  0.13303698150E+04  0.00000000000E+00 0.  1.
         21   -1    0    0  501  502 -0.00000000000E+00 -0.00000000000E+00 -0.44908155554E+02  0.44908155554E+02  0.00000000000E+00 0. -1.
         25    1    1    2    0    0  0.99176064030E+02 -0.43662702997E+02  0.39136627745E+03  0.42489397081E+03  0.12500000000E+03 0.  0.
         25    1    1    2    0    0 -0.55646054478E+02  0.10808504538E+03  0.45479340540E+03  0.48707381577E+03  0.12500000000E+03 0.  0.
         25    1    1    2    0    0 -0.43530009552E+02 -0.64422342382E+02  0.43930197660E+03  0.46331018398E+03  0.12500000000E+03 0.  0.
</event>
<event>
 5    0  0.5677492E-005  0.3498324E+03  0.7546771E-02  0.1062684E+00
         21   -1    0    0  502  501  0.00000000000E+00  0.00000000000E+00  0.66745658163E+02  0.66745658163E+02  0.00000000000E+00 0. -1.
         21   -1    0    0  501  502 -0.00000000000E+00 -0.00000000000E+00 -0.18335682335E+04  0.18335682335E+04  0.00000000000E+00 0. -1.
         25    1    1    2    0    0  0.81946093022E+02  0.32187723447E+02 -0.18494721143E+03  0.23996183596E+03  0.12500000000E+03 0.  0.
         25    1    1    2    0    0  0.10206313770E+02  0.16791605727E+03 -0.39936885810E+03  0.45102156927E+03  0.12500000000E+03 0.  0.
         25    1    1    2    0    0 -0.92152406792E+02 -0.20010378071E+03 -0.11825065058E+04  0.12093304864E+04  0.12500000000E+03 0.  0.
</event>
<event>
 5    0  0.5677492E-005  0.6094327E+03  0.7546771E-02  0.9886027E-01
         21   -1    0    0  502  501  0.00000000000E+00  0.00000000000E+00  0.20182726685E+03  0.20182726685E+03  0.00000000000E+00 0.  1.
         21   -1    0    0  501  502 -0.00000000000E+00 -0.00000000000E+00 -0.18402278903E+04  0.18402278903E+04  0.00000000000E+00 0.  1.
         25    1    1    2    0    0  0.22300824567E+03  0.36448391600E+03 -0.35482767662E+03  0.56930561455E+03  0.12500000000E+03 0.  0.
         25    1    1    2    0    0 -0.41190955343E+02 -0.45789580574E+03 -0.94049668253E+03  0.10542885153E+04  0.12500000000E+03 0.  0.
         25    1    1    2    0    0 -0.18181729033E+03  0.93411889732E+02 -0.34307626427E+03  0.41846102723E+03  0.12500000000E+03 0.  0.
</event>
<event>
 5    0  0.5677492E-005  0.2567090E+03  0.7546771E-02  0.1109137E+00
         21   -1    0    0  502  501  0.00000000000E+00  0.00000000000E+00  0.18059459119E+04  0.18059459119E+04  0.00000000000E+00 0.  1.
         21   -1    0    0  501  502 -0.00000000000E+00 -0.00000000000E+00 -0.36490302476E+02  0.36490302476E+02  0.00000000000E+00 0.  1.
         25    1    1    2    0    0  0.61749473263E+02  0.39234227542E+02  0.40170662579E+03  0.42701936170E+03  0.12500000000E+03 0.  0.
         25    1    1    2    0    0 -0.12129160018E+02  0.36752351410E+02  0.10881103352E+04  0.10959502514E+04  0.12500000000E+03 0.  0.
         25    1    1    2    0    0 -0.49620313245E+02 -0.75986578952E+02  0.27963864839E+03  0.31946660129E+03  0.12500000000E+03 0.  0.
</event>
<event>
 5    0  0.5677492E-005  0.4958976E+03  0.7546771E-02  0.1014855E+00
         21   -1    0    0  502  501  0.00000000000E+00  0.00000000000E+00  0.50027077968E+03  0.50027077968E+03  0.00000000000E+00 0.  1.
         21   -1    0    0  501  502 -0.00000000000E+00 -0.00000000000E+00 -0.49156270824E+03  0.49156270824E+03  0.00000000000E+00 0.  1.
         25    1    1    2    0    0  0.22369260996E+03  0.18526337506E+03 -0.18090251467E+03  0.36429606325E+03  0.12500000000E+03 0.  0.
         25    1    1    2    0    0  0.10729633090E+02 -0.75735468903E+02 -0.13130645539E+03  0.19676730293E+03  0.12500000000E+03 0.  0.
         25    1    1    2    0    0 -0.23442224305E+03 -0.10952790615E+03  0.32091704150E+03  0.43077012174E+03  0.12500000000E+03 0.  0.
</event>
<event>
 5    0  0.5677492E-005  0.3021487E+03  0.7546771E-02  0.1084171E+00
         21   -1    0    0  502  501  0.00000000000E+00  0.00000000000E+00  0.10209726261E+03  0.10209726261E+03  0.00000000000E+00 0.  1.
         21   -1    0    0  501  502 -0.00000000000E+00 -0.00000000000E+00 -0.89418485993E+03  0.89418485993E+03  0.00000000000E+00 0.  1.
         25    1    1    2    0    0 -0.17734689200E+01 -0.16598326346E+03 -0.24733057068E+03  0.32303405414E+03  0.12500000000E+03 0.  0.
         25    1    1    2    0    0  0.61731710122E+02 -0.24846296272E+02 -0.11263296832E+03  0.18094012276E+03  0.12500000000E+03 0.  0.
         25    1    1    2    0    0 -0.59958241202E+02  0.19082955973E+03 -0.43212405833E+03  0.49230794564E+03  0.12500000000E+03 0.  0.
</event>
<event>
 5    0  0.5677492E-005  0.3166506E+03  0.7546771E-02  0.1077201E+00
         21   -1    0    0  502  501  0.00000000000E+00  0.00000000000E+00  0.22146346574E+04  0.22146346574E+04  0.00000000000E+00 0.  1.
         21   -1    0    0  501  502 -0.00000000000E+00 -0.00000000000E+00 -0.45274998700E+02  0.45274998700E+02  0.00000000000E+00 0.  1.
         25    1    1    2    0    0  0.93312189897E+02 -0.18255305484E+03  0.13535548296E+04  0.13746884954E+04  0.12500000000E+03 0.  0.
         25    1    1    2    0    0 -0.52595409916E+02  0.14579859681E+03  0.38712883613E+03  0.43533578275E+03  0.12500000000E+03 0.  0.
         25    1    1    2    0    0 -0.40716779981E+02  0.36754458026E+02  0.42867599292E+03  0.44988537791E+03  0.12500000000E+03 0.  0.
</event>
<event>
 5    0  0.5677492E-005  0.4425809E+03  0.7546771E-02  0.1029958E+00
         21   -1    0    0  502  501  0.00000000000E+00  0.00000000000E+00  0.63013541797E+03  0.63013541797E+03  0.00000000000E+00 0.  1.
         21   -1    0    0  501  502 -0.00000000000E+00 -0.00000000000E+00 -0.31085041339E+03  0.31085041339E+03  0.00000000000E+00 0.  1.
         25    1    1    2    0    0 -0.90292895298E+02  0.89561054240E+00 -0.12638341326E+03  0.19937747166E+03  0.12500000000E+03 0.  0.
         25    1    1    2    0    0 -0.14679942196E+03  0.48768466052E+02  0.42379915053E+03  0.46814437256E+03  0.12500000000E+03 0.  0.
         25    1    1    2    0    0  0.23709231726E+03 -0.49664076595E+02  0.21869267307E+02  0.27346398714E+03  0.12500000000E+03 0.  0.
</event>
<event>
 5    0  0.5677492E-005  0.2994301E+03  0.7546771E-02  0.1085526E+00
         21   -1    0    0  502  501  0.00000000000E+00  0.00000000000E+00  0.98853764696E+03  0.98853764696E+03  0.00000000000E+00 0.  1.
         21   -1    0    0  501  502 -0.00000000000E+00 -0.00000000000E+00 -0.90698021951E+02  0.90698021951E+02  0.00000000000E+00 0.  1.
         25    1    1    2    0    0  0.52258770470E+01 -0.91181796632E+02  0.73831371524E+03  0.75436965206E+03  0.12500000000E+03 0.  0.
         25    1    1    2    0    0 -0.33745110030E+02  0.98472856113E+01  0.89204441739E+02  0.15753772218E+03  0.12500000000E+03 0.  0.
         25    1    1    2    0    0  0.28519232983E+02  0.81334511021E+02  0.70321468032E+02  0.16732829468E+03  0.12500000000E+03 0.  0.
</event>
<event>
 5    0  0.5677492E-005  0.2291726E+03  0.7546771E-02  0.1127223E+00
         21   -1    0    0  502  501  0.00000000000E+00  0.00000000000E+00  0.34860172252E+03  0.34860172252E+03  0.00000000000E+00 0.  1.
         21   -1    0    0  501  502 -0.00000000000E+00 -0.00000000000E+00 -0.15065928144E+03  0.15065928144E+03  0.00000000000E+00 0.  1.
         25    1    1    2    0    0 -0.82477153512E+02 -0.11826109725E+02  0.66897490554E+02  0.16444638021E+03  0.12500000000E+03 0.  0.
         25    1    1    2    0    0 -0.92531455960E+01  0.23060687510E+02  0.12609473988E+03  0.17928273603E+03  0.12500000000E+03 0.  0.
         25    1    1    2    0    0  0.91730299108E+02 -0.11234577785E+02  0.49502106475E+01  0.15553188772E+03  0.12500000000E+03 0.  0.
</event>
<event>
 5    0  0.5677492E-005  0.2593689E+03  0.7546771E-02  0.1107523E+00
         21   -1    0    0  502  501  0.00000000000E+00  0.00000000000E+00  0.89800067154E+02  0.89800067154E+02  0.00000000000E+00 0.  1.
         21   -1    0    0  501  502 -0.00000000000E+00 -0.00000000000E+00 -0.74913347130E+03  0.74913347130E+03  0.00000000000E+00 0.  1.
         25    1    1    2    0    0 -0.17786200750E+01 -0.10587778210E+03 -0.59832459445E+02  0.17440811746E+03  0.12500000000E+03 0.  0.
         25    1    1    2    0    0 -0.37168511179E+02  0.52720311599E+02 -0.23902337503E+03  0.27734113162E+03  0.12500000000E+03 0.  0.
         25    1    1    2    0    0  0.38947131254E+02  0.53157470503E+02 -0.36047756967E+03  0.38718428938E+03  0.12500000000E+03 0.  0.
</event>
<event>
 5    0  0.5677492E-005  0.6577291E+03  0.7546771E-02  0.9792383E-01
         21   -1    0    0  502  501  0.00000000000E+00  0.00000000000E+00  0.43328539700E+03  0.43328539700E+03  0.00000000000E+00 0.  1.
         21   -1    0    0  501  502 -0.00000000000E+00 -0.00000000000E+00 -0.99843568097E+03  0.99843568097E+03  0.00000000000E+00 0.  1.
         25    1    1    2    0    0 -0.11900853007E+03  0.55703079963E+03 -0.31310227111E+02  0.58399629476E+03  0.12500000000E+03 0.  0.
         25    1    1    2    0    0  0.65795789327E+02 -0.45141694682E+03 -0.46219182826E+03  0.66132641856E+03  0.12500000000E+03 0.  0.
         25    1    1    2    0    0  0.53212740747E+02 -0.10561385281E+03 -0.71648228596E+02  0.18639836465E+03  0.12500000000E+03 0.  0.
</event>
<event>
 5    0  0.6058400E-005  0.2778916E+03  0.7546771E-02  0.1096846E+00
         21   -1    0    0  502  501  0.00000000000E+00  0.00000000000E+00  0.19398952054E+03  0.19398952054E+03  0.00000000000E+00 0.  1.
         21   -1    0    0  501  502 -0.00000000000E+00 -0.00000000000E+00 -0.39808199205E+03  0.39808199205E+03  0.00000000000E+00 0.  1.
         25    1    1    2    0    0 -0.14890551450E+03 -0.62992024480E+02  0.33893791127E+01  0.20439504712E+03  0.12500000000E+03 0.  0.
         25    1    1    2    0    0  0.61754749069E+02  0.86882350278E+02 -0.61819910308E+02  0.17552462258E+03  0.12500000000E+03 0.  0.
         25    1    1    2    0    0  0.87150765429E+02 -0.23890325798E+02 -0.14566194032E+03  0.21215184289E+03  0.12500000000E+03 0.  0.
</event>
<event>
 5    0  0.5677492E-005  0.2604676E+03  0.7546771E-02  0.1106863E+00
         21   -1    0    0  502  501  0.00000000000E+00  0.00000000000E+00  0.91922810225E+02  0.91922810225E+02  0.00000000000E+00 0. -1.
         21   -1    0    0  501  502 -0.00000000000E+00 -0.00000000000E+00 -0.73804715466E+03  0.73804715466E+03  0.00000000000E+00 0. -1.
         25    1    1    2    0    0  0.45169394436E+02 -0.52517612476E+02 -0.22980348234E+03  0.27061599049E+03  0.12500000000E+03 0.  0.
         25    1    1    2    0    0 -0.29981019521E+02  0.15921185766E+03 -0.27005903459E+03  0.33882762478E+03  0.12500000000E+03 0.  0.
         25    1    1    2    0    0 -0.15188374915E+02 -0.10669424519E+03 -0.14626182751E+03  0.22052634962E+03  0.12500000000E+03 0.  0.
</event>
<event>
 5    0  0.5677492E-005  0.3936098E+03  0.7546771E-02  0.1046015E+00
         21   -1    0    0  502  501  0.00000000000E+00  0.00000000000E+00  0.14122378929E+03  0.14122378929E+03  0.00000000000E+00 0. -1.
         21   -1    0    0  501  502 -0.00000000000E+00 -0.00000000000E+00 -0.10970435260E+04  0.10970435260E+04  0.00000000000E+00 0. -1.
         25    1    1    2    0    0  0.79472005453E+02 -0.35745626866E+02 -0.18196891486E+03  0.23734202212E+03  0.12500000000E+03 0.  0.
         25    1    1    2    0    0 -0.20616790947E+03 -0.50816680362E+02 -0.51199357206E+02  0.25166230563E+03  0.12500000000E+03 0.  0.
         25    1    1    2    0    0  0.12669590402E+03  0.86562307228E+02 -0.72265146467E+03  0.74926298755E+03  0.12500000000E+03 0.  0.
</event>
<event>
 5    0  0.5677492E-005  0.5333784E+03  0.7546771E-02  0.1005416E+00
         21   -1    0    0  502  501  0.00000000000E+00  0.00000000000E+00  0.12659292355E+04  0.12659292355E+04  0.00000000000E+00 0.  1.
         21   -1    0    0  501  502 -0.00000000000E+00 -0.00000000000E+00 -0.22473018254E+03  0.22473018254E+03  0.00000000000E+00 0.  1.
         25    1    1    2    0    0  0.26641066025E+03 -0.29850205467E+03  0.70517386984E+03  0.82034950067E+03  0.12500000000E+03 0.  0.
         25    1    1    2    0    0 -0.88864717250E+02  0.10736641261E+02 -0.29916171622E+02  0.15662755429E+03  0.12500000000E+03 0.  0.
         25    1    1    2    0    0 -0.17754594300E+03  0.28776541341E+03  0.36594135471E+03  0.51368236306E+03  0.12500000000E+03 0.  0.
</event>
<event>
 5    0  0.5677492E-005  0.3539870E+03  0.7546771E-02  0.1060990E+00
         21   -1    0    0  502  501  0.00000000000E+00  0.00000000000E+00  0.12566709633E+04  0.12566709633E+04  0.00000000000E+00 0.  1.
         21   -1    0    0  501  502 -0.00000000000E+00 -0.00000000000E+00 -0.99713263950E+02  0.99713263950E+02  0.00000000000E+00 0.  1.
         25    1    1    2    0    0 -0.16354333172E+02  0.12504279401E+03  0.10349706965E+04  0.10500916661E+04  0.12500000000E+03 0.  0.
         25    1    1    2    0    0  0.13855166788E+02 -0.58813562541E+02  0.50162308131E+02  0.14762201036E+03  0.12500000000E+03 0.  0.
         25    1    1    2    0    0  0.24991663843E+01 -0.66229231469E+02  0.71824694769E+02  0.15867055087E+03  0.12500000000E+03 0.  0.
</event>
<event>
 5    0  0.5677492E-005  0.3446050E+03  0.7546771E-02  0.1064851E+00
         21   -1    0    0  502  501  0.00000000000E+00  0.00000000000E+00  0.49221144665E+03  0.49221144665E+03  0.00000000000E+00 0.  1.
         21   -1    0    0  501  502 -0.00000000000E+00 -0.00000000000E+00 -0.24126341107E+03  0.24126341107E+03  0.00000000000E+00 0.  1.
         25    1    1    2    0    0 -0.19405703748E+03 -0.95008621734E+02  0.37101446956E+02  0.25236142607E+03  0.12500000000E+03 0.  0.
         25    1    1    2    0    0 -0.58073482098E+02  0.28158881828E+02  0.54400315936E+02  0.15083052185E+03  0.12500000000E+03 0.  0.
         25    1    1    2    0    0  0.25213051958E+03  0.66849739906E+02  0.15944627269E+03  0.33028290980E+03  0.12500000000E+03 0.  0.
</event>
<event>
 5    0  0.5677492E-005  0.3513777E+03  0.7546771E-02  0.1062051E+00
         21   -1    0    0  502  501  0.00000000000E+00  0.00000000000E+00  0.14279633749E+03  0.14279633749E+03  0.00000000000E+00 0. -1.
         21   -1    0    0  501  502 -0.00000000000E+00 -0.00000000000E+00 -0.86463201140E+03  0.86463201140E+03  0.00000000000E+00 0. -1.
         25    1    1    2    0    0 -0.39036353329E+02  0.53908343085E+02  0.22719278545E+02  0.14342632936E+03  0.12500000000E+03 0.  0.
         25    1    1    2    0    0  0.11679637247E+03 -0.14016263481E+03 -0.60309260281E+03  0.64236488414E+03  0.12500000000E+03 0.  0.
         25    1    1    2    0    0 -0.77760019145E+02  0.86254291726E+02 -0.14146234965E+03  0.22163713539E+03  0.12500000000E+03 0.  0.
</event>
<event>
 5    0  0.5677492E-005  0.2575384E+03  0.7546771E-02  0.1108631E+00
         21   -1    0    0  502  501  0.00000000000E+00  0.00000000000E+00  0.48681495247E+03  0.48681495247E+03  0.00000000000E+00 0. -1.
         21   -1    0    0  501  502 -0.00000000000E+00 -0.00000000000E+00 -0.13624480029E+03  0.13624480029E+03  0.00000000000E+00 0. -1.
         25    1    1    2    0    0 -0.52241628908E+02 -0.19229026385E+00  0.18984755177E+03  0.23323018175E+03  0.12500000000E+03 0.  0.
         25    1    1    2    0    0  0.34136139354E+02  0.15431190084E+02 -0.53212544408E+02  0.14092541474E+03  0.12500000000E+03 0.  0.
         25    1    1    2    0    0  0.18105489554E+02 -0.15238899820E+02  0.21393514482E+03  0.24890415627E+03  0.12500000000E+03 0.  0.
</event>
<event>
 5    0  0.5979858E-005  0.3174823E+03  0.7546771E-02  0.1076814E+00
         21   -1    0    0  502  501  0.00000000000E+00  0.00000000000E+00  0.16436584499E+03  0.16436584499E+03  0.00000000000E+00 0. -1.
         21   -1    0    0  501  502 -0.00000000000E+00 -0.00000000000E+00 -0.61323579099E+03  0.61323579099E+03  0.00000000000E+00 0. -1.
         25    1    1    2    0    0 -0.48775205320E+02  0.18638508539E+03 -0.26846320119E+03  0.35329295365E+03  0.12500000000E+03 0.  0.
         25    1    1    2    0    0  0.79346882242E+02 -0.16356364984E+03 -0.19284730874E+03  0.29302573224E+03  0.12500000000E+03 0.  0.
         25    1    1    2    0    0 -0.30571676922E+02 -0.22821435553E+02  0.12440563926E+02  0.13128295008E+03  0.12500000000E+03 0.  0.
</event>
<event>
 5    0  0.5677492E-005  0.3367109E+03  0.7546771E-02  0.1068206E+00
         21   -1    0    0  502  501  0.00000000000E+00  0.00000000000E+00  0.19301932999E+03  0.19301932999E+03  0.00000000000E+00 0.  1.
         21   -1    0    0  501  502 -0.00000000000E+00 -0.00000000000E+00 -0.58737235550E+03  0.58737235550E+03  0.00000000000E+00 0.  1.
         25    1    1    2    0    0 -0.87854309096E+02  0.21696246818E+02 -0.29408851860E+03  0.33211769529E+03  0.12500000000E+03 0.  0.
         25    1    1    2    0    0 -0.12360755897E+03  0.26753589100E+02  0.19681819205E+01  0.17782985381E+03  0.12500000000E+03 0.  0.
         25    1    1    2    0    0  0.21146186807E+03 -0.48449835918E+02 -0.10223268883E+03  0.27044413640E+03  0.12500000000E+03 0.  0.
</event>
<event>
 5    0  0.5677492E-005  0.3555186E+03  0.7546771E-02  0.1060373E+00
         21   -1    0    0  502  501  0.00000000000E+00  0.00000000000E+00  0.27490940903E+03  0.27490940903E+03  0.00000000000E+00 0.  1.
         21   -1    0    0  501  502 -0.00000000000E+00 -0.00000000000E+00 -0.45976402036E+03  0.45976402036E+03  0.00000000000E+00 0.  1.
         25    1    1    2    0    0  0.13364639603E+03  0.20285594105E+03 -0.11049605360E+02  0.27342089491E+03  0.12500000000E+03 0.  0.
         25    1    1    2    0    0 -0.17685556489E+03 -0.19872903186E+03 -0.10510076164E+03  0.31215747474E+03  0.12500000000E+03 0.  0.
         25    1    1    2    0    0  0.43209168857E+02 -0.41269091909E+01 -0.68704244321E+02  0.14909505975E+03  0.12500000000E+03 0.  0.
</event>
<event>
 5    0  0.5677492E-005  0.3054114E+03  0.7546771E-02  0.1082566E+00
         21   -1    0    0  502  501  0.00000000000E+00  0.00000000000E+00  0.65652797633E+03  0.65652797633E+03  0.00000000000E+00 0.  1.
         21   -1    0    0  501  502 -0.00000000000E+00 -0.00000000000E+00 -0.14207491043E+03  0.14207491043E+03  0.00000000000E+00 0.  1.
         25    1    1    2    0    0  0.37666986901E+02 -0.17118158040E+03  0.54148205639E+02  0.22198865634E+03  0.12500000000E+03 0.  0.
         25    1    1    2    0    0  0.26045798202E+02  0.15072250185E+02  0.24038680928E+03  0.27261029768E+03  0.12500000000E+03 0.  0.
         25    1    1    2    0    0 -0.63712785102E+02  0.15610933022E+03  0.21991805099E+03  0.30400393273E+03  0.12500000000E+03 0.  0.
</event>
<event>
 5    0  0.5677492E-005  0.3277207E+03  0.7546771E-02  0.1072150E+00
         21   -1    0    0  502  501  0.00000000000E+00  0.00000000000E+00  0.15974200479E+03  0.15974200479E+03  0.00000000000E+00 0.  1.
         21   -1    0    0  501  502 -0.00000000000E+00 -0.00000000000E+00 -0.67233938756E+03  0.67233938756E+03  0.00000000000E+00 0.  1.
         25    1    1    2    0    0  0.10934796600E+03  0.61446076415E+02 -0.50774734311E+03  0.53774060885E+03  0.12500000000E+03 0.  0.
         25    1    1    2    0    0 -0.82246584875E+02 -0.42819350190E+02  0.34133671047E+02  0.15933645212E+03  0.12500000000E+03 0.  0.
         25    1    1    2    0    0 -0.27101381128E+02 -0.18626726225E+02 -0.38983710707E+02  0.13500433137E+03  0.12500000000E+03 0.  0.
</event>
<event>
 5    0  0.5677492E-005  0.2926802E+03  0.7546771E-02  0.1088958E+00
         21   -1    0    0  502  501  0.00000000000E+00  0.00000000000E+00  0.73443291203E+03  0.73443291203E+03  0.00000000000E+00 0. -1.
         21   -1    0    0  501  502 -0.00000000000E+00 -0.00000000000E+00 -0.11663652300E+03  0.11663652300E+03  0.00000000000E+00 0. -1.
         25    1    1    2    0    0  0.19679850110E+02  0.87600654526E+02  0.92111255783E+02  0.17936179809E+03  0.12500000000E+03 0.  0.
         25    1    1    2    0    0  0.28031346598E+02 -0.18860772096E+03  0.19118152361E+03  0.29754664133E+03  0.12500000000E+03 0.  0.
         25    1    1    2    0    0 -0.47711196708E+02  0.10100706644E+03  0.33450360965E+03  0.37416099560E+03  0.12500000000E+03 0.  0.
</event>
<event>
 5    0  0.5677492E-005  0.2186057E+03  0.7546771E-02  0.1134927E+00
         21   -1    0    0  502  501  0.00000000000E+00  0.00000000000E+00  0.38635177394E+03  0.38635177394E+03  0.00000000000E+00 0.  1.
         21   -1    0    0  501  502 -0.00000000000E+00 -0.00000000000E+00 -0.12369156995E+03  0.12369156995E+03  0.00000000000E+00 0.  1.
         25    1    1    2    0    0 -0.60210665690E+02 -0.22206867078E+01  0.65591037946E+02  0.15348433135E+03  0.12500000000E+03 0.  0.
         25    1    1    2    0    0  0.12928634002E+02  0.44801299524E+02  0.16587272519E+03  0.21286866134E+03  0.12500000000E+03 0.  0.
         25    1    1    2    0    0  0.47282031687E+02 -0.42580612816E+02  0.31196440847E+02  0.14369035121E+03  0.12500000000E+03 0.  0.
</event>
<event>
 5    0  0.5677492E-005  0.2587011E+03  0.7546771E-02  0.1107926E+00
         21   -1    0    0  502  501  0.00000000000E+00  0.00000000000E+00  0.11339111994E+03  0.11339111994E+03  0.00000000000E+00 0.  1.
         21   -1    0    0  501  502 -0.00000000000E+00 -0.00000000000E+00 -0.59022472877E+03  0.59022472877E+03  0.00000000000E+00 0.  1.
         25    1    1    2    0    0  0.13698195522E+03  0.63859833783E+02 -0.18982146077E+03  0.27294563817E+03  0.12500000000E+03 0.  0.
         25    1    1    2    0    0 -0.10102718359E+03 -0.13422186201E+02 -0.22781224760E+03  0.27912374866E+03  0.12500000000E+03 0.  0.
         25    1    1    2    0    0 -0.35954771626E+02 -0.50437647582E+02 -0.59199900454E+02  0.15154646189E+03  0.12500000000E+03 0.  0.
</event>
<event>
 5    0  0.5677492E-005  0.2603326E+03  0.7546771E-02  0.1106944E+00
         21   -1    0    0  502  501  0.00000000000E+00  0.00000000000E+00  0.19930817565E+03  0.19930817565E+03  0.00000000000E+00 0.  1.
         21   -1    0    0  501  502 -0.00000000000E+00 -0.00000000000E+00 -0.34004165948E+03  0.34004165948E+03  0.00000000000E+00 0.  1.
         25    1    1    2    0    0  0.12504195910E+03  0.96875268268E+02 -0.96079898491E+02  0.22333082195E+03  0.12500000000E+03 0.  0.
         25    1    1    2    0    0 -0.39808461933E+02 -0.13985023952E+01 -0.39627403180E+02  0.13704743899E+03  0.12500000000E+03 0.  0.
         25    1    1    2    0    0 -0.85233497166E+02 -0.95476765873E+02 -0.50261821582E+01  0.17897157419E+03  0.12500000000E+03 0.  0.
</event>
<event>
 5    0  0.5677492E-005  0.3699133E+03  0.7546771E-02  0.1054726E+00
         21   -1    0    0  502  501  0.00000000000E+00  0.00000000000E+00  0.15721100340E+04  0.15721100340E+04  0.00000000000E+00 0. -1.
         21   -1    0    0  501  502 -0.00000000000E+00 -0.00000000000E+00 -0.87039612405E+02  0.87039612405E+02  0.00000000000E+00 0. -1.
         25    1    1    2    0    0 -0.10751467381E+02 -0.29856731326E+03  0.68655935326E+03  0.75910920173E+03  0.12500000000E+03 0.  0.
         25    1    1    2    0    0  0.42757338812E+02  0.18221423162E+03  0.57113104242E+03  0.61387774341E+03  0.12500000000E+03 0.  0.
         25    1    1    2    0    0 -0.32005871431E+02  0.11635308163E+03  0.22738002587E+03  0.28616270123E+03  0.12500000000E+03 0.  0.
</event>
<event>
 5    0  0.5677492E-005  0.4267671E+03  0.7546771E-02  0.1034886E+00
         21   -1    0    0  502  501  0.00000000000E+00  0.00000000000E+00  0.78323907219E+03  0.78323907219E+03  0.00000000000E+00 0.  1.
         21   -1    0    0  501  502 -0.00000000000E+00 -0.00000000000E+00 -0.23253460334E+03  0.23253460334E+03  0.00000000000E+00 0.  1.
         25    1    1    2    0    0  0.21478174451E+03  0.33580137919E+02  0.55458497700E+03  0.60864465836E+03  0.12500000000E+03 0.  0.
         25    1    1    2    0    0 -0.19155291875E+03  0.73034686721E+02 -0.16845722641E+02  0.24069766206E+03  0.12500000000E+03 0.  0.
         25    1    1    2    0    0 -0.23228825759E+02 -0.10661482464E+03  0.12965214495E+02  0.16643135512E+03  0.12500000000E+03 0.  0.
</event>
<event>
 5    0  0.5677492E-005  0.3358706E+03  0.7546771E-02  0.1068568E+00
         21   -1    0    0  502  501  0.00000000000E+00  0.00000000000E+00  0.15438180364E+04  0.15438180364E+04  0.00000000000E+00 0.  1.
         21   -1    0    0  501  502 -0.00000000000E+00 -0.00000000000E+00 -0.73071483620E+02  0.73071483620E+02  0.00000000000E+00 0.  1.
         25    1    1    2    0    0 -0.56907479539E+02  0.18309816547E+03  0.43618386041E+03  0.49258984918E+03  0.12500000000E+03 0.  0.
         25    1    1    2    0    0 -0.63613705108E+02 -0.69282222788E+02  0.15372269913E+03  0.21932258912E+03  0.12500000000E+03 0.  0.
         25    1    1    2    0    0  0.12052118465E+03 -0.11381594268E+03  0.88083999326E+03  0.90497708174E+03  0.12500000000E+03 0.  0.
</event>
<event>
 5    0  0.5677492E-005  0.3805949E+03  0.7546771E-02  0.1050714E+00
         21   -1    0    0  502  501  0.00000000000E+00  0.00000000000E+00  0.10721931316E+04  0.10721931316E+04  0.00000000000E+00 0. -1.
         21   -1    0    0  501  502 -0.00000000000E+00 -0.00000000000E+00 -0.13509923360E+03  0.13509923360E+03  0.00000000000E+00 0.  1.
         25    1    1    2    0    0  0.23650913100E+03 -0.13481943494E+03  0.39102526953E+03  0.49258360762E+03  0.12500000000E+03 0.  0.
         25    1    1    2    0    0 -0.19192612757E+03  0.79685712857E+02  0.51272233260E+03  0.56718131283E+03  0.12500000000E+03 0.  0.
         25    1    1    2    0    0 -0.44583003437E+02  0.55133722080E+02  0.33346295869E+02  0.14752744475E+03  0.12500000000E+03 0.  0.
</event>
<event>
 5    0  0.5677492E-005  0.3726841E+03  0.7546771E-02  0.1053671E+00
         21   -1    0    0  502  501  0.00000000000E+00  0.00000000000E+00  0.70208734935E+03  0.70208734935E+03  0.00000000000E+00 0.  1.
         21   -1    0    0  501  502 -0.00000000000E+00 -0.00000000000E+00 -0.19782924970E+03  0.19782924970E+03  0.00000000000E+00 0.  1.
         25    1    1    2    0    0 -0.35479480443E+02  0.14890617429E+02  0.68203539629E+02  0.14750337907E+03  0.12500000000E+03 0.  0.
         25    1    1    2    0    0 -0.16491478055E+03 -0.20732362809E+03  0.29825772221E+03  0.41804621810E+03  0.12500000000E+03 0.  0.
         25    1    1    2    0    0  0.20039426099E+03  0.19243301066E+03  0.13779683781E+03  0.33436700187E+03  0.12500000000E+03 0.  0.
</event>
<event>
 5    0  0.5677492E-005  0.2903989E+03  0.7546771E-02  0.1090141E+00
         21   -1    0    0  502  501  0.00000000000E+00  0.00000000000E+00  0.33604002700E+03  0.33604002700E+03  0.00000000000E+00 0.  1.
         21   -1    0    0  501  502 -0.00000000000E+00 -0.00000000000E+00 -0.25095683327E+03  0.25095683327E+03  0.00000000000E+00 0.  1.
         25    1    1    2    0    0  0.14095262423E+03  0.40820373430E+02  0.13666602928E+03  0.23629758510E+03  0.12500000000E+03 0.  0.
         25    1    1    2    0    0 -0.58427530398E+02 -0.96532938378E+02 -0.83141643357E+02  0.18780286835E+03  0.12500000000E+03 0.  0.
         25    1    1    2    0    0 -0.82525093828E+02  0.55712564947E+02  0.31558807808E+02  0.16289640682E+03  0.12500000000E+03 0.  0.
</event>
<event>
 5    0  0.5677492E-005  0.3006382E+03  0.7546771E-02  0.1084922E+00
         21   -1    0    0  502  501  0.00000000000E+00  0.00000000000E+00  0.69970371151E+03  0.69970371151E+03  0.00000000000E+00 0.  1.
         21   -1    0    0  501  502 -0.00000000000E+00 -0.00000000000E+00 -0.12917373146E+03  0.12917373146E+03  0.00000000000E+00 0.  1.
         25    1    1    2    0    0  0.41568123790E+02  0.35620904771E+02  0.15159352101E+03  0.20396654967E+03  0.12500000000E+03 0.  0.
         25    1    1    2    0    0 -0.14163827164E+03  0.12440129798E+03  0.14136605626E+03  0.26673290909E+03  0.12500000000E+03 0.  0.
         25    1    1    2    0    0  0.10007014785E+03 -0.16002220275E+03  0.27757040278E+03  0.35817798420E+03  0.12500000000E+03 0.  0.
</event>
<event>
 5    0  0.5799353E-005  0.3020193E+03  0.7546771E-02  0.1084236E+00
         21   -1    0    0  502  501  0.00000000000E+00  0.00000000000E+00  0.10045714790E+03  0.10045714790E+03  0.00000000000E+00 0.  1.
         21   -1    0    0  501  502 -0.00000000000E+00 -0.00000000000E+00 -0.90800550625E+03  0.90800550625E+03  0.00000000000E+00 0.  1.
         25    1    1    2    0    0 -0.27311401730E+02 -0.21727747060E+01 -0.28075561726E+02  0.13101095672E+03  0.12500000000E+03 0.  0.
         25    1    1    2    0    0  0.16835495953E+03 -0.29564116293E+02 -0.40336955198E+03  0.45557592653E+03  0.12500000000E+03 0.  0.
         25    1    1    2    0    0 -0.14104355780E+03  0.31736890999E+02 -0.37610324464E+03  0.42187577090E+03  0.12500000000E+03 0.  0.
</event>
<event>
 5    0  0.5677492E-005  0.2508407E+03  0.7546771E-02  0.1112775E+00
         21   -1    0    0  502  501  0.00000000000E+00  0.00000000000E+00  0.37549523912E+02  0.37549523912E+02  0.00000000000E+00 0.  1.
         21   -1    0    0  501  502 -0.00000000000E+00 -0.00000000000E+00 -0.16756824976E+04  0.16756824976E+04  0.00000000000E+00 0.  1.
         25    1    1    2    0    0  0.14476268501E+03 -0.19194489870E+02 -0.84085295419E+03  0.86254469680E+03  0.12500000000E+03 0.  0.
         25    1    1    2    0    0 -0.69101925187E+02  0.15163896627E+02 -0.30431386276E+03  0.33650697897E+03  0.12500000000E+03 0.  0.
         25    1    1    2    0    0 -0.75660759820E+02  0.40305932428E+01 -0.49296615672E+03  0.51418034572E+03  0.12500000000E+03 0.  0.
</event>
<event>
 5    0  0.5677492E-005  0.3949450E+03  0.7546771E-02  0.1045544E+00
         21   -1    0    0  502  501  0.00000000000E+00  0.00000000000E+00  0.18221180516E+03  0.18221180516E+03  0.00000000000E+00 0. -1.
         21   -1    0    0  501  502 -0.00000000000E+00 -0.00000000000E+00 -0.85604520022E+03  0.85604520022E+03  0.00000000000E+00 0. -1.
         25    1    1    2    0    0  0.21297948234E+02  0.22389999498E+03 -0.19752214665E+03  0.32438373690E+03  0.12500000000E+03 0.  0.
         25    1    1    2    0    0  0.41253856332E+02 -0.10290531236E+03 -0.50029041056E+03  0.52745320065E+03  0.12500000000E+03 0.  0.
         25    1    1    2    0    0 -0.62551804565E+02 -0.12099468262E+03  0.23979162148E+02  0.18642006784E+03  0.12500000000E+03 0.  0.
</event>
<event>
 5    0  0.5677492E-005  0.2502665E+03  0.7546771E-02  0.1113137E+00
         21   -1    0    0  502  501  0.00000000000E+00  0.00000000000E+00  0.56317863276E+03  0.56317863276E+03  0.00000000000E+00 0.  1.
         21   -1    0    0  501  502 -0.00000000000E+00 -0.00000000000E+00 -0.11121392681E+03  0.11121392681E+03  0.00000000000E+00 0.  1.
         25    1    1    2    0    0 -0.52669146669E+02  0.10887604565E+03  0.14292169839E+03  0.22512139880E+03  0.12500000000E+03 0.  0.
         25    1    1    2    0    0  0.85587250580E+02 -0.72267794905E+02  0.85265318251E+02  0.18826307694E+03  0.12500000000E+03 0.  0.
         25    1    1    2    0    0 -0.32918103910E+02 -0.36608250744E+02  0.22377768931E+03  0.26100808382E+03  0.12500000000E+03 0.  0.
</event>
<event>
 5    0  0.5677492E-005  0.3960400E+03  0.7546771E-02  0.1045160E+00
         21   -1    0    0  502  501  0.00000000000E+00  0.00000000000E+00  0.65804781686E+03  0.65804781686E+03  0.00000000000E+00 0.  1.
         21   -1    0    0  501  502 -0.00000000000E+00 -0.00000000000E+00 -0.23835305496E+03  0.23835305496E+03  0.00000000000E+00 0.  1.
         25    1    1    2    0    0 -0.29902306417E+02 -0.30558301114E+03  0.34812418687E+03  0.48071880981E+03  0.12500000000E+03 0.  0.
         25    1    1    2    0    0 -0.15295457623E+01  0.84534594012E+02  0.37070223845E+01  0.15095422853E+03  0.12500000000E+03 0.  0.
         25    1    1    2    0    0  0.31431852179E+02  0.22104841712E+03  0.67863552646E+02  0.26472783349E+03  0.12500000000E+03 0.  0.
</event>
<event>
 5    0  0.5677492E-005  0.2883836E+03  0.7546771E-02  0.1091196E+00
         21   -1    0    0  502  501  0.00000000000E+00  0.00000000000E+00  0.15608668540E+03  0.15608668540E+03  0.00000000000E+00 0.  1.
         21   -1    0    0  501  502 -0.00000000000E+00 -0.00000000000E+00 -0.53281351566E+03  0.53281351566E+03  0.00000000000E+00 0.  1.
         25    1    1    2    0    0 -0.11002047965E+03  0.13071725766E+03 -0.11663581824E+03  0.24170316814E+03  0.12500000000E+03 0.  0.
         25    1    1    2    0    0  0.57963876571E+02 -0.11759174348E+03 -0.35456930518E+02  0.18458012635E+03  0.12500000000E+03 0.  0.
         25    1    1    2    0    0  0.52056603077E+02 -0.13125514181E+02 -0.22463408150E+03  0.26261690658E+03  0.12500000000E+03 0.  0.
</event>
<event>
 5    0  0.5677492E-005  0.2597633E+03  0.7546771E-02  0.1107286E+00
         21   -1    0    0  502  501  0.00000000000E+00  0.00000000000E+00  0.86819132816E+03  0.86819132816E+03  0.00000000000E+00 0.  1.
         21   -1    0    0  501  502 -0.00000000000E+00 -0.00000000000E+00 -0.77721309872E+02  0.77721309872E+02  0.00000000000E+00 0.  1.
         25    1    1    2    0    0  0.10245767242E+03  0.70963338182E+02  0.14413647437E+03  0.22788965147E+03  0.12500000000E+03 0.  0.
         25    1    1    2    0    0 -0.80432739341E+02 -0.55053667667E+02  0.49557570487E+03  0.52030818862E+03  0.12500000000E+03 0.  0.
         25    1    1    2    0    0 -0.22024933075E+02 -0.15909670515E+02  0.15075783904E+03  0.19771479794E+03  0.12500000000E+03 0.  0.
</event>
<event>
 5    0  0.5677492E-005  0.3510698E+03  0.7546771E-02  0.1062177E+00
         21   -1    0    0  502  501  0.00000000000E+00  0.00000000000E+00  0.62919905093E+03  0.62919905093E+03  0.00000000000E+00 0. -1.
         21   -1    0    0  501  502 -0.00000000000E+00 -0.00000000000E+00 -0.19588394807E+03  0.19588394807E+03  0.00000000000E+00 0. -1.
         25    1    1    2    0    0  0.11246798560E+03 -0.16706844990E+02  0.20465397089E+01  0.16898921498E+03  0.12500000000E+03 0.  0.
         25    1    1    2    0    0 -0.10113454018E+03  0.21512172229E+02  0.49093130922E+03  0.51703918530E+03  0.12500000000E+03 0.  0.
         25    1    1    2    0    0 -0.11333445420E+02 -0.48053272392E+01 -0.59662746074E+02  0.13905459872E+03  0.12500000000E+03 0.  0.
</event>
<event>
 5    0  0.5677492E-005  0.6977366E+03  0.7546771E-02  0.9721111E-01
         21   -1    0    0  502  501  0.00000000000E+00  0.00000000000E+00  0.20735710371E+04  0.20735710371E+04  0.00000000000E+00 0. -1.
         21   -1    0    0  501  502 -0.00000000000E+00 -0.00000000000E+00 -0.23478162130E+03  0.23478162130E+03  0.00000000000E+00 0. -1.
         25    1    1    2    0    0 -0.23884981958E+03  0.22523127812E+03  0.22411915189E+03  0.41669264356E+03  0.12500000000E+03 0.  0.
         25    1    1    2    0    0  0.10304149809E+03  0.59182861805E+02 -0.60308998778E+02  0.18270833805E+03  0.12500000000E+03 0.  0.
         25    1    1    2    0    0  0.13580832148E+03 -0.28441413992E+03  0.16749792627E+04  0.17089516768E+04  0.12500000000E+03 0.  0.
</event>
<event>
 5    0  0.5841463E-005  0.3043131E+03  0.7546771E-02  0.1083104E+00
         21   -1    0    0  502  501  0.00000000000E+00  0.00000000000E+00  0.15586905249E+03  0.15586905249E+03  0.00000000000E+00 0.  1.
         21   -1    0    0  501  502 -0.00000000000E+00 -0.00000000000E+00 -0.59412977670E+03  0.59412977670E+03  0.00000000000E+00 0.  1.
         25    1    1    2    0    0 -0.94534270528E+02 -0.60010171545E+02 -0.25803435123E+02  0.16979035973E+03  0.12500000000E+03 0.  0.
         25    1    1    2    0    0  0.12616811779E+03 -0.96312198012E+02 -0.16859558733E+03  0.26314236736E+03  0.12500000000E+03 0.  0.
         25    1    1    2    0    0 -0.31633847267E+02  0.15632236956E+03 -0.24386170175E+03  0.31706610209E+03  0.12500000000E+03 0.  0.
</event>
<event>
 5    0  0.5677492E-005  0.4233572E+03  0.7546771E-02  0.1035979E+00
         21   -1    0    0  502  501  0.00000000000E+00  0.00000000000E+00  0.49242660986E+03  0.49242660986E+03  0.00000000000E+00 0. -1.
         21   -1    0    0  501  502 -0.00000000000E+00 -0.00000000000E+00 -0.36397576192E+03  0.36397576192E+03  0.00000000000E+00 0. -1.
         25    1    1    2    0    0 -0.35142230009E+01  0.10467729433E+03  0.10104922684E+03  0.19184793967E+03  0.12500000000E+03 0.  0.
         25    1    1    2    0    0 -0.11323010548E+03 -0.16875863319E+03  0.27036980389E+03  0.36059029925E+03  0.12500000000E+03 0.  0.
         25    1    1    2    0    0  0.11674432848E+03  0.64081338857E+02 -0.24296818278E+03  0.30396413286E+03  0.12500000000E+03 0.  0.
</event>
<event>
 5    0  0.5677492E-005  0.2282691E+03  0.7546771E-02  0.1127864E+00
         21   -1    0    0  502  501  0.00000000000E+00  0.00000000000E+00  0.25986204719E+03  0.25986204719E+03  0.00000000000E+00 0.  1.
         21   -1    0    0  501  502 -0.00000000000E+00 -0.00000000000E+00 -0.20051703521E+03  0.20051703521E+03  0.00000000000E+00 0.  1.
         25    1    1    2    0    0  0.44579637197E+02  0.26715032030E+02  0.75496439332E+02  0.15500241721E+03  0.12500000000E+03 0.  0.
         25    1    1    2    0    0 -0.71659778045E+02  0.53410203138E+02 -0.15561313163E+02  0.15445040646E+03  0.12500000000E+03 0.  0.
         25    1    1    2    0    0  0.27080140848E+02 -0.80125235169E+02 -0.59011418031E+00  0.15092625873E+03  0.12500000000E+03 0.  0.
</event>
<event>
 5    0  0.5677492E-005  0.3168412E+03  0.7546771E-02  0.1077112E+00
         21   -1    0    0  502  501  0.00000000000E+00  0.00000000000E+00  0.16333426599E+03  0.16333426599E+03  0.00000000000E+00 0.  1.
         21   -1    0    0  501  502 -0.00000000000E+00 -0.00000000000E+00 -0.61461892967E+03  0.61461892967E+03  0.00000000000E+00 0.  1.
         25    1    1    2    0    0 -0.30776942040E+02  0.23630311568E+02 -0.12728280626E+03  0.18256923223E+03  0.12500000000E+03 0.  0.
         25    1    1    2    0    0  0.15078841227E+03 -0.86900968797E+02 -0.34868855808E+03  0.40926474829E+03  0.12500000000E+03 0.  0.
         25    1    1    2    0    0 -0.12001147023E+03  0.63270657230E+02  0.24686700661E+02  0.18611921514E+03  0.12500000000E+03 0.  0.
</event>
<event>
 5    0  0.5677492E-005  0.4230295E+03  0.7546771E-02  0.1036085E+00
         21   -1    0    0  502  501  0.00000000000E+00  0.00000000000E+00  0.22522018628E+03  0.22522018628E+03  0.00000000000E+00 0. -1.
         21   -1    0    0  501  502 -0.00000000000E+00 -0.00000000000E+00 -0.79457325065E+03  0.79457325065E+03  0.00000000000E+00 0. -1.
         25    1    1    2    0    0  0.49961607994E+02  0.54218649217E+02 -0.35435590605E+03  0.38292157467E+03  0.12500000000E+03 0.  0.
         25    1    1    2    0    0 -0.10561785799E+03 -0.20034149758E+02 -0.38332057806E+03  0.41727229077E+03  0.12500000000E+03 0.  0.
         25    1    1    2    0    0  0.55656249995E+02 -0.34184499459E+02  0.16832341974E+03  0.21959957149E+03  0.12500000000E+03 0.  0.
</event>
<event>
 5    0  0.5677492E-005  0.4211777E+03  0.7546771E-02  0.1036684E+00
         21   -1    0    0  502  501  0.00000000000E+00  0.00000000000E+00  0.44410797442E+03  0.44410797442E+03  0.00000000000E+00 0.  1.
         21   -1    0    0  501  502 -0.00000000000E+00 -0.00000000000E+00 -0.39943141529E+03  0.39943141529E+03  0.00000000000E+00 0.  1.
         25    1    1    2    0    0  0.31000321412E+03 -0.10089462954E+03  0.15072335154E+03  0.38029494834E+03  0.12500000000E+03 0.  0.
         25    1    1    2    0    0 -0.15400263983E+03  0.55188868853E+02  0.42257590679E+02  0.21017451865E+03  0.12500000000E+03 0.  0.
         25    1    1    2    0    0 -0.15600057429E+03  0.45705760686E+02 -0.14830438309E+03  0.25306992272E+03  0.12500000000E+03 0.  0.
</event>
<event>
 5    0  0.6564622E-005  0.3253614E+03  0.7546771E-02  0.1073208E+00
         21   -1    0    0  502  501  0.00000000000E+00  0.00000000000E+00  0.70170874149E+03  0.70170874149E+03  0.00000000000E+00 0.  1.
         21   -1    0    0  501  502 -0.00000000000E+00 -0.00000000000E+00 -0.15086037469E+03  0.15086037469E+03  0.00000000000E+00 0.  1.
         25    1    1    2    0    0 -0.93757387147E+02 -0.10189890726E+03  0.54240303758E+02  0.19427003242E+03  0.12500000000E+03 0.  0.
         25    1    1    2    0    0 -0.82508975670E+02  0.14845977709E+03  0.25239072754E+03  0.32889833661E+03  0.12500000000E+03 0.  0.
         25    1    1    2    0    0  0.17626636282E+03 -0.46560869827E+02  0.24421733550E+03  0.32940074714E+03  0.12500000000E+03 0.  0.
</event>
<event>
 5    0  0.6004720E-005  0.2894797E+03  0.7546771E-02  0.1090621E+00
         21   -1    0    0  502  501  0.00000000000E+00  0.00000000000E+00  0.40981544827E+03  0.40981544827E+03  0.00000000000E+00 0.  1.
         21   -1    0    0  501  502 -0.00000000000E+00 -0.00000000000E+00 -0.20447861683E+03  0.20447861683E+03  0.00000000000E+00 0.  1.
         25    1    1    2    0    0 -0.60933185343E+02 -0.85575355715E+02  0.22273719429E+03  0.27617540133E+03  0.12500000000E+03 0.  0.
         25    1    1    2    0    0 -0.52534985495E+02  0.56879433822E+02 -0.64433224078E+02  0.16053608647E+03  0.12500000000E+03 0.  0.
         25    1    1    2    0    0  0.11346817084E+03  0.28695921892E+02  0.47032861230E+02  0.17758257730E+03  0.12500000000E+03 0.  0.
</event>
<event>
 5    0  0.5677492E-005  0.5282143E+03  0.7546771E-02  0.1006666E+00
         21   -1    0    0  502  501  0.00000000000E+00  0.00000000000E+00  0.25619574557E+03  0.25619574557E+03  0.00000000000E+00 0.  1.
         21   -1    0    0  501  502 -0.00000000000E+00 -0.00000000000E+00 -0.10890513999E+04  0.10890513999E+04  0.00000000000E+00 0.  1.
         25    1    1    2    0    0 -0.14048407093E+03  0.31852450603E+01 -0.53865599732E+03  0.57054465506E+03  0.12500000000E+03 0.  0.
         25    1    1    2    0    0  0.34496931162E+03  0.17198277735E+03 -0.92031870465E+02  0.41554394093E+03  0.12500000000E+03 0.  0.
         25    1    1    2    0    0 -0.20448524069E+03 -0.17516802241E+03 -0.20216778653E+03  0.35915854945E+03  0.12500000000E+03 0.  0.
</event>
<event>
 5    0  0.5677492E-005  0.4034043E+03  0.7546771E-02  0.1042607E+00
         21   -1    0    0  502  501  0.00000000000E+00  0.00000000000E+00  0.16311685084E+03  0.16311685084E+03  0.00000000000E+00 0.  1.
         21   -1    0    0  501  502 -0.00000000000E+00 -0.00000000000E+00 -0.99765912099E+03  0.99765912099E+03  0.00000000000E+00 0.  1.
         25    1    1    2    0    0  0.18946272675E+02 -0.34200516788E+03 -0.45084462311E+03  0.57983822769E+03  0.12500000000E+03 0.  0.
         25    1    1    2    0    0 -0.46984303657E+02  0.14182657402E+03 -0.21089184114E+03  0.28709348747E+03  0.12500000000E+03 0.  0.
         25    1    1    2    0    0  0.28038030982E+02  0.20017859386E+03 -0.17280580591E+03  0.29384425667E+03  0.12500000000E+03 0.  0.
</event>
<event>
 5    0  0.6395995E-005  0.2920299E+03  0.7546771E-02  0.1089294E+00
         21   -1    0    0  502  501  0.00000000000E+00  0.00000000000E+00  0.11216295334E+03  0.11216295334E+03  0.00000000000E+00 0. -1.
         21   -1    0    0  501  502 -0.00000000000E+00 -0.00000000000E+00 -0.76033531076E+03  0.76033531076E+03  0.00000000000E+00 0. -1.
         25    1    1    2    0    0 -0.47077490723E+02  0.16636730040E+03 -0.31880842918E+03  0.38361202183E+03  0.12500000000E+03 0.  0.
         25    1    1    2    0    0 -0.46621939342E+02 -0.12388582388E+03 -0.24812490823E+03  0.30775359083E+03  0.12500000000E+03 0.  0.
         25    1    1    2    0    0  0.93699430064E+02 -0.42481476524E+02 -0.81239020013E+02  0.18113265143E+03  0.12500000000E+03 0.  0.
</event>
<event>
 5    0  0.5677492E-005  0.4026948E+03  0.7546771E-02  0.1042851E+00
         21   -1    0    0  502  501  0.00000000000E+00  0.00000000000E+00  0.23820971348E+03  0.23820971348E+03  0.00000000000E+00 0.  1.
         21   -1    0    0  501  502 -0.00000000000E+00 -0.00000000000E+00 -0.68075781582E+03  0.68075781582E+03  0.00000000000E+00 0.  1.
         25    1    1    2    0    0 -0.13511745556E+03 -0.20187541782E+03 -0.18405886380E+03  0.32941323055E+03  0.12500000000E+03 0.  0.
         25    1    1    2    0    0 -0.40333897413E+02  0.20086493284E+03  0.16108479178E+02  0.24053695689E+03  0.12500000000E+03 0.  0.
         25    1    1    2    0    0  0.17545135298E+03  0.10104849825E+01 -0.27459771773E+03  0.34901734186E+03  0.12500000000E+03 0.  0.
</event>
<event>
 5    0  0.5677492E-005  0.2816952E+03  0.7546771E-02  0.1094767E+00
         21   -1    0    0  502  501  0.00000000000E+00  0.00000000000E+00  0.91843662518E+03  0.91843662518E+03  0.00000000000E+00 0.  1.
         21   -1    0    0  501  502 -0.00000000000E+00 -0.00000000000E+00 -0.86399216849E+02  0.86399216849E+02  0.00000000000E+00 0.  1.
         25    1    1    2    0    0  0.91297954042E+02 -0.12566452370E+03  0.32099055004E+03  0.37787143600E+03  0.12500000000E+03 0.  0.
         25    1    1    2    0    0 -0.12622965383E+02 -0.23234125757E+02  0.89088698116E+02  0.15575930145E+03  0.12500000000E+03 0.  0.
         25    1    1    2    0    0 -0.78674988658E+02  0.14889864945E+03  0.42195816018E+03  0.47120510459E+03  0.12500000000E+03 0.  0.
</event>
<event>
 5    0  0.5677492E-005  0.4270646E+03  0.7546771E-02  0.1034791E+00
         21   -1    0    0  502  501  0.00000000000E+00  0.00000000000E+00  0.27326675087E+03  0.27326675087E+03  0.00000000000E+00 0.  1.
         21   -1    0    0  501  502 -0.00000000000E+00 -0.00000000000E+00 -0.66742179233E+03  0.66742179233E+03  0.00000000000E+00 0.  1.
         25    1    1    2    0    0 -0.21538523256E+03  0.23199605290E+03 -0.30380321256E+03  0.45621744698E+03  0.12500000000E+03 0.  0.
         25    1    1    2    0    0  0.75642499483E+02  0.30870841884E+02 -0.57127310691E+02  0.15988535341E+03  0.12500000000E+03 0.  0.
         25    1    1    2    0    0  0.13974273308E+03 -0.26286689479E+03 -0.33224518204E+02  0.32458574281E+03  0.12500000000E+03 0.  0.
</event>
<event>
 5    0  0.5677492E-005  0.3055076E+03  0.7546771E-02  0.1082519E+00
         21   -1    0    0  502  501  0.00000000000E+00  0.00000000000E+00  0.10439984972E+04  0.10439984972E+04  0.00000000000E+00 0. -1.
         21   -1    0    0  501  502 -0.00000000000E+00 -0.00000000000E+00 -0.89401349818E+02  0.89401349818E+02  0.00000000000E+00 0. -1.
         25    1    1    2    0    0  0.50930748408E+02  0.66970318496E+02  0.56048807056E+02  0.16076515003E+03  0.12500000000E+03 0.  0.
         25    1    1    2    0    0 -0.55215112843E+02 -0.32126024249E+01  0.12111485770E+03  0.18262759445E+03  0.12500000000E+03 0.  0.
         25    1    1    2    0    0  0.42843644352E+01 -0.63757716071E+02  0.77743348261E+03  0.79000710251E+03  0.12500000000E+03 0.  0.
</event>
<event>
 5    0  0.7778868E-005  0.2895179E+03  0.7546771E-02  0.1090601E+00
         21   -1    0    0  502  501  0.00000000000E+00  0.00000000000E+00  0.32396749262E+03  0.32396749262E+03  0.00000000000E+00 0. -1.
         21   -1    0    0  501  502 -0.00000000000E+00 -0.00000000000E+00 -0.25873154244E+03  0.25873154244E+03  0.00000000000E+00 0. -1.
         25    1    1    2    0    0 -0.82782434815E+02  0.69040213024E+02  0.91001235550E+02  0.18848264482E+03  0.12500000000E+03 0.  0.
         25    1    1    2    0    0  0.15005466857E+03 -0.13167287748E+03  0.69759394157E+01  0.23564340422E+03  0.12500000000E+03 0.  0.
         25    1    1    2    0    0 -0.67272233751E+02  0.62632664458E+02 -0.32741224788E+02  0.15857298601E+03  0.12500000000E+03 0.  0.
</event>
<event>
 5    0  0.5677492E-005  0.2623919E+03  0.7546771E-02  0.1105715E+00
         21   -1    0    0  502  501  0.00000000000E+00  0.00000000000E+00  0.23844902597E+03  0.23844902597E+03  0.00000000000E+00 0. -1.
         21   -1    0    0  501  502 -0.00000000000E+00 -0.00000000000E+00 -0.28873899338E+03  0.28873899338E+03  0.00000000000E+00 0. -1.
         25    1    1    2    0    0  0.43506723083E+02 -0.49603434873E+01  0.67975924519E+02  0.14887298706E+03  0.12500000000E+03 0.  0.
         25    1    1    2    0    0  0.34080685551E+02  0.29115262795E+02  0.60170769219E+02  0.14578996236E+03  0.12500000000E+03 0.  0.
         25    1    1    2    0    0 -0.77587408633E+02 -0.24154919308E+02 -0.17843666116E+03  0.23252506994E+03  0.12500000000E+03 0.  0.
</event>
<event>
 5    0  0.5677492E-005  0.2698900E+03  0.7546771E-02  0.1101343E+00
         21   -1    0    0  502  501  0.00000000000E+00  0.00000000000E+00  0.42971746348E+03  0.42971746348E+03  0.00000000000E+00 0. -1.
         21   -1    0    0  501  502 -0.00000000000E+00 -0.00000000000E+00 -0.16950811076E+03  0.16950811076E+03  0.00000000000E+00 0. -1.
         25    1    1    2    0    0  0.37847854392E+00 -0.84404679209E+02  0.73072536935E+02  0.16759740085E+03  0.12500000000E+03 0.  0.
         25    1    1    2    0    0 -0.10148608760E+03  0.48047072478E+02 -0.17417148905E+02  0.16892691978E+03  0.12500000000E+03 0.  0.
         25    1    1    2    0    0  0.10110760906E+03  0.36357606730E+02  0.20455396469E+03  0.26270125361E+03  0.12500000000E+03 0.  0.
</event>
<event>
 5    0  0.5677492E-005  0.3428749E+03  0.7546771E-02  0.1065578E+00
         21   -1    0    0  502  501  0.00000000000E+00  0.00000000000E+00  0.29581439185E+03  0.29581439185E+03  0.00000000000E+00 0.  1.
         21   -1    0    0  501  502 -0.00000000000E+00 -0.00000000000E+00 -0.39742228339E+03  0.39742228339E+03  0.00000000000E+00 0.  1.
         25    1    1    2    0    0  0.80735005244E+02 -0.79439157350E+02 -0.17284292153E+03  0.24151272496E+03  0.12500000000E+03 0.  0.
         25    1    1    2    0    0  0.10637332444E+03  0.86419460774E+02 -0.55181665589E+02  0.19352938684E+03  0.12500000000E+03 0.  0.
         25    1    1    2    0    0 -0.18710832968E+03 -0.69803034243E+01  0.12641669558E+03  0.25819456345E+03  0.12500000000E+03 0.  0.
</event>
<event>
 5    0  0.5677492E-005  0.4113961E+03  0.7546771E-02  0.1039904E+00
         21   -1    0    0  502  501  0.00000000000E+00  0.00000000000E+00  0.47366757321E+03  0.47366757321E+03  0.00000000000E+00 0. -1.
         21   -1    0    0  501  502 -0.00000000000E+00 -0.00000000000E+00 -0.35731120826E+03  0.35731120826E+03  0.00000000000E+00 0. -1.
         25    1    1    2    0    0  0.26268833368E+02  0.26909547647E+03  0.12303977308E+03  0.32228281496E+03  0.12500000000E+03 0.  0.
         25    1    1    2    0    0 -0.15962324297E+03 -0.44001721489E+02 -0.55262663233E+02  0.21469674692E+03  0.12500000000E+03 0.  0.
         25    1    1    2    0    0  0.13335440961E+03 -0.22509375498E+03  0.48579255103E+02  0.29399921959E+03  0.12500000000E+03 0.  0.
</event>
<event>
 5    0  0.5677492E-005  0.2960196E+03  0.7546771E-02  0.1087247E+00
         21   -1    0    0  502  501  0.00000000000E+00  0.00000000000E+00  0.76554644206E+02  0.76554644206E+02  0.00000000000E+00 0.  1.
         21   -1    0    0  501  502 -0.00000000000E+00 -0.00000000000E+00 -0.11446412298E+04  0.11446412298E+04  0.00000000000E+00 0.  1.
         25    1    1    2    0    0 -0.10256520870E+03  0.27193474610E+02 -0.64132245686E+02  0.17605979675E+03  0.12500000000E+03 0.  0.
         25    1    1    2    0    0  0.33875481401E+02 -0.57141020890E+02 -0.57212869307E+03  0.58938008615E+03  0.12500000000E+03 0.  0.
         25    1    1    2    0    0  0.68689727296E+02  0.29947546280E+02 -0.43182564684E+03  0.45575599111E+03  0.12500000000E+03 0.  0.
</event>
<event>
 5    0  0.5677492E-005  0.2170293E+03  0.7546771E-02  0.1136117E+00
         21   -1    0    0  502  501  0.00000000000E+00  0.00000000000E+00  0.92116944487E+03  0.92116944487E+03  0.00000000000E+00 0.  1.
         21   -1    0    0  501  502 -0.00000000000E+00 -0.00000000000E+00 -0.51132502749E+02  0.51132502749E+02  0.00000000000E+00 0.  1.
         25    1    1    2    0    0 -0.21139495278E+02 -0.86649194692E+02  0.20998171338E+03  0.26013896508E+03  0.12500000000E+03 0.  0.
         25    1    1    2    0    0  0.17209494684E+02  0.50497655593E+02  0.30186507721E+03  0.33104939928E+03  0.12500000000E+03 0.  0.
         25    1    1    2    0    0  0.39300005943E+01  0.36151539099E+02  0.35819015153E+03  0.38111358325E+03  0.12500000000E+03 0.  0.
</event>
<event>
 5    0  0.5677492E-005  0.3565046E+03  0.7546771E-02  0.1059977E+00
         21   -1    0    0  502  501  0.00000000000E+00  0.00000000000E+00  0.58596446269E+03  0.58596446269E+03  0.00000000000E+00 0.  1.
         21   -1    0    0  501  502 -0.00000000000E+00 -0.00000000000E+00 -0.21689966516E+03  0.21689966516E+03  0.00000000000E+00 0.  1.
         25    1    1    2    0    0 -0.60316239557E+01  0.67076027879E+02  0.10310650132E+02  0.14236180495E+03  0.12500000000E+03 0.  0.
         25    1    1    2    0    0 -0.85531514249E+01  0.21016520006E+03  0.20607681527E+03  0.31989876759E+03  0.12500000000E+03 0.  0.
         25    1    1    2    0    0  0.14584775381E+02 -0.27724122794E+03  0.15267733212E+03  0.34060355530E+03  0.12500000000E+03 0.  0.
</event>
<event>
 5    0  0.5677492E-005  0.3240491E+03  0.7546771E-02  0.1073801E+00
         21   -1    0    0  502  501  0.00000000000E+00  0.00000000000E+00  0.20618842078E+04  0.20618842078E+04  0.00000000000E+00 0.  1.
         21   -1    0    0  501  502 -0.00000000000E+00 -0.00000000000E+00 -0.50928101715E+02  0.50928101715E+02  0.00000000000E+00 0.  1.
         25    1    1    2    0    0 -0.67345690788E+02 -0.92945321385E+02  0.24425423417E+03  0.29742125974E+03  0.12500000000E+03 0.  0.
         25    1    1    2    0    0  0.72986315746E+02  0.18223120956E+03  0.13759326049E+04  0.13954750980E+04  0.12500000000E+03 0.  0.
         25    1    1    2    0    0 -0.56406249587E+01 -0.89285888180E+02  0.39076926703E+03  0.41991595175E+03  0.12500000000E+03 0.  0.
</event>
<event>
 5    0  0.5677492E-005  0.4009443E+03  0.7546771E-02  0.1043453E+00
         21   -1    0    0  502  501  0.00000000000E+00  0.00000000000E+00  0.67846567935E+03  0.67846567935E+03  0.00000000000E+00 0. -1.
         21   -1    0    0  501  502 -0.00000000000E+00 -0.00000000000E+00 -0.23694095839E+03  0.23694095839E+03  0.00000000000E+00 0. -1.
         25    1    1    2    0    0 -0.38436539795E+02 -0.30494646473E+01  0.73273429072E+02  0.14993552692E+03  0.12500000000E+03 0.  0.
         25    1    1    2    0    0 -0.16959537102E+03  0.15446380225E+03  0.39990081392E+03  0.47766862682E+03  0.12500000000E+03 0.  0.
         25    1    1    2    0    0  0.20803191081E+03 -0.15141433760E+03 -0.31649522034E+02  0.28780248399E+03  0.12500000000E+03 0.  0.
</event>
<event>
 5    0  0.6252605E-005  0.4269384E+03  0.7546771E-02  0.1034831E+00
         21   -1    0    0  502  501  0.00000000000E+00  0.00000000000E+00  0.92367272638E+03  0.92367272638E+03  0.00000000000E+00 0.  1.
         21   -1    0    0  501  502 -0.00000000000E+00 -0.00000000000E+00 -0.19733871533E+03  0.19733871533E+03  0.00000000000E+00 0.  1.
         25    1    1    2    0    0  0.21340645060E+03 -0.11744248807E+03  0.89959439053E+02  0.28818874342E+03  0.12500000000E+03 0.  0.
         25    1    1    2    0    0 -0.23309388690E+03  0.12259517918E+03  0.14539335112E+03  0.32577072400E+03  0.12500000000E+03 0.  0.
         25    1    1    2    0    0  0.19687436299E+02 -0.51526911192E+01  0.49098122087E+03  0.50705197428E+03  0.12500000000E+03 0.  0.
</event>
<event>
 5    0  0.5677492E-005  0.2481386E+03  0.7546771E-02  0.1114487E+00
         21   -1    0    0  502  501  0.00000000000E+00  0.00000000000E+00  0.42553639559E+02  0.42553639559E+02  0.00000000000E+00 0.  1.
         21   -1    0    0  501  502 -0.00000000000E+00 -0.00000000000E+00 -0.14469444411E+04  0.14469444411E+04  0.00000000000E+00 0.  1.
         25    1    1    2    0    0 -0.46281863425E+02  0.62216287607E+02 -0.24632194290E+03  0.28690133649E+03  0.12500000000E+03 0.  0.
         25    1    1    2    0    0 -0.64989175559E+02  0.95961309239E+01 -0.46188582374E+03  0.48298984756E+03  0.12500000000E+03 0.  0.
         25    1    1    2    0    0  0.11127103898E+03 -0.71812418531E+02 -0.69618303488E+03  0.71960689660E+03  0.12500000000E+03 0.  0.
</event>
<event>
 5    0  0.5677492E-005  0.2913805E+03  0.7546771E-02  0.1089631E+00
         21   -1    0    0  502  501  0.00000000000E+00  0.00000000000E+00  0.59273936197E+02  0.59273936197E+02  0.00000000000E+00 0. -1.
         21   -1    0    0  501  502 -0.00000000000E+00 -0.00000000000E+00 -0.14323764249E+04  0.14323764249E+04  0.00000000000E+00 0. -1.
         25    1    1    2    0    0 -0.12277030620E+03 -0.37767646814E+00 -0.15999255402E+03  0.23726632308E+03  0.12500000000E+03 0.  0.
         25    1    1    2    0    0  0.11883542422E+03  0.56764368654E+02 -0.66093085209E+03  0.68541858951E+03  0.12500000000E+03 0.  0.
         25    1    1    2    0    0  0.39348819836E+01 -0.56386692185E+02 -0.55217908260E+03  0.56896544852E+03  0.12500000000E+03 0.  0.
</event>
<event>
 5    0  0.5677492E-005  0.3178403E+03  0.7546771E-02  0.1076648E+00
         21   -1    0    0  502  501  0.00000000000E+00  0.00000000000E+00  0.18718891017E+04  0.18718891017E+04  0.00000000000E+00 0.  1.
         21   -1    0    0  501  502 -0.00000000000E+00 -0.00000000000E+00 -0.53968195999E+02  0.53968195999E+02  0.00000000000E+00 0.  1.
         25    1    1    2    0    0 -0.52483478596E+02  0.66940599587E+02  0.26934765876E+03  0.30888302103E+03  0.12500000000E+03 0.  0.
         25    1    1    2    0    0  0.17888803397E+03 -0.11777342193E+03  0.57809047017E+03  0.62903505412E+03  0.12500000000E+03 0.  0.
         25    1    1    2    0    0 -0.12640455538E+03  0.50832822343E+02  0.97048277681E+03  0.98793922259E+03  0.12500000000E+03 0.  0.
</event>
<event>
 5    0  0.5677492E-005  0.3659320E+03  0.7546771E-02  0.1056259E+00
         21   -1    0    0  502  501  0.00000000000E+00  0.00000000000E+00  0.48112748228E+03  0.48112748228E+03  0.00000000000E+00 0. -1.
         21   -1    0    0  501  502 -0.00000000000E+00 -0.00000000000E+00 -0.27831761491E+03  0.27831761491E+03  0.00000000000E+00 0. -1.
         25    1    1    2    0    0  0.76664922533E+02  0.20139639171E+03  0.17646484139E+03  0.30529142993E+03  0.12500000000E+03 0.  0.
         25    1    1    2    0    0  0.40239857087E+02  0.70633485796E+01 -0.91096644321E+02  0.15997729713E+03  0.12500000000E+03 0.  0.
         25    1    1    2    0    0 -0.11690477962E+03 -0.20845974029E+03  0.11744167031E+03  0.29417637014E+03  0.12500000000E+03 0.  0.
</event>
<event>
 5    0  0.5677492E-005  0.2947517E+03  0.7546771E-02  0.1087894E+00
         21   -1    0    0  502  501  0.00000000000E+00  0.00000000000E+00  0.26629106257E+03  0.26629106257E+03  0.00000000000E+00 0. -1.
         21   -1    0    0  501  502 -0.00000000000E+00 -0.00000000000E+00 -0.32625405565E+03  0.32625405565E+03  0.00000000000E+00 0. -1.
         25    1    1    2    0    0 -0.29038425942E+01 -0.37986816154E+02  0.14281071070E+03  0.19357512648E+03  0.12500000000E+03 0.  0.
         25    1    1    2    0    0  0.73122909713E+02  0.10396340471E+03 -0.14867587878E+03  0.23213114047E+03  0.12500000000E+03 0.  0.
         25    1    1    2    0    0 -0.70219067119E+02 -0.65976588555E+02 -0.54097825002E+02  0.16683885127E+03  0.12500000000E+03 0.  0.
</event>
<event>
 5    0  0.5677492E-005  0.2471532E+03  0.7546771E-02  0.1115117E+00
         21   -1    0    0  502  501  0.00000000000E+00  0.00000000000E+00  0.74300675384E+02  0.74300675384E+02  0.00000000000E+00 0.  1.
         21   -1    0    0  501  502 -0.00000000000E+00 -0.00000000000E+00 -0.82212882639E+03  0.82212882639E+03  0.00000000000E+00 0.  1.
         25    1    1    2    0    0 -0.59558662829E+02 -0.10410464914E+03 -0.47728666557E+03  0.50775247259E+03  0.12500000000E+03 0.  0.
         25    1    1    2    0    0  0.28062293471E+02  0.66844518260E+02 -0.15038702392E+03  0.20855919759E+03  0.12500000000E+03 0.  0.
         25    1    1    2    0    0  0.31496369359E+02  0.37260130879E+02 -0.12015446152E+03  0.18011783160E+03  0.12500000000E+03 0.  0.
</event>
<event>
 5    0  0.5677492E-005  0.5940194E+03  0.7546771E-02  0.9917892E-01
         21   -1    0    0  502  501  0.00000000000E+00  0.00000000000E+00  0.12526181179E+04  0.12526181179E+04  0.00000000000E+00 0. -1.
         21   -1    0    0  501  502 -0.00000000000E+00 -0.00000000000E+00 -0.28169723098E+03  0.28169723098E+03  0.00000000000E+00 0. -1.
         25    1    1    2    0    0  0.18673756543E+03 -0.88807723068E+02  0.85574244495E+02  0.25633119463E+03  0.12500000000E+03 0.  0.
         25    1    1    2    0    0 -0.53292181691E+03  0.72197899624E+02  0.50062973480E+03  0.74530083256E+03  0.12500000000E+03 0.  0.
         25    1    1    2    0    0  0.34618425148E+03  0.16609823444E+02  0.38471690763E+03  0.53268332171E+03  0.12500000000E+03 0.  0.
</event>
<event>
 5    0  0.5677492E-005  0.2525009E+03  0.7546771E-02  0.1111734E+00
         21   -1    0    0  502  501  0.00000000000E+00  0.00000000000E+00  0.44891883830E+02  0.44891883830E+02  0.00000000000E+00 0. -1.
         21   -1    0    0  501  502 -0.00000000000E+00 -0.00000000000E+00 -0.14202284140E+04  0.14202284140E+04  0.00000000000E+00 0. -1.
         25    1    1    2    0    0  0.37852809714E+02  0.71207071611E+02 -0.81511672408E+03  0.82857923950E+03  0.12500000000E+03 0.  0.
         25    1    1    2    0    0 -0.83375715934E+02 -0.57957364650E+02 -0.37495295022E+03  0.40807509236E+03  0.12500000000E+03 0.  0.
         25    1    1    2    0    0  0.45522906220E+02 -0.13249706961E+02 -0.18526685588E+03  0.22846596598E+03  0.12500000000E+03 0.  0.
</event>
<event>
 5    0  0.5677492E-005  0.2120035E+03  0.7546771E-02  0.1139989E+00
         21   -1    0    0  502  501  0.00000000000E+00  0.00000000000E+00  0.19125018403E+03  0.19125018403E+03  0.00000000000E+00 0. -1.
         21   -1    0    0  501  502 -0.00000000000E+00 -0.00000000000E+00 -0.23500879174E+03  0.23500879174E+03  0.00000000000E+00 0. -1.
         25    1    1    2    0    0  0.35055314859E+02  0.50816088916E+02 -0.87237234949E+01  0.13968626756E+03  0.12500000000E+03 0.  0.
         25    1    1    2    0    0 -0.54553187126E+02 -0.30682707491E+02 -0.66284060958E+02  0.15471281622E+03  0.12500000000E+03 0.  0.
         25    1    1    2    0    0  0.19497872267E+02 -0.20133381424E+02  0.31249176735E+02  0.13185989200E+03  0.12500000000E+03 0.  0.
</event>
<event>
 5    0  0.5677492E-005  0.3824633E+03  0.7546771E-02  0.1050027E+00
         21   -1    0    0  502  501  0.00000000000E+00  0.00000000000E+00  0.17331836420E+03  0.17331836420E+03  0.00000000000E+00 0. -1.
         21   -1    0    0  501  502 -0.00000000000E+00 -0.00000000000E+00 -0.84398550028E+03  0.84398550028E+03  0.00000000000E+00 0. -1.
         25    1    1    2    0    0 -0.17509025805E+03  0.34196892803E+02 -0.13858903814E+03  0.25818200448E+03  0.12500000000E+03 0.  0.
         25    1    1    2    0    0 -0.18790785643E+02 -0.14141898587E+03 -0.24352696297E+02  0.19123408955E+03  0.12500000000E+03 0.  0.
         25    1    1    2    0    0  0.19388104370E+03  0.10722209307E+03 -0.50772540164E+03  0.56788777044E+03  0.12500000000E+03 0.  0.
</event>
<event>
 5    0  0.5677492E-005  0.3149305E+03  0.7546771E-02  0.1078006E+00
         21   -1    0    0  502  501  0.00000000000E+00  0.00000000000E+00  0.60879066988E+03  0.60879066988E+03  0.00000000000E+00 0.  1.
         21   -1    0    0  501  502 -0.00000000000E+00 -0.00000000000E+00 -0.16291510996E+03  0.16291510996E+03  0.00000000000E+00 0.  1.
         25    1    1    2    0    0 -0.74201282121E+02 -0.12841568368E+03  0.24916747274E+03  0.31576232764E+03  0.12500000000E+03 0.  0.
         25    1    1    2    0    0  0.24371807177E+02  0.13261862659E+03  0.25069297406E+03  0.31089170517E+03  0.12500000000E+03 0.  0.
         25    1    1    2    0    0  0.49829474944E+02 -0.42029429024E+01 -0.53984886878E+02  0.14505174702E+03  0.12500000000E+03 0.  0.
</event>
<event>
 5    0  0.5677492E-005  0.2955202E+03  0.7546771E-02  0.1087502E+00
         21   -1    0    0  502  501  0.00000000000E+00  0.00000000000E+00  0.25342143393E+02  0.25342143393E+02  0.00000000000E+00 0. -1.
         21   -1    0    0  501  502 -0.00000000000E+00 -0.00000000000E+00 -0.34461254981E+04  0.34461254981E+04  0.00000000000E+00 0. -1.
         25    1    1    2    0    0  0.99716398312E+02  0.19364228463E+03 -0.14753276689E+04  0.14965485041E+04  0.12500000000E+03 0.  0.
         25    1    1    2    0    0 -0.89517608892E+02 -0.10867576355E+03 -0.11016573393E+04  0.11176304027E+04  0.12500000000E+03 0.  0.
         25    1    1    2    0    0 -0.10198789420E+02 -0.84966521080E+02 -0.84379834653E+03  0.85728873468E+03  0.12500000000E+03 0.  0.
</event>
<event>
 5    0  0.5677492E-005  0.2603850E+03  0.7546771E-02  0.1106912E+00
         21   -1    0    0  502  501  0.00000000000E+00  0.00000000000E+00  0.13032110310E+04  0.13032110310E+04  0.00000000000E+00 0. -1.
         21   -1    0    0  501  502 -0.00000000000E+00 -0.00000000000E+00 -0.52025616041E+02  0.52025616041E+02  0.00000000000E+00 0. -1.
         25    1    1    2    0    0 -0.20465339508E+02  0.45707825766E+02  0.60759224165E+03  0.62233541404E+03  0.12500000000E+03 0.  0.
         25    1    1    2    0    0 -0.29504737448E+02 -0.10402526664E+03  0.16998031328E+03  0.23708667726E+03  0.12500000000E+03 0.  0.
         25    1    1    2    0    0  0.49970076957E+02  0.58317440870E+02  0.47361286003E+03  0.49581455575E+03  0.12500000000E+03 0.  0.
</event>
<event>
 5    0  0.6488953E-005  0.3416046E+03  0.7546771E-02  0.1066115E+00
         21   -1    0    0  502  501  0.00000000000E+00  0.00000000000E+00  0.47446148184E+03  0.47446148184E+03  0.00000000000E+00 0.  1.
         21   -1    0    0  501  502 -0.00000000000E+00 -0.00000000000E+00 -0.24594973109E+03  0.24594973109E+03  0.00000000000E+00 0.  1.
         25    1    1    2    0    0  0.23446124095E+03  0.86469807090E+02  0.15197128818E+03  0.31807133395E+03  0.12500000000E+03 0.  0.
         25    1    1    2    0    0 -0.16093782170E+03 -0.52519175974E+02  0.12615173392E+03  0.24535383891E+03  0.12500000000E+03 0.  0.
         25    1    1    2    0    0 -0.73523419256E+02 -0.33950631115E+02 -0.49611271342E+02  0.15698604007E+03  0.12500000000E+03 0.  0.
</event>
<event>
 5    0  0.5677492E-005  0.4077431E+03  0.7546771E-02  0.1041131E+00
         21   -1    0    0  502  501  0.00000000000E+00  0.00000000000E+00  0.37805292515E+03  0.37805292515E+03  0.00000000000E+00 0. -1.
         21   -1    0    0  501  502 -0.00000000000E+00 -0.00000000000E+00 -0.43976497497E+03  0.43976497497E+03  0.00000000000E+00 0. -1.
         25    1    1    2    0    0 -0.64596238235E+02 -0.13384860538E+03  0.94942861079E+02  0.21616491396E+03  0.12500000000E+03 0.  0.
         25    1    1    2    0    0  0.21064540535E+03 -0.53489758551E+02 -0.21111493762E+03  0.32776082431E+03  0.12500000000E+03 0.  0.
         25    1    1    2    0    0 -0.14604916712E+03  0.18733836393E+03  0.54460026716E+02  0.27389216185E+03  0.12500000000E+03 0.  0.
</event>
<event>
 5    0  0.5677492E-005  0.2626430E+03  0.7546771E-02  0.1105566E+00
         21   -1    0    0  502  501  0.00000000000E+00  0.00000000000E+00  0.12570451835E+03  0.12570451835E+03  0.00000000000E+00 0. -1.
         21   -1    0    0  501  502 -0.00000000000E+00 -0.00000000000E+00 -0.54875781633E+03  0.54875781633E+03  0.00000000000E+00 0. -1.
         25    1    1    2    0    0  0.50519964958E+02  0.59750897145E+02 -0.24590326275E+03  0.28673306611E+03  0.12500000000E+03 0.  0.
         25    1    1    2    0    0 -0.40662765361E+02 -0.83353962048E+01  0.34732398991E+02  0.13621409199E+03  0.12500000000E+03 0.  0.
         25    1    1    2    0    0 -0.98571995974E+01 -0.51415500941E+02 -0.21188243422E+03  0.25151517658E+03  0.12500000000E+03 0.  0.
</event>
<event>
 5    0  0.5677492E-005  0.2490959E+03  0.7546771E-02  0.1113878E+00
         21   -1    0    0  502  501  0.00000000000E+00  0.00000000000E+00  0.48061193697E+03  0.48061193697E+03  0.00000000000E+00 0. -1.
         21   -1    0    0  501  502 -0.00000000000E+00 -0.00000000000E+00 -0.12910366258E+03  0.12910366258E+03  0.00000000000E+00 0. -1.
         25    1    1    2    0    0  0.87399711362E+02 -0.30019571496E+02  0.17323323062E+03  0.23275445519E+03  0.12500000000E+03 0.  0.
         25    1    1    2    0    0  0.37824296272E+02  0.47049657645E+02  0.13582300505E+03  0.19420925924E+03  0.12500000000E+03 0.  0.
         25    1    1    2    0    0 -0.12522400763E+03 -0.17030086148E+02  0.42452038711E+02  0.18275188511E+03  0.12500000000E+03 0.  0.
</event>
<event>
 5    0  0.5677492E-005  0.8698220E+03  0.7546771E-02  0.9464112E-01
         21   -1    0    0  502  501  0.00000000000E+00  0.00000000000E+00  0.10858306109E+04  0.10858306109E+04  0.00000000000E+00 0.  1.
         21   -1    0    0  501  502 -0.00000000000E+00 -0.00000000000E+00 -0.69678483012E+03  0.69678483012E+03  0.00000000000E+00 0.  1.
         25    1    1    2    0    0 -0.33921700528E+03  0.54137396598E+02 -0.24725532236E+03  0.44131533943E+03  0.12500000000E+03 0.  0.
         25    1    1    2    0    0  0.56068660099E+03 -0.32914325956E+03  0.69759079915E+03  0.96174979746E+03  0.12500000000E+03 0.  0.
         25    1    1    2    0    0 -0.22146959571E+03  0.27500586297E+03 -0.61289696057E+02  0.37955030409E+03  0.12500000000E+03 0.  0.
</event>
<event>
 5    0  0.5677492E-005  0.3182445E+03  0.7546771E-02  0.1076460E+00
         21   -1    0    0  502  501  0.00000000000E+00  0.00000000000E+00  0.33863114905E+03  0.33863114905E+03  0.00000000000E+00 0.  1.
         21   -1    0    0  501  502 -0.00000000000E+00 -0.00000000000E+00 -0.29908512141E+03  0.29908512141E+03  0.00000000000E+00 0.  1.
         25    1    1    2    0    0  0.73947176889E+02  0.10532433770E+03  0.11254388799E+03  0.21178415381E+03  0.12500000000E+03 0.  0.
         25    1    1    2    0    0 -0.14049608344E+03  0.28927506347E+02 -0.12035181898E+03  0.22513442744E+03  0.12500000000E+03 0.  0.
         25    1    1    2    0    0  0.66548906555E+02 -0.13425184405E+03  0.47353958634E+02  0.20079768921E+03  0.12500000000E+03 0.  0.
</event>
<event>
 5    0  0.6666034E-005  0.3979186E+03  0.7546771E-02  0.1044503E+00
         21   -1    0    0  502  501  0.00000000000E+00  0.00000000000E+00  0.32668334643E+03  0.32668334643E+03  0.00000000000E+00 0.  1.
         21   -1    0    0  501  502 -0.00000000000E+00 -0.00000000000E+00 -0.48468711765E+03  0.48468711765E+03  0.00000000000E+00 0.  1.
         25    1    1    2    0    0  0.23066774797E+03 -0.48260356175E+02 -0.97265132822E+02  0.28394044797E+03  0.12500000000E+03 0.  0.
         25    1    1    2    0    0 -0.15068379073E+03  0.15145523920E+03 -0.18419428114E+03  0.30853983126E+03  0.12500000000E+03 0.  0.
         25    1    1    2    0    0 -0.79983957246E+02 -0.10319488302E+03  0.12345564274E+03  0.21889018485E+03  0.12500000000E+03 0.  0.
</event>
<event>
 5    0  0.5677492E-005  0.4208918E+03  0.7546771E-02  0.1036776E+00
         21   -1    0    0  502  501  0.00000000000E+00  0.00000000000E+00  0.14162388543E+03  0.14162388543E+03  0.00000000000E+00 0. -1.
         21   -1    0    0  501  502 -0.00000000000E+00 -0.00000000000E+00 -0.12508474533E+04  0.12508474533E+04  0.00000000000E+00 0. -1.
         25    1    1    2    0    0 -0.18980409252E+02  0.18658330385E+03 -0.69445724074E+03  0.73011604860E+03  0.12500000000E+03 0.  0.
         25    1    1    2    0    0 -0.17488243525E+03 -0.47528820023E+02 -0.83609528554E+02  0.23549608948E+03  0.12500000000E+03 0.  0.
         25    1    1    2    0    0  0.19386284451E+03 -0.13905448382E+03 -0.33115679861E+03  0.42685920069E+03  0.12500000000E+03 0.  0.
</event>
<event>
 5    0  0.5677492E-005  0.2520553E+03  0.7546771E-02  0.1112013E+00
         21   -1    0    0  502  501  0.00000000000E+00  0.00000000000E+00  0.50065821820E+02  0.50065821820E+02  0.00000000000E+00 0.  1.
         21   -1    0    0  501  502 -0.00000000000E+00 -0.00000000000E+00 -0.12689668039E+04  0.12689668039E+04  0.00000000000E+00 0.  1.
         25    1    1    2    0    0  0.32113413383E+02  0.10317451454E+03 -0.33632740082E+03  0.37472306082E+03  0.12500000000E+03 0.  0.
         25    1    1    2    0    0 -0.32838282452E+02 -0.13093369662E+03 -0.68174596179E+03  0.70613351579E+03  0.12500000000E+03 0.  0.
         25    1    1    2    0    0  0.72486906937E+00  0.27759182077E+02 -0.20082761945E+03  0.23817604909E+03  0.12500000000E+03 0.  0.
</event>
<event>
 5    0  0.5677492E-005  0.2523890E+03  0.7546771E-02  0.1111804E+00
         21   -1    0    0  502  501  0.00000000000E+00  0.00000000000E+00  0.10059724863E+03  0.10059724863E+03  0.00000000000E+00 0.  1.
         21   -1    0    0  501  502 -0.00000000000E+00 -0.00000000000E+00 -0.63322014997E+03  0.63322014997E+03  0.00000000000E+00 0.  1.
         25    1    1    2    0    0  0.72565371339E+02  0.11803946496E+01 -0.26621486225E+02  0.14697220818E+03  0.12500000000E+03 0.  0.
         25    1    1    2    0    0  0.51608626362E+01 -0.19005053793E+02 -0.34741006690E+03  0.36973853080E+03  0.12500000000E+03 0.  0.
         25    1    1    2    0    0 -0.77726233976E+02  0.17824659143E+02 -0.15859134822E+03  0.21710665962E+03  0.12500000000E+03 0.  0.
</event>
<event>
 5    0  0.5677492E-005  0.3703238E+03  0.7546771E-02  0.1054569E+00
         21   -1    0    0  502  501  0.00000000000E+00  0.00000000000E+00  0.36405776069E+03  0.36405776069E+03  0.00000000000E+00 0. -1.
         21   -1    0    0  501  502 -0.00000000000E+00 -0.00000000000E+00 -0.37669777170E+03  0.37669777170E+03  0.00000000000E+00 0. -1.
         25    1    1    2    0    0  0.11812533038E+03  0.17683851680E+03 -0.26226594917E+02  0.24806912137E+03  0.12500000000E+03 0.  0.
         25    1    1    2    0    0  0.45892253014E+02  0.39322599493E+02 -0.10207502018E+03  0.17232723366E+03  0.12500000000E+03 0.  0.
         25    1    1    2    0    0 -0.16401758339E+03 -0.21616111629E+03  0.11566160409E+03  0.32035917736E+03  0.12500000000E+03 0.  0.
</event>
<event>
 5    0  0.5677492E-005  0.3446645E+03  0.7546771E-02  0.1064826E+00
         21   -1    0    0  502  501  0.00000000000E+00  0.00000000000E+00  0.25592825176E+03  0.25592825176E+03  0.00000000000E+00 0.  1.
         21   -1    0    0  501  502 -0.00000000000E+00 -0.00000000000E+00 -0.46416771941E+03  0.46416771941E+03  0.00000000000E+00 0.  1.
         25    1    1    2    0    0 -0.85773863660E+02 -0.38994471432E+02  0.63970557883E+02  0.16910043396E+03  0.12500000000E+03 0.  0.
         25    1    1    2    0    0  0.28948318805E+02  0.36836888135E+02  0.91755289008E+02  0.16198455034E+03  0.12500000000E+03 0.  0.
         25    1    1    2    0    0  0.56825544855E+02  0.21575832972E+01 -0.36396531454E+03  0.38901098686E+03  0.12500000000E+03 0.  0.
</event>
<event>
 5    0  0.5677492E-005  0.5076920E+03  0.7546771E-02  0.1011790E+00
         21   -1    0    0  502  501  0.00000000000E+00  0.00000000000E+00  0.11951796137E+04  0.11951796137E+04  0.00000000000E+00 0.  1.
         21   -1    0    0  501  502 -0.00000000000E+00 -0.00000000000E+00 -0.21565891316E+03  0.21565891316E+03  0.00000000000E+00 0.  1.
         25    1    1    2    0    0 -0.38539189026E+03 -0.12738583965E+03  0.48216175238E+03  0.64254106226E+03  0.12500000000E+03 0.  0.
         25    1    1    2    0    0  0.23820419351E+01  0.47477155062E+02  0.26388776301E+03  0.29584033844E+03  0.12500000000E+03 0.  0.
         25    1    1    2    0    0  0.38300984833E+03  0.79908684592E+02  0.23347118518E+03  0.47245712620E+03  0.12500000000E+03 0.  0.
</event>
<event>
 5    0  0.5677492E-005  0.3213341E+03  0.7546771E-02  0.1075037E+00
         21   -1    0    0  502  501  0.00000000000E+00  0.00000000000E+00  0.98396915605E+02  0.98396915605E+02  0.00000000000E+00 0.  1.
         21   -1    0    0  501  502 -0.00000000000E+00 -0.00000000000E+00 -0.10493783367E+04  0.10493783367E+04  0.00000000000E+00 0.  1.
         25    1    1    2    0    0 -0.24697895910E+02 -0.11964577290E+03 -0.14991258675E+03  0.23026914839E+03  0.12500000000E+03 0.  0.
         25    1    1    2    0    0  0.30687560786E+02  0.81079604994E+02 -0.57707182695E+02  0.16269833333E+03  0.12500000000E+03 0.  0.
         25    1    1    2    0    0 -0.59896648765E+01  0.38566167905E+02 -0.74336165163E+03  0.75480777057E+03  0.12500000000E+03 0.  0.
</event>
<event>
 5    0  0.5677492E-005  0.2603904E+03  0.7546771E-02  0.1106909E+00
         21   -1    0    0  502  501  0.00000000000E+00  0.00000000000E+00  0.17943216711E+03  0.17943216711E+03  0.00000000000E+00 0. -1.
         21   -1    0    0  501  502 -0.00000000000E+00 -0.00000000000E+00 -0.37787640791E+03  0.37787640791E+03  0.00000000000E+00 0. -1.
         25    1    1    2    0    0  0.11518244029E+03  0.76326860599E+02  0.10753680552E+02  0.18663715023E+03  0.12500000000E+03 0.  0.
         25    1    1    2    0    0 -0.27582887958E+01 -0.50842919408E+02 -0.77902237978E+02  0.15584084604E+03  0.12500000000E+03 0.  0.
         25    1    1    2    0    0 -0.11242415150E+03 -0.25483941191E+02 -0.13129568337E+03  0.21483057876E+03  0.12500000000E+03 0.  0.
</event>
<event>
 5    0  0.5678411E-005  0.2453174E+03  0.7546771E-02  0.1116300E+00
         21   -1    0    0  502  501  0.00000000000E+00  0.00000000000E+00  0.24196272362E+03  0.24196272362E+03  0.00000000000E+00 0.  1.
         21   -1    0    0  501  502 -0.00000000000E+00 -0.00000000000E+00 -0.24871868542E+03  0.24871868542E+03  0.00000000000E+00 0.  1.
         25    1    1    2    0    0 -0.40892063241E+02 -0.19891302690E+02  0.12281813440E+03  0.18104452186E+03  0.12500000000E+03 0.  0.
         25    1    1    2    0    0  0.72870988581E+02  0.14214361263E+02 -0.10193700264E+03  0.17756233145E+03  0.12500000000E+03 0.  0.
         25    1    1    2    0    0 -0.31978925340E+02  0.56769414261E+01 -0.27637093562E+02  0.13207455573E+03  0.12500000000E+03 0.  0.
</event>
<event>
 5    0  0.5677492E-005  0.3661551E+03  0.7546771E-02  0.1056173E+00
         21   -1    0    0  502  501  0.00000000000E+00  0.00000000000E+00  0.17572214107E+03  0.17572214107E+03  0.00000000000E+00 0. -1.
         21   -1    0    0  501  502 -0.00000000000E+00 -0.00000000000E+00 -0.76296325678E+03  0.76296325678E+03  0.00000000000E+00 0. -1.
         25    1    1    2    0    0  0.57699240597E+01  0.51429881468E+00 -0.69099214751E+02  0.14294494747E+03  0.12500000000E+03 0.  0.
         25    1    1    2    0    0 -0.55046205691E+02  0.34969954518E+01 -0.61504095181E+03  0.63003387698E+03  0.12500000000E+03 0.  0.
         25    1    1    2    0    0  0.49276281631E+02 -0.40112942664E+01  0.96899050857E+02  0.16570657341E+03  0.12500000000E+03 0.  0.
</event>
<event>
 5    0  0.5677492E-005  0.2928814E+03  0.7546771E-02  0.1088854E+00
         21   -1    0    0  502  501  0.00000000000E+00  0.00000000000E+00  0.53956372341E+02  0.53956372341E+02  0.00000000000E+00 0. -1.
         21   -1    0    0  501  502 -0.00000000000E+00 -0.00000000000E+00 -0.15897937574E+04  0.15897937574E+04  0.00000000000E+00 0. -1.
         25    1    1    2    0    0 -0.92087939862E+02  0.18828960382E+03 -0.49457396720E+03  0.55150845198E+03  0.12500000000E+03 0.  0.
         25    1    1    2    0    0  0.66050538607E+02 -0.92034903719E+02 -0.58092676844E+03  0.60492479486E+03  0.12500000000E+03 0.  0.
         25    1    1    2    0    0  0.26037401256E+02 -0.96254700099E+02 -0.46033664937E+03  0.48731688285E+03  0.12500000000E+03 0.  0.
</event>
<event>
 5    0  0.5677492E-005  0.3256370E+03  0.7546771E-02  0.1073084E+00
         21   -1    0    0  502  501  0.00000000000E+00  0.00000000000E+00  0.10012239122E+03  0.10012239122E+03  0.00000000000E+00 0. -1.
         21   -1    0    0  501  502 -0.00000000000E+00 -0.00000000000E+00 -0.10590983001E+04  0.10590983001E+04  0.00000000000E+00 0. -1.
         25    1    1    2    0    0  0.84338689208E+02 -0.12654417149E+03 -0.36061639797E+03  0.41084745140E+03  0.12500000000E+03 0.  0.
         25    1    1    2    0    0 -0.21517689996E+03  0.54767827169E+02 -0.34056987467E+03  0.42533922074E+03  0.12500000000E+03 0.  0.
         25    1    1    2    0    0  0.13083821075E+03  0.71776344317E+02 -0.25778963623E+03  0.32303401917E+03  0.12500000000E+03 0.  0.
</event>
<event>
 5    0  0.5677492E-005  0.2385659E+03  0.7546771E-02  0.1120752E+00
         21   -1    0    0  502  501  0.00000000000E+00  0.00000000000E+00  0.17475446266E+04  0.17475446266E+04  0.00000000000E+00 0. -1.
         21   -1    0    0  501  502 -0.00000000000E+00 -0.00000000000E+00 -0.32567802684E+02  0.32567802684E+02  0.00000000000E+00 0. -1.
         25    1    1    2    0    0  0.73338487287E+02 -0.17446765223E+02  0.47463205460E+03  0.49657175775E+03  0.12500000000E+03 0.  0.
         25    1    1    2    0    0 -0.39818534473E+02  0.34136489477E+02  0.24779616704E+03  0.28245133386E+03  0.12500000000E+03 0.  0.
         25    1    1    2    0    0 -0.33519952814E+02 -0.16689724254E+02  0.99254860224E+03  0.10010893376E+04  0.12500000000E+03 0.  0.
</event>
<event>
 5    0  0.5677492E-005  0.2791854E+03  0.7546771E-02  0.1096135E+00
         21   -1    0    0  502  501  0.00000000000E+00  0.00000000000E+00  0.88214523825E+02  0.88214523825E+02  0.00000000000E+00 0. -1.
         21   -1    0    0  501  502 -0.00000000000E+00 -0.00000000000E+00 -0.88357907411E+03  0.88357907411E+03  0.00000000000E+00 0. -1.
         25    1    1    2    0    0 -0.16193302489E+02 -0.56161838981E+02 -0.47061415620E+03  0.49042742503E+03  0.12500000000E+03 0.  0.
         25    1    1    2    0    0  0.21568486970E+02  0.67128752738E+02 -0.32553759848E+03  0.35576845996E+03  0.12500000000E+03 0.  0.
         25    1    1    2    0    0 -0.53751844812E+01 -0.10966913757E+02  0.78720440531E+00  0.12559771294E+03  0.12500000000E+03 0.  0.
</event>
<event>
 5    0  0.5677492E-005  0.2677487E+03  0.7546771E-02  0.1102575E+00
         21   -1    0    0  502  501  0.00000000000E+00  0.00000000000E+00  0.38442571461E+03  0.38442571461E+03  0.00000000000E+00 0.  1.
         21   -1    0    0  501  502 -0.00000000000E+00 -0.00000000000E+00 -0.18648425063E+03  0.18648425063E+03  0.00000000000E+00 0.  1.
         25    1    1    2    0    0 -0.80180287569E+02  0.85499014847E+02 -0.44167099515E+02  0.17695957938E+03  0.12500000000E+03 0.  0.
         25    1    1    2    0    0  0.79600205846E+01 -0.22684477120E+02  0.31731355386E+02  0.13118622772E+03  0.12500000000E+03 0.  0.
         25    1    1    2    0    0  0.72220266985E+02 -0.62814537727E+02  0.21037720811E+03  0.26276415814E+03  0.12500000000E+03 0.  0.
</event>
<event>
 5    0  0.6017426E-005  0.2787227E+03  0.7546771E-02  0.1096389E+00
         21   -1    0    0  502  501  0.00000000000E+00  0.00000000000E+00  0.49920134834E+03  0.49920134834E+03  0.00000000000E+00 0.  1.
         21   -1    0    0  501  502 -0.00000000000E+00 -0.00000000000E+00 -0.15562131384E+03  0.15562131384E+03  0.00000000000E+00 0.  1.
         25    1    1    2    0    0 -0.55053816050E+02  0.10224637210E+03  0.13616420570E+03  0.21829093930E+03  0.12500000000E+03 0.  0.
         25    1    1    2    0    0  0.30681622723E+02 -0.18861566934E+03  0.10254437666E+03  0.25031496535E+03  0.12500000000E+03 0.  0.
         25    1    1    2    0    0  0.24372193328E+02  0.86369297236E+02  0.10487145214E+03  0.18621675753E+03  0.12500000000E+03 0.  0.
</event>
<event>
 5    0  0.5677492E-005  0.2739219E+03  0.7546771E-02  0.1099056E+00
         21   -1    0    0  502  501  0.00000000000E+00  0.00000000000E+00  0.81979356426E+03  0.81979356426E+03  0.00000000000E+00 0.  1.
         21   -1    0    0  501  502 -0.00000000000E+00 -0.00000000000E+00 -0.91526942756E+02  0.91526942756E+02  0.00000000000E+00 0.  1.
         25    1    1    2    0    0 -0.28449463855E+02 -0.13215520473E+03  0.16307890913E+03  0.24595548527E+03  0.12500000000E+03 0.  0.
         25    1    1    2    0    0  0.94634439491E+02  0.23996226249E+02  0.17330339710E+03  0.23492671934E+03  0.12500000000E+03 0.  0.
         25    1    1    2    0    0 -0.66184975636E+02  0.10815897848E+03  0.39188431528E+03  0.43043830241E+03  0.12500000000E+03 0.  0.
</event>
<event>
 5    0  0.5677492E-005  0.2938534E+03  0.7546771E-02  0.1088354E+00
         21   -1    0    0  502  501  0.00000000000E+00  0.00000000000E+00  0.16394946316E+04  0.16394946316E+04  0.00000000000E+00 0. -1.
         21   -1    0    0  501  502 -0.00000000000E+00 -0.00000000000E+00 -0.52668569370E+02  0.52668569370E+02  0.00000000000E+00 0. -1.
         25    1    1    2    0    0  0.16043090979E+03  0.34753536060E+02  0.84464253616E+03  0.86947794623E+03  0.12500000000E+03 0.  0.
         25    1    1    2    0    0 -0.89181397703E+02  0.50839872006E+02  0.51944063330E+03  0.54404189711E+03  0.12500000000E+03 0.  0.
         25    1    1    2    0    0 -0.71249512092E+02 -0.85593408066E+02  0.22274289278E+03  0.27864335765E+03  0.12500000000E+03 0.  0.
</event>
<event>
 5    0  0.5677492E-005  0.2573140E+03  0.7546771E-02  0.1108768E+00
         21   -1    0    0  502  501  0.00000000000E+00  0.00000000000E+00  0.11738822551E+03  0.11738822551E+03  0.00000000000E+00 0. -1.
         21   -1    0    0  501  502 -0.00000000000E+00 -0.00000000000E+00 -0.56402998836E+03  0.56402998836E+03  0.00000000000E+00 0. -1.
         25    1    1    2    0    0  0.79772746534E+02 -0.23438220611E+02 -0.34926315421E+03  0.38016153430E+03  0.12500000000E+03 0.  0.
         25    1    1    2    0    0 -0.28876342844E+02  0.60429318937E+02 -0.71961357918E+02  0.15902510115E+03  0.12500000000E+03 0.  0.
         25    1    1    2    0    0 -0.50896403690E+02 -0.36991098326E+02 -0.25417250731E+02  0.14223157842E+03  0.12500000000E+03 0.  0.
</event>
<event>
 5    0  0.5677492E-005  0.2849009E+03  0.7546771E-02  0.1093042E+00
         21   -1    0    0  502  501  0.00000000000E+00  0.00000000000E+00  0.50037371355E+02  0.50037371355E+02  0.00000000000E+00 0.  1.
         21   -1    0    0  501  502 -0.00000000000E+00 -0.00000000000E+00 -0.16221578487E+04  0.16221578487E+04  0.00000000000E+00 0.  1.
         25    1    1    2    0    0 -0.39451299906E+01  0.67835381026E+02 -0.22129464797E+03  0.26308463313E+03  0.12500000000E+03 0.  0.
         25    1    1    2    0    0 -0.85282082653E+02 -0.13620227787E+03 -0.99442906916E+03  0.10150557954E+04  0.12500000000E+03 0.  0.
         25    1    1    2    0    0  0.89227212644E+02  0.68366896842E+02 -0.35639676025E+03  0.39405479159E+03  0.12500000000E+03 0.  0.
</event>
<event>
 5    0  0.5677492E-005  0.3180096E+03  0.7546771E-02  0.1076569E+00
         21   -1    0    0  502  501  0.00000000000E+00  0.00000000000E+00  0.85568730752E+03  0.85568730752E+03  0.00000000000E+00 0. -1.
         21   -1    0    0  501  502 -0.00000000000E+00 -0.00000000000E+00 -0.11818582727E+03  0.11818582727E+03  0.00000000000E+00 0. -1.
         25    1    1    2    0    0  0.21402677087E+03 -0.43932771610E+02  0.15999399060E+03  0.29826267634E+03  0.12500000000E+03 0.  0.
         25    1    1    2    0    0 -0.11272331379E+03 -0.13936286050E+02  0.37004657516E+03  0.40676803381E+03  0.12500000000E+03 0.  0.
         25    1    1    2    0    0 -0.10130345707E+03  0.57869057660E+02  0.20746091449E+03  0.26884242465E+03  0.12500000000E+03 0.  0.
</event>
<event>
 5    0  0.5677492E-005  0.3355714E+03  0.7546771E-02  0.1068698E+00
         21   -1    0    0  502  501  0.00000000000E+00  0.00000000000E+00  0.37899231747E+03  0.37899231747E+03  0.00000000000E+00 0. -1.
         21   -1    0    0  501  502 -0.00000000000E+00 -0.00000000000E+00 -0.29712518289E+03  0.29712518289E+03  0.00000000000E+00 0. -1.
         25    1    1    2    0    0  0.60502509452E+02  0.91205258497E+02 -0.74468448165E+02  0.18207004861E+03  0.12500000000E+03 0.  0.
         25    1    1    2    0    0  0.10959564511E+03  0.59421920664E+02  0.15468444760E+03  0.23472206631E+03  0.12500000000E+03 0.  0.
         25    1    1    2    0    0 -0.17009815456E+03 -0.15062717916E+03  0.16511351501E+01  0.25932538544E+03  0.12500000000E+03 0.  0.
</event>
<event>
 5    0  0.5677492E-005  0.3216981E+03  0.7546771E-02  0.1074870E+00
         21   -1    0    0  502  501  0.00000000000E+00  0.00000000000E+00  0.83241719871E+03  0.83241719871E+03  0.00000000000E+00 0. -1.
         21   -1    0    0  501  502 -0.00000000000E+00 -0.00000000000E+00 -0.12432429740E+03  0.12432429740E+03  0.00000000000E+00 0. -1.
         25    1    1    2    0    0 -0.45488539339E+02 -0.36488185970E+02  0.36935782328E+03  0.39427249022E+03  0.12500000000E+03 0.  0.
         25    1    1    2    0    0  0.79875248028E+02  0.19320116469E+03  0.15763371715E+03  0.29013812929E+03  0.12500000000E+03 0.  0.
         25    1    1    2    0    0 -0.34386708689E+02 -0.15671297872E+03  0.18110136088E+03  0.27233087660E+03  0.12500000000E+03 0.  0.
</event>
<event>
 5    0  0.5778784E-005  0.2900882E+03  0.7546771E-02  0.1090303E+00
         21   -1    0    0  502  501  0.00000000000E+00  0.00000000000E+00  0.27546113852E+03  0.27546113852E+03  0.00000000000E+00 0.  1.
         21   -1    0    0  501  502 -0.00000000000E+00 -0.00000000000E+00 -0.30549193870E+03  0.30549193870E+03  0.00000000000E+00 0.  1.
         25    1    1    2    0    0  0.82085227452E+02  0.13242401036E+03  0.23208503309E+02  0.20109136658E+03  0.12500000000E+03 0.  0.
         25    1    1    2    0    0  0.59633631135E+02 -0.64307444230E+02 -0.87648549624E+02  0.17606500390E+03  0.12500000000E+03 0.  0.
         25    1    1    2    0    0 -0.14171885859E+03 -0.68116566130E+02  0.34409246141E+02  0.20379670675E+03  0.12500000000E+03 0.  0.
</event>
<event>
 5    0  0.5677492E-005  0.4282882E+03  0.7546771E-02  0.1034402E+00
         21   -1    0    0  502  501  0.00000000000E+00  0.00000000000E+00  0.42843453456E+03  0.42843453456E+03  0.00000000000E+00 0. -1.
         21   -1    0    0  501  502 -0.00000000000E+00 -0.00000000000E+00 -0.42814182488E+03  0.42814182488E+03  0.00000000000E+00 0. -1.
         25    1    1    2    0    0  0.13398959934E+03 -0.63632968576E+02 -0.22841649441E+02  0.19531796735E+03  0.12500000000E+03 0.  0.
         25    1    1    2    0    0 -0.31405038112E+03  0.10863119579E+03  0.16995756690E+03  0.39362285646E+03  0.12500000000E+03 0.  0.
         25    1    1    2    0    0  0.18006078178E+03 -0.44998227214E+02 -0.14682320778E+03  0.26763553562E+03  0.12500000000E+03 0.  0.
</event>
<event>
 5    0  0.5677492E-005  0.3530089E+03  0.7546771E-02  0.1061387E+00
         21   -1    0    0  502  501  0.00000000000E+00  0.00000000000E+00  0.32774917981E+03  0.32774917981E+03  0.00000000000E+00 0. -1.
         21   -1    0    0  501  502 -0.00000000000E+00 -0.00000000000E+00 -0.38021533030E+03  0.38021533030E+03  0.00000000000E+00 0. -1.
         25    1    1    2    0    0  0.16246355696E+02  0.22453106744E+00  0.57323590775E+02  0.13847378289E+03  0.12500000000E+03 0.  0.
         25    1    1    2    0    0 -0.82449860652E+02  0.17310287069E+03  0.11169251608E+03  0.25468176517E+03  0.12500000000E+03 0.  0.
         25    1    1    2    0    0  0.66203504955E+02 -0.17332740176E+03 -0.22148225735E+03  0.31480896205E+03  0.12500000000E+03 0.  0.
</event>
<event>
 5    0  0.5677492E-005  0.2337618E+03  0.7546771E-02  0.1124020E+00
         21   -1    0    0  502  501  0.00000000000E+00  0.00000000000E+00  0.29545859080E+03  0.29545859080E+03  0.00000000000E+00 0.  1.
         21   -1    0    0  501  502 -0.00000000000E+00 -0.00000000000E+00 -0.18494839034E+03  0.18494839034E+03  0.00000000000E+00 0.  1.
         25    1    1    2    0    0 -0.51325012832E+02  0.91149603769E+02  0.81709120654E+02  0.18232906408E+03  0.12500000000E+03 0.  0.
         25    1    1    2    0    0  0.49925903722E+02 -0.73977924768E+01 -0.27205232563E+02  0.13752253588E+03  0.12500000000E+03 0.  0.
         25    1    1    2    0    0  0.13991091101E+01 -0.83751811292E+02  0.56006312370E+02  0.16055538118E+03  0.12500000000E+03 0.  0.
</event>
<event>
 5    0  0.5873405E-005  0.4689053E+03  0.7546771E-02  0.1022230E+00
         21   -1    0    0  502  501  0.00000000000E+00  0.00000000000E+00  0.25974188629E+03  0.25974188629E+03  0.00000000000E+00 0. -1.
         21   -1    0    0  501  502 -0.00000000000E+00 -0.00000000000E+00 -0.84650253663E+03  0.84650253663E+03  0.00000000000E+00 0. -1.
         25    1    1    2    0    0 -0.18405432251E+03 -0.31962730988E+02 -0.19526776203E+03  0.29774503975E+03  0.12500000000E+03 0.  0.
         25    1    1    2    0    0  0.14368446566E+03  0.54079562360E+02  0.15157161276E+03  0.24933667707E+03  0.12500000000E+03 0.  0.
         25    1    1    2    0    0  0.40369856855E+02 -0.22116831372E+02 -0.54306450107E+03  0.55916270610E+03  0.12500000000E+03 0.  0.
</event>
<event>
 5    0  0.5677492E-005  0.2227139E+03  0.7546771E-02  0.1131876E+00
         21   -1    0    0  502  501  0.00000000000E+00  0.00000000000E+00  0.28439382227E+04  0.28439382227E+04  0.00000000000E+00 0. -1.
         21   -1    0    0  501  502 -0.00000000000E+00 -0.00000000000E+00 -0.17441119969E+02  0.17441119969E+02  0.00000000000E+00 0. -1.
         25    1    1    2    0    0 -0.44925604743E+01  0.10997629242E+03  0.88733364927E+03  0.90282942637E+03  0.12500000000E+03 0.  0.
         25    1    1    2    0    0  0.13600764518E+02 -0.62227540714E+02  0.93381703351E+03  0.94429682817E+03  0.12500000000E+03 0.  0.
         25    1    1    2    0    0 -0.91082040435E+01 -0.47748751703E+02  0.10053464199E+04  0.10142530881E+04  0.12500000000E+03 0.  0.
</event>
<event>
 5    0  0.5677492E-005  0.2567789E+03  0.7546771E-02  0.1109094E+00
         21   -1    0    0  502  501  0.00000000000E+00  0.00000000000E+00  0.14828034630E+04  0.14828034630E+04  0.00000000000E+00 0.  1.
         21   -1    0    0  501  502 -0.00000000000E+00 -0.00000000000E+00 -0.44466708719E+02  0.44466708719E+02  0.00000000000E+00 0.  1.
         25    1    1    2    0    0 -0.40453934209E+02  0.17973645035E+02  0.37602377115E+03  0.39872101672E+03  0.12500000000E+03 0.  0.
         25    1    1    2    0    0  0.10904150486E+03  0.97860655426E+02  0.63121103501E+03  0.65993873078E+03  0.12500000000E+03 0.  0.
         25    1    1    2    0    0 -0.68587570650E+02 -0.11583430046E+03  0.43110194813E+03  0.46861042422E+03  0.12500000000E+03 0.  0.
</event>
<event>
 5    0  0.5677492E-005  0.4657444E+03  0.7546771E-02  0.1023128E+00
         21   -1    0    0  502  501  0.00000000000E+00  0.00000000000E+00  0.18985180018E+03  0.18985180018E+03  0.00000000000E+00 0. -1.
         21   -1    0    0  501  502 -0.00000000000E+00 -0.00000000000E+00 -0.11425640661E+04  0.11425640661E+04  0.00000000000E+00 0. -1.
         25    1    1    2    0    0  0.21145316033E+03 -0.93757797650E+02 -0.20228394697E+03  0.33173296315E+03  0.12500000000E+03 0.  0.
         25    1    1    2    0    0 -0.56113097167E+02  0.32415153987E+03 -0.46522241731E+03  0.58333506499E+03  0.12500000000E+03 0.  0.
         25    1    1    2    0    0 -0.15534006317E+03 -0.23039374222E+03 -0.28520590163E+03  0.41734783814E+03  0.12500000000E+03 0.  0.
</event>
<event>
 5    0  0.5677492E-005  0.3064163E+03  0.7546771E-02  0.1082076E+00
         21   -1    0    0  502  501  0.00000000000E+00  0.00000000000E+00  0.18644196259E+03  0.18644196259E+03  0.00000000000E+00 0.  1.
         21   -1    0    0  501  502 -0.00000000000E+00 -0.00000000000E+00 -0.50359357984E+03  0.50359357984E+03  0.00000000000E+00 0.  1.
         25    1    1    2    0    0  0.73901371438E+02 -0.13306245296E+02 -0.13877155477E+03  0.20129831912E+03  0.12500000000E+03 0.  0.
         25    1    1    2    0    0  0.11977404780E+03 -0.80924862184E+02 -0.16703308214E+02  0.19182975878E+03  0.12500000000E+03 0.  0.
         25    1    1    2    0    0 -0.19367541924E+03  0.94231107479E+02 -0.16167675426E+03  0.29690746455E+03  0.12500000000E+03 0.  0.
</event>
<event>
 5    0  0.5677492E-005  0.2783005E+03  0.7546771E-02  0.1096621E+00
         21   -1    0    0  502  501  0.00000000000E+00  0.00000000000E+00  0.60773004082E+03  0.60773004082E+03  0.00000000000E+00 0.  1.
         21   -1    0    0  501  502 -0.00000000000E+00 -0.00000000000E+00 -0.12744333493E+03  0.12744333493E+03  0.00000000000E+00 0.  1.
         25    1    1    2    0    0  0.93706342350E+02 -0.17647354486E+01  0.55043941020E+02  0.16564669731E+03  0.12500000000E+03 0.  0.
         25    1    1    2    0    0 -0.57057768184E+02 -0.13302980200E+03  0.20675475765E+03  0.28164702544E+03  0.12500000000E+03 0.  0.
         25    1    1    2    0    0 -0.36648574166E+02  0.13479453744E+03  0.21848800721E+03  0.28787965300E+03  0.12500000000E+03 0.  0.
</event>
<event>
 5    0  0.5677492E-005  0.4405636E+03  0.7546771E-02  0.1030574E+00
         21   -1    0    0  502  501  0.00000000000E+00  0.00000000000E+00  0.57226648613E+03  0.57226648613E+03  0.00000000000E+00 0. -1.
         21   -1    0    0  501  502 -0.00000000000E+00 -0.00000000000E+00 -0.33917120675E+03  0.33917120675E+03  0.00000000000E+00 0. -1.
         25    1    1    2    0    0  0.12418245840E+03 -0.12403909136E+03 -0.16237085812E+03  0.26980784779E+03  0.12500000000E+03 0.  0.
         25    1    1    2    0    0 -0.26460217413E+03  0.10960230310E+03  0.20569825634E+03  0.37411729185E+03  0.12500000000E+03 0.  0.
         25    1    1    2    0    0  0.14041971574E+03  0.14436788267E+02  0.18976788116E+03  0.26751255325E+03  0.12500000000E+03 0.  0.
</event>
<event>
 5    0  0.5677492E-005  0.5991018E+03  0.7546771E-02  0.9907271E-01
         21   -1    0    0  502  501  0.00000000000E+00  0.00000000000E+00  0.64101178638E+03  0.64101178638E+03  0.00000000000E+00 0. -1.
         21   -1    0    0  501  502 -0.00000000000E+00 -0.00000000000E+00 -0.55993196512E+03  0.55993196512E+03  0.00000000000E+00 0. -1.
         25    1    1    2    0    0  0.45094810602E+02 -0.29287177467E+03  0.21463812744E+03  0.38665481258E+03  0.12500000000E+03 0.  0.
         25    1    1    2    0    0 -0.73994438787E+02  0.33676617672E+03 -0.38305609482E+03  0.53032405804E+03  0.12500000000E+03 0.  0.
         25    1    1    2    0    0  0.28899628185E+02 -0.43894402053E+02  0.24949778863E+03  0.28396488088E+03  0.12500000000E+03 0.  0.
</event>
<event>
 5    0  0.5677492E-005  0.4247460E+03  0.7546771E-02  0.1035533E+00
         21   -1    0    0  502  501  0.00000000000E+00  0.00000000000E+00  0.43155371870E+03  0.43155371870E+03  0.00000000000E+00 0. -1.
         21   -1    0    0  501  502 -0.00000000000E+00 -0.00000000000E+00 -0.41804568462E+03  0.41804568462E+03  0.00000000000E+00 0. -1.
         25    1    1    2    0    0 -0.14696198956E+03  0.25603926434E+02  0.81950888636E+02  0.21117370947E+03  0.12500000000E+03 0.  0.
         25    1    1    2    0    0  0.28319780280E+03 -0.43117779182E+02  0.15418058845E+03  0.34850651679E+03  0.12500000000E+03 0.  0.
         25    1    1    2    0    0 -0.13623581324E+03  0.17513852749E+02 -0.22262344301E+03  0.28991917706E+03  0.12500000000E+03 0.  0.
</event>
<event>
 5    0  0.5677492E-005  0.4121626E+03  0.7546771E-02  0.1039648E+00
         21   -1    0    0  502  501  0.00000000000E+00  0.00000000000E+00  0.65547189683E+02  0.65547189683E+02  0.00000000000E+00 0.  1.
         21   -1    0    0  501  502 -0.00000000000E+00 -0.00000000000E+00 -0.25916899152E+04  0.25916899152E+04  0.00000000000E+00 0.  1.
         25    1    1    2    0    0  0.12342958305E+03 -0.11534536442E+03 -0.33853473281E+03  0.39845976005E+03  0.12500000000E+03 0.  0.
         25    1    1    2    0    0  0.16741734699E+03 -0.14737350574E+02 -0.10548366458E+04  0.10754306611E+04  0.12500000000E+03 0.  0.
         25    1    1    2    0    0 -0.29084693004E+03  0.13008271499E+03 -0.11327713469E+04  0.11833466837E+04  0.12500000000E+03 0.  0.
</event>
<event>
 5    0  0.5677492E-005  0.2790408E+03  0.7546771E-02  0.1096214E+00
         21   -1    0    0  502  501  0.00000000000E+00  0.00000000000E+00  0.45597314648E+02  0.45597314648E+02  0.00000000000E+00 0. -1.
         21   -1    0    0  501  502 -0.00000000000E+00 -0.00000000000E+00 -0.17076390270E+04  0.17076390270E+04  0.00000000000E+00 0. -1.
         25    1    1    2    0    0 -0.77291502833E+01  0.15678951059E+03 -0.81271752173E+03  0.83712451912E+03  0.12500000000E+03 0.  0.
         25    1    1    2    0    0  0.56637176379E+02 -0.20651443327E+02 -0.48770324754E+03  0.50706381208E+03  0.12500000000E+03 0.  0.
         25    1    1    2    0    0 -0.48908026095E+02 -0.13613806726E+03 -0.36162094311E+03  0.40904801047E+03  0.12500000000E+03 0.  0.
</event>
<event>
 5    0  0.5677492E-005  0.2632431E+03  0.7546771E-02  0.1105210E+00
         21   -1    0    0  502  501  0.00000000000E+00  0.00000000000E+00  0.14931475063E+03  0.14931475063E+03  0.00000000000E+00 0.  1.
         21   -1    0    0  501  502 -0.00000000000E+00 -0.00000000000E+00 -0.46409962228E+03  0.46409962228E+03  0.00000000000E+00 0.  1.
         25    1    1    2    0    0  0.84233172828E+00 -0.98917910396E+02 -0.19630548611E+03  0.25287606924E+03  0.12500000000E+03 0.  0.
         25    1    1    2    0    0  0.58616315047E+02  0.13948609739E+03 -0.69887912707E+02  0.20833042048E+03  0.12500000000E+03 0.  0.
         25    1    1    2    0    0 -0.59458646775E+02 -0.40568186997E+02 -0.48591472842E+02  0.15220788319E+03  0.12500000000E+03 0.  0.
</event>
<event>
 5    0  0.5677492E-005  0.2415966E+03  0.7546771E-02  0.1118734E+00
         21   -1    0    0  502  501  0.00000000000E+00  0.00000000000E+00  0.37037255367E+03  0.37037255367E+03  0.00000000000E+00 0.  1.
         21   -1    0    0  501  502 -0.00000000000E+00 -0.00000000000E+00 -0.15759515310E+03  0.15759515310E+03  0.00000000000E+00 0.  1.
         25    1    1    2    0    0 -0.28599169263E+02 -0.54527606389E+02  0.57959320471E+02  0.15091539077E+03  0.12500000000E+03 0.  0.
         25    1    1    2    0    0  0.55139042082E+02 -0.38538620766E+01 -0.34821856931E+02  0.14104158229E+03  0.12500000000E+03 0.  0.
         25    1    1    2    0    0 -0.26539872819E+02  0.58381468466E+02  0.18963993703E+03  0.23601073371E+03  0.12500000000E+03 0.  0.
</event>
<event>
 5    0  0.5677492E-005  0.2672904E+03  0.7546771E-02  0.1102840E+00
         21   -1    0    0  502  501  0.00000000000E+00  0.00000000000E+00  0.31613035391E+03  0.31613035391E+03  0.00000000000E+00 0.  1.
         21   -1    0    0  501  502 -0.00000000000E+00 -0.00000000000E+00 -0.22599580061E+03  0.22599580061E+03  0.00000000000E+00 0.  1.
         25    1    1    2    0    0 -0.48664790524E+02  0.14808595074E+02 -0.87165263817E+02  0.16065596640E+03  0.12500000000E+03 0.  0.
         25    1    1    2    0    0  0.46917254141E+02  0.55355804390E+02  0.18866289668E+03  0.23766401158E+03  0.12500000000E+03 0.  0.
         25    1    1    2    0    0  0.17475363837E+01 -0.70164399464E+02 -0.11363079561E+02  0.14380617655E+03  0.12500000000E+03 0.  0.
</event>
<event>
 5    0  0.5677492E-005  0.3246182E+03  0.7546771E-02  0.1073543E+00
         21   -1    0    0  502  501  0.00000000000E+00  0.00000000000E+00  0.75612397332E+03  0.75612397332E+03  0.00000000000E+00 0.  1.
         21   -1    0    0  501  502 -0.00000000000E+00 -0.00000000000E+00 -0.13936471534E+03  0.13936471534E+03  0.00000000000E+00 0.  1.
         25    1    1    2    0    0  0.74282685486E+01 -0.55399833727E+02  0.89494176301E+02  0.16358034216E+03  0.12500000000E+03 0.  0.
         25    1    1    2    0    0  0.16467690549E+03 -0.26083406706E+02  0.67895753405E+02  0.21916582908E+03  0.12500000000E+03 0.  0.
         25    1    1    2    0    0 -0.17210517404E+03  0.81483240433E+02  0.45936932827E+03  0.51274251741E+03  0.12500000000E+03 0.  0.
</event>
<event>
 5    0  0.5677492E-005  0.3521461E+03  0.7546771E-02  0.1061738E+00
         21   -1    0    0  502  501  0.00000000000E+00  0.00000000000E+00  0.75658613626E+02  0.75658613626E+02  0.00000000000E+00 0.  1.
         21   -1    0    0  501  502 -0.00000000000E+00 -0.00000000000E+00 -0.16390317202E+04  0.16390317202E+04  0.00000000000E+00 0.  1.
         25    1    1    2    0    0  0.29731639369E+02  0.56311806732E+02 -0.39397720461E+03  0.41820811531E+03  0.12500000000E+03 0.  0.
         25    1    1    2    0    0  0.19761982909E+03 -0.10773819355E+03 -0.34356347937E+03  0.42932735710E+03  0.12500000000E+03 0.  0.
         25    1    1    2    0    0 -0.22735146846E+03  0.51426386818E+02 -0.82583242255E+03  0.86715486138E+03  0.12500000000E+03 0.  0.
</event>
<event>
 5    0  0.5677492E-005  0.2827129E+03  0.7546771E-02  0.1094216E+00
         21   -1    0    0  502  501  0.00000000000E+00  0.00000000000E+00  0.19224619223E+03  0.19224619223E+03  0.00000000000E+00 0.  1.
         21   -1    0    0  501  502 -0.00000000000E+00 -0.00000000000E+00 -0.41575114243E+03  0.41575114243E+03  0.00000000000E+00 0.  1.
         25    1    1    2    0    0 -0.42443645850E+02 -0.47396429051E+02 -0.64830898647E+02  0.15451838072E+03  0.12500000000E+03 0.  0.
         25    1    1    2    0    0  0.37691678769E+02  0.18207308612E+03 -0.14969276240E+03  0.26945165513E+03  0.12500000000E+03 0.  0.
         25    1    1    2    0    0  0.47519670808E+01 -0.13467665707E+03 -0.89812891579E+01  0.18402729881E+03  0.12500000000E+03 0.  0.
</event>
<event>
 5    0  0.5862896E-005  0.2739997E+03  0.7546771E-02  0.1099012E+00
         21   -1    0    0  502  501  0.00000000000E+00  0.00000000000E+00  0.26475275511E+03  0.26475275511E+03  0.00000000000E+00 0.  1.
         21   -1    0    0  501  502 -0.00000000000E+00 -0.00000000000E+00 -0.28356950869E+03  0.28356950869E+03  0.00000000000E+00 0.  1.
         25    1    1    2    0    0 -0.51891223805E+02  0.15442432338E+03  0.34077768104E+02  0.20814866091E+03  0.12500000000E+03 0.  0.
         25    1    1    2    0    0  0.10372691958E+03 -0.89658867940E+02 -0.20200593870E+02  0.18663078642E+03  0.12500000000E+03 0.  0.
         25    1    1    2    0    0 -0.51835695774E+02 -0.64765455443E+02 -0.32693927818E+02  0.15354281648E+03  0.12500000000E+03 0.  0.
</event>
<event>
 5    0  0.5677492E-005  0.2814574E+03  0.7546771E-02  0.1094896E+00
         21   -1    0    0  502  501  0.00000000000E+00  0.00000000000E+00  0.99394180048E+02  0.99394180048E+02  0.00000000000E+00 0.  1.
         21   -1    0    0  501  502 -0.00000000000E+00 -0.00000000000E+00 -0.79701098666E+03  0.79701098666E+03  0.00000000000E+00 0.  1.
         25    1    1    2    0    0  0.33844805792E+02  0.59470837390E+02 -0.17432893009E+03  0.22516178016E+03  0.12500000000E+03 0.  0.
         25    1    1    2    0    0  0.93070233450E+02 -0.12598357633E+03 -0.39175494404E+03  0.44003507365E+03  0.12500000000E+03 0.  0.
         25    1    1    2    0    0 -0.12691503924E+03  0.66512738939E+02 -0.13153293248E+03  0.23120831290E+03  0.12500000000E+03 0.  0.
</event>
<event>
 5    0  0.5677492E-005  0.2425941E+03  0.7546771E-02  0.1118077E+00
         21   -1    0    0  502  501  0.00000000000E+00  0.00000000000E+00  0.56380658088E+02  0.56380658088E+02  0.00000000000E+00 0. -1.
         21   -1    0    0  501  502 -0.00000000000E+00 -0.00000000000E+00 -0.10438313108E+04  0.10438313108E+04  0.00000000000E+00 0. -1.
         25    1    1    2    0    0  0.23063568162E+02 -0.78702679630E+02 -0.22880473019E+03  0.27331784522E+03  0.12500000000E+03 0.  0.
         25    1    1    2    0    0 -0.35480112291E+01 -0.67949415938E+01 -0.13217285996E+03  0.18208081866E+03  0.12500000000E+03 0.  0.
         25    1    1    2    0    0 -0.19515556933E+02  0.85497621224E+02 -0.62647306259E+03  0.64481330503E+03  0.12500000000E+03 0.  0.
</event>
<event>
 5    0  0.5677492E-005  0.2790788E+03  0.7546771E-02  0.1096193E+00
         21   -1    0    0  502  501  0.00000000000E+00  0.00000000000E+00  0.26933097102E+03  0.26933097102E+03  0.00000000000E+00 0.  1.
         21   -1    0    0  501  502 -0.00000000000E+00 -0.00000000000E+00 -0.28917936991E+03  0.28917936991E+03  0.00000000000E+00 0.  1.
         25    1    1    2    0    0  0.18129807941E+02  0.79827697585E+02  0.85962194611E+00  0.14942185311E+03  0.12500000000E+03 0.  0.
         25    1    1    2    0    0 -0.91736051162E+02 -0.12523291664E+03  0.92336964260E+02  0.21965860206E+03  0.12500000000E+03 0.  0.
         25    1    1    2    0    0  0.73606243221E+02  0.45405219051E+02 -0.11304498510E+03  0.18942988575E+03  0.12500000000E+03 0.  0.
</event>
<event>
 5    0  0.5677492E-005  0.3045406E+03  0.7546771E-02  0.1082993E+00
         21   -1    0    0  502  501  0.00000000000E+00  0.00000000000E+00  0.35218198811E+03  0.35218198811E+03  0.00000000000E+00 0. -1.
         21   -1    0    0  501  502 -0.00000000000E+00 -0.00000000000E+00 -0.26334384289E+03  0.26334384289E+03  0.00000000000E+00 0. -1.
         25    1    1    2    0    0  0.62192988562E+02 -0.77454099015E+02  0.64758073621E+02  0.17229542472E+03  0.12500000000E+03 0.  0.
         25    1    1    2    0    0  0.61437446758E+02 -0.10478179972E+03  0.66372148758E+02  0.18650481910E+03  0.12500000000E+03 0.  0.
         25    1    1    2    0    0 -0.12363043532E+03  0.18223589873E+03 -0.42292077156E+02  0.25672558718E+03  0.12500000000E+03 0.  0.
</event>
<event>
 5    0  0.5677492E-005  0.4887937E+03  0.7546771E-02  0.1016746E+00
         21   -1    0    0  502  501  0.00000000000E+00  0.00000000000E+00  0.61351674168E+03  0.61351674168E+03  0.00000000000E+00 0. -1.
         21   -1    0    0  501  502 -0.00000000000E+00 -0.00000000000E+00 -0.38942579445E+03  0.38942579445E+03  0.00000000000E+00 0. -1.
         25    1    1    2    0    0  0.75461402580E+02 -0.42115751092E+02  0.17636969396E+02  0.15298438632E+03  0.12500000000E+03 0.  0.
         25    1    1    2    0    0 -0.23576107256E+02 -0.32569320164E+03 -0.87043757909E+02  0.36032417379E+03  0.12500000000E+03 0.  0.
         25    1    1    2    0    0 -0.51885295324E+02  0.36780895273E+03  0.29349773574E+03  0.48963397601E+03  0.12500000000E+03 0.  0.
</event>
<event>
 5    0  0.5677492E-005  0.2901002E+03  0.7546771E-02  0.1090297E+00
         21   -1    0    0  502  501  0.00000000000E+00  0.00000000000E+00  0.39309639984E+03  0.39309639984E+03  0.00000000000E+00 0. -1.
         21   -1    0    0  501  502 -0.00000000000E+00 -0.00000000000E+00 -0.21409029376E+03  0.21409029376E+03  0.00000000000E+00 0. -1.
         25    1    1    2    0    0  0.71032173246E+02 -0.66706974273E+02  0.24233916618E+03  0.28956633354E+03  0.12500000000E+03 0.  0.
         25    1    1    2    0    0 -0.61492121827E+01 -0.31624464587E+02 -0.67775778366E+02  0.14579600716E+03  0.12500000000E+03 0.  0.
         25    1    1    2    0    0 -0.64882961063E+02  0.98331438860E+02  0.44427182749E+01  0.17182435290E+03  0.12500000000E+03 0.  0.
</event>
<event>
 5    0  0.5677492E-005  0.3307931E+03  0.7546771E-02  0.1070786E+00
         21   -1    0    0  502  501  0.00000000000E+00  0.00000000000E+00  0.20443400767E+04  0.20443400767E+04  0.00000000000E+00 0. -1.
         21   -1    0    0  501  502 -0.00000000000E+00 -0.00000000000E+00 -0.53525375966E+02  0.53525375966E+02  0.00000000000E+00 0. -1.
         25    1    1    2    0    0 -0.75073159537E+02  0.18641699439E+03  0.84509159493E+03  0.87760587903E+03  0.12500000000E+03 0.  0.
         25    1    1    2    0    0  0.15023396745E+03 -0.12868512576E+03  0.45150226492E+03  0.50853652946E+03  0.12500000000E+03 0.  0.
         25    1    1    2    0    0 -0.75160807909E+02 -0.57731868628E+02  0.69422084091E+03  0.71172304420E+03  0.12500000000E+03 0.  0.
</event>
<event>
 5    0  0.5677492E-005  0.3386417E+03  0.7546771E-02  0.1067376E+00
         21   -1    0    0  502  501  0.00000000000E+00  0.00000000000E+00  0.16849791741E+04  0.16849791741E+04  0.00000000000E+00 0. -1.
         21   -1    0    0  501  502 -0.00000000000E+00 -0.00000000000E+00 -0.68059122806E+02  0.68059122806E+02  0.00000000000E+00 0. -1.
         25    1    1    2    0    0 -0.18520221295E+03 -0.12219572331E+03  0.51960209771E+03  0.57865619708E+03  0.12500000000E+03 0.  0.
         25    1    1    2    0    0  0.12266077614E+03  0.11968661893E+03  0.31559338203E+03  0.38025614464E+03  0.12500000000E+03 0.  0.
         25    1    1    2    0    0  0.62541436815E+02  0.25091043829E+01  0.78172457153E+03  0.79412595516E+03  0.12500000000E+03 0.  0.
</event>
<event>
 5    0  0.6881443E-005  0.2907905E+03  0.7546771E-02  0.1089937E+00
         21   -1    0    0  502  501  0.00000000000E+00  0.00000000000E+00  0.34821596676E+03  0.34821596676E+03  0.00000000000E+00 0. -1.
         21   -1    0    0  501  502 -0.00000000000E+00 -0.00000000000E+00 -0.24283525092E+03  0.24283525092E+03  0.00000000000E+00 0. -1.
         25    1    1    2    0    0 -0.30575051414E+02  0.31772096835E+02 -0.96104549252E+02  0.16372349951E+03  0.12500000000E+03 0.  0.
         25    1    1    2    0    0 -0.38991029893E+02 -0.14226192439E+03  0.12979701217E+03  0.23287554597E+03  0.12500000000E+03 0.  0.
         25    1    1    2    0    0  0.69566081307E+02  0.11048982755E+03  0.71688252919E+02  0.19445217219E+03  0.12500000000E+03 0.  0.
</event>
<event>
 5    0  0.5677492E-005  0.3150639E+03  0.7546771E-02  0.1077944E+00
         21   -1    0    0  502  501  0.00000000000E+00  0.00000000000E+00  0.35124974414E+03  0.35124974414E+03  0.00000000000E+00 0.  1.
         21   -1    0    0  501  502 -0.00000000000E+00 -0.00000000000E+00 -0.28260596930E+03  0.28260596930E+03  0.00000000000E+00 0.  1.
         25    1    1    2    0    0 -0.55993734685E+02 -0.68186116234E+02  0.82376383644E+01  0.15322370397E+03  0.12500000000E+03 0.  0.
         25    1    1    2    0    0 -0.17066533728E+03  0.12717478340E+02  0.20404089154E+02  0.21290776984E+03  0.12500000000E+03 0.  0.
         25    1    1    2    0    0  0.22665907197E+03  0.55468637893E+02  0.40002047318E+02  0.26772423963E+03  0.12500000000E+03 0.  0.
</event>
<event>
 5    0  0.5677492E-005  0.4882136E+03  0.7546771E-02  0.1016902E+00
         21   -1    0    0  502  501  0.00000000000E+00  0.00000000000E+00  0.12228369669E+04  0.12228369669E+04  0.00000000000E+00 0. -1.
         21   -1    0    0  501  502 -0.00000000000E+00 -0.00000000000E+00 -0.19491761996E+03  0.19491761996E+03  0.00000000000E+00 0. -1.
         25    1    1    2    0    0 -0.47545401058E+02  0.31638216030E+03  0.24428668491E+03  0.42149640680E+03  0.12500000000E+03 0.  0.
         25    1    1    2    0    0 -0.17275567274E+03 -0.27876721862E+03  0.37165644634E+03  0.51118411433E+03  0.12500000000E+03 0.  0.
         25    1    1    2    0    0  0.22030107380E+03 -0.37614941681E+02  0.41197621569E+03  0.48507406573E+03  0.12500000000E+03 0.  0.
</event>
<event>
 5    0  0.5677492E-005  0.2904093E+03  0.7546771E-02  0.1090136E+00
         21   -1    0    0  502  501  0.00000000000E+00  0.00000000000E+00  0.37302006775E+03  0.37302006775E+03  0.00000000000E+00 0.  1.
         21   -1    0    0  501  502 -0.00000000000E+00 -0.00000000000E+00 -0.22609396506E+03  0.22609396506E+03  0.00000000000E+00 0.  1.
         25    1    1    2    0    0  0.12265621443E+03 -0.20609445208E+02  0.23350573897E+03  0.29260763200E+03  0.12500000000E+03 0.  0.
         25    1    1    2    0    0 -0.31563836943E+02  0.13592187246E+02 -0.10884974382E+01  0.12964261716E+03  0.12500000000E+03 0.  0.
         25    1    1    2    0    0 -0.91092377492E+02  0.70172579619E+01 -0.85491138840E+02  0.17686378365E+03  0.12500000000E+03 0.  0.
</event>
<event>
 5    0  0.5781373E-005  0.3381675E+03  0.7546771E-02  0.1067579E+00
         21   -1    0    0  502  501  0.00000000000E+00  0.00000000000E+00  0.62033384654E+03  0.62033384654E+03  0.00000000000E+00 0. -1.
         21   -1    0    0  501  502 -0.00000000000E+00 -0.00000000000E+00 -0.18434788604E+03  0.18434788604E+03  0.00000000000E+00 0. -1.
         25    1    1    2    0    0  0.52716932470E+02 -0.24379028878E+03  0.21412929830E+03  0.35169466340E+03  0.12500000000E+03 0.  0.
         25    1    1    2    0    0 -0.11539763753E+03  0.13063537591E+03  0.13268008881E+03  0.25221265264E+03  0.12500000000E+03 0.  0.
         25    1    1    2    0    0  0.62680705063E+02  0.11315491287E+03  0.89176573400E+02  0.20077441654E+03  0.12500000000E+03 0.  0.
</event>
<event>
 5    0  0.6204210E-005  0.2781351E+03  0.7546771E-02  0.1096712E+00
         21   -1    0    0  502  501  0.00000000000E+00  0.00000000000E+00  0.71420497937E+03  0.71420497937E+03  0.00000000000E+00 0.  1.
         21   -1    0    0  501  502 -0.00000000000E+00 -0.00000000000E+00 -0.10831502732E+03  0.10831502732E+03  0.00000000000E+00 0.  1.
         25    1    1    2    0    0 -0.80780631046E+02  0.35203363130E+02  0.40559689702E+03  0.43347275578E+03  0.12500000000E+03 0.  0.
         25    1    1    2    0    0 -0.55100228116E+02  0.13128698969E+02  0.11884507685E+03  0.18154214433E+03  0.12500000000E+03 0.  0.
         25    1    1    2    0    0  0.13588085916E+03 -0.48332062099E+02  0.81447978178E+02  0.20750510659E+03  0.12500000000E+03 0.  0.
</event>
<event>
 5    0  0.5677492E-005  0.2337203E+03  0.7546771E-02  0.1124048E+00
         21   -1    0    0  502  501  0.00000000000E+00  0.00000000000E+00  0.72271065989E+02  0.72271065989E+02  0.00000000000E+00 0.  1.
         21   -1    0    0  501  502 -0.00000000000E+00 -0.00000000000E+00 -0.75583776627E+03  0.75583776627E+03  0.00000000000E+00 0.  1.
         25    1    1    2    0    0 -0.81859825156E+02 -0.22882446659E+02 -0.11462661398E+03  0.18970740094E+03  0.12500000000E+03 0.  0.
         25    1    1    2    0    0  0.32437521082E+02  0.42186382696E+02 -0.39513263450E+03  0.41783571234E+03  0.12500000000E+03 0.  0.
         25    1    1    2    0    0  0.49422304073E+02 -0.19303936036E+02 -0.17380745181E+03  0.22056571898E+03  0.12500000000E+03 0.  0.
</event>
<event>
 5    0  0.5677492E-005  0.2296509E+03  0.7546771E-02  0.1126886E+00
         21   -1    0    0  502  501  0.00000000000E+00  0.00000000000E+00  0.21364080410E+04  0.21364080410E+04  0.00000000000E+00 0.  1.
         21   -1    0    0  501  502 -0.00000000000E+00 -0.00000000000E+00 -0.24686069553E+02  0.24686069553E+02  0.00000000000E+00 0.  1.
         25    1    1    2    0    0  0.29926112659E+02  0.35298334625E+02  0.98569528275E+03  0.99466664521E+03  0.12500000000E+03 0.  0.
         25    1    1    2    0    0 -0.40180824070E+02 -0.31221305992E+02  0.27646062660E+03  0.30764386331E+03  0.12500000000E+03 0.  0.
         25    1    1    2    0    0  0.10254711411E+02 -0.40770286335E+01  0.84956606212E+03  0.85878360206E+03  0.12500000000E+03 0.  0.
</event>
<event>
 5    0  0.5677492E-005  0.2533950E+03  0.7546771E-02  0.1111178E+00
         21   -1    0    0  502  501  0.00000000000E+00  0.00000000000E+00  0.12196073730E+03  0.12196073730E+03  0.00000000000E+00 0.  1.
         21   -1    0    0  501  502 -0.00000000000E+00 -0.00000000000E+00 -0.52647291880E+03  0.52647291880E+03  0.00000000000E+00 0.  1.
         25    1    1    2    0    0  0.31846075160E+02 -0.88122121289E+02 -0.16297748699E+03  0.22575726351E+03  0.12500000000E+03 0.  0.
         25    1    1    2    0    0  0.12152997847E+02  0.83634419785E+02 -0.43569362032E+01  0.15095162941E+03  0.12500000000E+03 0.  0.
         25    1    1    2    0    0 -0.43999073008E+02  0.44877015042E+01 -0.23717775830E+03  0.27172476318E+03  0.12500000000E+03 0.  0.
</event>
<event>
 5    0  0.5677492E-005  0.2339706E+03  0.7546771E-02  0.1123876E+00
         21   -1    0    0  502  501  0.00000000000E+00  0.00000000000E+00  0.97486746942E+02  0.97486746942E+02  0.00000000000E+00 0.  1.
         21   -1    0    0  501  502 -0.00000000000E+00 -0.00000000000E+00 -0.56153503208E+03  0.56153503208E+03  0.00000000000E+00 0.  1.
         25    1    1    2    0    0 -0.63310415630E+02 -0.85032001731E+02 -0.20595952931E+03  0.26321659856E+03  0.12500000000E+03 0.  0.
         25    1    1    2    0    0  0.70550642536E+02  0.25109082816E+02 -0.68974050008E+02  0.16121500791E+03  0.12500000000E+03 0.  0.
         25    1    1    2    0    0 -0.72402269065E+01  0.59922918915E+02 -0.18911470581E+03  0.23459017254E+03  0.12500000000E+03 0.  0.
</event>
<event>
 5    0  0.5677492E-005  0.2893378E+03  0.7546771E-02  0.1090695E+00
         21   -1    0    0  502  501  0.00000000000E+00  0.00000000000E+00  0.47887855506E+02  0.47887855506E+02  0.00000000000E+00 0. -1.
         21   -1    0    0  501  502 -0.00000000000E+00 -0.00000000000E+00 -0.17481747313E+04  0.17481747313E+04  0.00000000000E+00 0. -1.
         25    1    1    2    0    0 -0.32152909602E+02  0.22718880800E+02 -0.36342319660E+03  0.38633065755E+03  0.12500000000E+03 0.  0.
         25    1    1    2    0    0  0.10017195668E+03 -0.16749132617E+03 -0.87598783529E+03  0.90612772435E+03  0.12500000000E+03 0.  0.
         25    1    1    2    0    0 -0.68019047076E+02  0.14477244537E+03 -0.46087584385E+03  0.50360420486E+03  0.12500000000E+03 0.  0.
</event>
<event>
 5    0  0.5677492E-005  0.2376638E+03  0.7546771E-02  0.1121359E+00
         21   -1    0    0  502  501  0.00000000000E+00  0.00000000000E+00  0.22284298909E+03  0.22284298909E+03  0.00000000000E+00 0.  1.
         21   -1    0    0  501  502 -0.00000000000E+00 -0.00000000000E+00 -0.25347027032E+03  0.25347027032E+03  0.00000000000E+00 0.  1.
         25    1    1    2    0    0 -0.59092015570E+02 -0.63865756417E+02 -0.17475008671E+02  0.15330061016E+03  0.12500000000E+03 0.  0.
         25    1    1    2    0    0  0.11770461329E+03  0.46291712427E+02  0.22768335100E+02  0.17927826336E+03  0.12500000000E+03 0.  0.
         25    1    1    2    0    0 -0.58612597718E+02  0.17574043990E+02 -0.35920607661E+02  0.14373438589E+03  0.12500000000E+03 0.  0.
</event>
<event>
 5    0  0.5677492E-005  0.3500951E+03  0.7546771E-02  0.1062576E+00
         21   -1    0    0  502  501  0.00000000000E+00  0.00000000000E+00  0.29700389294E+03  0.29700389294E+03  0.00000000000E+00 0. -1.
         21   -1    0    0  501  502 -0.00000000000E+00 -0.00000000000E+00 -0.41267664157E+03  0.41267664157E+03  0.00000000000E+00 0. -1.
         25    1    1    2    0    0 -0.25156783747E+02  0.44791341073E+02 -0.17109364690E+03  0.21803019060E+03  0.12500000000E+03 0.  0.
         25    1    1    2    0    0 -0.35493248697E+02  0.16473577847E+03  0.10620839982E+03  0.23516562590E+03  0.12500000000E+03 0.  0.
         25    1    1    2    0    0  0.60650032444E+02 -0.20952711954E+03 -0.50787501549E+02  0.25648471801E+03  0.12500000000E+03 0.  0.
</event>
<event>
 5    0  0.5677492E-005  0.4483693E+03  0.7546771E-02  0.1028209E+00
         21   -1    0    0  502  501  0.00000000000E+00  0.00000000000E+00  0.23511424479E+03  0.23511424479E+03  0.00000000000E+00 0. -1.
         21   -1    0    0  501  502 -0.00000000000E+00 -0.00000000000E+00 -0.85505249711E+03  0.85505249711E+03  0.00000000000E+00 0. -1.
         25    1    1    2    0    0 -0.18022181877E+03  0.15438161404E+03 -0.31628560230E+02  0.27007212469E+03  0.12500000000E+03 0.  0.
         25    1    1    2    0    0  0.15395282723E+03 -0.30503089753E+03 -0.30514163201E+03  0.47484917294E+03  0.12500000000E+03 0.  0.
         25    1    1    2    0    0  0.26268991537E+02  0.15064928349E+03 -0.28316806008E+03  0.34524544426E+03  0.12500000000E+03 0.  0.
</event>
<event>
 5    0  0.5677492E-005  0.3882723E+03  0.7546771E-02  0.1047918E+00
         21   -1    0    0  502  501  0.00000000000E+00  0.00000000000E+00  0.24834477938E+04  0.24834477938E+04  0.00000000000E+00 0. -1.
         21   -1    0    0  501  502 -0.00000000000E+00 -0.00000000000E+00 -0.60704074248E+02  0.60704074248E+02  0.00000000000E+00 0. -1.
         25    1    1    2    0    0  0.49640001877E+02 -0.40991436948E+02  0.20535709315E+04  0.20583787305E+04  0.12500000000E+03 0.  0.
         25    1    1    2    0    0 -0.64141265800E+02 -0.48652395108E+02  0.24909897992E+03  0.29009732733E+03  0.12500000000E+03 0.  0.
         25    1    1    2    0    0  0.14501263923E+02  0.89643832055E+02  0.12007380811E+03  0.19567581014E+03  0.12500000000E+03 0.  0.
</event>
<event>
 5    0  0.5677492E-005  0.2360229E+03  0.7546771E-02  0.1122471E+00
         21   -1    0    0  502  501  0.00000000000E+00  0.00000000000E+00  0.86961645689E+02  0.86961645689E+02  0.00000000000E+00 0.  1.
         21   -1    0    0  501  502 -0.00000000000E+00 -0.00000000000E+00 -0.64059069027E+03  0.64059069027E+03  0.00000000000E+00 0.  1.
         25    1    1    2    0    0 -0.28298012755E+02  0.67939003846E+02 -0.84684899665E+02  0.16796731230E+03  0.12500000000E+03 0.  0.
         25    1    1    2    0    0  0.17664321624E+02 -0.53804561668E+02 -0.10045027197E+03  0.17006532937E+03  0.12500000000E+03 0.  0.
         25    1    1    2    0    0  0.10633691131E+02 -0.14134442178E+02 -0.36849387294E+03  0.38951969429E+03  0.12500000000E+03 0.  0.
</event>
<event>
 5    0  0.5731553E-005  0.2901055E+03  0.7546771E-02  0.1090294E+00
         21   -1    0    0  502  501  0.00000000000E+00  0.00000000000E+00  0.82984239678E+03  0.82984239678E+03  0.00000000000E+00 0. -1.
         21   -1    0    0  501  502 -0.00000000000E+00 -0.00000000000E+00 -0.10141830698E+03  0.10141830698E+03  0.00000000000E+00 0. -1.
         25    1    1    2    0    0  0.21235774595E+02 -0.87857734418E+02  0.18770036716E+03  0.24295342651E+03  0.12500000000E+03 0.  0.
         25    1    1    2    0    0 -0.99334634043E+02 -0.95129840865E+02  0.18695361374E+03  0.26361659628E+03  0.12500000000E+03 0.  0.
         25    1    1    2    0    0  0.78098859448E+02  0.18298757528E+03  0.35377010890E+03  0.42469068098E+03  0.12500000000E+03 0.  0.
</event>
<event>
 5    0  0.5677492E-005  0.2300354E+03  0.7546771E-02  0.1126615E+00
         21   -1    0    0  502  501  0.00000000000E+00  0.00000000000E+00  0.98393888886E+03  0.98393888886E+03  0.00000000000E+00 0. -1.
         21   -1    0    0  501  502 -0.00000000000E+00 -0.00000000000E+00 -0.53780040210E+02  0.53780040210E+02  0.00000000000E+00 0. -1.
         25    1    1    2    0    0  0.18678376525E+02  0.54022007755E+02  0.44277681386E+03  0.46362006639E+03  0.12500000000E+03 0.  0.
         25    1    1    2    0    0 -0.62176928174E+02 -0.53622169925E+02  0.36246293189E+03  0.39210417557E+03  0.12500000000E+03 0.  0.
         25    1    1    2    0    0  0.43498551649E+02 -0.39983783098E+00  0.12491910291E+03  0.18199468711E+03  0.12500000000E+03 0.  0.
</event>
<event>
 5    0  0.5677492E-005  0.2274192E+03  0.7546771E-02  0.1128470E+00
         21   -1    0    0  502  501  0.00000000000E+00  0.00000000000E+00  0.14834437622E+03  0.14834437622E+03  0.00000000000E+00 0. -1.
         21   -1    0    0  501  502 -0.00000000000E+00 -0.00000000000E+00 -0.34864482653E+03  0.34864482653E+03  0.00000000000E+00 0. -1.
         25    1    1    2    0    0  0.62347833042E+02  0.20079349591E+02 -0.16432829560E+03  0.21660845159E+03  0.12500000000E+03 0.  0.
         25    1    1    2    0    0 -0.36915923784E+01  0.31353752686E+02 -0.94588350428E+00  0.12892858627E+03  0.12500000000E+03 0.  0.
         25    1    1    2    0    0 -0.58656240664E+02 -0.51433102277E+02 -0.35026271207E+02  0.15145216490E+03  0.12500000000E+03 0.  0.
</event>
<event>
 5    0  0.5677492E-005  0.3067987E+03  0.7546771E-02  0.1081891E+00
         21   -1    0    0  502  501  0.00000000000E+00  0.00000000000E+00  0.18006220880E+03  0.18006220880E+03  0.00000000000E+00 0.  1.
         21   -1    0    0  501  502 -0.00000000000E+00 -0.00000000000E+00 -0.52273842371E+03  0.52273842371E+03  0.00000000000E+00 0.  1.
         25    1    1    2    0    0 -0.44631264959E+02  0.32125960112E+02 -0.37667569623E+01  0.13661337996E+03  0.12500000000E+03 0.  0.
         25    1    1    2    0    0  0.10630881697E+03  0.90081850226E+02 -0.85702185828E+01  0.18738930853E+03  0.12500000000E+03 0.  0.
         25    1    1    2    0    0 -0.61677552015E+02 -0.12220781034E+03 -0.33033923937E+03  0.37879794402E+03  0.12500000000E+03 0.  0.
</event>
<event>
 5    0  0.5677492E-005  0.3017200E+03  0.7546771E-02  0.1084384E+00
         21   -1    0    0  502  501  0.00000000000E+00  0.00000000000E+00  0.23710658142E+03  0.23710658142E+03  0.00000000000E+00 0. -1.
         21   -1    0    0  501  502 -0.00000000000E+00 -0.00000000000E+00 -0.38394117192E+03  0.38394117192E+03  0.00000000000E+00 0. -1.
         25    1    1    2    0    0 -0.61558935489E+02  0.13836614019E+02  0.17909235876E+01  0.14003271701E+03  0.12500000000E+03 0.  0.
         25    1    1    2    0    0  0.83736856689E+02  0.14001499229E+03  0.36658558915E+02  0.20876999108E+03  0.12500000000E+03 0.  0.
         25    1    1    2    0    0 -0.22177921200E+02 -0.15385160631E+03 -0.18528407301E+03  0.27224504525E+03  0.12500000000E+03 0.  0.
</event>
<event>
 5    0  0.5677492E-005  0.2561794E+03  0.7546771E-02  0.1109461E+00
         21   -1    0    0  502  501  0.00000000000E+00  0.00000000000E+00  0.41256530304E+03  0.41256530304E+03  0.00000000000E+00 0.  1.
         21   -1    0    0  501  502 -0.00000000000E+00 -0.00000000000E+00 -0.15907272003E+03  0.15907272003E+03  0.00000000000E+00 0.  1.
         25    1    1    2    0    0  0.27946857446E+02 -0.32390963672E+02  0.55175919692E+02  0.14317675608E+03  0.12500000000E+03 0.  0.
         25    1    1    2    0    0 -0.14725060814E+03  0.10321373994E+02  0.15775578250E+03  0.24960200173E+03  0.12500000000E+03 0.  0.
         25    1    1    2    0    0  0.11930375069E+03  0.22069589678E+02  0.40560880820E+02  0.17885926526E+03  0.12500000000E+03 0.  0.
</event>
<event>
 5    0  0.5677492E-005  0.3174148E+03  0.7546771E-02  0.1076845E+00
         21   -1    0    0  502  501  0.00000000000E+00  0.00000000000E+00  0.13629841691E+04  0.13629841691E+04  0.00000000000E+00 0. -1.
         21   -1    0    0  501  502 -0.00000000000E+00 -0.00000000000E+00 -0.73920256813E+02  0.73920256813E+02  0.00000000000E+00 0. -1.
         25    1    1    2    0    0 -0.39575541830E+02 -0.16200741986E+02  0.10760345008E+03  0.17038835060E+03  0.12500000000E+03 0.  0.
         25    1    1    2    0    0 -0.10454229922E+03 -0.13267388973E+03  0.46454295158E+03  0.50985939945E+03  0.12500000000E+03 0.  0.
         25    1    1    2    0    0  0.14411784105E+03  0.14887463172E+03  0.71691751062E+03  0.75665667585E+03  0.12500000000E+03 0.  0.
</event>
<event>
 5    0  0.5677492E-005  0.3937908E+03  0.7546771E-02  0.1045951E+00
         21   -1    0    0  502  501  0.00000000000E+00  0.00000000000E+00  0.16514668814E+03  0.16514668814E+03  0.00000000000E+00 0. -1.
         21   -1    0    0  501  502 -0.00000000000E+00 -0.00000000000E+00 -0.93899066959E+03  0.93899066959E+03  0.00000000000E+00 0. -1.
         25    1    1    2    0    0  0.23190052357E+02  0.28397749562E+03 -0.55057922211E+03  0.63241084460E+03  0.12500000000E+03 0.  0.
         25    1    1    2    0    0 -0.24935564940E+02 -0.20976273287E+03 -0.59151281232E+02  0.25247982211E+03  0.12500000000E+03 0.  0.
         25    1    1    2    0    0  0.17455125830E+01 -0.74214762752E+02 -0.16411347812E+03  0.21924669102E+03  0.12500000000E+03 0.  0.
</event>
<event>
 5    0  0.5677492E-005  0.4349544E+03  0.7546771E-02  0.1032306E+00
         21   -1    0    0  502  501  0.00000000000E+00  0.00000000000E+00  0.37899106091E+04  0.37899106091E+04  0.00000000000E+00 0. -1.
         21   -1    0    0  501  502 -0.00000000000E+00 -0.00000000000E+00 -0.49918153701E+02  0.49918153701E+02  0.00000000000E+00 0. -1.
         25    1    1    2    0    0 -0.77769875153E+02 -0.17700959343E+03  0.44701990620E+03  0.50282436912E+03  0.12500000000E+03 0.  0.
         25    1    1    2    0    0  0.95527984823E+02  0.15601693700E+03  0.30840230737E+04  0.30919718951E+04  0.12500000000E+03 0.  0.
         25    1    1    2    0    0 -0.17758109670E+02  0.20992656429E+02  0.20894947550E+03  0.24503249865E+03  0.12500000000E+03 0.  0.
</event>
<event>
 5    0  0.5677492E-005  0.3542886E+03  0.7546771E-02  0.1060868E+00
         21   -1    0    0  502  501  0.00000000000E+00  0.00000000000E+00  0.63177324508E+03  0.63177324508E+03  0.00000000000E+00 0.  1.
         21   -1    0    0  501  502 -0.00000000000E+00 -0.00000000000E+00 -0.19867954770E+03  0.19867954770E+03  0.00000000000E+00 0.  1.
         25    1    1    2    0    0  0.11665355460E+03  0.11178048966E+03  0.31710501102E+01  0.20429876463E+03  0.12500000000E+03 0.  0.
         25    1    1    2    0    0  0.84685930933E+02 -0.84239586488E+02  0.54401545688E+02  0.18125270482E+03  0.12500000000E+03 0.  0.
         25    1    1    2    0    0 -0.20133948553E+03 -0.27540903170E+02  0.37552110158E+03  0.44490132334E+03  0.12500000000E+03 0.  0.
</event>
