<event>
 6    0  0.2572175E+002  0.1371717E+03  0.7546771E-02  0.1217186E+00
          2   -1    0    0  504    0 -0.00000000000E+00  0.00000000000E+00  0.16411064150E+04  0.16411064150E+04  0.00000000000E+00 0. -1.
         21   -1    0    0  505  502  0.00000000000E+00 -0.00000000000E+00 -0.25937976539E+03  0.25937976539E+03  0.00000000000E+00 0. -1.
         21    1    1    2  503  501  0.10291866745E+03  0.76046434154E+02  0.66401382876E+03  0.67623196985E+03  0.00000000000E+00 0. -1.
         21    1    1    2  504  502 -0.49087334929E+02  0.83393921983E+00 -0.53339500561E+02  0.72493890951E+02  0.00000000000E+00 0. -1.
         21    1    1    2  505  503  0.44214134431E+01 -0.13311071881E+03 -0.16509476177E+03  0.21211858175E+03  0.00000000000E+00 0. -1.
          2    1    1    2  501    0 -0.58252745959E+02  0.56230345434E+02  0.93614708316E+03  0.93964173783E+03  0.00000000000E+00 0. -1.
<scales pt_clust_3="137.17172" pt_clust_4="49.09442" pt_clust_5="14000.00000" pt_clust_6="81.28421"></scales>
<clustering>
<clus scale="   49.094">  2  4  1 -1</clus>
<clus scale="   81.284">  1  6  2 -1</clus>
<clus scale="  137.172">  1  3  2 -1</clus>
<clus scale="   49.094">  2  3  1 -1</clus>
</clustering>
</event>
<event>
 6    0  0.2572175E+002  0.1532903E+03  0.7546771E-02  0.1196487E+00
         21   -1    0    0  504  502  0.00000000000E+00  0.00000000000E+00  0.73400142153E+03  0.73400142153E+03  0.00000000000E+00 0.  1.
          3   -1    0    0  505    0 -0.00000000000E+00 -0.00000000000E+00 -0.10316089024E+03  0.10316089024E+03  0.00000000000E+00 0.  1.
         21    1    1    2  503  501  0.19309802154E+02 -0.65798706856E+02  0.23346173554E+02  0.72438816271E+02  0.00000000000E+00 0.  1.
         21    1    1    2  504  503 -0.70485752341E+02 -0.45574056603E+02  0.18752218614E+03  0.20545025240E+03  0.00000000000E+00 0.  1.
         21    1    1    2  505  502  0.15488041927E+02  0.17596466047E+03  0.44703659503E+03  0.48067157027E+03  0.00000000000E+00 0.  1.
          3    1    1    2  501    0  0.35687908260E+02 -0.64591897008E+02 -0.27064423435E+02  0.78601672825E+02  0.00000000000E+00 0.  1.
<scales pt_clust_3="50.76156" pt_clust_4="83.93590" pt_clust_5="143.96174" pt_clust_6="50.76156"></scales>
<clustering>
<clus scale="   50.762">  3  6 -1 -1</clus>
<clus scale="   83.936">  1  4  2 -1</clus>
<clus scale="  143.962">  1  5  2 -1</clus>
<clus scale="   83.936">  1  3  2 -1</clus>
</clustering>
</event>
<event>
 6    0  0.2572175E+002  0.1538781E+03  0.7546771E-02  0.1195787E+00
          2   -1    0    0  505    0 -0.00000000000E+00  0.00000000000E+00  0.19680845765E+04  0.19680845765E+04  0.00000000000E+00 0. -1.
         21   -1    0    0  503  502  0.00000000000E+00 -0.00000000000E+00 -0.53716848682E+03  0.53716848682E+03  0.00000000000E+00 0. -1.
         21    1    1    2  503  504 -0.89524478734E+02 -0.20283659860E+02  0.29819601496E+00  0.91794052480E+02  0.00000000000E+00 0. -1.
         21    1    1    2  504  501  0.29806580655E+02  0.79227477287E+02  0.73894830025E+03  0.74378089237E+03  0.00000000000E+00 0.  1.
         21    1    1    2  505  502  0.26750171489E+02 -0.10519863682E+03 -0.48228548808E+03  0.49434969089E+03  0.00000000000E+00 0. -1.
          2    1    1    2  501    0  0.32967726590E+02  0.46254819388E+02  0.11739550815E+04  0.11753284276E+04  0.00000000000E+00 0. -1.
<scales pt_clust_3="91.79357" pt_clust_4="52.41860" pt_clust_5="139.94157" pt_clust_6="52.41860"></scales>
<clustering>
<clus scale="   52.419">  4  6 -1 -1</clus>
<clus scale="   91.794">  2  3  1 -1</clus>
<clus scale="  139.942">  2  5  1 -1</clus>
<clus scale="   91.794">  2  3  1 -1</clus>
</clustering>
</event>
<event>
 6    0  0.2572175E+002  0.1109735E+03  0.7546771E-02  0.1258778E+00
         -3   -1    0    0    0  501 -0.00000000000E+00  0.00000000000E+00  0.26421082819E+03  0.26421082819E+03  0.00000000000E+00 0.  1.
         21   -1    0    0  504  502  0.00000000000E+00 -0.00000000000E+00 -0.16500090244E+03  0.16500090244E+03  0.00000000000E+00 0. -1.
         21    1    1    2  503  502 -0.43815958705E+02  0.69696300660E+00 -0.61755843700E+02  0.75723894681E+02  0.00000000000E+00 0. -1.
         21    1    1    2  504  501 -0.67814186926E+01 -0.76957196980E+02  0.35681217171E+00  0.77256230308E+02  0.00000000000E+00 0. -1.
         21    1    1    2  505  503 -0.45355196323E+02  0.25397624782E+02 -0.27662256865E+02  0.58884069433E+02  0.00000000000E+00 0. -1.
         -3    1    1    2    0  505  0.95952573720E+02  0.50862609191E+02  0.18827121415E+03  0.21734753620E+03  0.00000000000E+00 0.  1.
<scales pt_clust_3="35.45661" pt_clust_4="77.25541" pt_clust_5="35.45661" pt_clust_6="104.03764"></scales>
<clustering>
<clus scale="   35.457">  3  5 -1 -1</clus>
<clus scale="   77.255">  2  4  1 -1</clus>
<clus scale="  104.038">  1  6  2 -1</clus>
<clus scale="   77.255">  2  3  1 -1</clus>
</clustering>
</event>
<event>
 6    0  0.2572175E+002  0.8407661E+02  0.7546771E-02  0.1317865E+00
          1   -1    0    0  505    0 -0.00000000000E+00  0.00000000000E+00  0.51632316112E+03  0.51632316112E+03  0.00000000000E+00 0. -1.
         21   -1    0    0  504  502  0.00000000000E+00 -0.00000000000E+00 -0.15455591033E+04  0.15455591033E+04  0.00000000000E+00 0. -1.
         21    1    1    2  503  501 -0.34854205225E+02 -0.14863986698E+02  0.92231733134E+02  0.99711816348E+02  0.00000000000E+00 0.  1.
         21    1    1    2  504  503 -0.75225686139E+02 -0.30637703422E+02 -0.13219650638E+04  0.13244580789E+04  0.00000000000E+00 0. -1.
         21    1    1    2  505  502  0.11071520806E+03  0.80150752033E+02 -0.19641366477E+03  0.23929130376E+03  0.00000000000E+00 0. -1.
          1    1    1    2  501    0 -0.63531669568E+00 -0.34649061913E+02  0.39691105332E+03  0.39842106541E+03  0.00000000000E+00 0. -1.
<scales pt_clust_3="55.59083" pt_clust_4="84.07661" pt_clust_5="14000.00000" pt_clust_6="34.65489"></scales>
<clustering>
<clus scale="   34.655">  1  6  2 -1</clus>
<clus scale="   55.591">  1  3  2 -1</clus>
<clus scale="   84.077">  2  4  1 -1</clus>
<clus scale="   84.077">  2  3  1 -1</clus>
</clustering>
</event>
<event>
 6    0  0.2572175E+002  0.1026386E+03  0.7546771E-02  0.1274843E+00
          2   -1    0    0  505    0 -0.00000000000E+00  0.00000000000E+00  0.11666320064E+04  0.11666320064E+04  0.00000000000E+00 0. -1.
         21   -1    0    0  504  502  0.00000000000E+00 -0.00000000000E+00 -0.80713353544E+02  0.80713353544E+02  0.00000000000E+00 0.  1.
         21    1    1    2  503  501 -0.66706494314E+02  0.42994626948E+02  0.28748283534E+02  0.84408282391E+02  0.00000000000E+00 0.  1.
         21    1    1    2  504  503 -0.45056718340E+02  0.49838356693E+01 -0.12394341371E+02  0.46995384705E+02  0.00000000000E+00 0.  1.
         21    1    1    2  505  502  0.22882781834E+02 -0.67301507915E+02  0.38439965522E+02  0.80813028785E+02  0.00000000000E+00 0.  1.
          2    1    1    2  501    0  0.88880430820E+02  0.19323045298E+02  0.10311247452E+04  0.10351286641E+04  0.00000000000E+00 0. -1.
<scales pt_clust_3="35.50166" pt_clust_4="35.50166" pt_clust_5="71.08526" pt_clust_6="91.25872"></scales>
<clustering>
<clus scale="   35.502">  3  4 -1 -1</clus>
<clus scale="   71.085">  2  5  1 -1</clus>
<clus scale="   91.259">  1  6  2 -1</clus>
<clus scale="   71.085">  2  3  1 -1</clus>
</clustering>
</event>
<event>
 6    0  0.2572175E+002  0.1163743E+03  0.7546771E-02  0.1249201E+00
         21   -1    0    0  505  502  0.00000000000E+00  0.00000000000E+00  0.23198479420E+02  0.23198479420E+02  0.00000000000E+00 0. -1.
          2   -1    0    0  503    0 -0.00000000000E+00 -0.00000000000E+00 -0.24141653966E+04  0.24141653966E+04  0.00000000000E+00 0.  1.
         21    1    1    2  503  502 -0.10638249704E+03 -0.41597500390E+02 -0.15118144763E+04  0.15161235432E+04  0.00000000000E+00 0.  1.
         21    1    1    2  504  501  0.42897497454E+02 -0.60190017390E+01 -0.24926255745E+02  0.49977413851E+02  0.00000000000E+00 0. -1.
         21    1    1    2  505  504  0.62006700805E+02  0.15422793753E+02 -0.11681782649E+03  0.13315065940E+03  0.00000000000E+00 0. -1.
          2    1    1    2  501    0  0.14782987786E+01  0.32193708376E+02 -0.73740835871E+03  0.73811225957E+03  0.00000000000E+00 0.  1.
<scales pt_clust_3="105.79128" pt_clust_4="39.67108" pt_clust_5="39.67108" pt_clust_6="32.22763"></scales>
<clustering>
<clus scale="   32.228">  2  6  1 -1</clus>
<clus scale="   39.671">  4  5 -1 -1</clus>
<clus scale="  105.791">  2  3  1 -1</clus>
<clus scale="  116.374">  1  3  2 -1</clus>
</clustering>
</event>
<event>
 6    0  0.2572175E+002  0.1263635E+03  0.7546771E-02  0.1232954E+00
         21   -1    0    0  505  502  0.00000000000E+00  0.00000000000E+00  0.81724869509E+03  0.81724869509E+03  0.00000000000E+00 0. -1.
          1   -1    0    0  504    0 -0.00000000000E+00 -0.00000000000E+00 -0.26311220667E+03  0.26311220667E+03  0.00000000000E+00 0.  1.
         21    1    1    2  503  502  0.28864940213E+02  0.14550702600E+02  0.33789415023E+02  0.46761440174E+02  0.00000000000E+00 0.  1.
         21    1    1    2  504  503 -0.14099502080E+03 -0.53077071668E+02 -0.79838875844E+01  0.15086588046E+03  0.00000000000E+00 0. -1.
         21    1    1    2  505  501  0.97214056079E+02 -0.23475896581E+01  0.69944598947E+03  0.70617333287E+03  0.00000000000E+00 0. -1.
          1    1    1    2  501    0  0.14916024506E+02  0.40873958726E+02 -0.17111502849E+03  0.17656024825E+03  0.00000000000E+00 0.  1.
<scales pt_clust_3="32.32503" pt_clust_4="14000.00000" pt_clust_5="126.36352" pt_clust_6="43.59319"></scales>
<clustering>
<clus scale="   32.325">  1  3  2 -1</clus>
<clus scale="   43.593">  2  6  1 -1</clus>
<clus scale="  126.364">  1  5  2 -1</clus>
<clus scale="   32.325">  1  3  2 -1</clus>
</clustering>
</event>
<event>
 6    0  0.2572175E+002  0.6983940E+02  0.7546771E-02  0.1360640E+00
          2   -1    0    0  505    0 -0.00000000000E+00  0.00000000000E+00  0.28242998738E+04  0.28242998738E+04  0.00000000000E+00 0.  1.
         21   -1    0    0  504  502  0.00000000000E+00 -0.00000000000E+00 -0.72785633190E+02  0.72785633190E+02  0.00000000000E+00 0.  1.
         21    1    1    2  503  502  0.48932679775E+02 -0.35702320422E+02  0.26477392180E+02  0.66106846318E+02  0.00000000000E+00 0. -1.
         21    1    1    2  504  501  0.64564965863E+02  0.73604152028E+02  0.37982583995E+02  0.10501848742E+03  0.00000000000E+00 0.  1.
         21    1    1    2  505  503 -0.66984526071E+02  0.13682031671E+02  0.42514503768E+02  0.80508432814E+02  0.00000000000E+00 0.  1.
          2    1    1    2  501    0 -0.46513119566E+02 -0.51583863277E+02  0.26445397607E+04  0.26454517405E+04  0.00000000000E+00 0.  1.
<scales pt_clust_3="60.57279" pt_clust_4="14000.00000" pt_clust_5="49.44359" pt_clust_6="69.83940"></scales>
<clustering>
<clus scale="   60.573">  2  3  1 -1</clus>
<clus scale="   49.444">  2  5  1 -1</clus>
<clus scale="   69.839">  1  6  2 -1</clus>
<clus scale="   60.573">  2  3  1 -1</clus>
</clustering>
</event>
<event>
 6    0  0.2572175E+002  0.9103578E+02  0.7546771E-02  0.1300363E+00
         -2   -1    0    0    0  501 -0.00000000000E+00  0.00000000000E+00  0.88363963834E+03  0.88363963834E+03  0.00000000000E+00 0.  1.
         21   -1    0    0  503  502  0.00000000000E+00 -0.00000000000E+00 -0.16277094724E+03  0.16277094724E+03  0.00000000000E+00 0.  1.
         21    1    1    2  503  504 -0.47563083215E+02  0.49846271925E+02 -0.75479324127E+02  0.10219601793E+03  0.00000000000E+00 0.  1.
         21    1    1    2  504  501 -0.24687095370E+01 -0.17387236791E+03  0.74229950825E+02  0.18907083447E+03  0.00000000000E+00 0.  1.
         21    1    1    2  505  502  0.50886393098E+02  0.37085786453E+02  0.58801640773E+02  0.86153430094E+02  0.00000000000E+00 0.  1.
         -2    1    1    2    0  505 -0.85460034550E+00  0.86940309531E+02  0.66331642363E+03  0.66899030309E+03  0.00000000000E+00 0.  1.
<scales pt_clust_3="73.98109" pt_clust_4="14000.00000" pt_clust_5="62.96650" pt_clust_6="91.03578"></scales>
<clustering>
<clus scale="   62.967">  2  5  1 -1</clus>
<clus scale="   73.981">  2  3  1 -1</clus>
<clus scale="   91.036">  1  6  2 -1</clus>
<clus scale="   62.967">  2  3  1 -1</clus>
</clustering>
</event>
<event>
 6    0  0.2572175E+002  0.1184029E+03  0.7546771E-02  0.1245755E+00
         21   -1    0    0  501  502  0.00000000000E+00  0.00000000000E+00  0.92620514120E+02  0.92620514120E+02  0.00000000000E+00 0. -1.
          2   -1    0    0  504    0 -0.00000000000E+00 -0.00000000000E+00 -0.81809713684E+03  0.81809713684E+03  0.00000000000E+00 0.  1.
         21    1    1    2  503  502 -0.30426534186E+02  0.93398468559E+02 -0.39924005517E+02  0.10603289173E+03  0.00000000000E+00 0. -1.
         21    1    1    2  504  505 -0.99033618969E+01  0.37250191918E+02 -0.13829611924E+03  0.14356695292E+03  0.00000000000E+00 0. -1.
         21    1    1    2  505  503  0.75019005109E+02 -0.12571200703E+03 -0.38791299090E+02  0.15144677192E+03  0.00000000000E+00 0. -1.
          2    1    1    2  501    0 -0.34689109026E+02 -0.49366534476E+01 -0.50846519888E+03  0.50967103440E+03  0.00000000000E+00 0.  1.
<scales pt_clust_3="14000.00000" pt_clust_4="43.43504" pt_clust_5="118.40293" pt_clust_6="35.03862"></scales>
<clustering>
<clus scale="   35.039">  2  6  1 -1</clus>
<clus scale="   43.435">  2  4  1 -1</clus>
<clus scale="  118.403">  2  5  1 -1</clus>
<clus scale="  118.403">  1  3  2 -1</clus>
</clustering>
</event>
<event>
 6    0  0.2572175E+002  0.7261693E+02  0.7546771E-02  0.1351414E+00
         21   -1    0    0  504  502  0.00000000000E+00  0.00000000000E+00  0.54744158300E+03  0.54744158300E+03  0.00000000000E+00 0. -1.
          1   -1    0    0  503    0 -0.00000000000E+00 -0.00000000000E+00 -0.89527374228E+02  0.89527374228E+02  0.00000000000E+00 0.  1.
         21    1    1    2  503  505  0.20403410717E+02  0.43416616618E+02  0.47540372696E+01  0.48206873346E+02  0.00000000000E+00 0.  1.
         21    1    1    2  504  501  0.41131181583E+02  0.22710455674E+02  0.36702020254E+03  0.37001536180E+03  0.00000000000E+00 0. -1.
         21    1    1    2  505  502 -0.56839883554E+01  0.40843053878E+02  0.88947452179E+02  0.98041379136E+02  0.00000000000E+00 0. -1.
          1    1    1    2  501    0 -0.55850603945E+02 -0.10697012617E+03 -0.28074832162E+01  0.12070534295E+03  0.00000000000E+00 0.  1.
<scales pt_clust_3="50.00441" pt_clust_4="14000.00000" pt_clust_5="41.23667" pt_clust_6="72.61693"></scales>
<clustering>
<clus scale="   41.237">  1  5  2 -1</clus>
<clus scale="   50.004">  2  3  1 -1</clus>
<clus scale="   72.617">  2  6  1 -1</clus>
<clus scale="   41.237">  1  3  2 -1</clus>
</clustering>
</event>
<event>
 6    0  0.2572175E+002  0.8959901E+02  0.7546771E-02  0.1303826E+00
         21   -1    0    0  501  502  0.00000000000E+00  0.00000000000E+00  0.14055186097E+02  0.14055186097E+02  0.00000000000E+00 0. -1.
          2   -1    0    0  505    0 -0.00000000000E+00 -0.00000000000E+00 -0.23978419793E+04  0.23978419793E+04  0.00000000000E+00 0. -1.
         21    1    1    2  503  504  0.49652772402E+02 -0.53443231012E+02 -0.20411705494E+03  0.21676104093E+03  0.00000000000E+00 0. -1.
         21    1    1    2  504  502 -0.32335820481E+02  0.20384100327E+02 -0.98646363496E+02  0.10579329782E+03  0.00000000000E+00 0.  1.
         21    1    1    2  505  503 -0.76992553328E+02 -0.40174052250E+02 -0.75991165428E+03  0.76485784957E+03  0.00000000000E+00 0. -1.
          2    1    1    2  501    0  0.59675601406E+02  0.73233182934E+02 -0.13211117205E+04  0.13244849771E+04  0.00000000000E+00 0. -1.
<scales pt_clust_3="51.01187" pt_clust_4="38.22456" pt_clust_5="89.59901" pt_clust_6="14000.00000"></scales>
<clustering>
<clus scale="   38.225">  1  4  2 -1</clus>
<clus scale="   51.012">  1  3  2 -1</clus>
<clus scale="   89.599">  1  5  2 -1</clus>
<clus scale="   38.225">  1  3  2 -1</clus>
</clustering>
</event>
<event>
 6    0  0.2572175E+002  0.9831854E+02  0.7546771E-02  0.1283872E+00
          2   -1    0    0  504    0 -0.00000000000E+00  0.00000000000E+00  0.27476336638E+04  0.27476336638E+04  0.00000000000E+00 0. -1.
         21   -1    0    0  505  502  0.00000000000E+00 -0.00000000000E+00 -0.16559624386E+03  0.16559624386E+03  0.00000000000E+00 0.  1.
         21    1    1    2  503  502  0.17497473406E+02  0.37303997199E+02 -0.96430289652E+01  0.42317109899E+02  0.00000000000E+00 0.  1.
         21    1    1    2  504  503  0.12143517407E+03 -0.28527166438E+02 -0.16393680456E+02  0.12581356638E+03  0.00000000000E+00 0.  1.
         21    1    1    2  505  501 -0.88468777974E+02 -0.78484476777E+01 -0.39386377899E+02  0.97157653179E+02  0.00000000000E+00 0.  1.
          2    1    1    2  501    0 -0.50463869501E+02 -0.92838308288E+00  0.26474605072E+04  0.26479415782E+04  0.00000000000E+00 0. -1.
<scales pt_clust_3="41.20376" pt_clust_4="14000.00000" pt_clust_5="98.31854" pt_clust_6="50.44113"></scales>
<clustering>
<clus scale="   41.204">  2  3  1 -1</clus>
<clus scale="   50.441">  1  6  2 -1</clus>
<clus scale="   98.319">  2  5  1 -1</clus>
<clus scale="   41.204">  2  3  1 -1</clus>
</clustering>
</event>
<event>
 6    0  0.2572175E+002  0.1806279E+03  0.7546771E-02  0.1167197E+00
          3   -1    0    0  503    0 -0.00000000000E+00  0.00000000000E+00  0.24036416993E+03  0.24036416993E+03  0.00000000000E+00 0.  1.
         21   -1    0    0  504  502  0.00000000000E+00 -0.00000000000E+00 -0.30052112018E+03  0.30052112018E+03  0.00000000000E+00 0.  1.
         21    1    1    2  503  505 -0.44722169461E+02 -0.64110280570E+02  0.49970046500E+02  0.92775029309E+02  0.00000000000E+00 0.  1.
         21    1    1    2  504  501  0.17581991392E+03  0.66569497839E+02 -0.17658705357E+03  0.25792853208E+03  0.00000000000E+00 0.  1.
         21    1    1    2  505  502 -0.49958376608E+02 -0.51263615426E+02 -0.47028180270E+01  0.71735027408E+02  0.00000000000E+00 0.  1.
          3    1    1    2  501    0 -0.81139367852E+02  0.48804398158E+02  0.71162874846E+02  0.11844670131E+03  0.00000000000E+00 0.  1.
<scales pt_clust_3="50.08087" pt_clust_4="172.88012" pt_clust_5="50.08087" pt_clust_6="94.68615"></scales>
<clustering>
<clus scale="   50.081">  3  5 -1 -1</clus>
<clus scale="   94.686">  1  6  2 -1</clus>
<clus scale="  172.880">  2  4  1 -1</clus>
<clus scale="  172.880">  2  3  1 -1</clus>
</clustering>
</event>
<event>
 6    0  0.2572175E+002  0.1375760E+03  0.7546771E-02  0.1216628E+00
          2   -1    0    0  504    0 -0.00000000000E+00  0.00000000000E+00  0.27403012240E+04  0.27403012240E+04  0.00000000000E+00 0. -1.
         21   -1    0    0  503  502  0.00000000000E+00 -0.00000000000E+00 -0.11038676901E+02  0.11038676901E+02  0.00000000000E+00 0. -1.
         21    1    1    2  503  505  0.75654073769E+02 -0.66525902095E+01  0.27627843884E+03  0.28652673802E+03  0.00000000000E+00 0. -1.
         21    1    1    2  504  502 -0.15375294460E+03  0.77106644567E+00  0.15620284955E+04  0.15695775174E+04  0.00000000000E+00 0. -1.
         21    1    1    2  505  501  0.47620192893E+02  0.28014609229E+01  0.32839105590E+03  0.33183763582E+03  0.00000000000E+00 0.  1.
          2    1    1    2  501    0  0.30478677941E+02  0.30800628410E+01  0.56256455691E+03  0.56339800966E+03  0.00000000000E+00 0. -1.
<scales pt_clust_3="31.75353" pt_clust_4="131.86825" pt_clust_5="31.75353" pt_clust_6="30.63391"></scales>
<clustering>
<clus scale="   30.634">  1  6  2 -1</clus>
<clus scale="   31.754">  3  5 -1 -1</clus>
<clus scale="  131.868">  1  4  2 -1</clus>
<clus scale="  137.576">  2  3  1 -1</clus>
</clustering>
</event>
<event>
 6    0  0.2572175E+002  0.1272707E+03  0.7546771E-02  0.1231563E+00
         21   -1    0    0  501  502  0.00000000000E+00  0.00000000000E+00  0.14081988581E+03  0.14081988581E+03  0.00000000000E+00 0.  1.
          2   -1    0    0  503    0 -0.00000000000E+00 -0.00000000000E+00 -0.87218458327E+03  0.87218458327E+03  0.00000000000E+00 0. -1.
         21    1    1    2  503  504 -0.43759533179E+01 -0.36614126440E+02 -0.26666222232E+02  0.45506380108E+02  0.00000000000E+00 0. -1.
         21    1    1    2  504  505 -0.45950849686E+02 -0.71576192638E+02 -0.16695126981E+03  0.18736957712E+03  0.00000000000E+00 0. -1.
         21    1    1    2  505  502  0.14053267047E+02  0.11655642310E+03  0.92079299023E+02  0.14920285315E+03  0.00000000000E+00 0.  1.
          2    1    1    2  501    0  0.36273535957E+02 -0.83661040217E+01 -0.62982650443E+03  0.63092565869E+03  0.00000000000E+00 0. -1.
<scales pt_clust_3="32.95803" pt_clust_4="32.95803" pt_clust_5="117.01407" pt_clust_6="37.22581"></scales>
<clustering>
<clus scale="   32.958">  3  4 -1 -1</clus>
<clus scale="   37.226">  2  6  1 -1</clus>
<clus scale="  117.014">  1  5  2 -1</clus>
<clus scale="  117.014">  1  3  2 -1</clus>
</clustering>
</event>
<event>
 6    0  0.2572175E+002  0.2147885E+03  0.7546771E-02  0.1137829E+00
          1   -1    0    0  503    0 -0.00000000000E+00  0.00000000000E+00  0.17556645557E+04  0.17556645557E+04  0.00000000000E+00 0. -1.
         21   -1    0    0  505  502  0.00000000000E+00 -0.00000000000E+00 -0.16085965883E+03  0.16085965883E+03  0.00000000000E+00 0. -1.
         21    1    1    2  503  504  0.15634958044E+03 -0.96448845286E+01 -0.29989486451E+02  0.15949164366E+03  0.00000000000E+00 0. -1.
         21    1    1    2  504  502  0.55443387871E+02  0.28244166056E+02 -0.13206987877E+02  0.63609171537E+02  0.00000000000E+00 0. -1.
         21    1    1    2  505  501 -0.18907023151E+03 -0.42559994576E+02  0.31387528478E+03  0.36888561909E+03  0.00000000000E+00 0. -1.
          1    1    1    2  501    0 -0.22722736802E+02  0.23960713049E+02  0.13241260865E+04  0.13245377803E+04  0.00000000000E+00 0. -1.
<scales pt_clust_3="32.78431" pt_clust_4="32.78431" pt_clust_5="208.39445" pt_clust_6="33.02179"></scales>
<clustering>
<clus scale="   32.784">  3  4 -1 -1</clus>
<clus scale="   33.022">  1  6  2 -1</clus>
<clus scale="  208.394">  1  5  2 -1</clus>
<clus scale="  214.788">  2  3  1 -1</clus>
</clustering>
</event>
<event>
 6    0  0.2572175E+002  0.1821207E+03  0.7546771E-02  0.1165766E+00
          2   -1    0    0  504    0 -0.00000000000E+00  0.00000000000E+00  0.21654370224E+04  0.21654370224E+04  0.00000000000E+00 0.  1.
         21   -1    0    0  503  502  0.00000000000E+00 -0.00000000000E+00 -0.34095680835E+03  0.34095680835E+03  0.00000000000E+00 0.  1.
         21    1    1    2  503  501  0.15869806114E+03  0.33723214350E+00 -0.25387943791E+03  0.29939932753E+03  0.00000000000E+00 0.  1.
         21    1    1    2  504  505 -0.15757473555E+03  0.13195742762E+03  0.32064162020E+03  0.38085904032E+03  0.00000000000E+00 0. -1.
         21    1    1    2  505  502 -0.53278938828E+02  0.43173522760E+02  0.10524222558E+02  0.69378365869E+02  0.00000000000E+00 0. -1.
          2    1    1    2  501    0  0.52155613233E+02 -0.17546818252E+03  0.17471938092E+04  0.17567570971E+04  0.00000000000E+00 0.  1.
<scales pt_clust_3="117.90961" pt_clust_4="14000.00000" pt_clust_5="68.57549" pt_clust_6="182.12072"></scales>
<clustering>
<clus scale="   68.575">  2  5  1 -1</clus>
<clus scale="  117.910">  2  3  1 -1</clus>
<clus scale="  182.121">  1  6  2 -1</clus>
<clus scale="   68.575">  2  3  1 -1</clus>
</clustering>
</event>
<event>
 6    0  0.2572175E+002  0.7298785E+02  0.7546771E-02  0.1350218E+00
          2   -1    0    0  504    0 -0.00000000000E+00  0.00000000000E+00  0.35234925695E+04  0.35234925695E+04  0.00000000000E+00 0. -1.
         21   -1    0    0  503  502  0.00000000000E+00 -0.00000000000E+00 -0.19556574862E+02  0.19556574862E+02  0.00000000000E+00 0. -1.
         21    1    1    2  503  501  0.74036489583E+02  0.39544451722E+02  0.31028371925E+03  0.32143607744E+03  0.00000000000E+00 0. -1.
         21    1    1    2  504  505 -0.63583904956E+02  0.11985945581E+02  0.23339360084E+03  0.24219650859E+03  0.00000000000E+00 0. -1.
         21    1    1    2  505  502 -0.32590006788E+02  0.19339867039E+02  0.30308271988E+02  0.48525563886E+02  0.00000000000E+00 0.  1.
          2    1    1    2  501    0  0.22137422162E+02 -0.70870264342E+02  0.29299504025E+04  0.29308909944E+04  0.00000000000E+00 0. -1.
<scales pt_clust_3="68.44846" pt_clust_4="14000.00000" pt_clust_5="37.89642" pt_clust_6="72.98785"></scales>
<clustering>
<clus scale="   37.896">  2  5  1 -1</clus>
<clus scale="   72.988">  1  6  2 -1</clus>
<clus scale="   68.448">  2  3  1 -1</clus>
<clus scale="   37.896">  2  3  1 -1</clus>
</clustering>
</event>
<event>
 6    0  0.2572175E+002  0.2168176E+03  0.7546771E-02  0.1136278E+00
          2   -1    0    0  505    0 -0.00000000000E+00  0.00000000000E+00  0.30723217124E+04  0.30723217124E+04  0.00000000000E+00 0.  1.
         21   -1    0    0  503  502  0.00000000000E+00 -0.00000000000E+00 -0.26007678167E+03  0.26007678167E+03  0.00000000000E+00 0.  1.
         21    1    1    2  503  501  0.16603795061E+03  0.10641000649E+03 -0.11591565996E+03  0.22875342784E+03  0.00000000000E+00 0.  1.
         21    1    1    2  504  502 -0.10919906429E+03 -0.84205072080E+02  0.79774482067E+02  0.15930755725E+03  0.00000000000E+00 0.  1.
         21    1    1    2  505  504 -0.75051819418E+02 -0.10978545177E+03  0.46289112683E+02  0.14081300711E+03  0.00000000000E+00 0.  1.
          2    1    1    2  501    0  0.18212933104E+02  0.87580517357E+02  0.28020969959E+04  0.28035245019E+04  0.00000000000E+00 0.  1.
<scales pt_clust_3="210.73746" pt_clust_4="50.07093" pt_clust_5="50.07093" pt_clust_6="89.45422"></scales>
<clustering>
<clus scale="   50.071">  4  5 -1 -1</clus>
<clus scale="   89.454">  1  6  2 -1</clus>
<clus scale="  210.737">  2  3  1 -1</clus>
<clus scale="  210.737">  2  3  1 -1</clus>
</clustering>
</event>
<event>
 6    0  0.2572175E+002  0.9324574E+02  0.7546771E-02  0.1295177E+00
         21   -1    0    0  503  502  0.00000000000E+00  0.00000000000E+00  0.71868496242E+03  0.71868496242E+03  0.00000000000E+00 0.  1.
         -2   -1    0    0    0  501 -0.00000000000E+00 -0.00000000000E+00 -0.11530138769E+03  0.11530138769E+03  0.00000000000E+00 0.  1.
         21    1    1    2  503  504  0.92010231537E+00  0.69575397569E+02  0.10946098640E+03  0.12970462628E+03  0.00000000000E+00 0.  1.
         21    1    1    2  504  501 -0.14908674161E+02  0.10404005802E+03 -0.44690231962E+02  0.11420954019E+03  0.00000000000E+00 0.  1.
         21    1    1    2  505  502 -0.26964647955E+02 -0.11193208775E+03  0.48546526759E+03  0.49893126836E+03  0.00000000000E+00 0.  1.
         -2    1    1    2    0  505  0.40953219801E+02 -0.61683367840E+02  0.53147552700E+02  0.91140915280E+02  0.00000000000E+00 0.  1.
<scales pt_clust_3="69.58148" pt_clust_4="14000.00000" pt_clust_5="60.71936" pt_clust_6="93.24574"></scales>
<clustering>
<clus scale="   69.581">  1  3  2 -1</clus>
<clus scale="   60.719">  1  5  2 -1</clus>
<clus scale="   93.246">  1  6  2 -1</clus>
<clus scale="   69.581">  1  3  2 -1</clus>
</clustering>
</event>
<event>
 6    0  0.2572175E+002  0.1130015E+03  0.7546771E-02  0.1255110E+00
          2   -1    0    0  505    0 -0.00000000000E+00  0.00000000000E+00  0.14491656269E+04  0.14491656269E+04  0.00000000000E+00 0.  1.
         21   -1    0    0  504  502  0.00000000000E+00 -0.00000000000E+00 -0.29553752593E+02  0.29553752593E+02  0.00000000000E+00 0.  1.
         21    1    1    2  503  501  0.20332839223E+02  0.84640418298E+02  0.23078056627E+03  0.24665176774E+03  0.00000000000E+00 0.  1.
         21    1    1    2  504  503 -0.60405685577E+02  0.27892881083E+02  0.84570313416E+02  0.10760575067E+03  0.00000000000E+00 0.  1.
         21    1    1    2  505  502  0.11500291696E+02 -0.15167496181E+03  0.64700450488E+03  0.66464455168E+03  0.00000000000E+00 0.  1.
          2    1    1    2  501    0  0.28572554658E+02  0.39141662431E+02  0.45725648978E+03  0.45981730944E+03  0.00000000000E+00 0.  1.
<scales pt_clust_3="113.00155" pt_clust_4="65.77180" pt_clust_5="14000.00000" pt_clust_6="48.46092"></scales>
<clustering>
<clus scale="   48.461">  1  6  2 -1</clus>
<clus scale="   65.772">  2  4  1 -1</clus>
<clus scale="  113.002">  2  3  1 -1</clus>
<clus scale="   65.772">  2  3  1 -1</clus>
</clustering>
</event>
<event>
 6    0  0.2572175E+002  0.1479737E+03  0.7546771E-02  0.1202985E+00
         21   -1    0    0  501  502  0.00000000000E+00  0.00000000000E+00  0.18948609406E+03  0.18948609406E+03  0.00000000000E+00 0. -1.
          2   -1    0    0  505    0 -0.00000000000E+00 -0.00000000000E+00 -0.57497309411E+03  0.57497309411E+03  0.00000000000E+00 0. -1.
         21    1    1    2  503  502 -0.13646411348E+03  0.70648012167E+02  0.11593720881E+03  0.19249683706E+03  0.00000000000E+00 0. -1.
         21    1    1    2  504  503  0.62804939620E+02  0.60129782590E+02 -0.87840102902E+02  0.12359585298E+03  0.00000000000E+00 0. -1.
         21    1    1    2  505  504  0.97726744414E+01 -0.51379338649E+02 -0.56351262706E+02  0.76881769063E+02  0.00000000000E+00 0. -1.
          2    1    1    2  501    0  0.63886499417E+02 -0.79398456108E+02 -0.35723284325E+03  0.37148472907E+03  0.00000000000E+00 0. -1.
<scales pt_clust_3="147.97367" pt_clust_4="81.53939" pt_clust_5="52.30049" pt_clust_6="14000.00000"></scales>
<clustering>
<clus scale="   52.300">  2  5  1 -1</clus>
<clus scale="   81.539">  2  4  1 -1</clus>
<clus scale="  147.974">  1  3  2 -1</clus>
<clus scale="  147.974">  1  3  2 -1</clus>
</clustering>
</event>
<event>
 6    0  0.2572175E+002  0.8278424E+02  0.7546771E-02  0.1321331E+00
         21   -1    0    0  504  502  0.00000000000E+00  0.00000000000E+00  0.91102508831E+03  0.91102508831E+03  0.00000000000E+00 0. -1.
          2   -1    0    0  503    0 -0.00000000000E+00 -0.00000000000E+00 -0.29488290257E+03  0.29488290257E+03  0.00000000000E+00 0.  1.
         21    1    1    2  503  505 -0.60449644680E+02 -0.84208888213E+02  0.31954073798E+03  0.33593389175E+03  0.00000000000E+00 0. -1.
         21    1    1    2  504  501  0.24006763005E+02  0.28044744473E+02  0.63879587788E+02  0.73779632003E+02  0.00000000000E+00 0. -1.
         21    1    1    2  505  502  0.64191326579E+02  0.12963274617E+02  0.51000770904E+03  0.51419493985E+03  0.00000000000E+00 0. -1.
          2    1    1    2  501    0 -0.27748444905E+02  0.43200869123E+02 -0.27728584906E+03  0.28199952727E+03  0.00000000000E+00 0.  1.
<scales pt_clust_3="14000.00000" pt_clust_4="36.91656" pt_clust_5="82.78424" pt_clust_6="51.37465"></scales>
<clustering>
<clus scale="   36.917">  1  4  2 -1</clus>
<clus scale="   51.375">  2  6  1 -1</clus>
<clus scale="   82.784">  1  5  2 -1</clus>
<clus scale="   36.917">  1  3  2 -1</clus>
</clustering>
</event>
<event>
 6    0  0.2572175E+002  0.1380812E+03  0.7546771E-02  0.1215934E+00
         21   -1    0    0  504  502  0.00000000000E+00  0.00000000000E+00  0.84947924358E+02  0.84947924358E+02  0.00000000000E+00 0.  1.
         -4   -1    0    0    0  501 -0.00000000000E+00 -0.00000000000E+00 -0.10095436430E+04  0.10095436430E+04  0.00000000000E+00 0.  1.
         21    1    1    2  503  501 -0.14652824891E+02  0.19213997026E+03 -0.29775499267E+03  0.35466957737E+03  0.00000000000E+00 0.  1.
         21    1    1    2  504  503 -0.21217594780E+02 -0.94107293510E+02 -0.10954005587E+03  0.14596366966E+03  0.00000000000E+00 0.  1.
         21    1    1    2  505  502  0.14452287852E+03 -0.33652708346E+02 -0.17755457211E+03  0.23139791112E+03  0.00000000000E+00 0.  1.
         -4    1    1    2    0  505 -0.10865245885E+03 -0.64379968403E+02 -0.33974609802E+03  0.36246040924E+03  0.00000000000E+00 0.  1.
<scales pt_clust_3="14000.00000" pt_clust_4="96.46952" pt_clust_5="137.39319" pt_clust_6="138.08122"></scales>
<clustering>
<clus scale="   96.470">  1  4  2 -1</clus>
<clus scale="  138.081">  2  6  1 -1</clus>
<clus scale="  137.393">  2  5  1 -1</clus>
<clus scale="   96.470">  1  3  2 -1</clus>
</clustering>
</event>
<event>
 6    0  0.2572175E+002  0.4181824E+03  0.7546771E-02  0.1037660E+00
         21   -1    0    0  501  502  0.00000000000E+00  0.00000000000E+00  0.29578308740E+03  0.29578308740E+03  0.00000000000E+00 0.  1.
          2   -1    0    0  503    0 -0.00000000000E+00 -0.00000000000E+00 -0.55238395644E+04  0.55238395644E+04  0.00000000000E+00 0. -1.
         21    1    1    2  503  505 -0.11866018523E+03  0.18934270103E+03 -0.32287144169E+03  0.39265362070E+03  0.00000000000E+00 0.  1.
         21    1    1    2  504  502  0.11379204857E+03 -0.40540375335E+03  0.43683038984E+02  0.42333088883E+03  0.00000000000E+00 0.  1.
         21    1    1    2  505  504 -0.76125217656E+02  0.17097575987E+03 -0.29833353733E+03  0.35217986701E+03  0.00000000000E+00 0.  1.
          2    1    1    2  501    0  0.80993354318E+02  0.45085292448E+02 -0.46505345370E+04  0.46514582753E+04  0.00000000000E+00 0. -1.
<scales pt_clust_3="30.49862" pt_clust_4="416.85243" pt_clust_5="30.49862" pt_clust_6="92.69632"></scales>
<clustering>
<clus scale="   30.499">  3  5 -1 -1</clus>
<clus scale="   92.696">  2  6  1 -1</clus>
<clus scale="  416.852">  1  4  2 -1</clus>
<clus scale="  416.852">  1  3  2 -1</clus>
</clustering>
</event>
<event>
 6    0  0.2765017E+002  0.1400145E+03  0.7546771E-02  0.1213309E+00
          1   -1    0    0  505    0 -0.00000000000E+00  0.00000000000E+00  0.30980223221E+04  0.30980223221E+04  0.00000000000E+00 0.  1.
         21   -1    0    0  503  502  0.00000000000E+00 -0.00000000000E+00 -0.28246862493E+03  0.28246862493E+03  0.00000000000E+00 0. -1.
         21    1    1    2  503  501 -0.43884994886E+02 -0.26122439775E+02  0.59386886245E+02  0.78326731668E+02  0.00000000000E+00 0.  1.
         21    1    1    2  504  502 -0.19273669753E+02 -0.60637142674E+02 -0.93639530063E+01  0.64311904290E+02  0.00000000000E+00 0. -1.
         21    1    1    2  505  504  0.21095562553E+02 -0.47532038779E+02 -0.23162687567E+03  0.23739276948E+03  0.00000000000E+00 0. -1.
          1    1    1    2  501    0  0.42063102086E+02  0.13429162123E+03  0.29971576396E+04  0.30004595416E+04  0.00000000000E+00 0.  1.
<scales pt_clust_3="51.07127" pt_clust_4="68.93170" pt_clust_5="140.01451" pt_clust_6="14000.00000"></scales>
<clustering>
<clus scale="   51.071">  2  3  1 -1</clus>
<clus scale="   68.932">  2  4  1 -1</clus>
<clus scale="  140.015">  2  5  1 -1</clus>
<clus scale="   51.071">  2  3  1 -1</clus>
</clustering>
</event>
<event>
 6    0  0.2572175E+002  0.1476220E+03  0.7546771E-02  0.1203426E+00
          1   -1    0    0  504    0 -0.00000000000E+00  0.00000000000E+00  0.38405068234E+04  0.38405068234E+04  0.00000000000E+00 0. -1.
         21   -1    0    0  503  502  0.00000000000E+00 -0.00000000000E+00 -0.51014273519E+02  0.51014273519E+02  0.00000000000E+00 0.  1.
         21    1    1    2  503  505 -0.13502828148E+03  0.47890415521E+02  0.87497519467E+02  0.16787478849E+03  0.00000000000E+00 0.  1.
         21    1    1    2  504  502 -0.51637150874E+02  0.19753781755E+02  0.50192140989E+03  0.50495713576E+03  0.00000000000E+00 0. -1.
         21    1    1    2  505  501  0.18100180340E+03 -0.22795142365E+02  0.90674212654E+03  0.92491218794E+03  0.00000000000E+00 0.  1.
          1    1    1    2  501    0  0.56636289449E+01 -0.44849054910E+02  0.22933314940E+04  0.22937769847E+04  0.00000000000E+00 0. -1.
<scales pt_clust_3="147.62204" pt_clust_4="50.06043" pt_clust_5="14000.00000" pt_clust_6="45.20525"></scales>
<clustering>
<clus scale="   45.205">  1  6  2 -1</clus>
<clus scale="   50.060">  1  4  2 -1</clus>
<clus scale="  147.622">  2  3  1 -1</clus>
<clus scale="  147.622">  2  3  1 -1</clus>
</clustering>
</event>
<event>
 6    0  0.2572175E+002  0.1188932E+03  0.7546771E-02  0.1244934E+00
          4   -1    0    0  505    0 -0.00000000000E+00  0.00000000000E+00  0.19620522436E+03  0.19620522436E+03  0.00000000000E+00 0.  1.
         21   -1    0    0  503  502  0.00000000000E+00 -0.00000000000E+00 -0.37447670977E+03  0.37447670977E+03  0.00000000000E+00 0.  1.
         21    1    1    2  503  501  0.17720267336E+02  0.44477502932E+02 -0.46612666623E+02  0.66820631778E+02  0.00000000000E+00 0.  1.
         21    1    1    2  504  502 -0.39628559362E+02 -0.30597083011E+02 -0.81942526311E+02  0.96026984874E+02  0.00000000000E+00 0. -1.
         21    1    1    2  505  504  0.11860641144E+02 -0.13117780200E+03 -0.18589196897E+03  0.22782474552E+03  0.00000000000E+00 0.  1.
          4    1    1    2  501    0  0.10047650881E+02  0.11729738208E+03  0.13617567649E+03  0.18000957196E+03  0.00000000000E+00 0.  1.
<scales pt_clust_3="47.87751" pt_clust_4="39.12631" pt_clust_5="118.89316" pt_clust_6="14000.00000"></scales>
<clustering>
<clus scale="   47.878">  2  3  1 -1</clus>
<clus scale="   39.126">  2  4  1 -1</clus>
<clus scale="  118.893">  2  5  1 -1</clus>
<clus scale="   47.878">  2  3  1 -1</clus>
</clustering>
</event>
<event>
 6    0  0.2572175E+002  0.1280784E+03  0.7546771E-02  0.1230335E+00
         21   -1    0    0  505  502  0.00000000000E+00  0.00000000000E+00  0.67473579269E+03  0.67473579269E+03  0.00000000000E+00 0.  1.
          2   -1    0    0  504    0 -0.00000000000E+00 -0.00000000000E+00 -0.10903845525E+03  0.10903845525E+03  0.00000000000E+00 0. -1.
         21    1    1    2  503  502  0.58791003851E+02 -0.16347876931E+02  0.37369973692E+03  0.37864908370E+03  0.00000000000E+00 0.  1.
         21    1    1    2  504  503  0.57154065928E+02 -0.29761530841E+02  0.22945745344E+03  0.23833392312E+03  0.00000000000E+00 0.  1.
         21    1    1    2  505  501 -0.77976423203E+02  0.79177072955E+02 -0.34478724336E+02  0.11635340085E+03  0.00000000000E+00 0. -1.
          2    1    1    2  501    0 -0.37968646576E+02 -0.33067665183E+02 -0.29811285798E+01  0.50437840270E+02  0.00000000000E+00 0. -1.
<scales pt_clust_3="35.08784" pt_clust_4="35.08784" pt_clust_5="122.89822" pt_clust_6="50.34966"></scales>
<clustering>
<clus scale="   35.088">  3  4 -1 -1</clus>
<clus scale="   50.350">  2  6  1 -1</clus>
<clus scale="  122.898">  2  5  1 -1</clus>
<clus scale="  128.078">  1  3  2 -1</clus>
</clustering>
</event>
<event>
 6    0  0.2572175E+002  0.9231184E+02  0.7546771E-02  0.1297348E+00
         21   -1    0    0  501  502  0.00000000000E+00  0.00000000000E+00  0.58773532612E+03  0.58773532612E+03  0.00000000000E+00 0. -1.
         -1   -1    0    0    0  501 -0.00000000000E+00 -0.00000000000E+00 -0.86942871572E+03  0.86942871572E+03  0.00000000000E+00 0. -1.
         21    1    1    2  503  504  0.28382585302E+02  0.49118156265E+02  0.30582458730E+03  0.31104154484E+03  0.00000000000E+00 0.  1.
         21    1    1    2  504  502  0.17321595192E+02 -0.25044326738E+02  0.25927315644E+03  0.26105521564E+03  0.00000000000E+00 0. -1.
         21    1    1    2  505  503  0.44941314120E+02 -0.59886570053E+02 -0.71023088138E+02  0.10320078506E+03  0.00000000000E+00 0.  1.
         -1    1    1    2    0  505 -0.90645494614E+02  0.35812740526E+02 -0.77576804520E+03  0.78186649630E+03  0.00000000000E+00 0. -1.
<scales pt_clust_3="51.47359" pt_clust_4="30.45088" pt_clust_5="14000.00000" pt_clust_6="92.31184"></scales>
<clustering>
<clus scale="   30.451">  1  4  2 -1</clus>
<clus scale="   51.474">  1  3  2 -1</clus>
<clus scale="   92.312">  2  6  1 -1</clus>
<clus scale="   30.451">  1  3  2 -1</clus>
</clustering>
</event>
<event>
 6    0  0.2572175E+002  0.1379204E+03  0.7546771E-02  0.1216155E+00
          1   -1    0    0  504    0 -0.00000000000E+00  0.00000000000E+00  0.14671443132E+03  0.14671443132E+03  0.00000000000E+00 0. -1.
         21   -1    0    0  503  502  0.00000000000E+00 -0.00000000000E+00 -0.83933084528E+03  0.83933084528E+03  0.00000000000E+00 0. -1.
         21    1    1    2  503  505 -0.36532356470E+02 -0.22407738198E+02 -0.21931304035E+03  0.22346124824E+03  0.00000000000E+00 0.  1.
         21    1    1    2  504  502  0.17139603152E+03 -0.98056949309E+01 -0.42671474038E+02  0.17689998862E+03  0.00000000000E+00 0. -1.
         21    1    1    2  505  501 -0.84906153373E+02  0.33188274431E+02 -0.49549232361E+03  0.50380865336E+03  0.00000000000E+00 0. -1.
          1    1    1    2  501    0 -0.49957521682E+02 -0.97484130192E+00  0.64860424044E+02  0.81875386383E+02  0.00000000000E+00 0. -1.
<scales pt_clust_3="38.24481" pt_clust_4="126.13786" pt_clust_5="38.24481" pt_clust_6="49.96703"></scales>
<clustering>
<clus scale="   38.245">  3  5 -1 -1</clus>
<clus scale="   49.967">  1  6  2 -1</clus>
<clus scale="  126.138">  1  4  2 -1</clus>
<clus scale="  137.920">  2  3  1 -1</clus>
</clustering>
</event>
<event>
 6    0  0.2572175E+002  0.3405614E+03  0.7546771E-02  0.1066557E+00
          2   -1    0    0  503    0 -0.00000000000E+00  0.00000000000E+00  0.95177137607E+03  0.95177137607E+03  0.00000000000E+00 0.  1.
         21   -1    0    0  504  502  0.00000000000E+00 -0.00000000000E+00 -0.54547415531E+03  0.54547415531E+03  0.00000000000E+00 0.  1.
         21    1    1    2  503  502 -0.15321309899E+03 -0.35892763665E+03  0.86929507091E+02  0.39982501329E+03  0.00000000000E+00 0.  1.
         21    1    1    2  504  505  0.15065258361E+03  0.28950790356E+03 -0.30564779006E+03  0.44713711403E+03  0.00000000000E+00 0.  1.
         21    1    1    2  505  501  0.28021435610E+02  0.39666477577E+02  0.37227741028E+02  0.61192605755E+02  0.00000000000E+00 0.  1.
          2    1    1    2  501    0 -0.25460920235E+02  0.29753255508E+02  0.58778776270E+03  0.58909079831E+03  0.00000000000E+00 0.  1.
<scales pt_clust_3="14000.00000" pt_clust_4="340.56137" pt_clust_5="50.13180" pt_clust_6="39.16012"></scales>
<clustering>
<clus scale="   39.160">  1  6  2 -1</clus>
<clus scale="   50.132">  1  5  2 -1</clus>
<clus scale="  340.561">  2  4  1 -1</clus>
<clus scale="  340.561">  2  3  1 -1</clus>
</clustering>
</event>
<event>
 6    0  0.2572175E+002  0.2238763E+03  0.7546771E-02  0.1131026E+00
         21   -1    0    0  504  502  0.00000000000E+00  0.00000000000E+00  0.16860948805E+04  0.16860948805E+04  0.00000000000E+00 0. -1.
          1   -1    0    0  503    0 -0.00000000000E+00 -0.00000000000E+00 -0.15480009177E+04  0.15480009177E+04  0.00000000000E+00 0. -1.
         21    1    1    2  503  502  0.30958806934E+02  0.35096623159E+01  0.60498994232E+02  0.68050670529E+02  0.00000000000E+00 0. -1.
         21    1    1    2  504  505 -0.29474251100E+02 -0.11327666927E+03  0.13670199614E+04  0.13720218330E+04  0.00000000000E+00 0. -1.
         21    1    1    2  505  501 -0.17288249584E+03 -0.37886571862E+02  0.21170640656E+03  0.27594084923E+03  0.00000000000E+00 0.  1.
          1    1    1    2  501    0  0.17139794001E+03  0.14765357881E+03 -0.15011313994E+04  0.15180824455E+04  0.00000000000E+00 0. -1.
<scales pt_clust_3="31.15711" pt_clust_4="110.36329" pt_clust_5="14000.00000" pt_clust_6="223.87632"></scales>
<clustering>
<clus scale="   31.157">  1  3  2 -1</clus>
<clus scale="  110.363">  1  4  2 -1</clus>
<clus scale="  223.876">  2  6  1 -1</clus>
<clus scale="   31.157">  1  3  2 -1</clus>
</clustering>
</event>
<event>
 6    0  0.2572175E+002  0.1371806E+03  0.7546771E-02  0.1217174E+00
         21   -1    0    0  505  502  0.00000000000E+00  0.00000000000E+00  0.21491858576E+04  0.21491858576E+04  0.00000000000E+00 0. -1.
         -3   -1    0    0    0  501 -0.00000000000E+00 -0.00000000000E+00 -0.14510085631E+03  0.14510085631E+03  0.00000000000E+00 0. -1.
         21    1    1    2  503  501  0.74209630353E+02 -0.46635713577E+01  0.60262045480E+03  0.60719044021E+03  0.00000000000E+00 0. -1.
         21    1    1    2  504  502  0.19661165651E+02  0.73630511735E+02  0.11031960980E+03  0.13408366791E+03  0.00000000000E+00 0. -1.
         21    1    1    2  505  503  0.43250742181E+02 -0.34542500744E+02  0.13832001274E+04  0.13843071926E+04  0.00000000000E+00 0. -1.
         -3    1    1    2    0  504 -0.13712153818E+03 -0.34424439633E+02 -0.92055190755E+02  0.16870541314E+03  0.00000000000E+00 0. -1.
<scales pt_clust_3="14000.00000" pt_clust_4="73.11307" pt_clust_5="55.35170" pt_clust_6="137.18056"></scales>
<clustering>
<clus scale="   55.352">  1  5  2 -1</clus>
<clus scale="   73.113">  1  4  2 -1</clus>
<clus scale="  137.181">  2  6  1 -1</clus>
<clus scale="   55.352">  1  3  2 -1</clus>
</clustering>
</event>
<event>
 6    0  0.2572175E+002  0.3389694E+03  0.7546771E-02  0.1067236E+00
         21   -1    0    0  505  502  0.00000000000E+00  0.00000000000E+00  0.12170889009E+03  0.12170889009E+03  0.00000000000E+00 0.  1.
         -1   -1    0    0    0  501 -0.00000000000E+00 -0.00000000000E+00 -0.14734155596E+04  0.14734155596E+04  0.00000000000E+00 0. -1.
         21    1    1    2  503  501 -0.17673221199E+03  0.55233492092E+02 -0.81248208805E+02  0.20220357276E+03  0.00000000000E+00 0.  1.
         21    1    1    2  504  502  0.14823879605E+03 -0.17915978972E+03 -0.71612655727E+03  0.75293440414E+03  0.00000000000E+00 0. -1.
         21    1    1    2  505  503 -0.51427327294E+02  0.14249402303E+03 -0.10768009072E+03  0.18586101939E+03  0.00000000000E+00 0.  1.
         -1    1    1    2    0  504  0.79920743230E+02 -0.18567725406E+02 -0.44665181273E+03  0.45412545342E+03  0.00000000000E+00 0. -1.
<scales pt_clust_3="139.38733" pt_clust_4="69.74732" pt_clust_5="139.38733" pt_clust_6="323.94438"></scales>
<clustering>
<clus scale="   69.747">  4  6 -1 -1</clus>
<clus scale="  139.387">  3  5 -1 -1</clus>
<clus scale="  323.944">  2  4  1 -1</clus>
<clus scale="  338.969">  1  3  2 -1</clus>
</clustering>
</event>
<event>
 6    0  0.2823101E+002  0.1389528E+03  0.7546771E-02  0.1214745E+00
         21   -1    0    0  504  502  0.00000000000E+00  0.00000000000E+00  0.11895290566E+04  0.11895290566E+04  0.00000000000E+00 0.  1.
          1   -1    0    0  505    0 -0.00000000000E+00 -0.00000000000E+00 -0.10677644987E+04  0.10677644987E+04  0.00000000000E+00 0. -1.
         21    1    1    2  503  501  0.66774822912E+02 -0.28914835395E+02  0.32106744062E+03  0.32921003342E+03  0.00000000000E+00 0.  1.
         21    1    1    2  504  503  0.78668039285E+01 -0.71673808760E+02  0.81497394921E+03  0.81815741723E+03  0.00000000000E+00 0.  1.
         21    1    1    2  505  502  0.50997762935E+02  0.39021338072E+02  0.19198808634E+02  0.67022614857E+02  0.00000000000E+00 0.  1.
          1    1    1    2  501    0 -0.12563938978E+03  0.61567306083E+02 -0.10334756405E+04  0.10429034898E+04  0.00000000000E+00 0. -1.
<scales pt_clust_3="14000.00000" pt_clust_4="62.27608" pt_clust_5="64.21399" pt_clust_6="138.95277"></scales>
<clustering>
<clus scale="   64.214">  1  5  2 -1</clus>
<clus scale="   62.276">  1  4  2 -1</clus>
<clus scale="  138.953">  2  6  1 -1</clus>
<clus scale="   64.214">  1  3  2 -1</clus>
</clustering>
</event>
<event>
 6    0  0.2572175E+002  0.6347879E+02  0.7546771E-02  0.1383787E+00
          1   -1    0    0  505    0 -0.00000000000E+00  0.00000000000E+00  0.89623871077E+03  0.89623871077E+03  0.00000000000E+00 0.  1.
         21   -1    0    0  504  502  0.00000000000E+00 -0.00000000000E+00 -0.48407878775E+03  0.48407878775E+03  0.00000000000E+00 0.  1.
         21    1    1    2  503  502 -0.34610717504E+02 -0.31213976035E+02 -0.88298253731E+02  0.99843856486E+02  0.00000000000E+00 0. -1.
         21    1    1    2  504  501  0.94192662734E+02  0.27246018684E+02 -0.36606655707E+03  0.37897140717E+03  0.00000000000E+00 0.  1.
         21    1    1    2  505  503 -0.10897319060E+03 -0.18592646807E+02  0.16948812479E+03  0.20235381694E+03  0.00000000000E+00 0.  1.
          1    1    1    2  501    0  0.49391245373E+02  0.22560604158E+02  0.69703660903E+03  0.69914841794E+03  0.00000000000E+00 0.  1.
<scales pt_clust_3="46.60702" pt_clust_4="63.47879" pt_clust_5="14000.00000" pt_clust_6="54.17954"></scales>
<clustering>
<clus scale="   46.607">  2  3  1 -1</clus>
<clus scale="   54.180">  1  6  2 -1</clus>
<clus scale="   63.479">  2  4  1 -1</clus>
<clus scale="   46.607">  2  3  1 -1</clus>
</clustering>
</event>
<event>
 6    0  0.2572175E+002  0.6746448E+02  0.7546771E-02  0.1368934E+00
          1   -1    0    0  504    0 -0.00000000000E+00  0.00000000000E+00  0.56249701357E+03  0.56249701357E+03  0.00000000000E+00 0.  1.
         21   -1    0    0  505  502  0.00000000000E+00 -0.00000000000E+00 -0.13198921357E+04  0.13198921357E+04  0.00000000000E+00 0. -1.
         21    1    1    2  503  502  0.61736513137E+02 -0.20463894023E+01 -0.96983364983E+02  0.11498416346E+03  0.00000000000E+00 0. -1.
         21    1    1    2  504  503 -0.35658841230E+01 -0.60403058398E+02  0.17754412132E+02  0.63059211409E+02  0.00000000000E+00 0. -1.
         21    1    1    2  505  501 -0.12389428358E+03 -0.19196302544E+02 -0.11825548289E+04  0.11891821622E+04  0.00000000000E+00 0. -1.
          1    1    1    2  501    0  0.65723654561E+02  0.81645750344E+02  0.50438865965E+03  0.51516361217E+03  0.00000000000E+00 0.  1.
<scales pt_clust_3="61.75228" pt_clust_4="60.50822" pt_clust_5="14000.00000" pt_clust_6="67.46448"></scales>
<clustering>
<clus scale="   60.508">  1  4  2 -1</clus>
<clus scale="   61.752">  2  3  1 -1</clus>
<clus scale="   67.464">  1  6  2 -1</clus>
<clus scale="   61.752">  2  3  1 -1</clus>
</clustering>
</event>
<event>
 6    0  0.2572175E+002  0.4093002E+03  0.7546771E-02  0.1040606E+00
          2   -1    0    0  503    0 -0.00000000000E+00  0.00000000000E+00  0.91791171781E+03  0.91791171781E+03  0.00000000000E+00 0. -1.
         21   -1    0    0  505  502  0.00000000000E+00 -0.00000000000E+00 -0.45689198024E+03  0.45689198024E+03  0.00000000000E+00 0. -1.
         21    1    1    2  503  504  0.10414718040E+03 -0.48093878791E+02 -0.14055645846E+03  0.18142704974E+03  0.00000000000E+00 0. -1.
         21    1    1    2  504  502  0.24859972502E+03 -0.56095993879E+02 -0.17938874269E+03  0.31165510554E+03  0.00000000000E+00 0. -1.
         21    1    1    2  505  501 -0.56137653205E+02  0.95443182558E+02  0.17669229762E+03  0.20852099472E+03  0.00000000000E+00 0. -1.
          2    1    1    2  501    0 -0.29660925221E+03  0.87466901127E+01  0.60427264111E+03  0.67320054804E+03  0.00000000000E+00 0. -1.
<scales pt_clust_3="49.66222" pt_clust_4="375.18673" pt_clust_5="109.68463" pt_clust_6="109.68463"></scales>
<clustering>
<clus scale="   49.662">  3  4 -1 -1</clus>
<clus scale="  109.685">  5  6 -1 -1</clus>
<clus scale="  375.187">  2  3  1 -1</clus>
<clus scale="  375.187">  2  3  1 -1</clus>
</clustering>
</event>
<event>
 6    0  0.2572175E+002  0.1562460E+03  0.7546771E-02  0.1193001E+00
          1   -1    0    0  503    0 -0.00000000000E+00  0.00000000000E+00  0.21658688818E+04  0.21658688818E+04  0.00000000000E+00 0. -1.
         21   -1    0    0  505  502  0.00000000000E+00 -0.00000000000E+00 -0.30202959650E+03  0.30202959650E+03  0.00000000000E+00 0.  1.
         21    1    1    2  503  504  0.22895787127E+03  0.14874961511E+03  0.52104126145E+03  0.58824497529E+03  0.00000000000E+00 0.  1.
         21    1    1    2  504  502 -0.10221229237E+03 -0.30184900116E+02 -0.23718158961E+03  0.26002612822E+03  0.00000000000E+00 0.  1.
         21    1    1    2  505  501 -0.31078239360E+02 -0.89287430775E+01 -0.62293474512E+00  0.32341420228E+02  0.00000000000E+00 0. -1.
          1    1    1    2  501    0 -0.95667339549E+02 -0.10963597192E+03  0.15806025482E+04  0.15872859546E+04  0.00000000000E+00 0. -1.
<scales pt_clust_3="14000.00000" pt_clust_4="134.72749" pt_clust_5="32.33542" pt_clust_6="156.24601"></scales>
<clustering>
<clus scale="   32.335">  2  5  1 -1</clus>
<clus scale="  134.727">  2  4  1 -1</clus>
<clus scale="  156.246">  1  6  2 -1</clus>
<clus scale="   32.335">  2  3  1 -1</clus>
</clustering>
</event>
<event>
 6    0  0.4146075E+002  0.1263787E+03  0.7546771E-02  0.1232930E+00
          2   -1    0    0  505    0 -0.00000000000E+00  0.00000000000E+00  0.18873790976E+04  0.18873790976E+04  0.00000000000E+00 0.  1.
         21   -1    0    0  504  502  0.00000000000E+00 -0.00000000000E+00 -0.11042775216E+03  0.11042775216E+03  0.00000000000E+00 0.  1.
         21    1    1    2  503  502 -0.26551520929E+02 -0.58237509669E+02 -0.61771686245E+02  0.88951290141E+02  0.00000000000E+00 0.  1.
         21    1    1    2  504  501 -0.39166320040E+02  0.17318880828E+02  0.31415385674E+02  0.53111869819E+02  0.00000000000E+00 0. -1.
         21    1    1    2  505  503 -0.23478338204E+02 -0.36580740400E+02 -0.10988989017E+01  0.43480921239E+02  0.00000000000E+00 0.  1.
          2    1    1    2  501    0  0.89196179173E+02  0.77499369241E+02  0.18084065449E+04  0.18122627686E+04  0.00000000000E+00 0.  1.
<scales pt_clust_3="37.69336" pt_clust_4="42.82458" pt_clust_5="37.69336" pt_clust_6="117.81125"></scales>
<clustering>
<clus scale="   37.693">  3  5 -1 -1</clus>
<clus scale="   42.825">  2  4  1 -1</clus>
<clus scale="  117.811">  1  6  2 -1</clus>
<clus scale="   42.825">  2  3  1 -1</clus>
</clustering>
</event>
<event>
 6    0  0.2572175E+002  0.7722677E+02  0.7546771E-02  0.1337111E+00
         21   -1    0    0  505  502  0.00000000000E+00  0.00000000000E+00  0.76792885160E+02  0.76792885160E+02  0.00000000000E+00 0.  1.
          2   -1    0    0  503    0 -0.00000000000E+00 -0.00000000000E+00 -0.12521596574E+04  0.12521596574E+04  0.00000000000E+00 0.  1.
         21    1    1    2  503  502 -0.53921282906E+02 -0.14450342459E+02  0.25572239885E+02  0.61402415263E+02  0.00000000000E+00 0.  1.
         21    1    1    2  504  501 -0.75307909005E+01 -0.83434481243E+02 -0.78212014117E+03  0.78659388550E+03  0.00000000000E+00 0.  1.
         21    1    1    2  505  504  0.98755176940E+02  0.71404480657E+02 -0.96604943557E+02  0.15551109269E+03  0.00000000000E+00 0. -1.
          2    1    1    2  501    0 -0.37303103134E+02  0.26480343045E+02 -0.32221392735E+03  0.32544514906E+03  0.00000000000E+00 0.  1.
<scales pt_clust_3="56.39115" pt_clust_4="77.22677" pt_clust_5="14000.00000" pt_clust_6="45.74637"></scales>
<clustering>
<clus scale="   45.746">  2  6  1 -1</clus>
<clus scale="   56.391">  1  3  2 -1</clus>
<clus scale="   77.227">  2  4  1 -1</clus>
<clus scale="   56.391">  1  3  2 -1</clus>
</clustering>
</event>
<event>
 6    0  0.2572175E+002  0.1221010E+03  0.7546771E-02  0.1239671E+00
         -2   -1    0    0    0  501 -0.00000000000E+00  0.00000000000E+00  0.15230855334E+03  0.15230855334E+03  0.00000000000E+00 0. -1.
         21   -1    0    0  503  502  0.00000000000E+00 -0.00000000000E+00 -0.12596587042E+04  0.12596587042E+04  0.00000000000E+00 0.  1.
         21    1    1    2  503  501 -0.10446146281E+02  0.57667055525E+02 -0.19708886925E+03  0.20561768807E+03  0.00000000000E+00 0.  1.
         21    1    1    2  504  502 -0.20105744755E+02  0.66168057265E+02 -0.72700263378E+03  0.73028438454E+03  0.00000000000E+00 0.  1.
         21    1    1    2  505  504  0.76873976175E+01 -0.17355021259E+03 -0.30026377719E+03  0.34689639414E+03  0.00000000000E+00 0.  1.
         -2    1    1    2    0  505  0.22864493418E+02  0.49715099800E+02  0.11700512939E+03  0.12916879077E+03  0.00000000000E+00 0. -1.
<scales pt_clust_3="65.31026" pt_clust_4="14000.00000" pt_clust_5="122.10098" pt_clust_6="54.72089"></scales>
<clustering>
<clus scale="   54.721">  1  6  2 -1</clus>
<clus scale="   65.310">  2  3  1 -1</clus>
<clus scale="  122.101">  1  5  2 -1</clus>
<clus scale="   65.310">  2  3  1 -1</clus>
</clustering>
</event>
<event>
 6    0  0.2572175E+002  0.1969330E+03  0.7546771E-02  0.1152353E+00
          2   -1    0    0  504    0 -0.00000000000E+00  0.00000000000E+00  0.15623906325E+04  0.15623906325E+04  0.00000000000E+00 0.  1.
         21   -1    0    0  505  502  0.00000000000E+00 -0.00000000000E+00 -0.17698142677E+03  0.17698142677E+03  0.00000000000E+00 0. -1.
         21    1    1    2  503  502 -0.54226711447E+02 -0.93995409059E+02 -0.82745556296E+02  0.13646428194E+03  0.00000000000E+00 0. -1.
         21    1    1    2  504  503 -0.38873382209E+01  0.82432775376E+02  0.29601980971E+03  0.30730766602E+03  0.00000000000E+00 0.  1.
         21    1    1    2  505  501 -0.10751592221E+03 -0.61577104485E+02  0.15485230840E+02  0.12486474963E+03  0.00000000000E+00 0. -1.
          2    1    1    2  501    0  0.16562997188E+03  0.73139738168E+02  0.11566497215E+04  0.11707353617E+04  0.00000000000E+00 0.  1.
<scales pt_clust_3="107.04016" pt_clust_4="82.52438" pt_clust_5="196.93297" pt_clust_6="14000.00000"></scales>
<clustering>
<clus scale="   82.524">  1  4  2 -1</clus>
<clus scale="  107.040">  2  3  1 -1</clus>
<clus scale="  196.933">  2  5  1 -1</clus>
<clus scale="  107.040">  2  3  1 -1</clus>
</clustering>
</event>
<event>
 6    0  0.2572175E+002  0.1092595E+03  0.7546771E-02  0.1261947E+00
          3   -1    0    0  505    0 -0.00000000000E+00  0.00000000000E+00  0.33196400220E+03  0.33196400220E+03  0.00000000000E+00 0.  1.
         21   -1    0    0  504  502  0.00000000000E+00 -0.00000000000E+00 -0.88619935048E+03  0.88619935048E+03  0.00000000000E+00 0. -1.
         21    1    1    2  503  502  0.14484533582E+02  0.87203038091E+02 -0.77692839656E+03  0.78194111347E+03  0.00000000000E+00 0. -1.
         21    1    1    2  504  501  0.37027837130E+02 -0.41519483263E+02 -0.53060384010E+02  0.76878687321E+02  0.00000000000E+00 0.  1.
         21    1    1    2  505  503 -0.12842927598E+03  0.79820712690E+01  0.20426423031E+03  0.24141596503E+03  0.00000000000E+00 0.  1.
          3    1    1    2  501    0  0.76916905268E+02 -0.53665626097E+02  0.71489201975E+02  0.11792758685E+03  0.00000000000E+00 0.  1.
<scales pt_clust_3="68.90171" pt_clust_4="55.63208" pt_clust_5="14000.00000" pt_clust_6="109.25954"></scales>
<clustering>
<clus scale="   55.632">  2  4  1 -1</clus>
<clus scale="   68.902">  2  3  1 -1</clus>
<clus scale="  109.260">  2  6  1 -1</clus>
<clus scale="   55.632">  2  3  1 -1</clus>
</clustering>
</event>
<event>
 6    0  0.2572175E+002  0.9435204E+02  0.7546771E-02  0.1292642E+00
         21   -1    0    0  505  502  0.00000000000E+00  0.00000000000E+00  0.15057109073E+03  0.15057109073E+03  0.00000000000E+00 0. -1.
          1   -1    0    0  504    0 -0.00000000000E+00 -0.00000000000E+00 -0.23699362195E+04  0.23699362195E+04  0.00000000000E+00 0.  1.
         21    1    1    2  503  502 -0.39132281106E+02 -0.20269909478E+02  0.99680871416E+02  0.10898844334E+03  0.00000000000E+00 0. -1.
         21    1    1    2  504  503 -0.35569078283E+02  0.19378829562E+01  0.33358132000E+02  0.48802455786E+02  0.00000000000E+00 0. -1.
         21    1    1    2  505  501  0.64727961590E+02  0.10646925883E+03 -0.10658807685E+04  0.10731389587E+04  0.00000000000E+00 0.  1.
          1    1    1    2  501    0  0.99733977987E+01 -0.88137232308E+02 -0.12865233637E+04  0.12895774524E+04  0.00000000000E+00 0.  1.
<scales pt_clust_3="84.84451" pt_clust_4="32.19350" pt_clust_5="14000.00000" pt_clust_6="94.35204"></scales>
<clustering>
<clus scale="   32.194">  3  4 -1 -1</clus>
<clus scale="   84.845">  1  3  2 -1</clus>
<clus scale="   94.352">  2  6  1 -1</clus>
<clus scale="   84.845">  1  3  2 -1</clus>
</clustering>
</event>
<event>
 6    0  0.2572175E+002  0.8193694E+02  0.7546771E-02  0.1323643E+00
         21   -1    0    0  503  502  0.00000000000E+00  0.00000000000E+00  0.14418660496E+03  0.14418660496E+03  0.00000000000E+00 0. -1.
          1   -1    0    0  504    0 -0.00000000000E+00 -0.00000000000E+00 -0.16207186231E+04  0.16207186231E+04  0.00000000000E+00 0.  1.
         21    1    1    2  503  505  0.37837182825E+02  0.32585229110E+02 -0.95971759968E+01  0.50848356388E+02  0.00000000000E+00 0. -1.
         21    1    1    2  504  502 -0.41894894970E+01 -0.49711588726E+02 -0.34143614270E+02  0.60453124578E+02  0.00000000000E+00 0. -1.
         21    1    1    2  505  501 -0.10809825635E+03 -0.16521366400E+02  0.81954969289E+02  0.13665579228E+03  0.00000000000E+00 0. -1.
          1    1    1    2  501    0  0.74450563022E+02  0.33647726015E+02 -0.15147461971E+04  0.15169479548E+04  0.00000000000E+00 0.  1.
<scales pt_clust_3="44.66821" pt_clust_4="49.88781" pt_clust_5="81.93694" pt_clust_6="14000.00000"></scales>
<clustering>
<clus scale="   49.888">  1  4  2 -1</clus>
<clus scale="   44.668">  1  3  2 -1</clus>
<clus scale="   81.937">  1  5  2 -1</clus>
<clus scale="   49.888">  1  3  2 -1</clus>
</clustering>
</event>
<event>
 6    0  0.2572175E+002  0.5923098E+02  0.7546771E-02  0.1401088E+00
         21   -1    0    0  505  502  0.00000000000E+00  0.00000000000E+00  0.34182721552E+03  0.34182721552E+03  0.00000000000E+00 0. -1.
          1   -1    0    0  503    0 -0.00000000000E+00 -0.00000000000E+00 -0.63984218291E+03  0.63984218291E+03  0.00000000000E+00 0. -1.
         21    1    1    2  503  504 -0.25391407477E+02 -0.29297623569E+02 -0.14294547629E+02  0.41320798787E+02  0.00000000000E+00 0. -1.
         21    1    1    2  504  502 -0.20679422187E+02 -0.28476713531E+02  0.22659041596E+03  0.22930717024E+03  0.00000000000E+00 0. -1.
         21    1    1    2  505  501  0.32702295860E+02  0.11477291653E+03  0.62863112837E+02  0.13488526042E+03  0.00000000000E+00 0. -1.
          1    1    1    2  501    0  0.13368533804E+02 -0.56998579427E+02 -0.57317394857E+03  0.57615616899E+03  0.00000000000E+00 0. -1.
<scales pt_clust_3="42.93169" pt_clust_4="35.19321" pt_clust_5="14000.00000" pt_clust_6="59.23098"></scales>
<clustering>
<clus scale="   35.193">  1  4  2 -1</clus>
<clus scale="   42.932">  1  3  2 -1</clus>
<clus scale="   59.231">  2  6  1 -1</clus>
<clus scale="   35.193">  1  3  2 -1</clus>
</clustering>
</event>
<event>
 6    0  0.2572175E+002  0.1267546E+03  0.7546771E-02  0.1232352E+00
         21   -1    0    0  503  502  0.00000000000E+00  0.00000000000E+00  0.12132732574E+03  0.12132732574E+03  0.00000000000E+00 0.  1.
          2   -1    0    0  505    0 -0.00000000000E+00 -0.00000000000E+00 -0.18097359728E+04  0.18097359728E+04  0.00000000000E+00 0.  1.
         21    1    1    2  503  501  0.30677136535E+02 -0.29524508244E+02 -0.58384163617E+02  0.72259904887E+02  0.00000000000E+00 0. -1.
         21    1    1    2  504  502 -0.11819647360E+03 -0.16605924085E+02 -0.11670596627E+02  0.11992650213E+03  0.00000000000E+00 0.  1.
         21    1    1    2  505  504  0.12059825651E+03  0.83682255078E+02 -0.30109198919E+02  0.14984399603E+03  0.00000000000E+00 0.  1.
          2    1    1    2  501    0 -0.33078919441E+02 -0.37551822748E+02 -0.15882446879E+04  0.15890328955E+04  0.00000000000E+00 0.  1.
<scales pt_clust_3="42.57679" pt_clust_4="14000.00000" pt_clust_5="126.75457" pt_clust_6="50.05021"></scales>
<clustering>
<clus scale="   42.577">  1  3  2 -1</clus>
<clus scale="   50.050">  2  6  1 -1</clus>
<clus scale="  126.755">  2  5  1 -1</clus>
<clus scale="   42.577">  1  3  2 -1</clus>
</clustering>
</event>
<event>
 6    0  0.2572175E+002  0.1208324E+03  0.7546771E-02  0.1241730E+00
          2   -1    0    0  505    0 -0.00000000000E+00  0.00000000000E+00  0.24702328413E+04  0.24702328413E+04  0.00000000000E+00 0.  1.
         21   -1    0    0  504  502  0.00000000000E+00 -0.00000000000E+00 -0.46306394296E+02  0.46306394296E+02  0.00000000000E+00 0. -1.
         21    1    1    2  503  501 -0.25149478822E+02  0.15052206547E+03  0.17073657858E+04  0.17141724869E+04  0.00000000000E+00 0.  1.
         21    1    1    2  504  503  0.71229449946E+02 -0.51556641481E+02  0.15796651033E+02  0.89337875530E+02  0.00000000000E+00 0. -1.
         21    1    1    2  505  502 -0.12664182409E+02 -0.56017908194E+02  0.16908539611E+03  0.17857283873E+03  0.00000000000E+00 0.  1.
          2    1    1    2  501    0 -0.33415788715E+02 -0.42947515793E+02  0.53167861408E+03  0.53445603441E+03  0.00000000000E+00 0.  1.
<scales pt_clust_3="120.83243" pt_clust_4="14000.00000" pt_clust_5="61.88656" pt_clust_6="54.41603"></scales>
<clustering>
<clus scale="   54.416">  1  6  2 -1</clus>
<clus scale="   61.887">  2  5  1 -1</clus>
<clus scale="  120.832">  1  3  2 -1</clus>
<clus scale="   61.887">  2  3  1 -1</clus>
</clustering>
</event>
<event>
 6    0  0.2572175E+002  0.1223450E+03  0.7546771E-02  0.1239278E+00
          2   -1    0    0  502    0 -0.00000000000E+00  0.00000000000E+00  0.78318293411E+03  0.78318293411E+03  0.00000000000E+00 0. -1.
         21   -1    0    0  503  502  0.00000000000E+00 -0.00000000000E+00 -0.12787857406E+03  0.12787857406E+03  0.00000000000E+00 0. -1.
         21    1    1    2  503  505  0.36915411097E+02  0.27484472497E+01 -0.15335909972E+02  0.40068587115E+02  0.00000000000E+00 0. -1.
         21    1    1    2  504  501  0.38597093841E+02  0.64036051521E+02  0.14074180077E+02  0.76081759261E+02  0.00000000000E+00 0. -1.
         21    1    1    2  505  504 -0.29840596059E+02  0.57071059927E+02 -0.46579760798E+02  0.79481074291E+02  0.00000000000E+00 0. -1.
          2    1    1    2  501    0 -0.45671908879E+02 -0.12385555870E+03  0.70314585074E+03  0.71543008750E+03  0.00000000000E+00 0. -1.
<scales pt_clust_3="37.01758" pt_clust_4="122.34502" pt_clust_5="59.17113" pt_clust_6="14000.00000"></scales>
<clustering>
<clus scale="   37.018">  2  3  1 -1</clus>
<clus scale="   59.171">  2  5  1 -1</clus>
<clus scale="  122.345">  2  4  1 -1</clus>
<clus scale="   37.018">  2  3  1 -1</clus>
</clustering>
</event>
<event>
 6    0  0.2572175E+002  0.9929783E+02  0.7546771E-02  0.1281779E+00
         21   -1    0    0  505  502  0.00000000000E+00  0.00000000000E+00  0.39200172369E+03  0.39200172369E+03  0.00000000000E+00 0.  1.
          1   -1    0    0  504    0 -0.00000000000E+00 -0.00000000000E+00 -0.13841151772E+04  0.13841151772E+04  0.00000000000E+00 0. -1.
         21    1    1    2  503  501 -0.13443445653E+03 -0.15743114337E+02 -0.19995859273E+02  0.13682215881E+03  0.00000000000E+00 0. -1.
         21    1    1    2  504  502  0.98643868515E+02  0.16760894073E+02  0.28620128822E+03  0.30318759497E+03  0.00000000000E+00 0.  1.
         21    1    1    2  505  503 -0.74116110721E+01 -0.33237597935E+02  0.30767574099E+02  0.45894591306E+02  0.00000000000E+00 0. -1.
          1    1    1    2  501    0  0.43202199090E+02  0.32219818200E+02 -0.12890864566E+04  0.12902125558E+04  0.00000000000E+00 0. -1.
<scales pt_clust_3="14000.00000" pt_clust_4="99.29783" pt_clust_5="34.05393" pt_clust_6="53.85276"></scales>
<clustering>
<clus scale="   34.054">  1  5  2 -1</clus>
<clus scale="   53.853">  2  6  1 -1</clus>
<clus scale="   99.298">  1  4  2 -1</clus>
<clus scale="   34.054">  1  3  2 -1</clus>
</clustering>
</event>
<event>
 6    0  0.2572175E+002  0.2192757E+03  0.7546771E-02  0.1134424E+00
         21   -1    0    0  504  502  0.00000000000E+00  0.00000000000E+00  0.40849226769E+03  0.40849226769E+03  0.00000000000E+00 0.  1.
          2   -1    0    0  505    0 -0.00000000000E+00 -0.00000000000E+00 -0.10519819451E+04  0.10519819451E+04  0.00000000000E+00 0.  1.
         21    1    1    2  503  502 -0.24340718630E+02 -0.56577015313E+02  0.54167557499E+02  0.82021665007E+02  0.00000000000E+00 0.  1.
         21    1    1    2  504  501  0.27401198431E+02 -0.36784552210E+02  0.25759274864E+02  0.52606740996E+02  0.00000000000E+00 0.  1.
         21    1    1    2  505  503 -0.21940908868E+03  0.12448547921E+03  0.23382669211E+03  0.34396497594E+03  0.00000000000E+00 0.  1.
          2    1    1    2  501    0  0.21634860887E+03 -0.31123911688E+02 -0.95724320190E+03  0.98188083087E+03  0.00000000000E+00 0.  1.
<scales pt_clust_3="66.23040" pt_clust_4="45.86861" pt_clust_5="219.27573" pt_clust_6="14000.00000"></scales>
<clustering>
<clus scale="   45.869">  1  4  2 -1</clus>
<clus scale="   66.230">  1  3  2 -1</clus>
<clus scale="  219.276">  1  5  2 -1</clus>
<clus scale="   45.869">  1  3  2 -1</clus>
</clustering>
</event>
<event>
 6    0  0.2572175E+002  0.6428358E+02  0.7546771E-02  0.1380687E+00
          2   -1    0    0  503    0 -0.00000000000E+00  0.00000000000E+00  0.23209564212E+04  0.23209564212E+04  0.00000000000E+00 0.  1.
         21   -1    0    0  504  502  0.00000000000E+00 -0.00000000000E+00 -0.63122195673E+02  0.63122195673E+02  0.00000000000E+00 0. -1.
         21    1    1    2  503  505  0.84800676569E+01 -0.51219917483E+02  0.32986386616E+03  0.33392448501E+03  0.00000000000E+00 0.  1.
         21    1    1    2  504  501 -0.46245363517E+02  0.19681704961E+02 -0.24846183676E+02  0.56065461741E+02  0.00000000000E+00 0. -1.
         21    1    1    2  505  502  0.86569324942E+02 -0.19702119664E+02  0.78718231765E+02  0.11865488423E+03  0.00000000000E+00 0. -1.
          2    1    1    2  501    0 -0.48804029082E+02  0.51240332186E+02  0.18740983112E+04  0.18754337858E+04  0.00000000000E+00 0.  1.
<scales pt_clust_3="14000.00000" pt_clust_4="50.25936" pt_clust_5="45.88958" pt_clust_6="64.28358"></scales>
<clustering>
<clus scale="   50.259">  2  4  1 -1</clus>
<clus scale="   45.890">  2  5  1 -1</clus>
<clus scale="   64.284">  1  6  2 -1</clus>
<clus scale="   50.259">  2  3  1 -1</clus>
</clustering>
</event>
<event>
 6    0  0.2572175E+002  0.1751552E+03  0.7546771E-02  0.1172576E+00
          3   -1    0    0  505    0 -0.00000000000E+00  0.00000000000E+00  0.34487294239E+03  0.34487294239E+03  0.00000000000E+00 0. -1.
         21   -1    0    0  504  502  0.00000000000E+00 -0.00000000000E+00 -0.25245904218E+03  0.25245904218E+03  0.00000000000E+00 0.  1.
         21    1    1    2  503  501 -0.10923042112E+03 -0.67868691291E+00 -0.53370793922E+02  0.12157379306E+03  0.00000000000E+00 0.  1.
         21    1    1    2  504  503 -0.49228892086E+02 -0.72064106531E+01 -0.90101693801E+02  0.10292585388E+03  0.00000000000E+00 0. -1.
         21    1    1    2  505  502  0.11656927669E+02  0.81567273492E+02 -0.35481573178E+01  0.82472380153E+02  0.00000000000E+00 0.  1.
          3    1    1    2  501    0  0.14680238554E+03 -0.73682175926E+02  0.23943454525E+03  0.29035995748E+03  0.00000000000E+00 0. -1.
<scales pt_clust_3="45.99302" pt_clust_4="45.99302" pt_clust_5="82.39602" pt_clust_6="161.35406"></scales>
<clustering>
<clus scale="   45.993">  3  4 -1 -1</clus>
<clus scale="   82.396">  2  5  1 -1</clus>
<clus scale="  161.354">  1  6  2 -1</clus>
<clus scale="   82.396">  2  3  1 -1</clus>
</clustering>
</event>
<event>
 6    0  0.2572175E+002  0.1440656E+03  0.7546771E-02  0.1207961E+00
         21   -1    0    0  505  502  0.00000000000E+00  0.00000000000E+00  0.16058834722E+03  0.16058834722E+03  0.00000000000E+00 0. -1.
          2   -1    0    0  504    0 -0.00000000000E+00 -0.00000000000E+00 -0.97995393306E+03  0.97995393306E+03  0.00000000000E+00 0. -1.
         21    1    1    2  503  502  0.90600528917E+02 -0.39250455071E+02  0.68980826971E+02  0.12044670420E+03  0.00000000000E+00 0. -1.
         21    1    1    2  504  503  0.12097099393E+02 -0.38669763812E+02  0.24491924537E+02  0.47344955534E+02  0.00000000000E+00 0. -1.
         21    1    1    2  505  501 -0.12175321080E+03  0.11520972718E+03 -0.21013560478E+03  0.26880122391E+03  0.00000000000E+00 0. -1.
          2    1    1    2  501    0  0.19055582493E+02 -0.37289508302E+02 -0.70270273258E+03  0.70394939664E+03  0.00000000000E+00 0. -1.
<scales pt_clust_3="33.88805" pt_clust_4="33.88805" pt_clust_5="134.00144" pt_clust_6="41.87628"></scales>
<clustering>
<clus scale="   33.888">  3  4 -1 -1</clus>
<clus scale="   41.876">  2  6  1 -1</clus>
<clus scale="  134.001">  2  5  1 -1</clus>
<clus scale="  144.066">  1  3  2 -1</clus>
</clustering>
</event>
<event>
 6    0  0.2572175E+002  0.1385141E+03  0.7546771E-02  0.1215343E+00
          1   -1    0    0  505    0 -0.00000000000E+00  0.00000000000E+00  0.10355858719E+04  0.10355858719E+04  0.00000000000E+00 0.  1.
         21   -1    0    0  504  502  0.00000000000E+00 -0.00000000000E+00 -0.97458657518E+02  0.97458657518E+02  0.00000000000E+00 0. -1.
         21    1    1    2  503  502 -0.14275771738E+02  0.30034835421E+02 -0.53971210538E+02  0.63393852733E+02  0.00000000000E+00 0. -1.
         21    1    1    2  504  501 -0.37046078233E+02  0.25852063293E+02  0.15438162709E+02  0.47739689534E+02  0.00000000000E+00 0.  1.
         21    1    1    2  505  503 -0.10491860995E+03 -0.31809381872E+02  0.18859530641E+03  0.21814660458E+03  0.00000000000E+00 0.  1.
          1    1    1    2  501    0  0.15624045992E+03 -0.24077516843E+02  0.78806495578E+03  0.80376438255E+03  0.00000000000E+00 0.  1.
<scales pt_clust_3="33.25491" pt_clust_4="57.61912" pt_clust_5="138.51405" pt_clust_6="14000.00000"></scales>
<clustering>
<clus scale="   33.255">  2  3  1 -1</clus>
<clus scale="   57.619">  2  4  1 -1</clus>
<clus scale="  138.514">  2  5  1 -1</clus>
<clus scale="   33.255">  2  3  1 -1</clus>
</clustering>
</event>
<event>
 6    0  0.2572175E+002  0.1035313E+03  0.7546771E-02  0.1273041E+00
         21   -1    0    0  503  502  0.00000000000E+00  0.00000000000E+00  0.30171941026E+03  0.30171941026E+03  0.00000000000E+00 0.  1.
          2   -1    0    0  505    0 -0.00000000000E+00 -0.00000000000E+00 -0.82675224925E+03  0.82675224925E+03  0.00000000000E+00 0.  1.
         21    1    1    2  503  504  0.38558570920E+02  0.38344246232E+02  0.27775609002E+03  0.28302913305E+03  0.00000000000E+00 0.  1.
         21    1    1    2  504  501 -0.12059981872E+03 -0.39509194038E+02 -0.40100867047E+03  0.42061056392E+03  0.00000000000E+00 0.  1.
         21    1    1    2  505  502 -0.17117662951E+01 -0.30595199709E+02 -0.31792962205E+02  0.44156413292E+02  0.00000000000E+00 0. -1.
          2    1    1    2  501    0  0.83753014093E+02  0.31760147515E+02 -0.36998729634E+03  0.38067554925E+03  0.00000000000E+00 0.  1.
<scales pt_clust_3="54.30259" pt_clust_4="14000.00000" pt_clust_5="30.64305" pt_clust_6="103.53129"></scales>
<clustering>
<clus scale="   30.643">  2  5  1 -1</clus>
<clus scale="   54.303">  1  3  2 -1</clus>
<clus scale="  103.531">  2  6  1 -1</clus>
<clus scale="   54.303">  1  3  2 -1</clus>
</clustering>
</event>
<event>
 6    0  0.2572175E+002  0.1785382E+03  0.7546771E-02  0.1169225E+00
          1   -1    0    0  504    0 -0.00000000000E+00  0.00000000000E+00  0.29538095757E+04  0.29538095757E+04  0.00000000000E+00 0. -1.
         21   -1    0    0  503  502  0.00000000000E+00 -0.00000000000E+00 -0.96420827626E+03  0.96420827626E+03  0.00000000000E+00 0.  1.
         21    1    1    2  503  501 -0.11409917548E+03 -0.11307734684E+03 -0.30387425220E+03  0.34372179064E+03  0.00000000000E+00 0.  1.
         21    1    1    2  504  505 -0.51818175810E+02  0.62985773702E+01  0.32362892548E+02  0.61417849484E+02  0.00000000000E+00 0.  1.
         21    1    1    2  505  502  0.13458180263E+03  0.13657042483E+03 -0.61103148796E+03  0.64040863659E+03  0.00000000000E+00 0.  1.
          1    1    1    2  501    0  0.31335548656E+02 -0.29791655363E+02  0.28721441471E+04  0.28724695753E+04  0.00000000000E+00 0. -1.
<scales pt_clust_3="14000.00000" pt_clust_4="35.48668" pt_clust_5="178.53816" pt_clust_6="43.23724"></scales>
<clustering>
<clus scale="   43.237">  1  6  2 -1</clus>
<clus scale="   35.487">  1  4  2 -1</clus>
<clus scale="  178.538">  2  5  1 -1</clus>
<clus scale="  178.538">  2  3  1 -1</clus>
</clustering>
</event>
<event>
 6    0  0.2572175E+002  0.1359738E+03  0.7546771E-02  0.1218852E+00
         21   -1    0    0  501  502  0.00000000000E+00  0.00000000000E+00  0.15170887400E+03  0.15170887400E+03  0.00000000000E+00 0.  1.
          2   -1    0    0  505    0 -0.00000000000E+00 -0.00000000000E+00 -0.30230110170E+03  0.30230110170E+03  0.00000000000E+00 0. -1.
         21    1    1    2  503  502 -0.13461545946E+03 -0.37176602084E+02 -0.44689653607E+02  0.14663078397E+03  0.00000000000E+00 0.  1.
         21    1    1    2  504  503  0.35551739032E+02 -0.18799794926E+02  0.62201699652E+01  0.40694581357E+02  0.00000000000E+00 0. -1.
         21    1    1    2  505  504  0.64322491767E+02 -0.75233940911E+02 -0.79833891928E+02  0.12716516470E+03  0.00000000000E+00 0.  1.
          2    1    1    2  501    0  0.34741228666E+02  0.13121033792E+03 -0.32288852130E+02  0.13951944566E+03  0.00000000000E+00 0. -1.
<scales pt_clust_3="120.61577" pt_clust_4="40.01378" pt_clust_5="40.01378" pt_clust_6="135.73174"></scales>
<clustering>
<clus scale="   40.014">  4  5 -1 -1</clus>
<clus scale="  135.732">  1  6  2 -1</clus>
<clus scale="  120.616">  1  3  2 -1</clus>
<clus scale="  135.732">  1  3  2 -1</clus>
</clustering>
</event>
<event>
 6    0  0.2572175E+002  0.5398707E+02  0.7546771E-02  0.1424951E+00
          1   -1    0    0  504    0 -0.00000000000E+00  0.00000000000E+00  0.33557788962E+03  0.33557788962E+03  0.00000000000E+00 0.  1.
         21   -1    0    0  503  502  0.00000000000E+00 -0.00000000000E+00 -0.92510290281E+03  0.92510290281E+03  0.00000000000E+00 0. -1.
         21    1    1    2  503  501  0.41197113821E+02  0.35989594731E+02 -0.13058472530E+03  0.14157974289E+03  0.00000000000E+00 0. -1.
         21    1    1    2  504  505 -0.32143230233E+01 -0.11460616702E+03 -0.43659530989E+03  0.45139823882E+03  0.00000000000E+00 0. -1.
         21    1    1    2  505  502 -0.40042476990E+02  0.24975587603E+02 -0.34115569028E+03  0.34440439160E+03  0.00000000000E+00 0. -1.
          1    1    1    2  501    0  0.20596861921E+01  0.53640984690E+02  0.31881071228E+03  0.32329841913E+03  0.00000000000E+00 0.  1.
<scales pt_clust_3="52.56601" pt_clust_4="14000.00000" pt_clust_5="47.19301" pt_clust_6="53.98707"></scales>
<clustering>
<clus scale="   47.193">  2  5  1 -1</clus>
<clus scale="   52.566">  2  3  1 -1</clus>
<clus scale="   53.987">  1  6  2 -1</clus>
<clus scale="   47.193">  2  3  1 -1</clus>
</clustering>
</event>
<event>
 6    0  0.2572175E+002  0.1141851E+03  0.7546771E-02  0.1253010E+00
          2   -1    0    0  505    0 -0.00000000000E+00  0.00000000000E+00  0.70559073554E+03  0.70559073554E+03  0.00000000000E+00 0.  1.
         21   -1    0    0  504  502  0.00000000000E+00 -0.00000000000E+00 -0.50978378566E+03  0.50978378566E+03  0.00000000000E+00 0. -1.
         21    1    1    2  503  502 -0.62923877277E+02  0.28173389845E+02 -0.45287945705E+02  0.82487285403E+02  0.00000000000E+00 0.  1.
         21    1    1    2  504  501 -0.23700273728E+02 -0.28541397157E+02 -0.17960267467E+03  0.18339420676E+03  0.00000000000E+00 0. -1.
         21    1    1    2  505  503  0.25573142234E+02  0.97851649803E+02 -0.24964488560E+03  0.26935385626E+03  0.00000000000E+00 0. -1.
          2    1    1    2  501    0  0.61051008771E+02 -0.97483642491E+02  0.67034245586E+03  0.68013917278E+03  0.00000000000E+00 0.  1.
<scales pt_clust_3="71.22327" pt_clust_4="37.09871" pt_clust_5="114.18510" pt_clust_6="14000.00000"></scales>
<clustering>
<clus scale="   37.099">  2  4  1 -1</clus>
<clus scale="   71.223">  2  3  1 -1</clus>
<clus scale="  114.185">  2  5  1 -1</clus>
<clus scale="   37.099">  2  3  1 -1</clus>
</clustering>
</event>
<event>
 6    0  0.2572175E+002  0.8287519E+02  0.7546771E-02  0.1321085E+00
         21   -1    0    0  505  502  0.00000000000E+00  0.00000000000E+00  0.76047781514E+01  0.76047781514E+01  0.00000000000E+00 0. -1.
          1   -1    0    0  504    0 -0.00000000000E+00 -0.00000000000E+00 -0.35274404937E+04  0.35274404937E+04  0.00000000000E+00 0.  1.
         21    1    1    2  503  502 -0.36646141593E+02 -0.48441682475E+02 -0.28821919290E+03  0.29455023247E+03  0.00000000000E+00 0. -1.
         21    1    1    2  504  503 -0.45604008881E+02 -0.14376621235E+02 -0.28286440774E+03  0.28687747565E+03  0.00000000000E+00 0.  1.
         21    1    1    2  505  501  0.69654524972E+02 -0.10844596460E+02 -0.68193114012E+03  0.68556505015E+03  0.00000000000E+00 0.  1.
          1    1    1    2  501    0  0.12595625502E+02  0.73662900171E+02 -0.22668209748E+04  0.22680525136E+04  0.00000000000E+00 0.  1.
<scales pt_clust_3="30.86907" pt_clust_4="30.86907" pt_clust_5="70.49367" pt_clust_6="75.21850"></scales>
<clustering>
<clus scale="   30.869">  3  4 -1 -1</clus>
<clus scale="   70.494">  1  5  2 -1</clus>
<clus scale="   75.219">  2  6  1 -1</clus>
<clus scale="   70.494">  1  3  2 -1</clus>
</clustering>
</event>
<event>
 6    0  0.2572175E+002  0.7960806E+02  0.7546771E-02  0.1330167E+00
          1   -1    0    0  505    0 -0.00000000000E+00  0.00000000000E+00  0.26603823135E+04  0.26603823135E+04  0.00000000000E+00 0. -1.
         21   -1    0    0  503  502  0.00000000000E+00 -0.00000000000E+00 -0.99362580673E+01  0.99362580673E+01  0.00000000000E+00 0. -1.
         21    1    1    2  503  501  0.83190876796E+02  0.21350754350E+02  0.83496094981E+03  0.83936664480E+03  0.00000000000E+00 0. -1.
         21    1    1    2  504  502 -0.36772747825E+02 -0.12471822453E+02  0.88313213131E+02  0.96472819755E+02  0.00000000000E+00 0. -1.
         21    1    1    2  505  504 -0.49964905321E+02 -0.69262377735E+02  0.64661891055E+03  0.65223445494E+03  0.00000000000E+00 0. -1.
          1    1    1    2  501    0  0.35467763497E+01  0.60383445837E+02  0.10805529819E+04  0.10822446521E+04  0.00000000000E+00 0. -1.
<scales pt_clust_3="79.60806" pt_clust_4="38.83016" pt_clust_5="14000.00000" pt_clust_6="58.60873"></scales>
<clustering>
<clus scale="   38.830">  2  4  1 -1</clus>
<clus scale="   58.609">  1  6  2 -1</clus>
<clus scale="   79.608">  2  3  1 -1</clus>
<clus scale="   38.830">  2  3  1 -1</clus>
</clustering>
</event>
<event>
 6    0  0.2572175E+002  0.1450537E+03  0.7546771E-02  0.1206686E+00
         21   -1    0    0  501  502  0.00000000000E+00  0.00000000000E+00  0.32817086347E+03  0.32817086347E+03  0.00000000000E+00 0.  1.
          2   -1    0    0  505    0 -0.00000000000E+00 -0.00000000000E+00 -0.83590892848E+03  0.83590892848E+03  0.00000000000E+00 0.  1.
         21    1    1    2  503  502  0.58984571623E+02  0.18275975737E+01  0.59078430377E+02  0.83503178013E+02  0.00000000000E+00 0.  1.
         21    1    1    2  504  503  0.61116180966E+02  0.25523340819E+02  0.12142863479E+03  0.13831681695E+03  0.00000000000E+00 0.  1.
         21    1    1    2  505  504 -0.20999095540E+03 -0.71340451132E+02  0.23949894523E+02  0.22306783445E+03  0.00000000000E+00 0.  1.
          2    1    1    2  501    0  0.89890202810E+02  0.43989512740E+02 -0.71219502469E+03  0.71919196255E+03  0.00000000000E+00 0.  1.
<scales pt_clust_3="35.93202" pt_clust_4="35.93202" pt_clust_5="139.96973" pt_clust_6="100.07660"></scales>
<clustering>
<clus scale="   35.932">  3  4 -1 -1</clus>
<clus scale="  100.077">  2  6  1 -1</clus>
<clus scale="  139.970">  2  5  1 -1</clus>
<clus scale="  145.054">  1  3  2 -1</clus>
</clustering>
</event>
<event>
 6    0  0.2572175E+002  0.1875106E+03  0.7546771E-02  0.1160726E+00
         21   -1    0    0  505  502  0.00000000000E+00  0.00000000000E+00  0.48215249313E+03  0.48215249313E+03  0.00000000000E+00 0.  1.
          2   -1    0    0  503    0 -0.00000000000E+00 -0.00000000000E+00 -0.13321257473E+04  0.13321257473E+04  0.00000000000E+00 0.  1.
         21    1    1    2  503  504 -0.48757210911E+02 -0.99909049177E+02 -0.12188069731E+03  0.16496662723E+03  0.00000000000E+00 0.  1.
         21    1    1    2  504  502 -0.90556855915E+02 -0.95568414129E+02  0.90412595526E+02  0.15971319095E+03  0.00000000000E+00 0.  1.
         21    1    1    2  505  501  0.19289602892E+03  0.21103733521E+03  0.27380024145E+03  0.39586892660E+03  0.00000000000E+00 0.  1.
          2    1    1    2  501    0 -0.53581962099E+02 -0.15559871904E+02 -0.10923053938E+04  0.10937294956E+04  0.00000000000E+00 0.  1.
<scales pt_clust_3="135.93462" pt_clust_4="14000.00000" pt_clust_5="187.51062" pt_clust_6="55.79549"></scales>
<clustering>
<clus scale="   55.795">  2  6  1 -1</clus>
<clus scale="  135.935">  2  3  1 -1</clus>
<clus scale="  187.511">  2  5  1 -1</clus>
<clus scale="  187.511">  1  3  2 -1</clus>
</clustering>
</event>
<event>
 6    0  0.2572175E+002  0.8850894E+02  0.7546771E-02  0.1306503E+00
          2   -1    0    0  504    0 -0.00000000000E+00  0.00000000000E+00  0.15260969050E+04  0.15260969050E+04  0.00000000000E+00 0. -1.
         21   -1    0    0  505  502  0.00000000000E+00 -0.00000000000E+00 -0.21731907664E+03  0.21731907664E+03  0.00000000000E+00 0.  1.
         21    1    1    2  503  502 -0.20455549855E+02  0.32795762946E+02 -0.13785463816E+02  0.41036941890E+02  0.00000000000E+00 0.  1.
         21    1    1    2  504  503  0.60790751367E+02  0.51145080621E+02  0.46982206841E+03  0.47649145920E+03  0.00000000000E+00 0. -1.
         21    1    1    2  505  501  0.33918906845E+02 -0.12034555260E+03 -0.16375542785E+03  0.20603248390E+03  0.00000000000E+00 0.  1.
          2    1    1    2  501    0 -0.74254108358E+02  0.36404709031E+02  0.10164966516E+04  0.10198550966E+04  0.00000000000E+00 0. -1.
<scales pt_clust_3="38.65219" pt_clust_4="79.54264" pt_clust_5="14000.00000" pt_clust_6="88.50894"></scales>
<clustering>
<clus scale="   38.652">  2  3  1 -1</clus>
<clus scale="   79.543">  1  4  2 -1</clus>
<clus scale="   88.509">  1  6  2 -1</clus>
<clus scale="   38.652">  2  3  1 -1</clus>
</clustering>
</event>
<event>
 6    0  0.2572175E+002  0.6005992E+02  0.7546771E-02  0.1397580E+00
         21   -1    0    0  505  502  0.00000000000E+00  0.00000000000E+00  0.21891600009E+02  0.21891600009E+02  0.00000000000E+00 0. -1.
          1   -1    0    0  503    0 -0.00000000000E+00 -0.00000000000E+00 -0.23489056939E+04  0.23489056939E+04  0.00000000000E+00 0. -1.
         21    1    1    2  503  504 -0.51148733456E+02 -0.41174780885E+02 -0.91197340424E+03  0.91433420889E+03  0.00000000000E+00 0. -1.
         21    1    1    2  504  502  0.50465434728E+02  0.25743678004E+02 -0.48112871403E+02  0.74325940654E+02  0.00000000000E+00 0. -1.
         21    1    1    2  505  501  0.71770990792E+01 -0.60097813323E+02 -0.13579501724E+03  0.14867260886E+03  0.00000000000E+00 0. -1.
          1    1    1    2  501    0 -0.64938003509E+01  0.75528916204E+02 -0.12311328011E+04  0.12334645355E+04  0.00000000000E+00 0. -1.
<scales pt_clust_3="58.23223" pt_clust_4="56.65242" pt_clust_5="14000.00000" pt_clust_6="60.05992"></scales>
<clustering>
<clus scale="   56.652">  1  4  2 -1</clus>
<clus scale="   58.232">  2  3  1 -1</clus>
<clus scale="   60.060">  2  6  1 -1</clus>
<clus scale="   56.652">  1  3  2 -1</clus>
</clustering>
</event>
<event>
 6    0  0.2572175E+002  0.1096802E+03  0.7546771E-02  0.1261163E+00
         21   -1    0    0  501  502  0.00000000000E+00  0.00000000000E+00  0.43863792110E+02  0.43863792110E+02  0.00000000000E+00 0.  1.
          2   -1    0    0  504    0 -0.00000000000E+00 -0.00000000000E+00 -0.16913948194E+04  0.16913948194E+04  0.00000000000E+00 0. -1.
         21    1    1    2  503  502  0.26079842170E+02 -0.37709619239E+02 -0.18760256338E+02  0.49539083244E+02  0.00000000000E+00 0.  1.
         21    1    1    2  504  505  0.86729910271E+02  0.28414405046E+01 -0.72506104861E+02  0.11308088416E+03  0.00000000000E+00 0.  1.
         21    1    1    2  505  503 -0.33648263851E+02 -0.49297543855E+02 -0.14714113018E+03  0.15878591147E+03  0.00000000000E+00 0. -1.
          2    1    1    2  501    0 -0.79161488590E+02  0.84165722589E+02 -0.14091235359E+04  0.14138527326E+04  0.00000000000E+00 0. -1.
<scales pt_clust_3="45.84947" pt_clust_4="109.68016" pt_clust_5="63.65311" pt_clust_6="14000.00000"></scales>
<clustering>
<clus scale="   45.849">  1  3  2 -1</clus>
<clus scale="   63.653">  1  5  2 -1</clus>
<clus scale="  109.680">  1  4  2 -1</clus>
<clus scale="   45.849">  1  3  2 -1</clus>
</clustering>
</event>
<event>
 6    0  0.2572175E+002  0.2039791E+03  0.7546771E-02  0.1146425E+00
          1   -1    0    0  502    0 -0.00000000000E+00  0.00000000000E+00  0.15852034121E+04  0.15852034121E+04  0.00000000000E+00 0.  1.
         21   -1    0    0  505  502  0.00000000000E+00 -0.00000000000E+00 -0.20647698973E+03  0.20647698973E+03  0.00000000000E+00 0.  1.
         21    1    1    2  503  501  0.18927317540E+03 -0.45963632554E+02  0.44297832179E+03  0.48390782595E+03  0.00000000000E+00 0. -1.
         21    1    1    2  504  503 -0.30885487061E+02  0.35077343182E+02 -0.10947568024E+02  0.48001901643E+02  0.00000000000E+00 0.  1.
         21    1    1    2  505  504 -0.14710018958E+03  0.43241609074E+02 -0.11865162014E+03  0.19387240518E+03  0.00000000000E+00 0.  1.
          1    1    1    2  501    0 -0.11287498763E+02 -0.32355319702E+02  0.10653472887E+04  0.10658982690E+04  0.00000000000E+00 0.  1.
<scales pt_clust_3="194.19839" pt_clust_4="34.22143" pt_clust_5="34.22143" pt_clust_6="34.26769"></scales>
<clustering>
<clus scale="   34.268">  1  6  2 -1</clus>
<clus scale="   34.221">  4  5 -1 -1</clus>
<clus scale="  194.198">  1  3  2 -1</clus>
<clus scale="  203.979">  2  3  1 -1</clus>
</clustering>
</event>
<event>
 6    0  0.2572175E+002  0.1771682E+03  0.7546771E-02  0.1170572E+00
          1   -1    0    0  505    0 -0.00000000000E+00  0.00000000000E+00  0.16067656657E+04  0.16067656657E+04  0.00000000000E+00 0. -1.
         21   -1    0    0  504  502  0.00000000000E+00 -0.00000000000E+00 -0.28442993487E+03  0.28442993487E+03  0.00000000000E+00 0.  1.
         21    1    1    2  503  501  0.12369444095E+03  0.59075862521E+02  0.31152334318E+03  0.34034844734E+03  0.00000000000E+00 0.  1.
         21    1    1    2  504  503 -0.32971535933E+02  0.22704571860E+02  0.12420151125E+02  0.41915151427E+02  0.00000000000E+00 0.  1.
         21    1    1    2  505  502  0.30739819696E+02  0.88535287134E+02 -0.23757202489E+03  0.25538970338E+03  0.00000000000E+00 0.  1.
          1    1    1    2  501    0 -0.12146272472E+03 -0.17031572151E+03  0.12359642614E+04  0.12535422984E+04  0.00000000000E+00 0. -1.
<scales pt_clust_3="177.16819" pt_clust_4="40.03273" pt_clust_5="109.28819" pt_clust_6="14000.00000"></scales>
<clustering>
<clus scale="   40.033">  2  4  1 -1</clus>
<clus scale="  109.288">  2  5  1 -1</clus>
<clus scale="  177.168">  2  3  1 -1</clus>
<clus scale="   40.033">  2  3  1 -1</clus>
</clustering>
</event>
<event>
 6    0  0.2572175E+002  0.1348470E+03  0.7546771E-02  0.1220436E+00
          2   -1    0    0  503    0 -0.00000000000E+00  0.00000000000E+00  0.14144158893E+04  0.14144158893E+04  0.00000000000E+00 0. -1.
         21   -1    0    0  504  502  0.00000000000E+00 -0.00000000000E+00 -0.60446685739E+03  0.60446685739E+03  0.00000000000E+00 0.  1.
         21    1    1    2  503  505  0.48189353797E+01 -0.80007878063E+02  0.36128667721E+03  0.37007100106E+03  0.00000000000E+00 0.  1.
         21    1    1    2  504  501 -0.23466695120E+02  0.33999017235E+02 -0.37406023669E+02  0.55729970030E+02  0.00000000000E+00 0.  1.
         21    1    1    2  505  502  0.47319979346E+02  0.10191507144E+03 -0.54683960194E+03  0.55826464377E+03  0.00000000000E+00 0.  1.
          2    1    1    2  501    0 -0.28672219606E+02 -0.55906210607E+02  0.10329079803E+04  0.10348171319E+04  0.00000000000E+00 0. -1.
<scales pt_clust_3="134.84705" pt_clust_4="41.31124" pt_clust_5="14000.00000" pt_clust_6="62.79653"></scales>
<clustering>
<clus scale="   41.311">  2  4  1 -1</clus>
<clus scale="   62.797">  1  6  2 -1</clus>
<clus scale="  134.847">  1  3  2 -1</clus>
<clus scale="   41.311">  2  3  1 -1</clus>
</clustering>
</event>
<event>
 6    0  0.2572175E+002  0.1512365E+03  0.7546771E-02  0.1198962E+00
          2   -1    0    0  505    0 -0.00000000000E+00  0.00000000000E+00  0.27291542010E+03  0.27291542010E+03  0.00000000000E+00 0. -1.
         21   -1    0    0  503  502  0.00000000000E+00 -0.00000000000E+00 -0.12568945713E+04  0.12568945713E+04  0.00000000000E+00 0.  1.
         21    1    1    2  503  504  0.24476037060E+02 -0.54399636413E+02 -0.13185885412E+03  0.14472440790E+03  0.00000000000E+00 0. -1.
         21    1    1    2  504  501 -0.62976882807E+02 -0.13805321070E+03  0.21202201256E+03  0.26072612175E+03  0.00000000000E+00 0. -1.
         21    1    1    2  505  502 -0.96772203541E+01  0.20273107914E+03 -0.10548878268E+04  0.10742354799E+04  0.00000000000E+00 0.  1.
          2    1    1    2  501    0  0.48178066101E+02 -0.10278232021E+02 -0.92544828151E+01  0.50123981874E+02  0.00000000000E+00 0. -1.
<scales pt_clust_3="60.40325" pt_clust_4="151.23647" pt_clust_5="14000.00000" pt_clust_6="49.26224"></scales>
<clustering>
<clus scale="   49.262">  1  6  2 -1</clus>
<clus scale="   60.403">  2  3  1 -1</clus>
<clus scale="  151.236">  1  4  2 -1</clus>
<clus scale="   60.403">  2  3  1 -1</clus>
</clustering>
</event>
<event>
 6    0  0.2572175E+002  0.6156954E+02  0.7546771E-02  0.1391361E+00
         21   -1    0    0  504  502  0.00000000000E+00  0.00000000000E+00  0.22672931139E+03  0.22672931139E+03  0.00000000000E+00 0.  1.
          2   -1    0    0  505    0 -0.00000000000E+00 -0.00000000000E+00 -0.67501930309E+03  0.67501930309E+03  0.00000000000E+00 0.  1.
         21    1    1    2  503  501 -0.12845956193E+03  0.14796777872E+02  0.97688597132E+01  0.12967742405E+03  0.00000000000E+00 0.  1.
         21    1    1    2  504  503  0.53117462137E+02 -0.14561841979E+02  0.12373654161E+03  0.13544092349E+03  0.00000000000E+00 0.  1.
         21    1    1    2  505  502  0.45139878134E+02 -0.91119972723E+01  0.73596853269E+01  0.46634773081E+02  0.00000000000E+00 0.  1.
          2    1    1    2  501    0  0.30202221663E+02  0.88770613795E+01 -0.58915507836E+03  0.58999549385E+03  0.00000000000E+00 0.  1.
<scales pt_clust_3="14000.00000" pt_clust_4="61.56954" pt_clust_5="52.55916" pt_clust_6="31.47978"></scales>
<clustering>
<clus scale="   31.480">  2  6  1 -1</clus>
<clus scale="   52.559">  2  5  1 -1</clus>
<clus scale="   61.570">  1  4  2 -1</clus>
<clus scale="   61.570">  1  3  2 -1</clus>
</clustering>
</event>
<event>
 6    0  0.2572175E+002  0.2109620E+03  0.7546771E-02  0.1140806E+00
         21   -1    0    0  503  502  0.00000000000E+00  0.00000000000E+00  0.18954050302E+03  0.18954050302E+03  0.00000000000E+00 0.  1.
          2   -1    0    0  505    0 -0.00000000000E+00 -0.00000000000E+00 -0.32941342868E+04  0.32941342868E+04  0.00000000000E+00 0.  1.
         21    1    1    2  503  501  0.89302524134E+02  0.12691362512E+03  0.10552123169E+03  0.18766123573E+03  0.00000000000E+00 0.  1.
         21    1    1    2  504  502  0.72923485947E+02  0.27534267794E+02 -0.87811582580E+02  0.11741739539E+03  0.00000000000E+00 0.  1.
         21    1    1    2  505  504  0.10689922882E+03 -0.16304614139E+03 -0.42153792434E+03  0.46444128907E+03  0.00000000000E+00 0.  1.
          2    1    1    2  501    0 -0.26912523890E+03  0.85982484724E+01 -0.27007655086E+04  0.27141548696E+04  0.00000000000E+00 0.  1.
<scales pt_clust_3="14000.00000" pt_clust_4="77.94851" pt_clust_5="197.26837" pt_clust_6="210.96199"></scales>
<clustering>
<clus scale="   77.949">  1  4  2 -1</clus>
<clus scale="  197.268">  2  5  1 -1</clus>
<clus scale="  210.962">  2  6  1 -1</clus>
<clus scale="   77.949">  1  3  2 -1</clus>
</clustering>
</event>
<event>
 6    0  0.2572175E+002  0.7275111E+02  0.7546771E-02  0.1350980E+00
         -2   -1    0    0    0  501 -0.00000000000E+00  0.00000000000E+00  0.29911389307E+04  0.29911389307E+04  0.00000000000E+00 0.  1.
         21   -1    0    0  501  502  0.00000000000E+00 -0.00000000000E+00 -0.18968592748E+04  0.18968592748E+04  0.00000000000E+00 0.  1.
         21    1    1    2  503  502 -0.30241349828E+02 -0.14299511657E+02 -0.81208027817E+03  0.81276896685E+03  0.00000000000E+00 0.  1.
         21    1    1    2  504  505  0.60854502695E+02 -0.11698423597E+03 -0.59177659865E+02  0.14453573050E+03  0.00000000000E+00 0. -1.
         21    1    1    2  505  503 -0.18960074270E+02  0.59705136190E+02 -0.98113292300E+03  0.98313071374E+03  0.00000000000E+00 0.  1.
         -2    1    1    2    0  504 -0.11653078597E+02  0.71578611437E+02  0.29466705169E+04  0.29475627944E+04  0.00000000000E+00 0.  1.
<scales pt_clust_3="33.45169" pt_clust_4="14000.00000" pt_clust_5="65.83448" pt_clust_6="72.75111"></scales>
<clustering>
<clus scale="   33.452">  2  3  1 -1</clus>
<clus scale="   65.834">  2  5  1 -1</clus>
<clus scale="   72.751">  1  6  2 -1</clus>
<clus scale="   33.452">  2  3  1 -1</clus>
</clustering>
</event>
<event>
 6    0  0.2572175E+002  0.1046328E+03  0.7546771E-02  0.1270845E+00
         21   -1    0    0  505  502  0.00000000000E+00  0.00000000000E+00  0.37836705402E+03  0.37836705402E+03  0.00000000000E+00 0.  1.
          2   -1    0    0  503    0 -0.00000000000E+00 -0.00000000000E+00 -0.99110544390E+03  0.99110544390E+03  0.00000000000E+00 0.  1.
         21    1    1    2  503  504 -0.10854041838E+00  0.89393222902E+02  0.27715160712E+02  0.93591079784E+02  0.00000000000E+00 0.  1.
         21    1    1    2  504  502  0.69462294736E+02  0.56272760627E+02  0.90374927646E+02  0.12711908403E+03  0.00000000000E+00 0.  1.
         21    1    1    2  505  501 -0.46037895111E+02 -0.12004125448E+03  0.18883472642E+03  0.22844680884E+03  0.00000000000E+00 0.  1.
          2    1    1    2  501    0 -0.23315859206E+02 -0.25624729046E+02 -0.91966320466E+03  0.92031552526E+03  0.00000000000E+00 0.  1.
<scales pt_clust_3="78.28849" pt_clust_4="14000.00000" pt_clust_5="104.63279" pt_clust_6="34.64471"></scales>
<clustering>
<clus scale="   34.645">  2  6  1 -1</clus>
<clus scale="   78.288">  2  3  1 -1</clus>
<clus scale="  104.633">  2  5  1 -1</clus>
<clus scale="  104.633">  1  3  2 -1</clus>
</clustering>
</event>
<event>
 6    0  0.2572175E+002  0.1040897E+03  0.7546771E-02  0.1271924E+00
          2   -1    0    0  503    0 -0.00000000000E+00  0.00000000000E+00  0.56368791492E+03  0.56368791492E+03  0.00000000000E+00 0.  1.
         21   -1    0    0  505  502  0.00000000000E+00 -0.00000000000E+00 -0.93804386504E+02  0.93804386504E+02  0.00000000000E+00 0.  1.
         21    1    1    2  503  502 -0.62797328570E+02  0.89516395868E+02  0.29670075549E+02  0.11330049862E+03  0.00000000000E+00 0.  1.
         21    1    1    2  504  501  0.37611725185E+02 -0.17880464762E+02 -0.20707623197E+02  0.46509768329E+02  0.00000000000E+00 0.  1.
         21    1    1    2  505  504  0.20276641367E+02  0.33769669916E+02  0.19742886707E+02  0.44060349147E+02  0.00000000000E+00 0.  1.
          2    1    1    2  501    0  0.49089620179E+01 -0.10540560102E+03  0.44117818936E+03  0.45362168533E+03  0.00000000000E+00 0.  1.
<scales pt_clust_3="104.08966" pt_clust_4="46.13039" pt_clust_5="39.38950" pt_clust_6="14000.00000"></scales>
<clustering>
<clus scale="   39.390">  2  5  1 -1</clus>
<clus scale="   46.130">  2  4  1 -1</clus>
<clus scale="  104.090">  2  3  1 -1</clus>
<clus scale="   39.390">  2  3  1 -1</clus>
</clustering>
</event>
<event>
 6    0  0.2572175E+002  0.8403638E+02  0.7546771E-02  0.1317972E+00
          1   -1    0    0  503    0 -0.00000000000E+00  0.00000000000E+00  0.72824609489E+03  0.72824609489E+03  0.00000000000E+00 0.  1.
         21   -1    0    0  504  502  0.00000000000E+00 -0.00000000000E+00 -0.38427532705E+03  0.38427532705E+03  0.00000000000E+00 0. -1.
         21    1    1    2  503  502  0.62823717254E+01 -0.43221541501E+02 -0.31651342072E+03  0.31951262157E+03  0.00000000000E+00 0. -1.
         21    1    1    2  504  505 -0.62189976563E+02 -0.22932926112E+02 -0.31212727122E+02  0.73264907148E+02  0.00000000000E+00 0. -1.
         21    1    1    2  505  501  0.91148373951E+02  0.58682018250E+02  0.20662014146E+03  0.23333128423E+03  0.00000000000E+00 0.  1.
          1    1    1    2  501    0 -0.35240769113E+02  0.74724493639E+01  0.48507677422E+03  0.48641260900E+03  0.00000000000E+00 0.  1.
<scales pt_clust_3="43.59916" pt_clust_4="84.03638" pt_clust_5="14000.00000" pt_clust_6="36.02429"></scales>
<clustering>
<clus scale="   36.024">  1  6  2 -1</clus>
<clus scale="   43.599">  2  3  1 -1</clus>
<clus scale="   84.036">  2  4  1 -1</clus>
<clus scale="   43.599">  2  3  1 -1</clus>
</clustering>
</event>
<event>
 6    0  0.2572175E+002  0.2545771E+03  0.7546771E-02  0.1110446E+00
         21   -1    0    0  504  502  0.00000000000E+00  0.00000000000E+00  0.30764588756E+03  0.30764588756E+03  0.00000000000E+00 0.  1.
         -1   -1    0    0    0  501 -0.00000000000E+00 -0.00000000000E+00 -0.28936808840E+03  0.28936808840E+03  0.00000000000E+00 0.  1.
         21    1    1    2  503  501  0.49735088813E+02 -0.12547655032E+03  0.13800929598E+03  0.19304017592E+03  0.00000000000E+00 0.  1.
         21    1    1    2  504  503  0.52044164505E+02 -0.94206870841E+02  0.29125478134E+02  0.11149808541E+03  0.00000000000E+00 0.  1.
         21    1    1    2  505  502 -0.18390573200E+02  0.11932116741E+03 -0.61929583735E+02  0.13568724154E+03  0.00000000000E+00 0. -1.
         -1    1    1    2    0  505 -0.83388680119E+02  0.10036225375E+03 -0.86927391224E+02  0.15678847309E+03  0.00000000000E+00 0.  1.
<scales pt_clust_3="70.25385" pt_clust_4="70.25385" pt_clust_5="66.39048" pt_clust_6="251.76109"></scales>
<clustering>
<clus scale="   66.390">  5  6 -1 -1</clus>
<clus scale="   70.254">  3  4 -1 -1</clus>
<clus scale="  251.761">  2  5  1 -1</clus>
<clus scale="  254.577">  1  3  2 -1</clus>
</clustering>
</event>
<event>
 6    0  0.2572175E+002  0.9437021E+02  0.7546771E-02  0.1292601E+00
         21   -1    0    0  503  502  0.00000000000E+00  0.00000000000E+00  0.87910663185E+03  0.87910663185E+03  0.00000000000E+00 0. -1.
          1   -1    0    0  505    0 -0.00000000000E+00 -0.00000000000E+00 -0.16182235859E+03  0.16182235859E+03  0.00000000000E+00 0.  1.
         21    1    1    2  503  501  0.91773469783E+02  0.50645784308E+02  0.45905810534E+03  0.47087334742E+03  0.00000000000E+00 0. -1.
         21    1    1    2  504  502 -0.50711254781E+02 -0.70901885128E+02  0.26765751678E+03  0.28149468018E+03  0.00000000000E+00 0.  1.
         21    1    1    2  505  504 -0.75030909593E+02  0.12497037993E+02  0.12684340865E+03  0.14790220982E+03  0.00000000000E+00 0.  1.
          1    1    1    2  501    0  0.33968694591E+02  0.77590628266E+01 -0.13627475752E+03  0.14065875303E+03  0.00000000000E+00 0.  1.
<scales pt_clust_3="14000.00000" pt_clust_4="94.37021" pt_clust_5="61.82184" pt_clust_6="34.84358"></scales>
<clustering>
<clus scale="   34.844">  2  6  1 -1</clus>
<clus scale="   61.822">  2  5  1 -1</clus>
<clus scale="   94.370">  2  4  1 -1</clus>
<clus scale="   94.370">  1  3  2 -1</clus>
</clustering>
</event>
<event>
 6    0  0.2572175E+002  0.1061907E+03  0.7546771E-02  0.1267791E+00
         21   -1    0    0  503  502  0.00000000000E+00  0.00000000000E+00  0.14265530265E+04  0.14265530265E+04  0.00000000000E+00 0. -1.
          3   -1    0    0  504    0 -0.00000000000E+00 -0.00000000000E+00 -0.37865618352E+02  0.37865618352E+02  0.00000000000E+00 0.  1.
         21    1    1    2  503  505  0.82829458708E+02 -0.54124383168E+02  0.10804780892E+04  0.10849991103E+04  0.00000000000E+00 0. -1.
         21    1    1    2  504  502 -0.10809207745E+02 -0.36423401862E+02  0.17801804467E+03  0.18202727104E+03  0.00000000000E+00 0. -1.
         21    1    1    2  505  501 -0.34773599474E+02  0.86040896798E+02  0.13018231489E+03  0.15987393237E+03  0.00000000000E+00 0. -1.
          3    1    1    2  501    0 -0.37246651489E+02  0.45068882324E+01  0.89593443529E-02  0.37518331106E+02  0.00000000000E+00 0.  1.
<scales pt_clust_3="106.19068" pt_clust_4="38.84604" pt_clust_5="14000.00000" pt_clust_6="37.51833"></scales>
<clustering>
<clus scale="   37.518">  2  6  1 -1</clus>
<clus scale="   38.846">  1  4  2 -1</clus>
<clus scale="  106.191">  1  3  2 -1</clus>
<clus scale="   38.846">  1  3  2 -1</clus>
</clustering>
</event>
<event>
 6    0  0.2572175E+002  0.2936697E+03  0.7546771E-02  0.1088449E+00
          1   -1    0    0  505    0 -0.00000000000E+00  0.00000000000E+00  0.20061172938E+04  0.20061172938E+04  0.00000000000E+00 0.  1.
         21   -1    0    0  504  502  0.00000000000E+00 -0.00000000000E+00 -0.14698563735E+04  0.14698563735E+04  0.00000000000E+00 0. -1.
         21    1    1    2  503  502 -0.73059142006E+02 -0.43531112175E+02 -0.51496361884E+03  0.52193881317E+03  0.00000000000E+00 0. -1.
         21    1    1    2  504  501  0.30156318753E+03  0.90009145509E+01 -0.17676969186E+03  0.34966969628E+03  0.00000000000E+00 0. -1.
         21    1    1    2  505  503 -0.19383392116E+03  0.17727384735E+02 -0.67422354927E+03  0.70175725401E+03  0.00000000000E+00 0. -1.
          1    1    1    2  501    0 -0.34670124362E+02  0.16802812889E+02  0.19022177803E+04  0.19026079038E+04  0.00000000000E+00 0.  1.
<scales pt_clust_3="69.91893" pt_clust_4="273.63054" pt_clust_5="69.91893" pt_clust_6="38.52729"></scales>
<clustering>
<clus scale="   38.527">  1  6  2 -1</clus>
<clus scale="   69.919">  3  5 -1 -1</clus>
<clus scale="  273.631">  1  4  2 -1</clus>
<clus scale="  293.670">  2  3  1 -1</clus>
</clustering>
</event>
<event>
 6    0  0.2572175E+002  0.8223697E+02  0.7546771E-02  0.1322820E+00
          2   -1    0    0  503    0 -0.00000000000E+00  0.00000000000E+00  0.32183508697E+04  0.32183508697E+04  0.00000000000E+00 0.  1.
         21   -1    0    0  505  502  0.00000000000E+00 -0.00000000000E+00 -0.26810670868E+02  0.26810670868E+02  0.00000000000E+00 0. -1.
         21    1    1    2  503  504  0.54697808489E+02 -0.16324153010E+02  0.28529312296E+03  0.29094757988E+03  0.00000000000E+00 0. -1.
         21    1    1    2  504  502  0.54401531435E+02 -0.41270439967E+02  0.11936949784E+03  0.13752037250E+03  0.00000000000E+00 0. -1.
         21    1    1    2  505  501 -0.11600489652E+03  0.10828520876E+02  0.21631275306E+03  0.24569411881E+03  0.00000000000E+00 0. -1.
          2    1    1    2  501    0  0.69055565955E+01  0.46766072101E+02  0.25705648250E+04  0.25709994694E+04  0.00000000000E+00 0.  1.
<scales pt_clust_3="57.94398" pt_clust_4="82.23697" pt_clust_5="14000.00000" pt_clust_6="47.27317"></scales>
<clustering>
<clus scale="   47.273">  1  6  2 -1</clus>
<clus scale="   57.944">  1  3  2 -1</clus>
<clus scale="   82.237">  2  4  1 -1</clus>
<clus scale="   82.237">  2  3  1 -1</clus>
</clustering>
</event>
<event>
 6    0  0.2572175E+002  0.1785505E+03  0.7546771E-02  0.1169213E+00
          2   -1    0    0  505    0 -0.00000000000E+00  0.00000000000E+00  0.15927712735E+04  0.15927712735E+04  0.00000000000E+00 0.  1.
         21   -1    0    0  504  502  0.00000000000E+00 -0.00000000000E+00 -0.68206619951E+02  0.68206619951E+02  0.00000000000E+00 0. -1.
         21    1    1    2  503  501 -0.55298527791E+02 -0.77287631463E+02  0.64556496390E+02  0.11488623233E+03  0.00000000000E+00 0. -1.
         21    1    1    2  504  503 -0.18003874944E+02 -0.76119885187E+02  0.35794604679E+02  0.86021102981E+02  0.00000000000E+00 0. -1.
         21    1    1    2  505  502  0.14741195283E+03  0.14196200778E+03  0.63186260823E+03  0.66417908065E+03  0.00000000000E+00 0. -1.
          2    1    1    2  501    0 -0.74109550099E+02  0.11445508866E+02  0.79235094426E+03  0.79589147750E+03  0.00000000000E+00 0.  1.
<scales pt_clust_3="33.77932" pt_clust_4="33.77932" pt_clust_5="174.62525" pt_clust_6="74.98817"></scales>
<clustering>
<clus scale="   33.779">  3  4 -1 -1</clus>
<clus scale="   74.988">  1  6  2 -1</clus>
<clus scale="  174.625">  1  5  2 -1</clus>
<clus scale="  178.551">  2  3  1 -1</clus>
</clustering>
</event>
<event>
 6    0  0.2572175E+002  0.1192327E+03  0.7546771E-02  0.1244368E+00
         21   -1    0    0  501  502  0.00000000000E+00  0.00000000000E+00  0.40383298845E+02  0.40383298845E+02  0.00000000000E+00 0.  1.
          2   -1    0    0  503    0 -0.00000000000E+00 -0.00000000000E+00 -0.34478531535E+04  0.34478531535E+04  0.00000000000E+00 0.  1.
         21    1    1    2  503  504 -0.23892403747E+02  0.15161680203E+03 -0.14931629896E+04  0.15010310507E+04  0.00000000000E+00 0.  1.
         21    1    1    2  504  505  0.18704719208E+02 -0.75678101179E+02 -0.11514207521E+03  0.13904941209E+03  0.00000000000E+00 0.  1.
         21    1    1    2  505  502 -0.14289894848E+02 -0.50593646338E+02 -0.40197989911E+01  0.52726434817E+02  0.00000000000E+00 0.  1.
          2    1    1    2  501    0  0.19477579387E+02 -0.25345054515E+02 -0.17951449909E+04  0.17954295548E+04  0.00000000000E+00 0.  1.
<scales pt_clust_3="119.23266" pt_clust_4="14000.00000" pt_clust_5="52.90268" pt_clust_6="31.96479"></scales>
<clustering>
<clus scale="   31.965">  2  6  1 -1</clus>
<clus scale="   52.903">  1  5  2 -1</clus>
<clus scale="  119.233">  2  3  1 -1</clus>
<clus scale="   52.903">  1  3  2 -1</clus>
</clustering>
</event>
<event>
 6    0  0.2572175E+002  0.1777725E+03  0.7546771E-02  0.1169976E+00
         21   -1    0    0  504  502  0.00000000000E+00  0.00000000000E+00  0.23991005098E+03  0.23991005098E+03  0.00000000000E+00 0. -1.
          2   -1    0    0  505    0 -0.00000000000E+00 -0.00000000000E+00 -0.96382542257E+03  0.96382542257E+03  0.00000000000E+00 0.  1.
         21    1    1    2  503  501 -0.58446147690E+02 -0.25280415018E+02  0.97799560921E+02  0.11670392315E+03  0.00000000000E+00 0. -1.
         21    1    1    2  504  503 -0.74495057575E+02 -0.82908776757E+02  0.91510876977E+02  0.14421379778E+03  0.00000000000E+00 0. -1.
         21    1    1    2  505  502  0.14054923237E+03  0.33335141071E+02 -0.73986163241E+03  0.75383058671E+03  0.00000000000E+00 0.  1.
          2    1    1    2  501    0 -0.76080271035E+01  0.74854050703E+02 -0.17336417708E+03  0.18898716591E+03  0.00000000000E+00 0.  1.
<scales pt_clust_3="40.43195" pt_clust_4="40.43195" pt_clust_5="169.53377" pt_clust_6="75.23969"></scales>
<clustering>
<clus scale="   40.432">  3  4 -1 -1</clus>
<clus scale="   75.240">  2  6  1 -1</clus>
<clus scale="  169.534">  2  5  1 -1</clus>
<clus scale="  177.772">  1  3  2 -1</clus>
</clustering>
</event>
<event>
 6    0  0.2572175E+002  0.1355963E+03  0.7546771E-02  0.1219380E+00
          2   -1    0    0  503    0 -0.00000000000E+00  0.00000000000E+00  0.19556419439E+04  0.19556419439E+04  0.00000000000E+00 0. -1.
         21   -1    0    0  505  502  0.00000000000E+00 -0.00000000000E+00 -0.12192411335E+03  0.12192411335E+03  0.00000000000E+00 0. -1.
         21    1    1    2  503  504 -0.24716016765E+02 -0.57988837322E+02  0.29991454102E+02  0.69807406899E+02  0.00000000000E+00 0.  1.
         21    1    1    2  504  502 -0.77795267725E+02 -0.43967828062E+02  0.12373884403E+03  0.15263215620E+03  0.00000000000E+00 0. -1.
         21    1    1    2  505  501  0.10773273084E+03  0.33828261300E+02 -0.50211014273E+02  0.12357928027E+03  0.00000000000E+00 0. -1.
          2    1    1    2  501    0 -0.52214463528E+01  0.68128404085E+02  0.17301985467E+04  0.17315472139E+04  0.00000000000E+00 0. -1.
<scales pt_clust_3="59.04760" pt_clust_4="59.04760" pt_clust_5="115.94705" pt_clust_6="68.32820"></scales>
<clustering>
<clus scale="   59.048">  3  4 -1 -1</clus>
<clus scale="   68.328">  1  6  2 -1</clus>
<clus scale="  115.947">  2  5  1 -1</clus>
<clus scale="  115.947">  2  3  1 -1</clus>
</clustering>
</event>
<event>
 6    0  0.2572175E+002  0.8456843E+02  0.7546771E-02  0.1316565E+00
         21   -1    0    0  505  502  0.00000000000E+00  0.00000000000E+00  0.53595930632E+03  0.53595930632E+03  0.00000000000E+00 0. -1.
          2   -1    0    0  503    0 -0.00000000000E+00 -0.00000000000E+00 -0.34522901395E+03  0.34522901395E+03  0.00000000000E+00 0.  1.
         21    1    1    2  503  502  0.66392299186E+02  0.63023181659E+02  0.29387857512E+03  0.30780590594E+03  0.00000000000E+00 0. -1.
         21    1    1    2  504  501  0.24230981434E+02 -0.88856783917E+02  0.13056487313E+03  0.15978064527E+03  0.00000000000E+00 0.  1.
         21    1    1    2  505  504 -0.25699337120E+02  0.37784651059E+02  0.80480101018E+02  0.92548270886E+02  0.00000000000E+00 0.  1.
          2    1    1    2  501    0 -0.64923943501E+02 -0.11951048801E+02 -0.31419325689E+03  0.32105349817E+03  0.00000000000E+00 0.  1.
<scales pt_clust_3="14000.00000" pt_clust_4="84.56843" pt_clust_5="45.69612" pt_clust_6="66.15620"></scales>
<clustering>
<clus scale="   45.696">  1  5  2 -1</clus>
<clus scale="   66.156">  2  6  1 -1</clus>
<clus scale="   84.568">  2  4  1 -1</clus>
<clus scale="   45.696">  1  3  2 -1</clus>
</clustering>
</event>
<event>
 6    0  0.2572175E+002  0.1159572E+03  0.7546771E-02  0.1249919E+00
          2   -1    0    0  504    0 -0.00000000000E+00  0.00000000000E+00  0.11920133257E+04  0.11920133257E+04  0.00000000000E+00 0.  1.
         21   -1    0    0  503  502  0.00000000000E+00 -0.00000000000E+00 -0.10983961123E+03  0.10983961123E+03  0.00000000000E+00 0.  1.
         21    1    1    2  503  505 -0.64380768217E+02  0.76196597202E+02  0.20046941182E+03  0.22391692615E+03  0.00000000000E+00 0.  1.
         21    1    1    2  504  502  0.11476661507E+03 -0.39322057087E+02 -0.52623830297E+02  0.13223792052E+03  0.00000000000E+00 0.  1.
         21    1    1    2  505  501 -0.26268935964E+02 -0.17125977184E+02  0.39999164034E+02  0.50826068258E+02  0.00000000000E+00 0. -1.
          2    1    1    2  501    0 -0.24116910887E+02 -0.19748562931E+02  0.89432896894E+03  0.89487202203E+03  0.00000000000E+00 0.  1.
<scales pt_clust_3="115.95721" pt_clust_4="14000.00000" pt_clust_5="36.09382" pt_clust_6="31.17100"></scales>
<clustering>
<clus scale="   31.171">  1  6  2 -1</clus>
<clus scale="   36.094">  1  5  2 -1</clus>
<clus scale="  115.957">  1  3  2 -1</clus>
<clus scale="  115.957">  2  3  1 -1</clus>
</clustering>
</event>
<event>
 6    0  0.2572175E+002  0.5034505E+02  0.7546771E-02  0.1443489E+00
         21   -1    0    0  504  502  0.00000000000E+00  0.00000000000E+00  0.40611500484E+03  0.40611500484E+03  0.00000000000E+00 0.  1.
          2   -1    0    0  503    0 -0.00000000000E+00 -0.00000000000E+00 -0.21651762015E+04  0.21651762015E+04  0.00000000000E+00 0. -1.
         21    1    1    2  503  505 -0.12872901763E+02 -0.46329257571E+02 -0.82898482878E+02  0.95834597982E+02  0.00000000000E+00 0.  1.
         21    1    1    2  504  501 -0.43258699010E+02 -0.10566236399E+02  0.31929139168E+02  0.54794436941E+02  0.00000000000E+00 0.  1.
         21    1    1    2  505  502  0.89404117274E+02 -0.76258924004E+01  0.34998558052E+03  0.36130479791E+03  0.00000000000E+00 0.  1.
          2    1    1    2  501    0 -0.33272516501E+02  0.64521386371E+02 -0.20580774334E+04  0.20593573735E+04  0.00000000000E+00 0. -1.
<scales pt_clust_3="48.47739" pt_clust_4="44.53044" pt_clust_5="50.34505" pt_clust_6="14000.00000"></scales>
<clustering>
<clus scale="   44.530">  1  4  2 -1</clus>
<clus scale="   48.477">  2  3  1 -1</clus>
<clus scale="   50.345">  1  5  2 -1</clus>
<clus scale="   44.530">  1  3  2 -1</clus>
</clustering>
</event>
<event>
 6    0  0.2572175E+002  0.1070769E+03  0.7546771E-02  0.1266081E+00
          2   -1    0    0  503    0 -0.00000000000E+00  0.00000000000E+00  0.13704789502E+03  0.13704789502E+03  0.00000000000E+00 0.  1.
         21   -1    0    0  504  502  0.00000000000E+00 -0.00000000000E+00 -0.32279850093E+03  0.32279850093E+03  0.00000000000E+00 0.  1.
         21    1    1    2  503  502  0.42297464035E+02 -0.12076497647E+03 -0.84588789433E+02  0.15339008542E+03  0.00000000000E+00 0.  1.
         21    1    1    2  504  505 -0.57343466934E+01  0.57083606542E+02 -0.80279084855E+02  0.98671942988E+02  0.00000000000E+00 0.  1.
         21    1    1    2  505  501  0.21595400451E+02  0.34512857841E+02 -0.98453952332E+02  0.10653956733E+03  0.00000000000E+00 0.  1.
          2    1    1    2  501    0 -0.58158517793E+02  0.29168512090E+02  0.77571220709E+02  0.10124480022E+03  0.00000000000E+00 0.  1.
<scales pt_clust_3="99.70292" pt_clust_4="32.89433" pt_clust_5="32.89433" pt_clust_6="65.06316"></scales>
<clustering>
<clus scale="   32.894">  4  5 -1 -1</clus>
<clus scale="   65.063">  1  6  2 -1</clus>
<clus scale="   99.703">  1  3  2 -1</clus>
<clus scale="  107.077">  2  3  1 -1</clus>
</clustering>
</event>
<event>
 6    0  0.2572175E+002  0.7062364E+02  0.7546771E-02  0.1357985E+00
         -2   -1    0    0    0  501 -0.00000000000E+00  0.00000000000E+00  0.30576227110E+03  0.30576227110E+03  0.00000000000E+00 0.  1.
         21   -1    0    0  505  502  0.00000000000E+00 -0.00000000000E+00 -0.14075490464E+03  0.14075490464E+03  0.00000000000E+00 0.  1.
         21    1    1    2  503  502  0.90499657850E+02 -0.23179132800E+02 -0.69969167777E+02  0.11671822783E+03  0.00000000000E+00 0.  1.
         21    1    1    2  504  501 -0.53103067400E+02  0.15415300404E+02  0.18721416116E+02  0.58378580620E+02  0.00000000000E+00 0.  1.
         21    1    1    2  505  504 -0.91065356894E+01  0.49905492121E+02  0.15032555590E+01  0.50751816848E+02  0.00000000000E+00 0.  1.
         -2    1    1    2    0  503 -0.28290054760E+02 -0.42141659725E+02  0.21475186255E+03  0.22066855044E+03  0.00000000000E+00 0.  1.
<scales pt_clust_3="14000.00000" pt_clust_4="70.62364" pt_clust_5="50.72955" pt_clust_6="49.83866"></scales>
<clustering>
<clus scale="   50.730">  2  5  1 -1</clus>
<clus scale="   49.839">  1  6  2 -1</clus>
<clus scale="   70.624">  1  4  2 -1</clus>
<clus scale="   50.730">  2  3  1 -1</clus>
</clustering>
</event>
<event>
 6    0  0.2572175E+002  0.1377868E+03  0.7546771E-02  0.1216338E+00
         21   -1    0    0  504  502  0.00000000000E+00  0.00000000000E+00  0.46699356780E+03  0.46699356780E+03  0.00000000000E+00 0.  1.
          1   -1    0    0  503    0 -0.00000000000E+00 -0.00000000000E+00 -0.17622442729E+03  0.17622442729E+03  0.00000000000E+00 0.  1.
         21    1    1    2  503  502  0.10145671764E+02 -0.31108234469E+02  0.18921906028E+02  0.37798087717E+02  0.00000000000E+00 0.  1.
         21    1    1    2  504  505  0.50264637529E+02 -0.92831784851E+02  0.30992490123E+03  0.32741062668E+03  0.00000000000E+00 0.  1.
         21    1    1    2  505  501 -0.46049170390E+02  0.16839819630E+03  0.47132589751E+02  0.18083130157E+03  0.00000000000E+00 0.  1.
          1    1    1    2  501    0 -0.14361138903E+02 -0.44458176984E+02 -0.85210256500E+02  0.97177979112E+02  0.00000000000E+00 0.  1.
<scales pt_clust_3="32.72089" pt_clust_4="137.78678" pt_clust_5="14000.00000" pt_clust_6="47.08216"></scales>
<clustering>
<clus scale="   32.721">  1  3  2 -1</clus>
<clus scale="   47.082">  2  6  1 -1</clus>
<clus scale="  137.787">  1  4  2 -1</clus>
<clus scale="   32.721">  1  3  2 -1</clus>
</clustering>
</event>
<event>
 6    0  0.2572175E+002  0.9138673E+02  0.7546771E-02  0.1299528E+00
         21   -1    0    0  504  502  0.00000000000E+00  0.00000000000E+00  0.86273009593E+02  0.86273009593E+02  0.00000000000E+00 0.  1.
          1   -1    0    0  503    0 -0.00000000000E+00 -0.00000000000E+00 -0.14658804064E+04  0.14658804064E+04  0.00000000000E+00 0.  1.
         21    1    1    2  503  502 -0.16513105887E+02  0.32964359132E+02 -0.28703886659E+02  0.46725204637E+02  0.00000000000E+00 0.  1.
         21    1    1    2  504  505  0.11197830768E+03 -0.45523522661E+02  0.25927007303E+02  0.12362743310E+03  0.00000000000E+00 0.  1.
         21    1    1    2  505  501 -0.58169342644E+02 -0.55708682686E+01 -0.41695577154E+03  0.42103066684E+03  0.00000000000E+00 0.  1.
          1    1    1    2  501    0 -0.37295859151E+02  0.18130031797E+02 -0.95987474588E+03  0.96077011139E+03  0.00000000000E+00 0.  1.
<scales pt_clust_3="36.86911" pt_clust_4="14000.00000" pt_clust_5="91.38673" pt_clust_6="41.63878"></scales>
<clustering>
<clus scale="   36.869">  1  3  2 -1</clus>
<clus scale="   41.639">  2  6  1 -1</clus>
<clus scale="   91.387">  2  5  1 -1</clus>
<clus scale="   36.869">  1  3  2 -1</clus>
</clustering>
</event>
<event>
 6    0  0.2930238E+002  0.9423257E+02  0.7546771E-02  0.1292914E+00
         21   -1    0    0  503  502  0.00000000000E+00  0.00000000000E+00  0.56825383788E+03  0.56825383788E+03  0.00000000000E+00 0.  1.
          2   -1    0    0  504    0 -0.00000000000E+00 -0.00000000000E+00 -0.13973784972E+04  0.13973784972E+04  0.00000000000E+00 0.  1.
         21    1    1    2  503  501 -0.36295170555E+01  0.34994003181E+02 -0.16598058531E+01  0.35220854733E+02  0.00000000000E+00 0. -1.
         21    1    1    2  504  505  0.33681159209E+02  0.51068788927E+02 -0.11769155009E+03  0.13264140625E+03  0.00000000000E+00 0.  1.
         21    1    1    2  505  502 -0.54016874688E+02 -0.11639896771E+03  0.53612701019E+03  0.55127009124E+03  0.00000000000E+00 0.  1.
          2    1    1    2  501    0  0.23965232534E+02  0.30336175606E+02 -0.12459003136E+04  0.12464999829E+04  0.00000000000E+00 0.  1.
<scales pt_clust_3="35.18172" pt_clust_4="14000.00000" pt_clust_5="94.23257" pt_clust_6="38.67397"></scales>
<clustering>
<clus scale="   35.182">  1  3  2 -1</clus>
<clus scale="   38.674">  2  6  1 -1</clus>
<clus scale="   94.233">  1  5  2 -1</clus>
<clus scale="   35.182">  1  3  2 -1</clus>
</clustering>
</event>
<event>
 6    0  0.2572175E+002  0.1071561E+03  0.7546771E-02  0.1265929E+00
         -1   -1    0    0    0  501 -0.00000000000E+00  0.00000000000E+00  0.70271417697E+03  0.70271417697E+03  0.00000000000E+00 0. -1.
         21   -1    0    0  504  502  0.00000000000E+00 -0.00000000000E+00 -0.40986419816E+03  0.40986419816E+03  0.00000000000E+00 0.  1.
         21    1    1    2  503  501  0.86221385350E+02 -0.98747543460E+02  0.39747029705E+03  0.41853057436E+03  0.00000000000E+00 0. -1.
         21    1    1    2  504  503 -0.12002597414E+03  0.83989402111E+02 -0.32504264699E+03  0.35652934872E+03  0.00000000000E+00 0.  1.
         21    1    1    2  505  502  0.31371819185E+02 -0.27915409910E+02 -0.49111061779E+02  0.64617006573E+02  0.00000000000E+00 0.  1.
         -1    1    1    2    0  505  0.24327696084E+01  0.42673551259E+02  0.26953339052E+03  0.27290144549E+03  0.00000000000E+00 0. -1.
<scales pt_clust_3="107.15606" pt_clust_4="14000.00000" pt_clust_5="41.99358" pt_clust_6="42.61869"></scales>
<clustering>
<clus scale="   41.994">  2  5  1 -1</clus>
<clus scale="   42.619">  1  6  2 -1</clus>
<clus scale="  107.156">  1  3  2 -1</clus>
<clus scale="   41.994">  2  3  1 -1</clus>
</clustering>
</event>
<event>
 6    0  0.2572175E+002  0.1047724E+03  0.7546771E-02  0.1270569E+00
          2   -1    0    0  504    0 -0.00000000000E+00  0.00000000000E+00  0.33515259426E+04  0.33515259426E+04  0.00000000000E+00 0. -1.
         21   -1    0    0  503  502  0.00000000000E+00 -0.00000000000E+00 -0.20589758627E+03  0.20589758627E+03  0.00000000000E+00 0.  1.
         21    1    1    2  503  501 -0.83739668430E+01 -0.35917493505E+02 -0.21366505809E+02  0.42622966003E+02  0.00000000000E+00 0. -1.
         21    1    1    2  504  505  0.31965665941E+02 -0.15263927624E+02  0.10545627482E+04  0.10551575149E+04  0.00000000000E+00 0.  1.
         21    1    1    2  505  502  0.83404266153E+01 -0.69076738019E+02 -0.16486679945E+03  0.17894753425E+03  0.00000000000E+00 0.  1.
          2    1    1    2  501    0 -0.31932125713E+02  0.12025815915E+03  0.22772989134E+04  0.22806955137E+04  0.00000000000E+00 0. -1.
<scales pt_clust_3="36.91630" pt_clust_4="35.42303" pt_clust_5="14000.00000" pt_clust_6="104.77243"></scales>
<clustering>
<clus scale="   35.423">  1  4  2 -1</clus>
<clus scale="   36.916">  2  3  1 -1</clus>
<clus scale="  104.772">  1  6  2 -1</clus>
<clus scale="   36.916">  2  3  1 -1</clus>
</clustering>
</event>
<event>
 6    0  0.3100266E+002  0.1572267E+03  0.7546771E-02  0.1191864E+00
          2   -1    0    0  503    0 -0.00000000000E+00  0.00000000000E+00  0.14665130185E+04  0.14665130185E+04  0.00000000000E+00 0. -1.
         21   -1    0    0  501  502  0.00000000000E+00 -0.00000000000E+00 -0.20318870240E+03  0.20318870240E+03  0.00000000000E+00 0.  1.
         21    1    1    2  503  505  0.12028230339E+02  0.72806121547E+02  0.63178816653E+02  0.97144081309E+02  0.00000000000E+00 0.  1.
         21    1    1    2  504  502  0.37651319580E+02 -0.16372918900E+03 -0.13452093518E+03  0.21522256201E+03  0.00000000000E+00 0.  1.
         21    1    1    2  505  504 -0.24815413965E+02  0.26874579753E+02  0.21616915552E+02  0.42489279178E+02  0.00000000000E+00 0.  1.
          2    1    1    2  501    0 -0.24864135955E+02  0.64048487704E+02  0.13130495190E+04  0.13148457984E+04  0.00000000000E+00 0. -1.
<scales pt_clust_3="33.07892" pt_clust_4="150.04275" pt_clust_5="33.07892" pt_clust_6="68.70541"></scales>
<clustering>
<clus scale="   33.079">  3  5 -1 -1</clus>
<clus scale="   68.705">  1  6  2 -1</clus>
<clus scale="  150.043">  2  4  1 -1</clus>
<clus scale="  150.043">  2  3  1 -1</clus>
</clustering>
</event>
<event>
 6    0  0.2572175E+002  0.8514740E+02  0.7546771E-02  0.1315048E+00
         21   -1    0    0  505  502  0.00000000000E+00  0.00000000000E+00  0.78712313987E+02  0.78712313987E+02  0.00000000000E+00 0.  1.
         -2   -1    0    0    0  501 -0.00000000000E+00 -0.00000000000E+00 -0.46981636066E+03  0.46981636066E+03  0.00000000000E+00 0. -1.
         21    1    1    2  503  504 -0.61038023640E+02  0.63840542809E+02 -0.51961716857E+02  0.10247573008E+03  0.00000000000E+00 0.  1.
         21    1    1    2  504  502  0.54707396498E+02  0.38814754389E+02  0.10007245846E+02  0.67820567376E+02  0.00000000000E+00 0.  1.
         21    1    1    2  505  501  0.43316366479E+02 -0.18400862112E+02 -0.70347040070E+02  0.84638084678E+02  0.00000000000E+00 0.  1.
         -2    1    1    2    0  503 -0.36985739337E+02 -0.84254435086E+02 -0.27880253559E+03  0.29359429252E+03  0.00000000000E+00 0. -1.
<scales pt_clust_3="85.14740" pt_clust_4="68.95988" pt_clust_5="47.06272" pt_clust_6="14000.00000"></scales>
<clustering>
<clus scale="   47.063">  2  5  1 -1</clus>
<clus scale="   68.960">  1  4  2 -1</clus>
<clus scale="   85.147">  1  3  2 -1</clus>
<clus scale="   68.960">  1  3  2 -1</clus>
</clustering>
</event>
<event>
 6    0  0.2572175E+002  0.1127438E+03  0.7546771E-02  0.1255572E+00
          2   -1    0    0  505    0 -0.00000000000E+00  0.00000000000E+00  0.59725007372E+03  0.59725007372E+03  0.00000000000E+00 0.  1.
         21   -1    0    0  503  502  0.00000000000E+00 -0.00000000000E+00 -0.60483034683E+03  0.60483034683E+03  0.00000000000E+00 0. -1.
         21    1    1    2  503  501 -0.34813980570E+02 -0.10588804797E+03 -0.40492466999E+03  0.41998604776E+03  0.00000000000E+00 0. -1.
         21    1    1    2  504  502 -0.22065864000E+02  0.12556168814E+03 -0.16204240545E+03  0.20618045747E+03  0.00000000000E+00 0.  1.
         21    1    1    2  505  504  0.22151384626E+02  0.34869621609E+02  0.63019611911E+02  0.75352809088E+02  0.00000000000E+00 0.  1.
          2    1    1    2  501    0  0.34728459945E+02 -0.54543261774E+02  0.49636719042E+03  0.50056110622E+03  0.00000000000E+00 0.  1.
<scales pt_clust_3="14000.00000" pt_clust_4="112.74381" pt_clust_5="41.31071" pt_clust_6="59.69411"></scales>
<clustering>
<clus scale="   41.311">  1  5  2 -1</clus>
<clus scale="   59.694">  1  6  2 -1</clus>
<clus scale="  112.744">  1  4  2 -1</clus>
<clus scale="  112.744">  2  3  1 -1</clus>
</clustering>
</event>
<event>
 6    0  0.2572175E+002  0.1357860E+03  0.7546771E-02  0.1219114E+00
          1   -1    0    0  504    0 -0.00000000000E+00  0.00000000000E+00  0.71503659538E+03  0.71503659538E+03  0.00000000000E+00 0.  1.
         21   -1    0    0  505  502  0.00000000000E+00 -0.00000000000E+00 -0.39849039597E+03  0.39849039597E+03  0.00000000000E+00 0.  1.
         21    1    1    2  503  501  0.99133401651E+02  0.25325514395E+02 -0.11912298886E+03  0.15703216064E+03  0.00000000000E+00 0.  1.
         21    1    1    2  504  502 -0.89352205612E+02 -0.14173136685E+03  0.96503806788E+02  0.19335092894E+03  0.00000000000E+00 0.  1.
         21    1    1    2  505  503  0.22242284597E+02  0.58891067338E+02 -0.20528910406E+03  0.21472422612E+03  0.00000000000E+00 0.  1.
          1    1    1    2  501    0 -0.32023480637E+02  0.57514785115E+02  0.54445448554E+03  0.54841967565E+03  0.00000000000E+00 0.  1.
<scales pt_clust_3="14000.00000" pt_clust_4="135.78601" pt_clust_5="62.95139" pt_clust_6="66.25831"></scales>
<clustering>
<clus scale="   62.951">  2  5  1 -1</clus>
<clus scale="   66.258">  1  6  2 -1</clus>
<clus scale="  135.786">  1  4  2 -1</clus>
<clus scale="   62.951">  2  3  1 -1</clus>
</clustering>
</event>
<event>
 6    0  0.2572175E+002  0.2079738E+03  0.7546771E-02  0.1143181E+00
         21   -1    0    0  503  502  0.00000000000E+00  0.00000000000E+00  0.30445850380E+03  0.30445850380E+03  0.00000000000E+00 0.  1.
          1   -1    0    0  505    0 -0.00000000000E+00 -0.00000000000E+00 -0.10655864493E+04  0.10655864493E+04  0.00000000000E+00 0. -1.
         21    1    1    2  503  501  0.52389276631E+02  0.24111244742E+03 -0.20411708867E+03  0.32022435025E+03  0.00000000000E+00 0.  1.
         21    1    1    2  504  502 -0.30567014985E+02 -0.37949155161E+02  0.16805282040E+02  0.51545109244E+02  0.00000000000E+00 0. -1.
         21    1    1    2  505  504 -0.56556690208E+02 -0.13092521326E+03  0.18592098563E+03  0.23432175224E+03  0.00000000000E+00 0.  1.
          1    1    1    2  501    0  0.34734428563E+02 -0.72238078999E+02 -0.75973712448E+03  0.76395374133E+03  0.00000000000E+00 0. -1.
<scales pt_clust_3="196.82550" pt_clust_4="39.26708" pt_clust_5="39.26708" pt_clust_6="80.15498"></scales>
<clustering>
<clus scale="   39.267">  4  5 -1 -1</clus>
<clus scale="   80.155">  2  6  1 -1</clus>
<clus scale="  196.826">  2  3  1 -1</clus>
<clus scale="  207.974">  1  3  2 -1</clus>
</clustering>
</event>
<event>
 6    0  0.2572175E+002  0.1345663E+03  0.7546771E-02  0.1220833E+00
         21   -1    0    0  505  502  0.00000000000E+00  0.00000000000E+00  0.77645638123E+02  0.77645638123E+02  0.00000000000E+00 0. -1.
          2   -1    0    0  503    0 -0.00000000000E+00 -0.00000000000E+00 -0.11240340413E+04  0.11240340413E+04  0.00000000000E+00 0. -1.
         21    1    1    2  503  504 -0.12194841251E+03 -0.14811413076E+03 -0.40362542023E+03  0.44690344696E+03  0.00000000000E+00 0. -1.
         21    1    1    2  504  502  0.11043601307E+03 -0.31922520222E+01 -0.51746113230E+02  0.12199985119E+03  0.00000000000E+00 0. -1.
         21    1    1    2  505  501 -0.16743579444E+02  0.32812501477E+02 -0.86954219315E+01  0.37849941458E+02  0.00000000000E+00 0. -1.
          2    1    1    2  501    0  0.28255978886E+02  0.11849388130E+03 -0.58232144775E+03  0.59492643979E+03  0.00000000000E+00 0. -1.
<scales pt_clust_3="134.56630" pt_clust_4="102.22925" pt_clust_5="36.83759" pt_clust_6="14000.00000"></scales>
<clustering>
<clus scale="   36.838">  1  5  2 -1</clus>
<clus scale="  102.229">  1  4  2 -1</clus>
<clus scale="  134.566">  1  3  2 -1</clus>
<clus scale="   36.838">  1  3  2 -1</clus>
</clustering>
</event>
<event>
 6    0  0.2572175E+002  0.5851332E+02  0.7546771E-02  0.1404179E+00
         21   -1    0    0  503  502  0.00000000000E+00  0.00000000000E+00  0.23488434975E+03  0.23488434975E+03  0.00000000000E+00 0. -1.
          2   -1    0    0  505    0 -0.00000000000E+00 -0.00000000000E+00 -0.26570546334E+03  0.26570546334E+03  0.00000000000E+00 0. -1.
         21    1    1    2  503  501 -0.52995146312E+02 -0.42819534585E+02  0.13460451140E+03  0.15086541208E+03  0.00000000000E+00 0. -1.
         21    1    1    2  504  502  0.67848334662E+01  0.51790089697E+02  0.44905545471E+02  0.68882184707E+02  0.00000000000E+00 0. -1.
         21    1    1    2  505  504  0.70138117225E+02 -0.58441770228E+02 -0.36139835783E+02  0.98188001944E+02  0.00000000000E+00 0. -1.
          2    1    1    2  501    0 -0.23927804379E+02  0.49471215117E+02 -0.17419133468E+03  0.18265421436E+03  0.00000000000E+00 0. -1.
<scales pt_clust_3="47.57165" pt_clust_4="52.23263" pt_clust_5="14000.00000" pt_clust_6="58.51332"></scales>
<clustering>
<clus scale="   52.233">  1  4  2 -1</clus>
<clus scale="   47.572">  1  3  2 -1</clus>
<clus scale="   58.513">  2  6  1 -1</clus>
<clus scale="   52.233">  1  3  2 -1</clus>
</clustering>
</event>
<event>
 6    0  0.2572175E+002  0.1321197E+03  0.7546771E-02  0.1224344E+00
         -3   -1    0    0    0  501 -0.00000000000E+00  0.00000000000E+00  0.23364201087E+03  0.23364201087E+03  0.00000000000E+00 0. -1.
         21   -1    0    0  503  502  0.00000000000E+00 -0.00000000000E+00 -0.90163398423E+03  0.90163398423E+03  0.00000000000E+00 0. -1.
         21    1    1    2  503  501 -0.12970873817E+03 -0.67515655037E+02 -0.68081938800E+03  0.69634600559E+03  0.00000000000E+00 0. -1.
         21    1    1    2  504  502  0.10369857868E+03  0.88572271111E+01 -0.12472094835E+03  0.16244125292E+03  0.00000000000E+00 0. -1.
         21    1    1    2  505  504 -0.21473229361E+02  0.52607500025E+02 -0.54398794369E+02  0.78663062913E+02  0.00000000000E+00 0.  1.
         -3    1    1    2    0  505  0.47483388850E+02  0.60509279013E+01  0.19194715736E+03  0.19782567367E+03  0.00000000000E+00 0. -1.
<scales pt_clust_3="132.11969" pt_clust_4="14000.00000" pt_clust_5="54.90094" pt_clust_6="47.86738"></scales>
<clustering>
<clus scale="   47.867">  1  6  2 -1</clus>
<clus scale="   54.901">  1  5  2 -1</clus>
<clus scale="  132.120">  2  3  1 -1</clus>
<clus scale="  132.120">  2  3  1 -1</clus>
</clustering>
</event>
<event>
 6    0  0.2572175E+002  0.7201873E+02  0.7546771E-02  0.1353360E+00
         21   -1    0    0  505  502  0.00000000000E+00  0.00000000000E+00  0.95870550246E+03  0.95870550246E+03  0.00000000000E+00 0.  1.
          1   -1    0    0  504    0 -0.00000000000E+00 -0.00000000000E+00 -0.45389678211E+03  0.45389678211E+03  0.00000000000E+00 0.  1.
         21    1    1    2  503  502 -0.81008376917E+02 -0.55223673125E+02  0.75243313510E+03  0.75879353845E+03  0.00000000000E+00 0.  1.
         21    1    1    2  504  503 -0.50284323991E+02  0.47973701902E+02 -0.13802642591E+02  0.70855502651E+02  0.00000000000E+00 0.  1.
         21    1    1    2  505  501  0.43686261238E+02 -0.56443446809E+01  0.16687387780E+03  0.17258980022E+03  0.00000000000E+00 0. -1.
          1    1    1    2  501    0  0.87606439671E+02  0.12894315904E+02 -0.40069564996E+03  0.41036344325E+03  0.00000000000E+00 0.  1.
<scales pt_clust_3="14000.00000" pt_clust_4="68.22091" pt_clust_5="44.04938" pt_clust_6="72.01873"></scales>
<clustering>
<clus scale="   44.049">  1  5  2 -1</clus>
<clus scale="   68.221">  2  4  1 -1</clus>
<clus scale="   72.019">  2  6  1 -1</clus>
<clus scale="   44.049">  1  3  2 -1</clus>
</clustering>
</event>
<event>
 6    0  0.2572175E+002  0.9061154E+02  0.7546771E-02  0.1301377E+00
         21   -1    0    0  504  502  0.00000000000E+00  0.00000000000E+00  0.17104124920E+03  0.17104124920E+03  0.00000000000E+00 0. -1.
          3   -1    0    0  503    0 -0.00000000000E+00 -0.00000000000E+00 -0.23200600407E+03  0.23200600407E+03  0.00000000000E+00 0. -1.
         21    1    1    2  503  505 -0.59824705621E+02  0.31618041222E+02 -0.21718162018E+02  0.71065986905E+02  0.00000000000E+00 0. -1.
         21    1    1    2  504  501  0.11334250700E+03 -0.68457192182E+02  0.20245691857E+02  0.13395073383E+03  0.00000000000E+00 0. -1.
         21    1    1    2  505  502 -0.25535171720E+02  0.50566754939E+02  0.55249997444E+02  0.79130297089E+02  0.00000000000E+00 0. -1.
          3    1    1    2  501    0 -0.27982629662E+02 -0.13727603979E+02 -0.11474228215E+03  0.11890023544E+03  0.00000000000E+00 0. -1.
<scales pt_clust_3="90.61154" pt_clust_4="14000.00000" pt_clust_5="56.77769" pt_clust_6="31.16849"></scales>
<clustering>
<clus scale="   31.168">  2  6  1 -1</clus>
<clus scale="   56.778">  1  5  2 -1</clus>
<clus scale="   90.612">  2  3  1 -1</clus>
<clus scale="   56.778">  1  3  2 -1</clus>
</clustering>
</event>
<event>
 6    0  0.3366472E+002  0.6869451E+02  0.7546771E-02  0.1364590E+00
         21   -1    0    0  505  502  0.00000000000E+00  0.00000000000E+00  0.14867568387E+04  0.14867568387E+04  0.00000000000E+00 0. -1.
          2   -1    0    0  503    0 -0.00000000000E+00 -0.00000000000E+00 -0.87924537796E+03  0.87924537796E+03  0.00000000000E+00 0.  1.
         21    1    1    2  503  504 -0.68915825117E+02 -0.12086258634E+03  0.12800438929E+04  0.12875828220E+04  0.00000000000E+00 0. -1.
         21    1    1    2  504  502  0.37040376477E+02  0.38285501589E+02  0.15475837028E+03  0.16367016311E+03  0.00000000000E+00 0.  1.
         21    1    1    2  505  501  0.42850919679E+02  0.14807953099E+02  0.30225589203E+02  0.54489109324E+02  0.00000000000E+00 0.  1.
          2    1    1    2  501    0 -0.10975471039E+02  0.67769131657E+02 -0.85751639159E+03  0.86026012230E+03  0.00000000000E+00 0.  1.
<scales pt_clust_3="68.69451" pt_clust_4="57.77232" pt_clust_5="45.33737" pt_clust_6="14000.00000"></scales>
<clustering>
<clus scale="   45.337">  1  5  2 -1</clus>
<clus scale="   57.772">  1  4  2 -1</clus>
<clus scale="   68.695">  1  3  2 -1</clus>
<clus scale="   45.337">  1  3  2 -1</clus>
</clustering>
</event>
<event>
 6    0  0.2572175E+002  0.8178612E+02  0.7546771E-02  0.1324058E+00
         -2   -1    0    0    0  501 -0.00000000000E+00  0.00000000000E+00  0.12802664945E+03  0.12802664945E+03  0.00000000000E+00 0. -1.
         21   -1    0    0  504  502  0.00000000000E+00 -0.00000000000E+00 -0.87102046647E+03  0.87102046647E+03  0.00000000000E+00 0. -1.
         21    1    1    2  503  502 -0.75912059091E+02  0.98085870183E+02 -0.26170473972E+03  0.28960809629E+03  0.00000000000E+00 0. -1.
         21    1    1    2  504  505  0.30684594147E+02 -0.21571867991E+02 -0.15589880621E+03  0.16034752129E+03  0.00000000000E+00 0. -1.
         21    1    1    2  505  501  0.73190340863E+01 -0.52672218825E+02 -0.43105802042E+03  0.43432585447E+03  0.00000000000E+00 0. -1.
         -2    1    1    2    0  503  0.37908430857E+02 -0.23841783368E+02  0.10566774933E+03  0.11476564387E+03  0.00000000000E+00 0. -1.
<scales pt_clust_3="14000.00000" pt_clust_4="37.50853" pt_clust_5="81.78612" pt_clust_6="45.02161"></scales>
<clustering>
<clus scale="   37.509">  2  4  1 -1</clus>
<clus scale="   45.022">  1  6  2 -1</clus>
<clus scale="   81.786">  2  5  1 -1</clus>
<clus scale="   37.509">  2  3  1 -1</clus>
</clustering>
</event>
<event>
 6    0  0.2572175E+002  0.4446515E+03  0.7546771E-02  0.1029329E+00
         21   -1    0    0  504  502  0.00000000000E+00  0.00000000000E+00  0.13299111330E+04  0.13299111330E+04  0.00000000000E+00 0.  1.
          1   -1    0    0  502    0 -0.00000000000E+00 -0.00000000000E+00 -0.73814616266E+03  0.73814616266E+03  0.00000000000E+00 0. -1.
         21    1    1    2  503  501 -0.21510396579E+03  0.33725574050E+02 -0.12037293120E+03  0.24879062082E+03  0.00000000000E+00 0. -1.
         21    1    1    2  504  505  0.42898584083E+03 -0.16693333932E+03  0.11728770594E+04  0.12599746775E+04  0.00000000000E+00 0.  1.
         21    1    1    2  505  503 -0.69977980466E+02  0.61055860934E+02 -0.27108675135E+02  0.96745109293E+02  0.00000000000E+00 0. -1.
          1    1    1    2  501    0 -0.14390389458E+03  0.72151904336E+02 -0.43363048270E+03  0.46254688811E+03  0.00000000000E+00 0. -1.
<scales pt_clust_3="56.13902" pt_clust_4="436.26381" pt_clust_5="56.13902" pt_clust_6="160.97897"></scales>
<clustering>
<clus scale="   56.139">  3  5 -1 -1</clus>
<clus scale="  160.979">  2  6  1 -1</clus>
<clus scale="  436.264">  1  4  2 -1</clus>
<clus scale="  436.264">  1  3  2 -1</clus>
</clustering>
</event>
<event>
 6    0  0.2572175E+002  0.8621741E+02  0.7546771E-02  0.1312279E+00
         21   -1    0    0  503  502  0.00000000000E+00  0.00000000000E+00  0.88262602438E+03  0.88262602438E+03  0.00000000000E+00 0. -1.
          3   -1    0    0  502    0 -0.00000000000E+00 -0.00000000000E+00 -0.60204774656E+02  0.60204774656E+02  0.00000000000E+00 0.  1.
         21    1    1    2  503  504  0.10897775405E+02  0.34092876262E+02  0.45356782746E+03  0.45497786741E+03  0.00000000000E+00 0. -1.
         21    1    1    2  504  505  0.41182303608E+02  0.58896881107E+02  0.24066793547E+03  0.25116902655E+03  0.00000000000E+00 0. -1.
         21    1    1    2  505  501  0.21237306361E+02 -0.10385704903E+03  0.12301057465E+03  0.16238507102E+03  0.00000000000E+00 0.  1.
          3    1    1    2  501    0 -0.73317385374E+02  0.10867291658E+02  0.51749121324E+01  0.74298834053E+02  0.00000000000E+00 0.  1.
<scales pt_clust_3="35.79226" pt_clust_4="86.21741" pt_clust_5="14000.00000" pt_clust_6="73.65501"></scales>
<clustering>
<clus scale="   35.792">  1  3  2 -1</clus>
<clus scale="   73.655">  2  6  1 -1</clus>
<clus scale="   86.217">  1  4  2 -1</clus>
<clus scale="   35.792">  1  3  2 -1</clus>
</clustering>
</event>
<event>
 6    0  0.2572175E+002  0.1229253E+03  0.7546771E-02  0.1238348E+00
          1   -1    0    0  505    0 -0.00000000000E+00  0.00000000000E+00  0.45259108869E+04  0.45259108869E+04  0.00000000000E+00 0.  1.
         21   -1    0    0  504  502  0.00000000000E+00 -0.00000000000E+00 -0.12835343816E+03  0.12835343816E+03  0.00000000000E+00 0.  1.
         21    1    1    2  503  502 -0.59704720984E+02 -0.14305869146E+02 -0.10839726931E+02  0.62344296289E+02  0.00000000000E+00 0.  1.
         21    1    1    2  504  501  0.75684085305E+02  0.85186928333E+01  0.14228257782E+03  0.16138457437E+03  0.00000000000E+00 0. -1.
         21    1    1    2  505  503 -0.70247025701E+02 -0.88544960270E+02 -0.42347848427E+02  0.12069877744E+03  0.00000000000E+00 0.  1.
          1    1    1    2  501    0  0.54267661381E+02  0.94332136583E+02  0.43084624463E+04  0.43098366770E+04  0.00000000000E+00 0.  1.
<scales pt_clust_3="41.75762" pt_clust_4="76.16199" pt_clust_5="41.75762" pt_clust_6="109.08955"></scales>
<clustering>
<clus scale="   41.758">  3  5 -1 -1</clus>
<clus scale="   76.162">  2  4  1 -1</clus>
<clus scale="  109.090">  1  6  2 -1</clus>
<clus scale="   76.162">  2  3  1 -1</clus>
</clustering>
</event>
<event>
 6    0  0.2572175E+002  0.8205253E+02  0.7546771E-02  0.1323326E+00
         21   -1    0    0  503  502  0.00000000000E+00  0.00000000000E+00  0.15406197436E+03  0.15406197436E+03  0.00000000000E+00 0. -1.
          2   -1    0    0  504    0 -0.00000000000E+00 -0.00000000000E+00 -0.36440147842E+04  0.36440147842E+04  0.00000000000E+00 0. -1.
         21    1    1    2  503  501 -0.24187195375E+02  0.97644503253E+02 -0.25413381230E+02  0.10375600889E+03  0.00000000000E+00 0.  1.
         21    1    1    2  504  505  0.37655531436E+01 -0.12342248901E+03 -0.11173233222E+04  0.11241257476E+04  0.00000000000E+00 0.  1.
         21    1    1    2  505  502  0.27706804413E+02 -0.19060751365E+02  0.10873855152E+03  0.11382026112E+03  0.00000000000E+00 0. -1.
          2    1    1    2  501    0 -0.72851621815E+01  0.44838737125E+02 -0.24559546579E+04  0.24563747409E+04  0.00000000000E+00 0. -1.
<scales pt_clust_3="82.05253" pt_clust_4="14000.00000" pt_clust_5="33.63003" pt_clust_6="45.31268"></scales>
<clustering>
<clus scale="   33.630">  1  5  2 -1</clus>
<clus scale="   45.313">  2  6  1 -1</clus>
<clus scale="   82.053">  1  3  2 -1</clus>
<clus scale="   33.630">  1  3  2 -1</clus>
</clustering>
</event>
<event>
 6    0  0.2572175E+002  0.8939001E+02  0.7546771E-02  0.1304336E+00
          2   -1    0    0  504    0 -0.00000000000E+00  0.00000000000E+00  0.17656293917E+04  0.17656293917E+04  0.00000000000E+00 0.  1.
         21   -1    0    0  505  502  0.00000000000E+00 -0.00000000000E+00 -0.14318351338E+02  0.14318351338E+02  0.00000000000E+00 0.  1.
         21    1    1    2  503  502 -0.95311161674E+02 -0.81589292843E+01  0.24756122973E+03  0.26540035443E+03  0.00000000000E+00 0.  1.
         21    1    1    2  504  503  0.10501654091E+01  0.51553189567E+02  0.57147206149E+03  0.57379364868E+03  0.00000000000E+00 0.  1.
         21    1    1    2  505  501  0.79288998577E+02 -0.14972909590E+02  0.43371500476E+03  0.44115715870E+03  0.00000000000E+00 0.  1.
          2    1    1    2  501    0  0.14971997688E+02 -0.28421350692E+02  0.49856274443E+03  0.49959658128E+03  0.00000000000E+00 0.  1.
<scales pt_clust_3="89.39001" pt_clust_4="39.48530" pt_clust_5="14000.00000" pt_clust_6="32.12373"></scales>
<clustering>
<clus scale="   32.124">  1  6  2 -1</clus>
<clus scale="   39.485">  1  4  2 -1</clus>
<clus scale="   89.390">  2  3  1 -1</clus>
<clus scale="   89.390">  2  3  1 -1</clus>
</clustering>
</event>
<event>
 6    0  0.2572175E+002  0.6906591E+02  0.7546771E-02  0.1363299E+00
          1   -1    0    0  504    0 -0.00000000000E+00  0.00000000000E+00  0.20693206480E+04  0.20693206480E+04  0.00000000000E+00 0. -1.
         21   -1    0    0  503  502  0.00000000000E+00 -0.00000000000E+00 -0.48177740587E+03  0.48177740587E+03  0.00000000000E+00 0.  1.
         21    1    1    2  503  501  0.47813430545E+02 -0.59754941504E+02 -0.11204035558E+02  0.77345378578E+02  0.00000000000E+00 0.  1.
         21    1    1    2  504  505  0.40874615789E+01  0.56631763979E+02  0.66533779130E+03  0.66775612357E+03  0.00000000000E+00 0. -1.
         21    1    1    2  505  502  0.57265390563E+01  0.69842702370E+02 -0.43204884344E+03  0.43769509872E+03  0.00000000000E+00 0.  1.
          1    1    1    2  501    0 -0.57627431180E+02 -0.66719524846E+02  0.13654583299E+04  0.13683014530E+04  0.00000000000E+00 0. -1.
<scales pt_clust_3="69.06591" pt_clust_4="56.77908" pt_clust_5="14000.00000" pt_clust_6="54.87110"></scales>
<clustering>
<clus scale="   56.779">  1  4  2 -1</clus>
<clus scale="   54.871">  1  6  2 -1</clus>
<clus scale="   69.066">  1  3  2 -1</clus>
<clus scale="   69.066">  2  3  1 -1</clus>
</clustering>
</event>
<event>
 6    0  0.2572175E+002  0.8917913E+02  0.7546771E-02  0.1304852E+00
         21   -1    0    0  505  502  0.00000000000E+00  0.00000000000E+00  0.68852683355E+03  0.68852683355E+03  0.00000000000E+00 0.  1.
         -3   -1    0    0    0  501 -0.00000000000E+00 -0.00000000000E+00 -0.47301537645E+03  0.47301537645E+03  0.00000000000E+00 0.  1.
         21    1    1    2  503  501  0.33497941150E+02  0.93228090705E+02 -0.37863565135E+02  0.10605299865E+03  0.00000000000E+00 0.  1.
         21    1    1    2  504  502  0.40222990895E+02 -0.56411286459E+02  0.31084526076E+03  0.31847275924E+03  0.00000000000E+00 0.  1.
         21    1    1    2  505  503 -0.20846752264E+02  0.33893842664E+02  0.33367020797E+03  0.33603450319E+03  0.00000000000E+00 0.  1.
         -3    1    1    2    0  504 -0.52874179781E+02 -0.70710646910E+02 -0.39114044649E+03  0.40098194892E+03  0.00000000000E+00 0.  1.
<scales pt_clust_3="89.17913" pt_clust_4="34.04771" pt_clust_5="39.79170" pt_clust_6="14000.00000"></scales>
<clustering>
<clus scale="   39.792">  1  5  2 -1</clus>
<clus scale="   34.048">  1  4  2 -1</clus>
<clus scale="   89.179">  1  3  2 -1</clus>
<clus scale="   39.792">  1  3  2 -1</clus>
</clustering>
</event>
<event>
 6    0  0.2572175E+002  0.1307902E+03  0.7546771E-02  0.1226288E+00
         21   -1    0    0  503  502  0.00000000000E+00  0.00000000000E+00  0.19055801887E+03  0.19055801887E+03  0.00000000000E+00 0. -1.
          2   -1    0    0  505    0 -0.00000000000E+00 -0.00000000000E+00 -0.53594206456E+03  0.53594206456E+03  0.00000000000E+00 0. -1.
         21    1    1    2  503  504  0.10516592821E+03  0.64490712168E+02  0.10481648463E+03  0.16188088171E+03  0.00000000000E+00 0. -1.
         21    1    1    2  504  501  0.77557865674E+01  0.40922710536E+02 -0.21614005580E+02  0.46925320458E+02  0.00000000000E+00 0. -1.
         21    1    1    2  505  502 -0.13166905765E+03 -0.14103962485E+03 -0.17360139259E+03  0.25955030346E+03  0.00000000000E+00 0. -1.
          2    1    1    2  501    0  0.18747342870E+02  0.35626202148E+02 -0.25498513215E+03  0.25814357781E+03  0.00000000000E+00 0. -1.
<scales pt_clust_3="14000.00000" pt_clust_4="46.39555" pt_clust_5="130.79020" pt_clust_6="40.25778"></scales>
<clustering>
<clus scale="   40.258">  2  6  1 -1</clus>
<clus scale="   46.396">  2  4  1 -1</clus>
<clus scale="  130.790">  2  5  1 -1</clus>
<clus scale="  130.790">  1  3  2 -1</clus>
</clustering>
</event>
<event>
 6    0  0.2572175E+002  0.1143357E+03  0.7546771E-02  0.1252745E+00
         21   -1    0    0  503  502  0.00000000000E+00  0.00000000000E+00  0.63518961554E+03  0.63518961554E+03  0.00000000000E+00 0. -1.
          2   -1    0    0  504    0 -0.00000000000E+00 -0.00000000000E+00 -0.51509285145E+03  0.51509285145E+03  0.00000000000E+00 0. -1.
         21    1    1    2  503  505  0.34198376974E+02 -0.72161351047E+01  0.23285058679E+03  0.23545912037E+03  0.00000000000E+00 0. -1.
         21    1    1    2  504  502 -0.70491514210E+02  0.70981887093E+02  0.31831108097E+03  0.33366064517E+03  0.00000000000E+00 0. -1.
         21    1    1    2  505  501 -0.60892741379E+02 -0.12312645807E+03 -0.21402685972E+01  0.13737769608E+03  0.00000000000E+00 0. -1.
          2    1    1    2  501    0  0.97185878615E+02  0.59360706083E+02 -0.42892463507E+03  0.44378500538E+03  0.00000000000E+00 0. -1.
<scales pt_clust_3="34.95142" pt_clust_4="77.86401" pt_clust_5="14000.00000" pt_clust_6="114.33565"></scales>
<clustering>
<clus scale="   34.951">  1  3  2 -1</clus>
<clus scale="   77.864">  1  4  2 -1</clus>
<clus scale="  114.336">  2  6  1 -1</clus>
<clus scale="   34.951">  1  3  2 -1</clus>
</clustering>
</event>
<event>
 6    0  0.2572175E+002  0.1028320E+03  0.7546771E-02  0.1274451E+00
         21   -1    0    0  503  502  0.00000000000E+00  0.00000000000E+00  0.10121213068E+04  0.10121213068E+04  0.00000000000E+00 0.  1.
          1   -1    0    0  505    0 -0.00000000000E+00 -0.00000000000E+00 -0.25425351095E+04  0.25425351095E+04  0.00000000000E+00 0. -1.
         21    1    1    2  503  501 -0.46335259226E+02 -0.26203949132E+02  0.53848117141E+02  0.75718048821E+02  0.00000000000E+00 0. -1.
         21    1    1    2  504  502  0.14682954466E+03  0.44912427811E+00  0.93885503394E+03  0.95026727380E+03  0.00000000000E+00 0.  1.
         21    1    1    2  505  504 -0.68123229108E+02  0.15620584685E+02 -0.46035121535E+03  0.46562647958E+03  0.00000000000E+00 0. -1.
          1    1    1    2  501    0 -0.32371056330E+02  0.10134240169E+02 -0.20627657385E+04  0.20630446141E+04  0.00000000000E+00 0. -1.
<scales pt_clust_3="53.76323" pt_clust_4="102.83201" pt_clust_5="14000.00000" pt_clust_6="33.92032"></scales>
<clustering>
<clus scale="   33.920">  2  6  1 -1</clus>
<clus scale="   53.763">  1  3  2 -1</clus>
<clus scale="  102.832">  1  4  2 -1</clus>
<clus scale="   53.763">  1  3  2 -1</clus>
</clustering>
</event>
<event>
 6    0  0.2572175E+002  0.1538457E+03  0.7546771E-02  0.1195825E+00
         21   -1    0    0  504  502  0.00000000000E+00  0.00000000000E+00  0.63444361615E+03  0.63444361615E+03  0.00000000000E+00 0. -1.
         -4   -1    0    0    0  501 -0.00000000000E+00 -0.00000000000E+00 -0.41303693078E+03  0.41303693078E+03  0.00000000000E+00 0.  1.
         21    1    1    2  503  505 -0.67728641793E+01  0.11328074831E+03  0.20193448263E+03  0.23163750755E+03  0.00000000000E+00 0. -1.
         21    1    1    2  504  501 -0.10679527087E+03 -0.24402646589E+02 -0.16186655646E+03  0.19545204308E+03  0.00000000000E+00 0. -1.
         21    1    1    2  505  502 -0.71945672313E+01  0.51691454338E+02  0.35953133176E+03  0.36329952762E+03  0.00000000000E+00 0. -1.
         -4    1    1    2    0  503  0.12076270228E+03 -0.14056955606E+03 -0.17819257256E+03  0.25709146869E+03  0.00000000000E+00 0.  1.
<scales pt_clust_3="14000.00000" pt_clust_4="109.31775" pt_clust_5="52.18973" pt_clust_6="153.84570"></scales>
<clustering>
<clus scale="   52.190">  1  5  2 -1</clus>
<clus scale="  109.318">  2  4  1 -1</clus>
<clus scale="  153.846">  2  6  1 -1</clus>
<clus scale="   52.190">  1  3  2 -1</clus>
</clustering>
</event>
<event>
 6    0  0.2572175E+002  0.1310082E+03  0.7546771E-02  0.1225967E+00
          2   -1    0    0  505    0 -0.00000000000E+00  0.00000000000E+00  0.14933529121E+04  0.14933529121E+04  0.00000000000E+00 0. -1.
         21   -1    0    0  503  502  0.00000000000E+00 -0.00000000000E+00 -0.20877112044E+03  0.20877112044E+03  0.00000000000E+00 0. -1.
         21    1    1    2  503  501 -0.79116671123E+02 -0.81978925584E+02  0.95186698990E+02  0.14846043094E+03  0.00000000000E+00 0. -1.
         21    1    1    2  504  502  0.12339761688E+02  0.13937384770E+03 -0.14644348630E+03  0.20254143729E+03  0.00000000000E+00 0. -1.
         21    1    1    2  505  504  0.37213616642E+02 -0.16638108119E+02  0.50962351198E+02  0.65259797310E+02  0.00000000000E+00 0. -1.
          2    1    1    2  501    0  0.29563292793E+02 -0.40756813996E+02  0.12848762278E+04  0.12858623670E+04  0.00000000000E+00 0. -1.
<scales pt_clust_3="14000.00000" pt_clust_4="131.00819" pt_clust_5="40.76371" pt_clust_6="83.98232"></scales>
<clustering>
<clus scale="   40.764">  1  5  2 -1</clus>
<clus scale="   83.982">  1  6  2 -1</clus>
<clus scale="  131.008">  2  4  1 -1</clus>
<clus scale="  131.008">  2  3  1 -1</clus>
</clustering>
</event>
<event>
 6    0  0.2572175E+002  0.1134054E+03  0.7546771E-02  0.1254390E+00
         21   -1    0    0  505  502  0.00000000000E+00  0.00000000000E+00  0.24320368103E+03  0.24320368103E+03  0.00000000000E+00 0. -1.
         -3   -1    0    0    0  501 -0.00000000000E+00 -0.00000000000E+00 -0.11336431209E+03  0.11336431209E+03  0.00000000000E+00 0. -1.
         21    1    1    2  503  501 -0.21843758788E+01  0.33617089744E+02 -0.31997433673E+01  0.33839600743E+02  0.00000000000E+00 0. -1.
         21    1    1    2  504  502 -0.10440785318E+03 -0.70833240258E+02  0.13534917628E+03  0.18503444882E+03  0.00000000000E+00 0. -1.
         21    1    1    2  505  503  0.15241096437E+02  0.30684834750E+02  0.24668909357E+02  0.42218540869E+02  0.00000000000E+00 0. -1.
         -3    1    1    2    0  504  0.91351132620E+02  0.65313157645E+01 -0.26978973334E+02  0.95475402689E+02  0.00000000000E+00 0. -1.
<scales pt_clust_3="31.64882" pt_clust_4="14000.00000" pt_clust_5="72.96517" pt_clust_6="113.40539"></scales>
<clustering>
<clus scale="   31.649">  3  5 -1 -1</clus>
<clus scale="   72.965">  2  3  1 -1</clus>
<clus scale="  113.405">  2  6  1 -1</clus>
<clus scale="  113.405">  1  3  2 -1</clus>
</clustering>
</event>
<event>
 6    0  0.2572175E+002  0.9682223E+02  0.7546771E-02  0.1287124E+00
          1   -1    0    0  504    0 -0.00000000000E+00  0.00000000000E+00  0.44253272268E+03  0.44253272268E+03  0.00000000000E+00 0. -1.
         21   -1    0    0  505  502  0.00000000000E+00 -0.00000000000E+00 -0.72752191019E+03  0.72752191019E+03  0.00000000000E+00 0. -1.
         21    1    1    2  503  502 -0.15942258268E+02 -0.26909719666E+02 -0.69224222495E+02  0.75962369573E+02  0.00000000000E+00 0. -1.
         21    1    1    2  504  503  0.56843510789E+02  0.10658946898E+03  0.93857565470E+02  0.15297627990E+03  0.00000000000E+00 0. -1.
         21    1    1    2  505  501 -0.57973129409E+02 -0.36437997127E+02 -0.62176823914E+03  0.62552726125E+03  0.00000000000E+00 0. -1.
          1    1    1    2  501    0  0.17071876887E+02 -0.43241752191E+02  0.31214570865E+03  0.31558872214E+03  0.00000000000E+00 0. -1.
<scales pt_clust_3="31.27761" pt_clust_4="96.82223" pt_clust_5="14000.00000" pt_clust_6="46.54021"></scales>
<clustering>
<clus scale="   31.278">  2  3  1 -1</clus>
<clus scale="   46.540">  1  6  2 -1</clus>
<clus scale="   96.822">  1  4  2 -1</clus>
<clus scale="   31.278">  2  3  1 -1</clus>
</clustering>
</event>
<event>
 6    0  0.2572175E+002  0.6985199E+02  0.7546771E-02  0.1360597E+00
          1   -1    0    0  503    0 -0.00000000000E+00  0.00000000000E+00  0.52085957982E+03  0.52085957982E+03  0.00000000000E+00 0.  1.
         21   -1    0    0  505  502  0.00000000000E+00 -0.00000000000E+00 -0.75849439836E+02  0.75849439836E+02  0.00000000000E+00 0.  1.
         21    1    1    2  503  502  0.75305506056E+02 -0.93865138674E+02  0.13943860340E+03  0.18418661086E+03  0.00000000000E+00 0.  1.
         21    1    1    2  504  501 -0.32520314496E+02  0.20506081003E+02 -0.31307967790E+02  0.49580833597E+02  0.00000000000E+00 0.  1.
         21    1    1    2  505  504 -0.32012963198E+02  0.99404567271E+01  0.18820738291E+02  0.38442979626E+02  0.00000000000E+00 0. -1.
          1    1    1    2  501    0 -0.10772228362E+02  0.63418600943E+02  0.31805876608E+03  0.32449859558E+03  0.00000000000E+00 0.  1.
<scales pt_clust_3="69.85199" pt_clust_4="58.51829" pt_clust_5="33.52078" pt_clust_6="14000.00000"></scales>
<clustering>
<clus scale="   33.521">  2  5  1 -1</clus>
<clus scale="   58.518">  2  4  1 -1</clus>
<clus scale="   69.852">  2  3  1 -1</clus>
<clus scale="   33.521">  2  3  1 -1</clus>
</clustering>
</event>
<event>
 6    0  0.2572175E+002  0.1582910E+03  0.7546771E-02  0.1190640E+00
         21   -1    0    0  503  502  0.00000000000E+00  0.00000000000E+00  0.31641539359E+03  0.31641539359E+03  0.00000000000E+00 0. -1.
          2   -1    0    0  504    0 -0.00000000000E+00 -0.00000000000E+00 -0.87733322993E+03  0.87733322993E+03  0.00000000000E+00 0. -1.
         21    1    1    2  503  501 -0.33644320669E+02 -0.16328205018E+03 -0.32021550520E+03  0.36101376427E+03  0.00000000000E+00 0. -1.
         21    1    1    2  504  505  0.54036933626E+02  0.14946256116E+03  0.14647558993E+03  0.21613455492E+03  0.00000000000E+00 0.  1.
         21    1    1    2  505  502 -0.82485409669E+02  0.86853594017E+01  0.97459069338E+02  0.12797479624E+03  0.00000000000E+00 0. -1.
          2    1    1    2  501    0  0.62092796713E+02  0.51341296160E+01 -0.48463699041E+03  0.48862550810E+03  0.00000000000E+00 0. -1.
<scales pt_clust_3="158.29096" pt_clust_4="14000.00000" pt_clust_5="80.55214" pt_clust_6="62.30469"></scales>
<clustering>
<clus scale="   62.305">  2  6  1 -1</clus>
<clus scale="   80.552">  1  5  2 -1</clus>
<clus scale="  158.291">  2  3  1 -1</clus>
<clus scale="   80.552">  1  3  2 -1</clus>
</clustering>
</event>
<event>
 6    0  0.2572175E+002  0.1439035E+03  0.7546771E-02  0.1208171E+00
          2   -1    0    0  503    0 -0.00000000000E+00  0.00000000000E+00  0.11722633329E+04  0.11722633329E+04  0.00000000000E+00 0. -1.
         21   -1    0    0  504  502  0.00000000000E+00 -0.00000000000E+00 -0.93054033846E+03  0.93054033846E+03  0.00000000000E+00 0.  1.
         21    1    1    2  503  505 -0.14661243889E+02  0.64394929736E+02  0.20037436968E+03  0.21097759851E+03  0.00000000000E+00 0. -1.
         21    1    1    2  504  501  0.65552156108E+02 -0.44596558100E+02 -0.73948120128E+03  0.74371929195E+03  0.00000000000E+00 0.  1.
         21    1    1    2  505  502  0.57141449170E+02 -0.33302480470E+02 -0.17448966328E+03  0.18660343783E+03  0.00000000000E+00 0. -1.
          2    1    1    2  501    0 -0.10803236139E+03  0.13504108834E+02  0.95531948929E+03  0.96150334304E+03  0.00000000000E+00 0. -1.
<scales pt_clust_3="66.04286" pt_clust_4="14000.00000" pt_clust_5="65.85587" pt_clust_6="143.90352"></scales>
<clustering>
<clus scale="   66.043">  1  3  2 -1</clus>
<clus scale="   65.856">  2  5  1 -1</clus>
<clus scale="  143.904">  1  6  2 -1</clus>
<clus scale="   65.856">  2  3  1 -1</clus>
</clustering>
</event>
<event>
 6    0  0.2572175E+002  0.8502591E+02  0.7546771E-02  0.1315365E+00
         21   -1    0    0  503  502  0.00000000000E+00  0.00000000000E+00  0.26172463380E+03  0.26172463380E+03  0.00000000000E+00 0. -1.
          1   -1    0    0  505    0 -0.00000000000E+00 -0.00000000000E+00 -0.11283666008E+04  0.11283666008E+04  0.00000000000E+00 0. -1.
         21    1    1    2  503  504 -0.91354187347E+01  0.30790675544E+02  0.52213359785E+02  0.61300542542E+02  0.00000000000E+00 0. -1.
         21    1    1    2  504  501  0.11374514148E+03 -0.73926180135E+01 -0.50168467726E+03  0.51447072162E+03  0.00000000000E+00 0. -1.
         21    1    1    2  505  502 -0.70807538379E+02 -0.20025914594E+01  0.19158001704E+03  0.20425626256E+03  0.00000000000E+00 0. -1.
          1    1    1    2  501    0 -0.33802184364E+02 -0.21395466071E+02 -0.60875066652E+03  0.61006370784E+03  0.00000000000E+00 0. -1.
<scales pt_clust_3="32.11731" pt_clust_4="85.02591" pt_clust_5="14000.00000" pt_clust_6="39.97652"></scales>
<clustering>
<clus scale="   32.117">  1  3  2 -1</clus>
<clus scale="   39.977">  2  6  1 -1</clus>
<clus scale="   85.026">  2  4  1 -1</clus>
<clus scale="   32.117">  1  3  2 -1</clus>
</clustering>
</event>
<event>
 6    0  0.2572175E+002  0.1657890E+03  0.7546771E-02  0.1182312E+00
         21   -1    0    0  503  502  0.00000000000E+00  0.00000000000E+00  0.23532025714E+03  0.23532025714E+03  0.00000000000E+00 0. -1.
          1   -1    0    0  504    0 -0.00000000000E+00 -0.00000000000E+00 -0.62303886058E+03  0.62303886058E+03  0.00000000000E+00 0. -1.
         21    1    1    2  503  501  0.12850973819E+03 -0.10140746382E+03  0.16189555620E+03  0.23023552646E+03  0.00000000000E+00 0. -1.
         21    1    1    2  504  505 -0.82841114205E+02  0.23491298085E+02 -0.73261858792E+02  0.11305658425E+03  0.00000000000E+00 0.  1.
         21    1    1    2  505  502 -0.54225755650E+02  0.48141573643E+02 -0.51150016686E+02  0.88737635171E+02  0.00000000000E+00 0.  1.
          1    1    1    2  501    0  0.85571316682E+01  0.29774592093E+02 -0.42520228416E+03  0.42632937184E+03  0.00000000000E+00 0. -1.
<scales pt_clust_3="161.74670" pt_clust_4="34.37063" pt_clust_5="34.37063" pt_clust_6="30.97985"></scales>
<clustering>
<clus scale="   30.980">  2  6  1 -1</clus>
<clus scale="   34.371">  4  5 -1 -1</clus>
<clus scale="  161.747">  1  3  2 -1</clus>
<clus scale="  161.747">  1  3  2 -1</clus>
</clustering>
</event>
<event>
 6    0  0.2572175E+002  0.1103426E+03  0.7546771E-02  0.1259937E+00
         21   -1    0    0  505  502  0.00000000000E+00  0.00000000000E+00  0.17124624977E+03  0.17124624977E+03  0.00000000000E+00 0. -1.
         -2   -1    0    0    0  501 -0.00000000000E+00 -0.00000000000E+00 -0.43011088429E+03  0.43011088429E+03  0.00000000000E+00 0.  1.
         21    1    1    2  503  502 -0.30951725436E+02  0.12565159311E+03 -0.46904390542E+02  0.13764575552E+03  0.00000000000E+00 0.  1.
         21    1    1    2  504  501  0.97053735109E+01 -0.53665053996E+02  0.30450482236E+02  0.62460901080E+02  0.00000000000E+00 0. -1.
         21    1    1    2  505  504 -0.62381752053E+01 -0.43088534080E+02  0.72097696926E+02  0.84223598244E+02  0.00000000000E+00 0. -1.
         -2    1    1    2    0  503  0.27484527130E+02 -0.28898005039E+02 -0.31450842313E+03  0.31702687922E+03  0.00000000000E+00 0.  1.
<scales pt_clust_3="102.70614" pt_clust_4="36.03944" pt_clust_5="36.03944" pt_clust_6="39.88100"></scales>
<clustering>
<clus scale="   36.039">  4  5 -1 -1</clus>
<clus scale="   39.881">  2  6  1 -1</clus>
<clus scale="  102.706">  2  3  1 -1</clus>
<clus scale="  110.343">  1  3  2 -1</clus>
</clustering>
</event>
<event>
 6    0  0.2572175E+002  0.9382161E+02  0.7546771E-02  0.1293852E+00
          3   -1    0    0  505    0 -0.00000000000E+00  0.00000000000E+00  0.38492947803E+04  0.38492947803E+04  0.00000000000E+00 0. -1.
         21   -1    0    0  504  502  0.00000000000E+00 -0.00000000000E+00 -0.58481926477E+02  0.58481926477E+02  0.00000000000E+00 0. -1.
         21    1    1    2  503  502  0.38449315424E+02  0.70621400032E+01 -0.98459329008E+01  0.40313348567E+02  0.00000000000E+00 0. -1.
         21    1    1    2  504  501 -0.25247576268E+02 -0.52337566918E+02  0.12144700963E+02  0.59364591970E+02  0.00000000000E+00 0.  1.
         21    1    1    2  505  503 -0.76447753905E+02  0.11088621266E+03  0.48571641303E+03  0.50404409046E+03  0.00000000000E+00 0.  1.
          3    1    1    2  501    0  0.63246014750E+02 -0.65610785744E+02  0.33027976727E+04  0.33040546758E+04  0.00000000000E+00 0. -1.
<scales pt_clust_3="39.09250" pt_clust_4="47.38510" pt_clust_5="93.82161" pt_clust_6="14000.00000"></scales>
<clustering>
<clus scale="   39.093">  2  3  1 -1</clus>
<clus scale="   47.385">  2  4  1 -1</clus>
<clus scale="   93.822">  2  5  1 -1</clus>
<clus scale="   39.093">  2  3  1 -1</clus>
</clustering>
</event>
<event>
 6    0  0.2572175E+002  0.1671076E+03  0.7546771E-02  0.1180898E+00
         21   -1    0    0  505  502  0.00000000000E+00  0.00000000000E+00  0.11693873347E+04  0.11693873347E+04  0.00000000000E+00 0. -1.
          1   -1    0    0  504    0 -0.00000000000E+00 -0.00000000000E+00 -0.74879324136E+02  0.74879324136E+02  0.00000000000E+00 0. -1.
         21    1    1    2  503  501  0.34185508111E+02  0.25429288011E+02  0.59677958498E+02  0.73326368955E+02  0.00000000000E+00 0. -1.
         21    1    1    2  504  502 -0.33092300775E+01 -0.17654564399E+03  0.90921551467E+03  0.92620309194E+03  0.00000000000E+00 0. -1.
         21    1    1    2  505  503  0.79574335888E+01  0.90281753655E+02  0.14410251183E+03  0.17023410266E+03  0.00000000000E+00 0.  1.
          1    1    1    2  501    0 -0.38833711623E+02  0.60834602324E+02 -0.18487974480E+02  0.74503095229E+02  0.00000000000E+00 0. -1.
<scales pt_clust_3="35.16309" pt_clust_4="159.04335" pt_clust_5="35.16309" pt_clust_6="72.17275"></scales>
<clustering>
<clus scale="   35.163">  3  5 -1 -1</clus>
<clus scale="   72.173">  2  6  1 -1</clus>
<clus scale="  159.043">  1  4  2 -1</clus>
<clus scale="  159.043">  1  3  2 -1</clus>
</clustering>
</event>
<event>
 6    0  0.2572175E+002  0.1096001E+03  0.7546771E-02  0.1261312E+00
         -2   -1    0    0    0  501 -0.00000000000E+00  0.00000000000E+00  0.68040409638E+03  0.68040409638E+03  0.00000000000E+00 0.  1.
         21   -1    0    0  504  502  0.00000000000E+00 -0.00000000000E+00 -0.90472366359E+03  0.90472366359E+03  0.00000000000E+00 0. -1.
         21    1    1    2  503  501  0.42261838225E+02  0.15317062096E+03 -0.14948500349E+03  0.21815835616E+03  0.00000000000E+00 0. -1.
         21    1    1    2  504  503  0.34564555552E+02 -0.68383695604E+02 -0.59532676275E+03  0.60023744699E+03  0.00000000000E+00 0. -1.
         21    1    1    2  505  502 -0.58325115396E+02 -0.55032793235E+02 -0.10952404696E+03  0.13574219786E+03  0.00000000000E+00 0. -1.
         -2    1    1    2    0  505 -0.18501278381E+02 -0.29754132123E+02  0.63001624599E+03  0.63098975895E+03  0.00000000000E+00 0.  1.
<scales pt_clust_3="14000.00000" pt_clust_4="77.53264" pt_clust_5="109.60011" pt_clust_6="35.03720"></scales>
<clustering>
<clus scale="   35.037">  1  6  2 -1</clus>
<clus scale="   77.533">  2  4  1 -1</clus>
<clus scale="  109.600">  2  5  1 -1</clus>
<clus scale="   77.533">  2  3  1 -1</clus>
</clustering>
</event>
<event>
 6    0  0.2572175E+002  0.8011569E+02  0.7546771E-02  0.1328723E+00
          2   -1    0    0  505    0 -0.00000000000E+00  0.00000000000E+00  0.67243582288E+03  0.67243582288E+03  0.00000000000E+00 0. -1.
         21   -1    0    0  503  502  0.00000000000E+00 -0.00000000000E+00 -0.19942569142E+03  0.19942569142E+03  0.00000000000E+00 0.  1.
         21    1    1    2  503  504  0.48576511877E+02 -0.47880320102E+02 -0.15049851235E+03  0.16523318304E+03  0.00000000000E+00 0.  1.
         21    1    1    2  504  501  0.65263131297E+02  0.14208378152E+02  0.21615157124E+02  0.70202345644E+02  0.00000000000E+00 0.  1.
         21    1    1    2  505  502 -0.43915898434E+02 -0.13131194773E+02  0.22695306729E+02  0.51147936018E+02  0.00000000000E+00 0. -1.
          2    1    1    2  501    0 -0.69923744740E+02  0.46803136723E+02  0.57919817995E+03  0.58527804960E+03  0.00000000000E+00 0. -1.
<scales pt_clust_3="60.11509" pt_clust_4="80.11569" pt_clust_5="45.83704" pt_clust_6="14000.00000"></scales>
<clustering>
<clus scale="   45.837">  2  5  1 -1</clus>
<clus scale="   60.115">  2  3  1 -1</clus>
<clus scale="   80.116">  2  4  1 -1</clus>
<clus scale="   45.837">  2  3  1 -1</clus>
</clustering>
</event>
<event>
 6    0  0.2572175E+002  0.1191741E+03  0.7546771E-02  0.1244466E+00
         21   -1    0    0  503  502  0.00000000000E+00  0.00000000000E+00  0.18226911897E+04  0.18226911897E+04  0.00000000000E+00 0. -1.
          1   -1    0    0  504    0 -0.00000000000E+00 -0.00000000000E+00 -0.59758906922E+03  0.59758906922E+03  0.00000000000E+00 0.  1.
         21    1    1    2  503  501  0.40693944514E+02 -0.21740318286E+02  0.12819547127E+04  0.12827846756E+04  0.00000000000E+00 0. -1.
         21    1    1    2  504  505  0.73177152261E+02 -0.73647316604E+02 -0.19685334836E+03  0.22255350731E+03  0.00000000000E+00 0.  1.
         21    1    1    2  505  502  0.82326093598E+01  0.34249901408E+02  0.51481952367E+03  0.51602322967E+03  0.00000000000E+00 0. -1.
          1    1    1    2  501    0 -0.12210370613E+03  0.61137733482E+02 -0.37481876750E+03  0.39891884636E+03  0.00000000000E+00 0.  1.
<scales pt_clust_3="50.19045" pt_clust_4="14000.00000" pt_clust_5="35.22544" pt_clust_6="119.17411"></scales>
<clustering>
<clus scale="   35.225">  1  5  2 -1</clus>
<clus scale="   50.190">  1  3  2 -1</clus>
<clus scale="  119.174">  2  6  1 -1</clus>
<clus scale="   35.225">  1  3  2 -1</clus>
</clustering>
</event>
<event>
 6    0  0.2572175E+002  0.3821258E+03  0.7546771E-02  0.1050151E+00
          2   -1    0    0  504    0 -0.00000000000E+00  0.00000000000E+00  0.18341470610E+04  0.18341470610E+04  0.00000000000E+00 0. -1.
         21   -1    0    0  505  502  0.00000000000E+00 -0.00000000000E+00 -0.64331820974E+03  0.64331820974E+03  0.00000000000E+00 0. -1.
         21    1    1    2  503  502 -0.35364116573E+02 -0.36617730093E+02 -0.57623412861E+01  0.51231664771E+02  0.00000000000E+00 0. -1.
         21    1    1    2  504  503 -0.15593606524E+03 -0.25580277289E+03 -0.22521231886E+03  0.37479554911E+03  0.00000000000E+00 0. -1.
         21    1    1    2  505  501  0.17680442887E+03  0.36993420778E+03 -0.17993570503E+03  0.44775884368E+03  0.00000000000E+00 0. -1.
          2    1    1    2  501    0  0.14495752952E+02 -0.77513704794E+02  0.16017392165E+04  0.16036792132E+04  0.00000000000E+00 0. -1.
<scales pt_clust_3="32.04815" pt_clust_4="32.04815" pt_clust_5="374.13333" pt_clust_6="78.85747"></scales>
<clustering>
<clus scale="   32.048">  3  4 -1 -1</clus>
<clus scale="   78.857">  1  6  2 -1</clus>
<clus scale="  374.133">  1  5  2 -1</clus>
<clus scale="  382.126">  2  3  1 -1</clus>
</clustering>
</event>
<event>
 6    0  0.2572175E+002  0.8335198E+02  0.7546771E-02  0.1319799E+00
         21   -1    0    0  505  502  0.00000000000E+00  0.00000000000E+00  0.99281833267E+01  0.99281833267E+01  0.00000000000E+00 0. -1.
          2   -1    0    0  503    0 -0.00000000000E+00 -0.00000000000E+00 -0.18671679888E+04  0.18671679888E+04  0.00000000000E+00 0. -1.
         21    1    1    2  503  504  0.35408545347E+02 -0.18006310074E+02 -0.28899614892E+03  0.29171350051E+03  0.00000000000E+00 0. -1.
         21    1    1    2  504  502  0.26410669445E+01 -0.78438585817E+02 -0.48829196490E+03  0.49455902576E+03  0.00000000000E+00 0. -1.
         21    1    1    2  505  501 -0.65929989174E+02  0.73736340434E+02 -0.49603808606E+03  0.50580390884E+03  0.00000000000E+00 0. -1.
          2    1    1    2  501    0  0.27880376883E+02  0.22708555456E+02 -0.58391360563E+03  0.58501973706E+03  0.00000000000E+00 0. -1.
<scales pt_clust_3="43.65843" pt_clust_4="83.35198" pt_clust_5="14000.00000" pt_clust_6="35.95822"></scales>
<clustering>
<clus scale="   35.958">  2  6  1 -1</clus>
<clus scale="   43.658">  2  3  1 -1</clus>
<clus scale="   83.352">  1  4  2 -1</clus>
<clus scale="   83.352">  1  3  2 -1</clus>
</clustering>
</event>
<event>
 6    0  0.2572175E+002  0.1099535E+03  0.7546771E-02  0.1260656E+00
         21   -1    0    0  503  502  0.00000000000E+00  0.00000000000E+00  0.27280976393E+03  0.27280976393E+03  0.00000000000E+00 0. -1.
          2   -1    0    0  505    0 -0.00000000000E+00 -0.00000000000E+00 -0.29036486349E+04  0.29036486349E+04  0.00000000000E+00 0. -1.
         21    1    1    2  503  501  0.63206889282E+02 -0.43182072318E+02 -0.21184283515E+02  0.79426545251E+02  0.00000000000E+00 0.  1.
         21    1    1    2  504  502  0.93444846301E+01  0.83040305557E+02  0.19849463928E+03  0.21536743849E+03  0.00000000000E+00 0. -1.
         21    1    1    2  505  504 -0.53558391934E+01  0.32998456006E+02  0.28107637014E+02  0.43676336508E+02  0.00000000000E+00 0.  1.
          2    1    1    2  501    0 -0.67195534719E+02 -0.72856689245E+02 -0.28362568637E+04  0.28379880785E+04  0.00000000000E+00 0. -1.
<scales pt_clust_3="76.54935" pt_clust_4="30.16282" pt_clust_5="30.16282" pt_clust_6="99.07365"></scales>
<clustering>
<clus scale="   30.163">  4  5 -1 -1</clus>
<clus scale="   76.549">  1  3  2 -1</clus>
<clus scale="   99.074">  2  6  1 -1</clus>
<clus scale="   76.549">  1  3  2 -1</clus>
</clustering>
</event>
<event>
 6    0  0.2572175E+002  0.6536992E+02  0.7546771E-02  0.1376585E+00
         -1   -1    0    0    0  501 -0.00000000000E+00  0.00000000000E+00  0.22050335704E+03  0.22050335704E+03  0.00000000000E+00 0. -1.
         21   -1    0    0  504  502  0.00000000000E+00 -0.00000000000E+00 -0.75221853631E+03  0.75221853631E+03  0.00000000000E+00 0. -1.
         21    1    1    2  503  501 -0.78826441633E+02 -0.45659668688E+02  0.44066722354E+02  0.10119431439E+03  0.00000000000E+00 0. -1.
         21    1    1    2  504  503  0.50554465670E+02  0.77672587626E+02 -0.59799797545E+03  0.60513664863E+03  0.00000000000E+00 0. -1.
         21    1    1    2  505  502 -0.23804241783E+02 -0.20434653848E+02 -0.11498248279E+03  0.11918552074E+03  0.00000000000E+00 0. -1.
         -1    1    1    2    0  505  0.52076217745E+02 -0.11578265090E+02  0.13719855661E+03  0.14720540959E+03  0.00000000000E+00 0. -1.
<scales pt_clust_3="14000.00000" pt_clust_4="65.36992" pt_clust_5="31.37223" pt_clust_6="53.20006"></scales>
<clustering>
<clus scale="   31.372">  2  5  1 -1</clus>
<clus scale="   53.200">  1  6  2 -1</clus>
<clus scale="   65.370">  2  4  1 -1</clus>
<clus scale="   31.372">  2  3  1 -1</clus>
</clustering>
</event>
<event>
 6    0  0.2572175E+002  0.6929058E+02  0.7546771E-02  0.1362522E+00
         21   -1    0    0  505  502  0.00000000000E+00  0.00000000000E+00  0.76907347341E+02  0.76907347341E+02  0.00000000000E+00 0. -1.
          1   -1    0    0  504    0 -0.00000000000E+00 -0.00000000000E+00 -0.41404971996E+03  0.41404971996E+03  0.00000000000E+00 0. -1.
         21    1    1    2  503  502  0.39265858436E+02  0.12939577677E+02 -0.31750850931E+02  0.52128272982E+02  0.00000000000E+00 0. -1.
         21    1    1    2  504  503 -0.63218194106E+02  0.11130776622E+01 -0.81666765193E+02  0.10328232930E+03  0.00000000000E+00 0. -1.
         21    1    1    2  505  501 -0.44297258494E+02  0.54234448508E+02  0.20472047791E+02  0.72957023348E+02  0.00000000000E+00 0. -1.
          1    1    1    2  501    0  0.68249594164E+02 -0.68287103847E+02 -0.24419680428E+03  0.26258944167E+03  0.00000000000E+00 0. -1.
<scales pt_clust_3="41.34296" pt_clust_4="56.94799" pt_clust_5="69.29058" pt_clust_6="14000.00000"></scales>
<clustering>
<clus scale="   41.343">  1  3  2 -1</clus>
<clus scale="   56.948">  2  4  1 -1</clus>
<clus scale="   69.291">  1  5  2 -1</clus>
<clus scale="   41.343">  1  3  2 -1</clus>
</clustering>
</event>
<event>
 6    0  0.2572175E+002  0.1237370E+03  0.7546771E-02  0.1237056E+00
         21   -1    0    0  504  502  0.00000000000E+00  0.00000000000E+00  0.27212820602E+03  0.27212820602E+03  0.00000000000E+00 0.  1.
          2   -1    0    0  505    0 -0.00000000000E+00 -0.00000000000E+00 -0.11072928923E+04  0.11072928923E+04  0.00000000000E+00 0.  1.
         21    1    1    2  503  501  0.97861726109E+02  0.15901076183E+03 -0.16318343526E+03  0.24797212214E+03  0.00000000000E+00 0.  1.
         21    1    1    2  504  503  0.11292241131E+02 -0.33582775906E+02  0.72631156615E+02  0.80812143014E+02  0.00000000000E+00 0.  1.
         21    1    1    2  505  502 -0.51772475707E+02 -0.22365081314E+02  0.14378117211E+03  0.15444614452E+03  0.00000000000E+00 0.  1.
          2    1    1    2  501    0 -0.57381491533E+02 -0.10306290461E+03 -0.88839357979E+03  0.89619068869E+03  0.00000000000E+00 0.  1.
<scales pt_clust_3="14000.00000" pt_clust_4="35.43046" pt_clust_5="64.54157" pt_clust_6="123.73699"></scales>
<clustering>
<clus scale="   35.430">  1  4  2 -1</clus>
<clus scale="   64.542">  1  5  2 -1</clus>
<clus scale="  123.737">  2  6  1 -1</clus>
<clus scale="   35.430">  1  3  2 -1</clus>
</clustering>
</event>
<event>
 6    0  0.2572175E+002  0.1991111E+03  0.7546771E-02  0.1150491E+00
          1   -1    0    0  503    0 -0.00000000000E+00  0.00000000000E+00  0.11426103553E+04  0.11426103553E+04  0.00000000000E+00 0. -1.
         21   -1    0    0  505  502  0.00000000000E+00 -0.00000000000E+00 -0.11153899588E+04  0.11153899588E+04  0.00000000000E+00 0.  1.
         21    1    1    2  503  504  0.16607358336E+03  0.14301057315E+02 -0.24551691961E+03  0.29675497156E+03  0.00000000000E+00 0.  1.
         21    1    1    2  504  502  0.50669013165E+02  0.89335993224E+01 -0.14496421379E+03  0.15382386476E+03  0.00000000000E+00 0. -1.
         21    1    1    2  505  501 -0.17302242651E+03 -0.56661522542E+02 -0.68223429130E+03  0.70610970567E+03  0.00000000000E+00 0.  1.
          1    1    1    2  501    0 -0.43720170013E+02  0.33426865905E+02  0.10999358212E+04  0.11013117721E+04  0.00000000000E+00 0. -1.
<scales pt_clust_3="30.57464" pt_clust_4="30.57464" pt_clust_5="191.35481" pt_clust_6="55.03461"></scales>
<clustering>
<clus scale="   30.575">  3  4 -1 -1</clus>
<clus scale="   55.035">  1  6  2 -1</clus>
<clus scale="  191.355">  2  5  1 -1</clus>
<clus scale="  191.355">  2  3  1 -1</clus>
</clustering>
</event>
<event>
 6    0  0.2572175E+002  0.9265284E+02  0.7546771E-02  0.1296552E+00
          2   -1    0    0  504    0 -0.00000000000E+00  0.00000000000E+00  0.44799988824E+03  0.44799988824E+03  0.00000000000E+00 0.  1.
         21   -1    0    0  503  502  0.00000000000E+00 -0.00000000000E+00 -0.63836718898E+02  0.63836718898E+02  0.00000000000E+00 0.  1.
         21    1    1    2  503  505  0.22062458317E+02  0.29319126245E+02 -0.33632864630E+01  0.36846640642E+02  0.00000000000E+00 0. -1.
         21    1    1    2  504  502  0.10755721764E+02 -0.85816626979E+02  0.12825410085E+03  0.15469096096E+03  0.00000000000E+00 0. -1.
         21    1    1    2  505  501 -0.57799772036E+02  0.76131452528E+02  0.48578109351E+02  0.10722240633E+03  0.00000000000E+00 0.  1.
          2    1    1    2  501    0  0.24981591955E+02 -0.19633951794E+02  0.21069424560E+03  0.21307659920E+03  0.00000000000E+00 0.  1.
<scales pt_clust_3="36.71465" pt_clust_4="14000.00000" pt_clust_5="92.65284" pt_clust_6="31.77376"></scales>
<clustering>
<clus scale="   31.774">  1  6  2 -1</clus>
<clus scale="   36.715">  2  3  1 -1</clus>
<clus scale="   92.653">  2  5  1 -1</clus>
<clus scale="   36.715">  2  3  1 -1</clus>
</clustering>
</event>
<event>
 6    0  0.2572175E+002  0.6935451E+02  0.7546771E-02  0.1362302E+00
         21   -1    0    0  505  502  0.00000000000E+00  0.00000000000E+00  0.66507777428E+03  0.66507777428E+03  0.00000000000E+00 0.  1.
         -3   -1    0    0    0  501 -0.00000000000E+00 -0.00000000000E+00 -0.15339622504E+04  0.15339622504E+04  0.00000000000E+00 0. -1.
         21    1    1    2  503  502 -0.28382025910E+02 -0.36760826185E+02  0.29200125659E+03  0.29567149269E+03  0.00000000000E+00 0.  1.
         21    1    1    2  504  501  0.59180086237E+02  0.10118607030E+03  0.70784288030E+02  0.13693545510E+03  0.00000000000E+00 0.  1.
         21    1    1    2  505  504  0.12387623863E+02 -0.31524936956E+02  0.26581495404E+03  0.26796429737E+03  0.00000000000E+00 0.  1.
         -3    1    1    2    0  503 -0.43185684191E+02 -0.32900307162E+02 -0.14974849748E+04  0.14984687795E+04  0.00000000000E+00 0. -1.
<scales pt_clust_3="14000.00000" pt_clust_4="69.35451" pt_clust_5="33.87145" pt_clust_6="54.30171"></scales>
<clustering>
<clus scale="   33.871">  1  5  2 -1</clus>
<clus scale="   54.302">  2  6  1 -1</clus>
<clus scale="   69.355">  2  4  1 -1</clus>
<clus scale="   33.871">  1  3  2 -1</clus>
</clustering>
</event>
<event>
 6    0  0.2572175E+002  0.1135368E+03  0.7546771E-02  0.1254157E+00
         21   -1    0    0  503  502  0.00000000000E+00  0.00000000000E+00  0.14647879734E+03  0.14647879734E+03  0.00000000000E+00 0. -1.
          2   -1    0    0  505    0 -0.00000000000E+00 -0.00000000000E+00 -0.17953194859E+04  0.17953194859E+04  0.00000000000E+00 0.  1.
         21    1    1    2  503  501  0.27882168453E+02  0.19730343058E+02 -0.17370961876E+01  0.34201158723E+02  0.00000000000E+00 0.  1.
         21    1    1    2  504  502  0.89977735643E+02 -0.21653638301E+01  0.90047820338E+02  0.12731571647E+03  0.00000000000E+00 0. -1.
         21    1    1    2  505  504 -0.70066859830E+02  0.92134082259E+02 -0.15418044872E+03  0.19279435865E+03  0.00000000000E+00 0. -1.
          2    1    1    2  501    0 -0.47793044266E+02 -0.10969906149E+03 -0.15829709640E+04  0.15874870494E+04  0.00000000000E+00 0.  1.
<scales pt_clust_3="34.15702" pt_clust_4="114.14253" pt_clust_5="113.53677" pt_clust_6="14000.00000"></scales>
<clustering>
<clus scale="   34.157">  1  3  2 -1</clus>
<clus scale="  114.143">  1  4  2 -1</clus>
<clus scale="  113.537">  1  5  2 -1</clus>
<clus scale="   34.157">  1  3  2 -1</clus>
</clustering>
</event>
<event>
 6    0  0.2572175E+002  0.1022038E+03  0.7546771E-02  0.1275729E+00
          2   -1    0    0  505    0 -0.00000000000E+00  0.00000000000E+00  0.10206461953E+04  0.10206461953E+04  0.00000000000E+00 0.  1.
         21   -1    0    0  504  502  0.00000000000E+00 -0.00000000000E+00 -0.51492584918E+03  0.51492584918E+03  0.00000000000E+00 0. -1.
         21    1    1    2  503  501 -0.28087531217E+01  0.58942328511E+02 -0.10891984063E+03  0.12387743486E+03  0.00000000000E+00 0. -1.
         21    1    1    2  504  503 -0.37964601279E+01  0.50478721096E+02 -0.36407433113E+03  0.36757670353E+03  0.00000000000E+00 0. -1.
         21    1    1    2  505  502  0.38545134945E+02 -0.12677003283E+03  0.10345772828E+03  0.16810672263E+03  0.00000000000E+00 0. -1.
          2    1    1    2  501    0 -0.31939921695E+02  0.17348983225E+02  0.87525678959E+03  0.87601118346E+03  0.00000000000E+00 0.  1.
<scales pt_clust_3="102.20381" pt_clust_4="50.86047" pt_clust_5="14000.00000" pt_clust_6="36.34757"></scales>
<clustering>
<clus scale="   36.348">  1  6  2 -1</clus>
<clus scale="   50.860">  2  4  1 -1</clus>
<clus scale="  102.204">  2  3  1 -1</clus>
<clus scale="   50.860">  2  3  1 -1</clus>
</clustering>
</event>
<event>
 6    0  0.2572175E+002  0.1247931E+03  0.7546771E-02  0.1235393E+00
         21   -1    0    0  504  502  0.00000000000E+00  0.00000000000E+00  0.13255145261E+03  0.13255145261E+03  0.00000000000E+00 0. -1.
          2   -1    0    0  505    0 -0.00000000000E+00 -0.00000000000E+00 -0.10170380214E+04  0.10170380214E+04  0.00000000000E+00 0.  1.
         21    1    1    2  503  502 -0.29180025315E+02 -0.80532403967E+02  0.86091154876E+02  0.12144393321E+03  0.00000000000E+00 0. -1.
         21    1    1    2  504  501 -0.55661931597E+01 -0.38721723177E+02 -0.30783474814E+02  0.49779279562E+02  0.00000000000E+00 0. -1.
         21    1    1    2  505  503  0.35799040757E+02 -0.70582481310E+02 -0.34724133744E+03  0.35614604366E+03  0.00000000000E+00 0. -1.
          2    1    1    2  501    0 -0.10528222821E+01  0.18983660845E+03 -0.59255291142E+03  0.62222021759E+03  0.00000000000E+00 0.  1.
<scales pt_clust_3="124.79310" pt_clust_4="39.11974" pt_clust_5="80.30454" pt_clust_6="14000.00000"></scales>
<clustering>
<clus scale="   39.120">  1  4  2 -1</clus>
<clus scale="   80.305">  2  5  1 -1</clus>
<clus scale="  124.793">  1  3  2 -1</clus>
<clus scale="   39.120">  1  3  2 -1</clus>
</clustering>
</event>
<event>
 6    0  0.2572175E+002  0.9840694E+02  0.7546771E-02  0.1283682E+00
          4   -1    0    0  504    0 -0.00000000000E+00  0.00000000000E+00  0.17843682528E+03  0.17843682528E+03  0.00000000000E+00 0.  1.
         21   -1    0    0  505  502  0.00000000000E+00 -0.00000000000E+00 -0.52976093728E+03  0.52976093728E+03  0.00000000000E+00 0. -1.
         21    1    1    2  503  502  0.94913543107E+02  0.30150046884E+01 -0.34365883404E+03  0.35653760690E+03  0.00000000000E+00 0. -1.
         21    1    1    2  504  503  0.20783312237E+02 -0.38996047611E+02  0.56118884400E+02  0.71428054594E+02  0.00000000000E+00 0.  1.
         21    1    1    2  505  501 -0.10480036547E+02  0.50486519256E+02 -0.14020395403E+03  0.14938496751E+03  0.00000000000E+00 0. -1.
          4    1    1    2  501    0 -0.10521681880E+03 -0.14505476333E+02  0.76419791670E+02  0.13084713356E+03  0.00000000000E+00 0.  1.
<scales pt_clust_3="14000.00000" pt_clust_4="44.18866" pt_clust_5="49.86754" pt_clust_6="98.40694"></scales>
<clustering>
<clus scale="   44.189">  1  4  2 -1</clus>
<clus scale="   49.868">  2  5  1 -1</clus>
<clus scale="   98.407">  1  6  2 -1</clus>
<clus scale="   49.868">  2  3  1 -1</clus>
</clustering>
</event>
<event>
 6    0  0.2572175E+002  0.1271246E+03  0.7546771E-02  0.1231786E+00
          2   -1    0    0  505    0 -0.00000000000E+00  0.00000000000E+00  0.14339718907E+04  0.14339718907E+04  0.00000000000E+00 0.  1.
         21   -1    0    0  501  502  0.00000000000E+00 -0.00000000000E+00 -0.10781933848E+03  0.10781933848E+03  0.00000000000E+00 0. -1.
         21    1    1    2  503  504 -0.34412064007E+02 -0.30613752846E+01  0.58291318376E+02  0.67760165037E+02  0.00000000000E+00 0.  1.
         21    1    1    2  504  502  0.12276553370E+03 -0.39240949575E+02 -0.59113977475E+02  0.14179453699E+03  0.00000000000E+00 0. -1.
         21    1    1    2  505  503 -0.36449429784E+01  0.32224534792E+02  0.31100224620E+03  0.31268850858E+03  0.00000000000E+00 0.  1.
          2    1    1    2  501    0 -0.84708526714E+02  0.10077790068E+02  0.10159729651E+04  0.10195480185E+04  0.00000000000E+00 0.  1.
<scales pt_clust_3="34.63940" pt_clust_4="127.12457" pt_clust_5="32.43002" pt_clust_6="14000.00000"></scales>
<clustering>
<clus scale="   32.430">  1  5  2 -1</clus>
<clus scale="   34.639">  1  3  2 -1</clus>
<clus scale="  127.125">  2  4  1 -1</clus>
<clus scale="  127.125">  2  3  1 -1</clus>
</clustering>
</event>
<event>
 6    0  0.2572175E+002  0.5476517E+03  0.7546771E-02  0.1002039E+00
          2   -1    0    0  502    0 -0.00000000000E+00  0.00000000000E+00  0.34857041139E+04  0.34857041139E+04  0.00000000000E+00 0.  1.
         21   -1    0    0  505  502  0.00000000000E+00 -0.00000000000E+00 -0.28225264274E+03  0.28225264274E+03  0.00000000000E+00 0. -1.
         21    1    1    2  503  501  0.70209010508E+02 -0.11198089234E+02  0.76175399923E+02  0.10419881915E+03  0.00000000000E+00 0. -1.
         21    1    1    2  504  503  0.72826554111E+02  0.61283772678E+02  0.39419776093E+02  0.10302100041E+03  0.00000000000E+00 0. -1.
         21    1    1    2  505  504  0.30234715665E+03  0.12416461057E+03 -0.96397004094E+02  0.34076830259E+03  0.00000000000E+00 0. -1.
          2    1    1    2  501    0 -0.44538272127E+03 -0.17425029402E+03  0.31842532992E+04  0.32199686344E+04  0.00000000000E+00 0.  1.
<scales pt_clust_3="70.26704" pt_clust_4="132.49440" pt_clust_5="132.49440" pt_clust_6="478.25614"></scales>
<clustering>
<clus scale="   70.267">  3  4 -1 -1</clus>
<clus scale="  132.494">  3  5 -1 -1</clus>
<clus scale="  478.256">  1  6  2 -1</clus>
<clus scale="  547.652">  2  3  1 -1</clus>
</clustering>
</event>
<event>
 6    0  0.2572175E+002  0.1035545E+03  0.7546771E-02  0.1272994E+00
         21   -1    0    0  505  502  0.00000000000E+00  0.00000000000E+00  0.17561356076E+03  0.17561356076E+03  0.00000000000E+00 0.  1.
          1   -1    0    0  503    0 -0.00000000000E+00 -0.00000000000E+00 -0.16282203009E+04  0.16282203009E+04  0.00000000000E+00 0. -1.
         21    1    1    2  503  502 -0.93152296334E+02 -0.58062870894E+02  0.11619109584E+03  0.15984060198E+03  0.00000000000E+00 0.  1.
         21    1    1    2  504  501  0.13015757555E+03 -0.27836964016E+02 -0.14356520349E+03  0.19577246663E+03  0.00000000000E+00 0. -1.
         21    1    1    2  505  504 -0.16849033522E+01  0.37491613877E+02 -0.21583809439E+02  0.43293427219E+02  0.00000000000E+00 0.  1.
          1    1    1    2  501    0 -0.35320375859E+02  0.48408221032E+02 -0.14036488231E+04  0.14049273659E+04  0.00000000000E+00 0. -1.
<scales pt_clust_3="103.55447" pt_clust_4="14000.00000" pt_clust_5="37.52946" pt_clust_6="60.04541"></scales>
<clustering>
<clus scale="   37.529">  1  5  2 -1</clus>
<clus scale="   60.045">  2  6  1 -1</clus>
<clus scale="  103.554">  1  3  2 -1</clus>
<clus scale="   37.529">  1  3  2 -1</clus>
</clustering>
</event>
<event>
 6    0  0.2572175E+002  0.1276306E+03  0.7546771E-02  0.1231014E+00
          3   -1    0    0  503    0 -0.00000000000E+00  0.00000000000E+00  0.14345834821E+04  0.14345834821E+04  0.00000000000E+00 0. -1.
         21   -1    0    0  504  502  0.00000000000E+00 -0.00000000000E+00 -0.27706151978E+02  0.27706151978E+02  0.00000000000E+00 0. -1.
         21    1    1    2  503  502 -0.45007126444E+02 -0.13462326423E+03  0.39340085568E+03  0.41822637166E+03  0.00000000000E+00 0. -1.
         21    1    1    2  504  505  0.21702813234E+02  0.52582128242E+02  0.84765159551E+02  0.10208341974E+03  0.00000000000E+00 0.  1.
         21    1    1    2  505  501 -0.12206880571E+02  0.57085832300E+02  0.13497803344E+03  0.14706076871E+03  0.00000000000E+00 0.  1.
          3    1    1    2  501    0  0.35511193780E+02  0.24955303693E+02  0.79373328148E+03  0.79491907400E+03  0.00000000000E+00 0. -1.
<scales pt_clust_3="120.91751" pt_clust_4="40.32235" pt_clust_5="40.32235" pt_clust_6="43.40290"></scales>
<clustering>
<clus scale="   40.322">  4  5 -1 -1</clus>
<clus scale="   43.403">  1  6  2 -1</clus>
<clus scale="  120.918">  1  3  2 -1</clus>
<clus scale="  127.631">  2  3  1 -1</clus>
</clustering>
</event>
<event>
 6    0  0.2572175E+002  0.1269654E+03  0.7546771E-02  0.1232029E+00
         21   -1    0    0  503  502  0.00000000000E+00  0.00000000000E+00  0.24292022260E+03  0.24292022260E+03  0.00000000000E+00 0.  1.
          1   -1    0    0  504    0 -0.00000000000E+00 -0.00000000000E+00 -0.52204125314E+03  0.52204125314E+03  0.00000000000E+00 0. -1.
         21    1    1    2  503  501 -0.20156709445E+03 -0.42923528784E+02  0.11482926603E+03  0.23591838255E+03  0.00000000000E+00 0.  1.
         21    1    1    2  504  505  0.27558333573E+02 -0.27011933939E+02 -0.63618453275E+01  0.39109837642E+02  0.00000000000E+00 0.  1.
         21    1    1    2  505  502  0.68835972071E+02  0.54714062640E+01  0.13450725909E+02  0.70350901664E+02  0.00000000000E+00 0. -1.
          1    1    1    2  501    0  0.10517278881E+03  0.64464056459E+02 -0.40103917716E+03  0.41958235389E+03  0.00000000000E+00 0. -1.
<scales pt_clust_3="14000.00000" pt_clust_4="34.86775" pt_clust_5="109.23095" pt_clust_6="126.96535"></scales>
<clustering>
<clus scale="   34.868">  4  5 -1 -1</clus>
<clus scale="  109.231">  1  4  2 -1</clus>
<clus scale="  126.965">  2  6  1 -1</clus>
<clus scale="  109.231">  1  3  2 -1</clus>
</clustering>
</event>
<event>
 6    0  0.2572175E+002  0.1091777E+03  0.7546771E-02  0.1262100E+00
         21   -1    0    0  503  502  0.00000000000E+00  0.00000000000E+00  0.10676130024E+03  0.10676130024E+03  0.00000000000E+00 0.  1.
         -1   -1    0    0    0  501 -0.00000000000E+00 -0.00000000000E+00 -0.73660628832E+03  0.73660628832E+03  0.00000000000E+00 0. -1.
         21    1    1    2  503  501 -0.11337706314E+02  0.36322466524E+02 -0.19239277376E+02  0.42638186556E+02  0.00000000000E+00 0. -1.
         21    1    1    2  504  505 -0.99185056500E+02 -0.40656162568E+02 -0.99728856716E+02  0.14641189791E+03  0.00000000000E+00 0. -1.
         21    1    1    2  505  502  0.89809261175E+02  0.54187861931E+02  0.31298815099E+02  0.10946069432E+03  0.00000000000E+00 0.  1.
         -1    1    1    2    0  504  0.20713501639E+02 -0.49854165887E+02 -0.54217566909E+03  0.54485680978E+03  0.00000000000E+00 0. -1.
<scales pt_clust_3="38.05082" pt_clust_4="109.17772" pt_clust_5="14000.00000" pt_clust_6="53.45165"></scales>
<clustering>
<clus scale="   38.051">  1  3  2 -1</clus>
<clus scale="   53.452">  2  6  1 -1</clus>
<clus scale="  109.178">  2  4  1 -1</clus>
<clus scale="   38.051">  1  3  2 -1</clus>
</clustering>
</event>
<event>
 6    0  0.2572175E+002  0.1531211E+03  0.7546771E-02  0.1196689E+00
          2   -1    0    0  503    0 -0.00000000000E+00  0.00000000000E+00  0.28563104774E+04  0.28563104774E+04  0.00000000000E+00 0.  1.
         21   -1    0    0  505  502  0.00000000000E+00 -0.00000000000E+00 -0.12959432214E+03  0.12959432214E+03  0.00000000000E+00 0. -1.
         21    1    1    2  503  504  0.18733283307E+02  0.14913773064E+03 -0.58451267482E+02  0.16127476329E+03  0.00000000000E+00 0. -1.
         21    1    1    2  504  502  0.28177077325E+02 -0.12428886646E+02 -0.41859054496E+01  0.31079683304E+02  0.00000000000E+00 0. -1.
         21    1    1    2  505  501 -0.47548280118E+02 -0.89551696951E+02  0.21892681815E+04  0.21916148192E+04  0.00000000000E+00 0.  1.
          2    1    1    2  501    0  0.63791948624E+00 -0.47157147043E+02  0.60008514670E+03  0.60193553372E+03  0.00000000000E+00 0.  1.
<scales pt_clust_3="144.58343" pt_clust_4="30.79651" pt_clust_5="34.42643" pt_clust_6="34.42643"></scales>
<clustering>
<clus scale="   30.797">  2  4  1 -1</clus>
<clus scale="   34.426">  5  6 -1 -1</clus>
<clus scale="  144.583">  2  3  1 -1</clus>
<clus scale="   30.797">  2  3  1 -1</clus>
</clustering>
</event>
<event>
 6    0  0.2572175E+002  0.1351079E+03  0.7546771E-02  0.1220067E+00
         -1   -1    0    0    0  501 -0.00000000000E+00  0.00000000000E+00  0.17346858033E+04  0.17346858033E+04  0.00000000000E+00 0. -1.
         21   -1    0    0  505  502  0.00000000000E+00 -0.00000000000E+00 -0.11155041135E+03  0.11155041135E+03  0.00000000000E+00 0. -1.
         21    1    1    2  503  502  0.83732655994E+02  0.11688925863E+03 -0.47561149930E+02  0.15144741479E+03  0.00000000000E+00 0. -1.
         21    1    1    2  504  503 -0.49732868093E+02 -0.54515020205E+02  0.36621672521E+03  0.37357721480E+03  0.00000000000E+00 0.  1.
         21    1    1    2  505  501 -0.43276494525E+00 -0.41118969725E+02  0.44443354469E+02  0.60548895227E+02  0.00000000000E+00 0. -1.
         -1    1    1    2    0  504 -0.33567022956E+02 -0.21255268704E+02  0.12600364622E+04  0.12606626898E+04  0.00000000000E+00 0. -1.
<scales pt_clust_3="14000.00000" pt_clust_4="135.10792" pt_clust_5="43.66877" pt_clust_6="39.73074"></scales>
<clustering>
<clus scale="   39.731">  1  6  2 -1</clus>
<clus scale="   43.669">  1  5  2 -1</clus>
<clus scale="  135.108">  1  4  2 -1</clus>
<clus scale="  135.108">  2  3  1 -1</clus>
</clustering>
</event>
<event>
 6    0  0.2572175E+002  0.1888893E+03  0.7546771E-02  0.1159467E+00
         21   -1    0    0  505  502  0.00000000000E+00  0.00000000000E+00  0.90530395978E+02  0.90530395978E+02  0.00000000000E+00 0. -1.
          2   -1    0    0  504    0 -0.00000000000E+00 -0.00000000000E+00 -0.23385919720E+04  0.23385919720E+04  0.00000000000E+00 0.  1.
         21    1    1    2  503  502 -0.51593265837E+01  0.62550982686E+02 -0.85767209409E+02  0.10627915269E+03  0.00000000000E+00 0. -1.
         21    1    1    2  504  503  0.18340881980E+03  0.53612196752E+01 -0.52859189583E+03  0.55953277848E+03  0.00000000000E+00 0. -1.
         21    1    1    2  505  501 -0.16265061646E+03  0.73602143004E+02 -0.67831793677E+02  0.19098076009E+03  0.00000000000E+00 0. -1.
          2    1    1    2  501    0 -0.15598876754E+02 -0.14151434537E+03 -0.15658706771E+04  0.15723296768E+04  0.00000000000E+00 0.  1.
<scales pt_clust_3="62.76340" pt_clust_4="188.88928" pt_clust_5="14000.00000" pt_clust_6="139.89372"></scales>
<clustering>
<clus scale="   62.763">  1  3  2 -1</clus>
<clus scale="  139.894">  2  6  1 -1</clus>
<clus scale="  188.889">  2  4  1 -1</clus>
<clus scale="   62.763">  1  3  2 -1</clus>
</clustering>
</event>
<event>
 6    0  0.2572175E+002  0.1114396E+03  0.7546771E-02  0.1257927E+00
         21   -1    0    0  504  502  0.00000000000E+00  0.00000000000E+00  0.83461145806E+03  0.83461145806E+03  0.00000000000E+00 0.  1.
          2   -1    0    0  505    0 -0.00000000000E+00 -0.00000000000E+00 -0.90714823568E+03  0.90714823568E+03  0.00000000000E+00 0.  1.
         21    1    1    2  503  501 -0.41607226149E+02  0.14993422190E+03 -0.33503943283E+03  0.36940878944E+03  0.00000000000E+00 0.  1.
         21    1    1    2  504  503 -0.20438255997E+02 -0.42031799355E+02  0.15642492867E+03  0.16325793327E+03  0.00000000000E+00 0.  1.
         21    1    1    2  505  502  0.28646898159E+02 -0.69183713875E+02  0.65425999590E+03  0.65853107237E+03  0.00000000000E+00 0.  1.
          2    1    1    2  501    0  0.33398583987E+02 -0.38718708668E+02 -0.54818226937E+03  0.55056189867E+03  0.00000000000E+00 0.  1.
<scales pt_clust_3="111.43961" pt_clust_4="46.73751" pt_clust_5="14000.00000" pt_clust_6="51.16583"></scales>
<clustering>
<clus scale="   46.738">  1  4  2 -1</clus>
<clus scale="   51.166">  2  6  1 -1</clus>
<clus scale="  111.440">  2  3  1 -1</clus>
<clus scale="   46.738">  1  3  2 -1</clus>
</clustering>
</event>
<event>
 6    0  0.2572175E+002  0.2124885E+03  0.7546771E-02  0.1139610E+00
         21   -1    0    0  505  502  0.00000000000E+00  0.00000000000E+00  0.16269950317E+04  0.16269950317E+04  0.00000000000E+00 0.  1.
          1   -1    0    0  503    0 -0.00000000000E+00 -0.00000000000E+00 -0.88020030170E+03  0.88020030170E+03  0.00000000000E+00 0.  1.
         21    1    1    2  503  504 -0.17182740841E+03  0.10925891226E+03  0.32301005232E+03  0.38183460044E+03  0.00000000000E+00 0.  1.
         21    1    1    2  504  502 -0.37836487818E+02 -0.12308277488E+03  0.10960457970E+04  0.11035838701E+04  0.00000000000E+00 0.  1.
         21    1    1    2  505  501  0.26476464834E+03  0.77475965458E+02  0.61964020595E+02  0.28274084262E+03  0.00000000000E+00 0.  1.
          1    1    1    2  501    0 -0.55100752109E+02 -0.63652102838E+02 -0.73422513992E+03  0.73903602022E+03  0.00000000000E+00 0.  1.
<scales pt_clust_3="212.48852" pt_clust_4="130.79244" pt_clust_5="14000.00000" pt_clust_6="84.18838"></scales>
<clustering>
<clus scale="   84.188">  2  6  1 -1</clus>
<clus scale="  130.792">  1  4  2 -1</clus>
<clus scale="  212.489">  1  3  2 -1</clus>
<clus scale="  130.792">  1  3  2 -1</clus>
</clustering>
</event>
<event>
 6    0  0.2572175E+002  0.1081195E+03  0.7546771E-02  0.1264092E+00
         21   -1    0    0  501  502  0.00000000000E+00  0.00000000000E+00  0.91004462142E+02  0.91004462142E+02  0.00000000000E+00 0.  1.
          2   -1    0    0  505    0 -0.00000000000E+00 -0.00000000000E+00 -0.15852484757E+04  0.15852484757E+04  0.00000000000E+00 0.  1.
         21    1    1    2  503  504 -0.74569922623E+02  0.40095669818E+02 -0.11223768240E+03  0.14059030354E+03  0.00000000000E+00 0.  1.
         21    1    1    2  504  502  0.10077485083E+03 -0.58891579016E+02  0.27318443533E+02  0.11987529352E+03  0.00000000000E+00 0.  1.
         21    1    1    2  505  503  0.64569136216E+01  0.30238545846E+02 -0.13141814184E+04  0.13145451159E+04  0.00000000000E+00 0.  1.
          2    1    1    2  501    0 -0.32661841830E+02 -0.11442636647E+02 -0.95143356330E+02  0.10124222488E+03  0.00000000000E+00 0.  1.
<scales pt_clust_3="108.11953" pt_clust_4="14000.00000" pt_clust_5="30.92024" pt_clust_6="30.32511"></scales>
<clustering>
<clus scale="   30.920">  2  5  1 -1</clus>
<clus scale="   30.325">  2  6  1 -1</clus>
<clus scale="  108.120">  2  3  1 -1</clus>
<clus scale="  108.120">  1  3  2 -1</clus>
</clustering>
</event>
<event>
 6    0  0.2572175E+002  0.2015406E+03  0.7546771E-02  0.1148446E+00
         21   -1    0    0  503  502  0.00000000000E+00  0.00000000000E+00  0.23160080042E+03  0.23160080042E+03  0.00000000000E+00 0.  1.
          2   -1    0    0  504    0 -0.00000000000E+00 -0.00000000000E+00 -0.62220772052E+03  0.62220772052E+03  0.00000000000E+00 0.  1.
         21    1    1    2  503  501 -0.99297549344E+02  0.32370923927E+01  0.53420001028E+02  0.11280150080E+03  0.00000000000E+00 0.  1.
         21    1    1    2  504  505  0.86733206657E+02 -0.18293049436E+03 -0.72787636868E+02  0.21513775815E+03  0.00000000000E+00 0. -1.
         21    1    1    2  505  502  0.21451769311E+02 -0.25382612033E+02  0.48402662550E+02  0.58713483477E+02  0.00000000000E+00 0.  1.
          2    1    1    2  501    0 -0.88874266238E+01  0.20507601400E+03 -0.41964194681E+03  0.46715577851E+03  0.00000000000E+00 0.  1.
<scales pt_clust_3="89.69815" pt_clust_4="201.54059" pt_clust_5="33.23335" pt_clust_6="14000.00000"></scales>
<clustering>
<clus scale="   33.233">  1  5  2 -1</clus>
<clus scale="   89.698">  1  3  2 -1</clus>
<clus scale="  201.541">  1  4  2 -1</clus>
<clus scale="   33.233">  1  3  2 -1</clus>
</clustering>
</event>
<event>
 6    0  0.2572175E+002  0.1436001E+03  0.7546771E-02  0.1208565E+00
          2   -1    0    0  503    0 -0.00000000000E+00  0.00000000000E+00  0.13949765918E+04  0.13949765918E+04  0.00000000000E+00 0.  1.
         21   -1    0    0  504  502  0.00000000000E+00 -0.00000000000E+00 -0.33270614903E+03  0.33270614903E+03  0.00000000000E+00 0. -1.
         21    1    1    2  503  505 -0.32326808697E+02 -0.34869005048E+01  0.28850656219E+02  0.43468855516E+02  0.00000000000E+00 0.  1.
         21    1    1    2  504  501  0.70891242581E+01  0.18105034894E+03  0.48880338851E+02  0.18766665144E+03  0.00000000000E+00 0.  1.
         21    1    1    2  505  502  0.48049607041E+02 -0.13084244129E+03 -0.23643668886E+03  0.27446460067E+03  0.00000000000E+00 0. -1.
          2    1    1    2  501    0 -0.22811922602E+02 -0.46721007148E+02  0.12209761366E+04  0.12220826332E+04  0.00000000000E+00 0.  1.
<scales pt_clust_3="32.51432" pt_clust_4="143.60007" pt_clust_5="14000.00000" pt_clust_6="71.94685"></scales>
<clustering>
<clus scale="   32.514">  1  3  2 -1</clus>
<clus scale="   71.947">  1  6  2 -1</clus>
<clus scale="  143.600">  1  4  2 -1</clus>
<clus scale="  143.600">  2  3  1 -1</clus>
</clustering>
</event>
<event>
 6    0  0.2572175E+002  0.6287254E+02  0.7546771E-02  0.1386158E+00
         21   -1    0    0  503  502  0.00000000000E+00  0.00000000000E+00  0.23911262903E+04  0.23911262903E+04  0.00000000000E+00 0.  1.
         -1   -1    0    0    0  501 -0.00000000000E+00 -0.00000000000E+00 -0.21639490208E+03  0.21639490208E+03  0.00000000000E+00 0.  1.
         21    1    1    2  503  501  0.11473643918E+01 -0.61769259044E+02  0.15309487139E+04  0.15321947404E+04  0.00000000000E+00 0.  1.
         21    1    1    2  504  505  0.63080802394E+02  0.59011630018E+02 -0.73944121547E+02  0.11370705000E+03  0.00000000000E+00 0.  1.
         21    1    1    2  505  502 -0.59322513383E+02  0.37812435169E+02  0.83559497690E+03  0.83855107553E+03  0.00000000000E+00 0.  1.
         -1    1    1    2    0  504 -0.49056534027E+01 -0.35054806143E+02 -0.11786818106E+03  0.12306832645E+03  0.00000000000E+00 0.  1.
<scales pt_clust_3="62.00696" pt_clust_4="14000.00000" pt_clust_5="62.87254" pt_clust_6="35.39640"></scales>
<clustering>
<clus scale="   35.396">  2  6  1 -1</clus>
<clus scale="   62.007">  1  3  2 -1</clus>
<clus scale="   62.873">  1  5  2 -1</clus>
<clus scale="   62.007">  1  3  2 -1</clus>
</clustering>
</event>
<event>
 6    0  0.2572175E+002  0.1221818E+03  0.7546771E-02  0.1239541E+00
          2   -1    0    0  503    0 -0.00000000000E+00  0.00000000000E+00  0.75831703632E+03  0.75831703632E+03  0.00000000000E+00 0. -1.
         21   -1    0    0  504  502  0.00000000000E+00 -0.00000000000E+00 -0.10888840362E+04  0.10888840362E+04  0.00000000000E+00 0. -1.
         21    1    1    2  503  505 -0.17144901135E+01  0.61626319920E+02 -0.57361101409E+03  0.57691449823E+03  0.00000000000E+00 0. -1.
         21    1    1    2  504  501 -0.10074204688E+03 -0.95936929435E+02 -0.48476813334E+00  0.13911538175E+03  0.00000000000E+00 0.  1.
         21    1    1    2  505  502  0.48897249232E+02  0.32522084355E+02 -0.44082654798E+03  0.44472089265E+03  0.00000000000E+00 0. -1.
          2    1    1    2  501    0  0.53559287758E+02  0.17885251596E+01  0.68435533031E+03  0.68645029991E+03  0.00000000000E+00 0. -1.
<scales pt_clust_3="58.86962" pt_clust_4="106.59839" pt_clust_5="58.86962" pt_clust_6="53.58914"></scales>
<clustering>
<clus scale="   53.589">  1  6  2 -1</clus>
<clus scale="   58.870">  3  5 -1 -1</clus>
<clus scale="  106.598">  1  4  2 -1</clus>
<clus scale="  122.182">  2  3  1 -1</clus>
</clustering>
</event>
<event>
 6    0  0.2572175E+002  0.1629732E+03  0.7546771E-02  0.1185380E+00
         21   -1    0    0  504  502  0.00000000000E+00  0.00000000000E+00  0.16417646596E+03  0.16417646596E+03  0.00000000000E+00 0. -1.
          2   -1    0    0  503    0 -0.00000000000E+00 -0.00000000000E+00 -0.29952912885E+03  0.29952912885E+03  0.00000000000E+00 0. -1.
         21    1    1    2  503  502  0.71298720006E+02  0.56544239276E+01  0.19678250646E+02  0.74180277250E+02  0.00000000000E+00 0. -1.
         21    1    1    2  504  505 -0.16441923076E+03 -0.10611494450E+03 -0.34061102270E+02  0.19863087267E+03  0.00000000000E+00 0. -1.
         21    1    1    2  505  501  0.34075406888E+02  0.36611510014E+01 -0.26968305573E+02  0.43609940228E+02  0.00000000000E+00 0. -1.
          2    1    1    2  501    0  0.59045103869E+02  0.96799369567E+02 -0.94001505695E+02  0.14728450466E+03  0.00000000000E+00 0. -1.
<scales pt_clust_3="71.52258" pt_clust_4="153.35259" pt_clust_5="30.32880" pt_clust_6="30.32880"></scales>
<clustering>
<clus scale="   30.329">  5  6 -1 -1</clus>
<clus scale="   71.523">  1  3  2 -1</clus>
<clus scale="  153.353">  1  4  2 -1</clus>
<clus scale="   71.523">  1  3  2 -1</clus>
</clustering>
</event>
<event>
 6    0  0.2572175E+002  0.2056932E+03  0.7546771E-02  0.1145023E+00
         21   -1    0    0  501  502  0.00000000000E+00  0.00000000000E+00  0.17314765845E+03  0.17314765845E+03  0.00000000000E+00 0. -1.
          2   -1    0    0  505    0 -0.00000000000E+00 -0.00000000000E+00 -0.14804802919E+04  0.14804802919E+04  0.00000000000E+00 0. -1.
         21    1    1    2  503  502  0.59587668294E+02 -0.10945827745E+03 -0.24466266842E+02  0.12700552322E+03  0.00000000000E+00 0. -1.
         21    1    1    2  504  503  0.39017674821E+02 -0.85654554083E+02  0.11920306554E+02  0.94874523935E+02  0.00000000000E+00 0. -1.
         21    1    1    2  505  504 -0.76829678484E+02  0.16872048209E+03 -0.57662092056E+02  0.19415024448E+03  0.00000000000E+00 0. -1.
          2    1    1    2  501    0 -0.21775664631E+02  0.26392349445E+02 -0.12371245811E+04  0.12375976587E+04  0.00000000000E+00 0. -1.
<scales pt_clust_3="31.10793" pt_clust_4="31.10793" pt_clust_5="202.55464" pt_clust_6="34.21601"></scales>
<clustering>
<clus scale="   31.108">  3  4 -1 -1</clus>
<clus scale="   34.216">  2  6  1 -1</clus>
<clus scale="  202.555">  2  5  1 -1</clus>
<clus scale="  205.693">  1  3  2 -1</clus>
</clustering>
</event>
<event>
 6    0  0.2572175E+002  0.1820860E+03  0.7546771E-02  0.1165799E+00
         21   -1    0    0  504  502  0.00000000000E+00  0.00000000000E+00  0.67825693214E+03  0.67825693214E+03  0.00000000000E+00 0. -1.
          2   -1    0    0  503    0 -0.00000000000E+00 -0.00000000000E+00 -0.52261808506E+03  0.52261808506E+03  0.00000000000E+00 0. -1.
         21    1    1    2  503  502 -0.83070061874E+02 -0.16570501981E+03  0.48080143304E+02  0.19149540190E+03  0.00000000000E+00 0. -1.
         21    1    1    2  504  505  0.94241160347E+02  0.23070406602E+02  0.19049720357E+03  0.21378218946E+03  0.00000000000E+00 0. -1.
         21    1    1    2  505  501 -0.18988735666E+03  0.10298666303E+03  0.30085891874E+03  0.37037757757E+03  0.00000000000E+00 0. -1.
          2    1    1    2  501    0  0.17871625819E+03  0.39647950174E+02 -0.38379741853E+03  0.42521984827E+03  0.00000000000E+00 0. -1.
<scales pt_clust_3="170.56316" pt_clust_4="97.02391" pt_clust_5="182.08596" pt_clust_6="14000.00000"></scales>
<clustering>
<clus scale="   97.024">  1  4  2 -1</clus>
<clus scale="  170.563">  1  3  2 -1</clus>
<clus scale="  182.086">  1  5  2 -1</clus>
<clus scale="   97.024">  1  3  2 -1</clus>
</clustering>
</event>
<event>
 6    0  0.2572175E+002  0.8737361E+02  0.7546771E-02  0.1309339E+00
         21   -1    0    0  503  502  0.00000000000E+00  0.00000000000E+00  0.22826326250E+04  0.22826326250E+04  0.00000000000E+00 0.  1.
          2   -1    0    0  505    0 -0.00000000000E+00 -0.00000000000E+00 -0.14697112197E+04  0.14697112197E+04  0.00000000000E+00 0.  1.
         21    1    1    2  503  504  0.10569801162E+03 -0.67747906948E+02  0.17990636558E+04  0.18034389056E+04  0.00000000000E+00 0.  1.
         21    1    1    2  504  501 -0.75625738390E+02  0.78529029335E+02  0.78563284715E+02  0.13438098995E+03  0.00000000000E+00 0. -1.
         21    1    1    2  505  502 -0.30075648887E+02  0.32232917288E+02  0.37329051785E+03  0.37588471149E+03  0.00000000000E+00 0. -1.
          2    1    1    2  501    0  0.33756596745E-02 -0.43014039675E+02 -0.14379960530E+04  0.14386392377E+04  0.00000000000E+00 0.  1.
<scales pt_clust_3="87.37361" pt_clust_4="14000.00000" pt_clust_5="42.80287" pt_clust_6="43.01404"></scales>
<clustering>
<clus scale="   43.014">  2  6  1 -1</clus>
<clus scale="   42.803">  1  5  2 -1</clus>
<clus scale="   87.374">  1  3  2 -1</clus>
<clus scale="   42.803">  1  3  2 -1</clus>
</clustering>
</event>
<event>
 6    0  0.2572175E+002  0.1430632E+03  0.7546771E-02  0.1209266E+00
         21   -1    0    0  504  502  0.00000000000E+00  0.00000000000E+00  0.22401138084E+03  0.22401138084E+03  0.00000000000E+00 0. -1.
          2   -1    0    0  505    0 -0.00000000000E+00 -0.00000000000E+00 -0.65504617884E+03  0.65504617884E+03  0.00000000000E+00 0.  1.
         21    1    1    2  503  501  0.28945818131E+02 -0.67233892308E+02  0.57481352267E+02  0.93071813782E+02  0.00000000000E+00 0. -1.
         21    1    1    2  504  503  0.40189105591E+02 -0.48777347595E+02  0.11728342443E+03  0.13322835844E+03  0.00000000000E+00 0. -1.
         21    1    1    2  505  502 -0.71161935019E+02 -0.22417985168E+02 -0.81527335075E+02  0.11051377027E+03  0.00000000000E+00 0.  1.
          2    1    1    2  501    0  0.20270112972E+01  0.13842922507E+03 -0.52427223963E+03  0.54224361718E+03  0.00000000000E+00 0.  1.
<scales pt_clust_3="45.81219" pt_clust_4="45.81219" pt_clust_5="74.60956" pt_clust_6="134.29924"></scales>
<clustering>
<clus scale="   45.812">  3  4 -1 -1</clus>
<clus scale="   74.610">  2  5  1 -1</clus>
<clus scale="  134.299">  2  6  1 -1</clus>
<clus scale="  143.063">  1  3  2 -1</clus>
</clustering>
</event>
<event>
 6    0  0.2572175E+002  0.4040924E+03  0.7546771E-02  0.1042372E+00
          1   -1    0    0  505    0 -0.00000000000E+00  0.00000000000E+00  0.35859546231E+03  0.35859546231E+03  0.00000000000E+00 0.  1.
         21   -1    0    0  503  502  0.00000000000E+00 -0.00000000000E+00 -0.31909943136E+04  0.31909943136E+04  0.00000000000E+00 0.  1.
         21    1    1    2  503  504  0.27550814109E+03 -0.28165904869E+03 -0.70287980024E+03  0.80577699712E+03  0.00000000000E+00 0.  1.
         21    1    1    2  504  501 -0.56203748155E+02 -0.33474455997E+02 -0.24278818460E+02  0.69777227924E+02  0.00000000000E+00 0.  1.
         21    1    1    2  505  502 -0.18921782083E+03  0.36608325515E+03 -0.23685641276E+04  0.24041456611E+04  0.00000000000E+00 0.  1.
          1    1    1    2  501    0 -0.30086572098E+02 -0.50949750456E+02  0.26332389501E+03  0.26988988973E+03  0.00000000000E+00 0.  1.
<scales pt_clust_3="404.09239" pt_clust_4="78.57139" pt_clust_5="14000.00000" pt_clust_6="59.16992"></scales>
<clustering>
<clus scale="   59.170">  1  6  2 -1</clus>
<clus scale="   78.571">  1  4  2 -1</clus>
<clus scale="  404.092">  1  3  2 -1</clus>
<clus scale="  404.092">  2  3  1 -1</clus>
</clustering>
</event>
<event>
 6    0  0.2572175E+002  0.1370514E+03  0.7546771E-02  0.1217353E+00
         21   -1    0    0  503  502  0.00000000000E+00  0.00000000000E+00  0.13505290477E+03  0.13505290477E+03  0.00000000000E+00 0.  1.
          2   -1    0    0  504    0 -0.00000000000E+00 -0.00000000000E+00 -0.17101503773E+04  0.17101503773E+04  0.00000000000E+00 0. -1.
         21    1    1    2  503  505  0.34218055344E+02 -0.69920128135E+02  0.46217198679E+02  0.90530266120E+02  0.00000000000E+00 0.  1.
         21    1    1    2  504  502 -0.11692035940E+03  0.10719627430E+03 -0.11451479692E+03  0.19564010422E+03  0.00000000000E+00 0. -1.
         21    1    1    2  505  501  0.44342200951E+02 -0.17021654539E+02  0.39494376092E+01  0.47660943820E+02  0.00000000000E+00 0.  1.
          2    1    1    2  501    0  0.38360103111E+02 -0.20254491625E+02 -0.15107493119E+04  0.15113719679E+04  0.00000000000E+00 0. -1.
<scales pt_clust_3="41.69723" pt_clust_4="126.22814" pt_clust_5="41.69723" pt_clust_6="43.37905"></scales>
<clustering>
<clus scale="   41.697">  3  5 -1 -1</clus>
<clus scale="   43.379">  2  6  1 -1</clus>
<clus scale="  126.228">  2  4  1 -1</clus>
<clus scale="  137.051">  1  3  2 -1</clus>
</clustering>
</event>
<event>
 6    0  0.2572175E+002  0.1178102E+03  0.7546771E-02  0.1246754E+00
         21   -1    0    0  503  502  0.00000000000E+00  0.00000000000E+00  0.97408314051E+02  0.97408314051E+02  0.00000000000E+00 0.  1.
          1   -1    0    0  505    0 -0.00000000000E+00 -0.00000000000E+00 -0.42503536785E+03  0.42503536785E+03  0.00000000000E+00 0.  1.
         21    1    1    2  503  501  0.78628479466E+02 -0.66741895922E+02 -0.36516333659E+02  0.10940914531E+03  0.00000000000E+00 0.  1.
         21    1    1    2  504  502  0.33607443079E+02  0.35658253475E+02 -0.12831452271E+01  0.49016504698E+02  0.00000000000E+00 0.  1.
         21    1    1    2  505  504 -0.12355441670E+03  0.62669750867E+02 -0.99033855101E+02  0.17029649443E+03  0.00000000000E+00 0.  1.
          1    1    1    2  501    0  0.11318494154E+02 -0.31586108420E+02 -0.19079371981E+03  0.19372153746E+03  0.00000000000E+00 0.  1.
<scales pt_clust_3="117.81024" pt_clust_4="47.46505" pt_clust_5="14000.00000" pt_clust_6="33.55280"></scales>
<clustering>
<clus scale="   33.553">  2  6  1 -1</clus>
<clus scale="   47.465">  1  4  2 -1</clus>
<clus scale="  117.810">  1  3  2 -1</clus>
<clus scale="   47.465">  1  3  2 -1</clus>
</clustering>
</event>
<event>
 6    0  0.2572175E+002  0.8642760E+02  0.7546771E-02  0.1311741E+00
         21   -1    0    0  504  502  0.00000000000E+00  0.00000000000E+00  0.36945114019E+03  0.36945114019E+03  0.00000000000E+00 0. -1.
          1   -1    0    0  505    0 -0.00000000000E+00 -0.00000000000E+00 -0.31430926684E+04  0.31430926684E+04  0.00000000000E+00 0. -1.
         21    1    1    2  503  502  0.28980230949E+02  0.23047908539E+02  0.30886396483E+03  0.31107556741E+03  0.00000000000E+00 0. -1.
         21    1    1    2  504  501  0.15599575768E+02 -0.28351755856E+02  0.48086642356E+02  0.57961142132E+02  0.00000000000E+00 0.  1.
         21    1    1    2  505  503 -0.52700535127E+02 -0.80726331386E+02 -0.39657683796E+03  0.40812654335E+03  0.00000000000E+00 0.  1.
          1    1    1    2  501    0  0.81207284096E+01  0.86030178703E+02 -0.27340152975E+04  0.27353805557E+04  0.00000000000E+00 0. -1.
<scales pt_clust_3="44.51297" pt_clust_4="32.35999" pt_clust_5="14000.00000" pt_clust_6="86.42760"></scales>
<clustering>
<clus scale="   32.360">  1  4  2 -1</clus>
<clus scale="   44.513">  1  3  2 -1</clus>
<clus scale="   86.428">  2  6  1 -1</clus>
<clus scale="   32.360">  1  3  2 -1</clus>
</clustering>
</event>
<event>
 6    0  0.2572175E+002  0.7653747E+02  0.7546771E-02  0.1339175E+00
         -4   -1    0    0    0  501 -0.00000000000E+00  0.00000000000E+00  0.35028274358E+02  0.35028274358E+02  0.00000000000E+00 0. -1.
         21   -1    0    0  503  502  0.00000000000E+00 -0.00000000000E+00 -0.32402981805E+04  0.32402981805E+04  0.00000000000E+00 0.  1.
         21    1    1    2  503  504 -0.34621397019E+02 -0.80751408794E+01 -0.14828811917E+04  0.14833072769E+04  0.00000000000E+00 0.  1.
         21    1    1    2  504  501  0.60386393599E+02 -0.92982908691E+02 -0.87733986375E+03  0.88431757551E+03  0.00000000000E+00 0.  1.
         21    1    1    2  505  502 -0.13671196537E+02  0.26822153580E+02 -0.83055853279E+03  0.83110396818E+03  0.00000000000E+00 0.  1.
         -4    1    1    2    0  505 -0.12093800042E+02  0.74235895991E+02 -0.14490317844E+02  0.76597634195E+02  0.00000000000E+00 0. -1.
<scales pt_clust_3="43.85516" pt_clust_4="76.53747" pt_clust_5="30.10531" pt_clust_6="14000.00000"></scales>
<clustering>
<clus scale="   30.105">  2  5  1 -1</clus>
<clus scale="   43.855">  2  3  1 -1</clus>
<clus scale="   76.537">  2  4  1 -1</clus>
<clus scale="   30.105">  2  3  1 -1</clus>
</clustering>
</event>
<event>
 6    0  0.2572175E+002  0.7401876E+02  0.7546771E-02  0.1346937E+00
         21   -1    0    0  505  502  0.00000000000E+00  0.00000000000E+00  0.87529793797E+02  0.87529793797E+02  0.00000000000E+00 0.  1.
          2   -1    0    0  503    0 -0.00000000000E+00 -0.00000000000E+00 -0.32842482042E+04  0.32842482042E+04  0.00000000000E+00 0. -1.
         21    1    1    2  503  504 -0.47810312573E+02 -0.15732321775E+02 -0.36448202119E+02  0.62143409742E+02  0.00000000000E+00 0.  1.
         21    1    1    2  504  502  0.83403542887E+02 -0.77643836870E+02 -0.25930509523E+02  0.11686362862E+03  0.00000000000E+00 0.  1.
         21    1    1    2  505  501 -0.33461569499E+02  0.47682311314E+02 -0.15460298458E+00  0.58252067325E+02  0.00000000000E+00 0.  1.
          2    1    1    2  501    0 -0.21316608150E+01  0.45693847330E+02 -0.31341850958E+04  0.31345188923E+04  0.00000000000E+00 0. -1.
<scales pt_clust_3="48.51647" pt_clust_4="14000.00000" pt_clust_5="74.01876" pt_clust_6="45.74354"></scales>
<clustering>
<clus scale="   45.744">  2  6  1 -1</clus>
<clus scale="   48.516">  2  3  1 -1</clus>
<clus scale="   74.019">  1  5  2 -1</clus>
<clus scale="   74.019">  1  3  2 -1</clus>
</clustering>
</event>
<event>
 6    0  0.2572175E+002  0.1476644E+03  0.7546771E-02  0.1203373E+00
         21   -1    0    0  501  502  0.00000000000E+00  0.00000000000E+00  0.15059513626E+03  0.15059513626E+03  0.00000000000E+00 0. -1.
          2   -1    0    0  503    0 -0.00000000000E+00 -0.00000000000E+00 -0.11297405814E+04  0.11297405814E+04  0.00000000000E+00 0. -1.
         21    1    1    2  503  504  0.13105664778E+03 -0.15895593791E+02 -0.20647867409E+03  0.24507541224E+03  0.00000000000E+00 0. -1.
         21    1    1    2  504  505 -0.76497074584E+02  0.42278029988E+02  0.39598382872E+02  0.95954500497E+02  0.00000000000E+00 0. -1.
         21    1    1    2  505  502 -0.61045333069E+02  0.49134601139E+01  0.48392740965E+02  0.78054674158E+02  0.00000000000E+00 0. -1.
          2    1    1    2  501    0  0.64857598710E+01 -0.31295896310E+02 -0.86065789486E+03  0.86125113073E+03  0.00000000000E+00 0. -1.
<scales pt_clust_3="142.87399" pt_clust_4="31.22871" pt_clust_5="31.22871" pt_clust_6="31.96089"></scales>
<clustering>
<clus scale="   31.229">  4  5 -1 -1</clus>
<clus scale="   31.961">  2  6  1 -1</clus>
<clus scale="  142.874">  2  3  1 -1</clus>
<clus scale="  147.664">  1  3  2 -1</clus>
</clustering>
</event>
<event>
 6    0  0.2572175E+002  0.1589654E+03  0.7546771E-02  0.1189870E+00
         21   -1    0    0  504  502  0.00000000000E+00  0.00000000000E+00  0.22600857957E+03  0.22600857957E+03  0.00000000000E+00 0.  1.
         -1   -1    0    0    0  501 -0.00000000000E+00 -0.00000000000E+00 -0.10444226671E+04  0.10444226671E+04  0.00000000000E+00 0.  1.
         21    1    1    2  503  505  0.14369562786E+03 -0.10069288402E+03 -0.31807726030E+03  0.36326386261E+03  0.00000000000E+00 0.  1.
         21    1    1    2  504  501 -0.37854103341E+02 -0.37592190571E+01  0.48547643688E+02  0.61676077821E+02  0.00000000000E+00 0.  1.
         21    1    1    2  505  502 -0.67201635233E+02  0.12534848031E+03  0.11330801899E+03  0.18184336243E+03  0.00000000000E+00 0.  1.
         -1    1    1    2    0  503 -0.38639889286E+02 -0.20896377228E+02 -0.66219248990E+03  0.66364794379E+03  0.00000000000E+00 0.  1.
<scales pt_clust_3="14000.00000" pt_clust_4="38.04031" pt_clust_5="158.96539" pt_clust_6="44.07779"></scales>
<clustering>
<clus scale="   38.040">  1  4  2 -1</clus>
<clus scale="   44.078">  2  6  1 -1</clus>
<clus scale="  158.965">  1  5  2 -1</clus>
<clus scale="   38.040">  1  3  2 -1</clus>
</clustering>
</event>
<event>
 6    0  0.2572175E+002  0.2666369E+03  0.7546771E-02  0.1103220E+00
         -2   -1    0    0    0  501 -0.00000000000E+00  0.00000000000E+00  0.24789933786E+03  0.24789933786E+03  0.00000000000E+00 0.  1.
         21   -1    0    0  505  502  0.00000000000E+00 -0.00000000000E+00 -0.35912503100E+03  0.35912503100E+03  0.00000000000E+00 0.  1.
         21    1    1    2  503  504 -0.52929955447E+02  0.48257145231E+02  0.15313106503E+02  0.73244955323E+02  0.00000000000E+00 0. -1.
         21    1    1    2  504  501  0.10980164280E+03 -0.21895059885E+03 -0.35457669192E+02  0.24749345810E+03  0.00000000000E+00 0.  1.
         21    1    1    2  505  503 -0.12218522947E+03  0.16556210704E+03 -0.65282610100E+02  0.21587464133E+03  0.00000000000E+00 0.  1.
         -2    1    1    2    0  502  0.65313542118E+02  0.51313465834E+01 -0.25798520349E+02  0.70411314105E+02  0.00000000000E+00 0.  1.
<scales pt_clust_3="40.48756" pt_clust_4="257.65495" pt_clust_5="40.48756" pt_clust_6="65.51480"></scales>
<clustering>
<clus scale="   40.488">  3  5 -1 -1</clus>
<clus scale="   65.515">  2  6  1 -1</clus>
<clus scale="  257.655">  1  4  2 -1</clus>
<clus scale="   65.515">  2  3  1 -1</clus>
</clustering>
</event>
<event>
 6    0  0.2572175E+002  0.6999007E+02  0.7546771E-02  0.1360127E+00
          2   -1    0    0  502    0 -0.00000000000E+00  0.00000000000E+00  0.53279657745E+04  0.53279657745E+04  0.00000000000E+00 0. -1.
         21   -1    0    0  504  502  0.00000000000E+00 -0.00000000000E+00 -0.27194711964E+03  0.27194711964E+03  0.00000000000E+00 0. -1.
         21    1    1    2  503  505 -0.27633375204E+01 -0.79092200669E+02 -0.23401758048E+03  0.24703732554E+03  0.00000000000E+00 0. -1.
         21    1    1    2  504  503  0.14316164380E+02  0.46112697224E+02  0.11259638699E+02  0.49579359329E+02  0.00000000000E+00 0.  1.
         21    1    1    2  505  501 -0.74107449175E+02  0.63285437195E+02  0.18545765532E+03  0.20950298925E+03  0.00000000000E+00 0.  1.
          2    1    1    2  501    0  0.62554622315E+02 -0.30305933749E+02  0.50933189413E+04  0.50937932200E+04  0.00000000000E+00 0. -1.
<scales pt_clust_3="36.85196" pt_clust_4="48.28388" pt_clust_5="69.99007" pt_clust_6="14000.00000"></scales>
<clustering>
<clus scale="   48.284">  2  4  1 -1</clus>
<clus scale="   36.852">  2  3  1 -1</clus>
<clus scale="   69.990">  2  5  1 -1</clus>
<clus scale="   48.284">  2  3  1 -1</clus>
</clustering>
</event>
<event>
 6    0  0.2572175E+002  0.6307936E+02  0.7546771E-02  0.1385345E+00
         -3   -1    0    0    0  501 -0.00000000000E+00  0.00000000000E+00  0.76801830921E+03  0.76801830921E+03  0.00000000000E+00 0. -1.
         21   -1    0    0  504  502  0.00000000000E+00 -0.00000000000E+00 -0.14666557473E+03  0.14666557473E+03  0.00000000000E+00 0.  1.
         21    1    1    2  503  502 -0.58767208132E+02 -0.69771794859E+02 -0.82844969374E+02  0.12322733893E+03  0.00000000000E+00 0.  1.
         21    1    1    2  504  505  0.22022286244E+02  0.35656082522E+02  0.21210673790E+02  0.46970522617E+02  0.00000000000E+00 0.  1.
         21    1    1    2  505  501  0.74232378192E+02 -0.19625793531E+01  0.16625817366E+02  0.76096750869E+02  0.00000000000E+00 0.  1.
         -3    1    1    2    0  503 -0.37487456304E+02  0.36078291691E+02  0.66636121270E+03  0.66838927153E+03  0.00000000000E+00 0. -1.
<scales pt_clust_3="14000.00000" pt_clust_4="41.90868" pt_clust_5="63.07936" pt_clust_6="52.09644"></scales>
<clustering>
<clus scale="   41.909">  2  4  1 -1</clus>
<clus scale="   52.096">  1  6  2 -1</clus>
<clus scale="   63.079">  1  5  2 -1</clus>
<clus scale="   41.909">  2  3  1 -1</clus>
</clustering>
</event>
<event>
 6    0  0.2572175E+002  0.1378127E+03  0.7546771E-02  0.1216303E+00
          2   -1    0    0  503    0 -0.00000000000E+00  0.00000000000E+00  0.18692692492E+03  0.18692692492E+03  0.00000000000E+00 0.  1.
         21   -1    0    0  505  502  0.00000000000E+00 -0.00000000000E+00 -0.38415008125E+03  0.38415008125E+03  0.00000000000E+00 0. -1.
         21    1    1    2  503  502  0.11003535024E+03 -0.54538499901E+02 -0.23202379903E+02  0.12498230557E+03  0.00000000000E+00 0.  1.
         21    1    1    2  504  501 -0.57057599524E+02  0.12998442390E+02 -0.75555745429E+02  0.95567776135E+02  0.00000000000E+00 0. -1.
         21    1    1    2  505  504 -0.75216113670E+02 -0.12176668698E+02 -0.21074036774E+03  0.22409202934E+03  0.00000000000E+00 0. -1.
          2    1    1    2  501    0  0.22238362958E+02  0.53716726209E+02  0.11227533675E+03  0.12643489512E+03  0.00000000000E+00 0.  1.
<scales pt_clust_3="127.56338" pt_clust_4="45.70500" pt_clust_5="45.70500" pt_clust_6="58.13804"></scales>
<clustering>
<clus scale="   45.705">  4  5 -1 -1</clus>
<clus scale="   58.138">  1  6  2 -1</clus>
<clus scale="  127.563">  1  3  2 -1</clus>
<clus scale="  137.813">  2  3  1 -1</clus>
</clustering>
</event>
<event>
 6    0  0.2572175E+002  0.7406593E+02  0.7546771E-02  0.1346788E+00
         -2   -1    0    0    0  501 -0.00000000000E+00  0.00000000000E+00  0.20330251866E+04  0.20330251866E+04  0.00000000000E+00 0.  1.
         21   -1    0    0  503  502  0.00000000000E+00 -0.00000000000E+00 -0.16387232413E+03  0.16387232413E+03  0.00000000000E+00 0.  1.
         21    1    1    2  503  501  0.10319044736E+03  0.97332272750E+01  0.38872637043E+03  0.40230733924E+03  0.00000000000E+00 0.  1.
         21    1    1    2  504  505 -0.55397471551E+02  0.25295113226E+02 -0.14217496104E+02  0.62536867549E+02  0.00000000000E+00 0.  1.
         21    1    1    2  505  502  0.22323426264E+02 -0.26018907514E+02 -0.11543748436E+03  0.12042064484E+03  0.00000000000E+00 0.  1.
         -2    1    1    2    0  504 -0.70116402070E+02 -0.90094329872E+01  0.16100814725E+04  0.16116326591E+04  0.00000000000E+00 0.  1.
<scales pt_clust_3="14000.00000" pt_clust_4="36.92247" pt_clust_5="34.28292" pt_clust_6="74.06593"></scales>
<clustering>
<clus scale="   34.283">  2  5  1 -1</clus>
<clus scale="   36.922">  2  4  1 -1</clus>
<clus scale="   74.066">  1  6  2 -1</clus>
<clus scale="   34.283">  2  3  1 -1</clus>
</clustering>
</event>
<event>
 6    0  0.2572175E+002  0.8405750E+02  0.7546771E-02  0.1317916E+00
          2   -1    0    0  502    0 -0.00000000000E+00  0.00000000000E+00  0.33436020919E+04  0.33436020919E+04  0.00000000000E+00 0. -1.
         21   -1    0    0  503  502  0.00000000000E+00 -0.00000000000E+00 -0.25522899777E+02  0.25522899777E+02  0.00000000000E+00 0. -1.
         21    1    1    2  503  504 -0.54584221769E+02  0.66333297113E+02  0.67303921877E+02  0.10913002095E+03  0.00000000000E+00 0. -1.
         21    1    1    2  504  505  0.79319417662E+02  0.24046840164E+02  0.24358677600E+04  0.24372774903E+04  0.00000000000E+00 0. -1.
         21    1    1    2  505  501 -0.43847008148E+02 -0.40868225031E+02  0.44759679892E+03  0.45159236745E+03  0.00000000000E+00 0. -1.
          2    1    1    2  501    0  0.19111812256E+02 -0.49511912246E+02  0.36731071138E+03  0.37112511302E+03  0.00000000000E+00 0. -1.
<scales pt_clust_3="84.05750" pt_clust_4="14000.00000" pt_clust_5="63.36803" pt_clust_6="53.07251"></scales>
<clustering>
<clus scale="   53.073">  1  6  2 -1</clus>
<clus scale="   63.368">  1  5  2 -1</clus>
<clus scale="   84.057">  2  3  1 -1</clus>
<clus scale="   84.057">  2  3  1 -1</clus>
</clustering>
</event>
<event>
 6    0  0.2572175E+002  0.1542117E+03  0.7546771E-02  0.1195391E+00
          2   -1    0    0  504    0 -0.00000000000E+00  0.00000000000E+00  0.68773314325E+03  0.68773314325E+03  0.00000000000E+00 0. -1.
         21   -1    0    0  505  502  0.00000000000E+00 -0.00000000000E+00 -0.30077529669E+03  0.30077529669E+03  0.00000000000E+00 0. -1.
         21    1    1    2  503  502  0.33851835105E+02  0.81946448128E+01 -0.57669412926E+01  0.35303775371E+02  0.00000000000E+00 0. -1.
         21    1    1    2  504  503 -0.21178529657E+03  0.85295777335E+00  0.21593033942E+03  0.30245603129E+03  0.00000000000E+00 0. -1.
         21    1    1    2  505  501  0.87719279421E+02 -0.10681164719E+03 -0.20454936530E+03  0.24686806760E+03  0.00000000000E+00 0. -1.
          2    1    1    2  501    0  0.90214182042E+02  0.97764044601E+02  0.38134381374E+03  0.40388056568E+03  0.00000000000E+00 0. -1.
<scales pt_clust_3="34.82957" pt_clust_4="154.21167" pt_clust_5="14000.00000" pt_clust_6="134.19534"></scales>
<clustering>
<clus scale="   34.830">  2  3  1 -1</clus>
<clus scale="  134.195">  1  6  2 -1</clus>
<clus scale="  154.212">  1  4  2 -1</clus>
<clus scale="   34.830">  2  3  1 -1</clus>
</clustering>
</event>
<event>
 6    0  0.2572175E+002  0.9484771E+02  0.7546771E-02  0.1291519E+00
         21   -1    0    0  505  502  0.00000000000E+00  0.00000000000E+00  0.10784054723E+04  0.10784054723E+04  0.00000000000E+00 0. -1.
          1   -1    0    0  503    0 -0.00000000000E+00 -0.00000000000E+00 -0.91069520943E+03  0.91069520943E+03  0.00000000000E+00 0. -1.
         21    1    1    2  503  502  0.16571806303E+02 -0.37001243984E+02  0.16263157130E+03  0.16760890431E+03  0.00000000000E+00 0. -1.
         21    1    1    2  504  501  0.20196792395E+02  0.88335052880E+02 -0.23619528131E+02  0.93642266629E+02  0.00000000000E+00 0. -1.
         21    1    1    2  505  504  0.39292167337E+02 -0.45440904743E+02  0.87552994059E+03  0.87758841555E+03  0.00000000000E+00 0. -1.
          1    1    1    2  501    0 -0.76060766035E+02 -0.58929041536E+01 -0.84683172092E+03  0.85026109520E+03  0.00000000000E+00 0. -1.
<scales pt_clust_3="40.54278" pt_clust_4="94.84771" pt_clust_5="14000.00000" pt_clust_6="76.26308"></scales>
<clustering>
<clus scale="   40.543">  1  3  2 -1</clus>
<clus scale="   76.263">  2  6  1 -1</clus>
<clus scale="   94.848">  2  4  1 -1</clus>
<clus scale="   40.543">  1  3  2 -1</clus>
</clustering>
</event>
<event>
 6    0  0.2572175E+002  0.7409884E+02  0.7546771E-02  0.1346685E+00
         21   -1    0    0  504  502  0.00000000000E+00  0.00000000000E+00  0.41183487844E+02  0.41183487844E+02  0.00000000000E+00 0. -1.
         -1   -1    0    0    0  501 -0.00000000000E+00 -0.00000000000E+00 -0.27147983974E+04  0.27147983974E+04  0.00000000000E+00 0. -1.
         21    1    1    2  503  502 -0.25155469761E+02 -0.33878903004E+02 -0.53686770360E+02  0.68285042574E+02  0.00000000000E+00 0.  1.
         21    1    1    2  504  501  0.48924121118E+02  0.93776616545E+02 -0.12797280831E+03  0.16602609164E+03  0.00000000000E+00 0. -1.
         21    1    1    2  505  503 -0.55944237126E+02  0.71575996352E+01 -0.41343368957E+02  0.69930415821E+02  0.00000000000E+00 0. -1.
         -1    1    1    2    0  505  0.32175585770E+02 -0.67055313176E+02 -0.24506119620E+04  0.24517403352E+04  0.00000000000E+00 0. -1.
<scales pt_clust_3="42.19689" pt_clust_4="14000.00000" pt_clust_5="66.93684" pt_clust_6="74.09884"></scales>
<clustering>
<clus scale="   42.197">  1  3  2 -1</clus>
<clus scale="   66.937">  1  5  2 -1</clus>
<clus scale="   74.099">  2  6  1 -1</clus>
<clus scale="   42.197">  1  3  2 -1</clus>
</clustering>
</event>
<event>
 6    0  0.2572175E+002  0.1031275E+03  0.7546771E-02  0.1273853E+00
         21   -1    0    0  503  502  0.00000000000E+00  0.00000000000E+00  0.20813562490E+03  0.20813562490E+03  0.00000000000E+00 0.  1.
          2   -1    0    0  505    0 -0.00000000000E+00 -0.00000000000E+00 -0.24631864539E+04  0.24631864539E+04  0.00000000000E+00 0. -1.
         21    1    1    2  503  501  0.97420128588E+02 -0.36290620314E+02 -0.72380098993E+03  0.73122880387E+03  0.00000000000E+00 0. -1.
         21    1    1    2  504  502 -0.15352177302E+02  0.35074222827E+02  0.18438981797E+03  0.18832284892E+03  0.00000000000E+00 0.  1.
         21    1    1    2  505  504  0.22088175950E+02  0.43005787114E+02 -0.19836427867E+02  0.52257718211E+02  0.00000000000E+00 0. -1.
          2    1    1    2  501    0 -0.10415612724E+03 -0.41789389627E+02 -0.16958032292E+04  0.16995127078E+04  0.00000000000E+00 0. -1.
<scales pt_clust_3="14000.00000" pt_clust_4="38.28695" pt_clust_5="69.92953" pt_clust_6="103.12754"></scales>
<clustering>
<clus scale="   38.287">  1  4  2 -1</clus>
<clus scale="   69.930">  1  5  2 -1</clus>
<clus scale="  103.128">  2  6  1 -1</clus>
<clus scale="   38.287">  1  3  2 -1</clus>
</clustering>
</event>
<event>
 6    0  0.2572175E+002  0.9415188E+02  0.7546771E-02  0.1293098E+00
          2   -1    0    0  505    0 -0.00000000000E+00  0.00000000000E+00  0.22976330080E+03  0.22976330080E+03  0.00000000000E+00 0.  1.
         21   -1    0    0  504  502  0.00000000000E+00 -0.00000000000E+00 -0.15153399075E+03  0.15153399075E+03  0.00000000000E+00 0.  1.
         21    1    1    2  503  502 -0.91143710851E+02  0.11663848177E+03  0.75450452312E+01  0.14821821469E+03  0.00000000000E+00 0.  1.
         21    1    1    2  504  501  0.63017200748E+02 -0.47223680921E+02 -0.41661673189E+02  0.89089497938E+02  0.00000000000E+00 0.  1.
         21    1    1    2  505  503  0.96153518134E+01 -0.35667405852E+02  0.16032894609E+02  0.40269995533E+02  0.00000000000E+00 0.  1.
          2    1    1    2  501    0  0.18511158289E+02 -0.33747394998E+02  0.96313043396E+02  0.10371958339E+03  0.00000000000E+00 0.  1.
<scales pt_clust_3="14000.00000" pt_clust_4="94.15188" pt_clust_5="36.94075" pt_clust_6="56.46443"></scales>
<clustering>
<clus scale="   36.941">  1  5  2 -1</clus>
<clus scale="   56.464">  1  6  2 -1</clus>
<clus scale="   94.152">  2  4  1 -1</clus>
<clus scale="   94.152">  2  3  1 -1</clus>
</clustering>
</event>
<event>
 6    0  0.2572175E+002  0.1022836E+03  0.7546771E-02  0.1275566E+00
         21   -1    0    0  504  502  0.00000000000E+00  0.00000000000E+00  0.51906109685E+02  0.51906109685E+02  0.00000000000E+00 0.  1.
          1   -1    0    0  505    0 -0.00000000000E+00 -0.00000000000E+00 -0.13298722976E+04  0.13298722976E+04  0.00000000000E+00 0.  1.
         21    1    1    2  503  501  0.19262716954E+02  0.13377308158E+03 -0.93019091092E+02  0.16406962219E+03  0.00000000000E+00 0.  1.
         21    1    1    2  504  503  0.38622410965E+02 -0.43270262300E+02 -0.69732519808E+02  0.90700774788E+02  0.00000000000E+00 0.  1.
         21    1    1    2  505  502 -0.26364803538E+02 -0.44693741935E+02 -0.12647561542E+03  0.13670667405E+03  0.00000000000E+00 0.  1.
          1    1    1    2  501    0 -0.31520324382E+02 -0.45809077340E+02 -0.98873896158E+03  0.99030133624E+03  0.00000000000E+00 0.  1.
<scales pt_clust_3="14000.00000" pt_clust_4="59.14951" pt_clust_5="51.89059" pt_clust_6="102.28358"></scales>
<clustering>
<clus scale="   51.891">  2  5  1 -1</clus>
<clus scale="   59.150">  1  4  2 -1</clus>
<clus scale="  102.284">  2  6  1 -1</clus>
<clus scale="   59.150">  1  3  2 -1</clus>
</clustering>
</event>
<event>
 6    0  0.2572175E+002  0.2397415E+03  0.7546771E-02  0.1119965E+00
          2   -1    0    0  503    0 -0.00000000000E+00  0.00000000000E+00  0.37677360748E+03  0.37677360748E+03  0.00000000000E+00 0.  1.
         21   -1    0    0  504  502  0.00000000000E+00 -0.00000000000E+00 -0.51948329681E+03  0.51948329681E+03  0.00000000000E+00 0.  1.
         21    1    1    2  503  502 -0.27558612638E+03  0.13091458564E+03 -0.16151956279E+03  0.34521719388E+03  0.00000000000E+00 0.  1.
         21    1    1    2  504  505  0.18943548580E+03 -0.85886370876E+02 -0.19769950655E+03  0.28696230915E+03  0.00000000000E+00 0.  1.
         21    1    1    2  505  501  0.51464839525E+02 -0.22243165722E+02  0.14584232552E+02  0.57931752673E+02  0.00000000000E+00 0.  1.
          2    1    1    2  501    0  0.34685801051E+02 -0.22785049044E+02  0.20192514746E+03  0.20614564858E+03  0.00000000000E+00 0.  1.
<scales pt_clust_3="14000.00000" pt_clust_4="239.74152" pt_clust_5="64.66389" pt_clust_6="41.50016"></scales>
<clustering>
<clus scale="   41.500">  1  6  2 -1</clus>
<clus scale="   64.664">  1  5  2 -1</clus>
<clus scale="  239.742">  2  4  1 -1</clus>
<clus scale="  239.742">  2  3  1 -1</clus>
</clustering>
</event>
<event>
 6    0  0.2572175E+002  0.1768562E+03  0.7546771E-02  0.1170881E+00
         21   -1    0    0  505  502  0.00000000000E+00  0.00000000000E+00  0.11022856023E+04  0.11022856023E+04  0.00000000000E+00 0. -1.
          1   -1    0    0  503    0 -0.00000000000E+00 -0.00000000000E+00 -0.10858545207E+04  0.10858545207E+04  0.00000000000E+00 0.  1.
         21    1    1    2  503  504  0.15638995558E+03 -0.77877970109E+02  0.17016451782E+03  0.24388267581E+03  0.00000000000E+00 0. -1.
         21    1    1    2  504  502 -0.18043450764E+03 -0.73095010994E+02  0.67677803738E+03  0.70422155893E+03  0.00000000000E+00 0. -1.
         21    1    1    2  505  501  0.12787578059E+02  0.12025750237E+03  0.18661972641E+03  0.22237875644E+03  0.00000000000E+00 0. -1.
          1    1    1    2  501    0  0.11256973996E+02  0.30715478735E+02 -0.10171311999E+04  0.10176571318E+04  0.00000000000E+00 0.  1.
<scales pt_clust_3="14000.00000" pt_clust_4="176.85624" pt_clust_5="129.23987" pt_clust_6="32.71330"></scales>
<clustering>
<clus scale="   32.713">  2  6  1 -1</clus>
<clus scale="  129.240">  2  5  1 -1</clus>
<clus scale="  176.856">  1  4  2 -1</clus>
<clus scale="  176.856">  1  3  2 -1</clus>
</clustering>
</event>
<event>
 6    0  0.2572175E+002  0.1231277E+03  0.7546771E-02  0.1238025E+00
         21   -1    0    0  505  502  0.00000000000E+00  0.00000000000E+00  0.15356180295E+03  0.15356180295E+03  0.00000000000E+00 0.  1.
          2   -1    0    0  503    0 -0.00000000000E+00 -0.00000000000E+00 -0.12780475482E+04  0.12780475482E+04  0.00000000000E+00 0.  1.
         21    1    1    2  503  504 -0.66919423048E+02 -0.11079533290E+03  0.17885910829E+02  0.13066644856E+03  0.00000000000E+00 0.  1.
         21    1    1    2  504  502 -0.17609850902E+02  0.51283470193E+02  0.18910645145E+01  0.54255665961E+02  0.00000000000E+00 0.  1.
         21    1    1    2  505  501  0.95418414940E+02  0.92665538720E+02 -0.35891895498E+02  0.13776720995E+03  0.00000000000E+00 0.  1.
          2    1    1    2  501    0 -0.10889140990E+02 -0.33153676013E+02 -0.11083708251E+04  0.11089200267E+04  0.00000000000E+00 0.  1.
<scales pt_clust_3="123.12767" pt_clust_4="50.02897" pt_clust_5="14000.00000" pt_clust_6="34.89613"></scales>
<clustering>
<clus scale="   34.896">  2  6  1 -1</clus>
<clus scale="   50.029">  1  4  2 -1</clus>
<clus scale="  123.128">  1  3  2 -1</clus>
<clus scale="   50.029">  1  3  2 -1</clus>
</clustering>
</event>
<event>
 6    0  0.2572175E+002  0.9989653E+02  0.7546771E-02  0.1280514E+00
          2   -1    0    0  503    0 -0.00000000000E+00  0.00000000000E+00  0.11412124948E+03  0.11412124948E+03  0.00000000000E+00 0.  1.
         21   -1    0    0  505  502  0.00000000000E+00 -0.00000000000E+00 -0.65766807568E+03  0.65766807568E+03  0.00000000000E+00 0.  1.
         21    1    1    2  503  504 -0.19803523846E+01 -0.60969313622E+02 -0.69554442964E+02  0.92514861158E+02  0.00000000000E+00 0.  1.
         21    1    1    2  504  502  0.95503265750E+02 -0.85117688843E+01 -0.16494904946E+03  0.19079180511E+03  0.00000000000E+00 0.  1.
         21    1    1    2  505  501 -0.96917577108E+02  0.35218636333E+02 -0.38846538474E+03  0.40191880304E+03  0.00000000000E+00 0.  1.
          2    1    1    2  501    0  0.33946637430E+01  0.34262446174E+02  0.79422050972E+02  0.86563855854E+02  0.00000000000E+00 0.  1.
<scales pt_clust_3="48.33871" pt_clust_4="14000.00000" pt_clust_5="99.89653" pt_clust_6="34.43020"></scales>
<clustering>
<clus scale="   34.430">  1  6  2 -1</clus>
<clus scale="   48.339">  1  3  2 -1</clus>
<clus scale="   99.897">  2  5  1 -1</clus>
<clus scale="   99.897">  2  3  1 -1</clus>
</clustering>
</event>
<event>
 6    0  0.2572175E+002  0.1072419E+03  0.7546771E-02  0.1265764E+00
          2   -1    0    0  504    0 -0.00000000000E+00  0.00000000000E+00  0.20133241581E+04  0.20133241581E+04  0.00000000000E+00 0. -1.
         21   -1    0    0  501  502  0.00000000000E+00 -0.00000000000E+00 -0.39508476050E+02  0.39508476050E+02  0.00000000000E+00 0.  1.
         21    1    1    2  503  502 -0.25840427560E+02 -0.37343992534E+02  0.74928503367E+01  0.46026560605E+02  0.00000000000E+00 0.  1.
         21    1    1    2  504  505  0.82728847346E+02  0.96393170498E+02  0.30909445252E+03  0.33417822502E+03  0.00000000000E+00 0. -1.
         21    1    1    2  505  503 -0.39065232053E+02 -0.20784757931E+02  0.58542363988E+02  0.73384650295E+02  0.00000000000E+00 0.  1.
          2    1    1    2  501    0 -0.17823187732E+02 -0.38264420033E+02  0.15986860152E+04  0.15992431982E+04  0.00000000000E+00 0. -1.
<scales pt_clust_3="47.21101" pt_clust_4="95.88601" pt_clust_5="47.21101" pt_clust_6="42.21175"></scales>
<clustering>
<clus scale="   42.212">  1  6  2 -1</clus>
<clus scale="   47.211">  3  5 -1 -1</clus>
<clus scale="   95.886">  1  4  2 -1</clus>
<clus scale="  107.242">  2  3  1 -1</clus>
</clustering>
</event>
<event>
 6    0  0.2572175E+002  0.1862718E+03  0.7546771E-02  0.1161868E+00
          2   -1    0    0  505    0 -0.00000000000E+00  0.00000000000E+00  0.17892564395E+03  0.17892564395E+03  0.00000000000E+00 0. -1.
         21   -1    0    0  504  502  0.00000000000E+00 -0.00000000000E+00 -0.12010793319E+04  0.12010793319E+04  0.00000000000E+00 0. -1.
         21    1    1    2  503  501 -0.23302137182E+02  0.66871033500E+02 -0.25574243762E+02  0.75291212386E+02  0.00000000000E+00 0. -1.
         21    1    1    2  504  503  0.14892926581E+03  0.12000232088E+03 -0.43318488937E+03  0.47352891317E+03  0.00000000000E+00 0. -1.
         21    1    1    2  505  502 -0.98268588169E+02 -0.15953363505E+03 -0.68156219698E+03  0.70684844521E+03  0.00000000000E+00 0. -1.
          2    1    1    2  501    0 -0.27358540462E+02 -0.27339719331E+02  0.11816764214E+03  0.12433640512E+03  0.00000000000E+00 0. -1.
<scales pt_clust_3="65.31607" pt_clust_4="14000.00000" pt_clust_5="186.27176" pt_clust_6="38.67751"></scales>
<clustering>
<clus scale="   38.678">  1  6  2 -1</clus>
<clus scale="   65.316">  1  3  2 -1</clus>
<clus scale="  186.272">  2  5  1 -1</clus>
<clus scale="  186.272">  2  3  1 -1</clus>
</clustering>
</event>
<event>
 6    0  0.2572175E+002  0.8279918E+02  0.7546771E-02  0.1321290E+00
         21   -1    0    0  505  502  0.00000000000E+00  0.00000000000E+00  0.38718326568E+03  0.38718326568E+03  0.00000000000E+00 0.  1.
          2   -1    0    0  503    0 -0.00000000000E+00 -0.00000000000E+00 -0.10544505067E+04  0.10544505067E+04  0.00000000000E+00 0.  1.
         21    1    1    2  503  504  0.56010272169E+02 -0.43050651660E+02 -0.25584327779E+03  0.26541720364E+03  0.00000000000E+00 0.  1.
         21    1    1    2  504  502  0.54008688862E+02  0.85645432533E+02  0.35522659250E+03  0.36937516241E+03  0.00000000000E+00 0.  1.
         21    1    1    2  505  501 -0.34867106959E+02 -0.45188391579E+01  0.41709671885E+00  0.35161186338E+02  0.00000000000E+00 0.  1.
          2    1    1    2  501    0 -0.75151854071E+02 -0.38075941716E+02 -0.76706765244E+03  0.77168021999E+03  0.00000000000E+00 0.  1.
<scales pt_clust_3="70.32171" pt_clust_4="14000.00000" pt_clust_5="35.15871" pt_clust_6="82.79918"></scales>
<clustering>
<clus scale="   35.159">  1  5  2 -1</clus>
<clus scale="   70.322">  2  3  1 -1</clus>
<clus scale="   82.799">  2  6  1 -1</clus>
<clus scale="   35.159">  1  3  2 -1</clus>
</clustering>
</event>
<event>
 6    0  0.2572175E+002  0.8704788E+02  0.7546771E-02  0.1310162E+00
          2   -1    0    0  503    0 -0.00000000000E+00  0.00000000000E+00  0.35343541946E+04  0.35343541946E+04  0.00000000000E+00 0.  1.
         21   -1    0    0  504  502  0.00000000000E+00 -0.00000000000E+00 -0.62601597177E+02  0.62601597177E+02  0.00000000000E+00 0. -1.
         21    1    1    2  503  502  0.80659714199E+02 -0.10934188311E+03  0.93829373717E+03  0.94808057364E+03  0.00000000000E+00 0.  1.
         21    1    1    2  504  505 -0.52183039551E+02  0.22783338799E+02 -0.41808103622E+01  0.57093163504E+02  0.00000000000E+00 0.  1.
         21    1    1    2  505  501  0.31933372961E+02  0.63311125640E+02  0.20503132591E+02  0.73813395699E+02  0.00000000000E+00 0. -1.
          2    1    1    2  501    0 -0.60410047609E+02  0.23247418668E+02  0.25171365381E+04  0.25179686590E+04  0.00000000000E+00 0.  1.
<scales pt_clust_3="87.04788" pt_clust_4="56.93988" pt_clust_5="14000.00000" pt_clust_6="65.46922"></scales>
<clustering>
<clus scale="   56.940">  2  4  1 -1</clus>
<clus scale="   65.469">  1  6  2 -1</clus>
<clus scale="   87.048">  1  3  2 -1</clus>
<clus scale="   56.940">  2  3  1 -1</clus>
</clustering>
</event>
<event>
 6    0  0.2572175E+002  0.9468878E+02  0.7546771E-02  0.1291879E+00
         21   -1    0    0  505  502  0.00000000000E+00  0.00000000000E+00  0.11173943702E+04  0.11173943702E+04  0.00000000000E+00 0. -1.
         -3   -1    0    0    0  501 -0.00000000000E+00 -0.00000000000E+00 -0.98204803259E+02  0.98204803259E+02  0.00000000000E+00 0.  1.
         21    1    1    2  503  504 -0.21237040332E+02 -0.35534537435E+02  0.50904819428E+03  0.51072867487E+03  0.00000000000E+00 0. -1.
         21    1    1    2  504  501 -0.41467446679E+02  0.25934471969E+02  0.11526970419E+02  0.50249547435E+02  0.00000000000E+00 0. -1.
         21    1    1    2  505  503 -0.50438070462E+02 -0.14130168378E+02  0.53177983074E+03  0.53435329979E+03  0.00000000000E+00 0. -1.
         -3    1    1    2    0  502  0.11314255747E+03  0.23730233845E+02 -0.33165428527E+02  0.12026765134E+03  0.00000000000E+00 0.  1.
<scales pt_clust_3="31.67453" pt_clust_4="48.90957" pt_clust_5="31.67453" pt_clust_6="87.72977"></scales>
<clustering>
<clus scale="   31.675">  3  5 -1 -1</clus>
<clus scale="   48.910">  2  4  1 -1</clus>
<clus scale="   87.730">  2  6  1 -1</clus>
<clus scale="   94.689">  1  3  2 -1</clus>
</clustering>
</event>
<event>
 6    0  0.2572175E+002  0.1379377E+03  0.7546771E-02  0.1216131E+00
          1   -1    0    0  503    0 -0.00000000000E+00  0.00000000000E+00  0.22756165443E+04  0.22756165443E+04  0.00000000000E+00 0. -1.
         21   -1    0    0  504  502  0.00000000000E+00 -0.00000000000E+00 -0.97186677204E+02  0.97186677204E+02  0.00000000000E+00 0. -1.
         21    1    1    2  503  502  0.65433200092E+02  0.61558986661E+01  0.29682043964E+03  0.30400949352E+03  0.00000000000E+00 0.  1.
         21    1    1    2  504  505 -0.24482307106E+02 -0.56420637370E+02 -0.27221273867E+02  0.67258229484E+02  0.00000000000E+00 0. -1.
         21    1    1    2  505  501 -0.11915526987E+03  0.33594263179E+02  0.38717386211E+02  0.12971348755E+03  0.00000000000E+00 0. -1.
          1    1    1    2  501    0  0.78204376887E+02  0.16670475525E+02  0.18701133151E+04  0.18718220109E+04  0.00000000000E+00 0. -1.
<scales pt_clust_3="63.70576" pt_clust_4="61.50343" pt_clust_5="14000.00000" pt_clust_6="137.93768"></scales>
<clustering>
<clus scale="   61.503">  2  4  1 -1</clus>
<clus scale="   63.706">  1  3  2 -1</clus>
<clus scale="  137.938">  1  6  2 -1</clus>
<clus scale="   61.503">  2  3  1 -1</clus>
</clustering>
</event>
<event>
 6    0  0.2572175E+002  0.1171905E+03  0.7546771E-02  0.1247805E+00
         21   -1    0    0  504  502  0.00000000000E+00  0.00000000000E+00  0.32117844309E+03  0.32117844309E+03  0.00000000000E+00 0. -1.
          3   -1    0    0  505    0 -0.00000000000E+00 -0.00000000000E+00 -0.74153527548E+03  0.74153527548E+03  0.00000000000E+00 0.  1.
         21    1    1    2  503  502  0.26143569496E+02  0.22558651876E+02  0.18348451723E+03  0.18670550892E+03  0.00000000000E+00 0. -1.
         21    1    1    2  504  501  0.68208824701E+02 -0.34412500981E+01  0.77328353520E+02  0.10316957026E+03  0.00000000000E+00 0. -1.
         21    1    1    2  505  503  0.14034920860E+01  0.54679727814E+02  0.22290976336E+02  0.59065472570E+02  0.00000000000E+00 0. -1.
          3    1    1    2  501    0 -0.95755886283E+02 -0.73797129592E+02 -0.70346067948E+03  0.71377316681E+03  0.00000000000E+00 0.  1.
<scales pt_clust_3="34.53084" pt_clust_4="117.19047" pt_clust_5="62.11088" pt_clust_6="14000.00000"></scales>
<clustering>
<clus scale="   34.531">  1  3  2 -1</clus>
<clus scale="   62.111">  1  5  2 -1</clus>
<clus scale="  117.190">  1  4  2 -1</clus>
<clus scale="   34.531">  1  3  2 -1</clus>
</clustering>
</event>
<event>
 6    0  0.2572175E+002  0.1031898E+03  0.7546771E-02  0.1273728E+00
          2   -1    0    0  505    0 -0.00000000000E+00  0.00000000000E+00  0.30203997800E+04  0.30203997800E+04  0.00000000000E+00 0. -1.
         21   -1    0    0  503  502  0.00000000000E+00 -0.00000000000E+00 -0.17578373995E+03  0.17578373995E+03  0.00000000000E+00 0. -1.
         21    1    1    2  503  501  0.11308486247E+03  0.86887784600E+02  0.39340292874E+03  0.41845374603E+03  0.00000000000E+00 0. -1.
         21    1    1    2  504  502 -0.30671946988E+02 -0.38868798773E+02 -0.11030518837E+03  0.12090817355E+03  0.00000000000E+00 0. -1.
         21    1    1    2  505  504 -0.25969703860E+02 -0.55238559545E+02 -0.27663299714E+02  0.67014790385E+02  0.00000000000E+00 0.  1.
          2    1    1    2  501    0 -0.56443211622E+02  0.72195737183E+01  0.25891815994E+04  0.25898068100E+04  0.00000000000E+00 0. -1.
<scales pt_clust_3="14000.00000" pt_clust_4="49.51315" pt_clust_5="103.18977" pt_clust_6="57.03592"></scales>
<clustering>
<clus scale="   49.513">  2  4  1 -1</clus>
<clus scale="   57.036">  1  6  2 -1</clus>
<clus scale="  103.190">  2  5  1 -1</clus>
<clus scale="   49.513">  2  3  1 -1</clus>
</clustering>
</event>
<event>
 6    0  0.2572175E+002  0.6595116E+02  0.7546771E-02  0.1374429E+00
          2   -1    0    0  503    0 -0.00000000000E+00  0.00000000000E+00  0.23459839526E+04  0.23459839526E+04  0.00000000000E+00 0. -1.
         21   -1    0    0  505  502  0.00000000000E+00 -0.00000000000E+00 -0.12759298974E+03  0.12759298974E+03  0.00000000000E+00 0. -1.
         21    1    1    2  503  504  0.67721806196E+02 -0.28664107229E+02 -0.65897232873E+02  0.98743705511E+02  0.00000000000E+00 0. -1.
         21    1    1    2  504  502  0.48252484297E+02  0.34920076690E+02 -0.80008253028E+01  0.60097647228E+02  0.00000000000E+00 0. -1.
         21    1    1    2  505  501 -0.52730169103E+02 -0.24808103935E+02  0.68349491096E+02  0.89819628632E+02  0.00000000000E+00 0. -1.
          2    1    1    2  501    0 -0.63244121389E+02  0.18552134475E+02  0.22239395300E+04  0.22249159610E+04  0.00000000000E+00 0. -1.
<scales pt_clust_3="14000.00000" pt_clust_4="42.99385" pt_clust_5="58.27446" pt_clust_6="65.95116"></scales>
<clustering>
<clus scale="   58.274">  2  5  1 -1</clus>
<clus scale="   42.994">  2  4  1 -1</clus>
<clus scale="   65.951">  1  6  2 -1</clus>
<clus scale="   58.274">  2  3  1 -1</clus>
</clustering>
</event>
<event>
 6    0  0.2572175E+002  0.6653431E+02  0.7546771E-02  0.1372291E+00
          2   -1    0    0  504    0 -0.00000000000E+00  0.00000000000E+00  0.16480130918E+04  0.16480130918E+04  0.00000000000E+00 0.  1.
         21   -1    0    0  503  502  0.00000000000E+00 -0.00000000000E+00 -0.13556011770E+03  0.13556011770E+03  0.00000000000E+00 0.  1.
         21    1    1    2  503  505 -0.38366823477E+02  0.39597078783E+01 -0.64941443527E+02  0.75532003267E+02  0.00000000000E+00 0.  1.
         21    1    1    2  504  502  0.83136912530E+02 -0.47391282170E+02 -0.15754479992E+02  0.96983934187E+02  0.00000000000E+00 0. -1.
         21    1    1    2  505  501  0.21124409713E+02  0.51598492242E+02  0.86286537183E+02  0.10273271916E+03  0.00000000000E+00 0. -1.
          2    1    1    2  501    0 -0.65894498766E+02 -0.81669179508E+01  0.15068623604E+04  0.15083245528E+04  0.00000000000E+00 0.  1.
<scales pt_clust_3="38.57062" pt_clust_4="14000.00000" pt_clust_5="54.58580" pt_clust_6="66.53431"></scales>
<clustering>
<clus scale="   38.571">  2  3  1 -1</clus>
<clus scale="   54.586">  2  5  1 -1</clus>
<clus scale="   66.534">  1  6  2 -1</clus>
<clus scale="   38.571">  2  3  1 -1</clus>
</clustering>
</event>
<event>
 6    0  0.2572175E+002  0.8923960E+02  0.7546771E-02  0.1304704E+00
          1   -1    0    0  503    0 -0.00000000000E+00  0.00000000000E+00  0.77843428693E+03  0.77843428693E+03  0.00000000000E+00 0. -1.
         21   -1    0    0  505  502  0.00000000000E+00 -0.00000000000E+00 -0.15276227305E+04  0.15276227305E+04  0.00000000000E+00 0. -1.
         21    1    1    2  503  504 -0.13047384710E+03  0.52112322785E+01 -0.15001073676E+03  0.19888137887E+03  0.00000000000E+00 0.  1.
         21    1    1    2  504  502  0.12227593033E+02  0.30425977046E+02 -0.18921681940E+03  0.19203712884E+03  0.00000000000E+00 0.  1.
         21    1    1    2  505  501  0.72626411575E+02 -0.11114375646E+02 -0.11604954877E+04  0.11628189463E+04  0.00000000000E+00 0. -1.
          1    1    1    2  501    0  0.45619842487E+02 -0.24522833679E+02  0.75053460022E+03  0.75231956344E+03  0.00000000000E+00 0. -1.
<scales pt_clust_3="89.23960" pt_clust_4="32.79107" pt_clust_5="14000.00000" pt_clust_6="51.79081"></scales>
<clustering>
<clus scale="   32.791">  2  4  1 -1</clus>
<clus scale="   51.791">  1  6  2 -1</clus>
<clus scale="   89.240">  1  3  2 -1</clus>
<clus scale="   32.791">  2  3  1 -1</clus>
</clustering>
</event>
<event>
 6    0  0.2572175E+002  0.1628666E+03  0.7546771E-02  0.1185498E+00
          1   -1    0    0  503    0 -0.00000000000E+00  0.00000000000E+00  0.14513190147E+04  0.14513190147E+04  0.00000000000E+00 0. -1.
         21   -1    0    0  504  502  0.00000000000E+00 -0.00000000000E+00 -0.53381062122E+02  0.53381062122E+02  0.00000000000E+00 0. -1.
         21    1    1    2  503  502 -0.85208856346E+02 -0.92447731113E+02  0.42445760323E+03  0.44268655856E+03  0.00000000000E+00 0.  1.
         21    1    1    2  504  505  0.14207244263E+03  0.11581474149E+03  0.19658315046E+03  0.26877977667E+03  0.00000000000E+00 0. -1.
         21    1    1    2  505  501 -0.70245674326E+02  0.33702941503E+02  0.22251269310E+03  0.23575886329E+03  0.00000000000E+00 0. -1.
          1    1    1    2  501    0  0.13382088044E+02 -0.57069951883E+02  0.55438450577E+03  0.55747487829E+03  0.00000000000E+00 0. -1.
<scales pt_clust_3="162.86662" pt_clust_4="14000.00000" pt_clust_5="69.49683" pt_clust_6="58.61791"></scales>
<clustering>
<clus scale="   58.618">  1  6  2 -1</clus>
<clus scale="   69.497">  1  5  2 -1</clus>
<clus scale="  162.867">  1  3  2 -1</clus>
<clus scale="  162.867">  2  3  1 -1</clus>
</clustering>
</event>
<event>
 6    0  0.2572175E+002  0.1093548E+03  0.7546771E-02  0.1261769E+00
         21   -1    0    0  503  502  0.00000000000E+00  0.00000000000E+00  0.39552862668E+02  0.39552862668E+02  0.00000000000E+00 0. -1.
          2   -1    0    0  504    0 -0.00000000000E+00 -0.00000000000E+00 -0.32846121768E+04  0.32846121768E+04  0.00000000000E+00 0. -1.
         21    1    1    2  503  501  0.75267493418E+02  0.48184223180E+01 -0.87047655782E+02  0.11517685156E+03  0.00000000000E+00 0. -1.
         21    1    1    2  504  505  0.60581108538E+02 -0.95631407620E+01 -0.14141233940E+04  0.14154527537E+04  0.00000000000E+00 0. -1.
         21    1    1    2  505  502  0.35444278186E+02 -0.17405789556E+02  0.16026150803E+01  0.39519953711E+02  0.00000000000E+00 0. -1.
          2    1    1    2  501    0 -0.17129288014E+03  0.22150508000E+02 -0.17454908794E+04  0.17540154805E+04  0.00000000000E+00 0. -1.
<scales pt_clust_3="14000.00000" pt_clust_4="62.65291" pt_clust_5="39.48745" pt_clust_6="109.35479"></scales>
<clustering>
<clus scale="   39.487">  1  5  2 -1</clus>
<clus scale="   62.653">  2  4  1 -1</clus>
<clus scale="  109.355">  2  6  1 -1</clus>
<clus scale="   39.487">  1  3  2 -1</clus>
</clustering>
</event>
<event>
 6    0  0.2572175E+002  0.1241487E+03  0.7546771E-02  0.1236406E+00
         21   -1    0    0  505  502  0.00000000000E+00  0.00000000000E+00  0.74512812983E+02  0.74512812983E+02  0.00000000000E+00 0.  1.
         -1   -1    0    0    0  501 -0.00000000000E+00 -0.00000000000E+00 -0.47478256638E+03  0.47478256638E+03  0.00000000000E+00 0. -1.
         21    1    1    2  503  504  0.21570597542E+02  0.57389348015E+02 -0.11975972224E+02  0.62468006648E+02  0.00000000000E+00 0.  1.
         21    1    1    2  504  502  0.56530394765E+02  0.27021275622E+02  0.12204205644E+02  0.63833983926E+02  0.00000000000E+00 0.  1.
         21    1    1    2  505  501 -0.88878597289E+02 -0.54511750762E+02 -0.30153281567E+03  0.31905011354E+03  0.00000000000E+00 0. -1.
         -1    1    1    2    0  503  0.10777604982E+02 -0.29898872875E+02 -0.98965171149E+02  0.10394327525E+03  0.00000000000E+00 0. -1.
<scales pt_clust_3="50.72052" pt_clust_4="50.72052" pt_clust_5="112.63076" pt_clust_6="31.78206"></scales>
<clustering>
<clus scale="   31.782">  2  6  1 -1</clus>
<clus scale="   50.721">  3  4 -1 -1</clus>
<clus scale="  112.631">  2  5  1 -1</clus>
<clus scale="  124.149">  1  3  2 -1</clus>
</clustering>
</event>
<event>
 6    0  0.2572175E+002  0.1660521E+03  0.7546771E-02  0.1182029E+00
          2   -1    0    0  504    0 -0.00000000000E+00  0.00000000000E+00  0.24870328844E+04  0.24870328844E+04  0.00000000000E+00 0. -1.
         21   -1    0    0  505  502  0.00000000000E+00 -0.00000000000E+00 -0.22593540516E+02  0.22593540516E+02  0.00000000000E+00 0. -1.
         21    1    1    2  503  502  0.12379322303E+03 -0.94961472265E+02  0.49708810622E+03  0.52099810808E+03  0.00000000000E+00 0. -1.
         21    1    1    2  504  503  0.35815876443E+02 -0.21623651601E+02  0.37716397526E+03  0.37947730308E+03  0.00000000000E+00 0. -1.
         21    1    1    2  505  501 -0.24978453246E+02 -0.25282417748E+02  0.98874089964E+02  0.10506764221E+03  0.00000000000E+00 0.  1.
          2    1    1    2  501    0 -0.13463064623E+03  0.14186754161E+03  0.14913131724E+04  0.15040833715E+04  0.00000000000E+00 0. -1.
<scales pt_clust_3="14000.00000" pt_clust_4="41.39472" pt_clust_5="35.54045" pt_clust_6="166.05208"></scales>
<clustering>
<clus scale="   35.540">  2  5  1 -1</clus>
<clus scale="   41.395">  1  4  2 -1</clus>
<clus scale="  166.052">  1  6  2 -1</clus>
<clus scale="   35.540">  2  3  1 -1</clus>
</clustering>
</event>
<event>
 6    0  0.2572175E+002  0.1152702E+03  0.7546771E-02  0.1251110E+00
         21   -1    0    0  505  502  0.00000000000E+00  0.00000000000E+00  0.63878544814E+03  0.63878544814E+03  0.00000000000E+00 0.  1.
          1   -1    0    0  503    0 -0.00000000000E+00 -0.00000000000E+00 -0.14812452256E+03  0.14812452256E+03  0.00000000000E+00 0.  1.
         21    1    1    2  503  502 -0.40711876432E+02 -0.15295318827E+02  0.44853735396E+02  0.62476085342E+02  0.00000000000E+00 0.  1.
         21    1    1    2  504  501  0.19270839884E+02 -0.72753472760E+02  0.19221607850E+03  0.20642541971E+03  0.00000000000E+00 0.  1.
         21    1    1    2  505  504 -0.48586595598E+02 -0.15340281222E+02  0.35407797855E+03  0.35772502903E+03  0.00000000000E+00 0.  1.
          1    1    1    2  501    0  0.70027632147E+02  0.10338907281E+03 -0.10048686687E+03  0.16028343662E+03  0.00000000000E+00 0.  1.
<scales pt_clust_3="43.49027" pt_clust_4="115.27015" pt_clust_5="77.37891" pt_clust_6="14000.00000"></scales>
<clustering>
<clus scale="   43.490">  1  3  2 -1</clus>
<clus scale="   77.379">  1  5  2 -1</clus>
<clus scale="  115.270">  1  4  2 -1</clus>
<clus scale="   43.490">  1  3  2 -1</clus>
</clustering>
</event>
<event>
 6    0  0.2572175E+002  0.1065053E+03  0.7546771E-02  0.1267182E+00
          1   -1    0    0  504    0 -0.00000000000E+00  0.00000000000E+00  0.12007909353E+04  0.12007909353E+04  0.00000000000E+00 0. -1.
         21   -1    0    0  503  502  0.00000000000E+00 -0.00000000000E+00 -0.13399609826E+03  0.13399609826E+03  0.00000000000E+00 0. -1.
         21    1    1    2  503  501  0.17157741699E+02 -0.11895911184E+03 -0.68164012334E+02  0.13817377091E+03  0.00000000000E+00 0. -1.
         21    1    1    2  504  505  0.48768324557E+02  0.78810152731E+02  0.11382861133E+03  0.14678672423E+03  0.00000000000E+00 0.  1.
         21    1    1    2  505  502  0.21893715023E+02 -0.21232105186E+02  0.86614138511E+01  0.31704213254E+02  0.00000000000E+00 0. -1.
          1    1    1    2  501    0 -0.87819781279E+02  0.61381064296E+02  0.10124688242E+04  0.10181223252E+04  0.00000000000E+00 0. -1.
<scales pt_clust_3="106.50529" pt_clust_4="91.88724" pt_clust_5="30.49815" pt_clust_6="14000.00000"></scales>
<clustering>
<clus scale="   30.498">  2  5  1 -1</clus>
<clus scale="   91.887">  2  4  1 -1</clus>
<clus scale="  106.505">  2  3  1 -1</clus>
<clus scale="   30.498">  2  3  1 -1</clus>
</clustering>
</event>
<event>
 6    0  0.2572175E+002  0.8500846E+02  0.7546771E-02  0.1315410E+00
         21   -1    0    0  503  502  0.00000000000E+00  0.00000000000E+00  0.20283735485E+04  0.20283735485E+04  0.00000000000E+00 0. -1.
          1   -1    0    0  504    0 -0.00000000000E+00 -0.00000000000E+00 -0.22052456860E+03  0.22052456860E+03  0.00000000000E+00 0.  1.
         21    1    1    2  503  501 -0.11904213937E+03  0.29249571511E+02  0.23179994991E+03  0.26221705733E+03  0.00000000000E+00 0.  1.
         21    1    1    2  504  505  0.32746212136E+02 -0.88869344195E+02 -0.55912125059E+02  0.10998290992E+03  0.00000000000E+00 0. -1.
         21    1    1    2  505  502  0.82736988553E+02  0.54827680883E+01  0.17472842008E+04  0.17492505677E+04  0.00000000000E+00 0. -1.
          1    1    1    2  501    0  0.35589386777E+01  0.54137004595E+02 -0.11532304578E+03  0.12744758217E+03  0.00000000000E+00 0.  1.
<scales pt_clust_3="85.00846" pt_clust_4="56.34629" pt_clust_5="14000.00000" pt_clust_6="54.25386"></scales>
<clustering>
<clus scale="   54.254">  2  6  1 -1</clus>
<clus scale="   56.346">  2  4  1 -1</clus>
<clus scale="   85.008">  2  3  1 -1</clus>
<clus scale="   85.008">  1  3  2 -1</clus>
</clustering>
</event>
<event>
 6    0  0.2572175E+002  0.1290341E+03  0.7546771E-02  0.1228896E+00
          1   -1    0    0  502    0 -0.00000000000E+00  0.00000000000E+00  0.97942514869E+03  0.97942514869E+03  0.00000000000E+00 0. -1.
         21   -1    0    0  505  502  0.00000000000E+00 -0.00000000000E+00 -0.46637067440E+03  0.46637067440E+03  0.00000000000E+00 0. -1.
         21    1    1    2  503  501  0.84732760553E+02 -0.65650321283E+02  0.17120924911E+03  0.20199557514E+03  0.00000000000E+00 0. -1.
         21    1    1    2  504  503 -0.13346790559E+03  0.15886971929E+03 -0.15236424921E+03  0.25742597765E+03  0.00000000000E+00 0. -1.
         21    1    1    2  505  504  0.70715580746E+02 -0.48150568347E+02 -0.23776294888E+03  0.25268634797E+03  0.00000000000E+00 0. -1.
          1    1    1    2  501    0 -0.21980435705E+02 -0.45068829659E+02  0.73197242326E+03  0.73368792233E+03  0.00000000000E+00 0. -1.
<scales pt_clust_3="14000.00000" pt_clust_4="129.03412" pt_clust_5="85.78307" pt_clust_6="50.14318"></scales>
<clustering>
<clus scale="   50.143">  1  6  2 -1</clus>
<clus scale="   85.783">  2  5  1 -1</clus>
<clus scale="  129.034">  2  4  1 -1</clus>
<clus scale="   85.783">  2  3  1 -1</clus>
</clustering>
</event>
<event>
 6    0  0.2572175E+002  0.9628739E+02  0.7546771E-02  0.1288303E+00
         21   -1    0    0  504  502  0.00000000000E+00  0.00000000000E+00  0.51064122626E+03  0.51064122626E+03  0.00000000000E+00 0.  1.
          1   -1    0    0  505    0 -0.00000000000E+00 -0.00000000000E+00 -0.17409343434E+04  0.17409343434E+04  0.00000000000E+00 0. -1.
         21    1    1    2  503  502  0.11364787529E+02  0.41291255939E+02  0.23929698048E+03  0.24309909724E+03  0.00000000000E+00 0.  1.
         21    1    1    2  504  501  0.38425807947E+02 -0.92733952841E+02  0.59189769877E+02  0.11653135880E+03  0.00000000000E+00 0.  1.
         21    1    1    2  505  503 -0.11537391352E+02  0.77102114904E+02  0.17288870123E+03  0.18965323761E+03  0.00000000000E+00 0. -1.
          1    1    1    2  501    0 -0.38253204124E+02 -0.25659418003E+02 -0.17016685687E+04  0.17022918760E+04  0.00000000000E+00 0. -1.
<scales pt_clust_3="42.82670" pt_clust_4="14000.00000" pt_clust_5="96.28739" pt_clust_6="46.02455"></scales>
<clustering>
<clus scale="   42.827">  1  3  2 -1</clus>
<clus scale="   46.025">  2  6  1 -1</clus>
<clus scale="   96.287">  1  5  2 -1</clus>
<clus scale="   42.827">  1  3  2 -1</clus>
</clustering>
</event>
<event>
 6    0  0.2572175E+002  0.1530629E+03  0.7546771E-02  0.1196759E+00
          1   -1    0    0  505    0 -0.00000000000E+00  0.00000000000E+00  0.13995398964E+03  0.13995398964E+03  0.00000000000E+00 0. -1.
         21   -1    0    0  503  502  0.00000000000E+00 -0.00000000000E+00 -0.31313577483E+03  0.31313577483E+03  0.00000000000E+00 0. -1.
         21    1    1    2  503  501  0.61334744352E+02 -0.12008941458E+02 -0.27903110631E+02  0.68445227172E+02  0.00000000000E+00 0. -1.
         21    1    1    2  504  502  0.73465793919E+02  0.87692682721E+01 -0.14227260807E+03  0.16036089906E+03  0.00000000000E+00 0. -1.
         21    1    1    2  505  504  0.20146649279E+02  0.32366023410E+02 -0.47077940696E+02  0.60578704581E+02  0.00000000000E+00 0. -1.
          1    1    1    2  501    0 -0.15494718755E+03 -0.29126350224E+02  0.44071874198E+02  0.16370493365E+03  0.00000000000E+00 0. -1.
<scales pt_clust_3="62.49932" pt_clust_4="35.92932" pt_clust_5="35.92932" pt_clust_6="144.64779"></scales>
<clustering>
<clus scale="   35.929">  4  5 -1 -1</clus>
<clus scale="   62.499">  2  3  1 -1</clus>
<clus scale="  144.648">  1  6  2 -1</clus>
<clus scale="   62.499">  2  3  1 -1</clus>
</clustering>
</event>
<event>
 6    0  0.2572175E+002  0.2899870E+03  0.7546771E-02  0.1090356E+00
          2   -1    0    0  505    0 -0.00000000000E+00  0.00000000000E+00  0.24238192624E+04  0.24238192624E+04  0.00000000000E+00 0. -1.
         21   -1    0    0  504  502  0.00000000000E+00 -0.00000000000E+00 -0.25318766097E+03  0.25318766097E+03  0.00000000000E+00 0. -1.
         21    1    1    2  503  501  0.65687137398E+02 -0.20963636736E+02 -0.42054257041E+02  0.80764067629E+02  0.00000000000E+00 0. -1.
         21    1    1    2  504  503  0.13950898746E+03 -0.18582055731E+03 -0.64074633901E+02  0.24103442868E+03  0.00000000000E+00 0. -1.
         21    1    1    2  505  502 -0.26683380720E+03  0.10039369645E+02  0.50278674769E+03  0.56929393398E+03  0.00000000000E+00 0. -1.
          2    1    1    2  501    0  0.61637682334E+02  0.19674482440E+03  0.17739737447E+04  0.17859144931E+04  0.00000000000E+00 0. -1.
<scales pt_clust_3="46.94179" pt_clust_4="46.94179" pt_clust_5="276.88745" pt_clust_6="206.17403"></scales>
<clustering>
<clus scale="   46.942">  3  4 -1 -1</clus>
<clus scale="  206.174">  1  6  2 -1</clus>
<clus scale="  276.887">  1  5  2 -1</clus>
<clus scale="  289.987">  2  3  1 -1</clus>
</clustering>
</event>
<event>
 6    0  0.2572175E+002  0.7830724E+02  0.7546771E-02  0.1333925E+00
         21   -1    0    0  504  502  0.00000000000E+00  0.00000000000E+00  0.51323818144E+03  0.51323818144E+03  0.00000000000E+00 0.  1.
          1   -1    0    0  503    0 -0.00000000000E+00 -0.00000000000E+00 -0.50923924723E+03  0.50923924723E+03  0.00000000000E+00 0. -1.
         21    1    1    2  503  502  0.44849231423E+02 -0.34253584737E+02  0.12475029516E+02  0.57796089730E+02  0.00000000000E+00 0. -1.
         21    1    1    2  504  505 -0.34647965627E+01  0.36825370794E+02  0.37812939672E+02  0.52895473871E+02  0.00000000000E+00 0.  1.
         21    1    1    2  505  501 -0.11386851184E+03  0.26312524345E+02  0.42156761979E+03  0.43746730733E+03  0.00000000000E+00 0.  1.
          1    1    1    2  501    0  0.72484076978E+02 -0.28884310401E+02 -0.46785665477E+03  0.47431855774E+03  0.00000000000E+00 0. -1.
<scales pt_clust_3="54.58653" pt_clust_4="36.98801" pt_clust_5="78.30724" pt_clust_6="14000.00000"></scales>
<clustering>
<clus scale="   36.988">  1  4  2 -1</clus>
<clus scale="   54.587">  1  3  2 -1</clus>
<clus scale="   78.307">  1  5  2 -1</clus>
<clus scale="   36.988">  1  3  2 -1</clus>
</clustering>
</event>
<event>
 6    0  0.2572175E+002  0.9896936E+02  0.7546771E-02  0.1282478E+00
         21   -1    0    0  503  502  0.00000000000E+00  0.00000000000E+00  0.47451921562E+03  0.47451921562E+03  0.00000000000E+00 0. -1.
          1   -1    0    0  504    0 -0.00000000000E+00 -0.00000000000E+00 -0.35519955442E+03  0.35519955442E+03  0.00000000000E+00 0.  1.
         21    1    1    2  503  501 -0.39984247815E+02 -0.97918854178E+02  0.10121770698E+03  0.14639626458E+03  0.00000000000E+00 0. -1.
         21    1    1    2  504  505 -0.10046906497E+03  0.50794883875E+02  0.15058886030E+03  0.18801903651E+03  0.00000000000E+00 0. -1.
         21    1    1    2  505  502  0.94966750635E+02  0.30507422509E+01  0.16540479320E+03  0.19075307695E+03  0.00000000000E+00 0. -1.
          1    1    1    2  501    0  0.45486562147E+02  0.44073228052E+02 -0.29789169928E+03  0.30455039200E+03  0.00000000000E+00 0.  1.
<scales pt_clust_3="82.18938" pt_clust_4="14000.00000" pt_clust_5="98.96936" pt_clust_6="63.33622"></scales>
<clustering>
<clus scale="   63.336">  2  6  1 -1</clus>
<clus scale="   82.189">  2  3  1 -1</clus>
<clus scale="   98.969">  1  5  2 -1</clus>
<clus scale="   98.969">  1  3  2 -1</clus>
</clustering>
</event>
<event>
 6    0  0.2572175E+002  0.1100296E+03  0.7546771E-02  0.1260515E+00
         21   -1    0    0  504  502  0.00000000000E+00  0.00000000000E+00  0.47940078591E+03  0.47940078591E+03  0.00000000000E+00 0.  1.
          2   -1    0    0  505    0 -0.00000000000E+00 -0.00000000000E+00 -0.57955113133E+03  0.57955113133E+03  0.00000000000E+00 0. -1.
         21    1    1    2  503  501 -0.83800192966E+02 -0.92366721568E+02 -0.22561435088E+03  0.25779045544E+03  0.00000000000E+00 0. -1.
         21    1    1    2  504  503 -0.30201564204E+02 -0.20523166544E+01  0.46816573741E+02  0.55750677672E+02  0.00000000000E+00 0. -1.
         21    1    1    2  505  502  0.60947194171E+02  0.10702750954E+03  0.40047979601E+03  0.41899106826E+03  0.00000000000E+00 0.  1.
          2    1    1    2  501    0  0.53054562999E+02 -0.12608471322E+02 -0.32183236428E+03  0.32641971586E+03  0.00000000000E+00 0. -1.
<scales pt_clust_3="110.02957" pt_clust_4="30.27122" pt_clust_5="14000.00000" pt_clust_6="54.37733"></scales>
<clustering>
<clus scale="   30.271">  1  4  2 -1</clus>
<clus scale="   54.377">  2  6  1 -1</clus>
<clus scale="  110.030">  2  3  1 -1</clus>
<clus scale="   30.271">  1  3  2 -1</clus>
</clustering>
</event>
<event>
 6    0  0.2572175E+002  0.7779549E+02  0.7546771E-02  0.1335427E+00
          2   -1    0    0  503    0 -0.00000000000E+00  0.00000000000E+00  0.23839360759E+04  0.23839360759E+04  0.00000000000E+00 0.  1.
         21   -1    0    0  501  502  0.00000000000E+00 -0.00000000000E+00 -0.18106773371E+03  0.18106773371E+03  0.00000000000E+00 0. -1.
         21    1    1    2  503  505 -0.23577178081E+02  0.57443768908E+02  0.58574714781E+03  0.58902919374E+03  0.00000000000E+00 0.  1.
         21    1    1    2  504  502 -0.31629074921E+02  0.69614699277E+02 -0.15575275788E+03  0.17350944159E+03  0.00000000000E+00 0. -1.
         21    1    1    2  505  504  0.69223478164E+02 -0.90671829768E+02  0.20900338393E+03  0.23810855746E+03  0.00000000000E+00 0.  1.
          2    1    1    2  501    0 -0.14017225162E+02 -0.36386638417E+02  0.15638705683E+04  0.15643566168E+04  0.00000000000E+00 0.  1.
<scales pt_clust_3="45.98491" pt_clust_4="77.79549" pt_clust_5="14000.00000" pt_clust_6="38.99321"></scales>
<clustering>
<clus scale="   38.993">  1  6  2 -1</clus>
<clus scale="   45.985">  1  3  2 -1</clus>
<clus scale="   77.795">  2  4  1 -1</clus>
<clus scale="   77.795">  2  3  1 -1</clus>
</clustering>
</event>
<event>
 6    0  0.2572175E+002  0.7101181E+02  0.7546771E-02  0.1356686E+00
         21   -1    0    0  503  502  0.00000000000E+00  0.00000000000E+00  0.14250447832E+03  0.14250447832E+03  0.00000000000E+00 0. -1.
          2   -1    0    0  505    0 -0.00000000000E+00 -0.00000000000E+00 -0.84090330089E+03  0.84090330089E+03  0.00000000000E+00 0.  1.
         21    1    1    2  503  504  0.41774790112E+02 -0.33367168315E+01  0.46126245326E+01  0.42160918790E+02  0.00000000000E+00 0.  1.
         21    1    1    2  504  501  0.85315853123E+02 -0.43650809819E+02 -0.19848845386E+03  0.22041291774E+03  0.00000000000E+00 0. -1.
         21    1    1    2  505  502 -0.10314676745E+03  0.18927843824E+02  0.82018565470E+02  0.13313363207E+03  0.00000000000E+00 0. -1.
          2    1    1    2  501    0 -0.23943875786E+02  0.28059682827E+02 -0.58654155871E+03  0.58770031061E+03  0.00000000000E+00 0.  1.
<scales pt_clust_3="40.02335" pt_clust_4="71.01181" pt_clust_5="14000.00000" pt_clust_6="36.88706"></scales>
<clustering>
<clus scale="   36.887">  2  6  1 -1</clus>
<clus scale="   40.023">  1  3  2 -1</clus>
<clus scale="   71.012">  2  4  1 -1</clus>
<clus scale="   40.023">  1  3  2 -1</clus>
</clustering>
</event>
<event>
 6    0  0.2572175E+002  0.2230046E+03  0.7546771E-02  0.1131663E+00
         21   -1    0    0  505  502  0.00000000000E+00  0.00000000000E+00  0.50585904175E+03  0.50585904175E+03  0.00000000000E+00 0.  1.
         -2   -1    0    0    0  501 -0.00000000000E+00 -0.00000000000E+00 -0.50520932986E+03  0.50520932986E+03  0.00000000000E+00 0.  1.
         21    1    1    2  503  504 -0.10570544923E+03  0.61967796022E+02  0.13993255853E+03  0.18599669534E+03  0.00000000000E+00 0.  1.
         21    1    1    2  504  502 -0.59269828361E+02  0.81117065256E+02  0.27713630150E+03  0.29478368414E+03  0.00000000000E+00 0.  1.
         21    1    1    2  505  501  0.31576528486E+02 -0.14953411514E+03 -0.89425632635E+02  0.17707194163E+03  0.00000000000E+00 0.  1.
         -2    1    1    2    0  503  0.13339874910E+03  0.64492538598E+01 -0.32699351551E+03  0.35321605049E+03  0.00000000000E+00 0.  1.
<scales pt_clust_3="88.31736" pt_clust_4="88.31736" pt_clust_5="200.54386" pt_clust_6="133.55455"></scales>
<clustering>
<clus scale="   88.317">  3  4 -1 -1</clus>
<clus scale="  133.555">  2  6  1 -1</clus>
<clus scale="  200.544">  2  5  1 -1</clus>
<clus scale="  223.005">  1  3  2 -1</clus>
</clustering>
</event>
<event>
 6    0  0.5061206E+002  0.1498997E+03  0.7546771E-02  0.1200596E+00
          2   -1    0    0  505    0 -0.00000000000E+00  0.00000000000E+00  0.62532607683E+03  0.62532607683E+03  0.00000000000E+00 0.  1.
         21   -1    0    0  504  502  0.00000000000E+00 -0.00000000000E+00 -0.80464259772E+03  0.80464259772E+03  0.00000000000E+00 0.  1.
         21    1    1    2  503  502 -0.73051438671E+02  0.37962653978E+02  0.11147655457E+03  0.13858101604E+03  0.00000000000E+00 0. -1.
         21    1    1    2  504  501  0.14958990169E+03  0.24783463239E+02 -0.76847722163E+03  0.78329343091E+03  0.00000000000E+00 0.  1.
         21    1    1    2  505  503 -0.40147793488E+02 -0.18028853966E+02  0.22789300097E+02  0.49560438822E+02  0.00000000000E+00 0. -1.
          2    1    1    2  501    0 -0.36390669527E+02 -0.44717263251E+02  0.45489484608E+03  0.45853378877E+03  0.00000000000E+00 0.  1.
<scales pt_clust_3="88.42638" pt_clust_4="14000.00000" pt_clust_5="44.01005" pt_clust_6="149.89972"></scales>
<clustering>
<clus scale="   44.010">  1  5  2 -1</clus>
<clus scale="   88.426">  1  3  2 -1</clus>
<clus scale="  149.900">  1  6  2 -1</clus>
<clus scale="  149.900">  2  3  1 -1</clus>
</clustering>
</event>
<event>
 6    0  0.2572175E+002  0.1209587E+03  0.7546771E-02  0.1241524E+00
          2   -1    0    0  504    0 -0.00000000000E+00  0.00000000000E+00  0.10634812326E+04  0.10634812326E+04  0.00000000000E+00 0. -1.
         21   -1    0    0  503  502  0.00000000000E+00 -0.00000000000E+00 -0.98048176651E+02  0.98048176651E+02  0.00000000000E+00 0. -1.
         21    1    1    2  503  505  0.75616371754E+02 -0.16197480325E+02 -0.16887799349E+02  0.79154228018E+02  0.00000000000E+00 0. -1.
         21    1    1    2  504  502 -0.54896865053E+02 -0.94484388304E+02  0.24336046665E+03  0.26676821803E+03  0.00000000000E+00 0.  1.
         21    1    1    2  505  501  0.27007204988E+02 -0.34305407495E+02 -0.15141681235E+02  0.46211693491E+02  0.00000000000E+00 0. -1.
          2    1    1    2  501    0 -0.47726711689E+02  0.14498727612E+03  0.75410206992E+03  0.76939526974E+03  0.00000000000E+00 0. -1.
<scales pt_clust_3="30.13619" pt_clust_4="109.27472" pt_clust_5="30.13619" pt_clust_6="114.11579"></scales>
<clustering>
<clus scale="   30.136">  3  5 -1 -1</clus>
<clus scale="  109.275">  1  4  2 -1</clus>
<clus scale="  114.116">  1  6  2 -1</clus>
<clus scale="  120.959">  2  3  1 -1</clus>
</clustering>
</event>
<event>
 6    0  0.2572175E+002  0.8115895E+02  0.7546771E-02  0.1325794E+00
         -1   -1    0    0    0  501 -0.00000000000E+00  0.00000000000E+00  0.19806593068E+03  0.19806593068E+03  0.00000000000E+00 0.  1.
         21   -1    0    0  505  502  0.00000000000E+00 -0.00000000000E+00 -0.19970363009E+04  0.19970363009E+04  0.00000000000E+00 0. -1.
         21    1    1    2  503  501 -0.34836413785E+02 -0.24459433851E+01  0.41874356441E+02  0.54525407764E+02  0.00000000000E+00 0. -1.
         21    1    1    2  504  502  0.29543452477E+02 -0.22219792517E+02 -0.79873654916E+03  0.79959152680E+03  0.00000000000E+00 0. -1.
         21    1    1    2  505  503 -0.10152369492E+03  0.56912898492E+02 -0.11674143433E+04  0.11732017676E+04  0.00000000000E+00 0. -1.
         -1    1    1    2    0  504  0.10681665623E+03 -0.32247162590E+02  0.12530616580E+03  0.16778352938E+03  0.00000000000E+00 0.  1.
<scales pt_clust_3="34.92218" pt_clust_4="36.89151" pt_clust_5="81.15895" pt_clust_6="14000.00000"></scales>
<clustering>
<clus scale="   34.922">  1  3  2 -1</clus>
<clus scale="   36.892">  2  4  1 -1</clus>
<clus scale="   81.159">  2  5  1 -1</clus>
<clus scale="   36.892">  2  3  1 -1</clus>
</clustering>
</event>
<event>
 6    0  0.2572175E+002  0.8783430E+02  0.7546771E-02  0.1308183E+00
          1   -1    0    0  504    0 -0.00000000000E+00  0.00000000000E+00  0.15148507615E+04  0.15148507615E+04  0.00000000000E+00 0. -1.
         21   -1    0    0  505  502  0.00000000000E+00 -0.00000000000E+00 -0.27347248052E+03  0.27347248052E+03  0.00000000000E+00 0.  1.
         21    1    1    2  503  502 -0.35474395898E+02  0.64470594929E+00 -0.22941520249E+02  0.42251174675E+02  0.00000000000E+00 0.  1.
         21    1    1    2  504  503  0.31549088637E+02  0.12840258342E+03 -0.11625413630E+03  0.17606133201E+03  0.00000000000E+00 0.  1.
         21    1    1    2  505  501  0.50629607837E+02 -0.55058502432E+02 -0.78433673612E+02  0.10838190364E+03  0.00000000000E+00 0.  1.
          1    1    1    2  501    0 -0.46704300576E+02 -0.73988786935E+02  0.14590076112E+04  0.14616288317E+04  0.00000000000E+00 0. -1.
<scales pt_clust_3="35.48025" pt_clust_4="87.83430" pt_clust_5="66.05759" pt_clust_6="14000.00000"></scales>
<clustering>
<clus scale="   35.480">  2  3  1 -1</clus>
<clus scale="   66.058">  2  5  1 -1</clus>
<clus scale="   87.834">  2  4  1 -1</clus>
<clus scale="   35.480">  2  3  1 -1</clus>
</clustering>
</event>
<event>
 6    0  0.2572175E+002  0.1455785E+03  0.7546771E-02  0.1206014E+00
          1   -1    0    0  505    0 -0.00000000000E+00  0.00000000000E+00  0.97763090809E+02  0.97763090809E+02  0.00000000000E+00 0.  1.
         21   -1    0    0  504  502  0.00000000000E+00 -0.00000000000E+00 -0.32830342787E+04  0.32830342787E+04  0.00000000000E+00 0. -1.
         21    1    1    2  503  501 -0.15692032829E+03 -0.21678445896E+02 -0.70154529517E+03  0.71920772077E+03  0.00000000000E+00 0. -1.
         21    1    1    2  504  503  0.13964631655E+03  0.29076466681E+02 -0.24573568010E+04  0.24614932423E+04  0.00000000000E+00 0. -1.
         21    1    1    2  505  502  0.41789655950E+02  0.33393791514E+02 -0.99427395818E+02  0.11290406412E+03  0.00000000000E+00 0. -1.
          1    1    1    2  501    0 -0.24515644212E+02 -0.40791812300E+02  0.73058304073E+02  0.87192342300E+02  0.00000000000E+00 0.  1.
<scales pt_clust_3="145.57846" pt_clust_4="14000.00000" pt_clust_5="36.99299" pt_clust_6="47.59190"></scales>
<clustering>
<clus scale="   47.592">  1  6  2 -1</clus>
<clus scale="   36.993">  1  5  2 -1</clus>
<clus scale="  145.578">  1  3  2 -1</clus>
<clus scale="  145.578">  2  3  1 -1</clus>
</clustering>
</event>
<event>
 6    0  0.2572175E+002  0.1055949E+03  0.7546771E-02  0.1268952E+00
          1   -1    0    0  503    0 -0.00000000000E+00  0.00000000000E+00  0.13602630091E+04  0.13602630091E+04  0.00000000000E+00 0.  1.
         21   -1    0    0  505  502  0.00000000000E+00 -0.00000000000E+00 -0.94781224262E+03  0.94781224262E+03  0.00000000000E+00 0. -1.
         21    1    1    2  503  502 -0.83234167006E+00 -0.11073127207E+03 -0.80361672671E+03  0.81121017675E+03  0.00000000000E+00 0. -1.
         21    1    1    2  504  501 -0.53193499074E+02  0.64712403194E+02  0.52900973780E+03  0.53560110732E+03  0.00000000000E+00 0.  1.
         21    1    1    2  505  504  0.34023953021E+02  0.10149035862E+02 -0.13428269318E+03  0.13889735057E+03  0.00000000000E+00 0. -1.
          1    1    1    2  501    0  0.20001887723E+02  0.35869833017E+02  0.82134044853E+03  0.82236661704E+03  0.00000000000E+00 0.  1.
<scales pt_clust_3="105.59489" pt_clust_4="14000.00000" pt_clust_5="35.50538" pt_clust_6="41.08579"></scales>
<clustering>
<clus scale="   35.505">  2  5  1 -1</clus>
<clus scale="   41.086">  1  6  2 -1</clus>
<clus scale="  105.595">  2  3  1 -1</clus>
<clus scale="   35.505">  2  3  1 -1</clus>
</clustering>
</event>
<event>
 6    0  0.2572175E+002  0.1626798E+03  0.7546771E-02  0.1185704E+00
         -2   -1    0    0    0  501 -0.00000000000E+00  0.00000000000E+00  0.10192332617E+04  0.10192332617E+04  0.00000000000E+00 0.  1.
         21   -1    0    0  505  502  0.00000000000E+00 -0.00000000000E+00 -0.60797050760E+02  0.60797050760E+02  0.00000000000E+00 0. -1.
         21    1    1    2  503  502 -0.10683173370E+03 -0.51223711866E+02  0.58899094332E+03  0.60078883087E+03  0.00000000000E+00 0.  1.
         21    1    1    2  504  501  0.53234457250E+02  0.76438915740E+02  0.82750163692E+02  0.12459696974E+03  0.00000000000E+00 0. -1.
         21    1    1    2  505  504  0.54910620503E+02  0.50378624022E+02  0.19598822148E+02  0.77053850209E+02  0.00000000000E+00 0.  1.
         -2    1    1    2    0  503 -0.13133440507E+01 -0.75593827896E+02  0.26709628178E+03  0.27759066164E+03  0.00000000000E+00 0.  1.
<scales pt_clust_3="155.09682" pt_clust_4="43.90623" pt_clust_5="43.90623" pt_clust_6="75.60524"></scales>
<clustering>
<clus scale="   43.906">  4  5 -1 -1</clus>
<clus scale="   75.605">  1  6  2 -1</clus>
<clus scale="  155.097">  1  3  2 -1</clus>
<clus scale="  162.680">  2  3  1 -1</clus>
</clustering>
</event>
<event>
 6    0  0.2572175E+002  0.1184305E+03  0.7546771E-02  0.1245709E+00
          1   -1    0    0  502    0 -0.00000000000E+00  0.00000000000E+00  0.74019512017E+03  0.74019512017E+03  0.00000000000E+00 0. -1.
         21   -1    0    0  505  502  0.00000000000E+00 -0.00000000000E+00 -0.10539759799E+04  0.10539759799E+04  0.00000000000E+00 0.  1.
         21    1    1    2  503  501  0.14615679162E+03  0.37917789297E+01  0.18723567578E+02  0.14739999087E+03  0.00000000000E+00 0.  1.
         21    1    1    2  504  503 -0.56217906737E+02  0.32285279251E+01 -0.33932022087E+03  0.34396088254E+03  0.00000000000E+00 0.  1.
         21    1    1    2  505  504 -0.53491170033E+02  0.10593545805E+02 -0.64622217693E+03  0.64851879729E+03  0.00000000000E+00 0.  1.
          1    1    1    2  501    0 -0.36447714854E+02 -0.17613852660E+02  0.65303797046E+03  0.65429142940E+03  0.00000000000E+00 0. -1.
<scales pt_clust_3="111.94116" pt_clust_4="38.04861" pt_clust_5="38.04861" pt_clust_6="40.48066"></scales>
<clustering>
<clus scale="   38.049">  4  5 -1 -1</clus>
<clus scale="   40.481">  1  6  2 -1</clus>
<clus scale="  111.941">  1  3  2 -1</clus>
<clus scale="  118.431">  2  3  1 -1</clus>
</clustering>
</event>
<event>
 6    0  0.3491837E+002  0.5912373E+02  0.7546771E-02  0.1401546E+00
          2   -1    0    0  505    0 -0.00000000000E+00  0.00000000000E+00  0.11025494013E+04  0.11025494013E+04  0.00000000000E+00 0. -1.
         21   -1    0    0  503  502  0.00000000000E+00 -0.00000000000E+00 -0.13671366153E+04  0.13671366153E+04  0.00000000000E+00 0. -1.
         21    1    1    2  503  501 -0.25436460825E+02  0.40849044049E+02 -0.19773994876E+02  0.52025655329E+02  0.00000000000E+00 0. -1.
         21    1    1    2  504  502  0.49933490853E+02 -0.84546169227E+02 -0.11788340337E+04  0.11829163484E+04  0.00000000000E+00 0. -1.
         21    1    1    2  505  504 -0.54791966100E+02 -0.72323145276E+01 -0.14444202900E+03  0.15465434253E+03  0.00000000000E+00 0. -1.
          2    1    1    2  501    0  0.30294936073E+02  0.50929439706E+02  0.10784628436E+04  0.10800896704E+04  0.00000000000E+00 0. -1.
<scales pt_clust_3="48.12128" pt_clust_4="55.52540" pt_clust_5="59.12373" pt_clust_6="14000.00000"></scales>
<clustering>
<clus scale="   48.121">  2  3  1 -1</clus>
<clus scale="   55.525">  2  4  1 -1</clus>
<clus scale="   59.124">  2  5  1 -1</clus>
<clus scale="   48.121">  2  3  1 -1</clus>
</clustering>
</event>
<event>
 6    0  0.2572175E+002  0.1505874E+03  0.7546771E-02  0.1199753E+00
         21   -1    0    0  501  502  0.00000000000E+00  0.00000000000E+00  0.10031012163E+03  0.10031012163E+03  0.00000000000E+00 0. -1.
          2   -1    0    0  503    0 -0.00000000000E+00 -0.00000000000E+00 -0.20297415132E+04  0.20297415132E+04  0.00000000000E+00 0.  1.
         21    1    1    2  503  505  0.17724335295E+02 -0.14726480498E+03 -0.79635479255E+03  0.81005063451E+03  0.00000000000E+00 0.  1.
         21    1    1    2  504  502 -0.35239133398E+02  0.78102881076E+02  0.18865950171E+02  0.87736996933E+02  0.00000000000E+00 0. -1.
         21    1    1    2  505  504  0.57374888550E+02  0.87644112188E+02 -0.29316891761E+02  0.10877889676E+03  0.00000000000E+00 0. -1.
          2    1    1    2  501    0 -0.39860090447E+02 -0.18482188287E+02 -0.11226256574E+04  0.11234851066E+04  0.00000000000E+00 0.  1.
<scales pt_clust_3="150.58741" pt_clust_4="85.68365" pt_clust_5="14000.00000" pt_clust_6="43.93652"></scales>
<clustering>
<clus scale="   43.937">  2  6  1 -1</clus>
<clus scale="   85.684">  1  4  2 -1</clus>
<clus scale="  150.587">  2  3  1 -1</clus>
<clus scale="   85.684">  1  3  2 -1</clus>
</clustering>
</event>
<event>
 6    0  0.2572175E+002  0.1797905E+03  0.7546771E-02  0.1168006E+00
         21   -1    0    0  504  502  0.00000000000E+00  0.00000000000E+00  0.69123854548E+03  0.69123854548E+03  0.00000000000E+00 0. -1.
          2   -1    0    0  502    0 -0.00000000000E+00 -0.00000000000E+00 -0.15399906751E+04  0.15399906751E+04  0.00000000000E+00 0.  1.
         21    1    1    2  503  501  0.11553512457E+03  0.13012069883E+03 -0.11904884183E+03  0.21083734966E+03  0.00000000000E+00 0. -1.
         21    1    1    2  504  505 -0.27042094389E+02 -0.46893060008E+02  0.29939574835E+03  0.30424997629E+03  0.00000000000E+00 0. -1.
         21    1    1    2  505  503 -0.59968625883E+02 -0.10141815147E+03  0.33320261604E+03  0.35342023269E+03  0.00000000000E+00 0. -1.
          2    1    1    2  501    0 -0.28524404296E+02  0.18190512647E+02 -0.13623016522E+04  0.13627216619E+04  0.00000000000E+00 0.  1.
<scales pt_clust_3="171.87870" pt_clust_4="35.75476" pt_clust_5="35.75476" pt_clust_6="33.83100"></scales>
<clustering>
<clus scale="   33.831">  2  6  1 -1</clus>
<clus scale="   35.755">  4  5 -1 -1</clus>
<clus scale="  171.879">  2  3  1 -1</clus>
<clus scale="  179.790">  1  3  2 -1</clus>
</clustering>
</event>
<event>
 6    0  0.2572175E+002  0.1392277E+03  0.7546771E-02  0.1214372E+00
          1   -1    0    0  504    0 -0.00000000000E+00  0.00000000000E+00  0.10772982026E+03  0.10772982026E+03  0.00000000000E+00 0.  1.
         21   -1    0    0  505  502  0.00000000000E+00 -0.00000000000E+00 -0.56478544865E+03  0.56478544865E+03  0.00000000000E+00 0.  1.
         21    1    1    2  503  501  0.77356112861E+02  0.55770727800E+02 -0.84219233236E+02  0.12722901211E+03  0.00000000000E+00 0. -1.
         21    1    1    2  504  502 -0.12293420219E+03 -0.30009578959E+02 -0.34848096938E+01  0.12659200921E+03  0.00000000000E+00 0.  1.
         21    1    1    2  505  503  0.31201155969E+02 -0.68125327544E+02 -0.36626455575E+03  0.37385063486E+03  0.00000000000E+00 0.  1.
          1    1    1    2  501    0  0.14376933361E+02  0.42364178703E+02 -0.30870297108E+01  0.44843612727E+02  0.00000000000E+00 0.  1.
<scales pt_clust_3="42.99873" pt_clust_4="124.27051" pt_clust_5="74.93045" pt_clust_6="42.99873"></scales>
<clustering>
<clus scale="   42.999">  3  6 -1 -1</clus>
<clus scale="   74.930">  2  5  1 -1</clus>
<clus scale="  124.271">  1  4  2 -1</clus>
<clus scale="   74.930">  2  3  1 -1</clus>
</clustering>
</event>
<event>
 6    0  0.2572175E+002  0.7774405E+02  0.7546771E-02  0.1335578E+00
          2   -1    0    0  504    0 -0.00000000000E+00  0.00000000000E+00  0.53495104818E+03  0.53495104818E+03  0.00000000000E+00 0.  1.
         21   -1    0    0  503  502  0.00000000000E+00 -0.00000000000E+00 -0.76821290427E+02  0.76821290427E+02  0.00000000000E+00 0. -1.
         21    1    1    2  503  501 -0.29373232812E+02 -0.28393079861E+02 -0.32020522785E+02  0.51906335541E+02  0.00000000000E+00 0. -1.
         21    1    1    2  504  505  0.79561428845E+02  0.23689136706E+01  0.17458397656E+03  0.19187286829E+03  0.00000000000E+00 0. -1.
         21    1    1    2  505  502  0.79002095289E+01 -0.44036185416E+02  0.57752182078E+01  0.45110443158E+02  0.00000000000E+00 0. -1.
          2    1    1    2  501    0 -0.58088405562E+02  0.70060351606E+02  0.30979108577E+03  0.32288269163E+03  0.00000000000E+00 0.  1.
<scales pt_clust_3="40.85283" pt_clust_4="77.74405" pt_clust_5="60.67922" pt_clust_6="14000.00000"></scales>
<clustering>
<clus scale="   40.853">  2  3  1 -1</clus>
<clus scale="   60.679">  2  5  1 -1</clus>
<clus scale="   77.744">  2  4  1 -1</clus>
<clus scale="   40.853">  2  3  1 -1</clus>
</clustering>
</event>
<event>
 6    0  0.2572175E+002  0.1007875E+03  0.7546771E-02  0.1278649E+00
         -2   -1    0    0    0  501 -0.00000000000E+00  0.00000000000E+00  0.44638387014E+03  0.44638387014E+03  0.00000000000E+00 0.  1.
         21   -1    0    0  504  502  0.00000000000E+00 -0.00000000000E+00 -0.63660978653E+03  0.63660978653E+03  0.00000000000E+00 0.  1.
         21    1    1    2  503  502 -0.98540261697E+02 -0.47552799857E+02  0.57193828053E+02  0.12346086796E+03  0.00000000000E+00 0.  1.
         21    1    1    2  504  505 -0.82683929369E+00 -0.30181021637E+02 -0.14643101331E+03  0.14951126844E+03  0.00000000000E+00 0. -1.
         21    1    1    2  505  501  0.10131058131E+03  0.33621257669E+02 -0.44783256718E+03  0.46037835644E+03  0.00000000000E+00 0.  1.
         -2    1    1    2    0  503 -0.19434803198E+01  0.44112563825E+02  0.34684383605E+03  0.34964316383E+03  0.00000000000E+00 0.  1.
<scales pt_clust_3="14000.00000" pt_clust_4="30.19235" pt_clust_5="100.78755" pt_clust_6="44.06909"></scales>
<clustering>
<clus scale="   30.192">  2  4  1 -1</clus>
<clus scale="   44.069">  1  6  2 -1</clus>
<clus scale="  100.788">  2  5  1 -1</clus>
<clus scale="   30.192">  2  3  1 -1</clus>
</clustering>
</event>
<event>
 6    0  0.2572175E+002  0.1792793E+03  0.7546771E-02  0.1168502E+00
          2   -1    0    0  504    0 -0.00000000000E+00  0.00000000000E+00  0.13252262192E+04  0.13252262192E+04  0.00000000000E+00 0.  1.
         21   -1    0    0  505  502  0.00000000000E+00 -0.00000000000E+00 -0.27386362511E+03  0.27386362511E+03  0.00000000000E+00 0. -1.
         21    1    1    2  503  501  0.64978844742E+02  0.91938570847E+02 -0.35773460390E+02  0.11812997732E+03  0.00000000000E+00 0. -1.
         21    1    1    2  504  502 -0.88215062454E+02 -0.16680564196E+03 -0.11757087044E+03  0.22232617706E+03  0.00000000000E+00 0. -1.
         21    1    1    2  505  503 -0.39137656936E+00  0.47930093962E+02 -0.51849930703E+01  0.48211318546E+02  0.00000000000E+00 0.  1.
          2    1    1    2  501    0  0.23627594281E+02  0.26936977146E+02  0.12098919180E+04  0.12104223714E+04  0.00000000000E+00 0.  1.
<scales pt_clust_3="30.99882" pt_clust_4="172.86998" pt_clust_5="30.99882" pt_clust_6="35.83105"></scales>
<clustering>
<clus scale="   30.999">  3  5 -1 -1</clus>
<clus scale="   35.831">  1  6  2 -1</clus>
<clus scale="  172.870">  2  4  1 -1</clus>
<clus scale="  172.870">  2  3  1 -1</clus>
</clustering>
</event>
<event>
 6    0  0.2572175E+002  0.1238145E+03  0.7546771E-02  0.1236934E+00
          2   -1    0    0  505    0 -0.00000000000E+00  0.00000000000E+00  0.17766294521E+04  0.17766294521E+04  0.00000000000E+00 0.  1.
         21   -1    0    0  504  502  0.00000000000E+00 -0.00000000000E+00 -0.42920446582E+03  0.42920446582E+03  0.00000000000E+00 0. -1.
         21    1    1    2  503  501  0.82845507743E+02 -0.15819781774E+03  0.51502039864E+03  0.54510176913E+03  0.00000000000E+00 0.  1.
         21    1    1    2  504  503 -0.18979589273E+01  0.53480306789E+02 -0.73983370462E+02  0.91308732153E+02  0.00000000000E+00 0. -1.
         21    1    1    2  505  502 -0.65682552460E+02  0.50151375122E+02 -0.32570644087E+03  0.33602684974E+03  0.00000000000E+00 0. -1.
          2    1    1    2  501    0 -0.15264996355E+02  0.54566135824E+02  0.12320943990E+04  0.12333965669E+04  0.00000000000E+00 0.  1.
<scales pt_clust_3="14000.00000" pt_clust_4="53.51397" pt_clust_5="123.81454" pt_clust_6="56.75885"></scales>
<clustering>
<clus scale="   53.514">  2  4  1 -1</clus>
<clus scale="   56.759">  1  6  2 -1</clus>
<clus scale="  123.815">  2  5  1 -1</clus>
<clus scale="   53.514">  2  3  1 -1</clus>
</clustering>
</event>
<event>
 6    0  0.2572175E+002  0.2329700E+03  0.7546771E-02  0.1124567E+00
          2   -1    0    0  503    0 -0.00000000000E+00  0.00000000000E+00  0.14469323507E+04  0.14469323507E+04  0.00000000000E+00 0. -1.
         21   -1    0    0  501  502  0.00000000000E+00 -0.00000000000E+00 -0.65260976189E+03  0.65260976189E+03  0.00000000000E+00 0.  1.
         21    1    1    2  503  505 -0.64053123714E+01 -0.23809026205E+03  0.34400774161E+03  0.41841286691E+03  0.00000000000E+00 0. -1.
         21    1    1    2  504  502  0.45113094337E+02 -0.26042970744E+02 -0.34849812795E+03  0.35236965361E+03  0.00000000000E+00 0.  1.
         21    1    1    2  505  504  0.57382736409E+02  0.47225288283E+02 -0.24619163854E+03  0.25716401222E+03  0.00000000000E+00 0.  1.
          2    1    1    2  501    0 -0.96090518375E+02  0.21690794451E+03  0.10450046136E+04  0.10715955798E+04  0.00000000000E+00 0. -1.
<scales pt_clust_3="232.97000" pt_clust_4="52.09057" pt_clust_5="98.33004" pt_clust_6="14000.00000"></scales>
<clustering>
<clus scale="   52.091">  2  4  1 -1</clus>
<clus scale="   98.330">  2  5  1 -1</clus>
<clus scale="  232.970">  2  3  1 -1</clus>
<clus scale="   52.091">  2  3  1 -1</clus>
</clustering>
</event>
<event>
 6    0  0.2572175E+002  0.1052631E+03  0.7546771E-02  0.1269602E+00
          2   -1    0    0  503    0 -0.00000000000E+00  0.00000000000E+00  0.10358819861E+04  0.10358819861E+04  0.00000000000E+00 0.  1.
         21   -1    0    0  505  502  0.00000000000E+00 -0.00000000000E+00 -0.42203574890E+03  0.42203574890E+03  0.00000000000E+00 0.  1.
         21    1    1    2  503  504 -0.12588305472E+03 -0.55844264046E+02  0.80242977764E+03  0.81416133127E+03  0.00000000000E+00 0.  1.
         21    1    1    2  504  502 -0.46903639640E+02 -0.40032321365E+02 -0.90164735465E+02  0.10923469086E+03  0.00000000000E+00 0.  1.
         21    1    1    2  505  501  0.14409431166E+03  0.74370332846E+02 -0.29396104416E+03  0.33571894874E+03  0.00000000000E+00 0.  1.
          2    1    1    2  501    0  0.28692382699E+02  0.21506252565E+02  0.19554223914E+03  0.19880276410E+03  0.00000000000E+00 0.  1.
<scales pt_clust_3="14000.00000" pt_clust_4="61.25789" pt_clust_5="105.26315" pt_clust_6="35.85766"></scales>
<clustering>
<clus scale="   35.858">  1  6  2 -1</clus>
<clus scale="   61.258">  2  4  1 -1</clus>
<clus scale="  105.263">  2  5  1 -1</clus>
<clus scale="   61.258">  2  3  1 -1</clus>
</clustering>
</event>
<event>
 6    0  0.2572175E+002  0.8137187E+02  0.7546771E-02  0.1325203E+00
          2   -1    0    0  505    0 -0.00000000000E+00  0.00000000000E+00  0.10899055044E+04  0.10899055044E+04  0.00000000000E+00 0.  1.
         21   -1    0    0  503  502  0.00000000000E+00 -0.00000000000E+00 -0.17145285817E+03  0.17145285817E+03  0.00000000000E+00 0. -1.
         21    1    1    2  503  504  0.35271480588E+02  0.25920073541E+02 -0.99751588826E+02  0.10893258020E+03  0.00000000000E+00 0. -1.
         21    1    1    2  504  501  0.32609719493E+02 -0.93456657071E+01 -0.45900620119E+02  0.57075408016E+02  0.00000000000E+00 0. -1.
         21    1    1    2  505  502 -0.11096976325E+03 -0.47167010968E+02  0.23104566444E+03  0.26061679595E+03  0.00000000000E+00 0.  1.
          2    1    1    2  501    0  0.43088563167E+02  0.30592603134E+02  0.83305919075E+03  0.83473357842E+03  0.00000000000E+00 0.  1.
<scales pt_clust_3="33.65512" pt_clust_4="33.65512" pt_clust_5="71.83219" pt_clust_6="52.84441"></scales>
<clustering>
<clus scale="   33.655">  3  4 -1 -1</clus>
<clus scale="   52.844">  1  6  2 -1</clus>
<clus scale="   71.832">  1  5  2 -1</clus>
<clus scale="   81.372">  2  3  1 -1</clus>
</clustering>
</event>
<event>
 6    0  0.2572175E+002  0.1478177E+03  0.7546771E-02  0.1203181E+00
          2   -1    0    0  504    0 -0.00000000000E+00  0.00000000000E+00  0.34338552620E+04  0.34338552620E+04  0.00000000000E+00 0. -1.
         21   -1    0    0  505  502  0.00000000000E+00 -0.00000000000E+00 -0.37296953554E+02  0.37296953554E+02  0.00000000000E+00 0. -1.
         21    1    1    2  503  502  0.68475439682E+02 -0.12615927642E+03  0.26706679835E+03  0.30319914849E+03  0.00000000000E+00 0. -1.
         21    1    1    2  504  503 -0.15084009727E+03  0.37351268638E+02  0.17784414758E+04  0.17852176156E+04  0.00000000000E+00 0. -1.
         21    1    1    2  505  501  0.70629190010E+02  0.59034711121E+02  0.11985768052E+03  0.15112724168E+03  0.00000000000E+00 0.  1.
          2    1    1    2  501    0  0.11735467577E+02  0.29773296658E+02  0.12311923538E+04  0.12316082098E+04  0.00000000000E+00 0. -1.
<scales pt_clust_3="147.81769" pt_clust_4="14000.00000" pt_clust_5="93.78537" pt_clust_6="32.00266"></scales>
<clustering>
<clus scale="   32.003">  1  6  2 -1</clus>
<clus scale="   93.785">  2  5  1 -1</clus>
<clus scale="  147.818">  2  3  1 -1</clus>
<clus scale="   93.785">  2  3  1 -1</clus>
</clustering>
</event>
<event>
 6    0  0.2572175E+002  0.1202849E+03  0.7546771E-02  0.1242628E+00
         -2   -1    0    0    0  501 -0.00000000000E+00  0.00000000000E+00  0.73738069020E+03  0.73738069020E+03  0.00000000000E+00 0. -1.
         21   -1    0    0  503  502  0.00000000000E+00 -0.00000000000E+00 -0.10874155354E+04  0.10874155354E+04  0.00000000000E+00 0.  1.
         21    1    1    2  503  505  0.35259402789E+02 -0.84682383183E+02 -0.74219337457E+03  0.74784044874E+03  0.00000000000E+00 0. -1.
         21    1    1    2  504  502 -0.73106603709E+02  0.33988144064E+02 -0.46964496875E+02  0.93302912117E+02  0.00000000000E+00 0. -1.
         21    1    1    2  505  501  0.52563167865E+02 -0.45340054065E+02 -0.26444726187E+03  0.27340622054E+03  0.00000000000E+00 0.  1.
         -2    1    1    2    0  504 -0.14715966945E+02  0.96034293183E+02  0.70357028816E+03  0.71024664416E+03  0.00000000000E+00 0. -1.
<scales pt_clust_3="61.51671" pt_clust_4="80.62115" pt_clust_5="61.51671" pt_clust_6="97.30209"></scales>
<clustering>
<clus scale="   61.517">  3  5 -1 -1</clus>
<clus scale="   80.621">  2  4  1 -1</clus>
<clus scale="   97.302">  1  6  2 -1</clus>
<clus scale="   80.621">  2  3  1 -1</clus>
</clustering>
</event>
<event>
 6    0  0.2572175E+002  0.6775495E+02  0.7546771E-02  0.1367898E+00
         21   -1    0    0  505  502  0.00000000000E+00  0.00000000000E+00  0.29579865526E+03  0.29579865526E+03  0.00000000000E+00 0.  1.
          1   -1    0    0  504    0 -0.00000000000E+00 -0.00000000000E+00 -0.83183237574E+03  0.83183237574E+03  0.00000000000E+00 0. -1.
         21    1    1    2  503  501 -0.75004200009E+02  0.55891517129E+02 -0.13284740349E+03  0.16247438050E+03  0.00000000000E+00 0. -1.
         21    1    1    2  504  502  0.51622778714E+02  0.38539474629E+02  0.13201342430E+03  0.14689365739E+03  0.00000000000E+00 0.  1.
         21    1    1    2  505  503 -0.78820579409E+01 -0.86448452292E+02  0.12779170774E+03  0.15448683539E+03  0.00000000000E+00 0.  1.
          1    1    1    2  501    0  0.31263479237E+02 -0.79825394665E+01 -0.66299144903E+03  0.66377615772E+03  0.00000000000E+00 0. -1.
<scales pt_clust_3="67.75495" pt_clust_4="65.32706" pt_clust_5="14000.00000" pt_clust_6="32.26649"></scales>
<clustering>
<clus scale="   32.266">  2  6  1 -1</clus>
<clus scale="   65.327">  1  4  2 -1</clus>
<clus scale="   67.755">  2  3  1 -1</clus>
<clus scale="   65.327">  1  3  2 -1</clus>
</clustering>
</event>
<event>
 6    0  0.2572175E+002  0.1013055E+03  0.7546771E-02  0.1277574E+00
         21   -1    0    0  505  502  0.00000000000E+00  0.00000000000E+00  0.13385465695E+03  0.13385465695E+03  0.00000000000E+00 0. -1.
          2   -1    0    0  504    0 -0.00000000000E+00 -0.00000000000E+00 -0.46670899550E+03  0.46670899550E+03  0.00000000000E+00 0.  1.
         21    1    1    2  503  501  0.35394027900E+02  0.95069450418E+01 -0.50229131701E+02  0.62177848841E+02  0.00000000000E+00 0. -1.
         21    1    1    2  504  502 -0.21612887046E+02  0.10321889262E+03  0.85468115742E+02  0.13574260749E+03  0.00000000000E+00 0. -1.
         21    1    1    2  505  503 -0.31163770526E+02 -0.86318827034E+02 -0.11287714523E+03  0.14547635688E+03  0.00000000000E+00 0.  1.
          2    1    1    2  501    0  0.17382629672E+02 -0.26407010624E+02 -0.25521617735E+03  0.25716683924E+03  0.00000000000E+00 0.  1.
<scales pt_clust_3="40.11012" pt_clust_4="14000.00000" pt_clust_5="101.30554" pt_clust_6="31.61465"></scales>
<clustering>
<clus scale="   31.615">  2  6  1 -1</clus>
<clus scale="   40.110">  2  3  1 -1</clus>
<clus scale="  101.306">  2  5  1 -1</clus>
<clus scale="  101.306">  1  3  2 -1</clus>
</clustering>
</event>
<event>
 6    0  0.2572175E+002  0.1074923E+03  0.7546771E-02  0.1265285E+00
         -1   -1    0    0    0  501 -0.00000000000E+00  0.00000000000E+00  0.38769232419E+03  0.38769232419E+03  0.00000000000E+00 0.  1.
         21   -1    0    0  504  502  0.00000000000E+00 -0.00000000000E+00 -0.38886456273E+03  0.38886456273E+03  0.00000000000E+00 0.  1.
         21    1    1    2  503  505 -0.29899451710E+02 -0.83785455194E+02 -0.54197630327E+02  0.10416987495E+03  0.00000000000E+00 0.  1.
         21    1    1    2  504  503  0.64565505884E+02  0.97929396753E+02 -0.27449886348E+03  0.29851046439E+03  0.00000000000E+00 0.  1.
         21    1    1    2  505  501 -0.41457296946E+02  0.16991232953E+02 -0.15304539188E-02  0.44804123356E+02  0.00000000000E+00 0.  1.
         -1    1    1    2    0  502  0.67912427721E+01 -0.31135174512E+02  0.32752578572E+03  0.32907242422E+03  0.00000000000E+00 0.  1.
<scales pt_clust_3="107.49234" pt_clust_4="14000.00000" pt_clust_5="39.24829" pt_clust_6="31.86723"></scales>
<clustering>
<clus scale="   31.867">  1  6  2 -1</clus>
<clus scale="   39.248">  1  5  2 -1</clus>
<clus scale="  107.492">  1  3  2 -1</clus>
<clus scale="  107.492">  2  3  1 -1</clus>
</clustering>
</event>
<event>
 6    0  0.2572175E+002  0.9297511E+02  0.7546771E-02  0.1295803E+00
          2   -1    0    0  504    0 -0.00000000000E+00  0.00000000000E+00  0.18872705064E+04  0.18872705064E+04  0.00000000000E+00 0. -1.
         21   -1    0    0  505  502  0.00000000000E+00 -0.00000000000E+00 -0.59401462976E+02  0.59401462976E+02  0.00000000000E+00 0. -1.
         21    1    1    2  503  502 -0.77103523961E+02 -0.15278737987E+01  0.93839049063E+01  0.77687485973E+02  0.00000000000E+00 0. -1.
         21    1    1    2  504  503  0.64425090648E+02  0.12603504285E+02  0.28653392072E+03  0.29395769822E+03  0.00000000000E+00 0. -1.
         21    1    1    2  505  501  0.26175394998E+02 -0.88114986085E+02  0.82641876380E+02  0.12360858307E+03  0.00000000000E+00 0. -1.
          2    1    1    2  501    0 -0.13496961685E+02  0.77039355598E+02  0.14493093414E+04  0.14514182021E+04  0.00000000000E+00 0. -1.
<scales pt_clust_3="75.35657" pt_clust_4="65.64633" pt_clust_5="14000.00000" pt_clust_6="92.97511"></scales>
<clustering>
<clus scale="   65.646">  1  4  2 -1</clus>
<clus scale="   75.357">  2  3  1 -1</clus>
<clus scale="   92.975">  1  6  2 -1</clus>
<clus scale="   75.357">  2  3  1 -1</clus>
</clustering>
</event>
<event>
 6    0  0.2572175E+002  0.1046439E+03  0.7546771E-02  0.1270823E+00
         21   -1    0    0  501  502  0.00000000000E+00  0.00000000000E+00  0.20894995528E+03  0.20894995528E+03  0.00000000000E+00 0. -1.
          2   -1    0    0  505    0 -0.00000000000E+00 -0.00000000000E+00 -0.32038525146E+03  0.32038525146E+03  0.00000000000E+00 0.  1.
         21    1    1    2  503  502 -0.41445450132E+02 -0.89365140480E+01  0.98175120394E+02  0.10693895868E+03  0.00000000000E+00 0. -1.
         21    1    1    2  504  503 -0.36678209201E+02 -0.31257927921E+02  0.55373041359E+02  0.73406558273E+02  0.00000000000E+00 0. -1.
         21    1    1    2  505  504  0.84892395079E+02 -0.74002035582E+02 -0.13639779724E+03  0.17688238777E+03  0.00000000000E+00 0.  1.
          2    1    1    2  501    0 -0.67687357453E+01  0.11419647755E+03 -0.12858566069E+03  0.17210730201E+03  0.00000000000E+00 0.  1.
<scales pt_clust_3="32.87685" pt_clust_4="94.59105" pt_clust_5="14000.00000" pt_clust_6="104.64386"></scales>
<clustering>
<clus scale="   32.877">  3  4 -1 -1</clus>
<clus scale="   94.591">  1  3  2 -1</clus>
<clus scale="  104.644">  1  6  2 -1</clus>
<clus scale="   94.591">  1  3  2 -1</clus>
</clustering>
</event>
<event>
 6    0  0.2572175E+002  0.2137503E+03  0.7546771E-02  0.1138630E+00
         -4   -1    0    0    0  501 -0.00000000000E+00  0.00000000000E+00  0.22230330134E+04  0.22230330134E+04  0.00000000000E+00 0. -1.
         21   -1    0    0  503  502  0.00000000000E+00 -0.00000000000E+00 -0.15349887220E+03  0.15349887220E+03  0.00000000000E+00 0.  1.
         21    1    1    2  503  505 -0.34358076941E+02  0.13200785242E+02 -0.70665525891E+02  0.79676563251E+02  0.00000000000E+00 0.  1.
         21    1    1    2  504  501 -0.95043403727E+02  0.11584455544E+03  0.25854754644E+03  0.29883112854E+03  0.00000000000E+00 0.  1.
         21    1    1    2  505  504 -0.28235399448E+02  0.47821037715E+02 -0.35745860940E+02  0.66044348770E+02  0.00000000000E+00 0.  1.
         -4    1    1    2    0  502  0.15763688012E+03 -0.17686637839E+03  0.19173979816E+04  0.19319798450E+04  0.00000000000E+00 0. -1.
<scales pt_clust_3="36.80677" pt_clust_4="14000.00000" pt_clust_5="75.74386" pt_clust_6="213.75029"></scales>
<clustering>
<clus scale="   36.807">  2  3  1 -1</clus>
<clus scale="   75.744">  2  5  1 -1</clus>
<clus scale="  213.750">  1  6  2 -1</clus>
<clus scale="   36.807">  2  3  1 -1</clus>
</clustering>
</event>
<event>
 6    0  0.2572175E+002  0.6757785E+02  0.7546771E-02  0.1368529E+00
         21   -1    0    0  503  502  0.00000000000E+00  0.00000000000E+00  0.16754252278E+04  0.16754252278E+04  0.00000000000E+00 0. -1.
          1   -1    0    0  504    0 -0.00000000000E+00 -0.00000000000E+00 -0.25960062378E+04  0.25960062378E+04  0.00000000000E+00 0.  1.
         21    1    1    2  503  501 -0.32744008403E+02 -0.54280309056E+02  0.14762285539E+04  0.14775890043E+04  0.00000000000E+00 0. -1.
         21    1    1    2  504  505  0.84141850083E+02  0.57041719553E+02  0.46265146968E+01  0.10175958600E+03  0.00000000000E+00 0. -1.
         21    1    1    2  505  502  0.69940504497E+01  0.30690643773E+02  0.14316878545E+03  0.14658831292E+03  0.00000000000E+00 0. -1.
          1    1    1    2  501    0 -0.58391892130E+02 -0.33452054270E+02 -0.25446048641E+04  0.25454945624E+04  0.00000000000E+00 0.  1.
<scales pt_clust_3="35.83457" pt_clust_4="14000.00000" pt_clust_5="31.47749" pt_clust_6="67.57785"></scales>
<clustering>
<clus scale="   31.477">  1  5  2 -1</clus>
<clus scale="   35.835">  1  3  2 -1</clus>
<clus scale="   67.578">  2  6  1 -1</clus>
<clus scale="   31.477">  1  3  2 -1</clus>
</clustering>
</event>
<event>
 6    0  0.2572175E+002  0.8078908E+02  0.7546771E-02  0.1326827E+00
         21   -1    0    0  505  502  0.00000000000E+00  0.00000000000E+00  0.28355035903E+03  0.28355035903E+03  0.00000000000E+00 0. -1.
          2   -1    0    0  504    0 -0.00000000000E+00 -0.00000000000E+00 -0.11457122888E+04  0.11457122888E+04  0.00000000000E+00 0. -1.
         21    1    1    2  503  502 -0.51048005593E+02  0.52281610931E+02  0.87642130870E+02  0.11410700601E+03  0.00000000000E+00 0. -1.
         21    1    1    2  504  503 -0.59995302235E+02  0.33044821889E+02 -0.79359285142E+03  0.79654316290E+03  0.00000000000E+00 0. -1.
         21    1    1    2  505  501  0.78948408817E+02 -0.41222696346E+02  0.16783800965E+03  0.19000463002E+03  0.00000000000E+00 0. -1.
          2    1    1    2  501    0  0.32094899011E+02 -0.44103736474E+02 -0.32404921889E+03  0.32860784893E+03  0.00000000000E+00 0. -1.
<scales pt_clust_3="14000.00000" pt_clust_4="30.45572" pt_clust_5="80.78908" pt_clust_6="54.54560"></scales>
<clustering>
<clus scale="   54.546">  2  6  1 -1</clus>
<clus scale="   30.456">  2  4  1 -1</clus>
<clus scale="   80.789">  1  5  2 -1</clus>
<clus scale="   80.789">  1  3  2 -1</clus>
</clustering>
</event>
<event>
 6    0  0.2572175E+002  0.1311298E+03  0.7546771E-02  0.1225789E+00
          2   -1    0    0  504    0 -0.00000000000E+00  0.00000000000E+00  0.11662776305E+04  0.11662776305E+04  0.00000000000E+00 0. -1.
         21   -1    0    0  503  502  0.00000000000E+00 -0.00000000000E+00 -0.14549080714E+03  0.14549080714E+03  0.00000000000E+00 0. -1.
         21    1    1    2  503  505  0.76617537390E+02 -0.14802462763E+02 -0.30302642707E+02  0.83711469313E+02  0.00000000000E+00 0. -1.
         21    1    1    2  504  502 -0.21562322874E+03 -0.11685346701E+03  0.17025716204E+03  0.29855587542E+03  0.00000000000E+00 0. -1.
         21    1    1    2  505  501  0.83303866684E+02  0.19213143904E+02  0.74301063665E+02  0.11326661982E+03  0.00000000000E+00 0. -1.
          2    1    1    2  501    0  0.55701824665E+02  0.11244278587E+03  0.80653124041E+03  0.81623447313E+03  0.00000000000E+00 0. -1.
<scales pt_clust_3="78.03435" pt_clust_4="131.12979" pt_clust_5="101.43635" pt_clust_6="14000.00000"></scales>
<clustering>
<clus scale="   78.034">  2  3  1 -1</clus>
<clus scale="  101.436">  2  5  1 -1</clus>
<clus scale="  131.130">  2  4  1 -1</clus>
<clus scale="   78.034">  2  3  1 -1</clus>
</clustering>
</event>
<event>
 6    0  0.2572175E+002  0.7647306E+02  0.7546771E-02  0.1339369E+00
         21   -1    0    0  503  502  0.00000000000E+00  0.00000000000E+00  0.40899334206E+02  0.40899334206E+02  0.00000000000E+00 0.  1.
          1   -1    0    0  505    0 -0.00000000000E+00 -0.00000000000E+00 -0.21779842927E+04  0.21779842927E+04  0.00000000000E+00 0.  1.
         21    1    1    2  503  501 -0.12095686133E+02 -0.42521751403E+02 -0.95510223814E+01  0.45228608136E+02  0.00000000000E+00 0.  1.
         21    1    1    2  504  502  0.36868711212E+02 -0.18586799913E+02 -0.97755343196E+01  0.42430320158E+02  0.00000000000E+00 0.  1.
         21    1    1    2  505  504 -0.91057187176E+02  0.85442943068E+02 -0.65699975580E+03  0.66876048551E+03  0.00000000000E+00 0. -1.
          1    1    1    2  501    0  0.66284162097E+02 -0.24334391752E+02 -0.14607586460E+04  0.14624642132E+04  0.00000000000E+00 0.  1.
<scales pt_clust_3="57.90465" pt_clust_4="41.28887" pt_clust_5="76.47306" pt_clust_6="14000.00000"></scales>
<clustering>
<clus scale="   41.289">  1  4  2 -1</clus>
<clus scale="   57.905">  1  3  2 -1</clus>
<clus scale="   76.473">  1  5  2 -1</clus>
<clus scale="   41.289">  1  3  2 -1</clus>
</clustering>
</event>
<event>
 6    0  0.2572175E+002  0.7702480E+02  0.7546771E-02  0.1337713E+00
          2   -1    0    0  504    0 -0.00000000000E+00  0.00000000000E+00  0.13792270940E+04  0.13792270940E+04  0.00000000000E+00 0.  1.
         21   -1    0    0  503  502  0.00000000000E+00 -0.00000000000E+00 -0.29660076991E+03  0.29660076991E+03  0.00000000000E+00 0. -1.
         21    1    1    2  503  501 -0.81326249068E+02 -0.19186500986E+02 -0.20111825287E+03  0.21778574849E+03  0.00000000000E+00 0. -1.
         21    1    1    2  504  505 -0.37608650381E+02 -0.20642844950E+02  0.51056856425E+03  0.51236783314E+03  0.00000000000E+00 0. -1.
         21    1    1    2  505  502  0.68571882033E+02 -0.25068346545E+02 -0.68431642585E+02  0.10006705107E+03  0.00000000000E+00 0.  1.
          2    1    1    2  501    0  0.50363017415E+02  0.64897692481E+02  0.84160765526E+03  0.84560723117E+03  0.00000000000E+00 0.  1.
<scales pt_clust_3="77.02480" pt_clust_4="42.90149" pt_clust_5="14000.00000" pt_clust_6="46.90569"></scales>
<clustering>
<clus scale="   42.901">  1  4  2 -1</clus>
<clus scale="   46.906">  1  6  2 -1</clus>
<clus scale="   77.025">  2  3  1 -1</clus>
<clus scale="   77.025">  2  3  1 -1</clus>
</clustering>
</event>
<event>
 6    0  0.2572175E+002  0.1121528E+03  0.7546771E-02  0.1256634E+00
         21   -1    0    0  505  502  0.00000000000E+00  0.00000000000E+00  0.79548049952E+03  0.79548049952E+03  0.00000000000E+00 0. -1.
          2   -1    0    0  503    0 -0.00000000000E+00 -0.00000000000E+00 -0.54050251006E+03  0.54050251006E+03  0.00000000000E+00 0. -1.
         21    1    1    2  503  502  0.69741729838E+02  0.11232240759E+03  0.26215490145E+03  0.29360760290E+03  0.00000000000E+00 0. -1.
         21    1    1    2  504  501 -0.45388347355E+02 -0.84830209506E+02  0.29657436601E+03  0.31178938579E+03  0.00000000000E+00 0. -1.
         21    1    1    2  505  504  0.18778304473E+02 -0.26011044632E+02  0.21130416863E+03  0.21372564386E+03  0.00000000000E+00 0.  1.
          2    1    1    2  501    0 -0.43131686957E+02 -0.14811534544E+01 -0.51505544663E+03  0.51686037702E+03  0.00000000000E+00 0. -1.
<scales pt_clust_3="112.15276" pt_clust_4="14000.00000" pt_clust_5="32.08113" pt_clust_6="43.12946"></scales>
<clustering>
<clus scale="   32.081">  1  5  2 -1</clus>
<clus scale="   43.129">  2  6  1 -1</clus>
<clus scale="  112.153">  2  3  1 -1</clus>
<clus scale="   32.081">  1  3  2 -1</clus>
</clustering>
</event>
<event>
 6    0  0.2572175E+002  0.1206225E+03  0.7546771E-02  0.1242074E+00
          1   -1    0    0  503    0 -0.00000000000E+00  0.00000000000E+00  0.38644150802E+03  0.38644150802E+03  0.00000000000E+00 0. -1.
         21   -1    0    0  504  502  0.00000000000E+00 -0.00000000000E+00 -0.56577471169E+03  0.56577471169E+03  0.00000000000E+00 0.  1.
         21    1    1    2  503  505 -0.35031351915E+02 -0.70188650308E+01 -0.37075402413E+01  0.35919436771E+02  0.00000000000E+00 0.  1.
         21    1    1    2  504  501  0.22885389435E+02  0.11858526072E+03 -0.48493714463E+03  0.49975017694E+03  0.00000000000E+00 0.  1.
         21    1    1    2  505  502  0.49623158379E+02 -0.12883410401E+03  0.39502697589E+02  0.14360065222E+03  0.00000000000E+00 0. -1.
          1    1    1    2  501    0 -0.37477195900E+02  0.17267708313E+02  0.26980878362E+03  0.27294595377E+03  0.00000000000E+00 0. -1.
<scales pt_clust_3="35.72758" pt_clust_4="120.62246" pt_clust_5="14000.00000" pt_clust_6="64.30115"></scales>
<clustering>
<clus scale="   35.728">  1  3  2 -1</clus>
<clus scale="   64.301">  1  6  2 -1</clus>
<clus scale="  120.622">  2  4  1 -1</clus>
<clus scale="  120.622">  2  3  1 -1</clus>
</clustering>
</event>
<event>
 6    0  0.2572175E+002  0.1105278E+03  0.7546771E-02  0.1259596E+00
          1   -1    0    0  504    0 -0.00000000000E+00  0.00000000000E+00  0.23186957086E+04  0.23186957086E+04  0.00000000000E+00 0. -1.
         21   -1    0    0  503  502  0.00000000000E+00 -0.00000000000E+00 -0.68827095784E+02  0.68827095784E+02  0.00000000000E+00 0. -1.
         21    1    1    2  503  501  0.95527078828E+02 -0.73306485035E+02  0.48896697096E+03  0.50357518031E+03  0.00000000000E+00 0. -1.
         21    1    1    2  504  505 -0.40814713519E+02 -0.50241412112E+01  0.10258826975E+02  0.42383090560E+02  0.00000000000E+00 0. -1.
         21    1    1    2  505  502 -0.58183033574E+02  0.27442877499E+02 -0.22151026306E+02  0.68037084650E+02  0.00000000000E+00 0. -1.
          1    1    1    2  501    0  0.34706682642E+01  0.50887748747E+02  0.17727938412E+04  0.17735274488E+04  0.00000000000E+00 0. -1.
<scales pt_clust_3="102.31500" pt_clust_4="33.42789" pt_clust_5="33.42789" pt_clust_6="51.00597"></scales>
<clustering>
<clus scale="   33.428">  4  5 -1 -1</clus>
<clus scale="   51.006">  1  6  2 -1</clus>
<clus scale="  102.315">  1  3  2 -1</clus>
<clus scale="  110.528">  2  3  1 -1</clus>
</clustering>
</event>
<event>
 6    0  0.2572175E+002  0.1063913E+03  0.7546771E-02  0.1267402E+00
         21   -1    0    0  504  502  0.00000000000E+00  0.00000000000E+00  0.26321338330E+03  0.26321338330E+03  0.00000000000E+00 0. -1.
          3   -1    0    0  505    0 -0.00000000000E+00 -0.00000000000E+00 -0.88304842123E+03  0.88304842123E+03  0.00000000000E+00 0. -1.
         21    1    1    2  503  501 -0.13879530509E+02  0.63940702276E+02 -0.12440359064E+03  0.14056069201E+03  0.00000000000E+00 0. -1.
         21    1    1    2  504  503  0.62232483171E+02 -0.13839017602E+03  0.53027578646E+02  0.16073782031E+03  0.00000000000E+00 0. -1.
         21    1    1    2  505  502 -0.66451368480E+02  0.20252939068E+02  0.13886295945E+03  0.15527036878E+03  0.00000000000E+00 0. -1.
          3    1    1    2  501    0  0.18098415818E+02  0.54196534677E+02 -0.68732198539E+03  0.68969292343E+03  0.00000000000E+00 0. -1.
<scales pt_clust_3="14000.00000" pt_clust_4="106.39132" pt_clust_5="69.44720" pt_clust_6="57.13858"></scales>
<clustering>
<clus scale="   57.139">  2  6  1 -1</clus>
<clus scale="   69.447">  1  5  2 -1</clus>
<clus scale="  106.391">  1  4  2 -1</clus>
<clus scale="   69.447">  1  3  2 -1</clus>
</clustering>
</event>
<event>
 6    0  0.2572175E+002  0.1009323E+03  0.7546771E-02  0.1278348E+00
         21   -1    0    0  501  502  0.00000000000E+00  0.00000000000E+00  0.45956366329E+03  0.45956366329E+03  0.00000000000E+00 0. -1.
         -3   -1    0    0    0  501 -0.00000000000E+00 -0.00000000000E+00 -0.93310633289E+02  0.93310633289E+02  0.00000000000E+00 0.  1.
         21    1    1    2  503  504 -0.12137048244E+03  0.10847518166E+02  0.26688867955E+03  0.29339057573E+03  0.00000000000E+00 0. -1.
         21    1    1    2  504  505  0.41353168273E+02  0.15438356617E+01  0.69173465938E+02  0.80606676799E+02  0.00000000000E+00 0. -1.
         21    1    1    2  505  502 -0.66156547088E+01  0.36477908316E+02  0.63881963309E+02  0.73860069852E+02  0.00000000000E+00 0.  1.
         -3    1    1    2    0  503  0.86632968880E+02 -0.48869262143E+02 -0.33691078790E+02  0.10501697420E+03  0.00000000000E+00 0.  1.
<scales pt_clust_3="14000.00000" pt_clust_4="40.98385" pt_clust_5="37.07296" pt_clust_6="100.93232"></scales>
<clustering>
<clus scale="   37.073">  1  5  2 -1</clus>
<clus scale="   40.984">  1  4  2 -1</clus>
<clus scale="  100.932">  2  6  1 -1</clus>
<clus scale="   37.073">  1  3  2 -1</clus>
</clustering>
</event>
<event>
 6    0  0.2572175E+002  0.1283730E+03  0.7546771E-02  0.1229890E+00
         21   -1    0    0  505  502  0.00000000000E+00  0.00000000000E+00  0.15998738729E+04  0.15998738729E+04  0.00000000000E+00 0.  1.
          1   -1    0    0  503    0 -0.00000000000E+00 -0.00000000000E+00 -0.10665184182E+04  0.10665184182E+04  0.00000000000E+00 0. -1.
         21    1    1    2  503  504 -0.93745432432E+02 -0.17232502482E+02 -0.55793006773E+02  0.11044466872E+03  0.00000000000E+00 0. -1.
         21    1    1    2  504  502  0.10508601636E+03 -0.11584464193E+03  0.10439889588E+04  0.10556400893E+04  0.00000000000E+00 0.  1.
         21    1    1    2  505  501  0.18428210000E+02  0.67999884155E+02  0.51904080689E+03  0.52380047956E+03  0.00000000000E+00 0.  1.
          1    1    1    2  501    0 -0.29768793933E+02  0.65077260262E+02 -0.97388130427E+03  0.97650705359E+03  0.00000000000E+00 0. -1.
<scales pt_clust_3="14000.00000" pt_clust_4="128.37298" pt_clust_5="70.45270" pt_clust_6="71.62874"></scales>
<clustering>
<clus scale="   70.453">  1  5  2 -1</clus>
<clus scale="   71.629">  2  6  1 -1</clus>
<clus scale="  128.373">  1  4  2 -1</clus>
<clus scale="   70.453">  1  3  2 -1</clus>
</clustering>
</event>
<event>
 6    0  0.2572175E+002  0.1469731E+03  0.7546771E-02  0.1204243E+00
         -2   -1    0    0    0  501 -0.00000000000E+00  0.00000000000E+00  0.46047000482E+03  0.46047000482E+03  0.00000000000E+00 0.  1.
         21   -1    0    0  505  502  0.00000000000E+00 -0.00000000000E+00 -0.30180932532E+03  0.30180932532E+03  0.00000000000E+00 0. -1.
         21    1    1    2  503  501 -0.21383192759E+02 -0.32741035299E+02  0.31374996725E+02  0.50135882803E+02  0.00000000000E+00 0. -1.
         21    1    1    2  504  502 -0.69088435225E+02  0.75782613265E+02 -0.51843099153E+01  0.10267956673E+03  0.00000000000E+00 0. -1.
         21    1    1    2  505  503 -0.65135680720E+02  0.28576113934E+02 -0.21261783357E+03  0.22419989818E+03  0.00000000000E+00 0. -1.
         -2    1    1    2    0  504  0.15560730870E+03 -0.71617691900E+02  0.34508782627E+03  0.38526398242E+03  0.00000000000E+00 0.  1.
<scales pt_clust_3="39.10520" pt_clust_4="14000.00000" pt_clust_5="71.21909" pt_clust_6="146.97310"></scales>
<clustering>
<clus scale="   39.105">  1  3  2 -1</clus>
<clus scale="   71.219">  2  5  1 -1</clus>
<clus scale="  146.973">  1  6  2 -1</clus>
<clus scale="   71.219">  2  3  1 -1</clus>
</clustering>
</event>
<event>
 6    0  0.2572175E+002  0.1217928E+03  0.7546771E-02  0.1240168E+00
         21   -1    0    0  504  502  0.00000000000E+00  0.00000000000E+00  0.11850326890E+03  0.11850326890E+03  0.00000000000E+00 0.  1.
          3   -1    0    0  505    0 -0.00000000000E+00 -0.00000000000E+00 -0.18509550737E+04  0.18509550737E+04  0.00000000000E+00 0.  1.
         21    1    1    2  503  502  0.29285207296E+02  0.28977759049E+02 -0.26964132247E+02  0.49238179431E+02  0.00000000000E+00 0.  1.
         21    1    1    2  504  501  0.36542973305E+02  0.33845779520E+02  0.87356511874E+02  0.10055886762E+03  0.00000000000E+00 0.  1.
         21    1    1    2  505  503 -0.28072421122E+02  0.54915331952E+02 -0.73807491007E+02  0.96183679695E+02  0.00000000000E+00 0.  1.
          3    1    1    2  501    0 -0.37755759480E+02 -0.11773887052E+03 -0.17190366934E+04  0.17234776158E+04  0.00000000000E+00 0.  1.
<scales pt_clust_3="41.19871" pt_clust_4="14000.00000" pt_clust_5="63.10703" pt_clust_6="121.79284"></scales>
<clustering>
<clus scale="   41.199">  1  3  2 -1</clus>
<clus scale="   63.107">  1  5  2 -1</clus>
<clus scale="  121.793">  2  6  1 -1</clus>
<clus scale="   41.199">  1  3  2 -1</clus>
</clustering>
</event>
<event>
 6    0  0.2572175E+002  0.1244752E+03  0.7546771E-02  0.1235892E+00
         21   -1    0    0  504  502  0.00000000000E+00  0.00000000000E+00  0.16736787299E+02  0.16736787299E+02  0.00000000000E+00 0.  1.
          1   -1    0    0  505    0 -0.00000000000E+00 -0.00000000000E+00 -0.23371616216E+04  0.23371616216E+04  0.00000000000E+00 0. -1.
         21    1    1    2  503  502  0.28058395571E+02 -0.28905316613E+02 -0.37099227555E+02  0.54764437144E+02  0.00000000000E+00 0.  1.
         21    1    1    2  504  501 -0.31921109505E+02  0.71164533482E+02 -0.14908552820E+04  0.14928941087E+04  0.00000000000E+00 0. -1.
         21    1    1    2  505  503  0.32825342161E+02 -0.81754017034E+02 -0.34394185235E+03  0.35504537764E+03  0.00000000000E+00 0. -1.
          1    1    1    2  501    0 -0.28962628227E+02  0.39494800164E+02 -0.44852847242E+03  0.45119448538E+03  0.00000000000E+00 0. -1.
<scales pt_clust_3="40.28388" pt_clust_4="38.15825" pt_clust_5="114.78361" pt_clust_6="38.15825"></scales>
<clustering>
<clus scale="   38.158">  4  6 -1 -1</clus>
<clus scale="   40.284">  1  3  2 -1</clus>
<clus scale="  114.784">  1  5  2 -1</clus>
<clus scale="   40.284">  1  3  2 -1</clus>
</clustering>
</event>
<event>
 6    0  0.2572175E+002  0.9656566E+02  0.7546771E-02  0.1287688E+00
         21   -1    0    0  504  502  0.00000000000E+00  0.00000000000E+00  0.39006253560E+03  0.39006253560E+03  0.00000000000E+00 0. -1.
          2   -1    0    0  503    0 -0.00000000000E+00 -0.00000000000E+00 -0.13791507801E+04  0.13791507801E+04  0.00000000000E+00 0. -1.
         21    1    1    2  503  502  0.37733464730E+02 -0.87188319187E+02 -0.81931050611E+02  0.12545243887E+03  0.00000000000E+00 0. -1.
         21    1    1    2  504  505 -0.55391128162E+02  0.79025897522E+01  0.23799810927E+03  0.24448666225E+03  0.00000000000E+00 0. -1.
         21    1    1    2  505  501 -0.31956710443E+02 -0.23322412295E+02  0.12135760404E+03  0.12764338728E+03  0.00000000000E+00 0. -1.
          2    1    1    2  501    0  0.49614373875E+02  0.10260814173E+03 -0.12665129072E+04  0.12716308273E+04  0.00000000000E+00 0. -1.
<scales pt_clust_3="95.00325" pt_clust_4="32.31450" pt_clust_5="32.31450" pt_clust_6="88.58949"></scales>
<clustering>
<clus scale="   32.314">  4  5 -1 -1</clus>
<clus scale="   95.003">  2  3  1 -1</clus>
<clus scale="   88.589">  2  6  1 -1</clus>
<clus scale="   96.566">  1  3  2 -1</clus>
</clustering>
</event>
<event>
 6    0  0.2572175E+002  0.6792532E+02  0.7546771E-02  0.1367294E+00
          2   -1    0    0  504    0 -0.00000000000E+00  0.00000000000E+00  0.20324012614E+03  0.20324012614E+03  0.00000000000E+00 0. -1.
         21   -1    0    0  505  502  0.00000000000E+00 -0.00000000000E+00 -0.86464899431E+03  0.86464899431E+03  0.00000000000E+00 0.  1.
         21    1    1    2  503  501  0.38077528340E+02 -0.58339464533E+02 -0.17535251845E+03  0.18868464965E+03  0.00000000000E+00 0.  1.
         21    1    1    2  504  502 -0.60568190442E+01  0.98641066737E+02 -0.25958368776E+03  0.27775967320E+03  0.00000000000E+00 0. -1.
         21    1    1    2  505  503  0.49504636607E+01 -0.60192157592E+02 -0.40936483997E+03  0.41379605499E+03  0.00000000000E+00 0.  1.
          2    1    1    2  501    0 -0.36971172957E+02  0.19890555388E+02  0.18289217801E+03  0.18764874260E+03  0.00000000000E+00 0. -1.
<scales pt_clust_3="56.48489" pt_clust_4="14000.00000" pt_clust_5="67.92532" pt_clust_6="41.98216"></scales>
<clustering>
<clus scale="   41.982">  1  6  2 -1</clus>
<clus scale="   56.485">  1  3  2 -1</clus>
<clus scale="   67.925">  2  5  1 -1</clus>
<clus scale="   67.925">  2  3  1 -1</clus>
</clustering>
</event>
<event>
 6    0  0.2572175E+002  0.8658527E+02  0.7546771E-02  0.1311338E+00
         21   -1    0    0  505  502  0.00000000000E+00  0.00000000000E+00  0.15271839921E+04  0.15271839921E+04  0.00000000000E+00 0.  1.
         -1   -1    0    0    0  501 -0.00000000000E+00 -0.00000000000E+00 -0.15337857843E+03  0.15337857843E+03  0.00000000000E+00 0.  1.
         21    1    1    2  503  502  0.38868997214E+02  0.39346959961E+02  0.17417683276E+03  0.18274723328E+03  0.00000000000E+00 0.  1.
         21    1    1    2  504  501  0.77842015858E+01  0.30647341880E+02  0.28746427923E+02  0.42734183940E+02  0.00000000000E+00 0.  1.
         21    1    1    2  505  504 -0.10049834934E+03  0.20491115571E+02  0.12911592122E+04  0.12952265884E+04  0.00000000000E+00 0.  1.
         -1    1    1    2    0  503  0.53845150545E+02 -0.90485417412E+02 -0.12027705912E+03  0.15985456500E+03  0.00000000000E+00 0.  1.
<scales pt_clust_3="56.10841" pt_clust_4="31.62046" pt_clust_5="14000.00000" pt_clust_6="86.58527"></scales>
<clustering>
<clus scale="   31.620">  2  4  1 -1</clus>
<clus scale="   56.108">  1  3  2 -1</clus>
<clus scale="   86.585">  2  6  1 -1</clus>
<clus scale="   56.108">  1  3  2 -1</clus>
</clustering>
</event>
<event>
 6    0  0.2572175E+002  0.8780503E+02  0.7546771E-02  0.1308256E+00
         21   -1    0    0  503  502  0.00000000000E+00  0.00000000000E+00  0.20747095758E+03  0.20747095758E+03  0.00000000000E+00 0. -1.
          2   -1    0    0  505    0 -0.00000000000E+00 -0.00000000000E+00 -0.13577224844E+04  0.13577224844E+04  0.00000000000E+00 0.  1.
         21    1    1    2  503  501  0.38610136443E+02 -0.13531378162E+02 -0.21087495332E+01  0.40966909277E+02  0.00000000000E+00 0. -1.
         21    1    1    2  504  502 -0.10352539563E+03 -0.46074120605E+02  0.16446345180E+03  0.19972120345E+03  0.00000000000E+00 0. -1.
         21    1    1    2  505  504 -0.19761250783E+01  0.52928154326E+02 -0.13554065716E+03  0.14552169713E+03  0.00000000000E+00 0.  1.
          2    1    1    2  501    0  0.66891384269E+02  0.66773444409E+01 -0.11770655719E+04  0.11789836321E+04  0.00000000000E+00 0.  1.
<scales pt_clust_3="40.91260" pt_clust_4="87.80503" pt_clust_5="52.57765" pt_clust_6="14000.00000"></scales>
<clustering>
<clus scale="   40.913">  1  3  2 -1</clus>
<clus scale="   52.578">  2  5  1 -1</clus>
<clus scale="   87.805">  1  4  2 -1</clus>
<clus scale="   40.913">  1  3  2 -1</clus>
</clustering>
</event>
<event>
 6    0  0.2572175E+002  0.1159290E+03  0.7546771E-02  0.1249968E+00
         -4   -1    0    0    0  501 -0.00000000000E+00  0.00000000000E+00  0.10010719049E+04  0.10010719049E+04  0.00000000000E+00 0. -1.
         21   -1    0    0  504  502  0.00000000000E+00 -0.00000000000E+00 -0.96340701894E+02  0.96340701894E+02  0.00000000000E+00 0. -1.
         21    1    1    2  503  501  0.16653519788E+02 -0.44449896773E+02  0.29621767142E+02  0.55951605277E+02  0.00000000000E+00 0. -1.
         21    1    1    2  504  503 -0.89754994610E+01 -0.66715602917E+02  0.91619246717E+01  0.67937266113E+02  0.00000000000E+00 0. -1.
         21    1    1    2  505  502  0.36675256238E+02  0.10588712973E+03  0.57909727367E+01  0.11220826185E+03  0.00000000000E+00 0. -1.
         -4    1    1    2    0  505 -0.44353276564E+02  0.52783699595E+01  0.86015653841E+03  0.86131547351E+03  0.00000000000E+00 0. -1.
<scales pt_clust_3="31.72724" pt_clust_4="31.72724" pt_clust_5="109.59919" pt_clust_6="44.66625"></scales>
<clustering>
<clus scale="   31.727">  3  4 -1 -1</clus>
<clus scale="   44.666">  1  6  2 -1</clus>
<clus scale="  109.599">  2  5  1 -1</clus>
<clus scale="  109.599">  2  3  1 -1</clus>
</clustering>
</event>
<event>
 6    0  0.2572175E+002  0.8029882E+02  0.7546771E-02  0.1328206E+00
         21   -1    0    0  503  502  0.00000000000E+00  0.00000000000E+00  0.16015571429E+04  0.16015571429E+04  0.00000000000E+00 0.  1.
         -2   -1    0    0    0  501 -0.00000000000E+00 -0.00000000000E+00 -0.82299223436E+02  0.82299223436E+02  0.00000000000E+00 0.  1.
         21    1    1    2  503  504 -0.27279971021E+02  0.32391746426E+02  0.43143338929E+03  0.43350685283E+03  0.00000000000E+00 0.  1.
         21    1    1    2  504  501  0.27921877972E+02  0.97338036234E+02  0.25191430104E+03  0.27150532156E+03  0.00000000000E+00 0.  1.
         21    1    1    2  505  502 -0.17198528606E+02 -0.52045401083E+02  0.88419370670E+03  0.88589109045E+03  0.00000000000E+00 0.  1.
         -2    1    1    2    0  505  0.16556621655E+02 -0.77684381578E+02 -0.48283477606E+02  0.92953101462E+02  0.00000000000E+00 0.  1.
<scales pt_clust_3="42.34881" pt_clust_4="14000.00000" pt_clust_5="46.79968" pt_clust_6="80.29882"></scales>
<clustering>
<clus scale="   42.349">  1  3  2 -1</clus>
<clus scale="   46.800">  1  5  2 -1</clus>
<clus scale="   80.299">  2  6  1 -1</clus>
<clus scale="   42.349">  1  3  2 -1</clus>
</clustering>
</event>
<event>
 6    0  0.2572175E+002  0.8093640E+02  0.7546771E-02  0.1326415E+00
          2   -1    0    0  504    0 -0.00000000000E+00  0.00000000000E+00  0.21874558579E+03  0.21874558579E+03  0.00000000000E+00 0. -1.
         21   -1    0    0  505  502  0.00000000000E+00 -0.00000000000E+00 -0.17067277405E+04  0.17067277405E+04  0.00000000000E+00 0.  1.
         21    1    1    2  503  501  0.33598443775E+02  0.96377239328E+02 -0.55278509845E+03  0.56212880441E+03  0.00000000000E+00 0.  1.
         21    1    1    2  504  502  0.32712656038E+02 -0.65576080200E+01 -0.44474025059E+03  0.44598992206E+03  0.00000000000E+00 0.  1.
         21    1    1    2  505  503 -0.75141330245E+02 -0.40941558778E+02 -0.69836892036E+03  0.70359191274E+03  0.00000000000E+00 0.  1.
          2    1    1    2  501    0  0.88302304326E+01 -0.48878072531E+02  0.20791211470E+03  0.21376268707E+03  0.00000000000E+00 0. -1.
<scales pt_clust_3="80.93640" pt_clust_4="33.36345" pt_clust_5="14000.00000" pt_clust_6="49.69780"></scales>
<clustering>
<clus scale="   33.363">  2  4  1 -1</clus>
<clus scale="   49.698">  1  6  2 -1</clus>
<clus scale="   80.936">  1  3  2 -1</clus>
<clus scale="   33.363">  2  3  1 -1</clus>
</clustering>
</event>
<event>
 6    0  0.2572175E+002  0.1543600E+03  0.7546771E-02  0.1195216E+00
         21   -1    0    0  504  502  0.00000000000E+00  0.00000000000E+00  0.37016445001E+02  0.37016445001E+02  0.00000000000E+00 0. -1.
          1   -1    0    0  503    0 -0.00000000000E+00 -0.00000000000E+00 -0.11664520699E+04  0.11664520699E+04  0.00000000000E+00 0. -1.
         21    1    1    2  503  502 -0.10310503648E+02 -0.17189445730E+03 -0.47440362944E+03  0.50469081086E+03  0.00000000000E+00 0. -1.
         21    1    1    2  504  505  0.15278699253E+02  0.52919554504E+02 -0.39495049990E+02  0.67777406806E+02  0.00000000000E+00 0. -1.
         21    1    1    2  505  501  0.21487033932E+02  0.56882018131E+02 -0.17363679529E+03  0.18397552362E+03  0.00000000000E+00 0. -1.
          1    1    1    2  501    0 -0.26455229537E+02  0.62092884670E+02 -0.44190015014E+03  0.44702477358E+03  0.00000000000E+00 0. -1.
<scales pt_clust_3="136.86147" pt_clust_4="55.08101" pt_clust_5="70.97618" pt_clust_6="70.97618"></scales>
<clustering>
<clus scale="   55.081">  1  4  2 -1</clus>
<clus scale="   70.976">  5  6 -1 -1</clus>
<clus scale="  136.861">  1  3  2 -1</clus>
<clus scale="   55.081">  1  3  2 -1</clus>
</clustering>
</event>
<event>
 6    0  0.2572175E+002  0.1143763E+03  0.7546771E-02  0.1252674E+00
          1   -1    0    0  505    0 -0.00000000000E+00  0.00000000000E+00  0.50610243419E+03  0.50610243419E+03  0.00000000000E+00 0.  1.
         21   -1    0    0  503  502  0.00000000000E+00 -0.00000000000E+00 -0.64776428880E+02  0.64776428880E+02  0.00000000000E+00 0.  1.
         21    1    1    2  503  501  0.11067768368E+02  0.28781537031E+02 -0.44415238631E+01  0.31154445987E+02  0.00000000000E+00 0. -1.
         21    1    1    2  504  502 -0.39033197340E+02 -0.16755320298E+02  0.64953175874E+01  0.42971157809E+02  0.00000000000E+00 0.  1.
         21    1    1    2  505  504 -0.69001692912E+02  0.70555534998E+02  0.13792910968E+03  0.16959881026E+03  0.00000000000E+00 0.  1.
          1    1    1    2  501    0  0.96967121885E+02 -0.82581751731E+02  0.30134310190E+03  0.32715444901E+03  0.00000000000E+00 0.  1.
<scales pt_clust_3="30.83622" pt_clust_4="35.18209" pt_clust_5="14000.00000" pt_clust_6="114.37633"></scales>
<clustering>
<clus scale="   30.836">  2  3  1 -1</clus>
<clus scale="   35.182">  2  4  1 -1</clus>
<clus scale="  114.376">  1  6  2 -1</clus>
<clus scale="   30.836">  2  3  1 -1</clus>
</clustering>
</event>
<event>
 6    0  0.2572175E+002  0.8143192E+02  0.7546771E-02  0.1325036E+00
         21   -1    0    0  505  502  0.00000000000E+00  0.00000000000E+00  0.18957744225E+04  0.18957744225E+04  0.00000000000E+00 0.  1.
          4   -1    0    0  504    0 -0.00000000000E+00 -0.00000000000E+00 -0.64644407569E+02  0.64644407569E+02  0.00000000000E+00 0. -1.
         21    1    1    2  503  502 -0.53584535289E+02  0.29857951799E+02  0.12435069931E+04  0.12450190527E+04  0.00000000000E+00 0.  1.
         21    1    1    2  504  503 -0.78661305348E+02 -0.11234170896E+02  0.17874073569E+03  0.19560689699E+03  0.00000000000E+00 0.  1.
         21    1    1    2  505  501  0.36805905007E+00  0.35801340373E+02  0.37026483822E+03  0.37199183037E+03  0.00000000000E+00 0.  1.
          4    1    1    2  501    0  0.13187778159E+03 -0.54425121275E+02  0.38617447938E+02  0.14780105002E+03  0.00000000000E+00 0. -1.
<scales pt_clust_3="14000.00000" pt_clust_4="78.91303" pt_clust_5="35.80323" pt_clust_6="81.43192"></scales>
<clustering>
<clus scale="   35.803">  1  5  2 -1</clus>
<clus scale="   78.913">  2  4  1 -1</clus>
<clus scale="   81.432">  2  6  1 -1</clus>
<clus scale="   35.803">  1  3  2 -1</clus>
</clustering>
</event>
<event>
 6    0  0.2572175E+002  0.2401678E+03  0.7546771E-02  0.1119681E+00
         21   -1    0    0  504  502  0.00000000000E+00  0.00000000000E+00  0.58997413795E+03  0.58997413795E+03  0.00000000000E+00 0.  1.
          2   -1    0    0  503    0 -0.00000000000E+00 -0.00000000000E+00 -0.10336429431E+04  0.10336429431E+04  0.00000000000E+00 0.  1.
         21    1    1    2  503  502 -0.12095024877E+03 -0.18272184913E+03  0.38522612624E+03  0.44318777641E+03  0.00000000000E+00 0.  1.
         21    1    1    2  504  505  0.35422769327E+02  0.14625055874E+03  0.10778099909E+03  0.18509657556E+03  0.00000000000E+00 0.  1.
         21    1    1    2  505  501  0.53555848958E+02  0.39203513254E+02 -0.88576151159E+01  0.66959702468E+02  0.00000000000E+00 0. -1.
          2    1    1    2  501    0  0.31971630487E+02 -0.27322228721E+01 -0.92781831537E+03  0.92837302661E+03  0.00000000000E+00 0.  1.
<scales pt_clust_3="215.04525" pt_clust_4="75.16382" pt_clust_5="75.16382" pt_clust_6="32.08816"></scales>
<clustering>
<clus scale="   32.088">  2  6  1 -1</clus>
<clus scale="   75.164">  4  5 -1 -1</clus>
<clus scale="  215.045">  1  3  2 -1</clus>
<clus scale="  215.045">  1  3  2 -1</clus>
</clustering>
</event>
<event>
 6    0  0.2572175E+002  0.4125003E+03  0.7546771E-02  0.1039535E+00
          1   -1    0    0  505    0 -0.00000000000E+00  0.00000000000E+00  0.20992265556E+04  0.20992265556E+04  0.00000000000E+00 0. -1.
         21   -1    0    0  503  502  0.00000000000E+00 -0.00000000000E+00 -0.60338467138E+03  0.60338467138E+03  0.00000000000E+00 0.  1.
         21    1    1    2  503  501 -0.40911849900E+03 -0.24292498893E+03 -0.39295841531E+03  0.61709546476E+03  0.00000000000E+00 0.  1.
         21    1    1    2  504  502  0.24734026805E+03  0.14374860517E+03  0.13240896863E+03  0.31523484049E+03  0.00000000000E+00 0.  1.
         21    1    1    2  505  504  0.30474449873E+02  0.64712337525E+01  0.74842594165E+02  0.81067767100E+02  0.00000000000E+00 0.  1.
          1    1    1    2  501    0  0.13130378108E+03  0.92705150002E+02  0.16815487368E+04  0.16892131546E+04  0.00000000000E+00 0. -1.
<scales pt_clust_3="14000.00000" pt_clust_4="412.50033" pt_clust_5="31.15396" pt_clust_6="184.88673"></scales>
<clustering>
<clus scale="   31.154">  1  5  2 -1</clus>
<clus scale="  184.887">  1  6  2 -1</clus>
<clus scale="  412.500">  1  4  2 -1</clus>
<clus scale="  412.500">  2  3  1 -1</clus>
</clustering>
</event>
<event>
 6    0  0.2572175E+002  0.8371274E+02  0.7546771E-02  0.1318834E+00
          2   -1    0    0  505    0 -0.00000000000E+00  0.00000000000E+00  0.17738838194E+04  0.17738838194E+04  0.00000000000E+00 0.  1.
         21   -1    0    0  504  502  0.00000000000E+00 -0.00000000000E+00 -0.24844147700E+03  0.24844147700E+03  0.00000000000E+00 0. -1.
         21    1    1    2  503  501 -0.84065072891E+02 -0.85576592694E+02  0.30975330632E+02  0.12389415162E+03  0.00000000000E+00 0. -1.
         21    1    1    2  504  503  0.23061811325E+02  0.31569299058E+02 -0.19366147985E+03  0.19756830860E+03  0.00000000000E+00 0. -1.
         21    1    1    2  505  502 -0.38694237360E+01  0.88998526853E+02  0.36614204226E+03  0.37682317515E+03  0.00000000000E+00 0. -1.
          2    1    1    2  501    0  0.64872685302E+02 -0.34991233216E+02  0.13219864494E+04  0.13240396611E+04  0.00000000000E+00 0.  1.
<scales pt_clust_3="83.71274" pt_clust_4="39.09562" pt_clust_5="14000.00000" pt_clust_6="73.81492"></scales>
<clustering>
<clus scale="   39.096">  2  4  1 -1</clus>
<clus scale="   73.815">  1  6  2 -1</clus>
<clus scale="   83.713">  2  3  1 -1</clus>
<clus scale="   39.096">  2  3  1 -1</clus>
</clustering>
</event>
<event>
 6    0  0.2572175E+002  0.1150703E+03  0.7546771E-02  0.1251458E+00
          2   -1    0    0  504    0 -0.00000000000E+00  0.00000000000E+00  0.17673630712E+04  0.17673630712E+04  0.00000000000E+00 0.  1.
         21   -1    0    0  503  502  0.00000000000E+00 -0.00000000000E+00 -0.97188592297E+02  0.97188592297E+02  0.00000000000E+00 0. -1.
         21    1    1    2  503  505 -0.53251626616E+02 -0.13573744412E+02  0.40590932600E+01  0.55104069838E+02  0.00000000000E+00 0.  1.
         21    1    1    2  504  502  0.29816667617E+01 -0.12330079932E+03  0.35094069373E+03  0.37198299419E+03  0.00000000000E+00 0. -1.
         21    1    1    2  505  501 -0.35017741726E+02  0.51218948741E+02 -0.41995887585E+02  0.74921809373E+02  0.00000000000E+00 0. -1.
          2    1    1    2  501    0  0.85287701580E+02  0.85655594991E+02  0.13571705795E+04  0.13625427901E+04  0.00000000000E+00 0.  1.
<scales pt_clust_3="54.95437" pt_clust_4="115.07027" pt_clust_5="88.13088" pt_clust_6="14000.00000"></scales>
<clustering>
<clus scale="   54.954">  2  3  1 -1</clus>
<clus scale="   88.131">  2  5  1 -1</clus>
<clus scale="  115.070">  2  4  1 -1</clus>
<clus scale="   54.954">  2  3  1 -1</clus>
</clustering>
</event>
<event>
 6    0  0.2572175E+002  0.1048955E+03  0.7546771E-02  0.1270326E+00
          2   -1    0    0  504    0 -0.00000000000E+00  0.00000000000E+00  0.44370635608E+03  0.44370635608E+03  0.00000000000E+00 0. -1.
         21   -1    0    0  505  502  0.00000000000E+00 -0.00000000000E+00 -0.37964002129E+03  0.37964002129E+03  0.00000000000E+00 0.  1.
         21    1    1    2  503  501  0.64840965506E+02  0.11037407531E+03 -0.24313556270E+02  0.13029941031E+03  0.00000000000E+00 0. -1.
         21    1    1    2  504  502 -0.11999283698E+02 -0.83691754274E+02 -0.25509803607E+03  0.26874393118E+03  0.00000000000E+00 0.  1.
         21    1    1    2  505  503  0.22120537449E+02 -0.26432943524E+02 -0.28575718948E+02  0.44772652298E+02  0.00000000000E+00 0.  1.
          2    1    1    2  501    0 -0.74962219257E+02 -0.24937750831E+00  0.37205364608E+03  0.37953038359E+03  0.00000000000E+00 0. -1.
<scales pt_clust_3="14000.00000" pt_clust_4="104.89549" pt_clust_5="34.46765" pt_clust_6="74.72304"></scales>
<clustering>
<clus scale="   34.468">  2  5  1 -1</clus>
<clus scale="   74.723">  1  6  2 -1</clus>
<clus scale="  104.895">  2  4  1 -1</clus>
<clus scale="   34.468">  2  3  1 -1</clus>
</clustering>
</event>
<event>
 6    0  0.2572175E+002  0.1376019E+03  0.7546771E-02  0.1216593E+00
         21   -1    0    0  504  502  0.00000000000E+00  0.00000000000E+00  0.62951440845E+03  0.62951440845E+03  0.00000000000E+00 0.  1.
          4   -1    0    0  503    0 -0.00000000000E+00 -0.00000000000E+00 -0.95275277766E+02  0.95275277766E+02  0.00000000000E+00 0.  1.
         21    1    1    2  503  502 -0.36899554949E+02  0.11988815029E+03  0.18367583538E+03  0.22242202732E+03  0.00000000000E+00 0.  1.
         21    1    1    2  504  505 -0.16207513402E+02 -0.88086136057E+02  0.21421455835E+03  0.23218468482E+03  0.00000000000E+00 0.  1.
         21    1    1    2  505  501  0.14700352627E+02 -0.47470436065E+02  0.19337963149E+03  0.19966277706E+03  0.00000000000E+00 0. -1.
          4    1    1    2  501    0  0.38406715724E+02  0.15668421834E+02 -0.57030894537E+02  0.70520197016E+02  0.00000000000E+00 0.  1.
<scales pt_clust_3="130.20347" pt_clust_4="33.15631" pt_clust_5="33.15631" pt_clust_6="41.47982"></scales>
<clustering>
<clus scale="   33.156">  4  5 -1 -1</clus>
<clus scale="   41.480">  2  6  1 -1</clus>
<clus scale="  130.203">  2  3  1 -1</clus>
<clus scale="  137.602">  1  3  2 -1</clus>
</clustering>
</event>
<event>
 6    0  0.2572175E+002  0.1397637E+03  0.7546771E-02  0.1213647E+00
         21   -1    0    0  504  502  0.00000000000E+00  0.00000000000E+00  0.30066117313E+03  0.30066117313E+03  0.00000000000E+00 0.  1.
         -3   -1    0    0    0  501 -0.00000000000E+00 -0.00000000000E+00 -0.20858584314E+03  0.20858584314E+03  0.00000000000E+00 0.  1.
         21    1    1    2  503  502 -0.20190581702E+02 -0.27810344585E+02 -0.76791851785E+02  0.84131226997E+02  0.00000000000E+00 0. -1.
         21    1    1    2  504  505  0.13530644725E+01  0.35095147082E+02  0.12850320250E+03  0.13321626471E+03  0.00000000000E+00 0.  1.
         21    1    1    2  505  501  0.27064643842E+02  0.94722970199E+02  0.12496001917E+03  0.15912241332E+03  0.00000000000E+00 0.  1.
         -3    1    1    2    0  503 -0.82271266124E+01 -0.10200777270E+03 -0.84596039897E+02  0.13277711124E+03  0.00000000000E+00 0.  1.
<scales pt_clust_3="33.50489" pt_clust_4="35.12122" pt_clust_5="127.24395" pt_clust_6="33.50489"></scales>
<clustering>
<clus scale="   33.505">  3  6 -1 -1</clus>
<clus scale="   35.121">  1  4  2 -1</clus>
<clus scale="  127.244">  1  5  2 -1</clus>
<clus scale="   35.121">  1  3  2 -1</clus>
</clustering>
</event>
<event>
 6    0  0.2572175E+002  0.2747312E+03  0.7546771E-02  0.1098602E+00
          1   -1    0    0  504    0 -0.00000000000E+00  0.00000000000E+00  0.13281289513E+04  0.13281289513E+04  0.00000000000E+00 0.  1.
         21   -1    0    0  503  502  0.00000000000E+00 -0.00000000000E+00 -0.19086600230E+04  0.19086600230E+04  0.00000000000E+00 0.  1.
         21    1    1    2  503  505  0.59726326143E+02  0.11429851333E+03 -0.56146936567E+03  0.57608960481E+03  0.00000000000E+00 0.  1.
         21    1    1    2  504  502 -0.16481083067E+03 -0.22318838059E+03 -0.89451642465E+03  0.93655501553E+03  0.00000000000E+00 0. -1.
         21    1    1    2  505  501  0.44593938561E+02  0.13060299198E+03 -0.41230150639E+03  0.43478534133E+03  0.00000000000E+00 0.  1.
          1    1    1    2  501    0  0.60490565963E+02 -0.21713124715E+02  0.12877562251E+04  0.12893590127E+04  0.00000000000E+00 0.  1.
<scales pt_clust_3="50.95951" pt_clust_4="269.62616" pt_clust_5="50.95951" pt_clust_6="64.26950"></scales>
<clustering>
<clus scale="   50.960">  3  5 -1 -1</clus>
<clus scale="   64.269">  1  6  2 -1</clus>
<clus scale="  269.626">  1  4  2 -1</clus>
<clus scale="  274.731">  2  3  1 -1</clus>
</clustering>
</event>
<event>
 6    0  0.2572175E+002  0.1808243E+03  0.7546771E-02  0.1167008E+00
         21   -1    0    0  505  502  0.00000000000E+00  0.00000000000E+00  0.13472107002E+03  0.13472107002E+03  0.00000000000E+00 0.  1.
         -2   -1    0    0    0  501 -0.00000000000E+00 -0.00000000000E+00 -0.14813494980E+04  0.14813494980E+04  0.00000000000E+00 0.  1.
         21    1    1    2  503  501 -0.61476090697E+02  0.11126611967E+02 -0.11940660208E+03  0.13476293200E+03  0.00000000000E+00 0.  1.
         21    1    1    2  504  503  0.67205167171E+02 -0.89022092268E+02  0.56024717897E+02  0.12482081726E+03  0.00000000000E+00 0.  1.
         21    1    1    2  505  504  0.29142957691E+02 -0.59461688284E+02 -0.78995900175E+00  0.66224077130E+02  0.00000000000E+00 0. -1.
         -2    1    1    2    0  502 -0.34872034164E+02  0.13735716858E+03 -0.12824565848E+04  0.12902627416E+04  0.00000000000E+00 0.  1.
<scales pt_clust_3="62.47488" pt_clust_4="35.45052" pt_clust_5="35.45052" pt_clust_6="174.87292"></scales>
<clustering>
<clus scale="   35.451">  4  5 -1 -1</clus>
<clus scale="   62.475">  2  3  1 -1</clus>
<clus scale="  174.873">  2  6  1 -1</clus>
<clus scale="  180.824">  1  3  2 -1</clus>
</clustering>
</event>
<event>
 6    0  0.2572175E+002  0.1327561E+03  0.7546771E-02  0.1223423E+00
          2   -1    0    0  504    0 -0.00000000000E+00  0.00000000000E+00  0.32098210343E+03  0.32098210343E+03  0.00000000000E+00 0. -1.
         21   -1    0    0  501  502  0.00000000000E+00 -0.00000000000E+00 -0.53132674788E+03  0.53132674788E+03  0.00000000000E+00 0. -1.
         21    1    1    2  503  505 -0.36577548549E+02 -0.72150970305E+02 -0.26412584583E+03  0.27623566390E+03  0.00000000000E+00 0. -1.
         21    1    1    2  504  503  0.99098633405E+02  0.56130860608E+02 -0.64871191632E+02  0.13107053124E+03  0.00000000000E+00 0. -1.
         21    1    1    2  505  502 -0.52059379732E+02 -0.18915988875E+02 -0.15723990646E+03  0.16671047309E+03  0.00000000000E+00 0. -1.
          2    1    1    2  501    0 -0.10461705124E+02  0.34936098572E+02  0.27589229948E+03  0.27829218309E+03  0.00000000000E+00 0. -1.
<scales pt_clust_3="42.30587" pt_clust_4="122.97028" pt_clust_5="42.30587" pt_clust_6="36.46887"></scales>
<clustering>
<clus scale="   36.469">  1  6  2 -1</clus>
<clus scale="   42.306">  3  5 -1 -1</clus>
<clus scale="  122.970">  1  4  2 -1</clus>
<clus scale="  132.756">  2  3  1 -1</clus>
</clustering>
</event>
<event>
 6    0  0.2572175E+002  0.9843577E+02  0.7546771E-02  0.1283620E+00
         -3   -1    0    0    0  501 -0.00000000000E+00  0.00000000000E+00  0.53963834769E+03  0.53963834769E+03  0.00000000000E+00 0.  1.
         21   -1    0    0  504  502  0.00000000000E+00 -0.00000000000E+00 -0.13989259380E+03  0.13989259380E+03  0.00000000000E+00 0. -1.
         21    1    1    2  503  502 -0.20219145190E+02 -0.27520313412E+02 -0.15584775220E+01  0.34184943099E+02  0.00000000000E+00 0.  1.
         21    1    1    2  504  501  0.72504155471E+02  0.11471327836E+03 -0.66357232172E+02  0.15106048806E+03  0.00000000000E+00 0. -1.
         21    1    1    2  505  503 -0.54499796209E+02 -0.52122513142E+02  0.10153545084E+03  0.12647700163E+03  0.00000000000E+00 0.  1.
         -3    1    1    2    0  505  0.22147859273E+01 -0.35070451803E+02  0.36612601274E+03  0.36780850870E+03  0.00000000000E+00 0.  1.
<scales pt_clust_3="34.14940" pt_clust_4="14000.00000" pt_clust_5="98.43577" pt_clust_6="35.32121"></scales>
<clustering>
<clus scale="   34.149">  2  3  1 -1</clus>
<clus scale="   35.321">  1  6  2 -1</clus>
<clus scale="   98.436">  1  5  2 -1</clus>
<clus scale="   34.149">  2  3  1 -1</clus>
</clustering>
</event>
<event>
 6    0  0.2572175E+002  0.7314203E+02  0.7546771E-02  0.1349723E+00
          2   -1    0    0  503    0 -0.00000000000E+00  0.00000000000E+00  0.24870524459E+04  0.24870524459E+04  0.00000000000E+00 0. -1.
         21   -1    0    0  504  502  0.00000000000E+00 -0.00000000000E+00 -0.21172623325E+02  0.21172623325E+02  0.00000000000E+00 0.  1.
         21    1    1    2  503  505 -0.67577920919E+01  0.68859604266E+02  0.13773465819E+03  0.15413678640E+03  0.00000000000E+00 0. -1.
         21    1    1    2  504  501 -0.59357971391E+02 -0.24825724105E+02  0.15672130961E+03  0.16941444516E+03  0.00000000000E+00 0.  1.
         21    1    1    2  505  502 -0.84640369875E+01 -0.41418349421E+02  0.68962337550E+02  0.80888340268E+02  0.00000000000E+00 0.  1.
          2    1    1    2  501    0  0.74579800471E+02 -0.26155307400E+01  0.21024615173E+04  0.21037854974E+04  0.00000000000E+00 0. -1.
<scales pt_clust_3="47.88440" pt_clust_4="73.14203" pt_clust_5="42.27434" pt_clust_6="14000.00000"></scales>
<clustering>
<clus scale="   42.274">  2  5  1 -1</clus>
<clus scale="   47.884">  2  3  1 -1</clus>
<clus scale="   73.142">  2  4  1 -1</clus>
<clus scale="   42.274">  2  3  1 -1</clus>
</clustering>
</event>
<event>
 6    0  0.2572175E+002  0.2792882E+03  0.7546771E-02  0.1096078E+00
         21   -1    0    0  505  502  0.00000000000E+00  0.00000000000E+00  0.20770685101E+04  0.20770685101E+04  0.00000000000E+00 0. -1.
         -2   -1    0    0    0  501 -0.00000000000E+00 -0.00000000000E+00 -0.13180196957E+04  0.13180196957E+04  0.00000000000E+00 0.  1.
         21    1    1    2  503  502  0.83740777553E+02  0.15784538699E+03 -0.39113510762E+03  0.43001669320E+03  0.00000000000E+00 0.  1.
         21    1    1    2  504  501  0.13990697427E+03 -0.74508251106E+02  0.11197364341E+03  0.19407096061E+03  0.00000000000E+00 0.  1.
         21    1    1    2  505  504 -0.25952902257E+03 -0.11246183278E+03  0.18934768931E+04  0.19144862815E+04  0.00000000000E+00 0. -1.
         -2    1    1    2    0  503  0.35881270754E+02  0.29124696902E+02 -0.85526661453E+03  0.85651427046E+03  0.00000000000E+00 0.  1.
<scales pt_clust_3="279.28816" pt_clust_4="160.15179" pt_clust_5="14000.00000" pt_clust_6="46.21378"></scales>
<clustering>
<clus scale="   46.214">  2  6  1 -1</clus>
<clus scale="  160.152">  2  4  1 -1</clus>
<clus scale="  279.288">  2  3  1 -1</clus>
<clus scale="  279.288">  1  3  2 -1</clus>
</clustering>
</event>
<event>
 6    0  0.2572175E+002  0.1345880E+03  0.7546771E-02  0.1220802E+00
         21   -1    0    0  505  502  0.00000000000E+00  0.00000000000E+00  0.51595632413E+03  0.51595632413E+03  0.00000000000E+00 0. -1.
          1   -1    0    0  504    0 -0.00000000000E+00 -0.00000000000E+00 -0.38098700675E+03  0.38098700675E+03  0.00000000000E+00 0. -1.
         21    1    1    2  503  502 -0.17380938850E+02 -0.34061604593E+02  0.48804755169E+02  0.62001565060E+02  0.00000000000E+00 0. -1.
         21    1    1    2  504  503  0.15905361371E+03 -0.67826361289E+01  0.85939087375E+02  0.18091319169E+03  0.00000000000E+00 0.  1.
         21    1    1    2  505  501 -0.29900738919E+02  0.11647547973E+03  0.30112628434E+03  0.32424933413E+03  0.00000000000E+00 0. -1.
          1    1    1    2  501    0 -0.11177193594E+03 -0.75631239005E+02 -0.30090080950E+03  0.32977924000E+03  0.00000000000E+00 0. -1.
<scales pt_clust_3="38.23990" pt_clust_4="14000.00000" pt_clust_5="102.24074" pt_clust_6="134.58800"></scales>
<clustering>
<clus scale="   38.240">  1  3  2 -1</clus>
<clus scale="  102.241">  1  5  2 -1</clus>
<clus scale="  134.588">  2  6  1 -1</clus>
<clus scale="   38.240">  1  3  2 -1</clus>
</clustering>
</event>
<event>
 6    0  0.2572175E+002  0.1109930E+03  0.7546771E-02  0.1258742E+00
          2   -1    0    0  503    0 -0.00000000000E+00  0.00000000000E+00  0.49314089435E+03  0.49314089435E+03  0.00000000000E+00 0.  1.
         21   -1    0    0  505  502  0.00000000000E+00 -0.00000000000E+00 -0.12486710560E+03  0.12486710560E+03  0.00000000000E+00 0.  1.
         21    1    1    2  503  502 -0.70427355883E+02  0.29055457932E+02  0.11624661411E+02  0.77067274801E+02  0.00000000000E+00 0.  1.
         21    1    1    2  504  501  0.64446692110E+02  0.67991856362E+02  0.18601254196E+03  0.20827130005E+03  0.00000000000E+00 0.  1.
         21    1    1    2  505  504 -0.11109614036E+02 -0.12190984664E+03 -0.33020053931E+02  0.12679021332E+03  0.00000000000E+00 0.  1.
          2    1    1    2  501    0  0.17090277809E+02  0.24862532346E+02  0.20365663931E+03  0.20587921179E+03  0.00000000000E+00 0.  1.
<scales pt_clust_3="75.35085" pt_clust_4="110.99301" pt_clust_5="14000.00000" pt_clust_6="30.16990"></scales>
<clustering>
<clus scale="   30.170">  1  6  2 -1</clus>
<clus scale="   75.351">  2  3  1 -1</clus>
<clus scale="  110.993">  1  4  2 -1</clus>
<clus scale="   75.351">  2  3  1 -1</clus>
</clustering>
</event>
<event>
 6    0  0.2572175E+002  0.1770090E+03  0.7546771E-02  0.1170730E+00
          1   -1    0    0  504    0 -0.00000000000E+00  0.00000000000E+00  0.12725430521E+04  0.12725430521E+04  0.00000000000E+00 0.  1.
         21   -1    0    0  503  502  0.00000000000E+00 -0.00000000000E+00 -0.29258907895E+03  0.29258907895E+03  0.00000000000E+00 0. -1.
         21    1    1    2  503  501  0.13465914065E+02 -0.79762061340E+02 -0.10767043417E+03  0.13467085678E+03  0.00000000000E+00 0. -1.
         21    1    1    2  504  505  0.10111979398E+03  0.26258362120E+02 -0.55562479548E+02  0.11832963893E+03  0.00000000000E+00 0. -1.
         21    1    1    2  505  502  0.51746270928E+02  0.79164273519E+01 -0.69630275923E+02  0.87113269380E+02  0.00000000000E+00 0. -1.
          1    1    1    2  501    0 -0.16633197898E+03  0.45587271867E+02  0.12128171628E+04  0.12250183660E+04  0.00000000000E+00 0.  1.
<scales pt_clust_3="80.89077" pt_clust_4="31.63763" pt_clust_5="31.63763" pt_clust_6="171.27340"></scales>
<clustering>
<clus scale="   31.638">  4  5 -1 -1</clus>
<clus scale="   80.891">  2  3  1 -1</clus>
<clus scale="  171.273">  1  6  2 -1</clus>
<clus scale="   80.891">  2  3  1 -1</clus>
</clustering>
</event>
<event>
 6    0  0.2572175E+002  0.1473541E+03  0.7546771E-02  0.1203762E+00
         21   -1    0    0  504  502  0.00000000000E+00  0.00000000000E+00  0.90931129056E+02  0.90931129056E+02  0.00000000000E+00 0.  1.
          1   -1    0    0  505    0 -0.00000000000E+00 -0.00000000000E+00 -0.69657538770E+03  0.69657538770E+03  0.00000000000E+00 0.  1.
         21    1    1    2  503  502 -0.70849589402E+02 -0.97939737131E+02 -0.68095971699E+02  0.13874046918E+03  0.00000000000E+00 0.  1.
         21    1    1    2  504  501  0.75647127844E+02  0.90488267700E+02 -0.38870394226E+02  0.12418342116E+03  0.00000000000E+00 0.  1.
         21    1    1    2  505  503 -0.51696960412E+02 -0.33959892668E+02 -0.79333114074E+02  0.10059618787E+03  0.00000000000E+00 0.  1.
          1    1    1    2  501    0  0.46899421970E+02  0.41411362099E+02 -0.41934477865E+03  0.42398643854E+03  0.00000000000E+00 0.  1.
<scales pt_clust_3="40.02985" pt_clust_4="136.31471" pt_clust_5="40.02985" pt_clust_6="62.56562"></scales>
<clustering>
<clus scale="   40.030">  3  5 -1 -1</clus>
<clus scale="   62.566">  2  6  1 -1</clus>
<clus scale="  136.315">  1  4  2 -1</clus>
<clus scale="  136.315">  1  3  2 -1</clus>
</clustering>
</event>
<event>
 6    0  0.2572175E+002  0.1089283E+03  0.7546771E-02  0.1262567E+00
         21   -1    0    0  504  502  0.00000000000E+00  0.00000000000E+00  0.23446436157E+03  0.23446436157E+03  0.00000000000E+00 0.  1.
          2   -1    0    0  503    0 -0.00000000000E+00 -0.00000000000E+00 -0.52035984515E+04  0.52035984515E+04  0.00000000000E+00 0. -1.
         21    1    1    2  503  505  0.15023588347E+02 -0.11257270087E+03 -0.25265449807E+03  0.27700652805E+03  0.00000000000E+00 0.  1.
         21    1    1    2  504  501  0.34363421078E+02  0.56869557243E+02  0.98115548623E+01  0.67165898029E+02  0.00000000000E+00 0. -1.
         21    1    1    2  505  502 -0.11741188172E+03  0.20821980330E+02  0.16412890322E+03  0.20287287080E+03  0.00000000000E+00 0.  1.
          2    1    1    2  501    0  0.68024872294E+02  0.34881163298E+02 -0.48904200500E+04  0.48910175162E+04  0.00000000000E+00 0. -1.
<scales pt_clust_3="14000.00000" pt_clust_4="66.44540" pt_clust_5="108.92831" pt_clust_6="76.53276"></scales>
<clustering>
<clus scale="   66.445">  1  4  2 -1</clus>
<clus scale="   76.533">  2  6  1 -1</clus>
<clus scale="  108.928">  1  5  2 -1</clus>
<clus scale="   66.445">  1  3  2 -1</clus>
</clustering>
</event>
<event>
 6    0  0.2572175E+002  0.7868581E+02  0.7546771E-02  0.1332823E+00
          1   -1    0    0  504    0 -0.00000000000E+00  0.00000000000E+00  0.91017109072E+03  0.91017109072E+03  0.00000000000E+00 0. -1.
         21   -1    0    0  505  502  0.00000000000E+00 -0.00000000000E+00 -0.69304077844E+02  0.69304077844E+02  0.00000000000E+00 0. -1.
         21    1    1    2  503  501  0.98824288624E+02 -0.98545805906E+02  0.50662873548E+02  0.14847303674E+03  0.00000000000E+00 0. -1.
         21    1    1    2  504  502  0.49957212082E+01  0.30057629263E+02  0.36111406692E+02  0.47248830680E+02  0.00000000000E+00 0. -1.
         21    1    1    2  505  503 -0.40591017265E+02  0.25817309371E+02  0.32305757014E+02  0.57946752126E+02  0.00000000000E+00 0. -1.
          1    1    1    2  501    0 -0.63228992567E+02  0.42670867272E+02  0.72178697562E+03  0.72580654902E+03  0.00000000000E+00 0. -1.
<scales pt_clust_3="14000.00000" pt_clust_4="30.46996" pt_clust_5="50.81674" pt_clust_6="78.68581"></scales>
<clustering>
<clus scale="   30.470">  2  4  1 -1</clus>
<clus scale="   50.817">  2  5  1 -1</clus>
<clus scale="   78.686">  1  6  2 -1</clus>
<clus scale="   30.470">  2  3  1 -1</clus>
</clustering>
</event>
<event>
 6    0  0.2572175E+002  0.9169940E+02  0.7546771E-02  0.1298788E+00
         21   -1    0    0  504  502  0.00000000000E+00  0.00000000000E+00  0.10703788060E+03  0.10703788060E+03  0.00000000000E+00 0.  1.
          2   -1    0    0  503    0 -0.00000000000E+00 -0.00000000000E+00 -0.16338989225E+04  0.16338989225E+04  0.00000000000E+00 0.  1.
         21    1    1    2  503  505 -0.88263846238E+02  0.50633678236E+02 -0.21460146254E+03  0.23750381818E+03  0.00000000000E+00 0. -1.
         21    1    1    2  504  501  0.93188526531E+01 -0.94062320490E+02  0.55735115573E+02  0.10973132761E+03  0.00000000000E+00 0.  1.
         21    1    1    2  505  502  0.32426703832E+02  0.99547808734E+01 -0.11235635346E+02  0.35732734086E+02  0.00000000000E+00 0. -1.
          2    1    1    2  501    0  0.46518289753E+02  0.33473861381E+02 -0.13567590596E+04  0.13579689233E+04  0.00000000000E+00 0.  1.
<scales pt_clust_3="91.69940" pt_clust_4="14000.00000" pt_clust_5="33.92033" pt_clust_6="57.51525"></scales>
<clustering>
<clus scale="   33.920">  1  5  2 -1</clus>
<clus scale="   57.515">  2  6  1 -1</clus>
<clus scale="   91.699">  2  3  1 -1</clus>
<clus scale="   33.920">  1  3  2 -1</clus>
</clustering>
</event>
<event>
 6    0  0.2572175E+002  0.6495403E+02  0.7546771E-02  0.1378144E+00
          1   -1    0    0  504    0 -0.00000000000E+00  0.00000000000E+00  0.18368565239E+04  0.18368565239E+04  0.00000000000E+00 0.  1.
         21   -1    0    0  505  502  0.00000000000E+00 -0.00000000000E+00 -0.28525823135E+02  0.28525823135E+02  0.00000000000E+00 0.  1.
         21    1    1    2  503  501  0.87426624708E+02  0.37336827930E+02  0.63247420430E+03  0.63957882434E+03  0.00000000000E+00 0.  1.
         21    1    1    2  504  502  0.32840142668E+02 -0.18010838832E+02  0.13060668221E+02  0.39666690564E+02  0.00000000000E+00 0.  1.
         21    1    1    2  505  503 -0.79917170190E+02 -0.63198534628E+01  0.13177257595E+03  0.15424236257E+03  0.00000000000E+00 0.  1.
          1    1    1    2  501    0 -0.40349597186E+02 -0.13006135635E+02  0.10310232523E+04  0.10318944696E+04  0.00000000000E+00 0.  1.
<scales pt_clust_3="64.95403" pt_clust_4="37.45484" pt_clust_5="14000.00000" pt_clust_6="41.66496"></scales>
<clustering>
<clus scale="   37.455">  2  4  1 -1</clus>
<clus scale="   41.665">  1  6  2 -1</clus>
<clus scale="   64.954">  1  3  2 -1</clus>
<clus scale="   37.455">  2  3  1 -1</clus>
</clustering>
</event>
<event>
 6    0  0.2572175E+002  0.7672361E+02  0.7546771E-02  0.1338615E+00
         21   -1    0    0  504  502  0.00000000000E+00  0.00000000000E+00  0.11864865042E+03  0.11864865042E+03  0.00000000000E+00 0. -1.
          2   -1    0    0  503    0 -0.00000000000E+00 -0.00000000000E+00 -0.97947938459E+03  0.97947938459E+03  0.00000000000E+00 0. -1.
         21    1    1    2  503  505 -0.24582639944E+02  0.20141147054E+02 -0.10560049196E+03  0.11027890049E+03  0.00000000000E+00 0. -1.
         21    1    1    2  504  501  0.96575078954E+02 -0.60439001326E+02 -0.47330041715E+02  0.12336835739E+03  0.00000000000E+00 0. -1.
         21    1    1    2  505  502 -0.72650037295E+02 -0.92504371260E+01  0.60188166848E+02  0.94795643015E+02  0.00000000000E+00 0. -1.
          2    1    1    2  501    0  0.65759828516E+00  0.49548291398E+02 -0.76808836734E+03  0.76968513411E+03  0.00000000000E+00 0. -1.
<scales pt_clust_3="31.78006" pt_clust_4="14000.00000" pt_clust_5="76.72361" pt_clust_6="70.52548"></scales>
<clustering>
<clus scale="   31.780">  2  3  1 -1</clus>
<clus scale="   70.525">  2  6  1 -1</clus>
<clus scale="   76.724">  1  5  2 -1</clus>
<clus scale="   76.724">  1  3  2 -1</clus>
</clustering>
</event>
<event>
 6    0  0.2572175E+002  0.2207259E+03  0.7546771E-02  0.1133343E+00
          2   -1    0    0  504    0 -0.00000000000E+00  0.00000000000E+00  0.18350904627E+04  0.18350904627E+04  0.00000000000E+00 0. -1.
         21   -1    0    0  503  502  0.00000000000E+00 -0.00000000000E+00 -0.28396930531E+03  0.28396930531E+03  0.00000000000E+00 0. -1.
         21    1    1    2  503  501 -0.20221396580E+03  0.89850612004E+02 -0.21606871915E+03  0.30927222933E+03  0.00000000000E+00 0. -1.
         21    1    1    2  504  505 -0.38397360259E+02  0.19712002484E+02  0.74897925813E+02  0.86444315070E+02  0.00000000000E+00 0. -1.
         21    1    1    2  505  502  0.22129715365E+03 -0.14635731977E+02  0.99940301494E+03  0.10237153028E+04  0.00000000000E+00 0. -1.
          2    1    1    2  501    0  0.19314172403E+02 -0.94926882511E+02  0.69288893583E+03  0.69962792088E+03  0.00000000000E+00 0. -1.
<scales pt_clust_3="14000.00000" pt_clust_4="43.16156" pt_clust_5="220.72593" pt_clust_6="87.19929"></scales>
<clustering>
<clus scale="   43.162">  1  4  2 -1</clus>
<clus scale="   87.199">  1  6  2 -1</clus>
<clus scale="  220.726">  1  5  2 -1</clus>
<clus scale="  220.726">  2  3  1 -1</clus>
</clustering>
</event>
<event>
 6    0  0.2572175E+002  0.9987876E+02  0.7546771E-02  0.1280551E+00
          2   -1    0    0  504    0 -0.00000000000E+00  0.00000000000E+00  0.79932104672E+03  0.79932104672E+03  0.00000000000E+00 0.  1.
         21   -1    0    0  505  502  0.00000000000E+00 -0.00000000000E+00 -0.71796109041E+02  0.71796109041E+02  0.00000000000E+00 0. -1.
         21    1    1    2  503  502 -0.48544562216E+02 -0.75269136721E+02  0.37680763701E+01  0.89644943321E+02  0.00000000000E+00 0. -1.
         21    1    1    2  504  503 -0.99017820825E+01  0.36353667812E+02  0.60683025474E+02  0.71428733941E+02  0.00000000000E+00 0.  1.
         21    1    1    2  505  501  0.52500308146E+02 -0.34879929123E+02  0.25190563005E+02  0.67878245967E+02  0.00000000000E+00 0. -1.
          2    1    1    2  501    0  0.59460361522E+01  0.73795398032E+02  0.63788327283E+03  0.64216523253E+03  0.00000000000E+00 0.  1.
<scales pt_clust_3="99.87876" pt_clust_4="37.67804" pt_clust_5="61.25102" pt_clust_6="14000.00000"></scales>
<clustering>
<clus scale="   37.678">  1  4  2 -1</clus>
<clus scale="   61.251">  2  5  1 -1</clus>
<clus scale="   99.879">  2  3  1 -1</clus>
<clus scale="   61.251">  2  3  1 -1</clus>
</clustering>
</event>
<event>
 6    0  0.2572175E+002  0.7094210E+02  0.7546771E-02  0.1356918E+00
         21   -1    0    0  504  502  0.00000000000E+00  0.00000000000E+00  0.18803948994E+03  0.18803948994E+03  0.00000000000E+00 0. -1.
          2   -1    0    0  503    0 -0.00000000000E+00 -0.00000000000E+00 -0.40473518324E+03  0.40473518324E+03  0.00000000000E+00 0.  1.
         21    1    1    2  503  505  0.63882595491E+02  0.31895347351E+00 -0.18566951602E+03  0.19635237946E+03  0.00000000000E+00 0. -1.
         21    1    1    2  504  501  0.54101001006E+02  0.72859105913E+02  0.51290725363E+01  0.90893756713E+02  0.00000000000E+00 0. -1.
         21    1    1    2  505  502 -0.32594161076E+02 -0.45128575626E+02  0.11608177946E+03  0.12873984308E+03  0.00000000000E+00 0. -1.
          2    1    1    2  501    0 -0.85389435421E+02 -0.28049483761E+02 -0.15223702927E+03  0.17678869393E+03  0.00000000000E+00 0.  1.
<scales pt_clust_3="14000.00000" pt_clust_4="50.03053" pt_clust_5="55.66837" pt_clust_6="70.94210"></scales>
<clustering>
<clus scale="   55.668">  1  5  2 -1</clus>
<clus scale="   50.031">  1  4  2 -1</clus>
<clus scale="   70.942">  1  6  2 -1</clus>
<clus scale="   55.668">  1  3  2 -1</clus>
</clustering>
</event>
<event>
 6    0  0.2572175E+002  0.1504375E+03  0.7546771E-02  0.1199936E+00
         21   -1    0    0  505  502  0.00000000000E+00  0.00000000000E+00  0.42394330131E+03  0.42394330131E+03  0.00000000000E+00 0.  1.
          3   -1    0    0  503    0 -0.00000000000E+00 -0.00000000000E+00 -0.17981192980E+04  0.17981192980E+04  0.00000000000E+00 0. -1.
         21    1    1    2  503  502  0.10543127963E+03 -0.10545688472E+03  0.31875858121E+03  0.35191468050E+03  0.00000000000E+00 0.  1.
         21    1    1    2  504  501 -0.33818842326E+02  0.22252559751E+02 -0.51840336037E+01  0.40813780959E+02  0.00000000000E+00 0.  1.
         21    1    1    2  505  504 -0.39755274905E+02  0.78021589823E+02  0.43504838702E+02  0.97777918528E+02  0.00000000000E+00 0.  1.
          3    1    1    2  501    0 -0.31857162395E+02  0.51827351503E+01 -0.17312553830E+04  0.17315562194E+04  0.00000000000E+00 0. -1.
<scales pt_clust_3="142.68964" pt_clust_4="34.69733" pt_clust_5="34.69733" pt_clust_6="32.27599"></scales>
<clustering>
<clus scale="   32.276">  2  6  1 -1</clus>
<clus scale="   34.697">  4  5 -1 -1</clus>
<clus scale="  142.690">  1  3  2 -1</clus>
<clus scale="  142.690">  1  3  2 -1</clus>
</clustering>
</event>
<event>
 6    0  0.2572175E+002  0.1447968E+03  0.7546771E-02  0.1207016E+00
         21   -1    0    0  501  502  0.00000000000E+00  0.00000000000E+00  0.45918563663E+02  0.45918563663E+02  0.00000000000E+00 0.  1.
          2   -1    0    0  503    0 -0.00000000000E+00 -0.00000000000E+00 -0.78267716073E+03  0.78267716073E+03  0.00000000000E+00 0. -1.
         21    1    1    2  503  505  0.96723834110E+02 -0.11006662017E+03 -0.40253745889E+03  0.42837666460E+03  0.00000000000E+00 0. -1.
         21    1    1    2  504  502 -0.39079243291E+02  0.47249831194E+01 -0.55362452551E+02  0.67930213265E+02  0.00000000000E+00 0.  1.
         21    1    1    2  505  504 -0.54548186515E+02  0.13682985634E+03 -0.24558214675E+03  0.28637127132E+03  0.00000000000E+00 0.  1.
          2    1    1    2  501    0 -0.30964043041E+01 -0.31488219285E+02 -0.33276538872E+02  0.45917575205E+02  0.00000000000E+00 0. -1.
<scales pt_clust_3="144.79684" pt_clust_4="39.57155" pt_clust_5="14000.00000" pt_clust_6="31.64010"></scales>
<clustering>
<clus scale="   31.640">  1  6  2 -1</clus>
<clus scale="   39.572">  1  4  2 -1</clus>
<clus scale="  144.797">  2  3  1 -1</clus>
<clus scale="   31.640">  1  3  2 -1</clus>
</clustering>
</event>
<event>
 6    0  0.2572175E+002  0.9507881E+02  0.7546771E-02  0.1290999E+00
          1   -1    0    0  503    0 -0.00000000000E+00  0.00000000000E+00  0.65487118085E+03  0.65487118085E+03  0.00000000000E+00 0.  1.
         21   -1    0    0  504  502  0.00000000000E+00 -0.00000000000E+00 -0.12032611526E+03  0.12032611526E+03  0.00000000000E+00 0.  1.
         21    1    1    2  503  502  0.18415277938E+02  0.26789739977E+02  0.84014677055E+00  0.32519509162E+02  0.00000000000E+00 0.  1.
         21    1    1    2  504  505 -0.45745211198E+01 -0.12712463939E+03 -0.54766421322E+02  0.13849534681E+03  0.00000000000E+00 0.  1.
         21    1    1    2  505  501 -0.31468683369E+02  0.58044311213E+02  0.15746015914E+03  0.17074285290E+03  0.00000000000E+00 0.  1.
          1    1    1    2  501    0  0.17627926551E+02  0.42290588199E+02  0.43101118100E+03  0.43343958724E+03  0.00000000000E+00 0.  1.
<scales pt_clust_3="32.50865" pt_clust_4="14000.00000" pt_clust_5="95.07881" pt_clust_6="46.18719"></scales>
<clustering>
<clus scale="   32.509">  2  3  1 -1</clus>
<clus scale="   46.187">  1  6  2 -1</clus>
<clus scale="   95.079">  1  5  2 -1</clus>
<clus scale="   32.509">  2  3  1 -1</clus>
</clustering>
</event>
<event>
 6    0  0.2572175E+002  0.1330580E+03  0.7546771E-02  0.1222987E+00
          2   -1    0    0  503    0 -0.00000000000E+00  0.00000000000E+00  0.10285462044E+04  0.10285462044E+04  0.00000000000E+00 0. -1.
         21   -1    0    0  504  502  0.00000000000E+00 -0.00000000000E+00 -0.83261452818E+02  0.83261452818E+02  0.00000000000E+00 0. -1.
         21    1    1    2  503  505  0.10866315475E+03  0.11958313035E+03  0.54764317006E+03  0.57098235347E+03  0.00000000000E+00 0. -1.
         21    1    1    2  504  501  0.60487923176E+01 -0.40940912337E+02 -0.27629785508E+02  0.49760940895E+02  0.00000000000E+00 0. -1.
         21    1    1    2  505  502 -0.36356858979E+02  0.54290086661E+01 -0.12214014780E+02  0.38735997302E+02  0.00000000000E+00 0. -1.
          2    1    1    2  501    0 -0.78355088087E+02 -0.84071226675E+02  0.43748538184E+03  0.45232836558E+03  0.00000000000E+00 0. -1.
<scales pt_clust_3="133.05803" pt_clust_4="41.55083" pt_clust_5="36.75997" pt_clust_6="14000.00000"></scales>
<clustering>
<clus scale="   36.760">  2  5  1 -1</clus>
<clus scale="   41.551">  2  4  1 -1</clus>
<clus scale="  133.058">  2  3  1 -1</clus>
<clus scale="   36.760">  2  3  1 -1</clus>
</clustering>
</event>
<event>
 6    0  0.2572175E+002  0.1350052E+03  0.7546771E-02  0.1220212E+00
         21   -1    0    0  505  502  0.00000000000E+00  0.00000000000E+00  0.80313204359E+02  0.80313204359E+02  0.00000000000E+00 0.  1.
          2   -1    0    0  504    0 -0.00000000000E+00 -0.00000000000E+00 -0.18330434335E+04  0.18330434335E+04  0.00000000000E+00 0.  1.
         21    1    1    2  503  501 -0.48228375293E+02 -0.19101798129E+02 -0.47318606355E+02  0.70213284944E+02  0.00000000000E+00 0.  1.
         21    1    1    2  504  502  0.11177224453E+03  0.11133368773E+03 -0.77277312703E+02  0.17567016744E+03  0.00000000000E+00 0.  1.
         21    1    1    2  505  503 -0.26656198757E+02 -0.51499879386E+02 -0.24590352315E+02  0.62987903092E+02  0.00000000000E+00 0.  1.
          2    1    1    2  501    0 -0.36887670476E+02 -0.40732010216E+02 -0.16035439578E+04  0.16044852824E+04  0.00000000000E+00 0.  1.
<scales pt_clust_3="42.07850" pt_clust_4="127.46390" pt_clust_5="42.07850" pt_clust_6="54.95268"></scales>
<clustering>
<clus scale="   42.078">  3  5 -1 -1</clus>
<clus scale="   54.953">  2  6  1 -1</clus>
<clus scale="  127.464">  2  4  1 -1</clus>
<clus scale="  135.005">  1  3  2 -1</clus>
</clustering>
</event>
<event>
 6    0  0.2572175E+002  0.9813884E+02  0.7546771E-02  0.1284259E+00
         21   -1    0    0  504  502  0.00000000000E+00  0.00000000000E+00  0.23633237909E+03  0.23633237909E+03  0.00000000000E+00 0.  1.
         -2   -1    0    0    0  501 -0.00000000000E+00 -0.00000000000E+00 -0.46008481476E+03  0.46008481476E+03  0.00000000000E+00 0. -1.
         21    1    1    2  503  502  0.12044797296E+02  0.55871271102E+02  0.15512707064E+03  0.16532115449E+03  0.00000000000E+00 0.  1.
         21    1    1    2  504  501 -0.33547280365E+02  0.87722800882E+01  0.39170938363E+02  0.52313815863E+02  0.00000000000E+00 0.  1.
         21    1    1    2  505  503 -0.82266588264E+02 -0.48141556524E+02 -0.78924738818E+02  0.12375182991E+03  0.00000000000E+00 0. -1.
         -2    1    1    2    0  505  0.10376907133E+03 -0.16501994666E+02 -0.33912570586E+03  0.35503039358E+03  0.00000000000E+00 0. -1.
<scales pt_clust_3="65.27718" pt_clust_4="34.67525" pt_clust_5="98.13884" pt_clust_6="14000.00000"></scales>
<clustering>
<clus scale="   34.675">  1  4  2 -1</clus>
<clus scale="   65.277">  1  3  2 -1</clus>
<clus scale="   98.139">  1  5  2 -1</clus>
<clus scale="   34.675">  1  3  2 -1</clus>
</clustering>
</event>
<event>
 6    0  0.2572175E+002  0.1181811E+03  0.7546771E-02  0.1246128E+00
          2   -1    0    0  505    0 -0.00000000000E+00  0.00000000000E+00  0.44092250007E+03  0.44092250007E+03  0.00000000000E+00 0. -1.
         21   -1    0    0  504  502  0.00000000000E+00 -0.00000000000E+00 -0.17356131623E+03  0.17356131623E+03  0.00000000000E+00 0.  1.
         21    1    1    2  503  502  0.32026237931E+02  0.29799506716E+02 -0.93796927036E+02  0.10349663781E+03  0.00000000000E+00 0.  1.
         21    1    1    2  504  501 -0.63981477350E+02  0.62148550880E+02  0.23361030438E+02  0.92205257787E+02  0.00000000000E+00 0. -1.
         21    1    1    2  505  503  0.17303138164E+02  0.42292264318E+02 -0.90432053000E+01  0.46581259897E+02  0.00000000000E+00 0.  1.
          2    1    1    2  501    0  0.14652101256E+02 -0.13424032191E+03  0.34684028573E+03  0.37220066081E+03  0.00000000000E+00 0. -1.
<scales pt_clust_3="43.74575" pt_clust_4="118.18108" pt_clust_5="60.81965" pt_clust_6="14000.00000"></scales>
<clustering>
<clus scale="   43.746">  2  3  1 -1</clus>
<clus scale="   60.820">  2  5  1 -1</clus>
<clus scale="  118.181">  2  4  1 -1</clus>
<clus scale="   43.746">  2  3  1 -1</clus>
</clustering>
</event>
<event>
 6    0  0.2572175E+002  0.8570159E+02  0.7546771E-02  0.1313608E+00
          1   -1    0    0  503    0 -0.00000000000E+00  0.00000000000E+00  0.16989833679E+04  0.16989833679E+04  0.00000000000E+00 0.  1.
         21   -1    0    0  504  502  0.00000000000E+00 -0.00000000000E+00 -0.28183462269E+03  0.28183462269E+03  0.00000000000E+00 0. -1.
         21    1    1    2  503  505  0.29047465064E+02 -0.25356311166E+02 -0.11760946476E+03  0.12376867109E+03  0.00000000000E+00 0. -1.
         21    1    1    2  504  501 -0.43201807845E+02  0.90546953637E+02  0.18229698861E+03  0.20808012656E+03  0.00000000000E+00 0. -1.
         21    1    1    2  505  502  0.47047547009E+02  0.70286321083E+01 -0.14335905682E+03  0.15104533267E+03  0.00000000000E+00 0. -1.
          1    1    1    2  501    0 -0.32893204229E+02 -0.72219274579E+02  0.14958202782E+04  0.14979238603E+04  0.00000000000E+00 0.  1.
<scales pt_clust_3="32.35865" pt_clust_4="77.80070" pt_clust_5="32.35865" pt_clust_6="79.35733"></scales>
<clustering>
<clus scale="   32.359">  3  5 -1 -1</clus>
<clus scale="   79.357">  1  6  2 -1</clus>
<clus scale="   77.801">  1  4  2 -1</clus>
<clus scale="   85.702">  2  3  1 -1</clus>
</clustering>
</event>
<event>
 6    0  0.2572175E+002  0.1739727E+03  0.7546771E-02  0.1173767E+00
         21   -1    0    0  505  502  0.00000000000E+00  0.00000000000E+00  0.42256890837E+02  0.42256890837E+02  0.00000000000E+00 0. -1.
          2   -1    0    0  503    0 -0.00000000000E+00 -0.00000000000E+00 -0.20728547899E+04  0.20728547899E+04  0.00000000000E+00 0. -1.
         21    1    1    2  503  502  0.32497752892E+02  0.67527698518E+02 -0.10914102583E+04  0.10939800940E+04  0.00000000000E+00 0. -1.
         21    1    1    2  504  501  0.62727624558E+02 -0.80025483086E+02 -0.78958141037E+02  0.12873702211E+03  0.00000000000E+00 0. -1.
         21    1    1    2  505  504  0.27491785726E+02 -0.65801179459E+02 -0.13477258195E+03  0.15247702236E+03  0.00000000000E+00 0. -1.
          2    1    1    2  501    0 -0.12271716318E+03  0.78298964027E+02 -0.72545691779E+03  0.73991754235E+03  0.00000000000E+00 0. -1.
<scales pt_clust_3="74.94060" pt_clust_4="52.93663" pt_clust_5="52.93663" pt_clust_6="162.08312"></scales>
<clustering>
<clus scale="   52.937">  4  5 -1 -1</clus>
<clus scale="   74.941">  2  3  1 -1</clus>
<clus scale="  162.083">  2  6  1 -1</clus>
<clus scale="  173.973">  1  3  2 -1</clus>
</clustering>
</event>
<event>
 6    0  0.2572175E+002  0.9691964E+02  0.7546771E-02  0.1286910E+00
         21   -1    0    0  503  502  0.00000000000E+00  0.00000000000E+00  0.26609326281E+03  0.26609326281E+03  0.00000000000E+00 0. -1.
         -2   -1    0    0    0  501 -0.00000000000E+00 -0.00000000000E+00 -0.43619084624E+03  0.43619084624E+03  0.00000000000E+00 0.  1.
         21    1    1    2  503  504 -0.57421464327E+01 -0.36366451076E+02  0.28287161710E+02  0.46429026774E+02  0.00000000000E+00 0. -1.
         21    1    1    2  504  501  0.11804562597E+03  0.49456481937E+02 -0.13873113866E+03  0.18875127086E+03  0.00000000000E+00 0.  1.
         21    1    1    2  505  502 -0.43408436916E+02 -0.51782033395E+02  0.19189132651E+03  0.20344029239E+03  0.00000000000E+00 0. -1.
         -2    1    1    2    0  505 -0.68895042618E+02  0.38692002534E+02 -0.25154493298E+03  0.26366351903E+03  0.00000000000E+00 0.  1.
<scales pt_clust_3="36.81699" pt_clust_4="14000.00000" pt_clust_5="96.91964" pt_clust_6="78.68265"></scales>
<clustering>
<clus scale="   36.817">  1  3  2 -1</clus>
<clus scale="   78.683">  2  6  1 -1</clus>
<clus scale="   96.920">  1  5  2 -1</clus>
<clus scale="   36.817">  1  3  2 -1</clus>
</clustering>
</event>
<event>
 6    0  0.2572175E+002  0.8644832E+02  0.7546771E-02  0.1311688E+00
          1   -1    0    0  503    0 -0.00000000000E+00  0.00000000000E+00  0.22951732482E+04  0.22951732482E+04  0.00000000000E+00 0.  1.
         21   -1    0    0  504  502  0.00000000000E+00 -0.00000000000E+00 -0.11985373045E+03  0.11985373045E+03  0.00000000000E+00 0.  1.
         21    1    1    2  503  505  0.50946033001E+02  0.60805456742E+02  0.20287032066E+03  0.21782830131E+03  0.00000000000E+00 0. -1.
         21    1    1    2  504  501 -0.78751417557E+02 -0.24169880771E+02  0.43109720507E+02  0.92975356444E+02  0.00000000000E+00 0.  1.
         21    1    1    2  505  502  0.67213885705E+02  0.59555890414E+02 -0.62666669340E+02  0.10950672108E+03  0.00000000000E+00 0.  1.
          1    1    1    2  501    0 -0.39408501149E+02 -0.96191466386E+02  0.19920061459E+04  0.19947165998E+04  0.00000000000E+00 0.  1.
<scales pt_clust_3="79.32718" pt_clust_4="86.44832" pt_clust_5="14000.00000" pt_clust_6="39.17412"></scales>
<clustering>
<clus scale="   79.327">  1  3  2 -1</clus>
<clus scale="   39.174">  1  6  2 -1</clus>
<clus scale="   86.448">  1  4  2 -1</clus>
<clus scale="   86.448">  2  3  1 -1</clus>
</clustering>
</event>
<event>
 6    0  0.2572175E+002  0.1336270E+03  0.7546771E-02  0.1222171E+00
          2   -1    0    0  504    0 -0.00000000000E+00  0.00000000000E+00  0.42545807518E+03  0.42545807518E+03  0.00000000000E+00 0.  1.
         21   -1    0    0  503  502  0.00000000000E+00 -0.00000000000E+00 -0.85374559430E+02  0.85374559430E+02  0.00000000000E+00 0.  1.
         21    1    1    2  503  505 -0.28939568311E+02  0.33260806397E+02 -0.25712744359E+02  0.51038466657E+02  0.00000000000E+00 0.  1.
         21    1    1    2  504  502  0.63560350402E+02 -0.14066693301E+03  0.16537609869E+03  0.22622192246E+03  0.00000000000E+00 0.  1.
         21    1    1    2  505  501 -0.24661754495E+02  0.40684171749E+02  0.51654423044E+02  0.70225233254E+02  0.00000000000E+00 0.  1.
          2    1    1    2  501    0 -0.99590275963E+01  0.66721954864E+02  0.14876573837E+03  0.16334701223E+03  0.00000000000E+00 0.  1.
<scales pt_clust_3="44.08832" pt_clust_4="127.29138" pt_clust_5="34.14369" pt_clust_6="34.14369"></scales>
<clustering>
<clus scale="   34.144">  5  6 -1 -1</clus>
<clus scale="   44.088">  2  3  1 -1</clus>
<clus scale="  127.291">  2  4  1 -1</clus>
<clus scale="   44.088">  2  3  1 -1</clus>
</clustering>
</event>
<event>
 6    0  0.2572175E+002  0.1123109E+03  0.7546771E-02  0.1256349E+00
         21   -1    0    0  504  502  0.00000000000E+00  0.00000000000E+00  0.22059253267E+03  0.22059253267E+03  0.00000000000E+00 0.  1.
         -3   -1    0    0    0  501 -0.00000000000E+00 -0.00000000000E+00 -0.43493779980E+03  0.43493779980E+03  0.00000000000E+00 0. -1.
         21    1    1    2  503  505  0.87350345841E+01 -0.54562323859E+02  0.72148694939E+02  0.90877842159E+02  0.00000000000E+00 0.  1.
         21    1    1    2  504  501 -0.57939549087E+02 -0.26961004346E+02  0.46042773670E+02  0.78764358126E+02  0.00000000000E+00 0.  1.
         21    1    1    2  505  502  0.33624929013E+02 -0.25076973549E+02  0.63142095438E+02  0.75805109787E+02  0.00000000000E+00 0.  1.
         -3    1    1    2    0  503  0.15579585490E+02  0.10660030175E+03 -0.39567883118E+03  0.41008302240E+03  0.00000000000E+00 0. -1.
<scales pt_clust_3="31.92730" pt_clust_4="63.90530" pt_clust_5="31.92730" pt_clust_6="106.16457"></scales>
<clustering>
<clus scale="   31.927">  3  5 -1 -1</clus>
<clus scale="   63.905">  1  4  2 -1</clus>
<clus scale="  106.165">  2  6  1 -1</clus>
<clus scale="   63.905">  1  3  2 -1</clus>
</clustering>
</event>
<event>
 6    0  0.2572175E+002  0.1281684E+03  0.7546771E-02  0.1230199E+00
         21   -1    0    0  505  502  0.00000000000E+00  0.00000000000E+00  0.79969096929E+02  0.79969096929E+02  0.00000000000E+00 0.  1.
          2   -1    0    0  504    0 -0.00000000000E+00 -0.00000000000E+00 -0.21758574411E+04  0.21758574411E+04  0.00000000000E+00 0. -1.
         21    1    1    2  503  502  0.29694358532E+01  0.32036208551E+02 -0.29692747332E+02  0.43781222593E+02  0.00000000000E+00 0.  1.
         21    1    1    2  504  503  0.85514789171E+02 -0.35505535232E+02 -0.15887090512E+04  0.15914049992E+04  0.00000000000E+00 0. -1.
         21    1    1    2  505  501 -0.13297337090E+03 -0.19192534790E+02  0.60936964375E+01  0.13448941927E+03  0.00000000000E+00 0.  1.
          2    1    1    2  501    0  0.44489145874E+02  0.22661861471E+02 -0.48358024204E+03  0.48615089690E+03  0.00000000000E+00 0. -1.
<scales pt_clust_3="32.17353" pt_clust_4="128.16836" pt_clust_5="14000.00000" pt_clust_6="50.23360"></scales>
<clustering>
<clus scale="   32.174">  1  3  2 -1</clus>
<clus scale="   50.234">  2  6  1 -1</clus>
<clus scale="  128.168">  2  4  1 -1</clus>
<clus scale="   32.174">  1  3  2 -1</clus>
</clustering>
</event>
<event>
 6    0  0.2572175E+002  0.1391621E+03  0.7546771E-02  0.1214461E+00
          4   -1    0    0  503    0 -0.00000000000E+00  0.00000000000E+00  0.17643886771E+03  0.17643886771E+03  0.00000000000E+00 0. -1.
         21   -1    0    0  505  502  0.00000000000E+00 -0.00000000000E+00 -0.27056347471E+03  0.27056347471E+03  0.00000000000E+00 0.  1.
         21    1    1    2  503  504 -0.44376509652E+02  0.30760027195E+02  0.23334160857E+02  0.58821228692E+02  0.00000000000E+00 0.  1.
         21    1    1    2  504  502 -0.63543694553E+02 -0.35874156094E+01 -0.86180768169E+01  0.64225710710E+02  0.00000000000E+00 0.  1.
         21    1    1    2  505  501  0.12325173169E+03 -0.57573458125E+02 -0.19130369841E+03  0.23473985062E+03  0.00000000000E+00 0.  1.
          4    1    1    2  501    0 -0.15331527485E+02  0.30400846540E+02  0.82463007368E+02  0.89215552397E+02  0.00000000000E+00 0. -1.
<scales pt_clust_3="50.19220" pt_clust_4="50.19220" pt_clust_5="129.71978" pt_clust_6="34.04801"></scales>
<clustering>
<clus scale="   34.048">  1  6  2 -1</clus>
<clus scale="   50.192">  3  4 -1 -1</clus>
<clus scale="  129.720">  2  5  1 -1</clus>
<clus scale="  129.720">  2  3  1 -1</clus>
</clustering>
</event>
<event>
 6    0  0.2572175E+002  0.1564775E+03  0.7546771E-02  0.1192732E+00
         21   -1    0    0  504  502  0.00000000000E+00  0.00000000000E+00  0.81835495815E+02  0.81835495815E+02  0.00000000000E+00 0. -1.
          1   -1    0    0  505    0 -0.00000000000E+00 -0.00000000000E+00 -0.17000000096E+04  0.17000000096E+04  0.00000000000E+00 0.  1.
         21    1    1    2  503  501  0.11727931176E+03 -0.80261528785E+02 -0.23970501663E+03  0.27866618914E+03  0.00000000000E+00 0. -1.
         21    1    1    2  504  503  0.34118224297E+01  0.68278392902E+02 -0.24426664008E+02  0.72596428178E+02  0.00000000000E+00 0. -1.
         21    1    1    2  505  502 -0.13842171533E+03  0.82989034989E+02 -0.13802431420E+03  0.21236398591E+03  0.00000000000E+00 0. -1.
          1    1    1    2  501    0  0.17730581143E+02 -0.71005899106E+02 -0.12160085189E+04  0.12182089021E+04  0.00000000000E+00 0.  1.
<scales pt_clust_3="156.47747" pt_clust_4="68.36358" pt_clust_5="14000.00000" pt_clust_6="71.94088"></scales>
<clustering>
<clus scale="   68.364">  1  4  2 -1</clus>
<clus scale="   71.941">  2  6  1 -1</clus>
<clus scale="  156.477">  2  3  1 -1</clus>
<clus scale="   68.364">  1  3  2 -1</clus>
</clustering>
</event>
<event>
 6    0  0.2572175E+002  0.1513382E+03  0.7546771E-02  0.1198838E+00
         21   -1    0    0  505  502  0.00000000000E+00  0.00000000000E+00  0.25318588445E+03  0.25318588445E+03  0.00000000000E+00 0.  1.
          1   -1    0    0  502    0 -0.00000000000E+00 -0.00000000000E+00 -0.13228456697E+04  0.13228456697E+04  0.00000000000E+00 0.  1.
         21    1    1    2  503  504 -0.19680845300E+02 -0.10009921954E+03 -0.99184064725E+02  0.14228375916E+03  0.00000000000E+00 0. -1.
         21    1    1    2  504  501 -0.18889441090E+01 -0.10328355410E+03 -0.63323522165E+02  0.12116488401E+03  0.00000000000E+00 0. -1.
         21    1    1    2  505  503 -0.20181566084E+02  0.13996139079E+03  0.17656350453E+03  0.22621042782E+03  0.00000000000E+00 0.  1.
          1    1    1    2  501    0  0.41751355493E+02  0.63421382855E+02 -0.10837157029E+04  0.10863724832E+04  0.00000000000E+00 0.  1.
<scales pt_clust_3="33.94331" pt_clust_4="33.94331" pt_clust_5="147.43335" pt_clust_6="75.93054"></scales>
<clustering>
<clus scale="   33.943">  3  4 -1 -1</clus>
<clus scale="   75.931">  2  6  1 -1</clus>
<clus scale="  147.433">  1  5  2 -1</clus>
<clus scale="  147.433">  1  3  2 -1</clus>
</clustering>
</event>
<event>
 6    0  0.2572175E+002  0.1144653E+03  0.7546771E-02  0.1252517E+00
         21   -1    0    0  505  502  0.00000000000E+00  0.00000000000E+00  0.11085576118E+04  0.11085576118E+04  0.00000000000E+00 0. -1.
          1   -1    0    0  504    0 -0.00000000000E+00 -0.00000000000E+00 -0.10236184748E+04  0.10236184748E+04  0.00000000000E+00 0.  1.
         21    1    1    2  503  502 -0.35914610822E+02  0.18916612053E+02  0.73912850362E+02  0.84325600684E+02  0.00000000000E+00 0. -1.
         21    1    1    2  504  503 -0.17702158263E+02  0.66188683136E+02 -0.29197598967E+02  0.74476895530E+02  0.00000000000E+00 0.  1.
         21    1    1    2  505  501 -0.27499875440E+02 -0.11481475539E+03  0.10013938233E+04  0.10083294405E+04  0.00000000000E+00 0. -1.
          1    1    1    2  501    0  0.81116644525E+02  0.29709460202E+02 -0.96116993769E+03  0.96504414985E+03  0.00000000000E+00 0.  1.
<scales pt_clust_3="40.59184" pt_clust_4="69.12409" pt_clust_5="14000.00000" pt_clust_6="114.46532"></scales>
<clustering>
<clus scale="   40.592">  1  3  2 -1</clus>
<clus scale="   69.124">  2  4  1 -1</clus>
<clus scale="  114.465">  2  6  1 -1</clus>
<clus scale="   40.592">  1  3  2 -1</clus>
</clustering>
</event>
<event>
 6    0  0.2572175E+002  0.1117087E+03  0.7546771E-02  0.1257438E+00
          1   -1    0    0  505    0 -0.00000000000E+00  0.00000000000E+00  0.55235994191E+03  0.55235994191E+03  0.00000000000E+00 0. -1.
         21   -1    0    0  504  502  0.00000000000E+00 -0.00000000000E+00 -0.18310403454E+03  0.18310403454E+03  0.00000000000E+00 0. -1.
         21    1    1    2  503  501 -0.19313741094E+02  0.11160693540E+03  0.13355676404E+03  0.17511863934E+03  0.00000000000E+00 0. -1.
         21    1    1    2  504  503  0.25429708064E+02 -0.10224803853E+03 -0.54664171832E+02  0.11869921279E+03  0.00000000000E+00 0. -1.
         21    1    1    2  505  502 -0.47638761266E+02  0.94409739465E+02 -0.23627954835E+02  0.10835557545E+03  0.00000000000E+00 0. -1.
          1    1    1    2  501    0  0.41522794295E+02 -0.10376863633E+03  0.31399126999E+03  0.33329054887E+03  0.00000000000E+00 0. -1.
<scales pt_clust_3="111.70872" pt_clust_4="105.36286" pt_clust_5="38.87154" pt_clust_6="14000.00000"></scales>
<clustering>
<clus scale="  105.363">  2  4  1 -1</clus>
<clus scale="   38.872">  2  5  1 -1</clus>
<clus scale="  111.709">  2  3  1 -1</clus>
<clus scale="  105.363">  2  3  1 -1</clus>
</clustering>
</event>
<event>
 6    0  0.2572175E+002  0.8228342E+02  0.7546771E-02  0.1322694E+00
          2   -1    0    0  503    0 -0.00000000000E+00  0.00000000000E+00  0.68829589896E+03  0.68829589896E+03  0.00000000000E+00 0.  1.
         21   -1    0    0  504  502  0.00000000000E+00 -0.00000000000E+00 -0.70913089221E+02  0.70913089221E+02  0.00000000000E+00 0.  1.
         21    1    1    2  503  505  0.11844999590E+02 -0.47751682081E+02  0.27038485360E+03  0.27482448255E+03  0.00000000000E+00 0.  1.
         21    1    1    2  504  501  0.92050306520E+02  0.16072377869E+02 -0.10851415121E+02  0.94070895982E+02  0.00000000000E+00 0.  1.
         21    1    1    2  505  502 -0.63432554043E+02  0.27002501059E+02  0.65350175954E+02  0.94991944254E+02  0.00000000000E+00 0.  1.
          2    1    1    2  501    0 -0.40462752067E+02  0.46768031526E+01  0.29249919531E+03  0.29532166539E+03  0.00000000000E+00 0.  1.
<scales pt_clust_3="47.34878" pt_clust_4="14000.00000" pt_clust_5="82.28342" pt_clust_6="40.73213"></scales>
<clustering>
<clus scale="   40.732">  1  6  2 -1</clus>
<clus scale="   47.349">  1  3  2 -1</clus>
<clus scale="   82.283">  1  5  2 -1</clus>
<clus scale="   82.283">  2  3  1 -1</clus>
</clustering>
</event>
<event>
 6    0  0.2572175E+002  0.1504055E+03  0.7546771E-02  0.1199976E+00
          2   -1    0    0  505    0 -0.00000000000E+00  0.00000000000E+00  0.25948555943E+03  0.25948555943E+03  0.00000000000E+00 0.  1.
         21   -1    0    0  503  502  0.00000000000E+00 -0.00000000000E+00 -0.36804206034E+03  0.36804206034E+03  0.00000000000E+00 0.  1.
         21    1    1    2  503  504  0.57532189844E+02 -0.28912693299E+02 -0.21050748656E+03  0.22013472829E+03  0.00000000000E+00 0.  1.
         21    1    1    2  504  501  0.27193273275E+02 -0.58547422363E+02 -0.98155983424E+02  0.11748136813E+03  0.00000000000E+00 0.  1.
         21    1    1    2  505  502  0.34300128580E+02  0.17378262584E+02 -0.88237458152E+01  0.39450745509E+02  0.00000000000E+00 0.  1.
          2    1    1    2  501    0 -0.11902559170E+03  0.70081853079E+02  0.20893071489E+03  0.25046077784E+03  0.00000000000E+00 0.  1.
<scales pt_clust_3="55.92685" pt_clust_4="55.92685" pt_clust_5="38.45130" pt_clust_6="136.88684"></scales>
<clustering>
<clus scale="   38.451">  2  5  1 -1</clus>
<clus scale="   55.927">  3  4 -1 -1</clus>
<clus scale="  136.887">  1  6  2 -1</clus>
<clus scale="   38.451">  2  3  1 -1</clus>
</clustering>
</event>
<event>
 6    0  0.2572175E+002  0.1154529E+03  0.7546771E-02  0.1250793E+00
         21   -1    0    0  503  502  0.00000000000E+00  0.00000000000E+00  0.12509246770E+03  0.12509246770E+03  0.00000000000E+00 0. -1.
          2   -1    0    0  505    0 -0.00000000000E+00 -0.00000000000E+00 -0.11754852790E+04  0.11754852790E+04  0.00000000000E+00 0.  1.
         21    1    1    2  503  504 -0.61458766147E+02 -0.98940231525E+01 -0.19979630898E+02  0.65377804194E+02  0.00000000000E+00 0.  1.
         21    1    1    2  504  501  0.46353893249E+02 -0.54468507531E+02 -0.27095107586E+03  0.28023202394E+03  0.00000000000E+00 0.  1.
         21    1    1    2  505  502 -0.44019475299E+02  0.91055334548E+02  0.69983296203E+02  0.12298963331E+03  0.00000000000E+00 0. -1.
          2    1    1    2  501    0  0.59124348196E+02 -0.26692803865E+02 -0.82944540078E+03  0.83197828529E+03  0.00000000000E+00 0.  1.
<scales pt_clust_3="62.25007" pt_clust_4="115.45287" pt_clust_5="14000.00000" pt_clust_6="64.22954"></scales>
<clustering>
<clus scale="   62.250">  1  3  2 -1</clus>
<clus scale="   64.230">  2  6  1 -1</clus>
<clus scale="  115.453">  2  4  1 -1</clus>
<clus scale="   62.250">  1  3  2 -1</clus>
</clustering>
</event>
<event>
 6    0  0.2572175E+002  0.8678709E+02  0.7546771E-02  0.1310824E+00
         21   -1    0    0  503  502  0.00000000000E+00  0.00000000000E+00  0.50554703805E+02  0.50554703805E+02  0.00000000000E+00 0.  1.
          2   -1    0    0  505    0 -0.00000000000E+00 -0.00000000000E+00 -0.18218532833E+04  0.18218532833E+04  0.00000000000E+00 0.  1.
         21    1    1    2  503  501 -0.43528843987E+02 -0.23956335572E+02 -0.23388505400E+02  0.54915284372E+02  0.00000000000E+00 0.  1.
         21    1    1    2  504  502 -0.13861036043E+02  0.47026932194E+02  0.48253599254E+01  0.49264031201E+02  0.00000000000E+00 0.  1.
         21    1    1    2  505  504  0.82202010109E+02 -0.98204314472E+02 -0.64024501974E+03  0.65292797699E+03  0.00000000000E+00 0.  1.
          2    1    1    2  501    0 -0.24812130079E+02  0.75133717850E+02 -0.11124904143E+04  0.11153006945E+04  0.00000000000E+00 0.  1.
<scales pt_clust_3="53.36302" pt_clust_4="49.02714" pt_clust_5="14000.00000" pt_clust_6="86.78709"></scales>
<clustering>
<clus scale="   49.027">  1  4  2 -1</clus>
<clus scale="   53.363">  1  3  2 -1</clus>
<clus scale="   86.787">  2  6  1 -1</clus>
<clus scale="   49.027">  1  3  2 -1</clus>
</clustering>
</event>
<event>
 6    0  0.2572175E+002  0.9212389E+02  0.7546771E-02  0.1297788E+00
          2   -1    0    0  504    0 -0.00000000000E+00  0.00000000000E+00  0.85072718890E+03  0.85072718890E+03  0.00000000000E+00 0.  1.
         21   -1    0    0  503  502  0.00000000000E+00 -0.00000000000E+00 -0.92238127693E+02  0.92238127693E+02  0.00000000000E+00 0. -1.
         21    1    1    2  503  501  0.90463481149E+02  0.71851970023E+02  0.27029672633E+00  0.11552670721E+03  0.00000000000E+00 0. -1.
         21    1    1    2  504  505 -0.69529378718E+01 -0.33671847950E+02  0.48138682059E+02  0.59156313270E+02  0.00000000000E+00 0.  1.
         21    1    1    2  505  502 -0.47826725342E+02 -0.56034821759E+02  0.19039548293E+02  0.76090743889E+02  0.00000000000E+00 0. -1.
          2    1    1    2  501    0 -0.35683817936E+02  0.17854699686E+02  0.69104053413E+03  0.69219155223E+03  0.00000000000E+00 0.  1.
<scales pt_clust_3="92.12389" pt_clust_4="34.38221" pt_clust_5="14000.00000" pt_clust_6="43.23638"></scales>
<clustering>
<clus scale="   34.382">  1  4  2 -1</clus>
<clus scale="   43.236">  1  6  2 -1</clus>
<clus scale="   92.124">  1  3  2 -1</clus>
<clus scale="   92.124">  2  3  1 -1</clus>
</clustering>
</event>
<event>
 6    0  0.2572175E+002  0.5931791E+02  0.7546771E-02  0.1400717E+00
          1   -1    0    0  504    0 -0.00000000000E+00  0.00000000000E+00  0.41740216038E+03  0.41740216038E+03  0.00000000000E+00 0. -1.
         21   -1    0    0  501  502  0.00000000000E+00 -0.00000000000E+00 -0.66534814229E+02  0.66534814229E+02  0.00000000000E+00 0.  1.
         21    1    1    2  503  502  0.45894273760E+02 -0.37943371788E+02  0.30739474046E+02  0.67014170824E+02  0.00000000000E+00 0. -1.
         21    1    1    2  504  505  0.46593167001E+02 -0.31607273461E+02  0.24381826167E+03  0.25023446540E+03  0.00000000000E+00 0. -1.
         21    1    1    2  505  503 -0.94709346866E+02  0.20977327451E+02  0.35797631153E+02  0.10339912498E+03  0.00000000000E+00 0.  1.
          1    1    1    2  501    0  0.22219061058E+01  0.48573317799E+02  0.40511979280E+02  0.63289213409E+02  0.00000000000E+00 0. -1.
<scales pt_clust_3="51.54105" pt_clust_4="59.31791" pt_clust_5="14000.00000" pt_clust_6="48.62411"></scales>
<clustering>
<clus scale="   48.624">  2  6  1 -1</clus>
<clus scale="   51.541">  2  3  1 -1</clus>
<clus scale="   59.318">  1  4  2 -1</clus>
<clus scale="   48.624">  2  3  1 -1</clus>
</clustering>
</event>
<event>
 6    0  0.2572175E+002  0.2646131E+03  0.7546771E-02  0.1104403E+00
         21   -1    0    0  503  502  0.00000000000E+00  0.00000000000E+00  0.61731513290E+02  0.61731513290E+02  0.00000000000E+00 0. -1.
          1   -1    0    0  504    0 -0.00000000000E+00 -0.00000000000E+00 -0.32057995074E+04  0.32057995074E+04  0.00000000000E+00 0.  1.
         21    1    1    2  503  505 -0.36766035490E+02 -0.40727192413E+02 -0.53085659486E+03  0.53368452279E+03  0.00000000000E+00 0. -1.
         21    1    1    2  504  502  0.18209200637E+03  0.19558091346E+03 -0.29216153403E+03  0.39593907923E+03  0.00000000000E+00 0. -1.
         21    1    1    2  505  501 -0.10129007888E+03 -0.12797768263E+03 -0.82613981825E+03  0.84210745551E+03  0.00000000000E+00 0. -1.
          1    1    1    2  501    0 -0.44035892004E+02 -0.26876038419E+02 -0.14949100469E+04  0.14957999631E+04  0.00000000000E+00 0.  1.
<scales pt_clust_3="35.94550" pt_clust_4="257.24817" pt_clust_5="35.94550" pt_clust_6="51.58955"></scales>
<clustering>
<clus scale="   35.946">  3  5 -1 -1</clus>
<clus scale="   51.590">  2  6  1 -1</clus>
<clus scale="  257.248">  1  4  2 -1</clus>
<clus scale="  257.248">  1  3  2 -1</clus>
</clustering>
</event>
<event>
 6    0  0.2572175E+002  0.2615026E+03  0.7546771E-02  0.1106244E+00
          1   -1    0    0  503    0 -0.00000000000E+00  0.00000000000E+00  0.34977654109E+03  0.34977654109E+03  0.00000000000E+00 0. -1.
         21   -1    0    0  504  502  0.00000000000E+00 -0.00000000000E+00 -0.17577217368E+04  0.17577217368E+04  0.00000000000E+00 0.  1.
         21    1    1    2  503  505  0.54199286647E+02 -0.13605695751E+03 -0.86724736013E+03  0.87952660108E+03  0.00000000000E+00 0.  1.
         21    1    1    2  504  501 -0.16161261077E+03  0.17656982720E+03 -0.22764639925E+03  0.33033077805E+03  0.00000000000E+00 0.  1.
         21    1    1    2  505  502  0.85093192411E+02 -0.82326778212E+02 -0.59757741121E+03  0.60919398569E+03  0.00000000000E+00 0.  1.
          1    1    1    2  501    0  0.22320131711E+02  0.41813908514E+02  0.28452597493E+03  0.28844691302E+03  0.00000000000E+00 0. -1.
<scales pt_clust_3="53.35139" pt_clust_4="254.75494" pt_clust_5="53.35139" pt_clust_6="47.39822"></scales>
<clustering>
<clus scale="   47.398">  1  6  2 -1</clus>
<clus scale="   53.351">  3  5 -1 -1</clus>
<clus scale="  254.755">  1  4  2 -1</clus>
<clus scale="  261.503">  2  3  1 -1</clus>
</clustering>
</event>
<event>
 6    0  0.2572175E+002  0.1439523E+03  0.7546771E-02  0.1208108E+00
          1   -1    0    0  504    0 -0.00000000000E+00  0.00000000000E+00  0.78472485390E+03  0.78472485390E+03  0.00000000000E+00 0.  1.
         21   -1    0    0  501  502  0.00000000000E+00 -0.00000000000E+00 -0.17992056126E+04  0.17992056126E+04  0.00000000000E+00 0.  1.
         21    1    1    2  503  502  0.54002737467E+02 -0.22458003819E+02 -0.73493964921E+03  0.73726314540E+03  0.00000000000E+00 0.  1.
         21    1    1    2  504  505 -0.12304915550E+03  0.10739132387E+03 -0.19165645000E+03  0.25180584970E+03  0.00000000000E+00 0.  1.
         21    1    1    2  505  503  0.34483435438E+02 -0.74383697071E+02 -0.83894025580E+03  0.84293700507E+03  0.00000000000E+00 0.  1.
          1    1    1    2  501    0  0.34562982599E+02 -0.10549622978E+02  0.75105559631E+03  0.75192446633E+03  0.00000000000E+00 0.  1.
<scales pt_clust_3="44.17965" pt_clust_4="134.14848" pt_clust_5="44.17965" pt_clust_6="36.13716"></scales>
<clustering>
<clus scale="   36.137">  1  6  2 -1</clus>
<clus scale="   44.180">  3  5 -1 -1</clus>
<clus scale="  134.148">  1  4  2 -1</clus>
<clus scale="  143.952">  2  3  1 -1</clus>
</clustering>
</event>
<event>
 6    0  0.2572175E+002  0.1626084E+03  0.7546771E-02  0.1185783E+00
         21   -1    0    0  501  502  0.00000000000E+00  0.00000000000E+00  0.35762533806E+03  0.35762533806E+03  0.00000000000E+00 0. -1.
          2   -1    0    0  503    0 -0.00000000000E+00 -0.00000000000E+00 -0.78473057824E+03  0.78473057824E+03  0.00000000000E+00 0.  1.
         21    1    1    2  503  504  0.10037164421E+03 -0.44608415603E+02  0.42757858491E+02  0.11786692567E+03  0.00000000000E+00 0. -1.
         21    1    1    2  504  505  0.52184169035E+02 -0.30419497016E+02  0.20423943753E+03  0.21298422744E+03  0.00000000000E+00 0. -1.
         21    1    1    2  505  502 -0.25887200374E+02 -0.37813474537E+02  0.49984066001E+02  0.67811598224E+02  0.00000000000E+00 0.  1.
          2    1    1    2  501    0 -0.12666861287E+03  0.11284138716E+03 -0.72408660219E+03  0.74369316497E+03  0.00000000000E+00 0.  1.
<scales pt_clust_3="14000.00000" pt_clust_4="66.27538" pt_clust_5="45.82582" pt_clust_6="162.60836"></scales>
<clustering>
<clus scale="   45.826">  1  5  2 -1</clus>
<clus scale="   66.275">  1  4  2 -1</clus>
<clus scale="  162.608">  2  6  1 -1</clus>
<clus scale="   45.826">  1  3  2 -1</clus>
</clustering>
</event>
<event>
 6    0  0.2572175E+002  0.9118554E+02  0.7546771E-02  0.1300006E+00
         21   -1    0    0  504  502  0.00000000000E+00  0.00000000000E+00  0.24753011541E+03  0.24753011541E+03  0.00000000000E+00 0. -1.
          1   -1    0    0  503    0 -0.00000000000E+00 -0.00000000000E+00 -0.17931557928E+03  0.17931557928E+03  0.00000000000E+00 0. -1.
         21    1    1    2  503  505 -0.66283177543E+02 -0.20426115766E+02  0.13981719377E+03  0.15607540967E+03  0.00000000000E+00 0. -1.
         21    1    1    2  504  501  0.87411179122E+02  0.56149583094E+02  0.14193091033E+02  0.10485672964E+03  0.00000000000E+00 0. -1.
         21    1    1    2  505  502 -0.38213138334E+02  0.17047963310E+02  0.20061583545E+02  0.46404139133E+02  0.00000000000E+00 0. -1.
          1    1    1    2  501    0  0.17085136754E+02 -0.52771430637E+02 -0.10585733221E+03  0.11950941625E+03  0.00000000000E+00 0. -1.
<scales pt_clust_3="91.18554" pt_clust_4="14000.00000" pt_clust_5="41.84348" pt_clust_6="54.58568"></scales>
<clustering>
<clus scale="   41.843">  1  5  2 -1</clus>
<clus scale="   54.586">  2  6  1 -1</clus>
<clus scale="   91.186">  1  3  2 -1</clus>
<clus scale="   41.843">  1  3  2 -1</clus>
</clustering>
</event>
<event>
 6    0  0.2572175E+002  0.7243888E+02  0.7546771E-02  0.1351991E+00
          2   -1    0    0  504    0 -0.00000000000E+00  0.00000000000E+00  0.10536270614E+04  0.10536270614E+04  0.00000000000E+00 0.  1.
         21   -1    0    0  503  502  0.00000000000E+00 -0.00000000000E+00 -0.21437201964E+02  0.21437201964E+02  0.00000000000E+00 0.  1.
         21    1    1    2  503  501 -0.44535387669E+02  0.46308064099E+02  0.13548077607E+03  0.14994291660E+03  0.00000000000E+00 0.  1.
         21    1    1    2  504  505  0.10795194528E+03  0.21589474357E+02  0.34842823994E+03  0.36540657668E+03  0.00000000000E+00 0.  1.
         21    1    1    2  505  502 -0.18952584946E+02 -0.45010957325E+02  0.13779346965E+03  0.14619243152E+03  0.00000000000E+00 0.  1.
          2    1    1    2  501    0 -0.44463972660E+02 -0.22886581131E+02  0.41048737379E+03  0.41352233858E+03  0.00000000000E+00 0.  1.
<scales pt_clust_3="14000.00000" pt_clust_4="72.43888" pt_clust_5="48.83837" pt_clust_6="53.37668"></scales>
<clustering>
<clus scale="   48.838">  2  5  1 -1</clus>
<clus scale="   53.377">  1  6  2 -1</clus>
<clus scale="   72.439">  1  4  2 -1</clus>
<clus scale="   48.838">  2  3  1 -1</clus>
</clustering>
</event>
<event>
 6    0  0.2572175E+002  0.2535530E+03  0.7546771E-02  0.1111080E+00
          1   -1    0    0  503    0 -0.00000000000E+00  0.00000000000E+00  0.18419673399E+04  0.18419673399E+04  0.00000000000E+00 0. -1.
         21   -1    0    0  504  502  0.00000000000E+00 -0.00000000000E+00 -0.71167782688E+03  0.71167782688E+03  0.00000000000E+00 0.  1.
         21    1    1    2  503  505  0.14026243575E+03  0.28226467029E+02  0.11823634816E+03  0.18560743075E+03  0.00000000000E+00 0.  1.
         21    1    1    2  504  501 -0.24100488043E+03 -0.55609475238E+02 -0.62701666157E+03  0.67403683876E+03  0.00000000000E+00 0.  1.
         21    1    1    2  505  502  0.46194223988E+02 -0.99659641762E+01 -0.59705344138E+01  0.47632699409E+02  0.00000000000E+00 0.  1.
          1    1    1    2  501    0  0.54548220690E+02  0.37348972385E+02  0.16450403608E+04  0.16463681978E+04  0.00000000000E+00 0. -1.
<scales pt_clust_3="47.03474" pt_clust_4="239.98190" pt_clust_5="47.03474" pt_clust_6="66.10941"></scales>
<clustering>
<clus scale="   47.035">  3  5 -1 -1</clus>
<clus scale="   66.109">  1  6  2 -1</clus>
<clus scale="  239.982">  2  4  1 -1</clus>
<clus scale="  239.982">  2  3  1 -1</clus>
</clustering>
</event>
<event>
 6    0  0.2572175E+002  0.9947344E+02  0.7546771E-02  0.1281407E+00
         21   -1    0    0  505  502  0.00000000000E+00  0.00000000000E+00  0.27862047284E+02  0.27862047284E+02  0.00000000000E+00 0.  1.
          2   -1    0    0  502    0 -0.00000000000E+00 -0.00000000000E+00 -0.33546307387E+04  0.33546307387E+04  0.00000000000E+00 0.  1.
         21    1    1    2  503  504  0.16647461908E+02  0.67547331768E+02 -0.58116985626E+02  0.90649677523E+02  0.00000000000E+00 0.  1.
         21    1    1    2  504  501  0.41689674822E+02 -0.58107013369E+02 -0.20380630243E+03  0.21598949719E+03  0.00000000000E+00 0. -1.
         21    1    1    2  505  503 -0.12161866812E+02  0.40830972224E+02 -0.83627377894E+02  0.93854236082E+02  0.00000000000E+00 0.  1.
          2    1    1    2  501    0 -0.46175269918E+02 -0.50271290623E+02 -0.29812180255E+04  0.29819993752E+04  0.00000000000E+00 0.  1.
<scales pt_clust_3="36.57370" pt_clust_4="87.81066" pt_clust_5="36.57370" pt_clust_6="68.25949"></scales>
<clustering>
<clus scale="   36.574">  3  5 -1 -1</clus>
<clus scale="   68.259">  2  6  1 -1</clus>
<clus scale="   87.811">  2  4  1 -1</clus>
<clus scale="   99.473">  1  3  2 -1</clus>
</clustering>
</event>
<event>
 6    0  0.2572175E+002  0.1387602E+03  0.7546771E-02  0.1215007E+00
         21   -1    0    0  501  502  0.00000000000E+00  0.00000000000E+00  0.84026264945E+03  0.84026264945E+03  0.00000000000E+00 0.  1.
          1   -1    0    0  503    0 -0.00000000000E+00 -0.00000000000E+00 -0.16421586675E+04  0.16421586675E+04  0.00000000000E+00 0.  1.
         21    1    1    2  503  504  0.39368425102E+02 -0.65076503613E+01 -0.45162684345E+02  0.60265167929E+02  0.00000000000E+00 0.  1.
         21    1    1    2  504  505  0.30241438083E+02  0.57009822962E+02  0.40440411942E+03  0.40952088628E+03  0.00000000000E+00 0. -1.
         21    1    1    2  505  502 -0.73288319036E+01  0.73689748153E+02  0.41945837094E+03  0.42594508533E+03  0.00000000000E+00 0.  1.
          1    1    1    2  501    0 -0.62281031282E+02 -0.12419192075E+03 -0.15805958241E+04  0.15866901774E+04  0.00000000000E+00 0.  1.
<scales pt_clust_3="39.90266" pt_clust_4="37.88085" pt_clust_5="37.88085" pt_clust_6="132.69424"></scales>
<clustering>
<clus scale="   37.881">  4  5 -1 -1</clus>
<clus scale="   39.903">  2  3  1 -1</clus>
<clus scale="  132.694">  2  6  1 -1</clus>
<clus scale="  138.760">  1  3  2 -1</clus>
</clustering>
</event>
<event>
 6    0  0.2572175E+002  0.1089009E+03  0.7546771E-02  0.1262619E+00
         21   -1    0    0  501  502  0.00000000000E+00  0.00000000000E+00  0.79721465355E+02  0.79721465355E+02  0.00000000000E+00 0. -1.
          1   -1    0    0  503    0 -0.00000000000E+00 -0.00000000000E+00 -0.32874895642E+03  0.32874895642E+03  0.00000000000E+00 0. -1.
         21    1    1    2  503  505 -0.34021886624E+02 -0.84416792986E+01 -0.44064631647E+02  0.56306682383E+02  0.00000000000E+00 0. -1.
         21    1    1    2  504  502 -0.39855916407E+02  0.16044476786E+02 -0.11575571436E+01  0.42979753914E+02  0.00000000000E+00 0. -1.
         21    1    1    2  505  504 -0.33047533205E+02  0.84533207555E+02 -0.90667984632E+02  0.12829141073E+03  0.00000000000E+00 0. -1.
          1    1    1    2  501    0  0.10692533624E+03 -0.92136005043E+02 -0.11313731764E+03  0.18089257474E+03  0.00000000000E+00 0. -1.
<scales pt_clust_3="35.05354" pt_clust_4="45.24400" pt_clust_5="108.90088" pt_clust_6="14000.00000"></scales>
<clustering>
<clus scale="   35.054">  2  3  1 -1</clus>
<clus scale="   45.244">  1  4  2 -1</clus>
<clus scale="  108.901">  2  5  1 -1</clus>
<clus scale="   45.244">  1  3  2 -1</clus>
</clustering>
</event>
<event>
 6    0  0.2572175E+002  0.1123497E+03  0.7546771E-02  0.1256279E+00
          1   -1    0    0  502    0 -0.00000000000E+00  0.00000000000E+00  0.11840428099E+04  0.11840428099E+04  0.00000000000E+00 0.  1.
         21   -1    0    0  505  502  0.00000000000E+00 -0.00000000000E+00 -0.28071845109E+03  0.28071845109E+03  0.00000000000E+00 0. -1.
         21    1    1    2  503  501 -0.16673072007E+02  0.62134165381E+02  0.39003226746E+02  0.75232290503E+02  0.00000000000E+00 0. -1.
         21    1    1    2  504  503  0.10131729255E+03 -0.30489320246E+02 -0.76155790663E+02  0.13036294285E+03  0.00000000000E+00 0. -1.
         21    1    1    2  505  504 -0.12246155662E+03 -0.28359363301E+02 -0.13416644211E+03  0.18385244226E+03  0.00000000000E+00 0. -1.
          1    1    1    2  501    0  0.37817336079E+02 -0.32854818343E+01  0.10746433648E+04  0.10753135854E+04  0.00000000000E+00 0.  1.
<scales pt_clust_3="60.49467" pt_clust_4="14000.00000" pt_clust_5="112.34970" pt_clust_6="37.95979"></scales>
<clustering>
<clus scale="   37.960">  1  6  2 -1</clus>
<clus scale="   60.495">  1  3  2 -1</clus>
<clus scale="  112.350">  2  5  1 -1</clus>
<clus scale="  112.350">  2  3  1 -1</clus>
</clustering>
</event>
<event>
 6    0  0.2572175E+002  0.1159332E+03  0.7546771E-02  0.1249961E+00
          3   -1    0    0  505    0 -0.00000000000E+00  0.00000000000E+00  0.24421386897E+04  0.24421386897E+04  0.00000000000E+00 0.  1.
         21   -1    0    0  504  502  0.00000000000E+00 -0.00000000000E+00 -0.45907653007E+02  0.45907653007E+02  0.00000000000E+00 0.  1.
         21    1    1    2  503  502 -0.52626875673E+02 -0.14412297519E+02  0.50014796975E+02  0.74018796797E+02  0.00000000000E+00 0.  1.
         21    1    1    2  504  501  0.16184116966E+03  0.55570154501E+02  0.21968603488E+03  0.27846464801E+03  0.00000000000E+00 0.  1.
         21    1    1    2  505  503 -0.75007633979E+02 -0.47164716760E+02  0.44823490029E+03  0.45690828565E+03  0.00000000000E+00 0.  1.
          3    1    1    2  501    0 -0.34206660010E+02  0.60068597789E+01  0.16782953045E+04  0.16786546122E+04  0.00000000000E+00 0.  1.
<scales pt_clust_3="57.12776" pt_clust_4="14000.00000" pt_clust_5="115.93320" pt_clust_6="34.73007"></scales>
<clustering>
<clus scale="   34.730">  1  6  2 -1</clus>
<clus scale="   57.128">  2  3  1 -1</clus>
<clus scale="  115.933">  1  5  2 -1</clus>
<clus scale="   57.128">  2  3  1 -1</clus>
</clustering>
</event>
<event>
 6    0  0.2572175E+002  0.2479623E+03  0.7546771E-02  0.1114599E+00
         21   -1    0    0  504  502  0.00000000000E+00  0.00000000000E+00  0.14284628962E+04  0.14284628962E+04  0.00000000000E+00 0.  1.
         -1   -1    0    0    0  501 -0.00000000000E+00 -0.00000000000E+00 -0.60242605891E+03  0.60242605891E+03  0.00000000000E+00 0.  1.
         21    1    1    2  503  502  0.75101697134E+02 -0.28038284668E+03  0.80792106496E+03  0.85848194672E+03  0.00000000000E+00 0.  1.
         21    1    1    2  504  505 -0.69400963979E+02  0.20337943624E+03  0.55995069950E+03  0.59977035168E+03  0.00000000000E+00 0.  1.
         21    1    1    2  505  501 -0.18994469461E+02  0.11147770112E+03 -0.20791291826E+03  0.23667667670E+03  0.00000000000E+00 0.  1.
         -1    1    1    2    0  503  0.13293736306E+02 -0.34474290682E+02 -0.33392200891E+03  0.33595998002E+03  0.00000000000E+00 0.  1.
<scales pt_clust_3="14000.00000" pt_clust_4="247.96226" pt_clust_5="83.20800" pt_clust_6="36.94861"></scales>
<clustering>
<clus scale="   36.949">  2  6  1 -1</clus>
<clus scale="   83.208">  2  5  1 -1</clus>
<clus scale="  247.962">  1  4  2 -1</clus>
<clus scale="  247.962">  1  3  2 -1</clus>
</clustering>
</event>
<event>
 6    0  0.2572175E+002  0.8655405E+02  0.7546771E-02  0.1311418E+00
         21   -1    0    0  501  502  0.00000000000E+00  0.00000000000E+00  0.84823622853E+03  0.84823622853E+03  0.00000000000E+00 0.  1.
          2   -1    0    0  503    0 -0.00000000000E+00 -0.00000000000E+00 -0.68333235522E+03  0.68333235522E+03  0.00000000000E+00 0.  1.
         21    1    1    2  503  505  0.40896043689E+02  0.46291868649E+02 -0.46316952725E+02  0.77205463552E+02  0.00000000000E+00 0. -1.
         21    1    1    2  504  502 -0.10460919018E+02 -0.51475701138E+02  0.53905860041E+03  0.54161181053E+03  0.00000000000E+00 0.  1.
         21    1    1    2  505  504  0.69189746296E+02 -0.14847091536E+02  0.28392262831E+03  0.29260846876E+03  0.00000000000E+00 0.  1.
          2    1    1    2  501    0 -0.99624870967E+02  0.20030924025E+02 -0.61176040269E+03  0.62014284091E+03  0.00000000000E+00 0.  1.
<scales pt_clust_3="59.50122" pt_clust_4="52.52788" pt_clust_5="86.55405" pt_clust_6="14000.00000"></scales>
<clustering>
<clus scale="   52.528">  1  4  2 -1</clus>
<clus scale="   59.501">  2  3  1 -1</clus>
<clus scale="   86.554">  1  5  2 -1</clus>
<clus scale="   52.528">  1  3  2 -1</clus>
</clustering>
</event>
<event>
 6    0  0.2572175E+002  0.1053224E+03  0.7546771E-02  0.1269486E+00
         21   -1    0    0  503  502  0.00000000000E+00  0.00000000000E+00  0.71390955424E+02  0.71390955424E+02  0.00000000000E+00 0. -1.
          2   -1    0    0  505    0 -0.00000000000E+00 -0.00000000000E+00 -0.21034257020E+04  0.21034257020E+04  0.00000000000E+00 0. -1.
         21    1    1    2  503  501  0.14071870878E+02  0.71895974864E+02  0.40744489139E+02  0.83828170366E+02  0.00000000000E+00 0. -1.
         21    1    1    2  504  502  0.26017159091E+02  0.27313684038E+02 -0.55859064716E+02  0.67403004487E+02  0.00000000000E+00 0.  1.
         21    1    1    2  505  504 -0.38042559112E+02  0.15259367937E+02 -0.87007702231E+03  0.87104196763E+03  0.00000000000E+00 0. -1.
          2    1    1    2  501    0 -0.20464708566E+01 -0.11446902684E+03 -0.11468431486E+04  0.11525435149E+04  0.00000000000E+00 0. -1.
<scales pt_clust_3="105.32244" pt_clust_4="37.72174" pt_clust_5="40.88687" pt_clust_6="14000.00000"></scales>
<clustering>
<clus scale="   37.722">  1  4  2 -1</clus>
<clus scale="   40.887">  2  5  1 -1</clus>
<clus scale="  105.322">  1  3  2 -1</clus>
<clus scale="   37.722">  1  3  2 -1</clus>
</clustering>
</event>
<event>
 6    0  0.2572175E+002  0.1036333E+03  0.7546771E-02  0.1272836E+00
         21   -1    0    0  505  502  0.00000000000E+00  0.00000000000E+00  0.10483034743E+03  0.10483034743E+03  0.00000000000E+00 0.  1.
          2   -1    0    0  504    0 -0.00000000000E+00 -0.00000000000E+00 -0.91448995190E+03  0.91448995190E+03  0.00000000000E+00 0.  1.
         21    1    1    2  503  501  0.45137946650E+02 -0.57370346502E+02 -0.41456912413E+01  0.73116192744E+02  0.00000000000E+00 0.  1.
         21    1    1    2  504  502 -0.24922474695E+02 -0.39266179618E+02 -0.34137681715E+02  0.57691801147E+02  0.00000000000E+00 0. -1.
         21    1    1    2  505  503  0.40046055795E+02  0.85531454798E+01  0.47497855419E+02  0.62712751110E+02  0.00000000000E+00 0.  1.
          2    1    1    2  501    0 -0.60261527750E+02  0.88083380640E+02 -0.81887408693E+03  0.82579955432E+03  0.00000000000E+00 0.  1.
<scales pt_clust_3="14000.00000" pt_clust_4="40.31346" pt_clust_5="40.94927" pt_clust_6="103.63326"></scales>
<clustering>
<clus scale="   40.949">  1  5  2 -1</clus>
<clus scale="   40.313">  1  4  2 -1</clus>
<clus scale="  103.633">  2  6  1 -1</clus>
<clus scale="   40.949">  1  3  2 -1</clus>
</clustering>
</event>
<event>
 6    0  0.2572175E+002  0.1068885E+03  0.7546771E-02  0.1266443E+00
         21   -1    0    0  503  502  0.00000000000E+00  0.00000000000E+00  0.20748333184E+03  0.20748333184E+03  0.00000000000E+00 0.  1.
          1   -1    0    0  505    0 -0.00000000000E+00 -0.00000000000E+00 -0.23458208127E+04  0.23458208127E+04  0.00000000000E+00 0.  1.
         21    1    1    2  503  504 -0.67463564504E+02  0.58886177920E+01  0.15124082981E+03  0.16570997845E+03  0.00000000000E+00 0.  1.
         21    1    1    2  504  501  0.62105293320E+02  0.99548362122E+02 -0.31221378795E+02  0.12141547823E+03  0.00000000000E+00 0.  1.
         21    1    1    2  505  502  0.18154765598E+02 -0.14514010981E+03 -0.17921627946E+04  0.17981220007E+04  0.00000000000E+00 0.  1.
          1    1    1    2  501    0 -0.12796494413E+02  0.39703129891E+02 -0.46619413726E+03  0.46805668717E+03  0.00000000000E+00 0.  1.
<scales pt_clust_3="67.78262" pt_clust_4="14000.00000" pt_clust_5="106.88845" pt_clust_6="41.71437"></scales>
<clustering>
<clus scale="   41.714">  2  6  1 -1</clus>
<clus scale="   67.783">  1  3  2 -1</clus>
<clus scale="  106.888">  2  5  1 -1</clus>
<clus scale="   67.783">  1  3  2 -1</clus>
</clustering>
</event>
<event>
 6    0  0.2572175E+002  0.8640378E+02  0.7546771E-02  0.1311802E+00
          2   -1    0    0  504    0 -0.00000000000E+00  0.00000000000E+00  0.14350672301E+03  0.14350672301E+03  0.00000000000E+00 0.  1.
         21   -1    0    0  503  502  0.00000000000E+00 -0.00000000000E+00 -0.35491795677E+03  0.35491795677E+03  0.00000000000E+00 0.  1.
         21    1    1    2  503  501 -0.56299867586E+02 -0.36267998553E+02 -0.15241735521E+02  0.68682991424E+02  0.00000000000E+00 0.  1.
         21    1    1    2  504  505  0.57361049327E+00  0.58329158901E+02  0.39256797344E+02  0.70311563379E+02  0.00000000000E+00 0.  1.
         21    1    1    2  505  502  0.70737495286E+02  0.59410301440E+02 -0.25760721204E+03  0.27366923987E+03  0.00000000000E+00 0.  1.
          2    1    1    2  501    0 -0.15011238194E+02 -0.81471461788E+02  0.22180916468E+02  0.85760885102E+02  0.00000000000E+00 0.  1.
<scales pt_clust_3="86.40378" pt_clust_4="58.33198" pt_clust_5="14000.00000" pt_clust_6="48.26996"></scales>
<clustering>
<clus scale="   58.332">  1  4  2 -1</clus>
<clus scale="   48.270">  1  6  2 -1</clus>
<clus scale="   86.404">  1  3  2 -1</clus>
<clus scale="   86.404">  2  3  1 -1</clus>
</clustering>
</event>
<event>
 6    0  0.2572175E+002  0.1053454E+03  0.7546771E-02  0.1269441E+00
          4   -1    0    0  504    0 -0.00000000000E+00  0.00000000000E+00  0.22918781660E+03  0.22918781660E+03  0.00000000000E+00 0. -1.
         21   -1    0    0  503  502  0.00000000000E+00 -0.00000000000E+00 -0.21326763348E+03  0.21326763348E+03  0.00000000000E+00 0. -1.
         21    1    1    2  503  501  0.75383847276E+02 -0.21719620544E+02 -0.95768850730E+02  0.12379878480E+03  0.00000000000E+00 0. -1.
         21    1    1    2  504  505  0.24606015267E+02 -0.48561924074E+02  0.16951074520E+02  0.57018026838E+02  0.00000000000E+00 0. -1.
         21    1    1    2  505  502 -0.10519780476E+02  0.13121533047E+03  0.28352868485E+02  0.13465516656E+03  0.00000000000E+00 0. -1.
          4    1    1    2  501    0 -0.89470082068E+02 -0.60933785851E+02  0.66385090843E+02  0.12698347188E+03  0.00000000000E+00 0. -1.
<scales pt_clust_3="81.20684" pt_clust_4="54.44003" pt_clust_5="105.34539" pt_clust_6="14000.00000"></scales>
<clustering>
<clus scale="   54.440">  1  4  2 -1</clus>
<clus scale="   81.207">  2  3  1 -1</clus>
<clus scale="  105.345">  2  5  1 -1</clus>
<clus scale="   81.207">  2  3  1 -1</clus>
</clustering>
</event>
<event>
 6    0  0.2572175E+002  0.1022919E+03  0.7546771E-02  0.1275549E+00
         21   -1    0    0  504  502  0.00000000000E+00  0.00000000000E+00  0.31836603102E+03  0.31836603102E+03  0.00000000000E+00 0.  1.
          2   -1    0    0  505    0 -0.00000000000E+00 -0.00000000000E+00 -0.27449441434E+04  0.27449441434E+04  0.00000000000E+00 0. -1.
         21    1    1    2  503  502  0.54081653792E+02 -0.32222937368E+02 -0.10044992873E+02  0.63749861578E+02  0.00000000000E+00 0. -1.
         21    1    1    2  504  501 -0.37487985071E+02 -0.92340904584E+02 -0.92527674267E+03  0.93062841253E+03  0.00000000000E+00 0. -1.
         21    1    1    2  505  503  0.21668562318E+02  0.10213488337E+03  0.27911566935E+03  0.29800439237E+03  0.00000000000E+00 0.  1.
          2    1    1    2  501    0 -0.38262231039E+02  0.22428958579E+02 -0.17703720462E+04  0.17709275080E+04  0.00000000000E+00 0. -1.
<scales pt_clust_3="61.27391" pt_clust_4="102.29188" pt_clust_5="14000.00000" pt_clust_6="44.35151"></scales>
<clustering>
<clus scale="   44.352">  2  6  1 -1</clus>
<clus scale="   61.274">  1  3  2 -1</clus>
<clus scale="  102.292">  2  4  1 -1</clus>
<clus scale="   61.274">  1  3  2 -1</clus>
</clustering>
</event>
<event>
 6    0  0.2572175E+002  0.1810738E+03  0.7546771E-02  0.1166768E+00
          1   -1    0    0  503    0 -0.00000000000E+00  0.00000000000E+00  0.76390718629E+03  0.76390718629E+03  0.00000000000E+00 0.  1.
         21   -1    0    0  504  502  0.00000000000E+00 -0.00000000000E+00 -0.11507753722E+03  0.11507753722E+03  0.00000000000E+00 0.  1.
         21    1    1    2  503  502 -0.18052672995E+03  0.14739663037E+03  0.14775879692E+03  0.27594986671E+03  0.00000000000E+00 0.  1.
         21    1    1    2  504  505  0.71462778243E+02 -0.18144144283E+02  0.42631769552E+02  0.85168106830E+02  0.00000000000E+00 0.  1.
         21    1    1    2  505  501  0.42203238748E+02 -0.61745605871E+02  0.32652104274E+02  0.81607555524E+02  0.00000000000E+00 0.  1.
          1    1    1    2  501    0  0.66860712960E+02 -0.67506880222E+02  0.42578697833E+03  0.43625919443E+03  0.00000000000E+00 0.  1.
<scales pt_clust_3="173.04214" pt_clust_4="52.95091" pt_clust_5="52.95091" pt_clust_6="95.01333"></scales>
<clustering>
<clus scale="   52.951">  4  5 -1 -1</clus>
<clus scale="   95.013">  1  6  2 -1</clus>
<clus scale="  173.042">  1  3  2 -1</clus>
<clus scale="  181.074">  2  3  1 -1</clus>
</clustering>
</event>
<event>
 6    0  0.2572175E+002  0.1288803E+03  0.7546771E-02  0.1229127E+00
          1   -1    0    0  502    0 -0.00000000000E+00  0.00000000000E+00  0.32501185852E+04  0.32501185852E+04  0.00000000000E+00 0. -1.
         21   -1    0    0  505  502  0.00000000000E+00 -0.00000000000E+00 -0.35774521703E+02  0.35774521703E+02  0.00000000000E+00 0. -1.
         21    1    1    2  503  504  0.11791841692E+03  0.86066699843E+01  0.40566006334E+03  0.42253865481E+03  0.00000000000E+00 0.  1.
         21    1    1    2  504  501 -0.28355519550E+02  0.37362850547E+02  0.38232966706E+03  0.38519604412E+03  0.00000000000E+00 0. -1.
         21    1    1    2  505  503 -0.12960570586E+03 -0.33948646145E+02  0.14883298305E+03  0.20025335555E+03  0.00000000000E+00 0. -1.
          1    1    1    2  501    0  0.40042808494E+02 -0.12020874386E+02  0.22775213500E+04  0.22779050524E+04  0.00000000000E+00 0. -1.
<scales pt_clust_3="128.88027" pt_clust_4="34.95067" pt_clust_5="14000.00000" pt_clust_6="41.80823"></scales>
<clustering>
<clus scale="   41.808">  1  6  2 -1</clus>
<clus scale="   34.951">  1  4  2 -1</clus>
<clus scale="  128.880">  1  3  2 -1</clus>
<clus scale="  128.880">  2  3  1 -1</clus>
</clustering>
</event>
<event>
 6    0  0.2572175E+002  0.1335404E+03  0.7546771E-02  0.1222295E+00
          2   -1    0    0  505    0 -0.00000000000E+00  0.00000000000E+00  0.23021249984E+04  0.23021249984E+04  0.00000000000E+00 0.  1.
         21   -1    0    0  501  502  0.00000000000E+00 -0.00000000000E+00 -0.10248326342E+03  0.10248326342E+03  0.00000000000E+00 0. -1.
         21    1    1    2  503  502  0.37051837385E+02  0.52269769422E+01  0.12647618551E+02  0.39498382202E+02  0.00000000000E+00 0. -1.
         21    1    1    2  504  503  0.86816087606E+01 -0.68119038207E+02 -0.51002289787E+02  0.85538337957E+02  0.00000000000E+00 0. -1.
         21    1    1    2  505  504  0.10265840911E+02 -0.46200529080E+02  0.10214228454E+02  0.48417009819E+02  0.00000000000E+00 0. -1.
          2    1    1    2  501    0 -0.55999287057E+02  0.10909259035E+03  0.22277821777E+04  0.22311545318E+04  0.00000000000E+00 0.  1.
<scales pt_clust_3="37.41871" pt_clust_4="43.27166" pt_clust_5="43.27166" pt_clust_6="122.39542"></scales>
<clustering>
<clus scale="   37.419">  2  3  1 -1</clus>
<clus scale="   43.272">  4  5 -1 -1</clus>
<clus scale="  122.395">  1  6  2 -1</clus>
<clus scale="   37.419">  2  3  1 -1</clus>
</clustering>
</event>
<event>
 6    0  0.2572175E+002  0.1885193E+03  0.7546771E-02  0.1159804E+00
         21   -1    0    0  501  502  0.00000000000E+00  0.00000000000E+00  0.41275871678E+03  0.41275871678E+03  0.00000000000E+00 0.  1.
          1   -1    0    0  504    0 -0.00000000000E+00 -0.00000000000E+00 -0.33940133440E+04  0.33940133440E+04  0.00000000000E+00 0. -1.
         21    1    1    2  503  505  0.16161280155E+02  0.39765201044E+02  0.92500013648E+02  0.10197406884E+03  0.00000000000E+00 0.  1.
         21    1    1    2  504  503  0.80424685015E+02 -0.27728247077E+03 -0.45765931838E+03  0.54111528370E+03  0.00000000000E+00 0. -1.
         21    1    1    2  505  502 -0.26106783477E+02  0.69973224517E+02  0.26578359041E+03  0.27607740441E+03  0.00000000000E+00 0.  1.
          1    1    1    2  501    0 -0.70479181694E+02  0.16754404521E+03 -0.28818789129E+04  0.28876053038E+04  0.00000000000E+00 0. -1.
<scales pt_clust_3="37.25054" pt_clust_4="188.51930" pt_clust_5="120.64732" pt_clust_6="14000.00000"></scales>
<clustering>
<clus scale="   37.251">  3  5 -1 -1</clus>
<clus scale="  120.647">  1  3  2 -1</clus>
<clus scale="  188.519">  1  4  2 -1</clus>
<clus scale="  120.647">  1  3  2 -1</clus>
</clustering>
</event>
<event>
 6    0  0.2572175E+002  0.1253798E+03  0.7546771E-02  0.1234477E+00
          2   -1    0    0  502    0 -0.00000000000E+00  0.00000000000E+00  0.11574333310E+04  0.11574333310E+04  0.00000000000E+00 0. -1.
         21   -1    0    0  503  502  0.00000000000E+00 -0.00000000000E+00 -0.60125266767E+03  0.60125266767E+03  0.00000000000E+00 0.  1.
         21    1    1    2  503  505  0.89731108772E+02 -0.24629268642E+02 -0.29104841683E+03  0.30556088377E+03  0.00000000000E+00 0.  1.
         21    1    1    2  504  501 -0.55104858891E+01  0.75981726138E+02  0.26852815658E+03  0.27912534647E+03  0.00000000000E+00 0.  1.
         21    1    1    2  505  504 -0.47852091257E+02 -0.10037708546E+03 -0.28615013902E+03  0.30699720517E+03  0.00000000000E+00 0.  1.
          2    1    1    2  501    0 -0.36368531625E+02  0.49024627963E+02  0.86485106257E+03  0.86700256324E+03  0.00000000000E+00 0. -1.
<scales pt_clust_3="91.85861" pt_clust_4="125.37979" pt_clust_5="14000.00000" pt_clust_6="61.04166"></scales>
<clustering>
<clus scale="   61.042">  1  6  2 -1</clus>
<clus scale="   91.859">  2  3  1 -1</clus>
<clus scale="  125.380">  1  4  2 -1</clus>
<clus scale="   91.859">  2  3  1 -1</clus>
</clustering>
</event>
<event>
 6    0  0.2572175E+002  0.2084917E+03  0.7546771E-02  0.1142766E+00
         -4   -1    0    0    0  501 -0.00000000000E+00  0.00000000000E+00  0.12562399073E+04  0.12562399073E+04  0.00000000000E+00 0.  1.
         21   -1    0    0  505  502  0.00000000000E+00 -0.00000000000E+00 -0.15406739422E+03  0.15406739422E+03  0.00000000000E+00 0. -1.
         21    1    1    2  503  501 -0.16018536160E+03 -0.21423027664E+02  0.93400674302E+02  0.18666007111E+03  0.00000000000E+00 0. -1.
         21    1    1    2  504  502  0.14155507706E+03 -0.26148783221E+03  0.25624720381E+03  0.39252561151E+03  0.00000000000E+00 0. -1.
         21    1    1    2  505  503  0.71720302473E+00  0.85260552388E+02  0.45242425993E+02  0.96523330254E+02  0.00000000000E+00 0. -1.
         -4    1    1    2    0  504  0.17913081516E+02  0.19765030748E+03  0.70728220898E+03  0.73459828864E+03  0.00000000000E+00 0.  1.
<scales pt_clust_3="160.20887" pt_clust_4="208.49172" pt_clust_5="85.26357" pt_clust_6="14000.00000"></scales>
<clustering>
<clus scale="   85.264">  2  5  1 -1</clus>
<clus scale="  160.209">  2  3  1 -1</clus>
<clus scale="  208.492">  2  4  1 -1</clus>
<clus scale="   85.264">  2  3  1 -1</clus>
</clustering>
</event>
<event>
 6    0  0.2572175E+002  0.1292885E+03  0.7546771E-02  0.1228515E+00
         21   -1    0    0  505  502  0.00000000000E+00  0.00000000000E+00  0.30135235527E+04  0.30135235527E+04  0.00000000000E+00 0. -1.
          1   -1    0    0  503    0 -0.00000000000E+00 -0.00000000000E+00 -0.23997771034E+03  0.23997771034E+03  0.00000000000E+00 0.  1.
         21    1    1    2  503  502 -0.40091197703E+02 -0.46729065307E+02  0.26551368518E+04  0.26558506381E+04  0.00000000000E+00 0. -1.
         21    1    1    2  504  501  0.43774147826E+02  0.14293895197E+03  0.75052058100E+02  0.16727382172E+03  0.00000000000E+00 0. -1.
         21    1    1    2  505  504 -0.75597617212E+02  0.16888191152E+02  0.20573309690E+03  0.21983247687E+03  0.00000000000E+00 0. -1.
          1    1    1    2  501    0  0.71914667089E+02 -0.11309807782E+03 -0.16237616452E+03  0.21054432634E+03  0.00000000000E+00 0.  1.
<scales pt_clust_3="61.57036" pt_clust_4="129.28855" pt_clust_5="100.01837" pt_clust_6="14000.00000"></scales>
<clustering>
<clus scale="   61.570">  1  3  2 -1</clus>
<clus scale="  100.018">  1  5  2 -1</clus>
<clus scale="  129.289">  1  4  2 -1</clus>
<clus scale="   61.570">  1  3  2 -1</clus>
</clustering>
</event>
<event>
 6    0  0.2572175E+002  0.9678982E+02  0.7546771E-02  0.1287195E+00
          2   -1    0    0  505    0 -0.00000000000E+00  0.00000000000E+00  0.51544432603E+03  0.51544432603E+03  0.00000000000E+00 0.  1.
         21   -1    0    0  503  502  0.00000000000E+00 -0.00000000000E+00 -0.22095834414E+03  0.22095834414E+03  0.00000000000E+00 0.  1.
         21    1    1    2  503  501  0.27894447870E+02 -0.28271016455E+02 -0.24275157582E+02  0.46547114508E+02  0.00000000000E+00 0.  1.
         21    1    1    2  504  502  0.65373684643E+02  0.56516333000E+02 -0.15671688881E+03  0.17896367726E+03  0.00000000000E+00 0.  1.
         21    1    1    2  505  504 -0.83996806746E+02 -0.83092221243E+02  0.22308020467E+03  0.25243723674E+03  0.00000000000E+00 0.  1.
          2    1    1    2  501    0 -0.92713257674E+01  0.54846904698E+02  0.25239782361E+03  0.25845464167E+03  0.00000000000E+00 0.  1.
<scales pt_clust_3="39.71587" pt_clust_4="14000.00000" pt_clust_5="96.78982" pt_clust_6="55.09540"></scales>
<clustering>
<clus scale="   39.716">  2  3  1 -1</clus>
<clus scale="   55.095">  1  6  2 -1</clus>
<clus scale="   96.790">  1  5  2 -1</clus>
<clus scale="   39.716">  2  3  1 -1</clus>
</clustering>
</event>
<event>
 6    0  0.2572175E+002  0.1101290E+03  0.7546771E-02  0.1260331E+00
          2   -1    0    0  503    0 -0.00000000000E+00  0.00000000000E+00  0.10514963818E+04  0.10514963818E+04  0.00000000000E+00 0. -1.
         21   -1    0    0  505  502  0.00000000000E+00 -0.00000000000E+00 -0.59523409759E+03  0.59523409759E+03  0.00000000000E+00 0.  1.
         21    1    1    2  503  504 -0.10022281037E+03  0.48262093166E+02  0.19614897189E+03  0.22549558871E+03  0.00000000000E+00 0.  1.
         21    1    1    2  504  502  0.73765861168E+02  0.31982680040E+02 -0.50216443894E+03  0.50856014180E+03  0.00000000000E+00 0.  1.
         21    1    1    2  505  501  0.35495089291E+02 -0.54034958228E+01 -0.69108031073E+02  0.77878232450E+02  0.00000000000E+00 0.  1.
          2    1    1    2  501    0 -0.90381400914E+01 -0.74841277383E+02  0.83138578237E+03  0.83479651647E+03  0.00000000000E+00 0. -1.
<scales pt_clust_3="110.12905" pt_clust_4="14000.00000" pt_clust_5="35.90403" pt_clust_6="75.38876"></scales>
<clustering>
<clus scale="   35.904">  2  5  1 -1</clus>
<clus scale="   75.389">  1  6  2 -1</clus>
<clus scale="  110.129">  1  3  2 -1</clus>
<clus scale="   35.904">  2  3  1 -1</clus>
</clustering>
</event>
<event>
 6    0  0.2572175E+002  0.1063822E+03  0.7546771E-02  0.1267420E+00
          2   -1    0    0  504    0 -0.00000000000E+00  0.00000000000E+00  0.35469568621E+04  0.35469568621E+04  0.00000000000E+00 0.  1.
         21   -1    0    0  505  502  0.00000000000E+00 -0.00000000000E+00 -0.10440293148E+03  0.10440293148E+03  0.00000000000E+00 0.  1.
         21    1    1    2  503  502  0.27055144173E+02  0.27315172709E+02  0.15773299767E+02  0.41555943882E+02  0.00000000000E+00 0. -1.
         21    1    1    2  504  503 -0.20915445765E+02 -0.96735823564E+02  0.30595309814E+03  0.32156270570E+03  0.00000000000E+00 0.  1.
         21    1    1    2  505  501 -0.62239922279E+02 -0.22661777138E+02 -0.69548502333E+02  0.96043522660E+02  0.00000000000E+00 0.  1.
          2    1    1    2  501    0  0.56100223870E+02  0.92082427993E+02  0.31903760350E+04  0.31921976213E+04  0.00000000000E+00 0.  1.
<scales pt_clust_3="38.44606" pt_clust_4="106.38222" pt_clust_5="37.81723" pt_clust_6="14000.00000"></scales>
<clustering>
<clus scale="   38.446">  2  3  1 -1</clus>
<clus scale="   37.817">  2  5  1 -1</clus>
<clus scale="  106.382">  2  4  1 -1</clus>
<clus scale="   38.446">  2  3  1 -1</clus>
</clustering>
</event>
<event>
 6    0  0.2572175E+002  0.2657600E+03  0.7546771E-02  0.1103731E+00
         21   -1    0    0  504  502  0.00000000000E+00  0.00000000000E+00  0.20679594334E+03  0.20679594334E+03  0.00000000000E+00 0.  1.
          2   -1    0    0  505    0 -0.00000000000E+00 -0.00000000000E+00 -0.20469495712E+04  0.20469495712E+04  0.00000000000E+00 0. -1.
         21    1    1    2  503  502  0.22570308107E+02  0.56360592915E+02 -0.38124282017E+02  0.71689581678E+02  0.00000000000E+00 0.  1.
         21    1    1    2  504  501 -0.54640744644E+02 -0.24528705943E+03  0.23275433004E+02  0.25237491611E+03  0.00000000000E+00 0.  1.
         21    1    1    2  505  503 -0.16339421706E+03  0.27412794041E+01 -0.11899803445E+03  0.20215270709E+03  0.00000000000E+00 0.  1.
          2    1    1    2  501    0  0.19546465360E+03  0.18618518711E+03 -0.17063067444E+04  0.17275283096E+04  0.00000000000E+00 0. -1.
<scales pt_clust_3="60.71190" pt_clust_4="265.76004" pt_clust_5="159.17090" pt_clust_6="14000.00000"></scales>
<clustering>
<clus scale="   60.712">  1  3  2 -1</clus>
<clus scale="  159.171">  1  5  2 -1</clus>
<clus scale="  265.760">  1  4  2 -1</clus>
<clus scale="   60.712">  1  3  2 -1</clus>
</clustering>
</event>
<event>
 6    0  0.2572175E+002  0.1188278E+03  0.7546771E-02  0.1245043E+00
         21   -1    0    0  503  502  0.00000000000E+00  0.00000000000E+00  0.12569202381E+03  0.12569202381E+03  0.00000000000E+00 0.  1.
          2   -1    0    0  504    0 -0.00000000000E+00 -0.00000000000E+00 -0.15826302064E+04  0.15826302064E+04  0.00000000000E+00 0. -1.
         21    1    1    2  503  505  0.10873410696E+03  0.34334478333E+02  0.61398563032E+02  0.12950577578E+03  0.00000000000E+00 0.  1.
         21    1    1    2  504  502 -0.16386658613E+03 -0.54971866259E+02 -0.36339512547E+03  0.40240549369E+03  0.00000000000E+00 0.  1.
         21    1    1    2  505  501  0.42020797475E+02 -0.12137372710E+02 -0.35282074270E+02  0.56195088766E+02  0.00000000000E+00 0. -1.
          2    1    1    2  501    0  0.13111681695E+02  0.32774760635E+02 -0.11196595459E+04  0.11202158720E+04  0.00000000000E+00 0. -1.
<scales pt_clust_3="14000.00000" pt_clust_4="118.82776" pt_clust_5="44.22128" pt_clust_6="35.30016"></scales>
<clustering>
<clus scale="   35.300">  2  6  1 -1</clus>
<clus scale="   44.221">  2  5  1 -1</clus>
<clus scale="  118.828">  2  4  1 -1</clus>
<clus scale="  118.828">  1  3  2 -1</clus>
</clustering>
</event>
<event>
 6    0  0.2572175E+002  0.1111835E+03  0.7546771E-02  0.1258394E+00
          2   -1    0    0  503    0 -0.00000000000E+00  0.00000000000E+00  0.14199349396E+04  0.14199349396E+04  0.00000000000E+00 0. -1.
         21   -1    0    0  504  502  0.00000000000E+00 -0.00000000000E+00 -0.65603522988E+02  0.65603522988E+02  0.00000000000E+00 0.  1.
         21    1    1    2  503  505 -0.26449177815E+02  0.35032142349E+02  0.62867326383E+02  0.76675359348E+02  0.00000000000E+00 0.  1.
         21    1    1    2  504  501  0.13481426109E+03  0.47310397707E+02  0.24995207533E+03  0.28790484311E+03  0.00000000000E+00 0.  1.
         21    1    1    2  505  502 -0.94765809525E+02 -0.40987379053E+02  0.28636237862E+02  0.10714736588E+03  0.00000000000E+00 0.  1.
          2    1    1    2  501    0 -0.13599273747E+02 -0.41355161003E+02  0.10128757770E+04  0.10138108942E+04  0.00000000000E+00 0. -1.
<scales pt_clust_3="40.11044" pt_clust_4="111.18351" pt_clust_5="14000.00000" pt_clust_6="43.53378"></scales>
<clustering>
<clus scale="   43.534">  1  6  2 -1</clus>
<clus scale="   40.110">  1  3  2 -1</clus>
<clus scale="  111.184">  1  4  2 -1</clus>
<clus scale="  111.184">  2  3  1 -1</clus>
</clustering>
</event>
<event>
 6    0  0.2572175E+002  0.1931419E+03  0.7546771E-02  0.1155658E+00
          2   -1    0    0  504    0 -0.00000000000E+00  0.00000000000E+00  0.14376344442E+04  0.14376344442E+04  0.00000000000E+00 0.  1.
         21   -1    0    0  505  502  0.00000000000E+00 -0.00000000000E+00 -0.14649026207E+03  0.14649026207E+03  0.00000000000E+00 0.  1.
         21    1    1    2  503  502  0.23751305563E+02 -0.28503162513E+02  0.51129377247E+02  0.63172525728E+02  0.00000000000E+00 0. -1.
         21    1    1    2  504  503 -0.21509251487E+03  0.12392643164E+03  0.40993237626E+03  0.47923595808E+03  0.00000000000E+00 0.  1.
         21    1    1    2  505  501  0.11381171719E+03 -0.10309163351E+03 -0.47455676718E+02  0.16072657877E+03  0.00000000000E+00 0.  1.
          2    1    1    2  501    0  0.77529492115E+02  0.76683643863E+01  0.87753810535E+03  0.88098964369E+03  0.00000000000E+00 0.  1.
<scales pt_clust_3="37.10195" pt_clust_4="193.14192" pt_clust_5="14000.00000" pt_clust_6="78.16463"></scales>
<clustering>
<clus scale="   37.102">  2  3  1 -1</clus>
<clus scale="   78.165">  1  6  2 -1</clus>
<clus scale="  193.142">  1  4  2 -1</clus>
<clus scale="   37.102">  2  3  1 -1</clus>
</clustering>
</event>
<event>
 6    0  0.2572175E+002  0.1192439E+03  0.7546771E-02  0.1244350E+00
          1   -1    0    0  502    0 -0.00000000000E+00  0.00000000000E+00  0.13802339779E+04  0.13802339779E+04  0.00000000000E+00 0. -1.
         21   -1    0    0  504  502  0.00000000000E+00 -0.00000000000E+00 -0.51258689970E+03  0.51258689970E+03  0.00000000000E+00 0. -1.
         21    1    1    2  503  505 -0.87136680227E+02  0.46060477294E+02 -0.27594680894E+03  0.29302049412E+03  0.00000000000E+00 0. -1.
         21    1    1    2  504  503  0.13137863623E+02  0.52993308010E+02 -0.16358623850E+03  0.17245681077E+03  0.00000000000E+00 0.  1.
         21    1    1    2  505  501  0.10355073883E+03 -0.81731376183E+02  0.12831934098E+02  0.13254218912E+03  0.00000000000E+00 0.  1.
          1    1    1    2  501    0 -0.29551922225E+02 -0.17322409122E+02  0.12943481916E+04  0.12948013836E+04  0.00000000000E+00 0. -1.
<scales pt_clust_3="14000.00000" pt_clust_4="53.37389" pt_clust_5="119.24394" pt_clust_6="34.25466"></scales>
<clustering>
<clus scale="   34.255">  1  6  2 -1</clus>
<clus scale="   53.374">  2  4  1 -1</clus>
<clus scale="  119.244">  1  5  2 -1</clus>
<clus scale="   53.374">  2  3  1 -1</clus>
</clustering>
</event>
<event>
 6    0  0.2711421E+002  0.9192328E+02  0.7546771E-02  0.1298260E+00
         21   -1    0    0  504  502  0.00000000000E+00  0.00000000000E+00  0.12996132961E+04  0.12996132961E+04  0.00000000000E+00 0. -1.
         -3   -1    0    0    0  501 -0.00000000000E+00 -0.00000000000E+00 -0.90153867928E+02  0.90153867928E+02  0.00000000000E+00 0.  1.
         21    1    1    2  503  501 -0.31664735737E+02  0.97814977197E+01  0.53412385431E+02  0.62858699512E+02  0.00000000000E+00 0.  1.
         21    1    1    2  504  503 -0.62889493548E+02  0.97099863244E+01  0.96572866232E+03  0.96782292877E+03  0.00000000000E+00 0. -1.
         21    1    1    2  505  502 -0.68688734036E+01  0.52842419724E+02  0.22382723889E+03  0.23008288857E+03  0.00000000000E+00 0. -1.
         -3    1    1    2    0  505  0.10142310269E+03 -0.72333903768E+02 -0.33508858432E+02  0.12900264721E+03  0.00000000000E+00 0.  1.
<scales pt_clust_3="33.14111" pt_clust_4="91.92328" pt_clust_5="53.80288" pt_clust_6="14000.00000"></scales>
<clustering>
<clus scale="   33.141">  2  3  1 -1</clus>
<clus scale="   53.803">  1  5  2 -1</clus>
<clus scale="   91.923">  1  4  2 -1</clus>
<clus scale="   53.803">  1  3  2 -1</clus>
</clustering>
</event>
<event>
 6    0  0.2572175E+002  0.1732438E+03  0.7546771E-02  0.1174507E+00
         21   -1    0    0  504  502  0.00000000000E+00  0.00000000000E+00  0.45429410289E+02  0.45429410289E+02  0.00000000000E+00 0.  1.
         -1   -1    0    0    0  501 -0.00000000000E+00 -0.00000000000E+00 -0.14745007317E+04  0.14745007317E+04  0.00000000000E+00 0.  1.
         21    1    1    2  503  505  0.67589787353E+02 -0.45093534407E+02 -0.13867333627E+03  0.16072367713E+03  0.00000000000E+00 0.  1.
         21    1    1    2  504  501 -0.13355211212E+03 -0.20805694552E+01 -0.59064752518E+03  0.60556171809E+03  0.00000000000E+00 0.  1.
         21    1    1    2  505  502  0.89283773423E+02 -0.86041445597E+01 -0.53227991650E+02  0.10430169028E+03  0.00000000000E+00 0.  1.
         -1    1    1    2    0  503 -0.23321448656E+02  0.55778248422E+02 -0.64652246831E+03  0.64934305647E+03  0.00000000000E+00 0.  1.
<scales pt_clust_3="70.12993" pt_clust_4="155.22190" pt_clust_5="70.12993" pt_clust_6="60.45745"></scales>
<clustering>
<clus scale="   60.457">  2  6  1 -1</clus>
<clus scale="   70.130">  3  5 -1 -1</clus>
<clus scale="  155.222">  2  4  1 -1</clus>
<clus scale="  173.244">  1  3  2 -1</clus>
</clustering>
</event>
<event>
 6    0  0.2572175E+002  0.7194583E+02  0.7546771E-02  0.1353598E+00
          1   -1    0    0  504    0 -0.00000000000E+00  0.00000000000E+00  0.22634699706E+03  0.22634699706E+03  0.00000000000E+00 0.  1.
         21   -1    0    0  505  502  0.00000000000E+00 -0.00000000000E+00 -0.16584154835E+03  0.16584154835E+03  0.00000000000E+00 0.  1.
         21    1    1    2  503  502  0.17273143715E+02 -0.45104886271E+02 -0.44351845058E+02  0.65573610694E+02  0.00000000000E+00 0. -1.
         21    1    1    2  504  503 -0.66538392031E+02  0.13324420709E+03 -0.19600663793E+02  0.15021838222E+03  0.00000000000E+00 0.  1.
         21    1    1    2  505  501  0.49565423333E+01 -0.40721423388E+02  0.61811727600E+01  0.41485039850E+02  0.00000000000E+00 0.  1.
          1    1    1    2  501    0  0.44308705982E+02 -0.47417897430E+02  0.11827678480E+03  0.13491151265E+03  0.00000000000E+00 0.  1.
<scales pt_clust_3="63.16868" pt_clust_4="71.94583" pt_clust_5="41.02197" pt_clust_6="14000.00000"></scales>
<clustering>
<clus scale="   41.022">  2  5  1 -1</clus>
<clus scale="   63.169">  2  3  1 -1</clus>
<clus scale="   71.946">  2  4  1 -1</clus>
<clus scale="   41.022">  2  3  1 -1</clus>
</clustering>
</event>
<event>
 6    0  0.2572175E+002  0.2159035E+03  0.7546771E-02  0.1136974E+00
          2   -1    0    0  504    0 -0.00000000000E+00  0.00000000000E+00  0.47221531783E+03  0.47221531783E+03  0.00000000000E+00 0.  1.
         21   -1    0    0  501  502  0.00000000000E+00 -0.00000000000E+00 -0.80573559066E+03  0.80573559066E+03  0.00000000000E+00 0.  1.
         21    1    1    2  503  505  0.26294099010E+02 -0.64763768904E+02 -0.23124831824E+03  0.24158127017E+03  0.00000000000E+00 0.  1.
         21    1    1    2  504  503 -0.13149462485E+03 -0.60555669092E+02  0.12922679370E+03  0.19405512009E+03  0.00000000000E+00 0.  1.
         21    1    1    2  505  502  0.14725235233E+03 -0.28327836591E+02 -0.50445752421E+03  0.52627285254E+03  0.00000000000E+00 0.  1.
          2    1    1    2  501    0 -0.42051826482E+02  0.15364727459E+03  0.27295877592E+03  0.31604166569E+03  0.00000000000E+00 0.  1.
<scales pt_clust_3="66.72874" pt_clust_4="144.76818" pt_clust_5="66.72874" pt_clust_6="192.51463"></scales>
<clustering>
<clus scale="   66.729">  3  5 -1 -1</clus>
<clus scale="  144.768">  1  4  2 -1</clus>
<clus scale="  192.515">  1  6  2 -1</clus>
<clus scale="  215.904">  2  3  1 -1</clus>
</clustering>
</event>
<event>
 6    0  0.2572175E+002  0.9568352E+02  0.7546771E-02  0.1289644E+00
         21   -1    0    0  503  502  0.00000000000E+00  0.00000000000E+00  0.21927499908E+03  0.21927499908E+03  0.00000000000E+00 0. -1.
         -4   -1    0    0    0  501 -0.00000000000E+00 -0.00000000000E+00 -0.22701625048E+03  0.22701625048E+03  0.00000000000E+00 0.  1.
         21    1    1    2  503  501  0.39940265091E+02 -0.20018690709E+02  0.11366970847E+02  0.46099683073E+02  0.00000000000E+00 0.  1.
         21    1    1    2  504  502 -0.38803784958E+02 -0.82715454032E+02  0.13849642075E+03  0.16591816845E+03  0.00000000000E+00 0. -1.
         21    1    1    2  505  504  0.44559852679E+02  0.84961856303E+02 -0.34820424073E+02  0.10206154726E+03  0.00000000000E+00 0.  1.
         -4    1    1    2    0  505 -0.45696332812E+02  0.17772288438E+02 -0.12278421892E+03  0.13221185078E+03  0.00000000000E+00 0.  1.
<scales pt_clust_3="44.67631" pt_clust_4="14000.00000" pt_clust_5="95.68352" pt_clust_6="47.93041"></scales>
<clustering>
<clus scale="   44.676">  1  3  2 -1</clus>
<clus scale="   47.930">  2  6  1 -1</clus>
<clus scale="   95.684">  2  5  1 -1</clus>
<clus scale="   44.676">  1  3  2 -1</clus>
</clustering>
</event>
<event>
 6    0  0.2572175E+002  0.8224556E+02  0.7546771E-02  0.1322797E+00
         21   -1    0    0  504  502  0.00000000000E+00  0.00000000000E+00  0.55997648944E+03  0.55997648944E+03  0.00000000000E+00 0. -1.
          2   -1    0    0  503    0 -0.00000000000E+00 -0.00000000000E+00 -0.14443387911E+04  0.14443387911E+04  0.00000000000E+00 0.  1.
         21    1    1    2  503  505 -0.11712632012E+03 -0.79497350695E+02 -0.52256537291E+03  0.54139908810E+03  0.00000000000E+00 0.  1.
         21    1    1    2  504  501  0.42258284501E+02 -0.23416576335E+02  0.32685851668E+03  0.33040972834E+03  0.00000000000E+00 0. -1.
         21    1    1    2  505  502  0.22707286309E+02  0.51530360693E+02  0.21685171891E+03  0.22404389508E+03  0.00000000000E+00 0. -1.
          2    1    1    2  501    0  0.52160749305E+02  0.51383566337E+02 -0.90550716430E+03  0.90846256899E+03  0.00000000000E+00 0.  1.
<scales pt_clust_3="14000.00000" pt_clust_4="48.31251" pt_clust_5="69.42277" pt_clust_6="82.24556"></scales>
<clustering>
<clus scale="   48.313">  1  4  2 -1</clus>
<clus scale="   69.423">  1  5  2 -1</clus>
<clus scale="   82.246">  2  6  1 -1</clus>
<clus scale="   48.313">  1  3  2 -1</clus>
</clustering>
</event>
<event>
 6    0  0.2572175E+002  0.2512117E+03  0.7546771E-02  0.1112541E+00
          2   -1    0    0  504    0 -0.00000000000E+00  0.00000000000E+00  0.19433980690E+04  0.19433980690E+04  0.00000000000E+00 0. -1.
         21   -1    0    0  505  502  0.00000000000E+00 -0.00000000000E+00 -0.96062302544E+03  0.96062302544E+03  0.00000000000E+00 0. -1.
         21    1    1    2  503  501  0.78012846347E+02 -0.16003456780E+02 -0.34849696232E+03  0.35748041564E+03  0.00000000000E+00 0. -1.
         21    1    1    2  504  502 -0.16739831539E+03 -0.15375896375E+03 -0.22656977608E+02  0.22842362742E+03  0.00000000000E+00 0. -1.
         21    1    1    2  505  503  0.13265141571E+03 -0.73606053597E+02 -0.46157348096E+03  0.48586451562E+03  0.00000000000E+00 0. -1.
          2    1    1    2  501    0 -0.43265946665E+02  0.24336847413E+03  0.18155024645E+04  0.18322525358E+04  0.00000000000E+00 0. -1.
<scales pt_clust_3="36.99568" pt_clust_4="227.29720" pt_clust_5="36.99568" pt_clust_6="245.96759"></scales>
<clustering>
<clus scale="   36.996">  3  5 -1 -1</clus>
<clus scale="  227.297">  2  4  1 -1</clus>
<clus scale="  245.968">  1  6  2 -1</clus>
<clus scale="  227.297">  2  3  1 -1</clus>
</clustering>
</event>
<event>
 6    0  0.2572175E+002  0.1169099E+03  0.7546771E-02  0.1248284E+00
          3   -1    0    0  504    0 -0.00000000000E+00  0.00000000000E+00  0.59918194630E+03  0.59918194630E+03  0.00000000000E+00 0.  1.
         21   -1    0    0  505  502  0.00000000000E+00 -0.00000000000E+00 -0.10871597170E+03  0.10871597170E+03  0.00000000000E+00 0.  1.
         21    1    1    2  503  501 -0.17479741890E+03 -0.19323637389E+02  0.35043869900E+03  0.39209032425E+03  0.00000000000E+00 0.  1.
         21    1    1    2  504  502  0.62702857444E+02 -0.57174794286E+01 -0.43150630435E+02  0.76330300731E+02  0.00000000000E+00 0.  1.
         21    1    1    2  505  503  0.36052605653E+02 -0.23772876889E+02  0.10281809526E+02  0.44392067502E+02  0.00000000000E+00 0. -1.
          3    1    1    2  501    0  0.76041955805E+02  0.48813993707E+02  0.17289609651E+03  0.19508522551E+03  0.00000000000E+00 0.  1.
<scales pt_clust_3="116.90990" pt_clust_4="88.77179" pt_clust_5="43.18495" pt_clust_6="14000.00000"></scales>
<clustering>
<clus scale="   43.185">  2  5  1 -1</clus>
<clus scale="   88.772">  2  4  1 -1</clus>
<clus scale="  116.910">  2  3  1 -1</clus>
<clus scale="   43.185">  2  3  1 -1</clus>
</clustering>
</event>
<event>
 6    0  0.2572175E+002  0.7427807E+02  0.7546771E-02  0.1346121E+00
         -2   -1    0    0    0  501 -0.00000000000E+00  0.00000000000E+00  0.91728511384E+02  0.91728511384E+02  0.00000000000E+00 0.  1.
         21   -1    0    0  504  502  0.00000000000E+00 -0.00000000000E+00 -0.14493470570E+04  0.14493470570E+04  0.00000000000E+00 0. -1.
         21    1    1    2  503  501 -0.88465920201E+02  0.19627653655E+02 -0.95326573227E+03  0.95756306328E+03  0.00000000000E+00 0. -1.
         21    1    1    2  504  503 -0.32166163680E+02 -0.26828190325E+02 -0.22320317466E+03  0.22709925377E+03  0.00000000000E+00 0. -1.
         21    1    1    2  505  502  0.53461566188E+02  0.38327726420E+02 -0.24805436257E+03  0.25662837034E+03  0.00000000000E+00 0. -1.
         -2    1    1    2    0  505  0.67170517693E+02 -0.31127189750E+02  0.66904723918E+02  0.99784880976E+02  0.00000000000E+00 0.  1.
<scales pt_clust_3="74.27807" pt_clust_4="41.88572" pt_clust_5="57.17386" pt_clust_6="14000.00000"></scales>
<clustering>
<clus scale="   41.886">  2  4  1 -1</clus>
<clus scale="   57.174">  2  5  1 -1</clus>
<clus scale="   74.278">  2  3  1 -1</clus>
<clus scale="   41.886">  2  3  1 -1</clus>
</clustering>
</event>
<event>
 6    0  0.2572175E+002  0.1286784E+03  0.7546771E-02  0.1229430E+00
         21   -1    0    0  503  502  0.00000000000E+00  0.00000000000E+00  0.37343047679E+03  0.37343047679E+03  0.00000000000E+00 0.  1.
          4   -1    0    0  505    0 -0.00000000000E+00 -0.00000000000E+00 -0.63375200017E+03  0.63375200017E+03  0.00000000000E+00 0.  1.
         21    1    1    2  503  501 -0.53592977321E+02 -0.16511077411E+01  0.85711394308E+01  0.54299151062E+02  0.00000000000E+00 0.  1.
         21    1    1    2  504  502  0.11480286845E+03  0.66045808130E+02  0.31843026340E+03  0.34487618071E+03  0.00000000000E+00 0.  1.
         21    1    1    2  505  504 -0.75216384850E+02 -0.29307209589E+02 -0.16188914317E+03  0.18089917567E+03  0.00000000000E+00 0.  1.
          4    1    1    2  501    0  0.14006493717E+02 -0.35087490800E+02 -0.42543378304E+03  0.42710796952E+03  0.00000000000E+00 0.  1.
<scales pt_clust_3="52.34113" pt_clust_4="14000.00000" pt_clust_5="128.67837" pt_clust_6="37.77981"></scales>
<clustering>
<clus scale="   37.780">  2  6  1 -1</clus>
<clus scale="   52.341">  2  3  1 -1</clus>
<clus scale="  128.678">  2  5  1 -1</clus>
<clus scale="  128.678">  1  3  2 -1</clus>
</clustering>
</event>
<event>
 6    0  0.2572175E+002  0.7660931E+02  0.7546771E-02  0.1338959E+00
         21   -1    0    0  505  502  0.00000000000E+00  0.00000000000E+00  0.25622835072E+02  0.25622835072E+02  0.00000000000E+00 0. -1.
          2   -1    0    0  504    0 -0.00000000000E+00 -0.00000000000E+00 -0.10772213418E+04  0.10772213418E+04  0.00000000000E+00 0.  1.
         21    1    1    2  503  502 -0.93292400827E+02 -0.83873811857E+02 -0.24663336906E+03  0.27670617467E+03  0.00000000000E+00 0. -1.
         21    1    1    2  504  503 -0.88504279093E+01  0.35049279201E+02 -0.13067425120E+03  0.13558223325E+03  0.00000000000E+00 0. -1.
         21    1    1    2  505  501  0.44975124453E+02  0.31268188593E+02 -0.10781502024E+03  0.12093196446E+03  0.00000000000E+00 0.  1.
          2    1    1    2  501    0  0.57167704283E+02  0.17556344063E+02 -0.56647586624E+03  0.56962380451E+03  0.00000000000E+00 0.  1.
<scales pt_clust_3="76.60931" pt_clust_4="36.14944" pt_clust_5="56.46885" pt_clust_6="14000.00000"></scales>
<clustering>
<clus scale="   36.149">  2  4  1 -1</clus>
<clus scale="   56.469">  1  5  2 -1</clus>
<clus scale="   76.609">  1  3  2 -1</clus>
<clus scale="   56.469">  1  3  2 -1</clus>
</clustering>
</event>
<event>
 6    0  0.2572175E+002  0.2374927E+03  0.7546771E-02  0.1121474E+00
          2   -1    0    0  503    0 -0.00000000000E+00  0.00000000000E+00  0.54699455625E+03  0.54699455625E+03  0.00000000000E+00 0.  1.
         21   -1    0    0  505  502  0.00000000000E+00 -0.00000000000E+00 -0.21436388509E+04  0.21436388509E+04  0.00000000000E+00 0. -1.
         21    1    1    2  503  504 -0.39896503452E+02  0.28109701692E+03 -0.69062756338E+02  0.29219330625E+03  0.00000000000E+00 0.  1.
         21    1    1    2  504  502  0.23397700947E+03 -0.14546355772E+03 -0.58061037573E+03  0.64266110509E+03  0.00000000000E+00 0. -1.
         21    1    1    2  505  501 -0.18692537233E+03 -0.78416951668E+02 -0.13416668160E+04  0.13568935693E+04  0.00000000000E+00 0. -1.
          2    1    1    2  501    0 -0.71551336930E+01 -0.57216507527E+02  0.39469565343E+03  0.39888542654E+03  0.00000000000E+00 0.  1.
<scales pt_clust_3="237.49270" pt_clust_4="14000.00000" pt_clust_5="204.17953" pt_clust_6="57.66216"></scales>
<clustering>
<clus scale="   57.662">  1  6  2 -1</clus>
<clus scale="  204.180">  2  5  1 -1</clus>
<clus scale="  237.493">  1  3  2 -1</clus>
<clus scale="  204.180">  2  3  1 -1</clus>
</clustering>
</event>
<event>
 6    0  0.2572175E+002  0.1372336E+03  0.7546771E-02  0.1217101E+00
          2   -1    0    0  504    0 -0.00000000000E+00  0.00000000000E+00  0.71829769912E+03  0.71829769912E+03  0.00000000000E+00 0. -1.
         21   -1    0    0  505  502  0.00000000000E+00 -0.00000000000E+00 -0.70512782574E+02  0.70512782574E+02  0.00000000000E+00 0.  1.
         21    1    1    2  503  502 -0.12901192991E+03  0.49841376155E+02  0.14946313741E+03  0.20363563117E+03  0.00000000000E+00 0.  1.
         21    1    1    2  504  503  0.29790328257E+02  0.33748106558E+02  0.38467015267E+02  0.59212411008E+02  0.00000000000E+00 0. -1.
         21    1    1    2  505  501  0.12154369355E+03 -0.62586462715E+02  0.11192068249E+03  0.17668099480E+03  0.00000000000E+00 0. -1.
          2    1    1    2  501    0 -0.22322091891E+02 -0.21003019998E+02  0.34793408138E+03  0.34928144472E+03  0.00000000000E+00 0. -1.
<scales pt_clust_3="137.23359" pt_clust_4="40.98548" pt_clust_5="14000.00000" pt_clust_6="30.64968"></scales>
<clustering>
<clus scale="   30.650">  1  6  2 -1</clus>
<clus scale="   40.985">  1  4  2 -1</clus>
<clus scale="  137.234">  1  3  2 -1</clus>
<clus scale="  137.234">  2  3  1 -1</clus>
</clustering>
</event>
<event>
 6    0  0.2572175E+002  0.8083648E+02  0.7546771E-02  0.1326694E+00
         21   -1    0    0  503  502  0.00000000000E+00  0.00000000000E+00  0.31791180470E+03  0.31791180470E+03  0.00000000000E+00 0. -1.
          1   -1    0    0  504    0 -0.00000000000E+00 -0.00000000000E+00 -0.11051787321E+04  0.11051787321E+04  0.00000000000E+00 0.  1.
         21    1    1    2  503  501  0.52566432598E+02  0.12137463989E+02  0.63161407826E+02  0.83065704756E+02  0.00000000000E+00 0. -1.
         21    1    1    2  504  505  0.79585259431E+01 -0.92297885659E+02 -0.48630269936E+01  0.92767919368E+02  0.00000000000E+00 0. -1.
         21    1    1    2  505  502 -0.22801372951E+02  0.66574694001E+02  0.19428350910E+03  0.20663536580E+03  0.00000000000E+00 0. -1.
          1    1    1    2  501    0 -0.37723585590E+02  0.13585727669E+02 -0.10398488174E+04  0.10406215469E+04  0.00000000000E+00 0.  1.
<scales pt_clust_3="48.89866" pt_clust_4="14000.00000" pt_clust_5="80.83648" pt_clust_6="40.09540"></scales>
<clustering>
<clus scale="   40.095">  2  6  1 -1</clus>
<clus scale="   48.899">  1  3  2 -1</clus>
<clus scale="   80.836">  1  5  2 -1</clus>
<clus scale="   48.899">  1  3  2 -1</clus>
</clustering>
</event>
<event>
 6    0  0.2572175E+002  0.1033042E+03  0.7546771E-02  0.1273497E+00
          2   -1    0    0  504    0 -0.00000000000E+00  0.00000000000E+00  0.14312486292E+04  0.14312486292E+04  0.00000000000E+00 0.  1.
         21   -1    0    0  503  502  0.00000000000E+00 -0.00000000000E+00 -0.25301416499E+03  0.25301416499E+03  0.00000000000E+00 0.  1.
         21    1    1    2  503  501 -0.51156734643E+02  0.14778208375E+02 -0.15045117749E+03  0.15959625230E+03  0.00000000000E+00 0.  1.
         21    1    1    2  504  505  0.15553272299E+03  0.36661126701E+02  0.84182122731E+02  0.18061311115E+03  0.00000000000E+00 0.  1.
         21    1    1    2  505  502 -0.44012728770E+01 -0.37039693320E+02 -0.40515391610E+02  0.55070927371E+02  0.00000000000E+00 0. -1.
          2    1    1    2  501    0 -0.99974715471E+02 -0.14399641757E+02  0.12850189106E+04  0.12889825033E+04  0.00000000000E+00 0.  1.
<scales pt_clust_3="56.05809" pt_clust_4="14000.00000" pt_clust_5="37.30027" pt_clust_6="103.30424"></scales>
<clustering>
<clus scale="   37.300">  2  5  1 -1</clus>
<clus scale="   56.058">  2  3  1 -1</clus>
<clus scale="  103.304">  1  6  2 -1</clus>
<clus scale="   37.300">  2  3  1 -1</clus>
</clustering>
</event>
<event>
 6    0  0.2572175E+002  0.1629464E+03  0.7546771E-02  0.1185410E+00
          2   -1    0    0  503    0 -0.00000000000E+00  0.00000000000E+00  0.31568824512E+04  0.31568824512E+04  0.00000000000E+00 0. -1.
         21   -1    0    0  504  502  0.00000000000E+00 -0.00000000000E+00 -0.17840572631E+02  0.17840572631E+02  0.00000000000E+00 0.  1.
         21    1    1    2  503  505 -0.11711238411E+03 -0.70460086054E+02  0.71171325333E+03  0.72471766171E+03  0.00000000000E+00 0.  1.
         21    1    1    2  504  501  0.49506404813E+01  0.53916636863E+02  0.11120796294E+03  0.12368800909E+03  0.00000000000E+00 0.  1.
         21    1    1    2  505  502 -0.13023040722E+02 -0.51721617522E+02  0.26898586514E+03  0.27422275790E+03  0.00000000000E+00 0. -1.
          2    1    1    2  501    0  0.12518478435E+03  0.68265066713E+02  0.20471347972E+04  0.20520945951E+04  0.00000000000E+00 0. -1.
<scales pt_clust_3="40.71348" pt_clust_4="54.14344" pt_clust_5="40.71348" pt_clust_6="149.34502"></scales>
<clustering>
<clus scale="   40.713">  3  5 -1 -1</clus>
<clus scale="   54.143">  2  4  1 -1</clus>
<clus scale="  149.345">  1  6  2 -1</clus>
<clus scale="   54.143">  2  3  1 -1</clus>
</clustering>
</event>
<event>
 6    0  0.2572175E+002  0.1427484E+03  0.7546771E-02  0.1209678E+00
          2   -1    0    0  504    0 -0.00000000000E+00  0.00000000000E+00  0.30747516454E+04  0.30747516454E+04  0.00000000000E+00 0. -1.
         21   -1    0    0  501  502  0.00000000000E+00 -0.00000000000E+00 -0.53390480466E+03  0.53390480466E+03  0.00000000000E+00 0.  1.
         21    1    1    2  503  505  0.93373920455E+01 -0.38895411549E+02 -0.81512104151E+02  0.90797924276E+02  0.00000000000E+00 0.  1.
         21    1    1    2  504  503 -0.52753076587E+02  0.39477361840E+02  0.52481402082E+03  0.52893393315E+03  0.00000000000E+00 0. -1.
         21    1    1    2  505  502  0.67372411407E+02 -0.65707342826E+02 -0.44024241776E+03  0.45018871944E+03  0.00000000000E+00 0.  1.
          2    1    1    2  501    0 -0.23956726866E+02  0.65125392536E+02  0.25377873418E+04  0.25387358732E+04  0.00000000000E+00 0. -1.
<scales pt_clust_3="39.18586" pt_clust_4="65.88892" pt_clust_5="39.18586" pt_clust_6="129.47771"></scales>
<clustering>
<clus scale="   39.186">  3  5 -1 -1</clus>
<clus scale="   65.889">  1  4  2 -1</clus>
<clus scale="  129.478">  1  6  2 -1</clus>
<clus scale="  142.748">  2  3  1 -1</clus>
</clustering>
</event>
<event>
 6    0  0.2572175E+002  0.1083476E+03  0.7546771E-02  0.1263661E+00
         21   -1    0    0  505  502  0.00000000000E+00  0.00000000000E+00  0.43926363702E+03  0.43926363702E+03  0.00000000000E+00 0.  1.
          1   -1    0    0  503    0 -0.00000000000E+00 -0.00000000000E+00 -0.28124718254E+03  0.28124718254E+03  0.00000000000E+00 0.  1.
         21    1    1    2  503  502 -0.74033836885E+02 -0.35369457961E+02  0.81365599952E+02  0.11555244877E+03  0.00000000000E+00 0.  1.
         21    1    1    2  504  501  0.81064895035E+02  0.61304522304E+02 -0.37600641229E+02  0.10836775297E+03  0.00000000000E+00 0.  1.
         21    1    1    2  505  504 -0.65637137220E+02 -0.27670918573E+02  0.29660738344E+03  0.30504074061E+03  0.00000000000E+00 0.  1.
          1    1    1    2  501    0  0.58606079071E+02  0.17358542298E+01 -0.18235588768E+03  0.19154987723E+03  0.00000000000E+00 0.  1.
<scales pt_clust_3="108.34763" pt_clust_4="14000.00000" pt_clust_5="68.79283" pt_clust_6="58.63178"></scales>
<clustering>
<clus scale="   58.632">  2  6  1 -1</clus>
<clus scale="   68.793">  1  5  2 -1</clus>
<clus scale="  108.348">  1  3  2 -1</clus>
<clus scale="   68.793">  1  3  2 -1</clus>
</clustering>
</event>
<event>
 6    0  0.2572175E+002  0.1156876E+03  0.7546771E-02  0.1250386E+00
          4   -1    0    0  505    0 -0.00000000000E+00  0.00000000000E+00  0.35246868061E+03  0.35246868061E+03  0.00000000000E+00 0.  1.
         21   -1    0    0  504  502  0.00000000000E+00 -0.00000000000E+00 -0.61071031325E+03  0.61071031325E+03  0.00000000000E+00 0.  1.
         21    1    1    2  503  502 -0.18268057619E+01 -0.51435851516E+02 -0.14295726498E+03  0.15194000017E+03  0.00000000000E+00 0. -1.
         21    1    1    2  504  501  0.52445802221E+02 -0.57548801034E+02 -0.42848098660E+03  0.43549785596E+03  0.00000000000E+00 0.  1.
         21    1    1    2  505  503 -0.61163259955E+02  0.95573765875E+01  0.18599563764E+02  0.64639241856E+02  0.00000000000E+00 0.  1.
          4    1    1    2  501    0  0.10544263495E+02  0.99427275963E+02  0.29459705518E+03  0.31110189587E+03  0.00000000000E+00 0.  1.
<scales pt_clust_3="51.46828" pt_clust_4="115.68763" pt_clust_5="61.65288" pt_clust_6="14000.00000"></scales>
<clustering>
<clus scale="   51.468">  2  3  1 -1</clus>
<clus scale="   61.653">  1  5  2 -1</clus>
<clus scale="  115.688">  2  4  1 -1</clus>
<clus scale="   51.468">  2  3  1 -1</clus>
</clustering>
</event>
<event>
 6    0  0.2572175E+002  0.8205439E+02  0.7546771E-02  0.1323320E+00
          2   -1    0    0  503    0 -0.00000000000E+00  0.00000000000E+00  0.18136027668E+04  0.18136027668E+04  0.00000000000E+00 0. -1.
         21   -1    0    0  504  502  0.00000000000E+00 -0.00000000000E+00 -0.21865979113E+02  0.21865979113E+02  0.00000000000E+00 0. -1.
         21    1    1    2  503  502  0.32198842138E+01  0.45326567204E+02  0.36200702121E+03  0.36484784329E+03  0.00000000000E+00 0. -1.
         21    1    1    2  504  505 -0.15526156482E+02  0.77453465358E+02  0.12125241657E+03  0.14471437162E+03  0.00000000000E+00 0. -1.
         21    1    1    2  505  501  0.82712380433E+02 -0.71582180853E+02  0.45336628832E+03  0.46637574752E+03  0.00000000000E+00 0. -1.
          2    1    1    2  501    0 -0.70406108165E+02 -0.51197851708E+02  0.85511106156E+03  0.85953078344E+03  0.00000000000E+00 0. -1.
<scales pt_clust_3="45.44079" pt_clust_4="14000.00000" pt_clust_5="82.05439" pt_clust_6="72.71887"></scales>
<clustering>
<clus scale="   45.441">  1  3  2 -1</clus>
<clus scale="   72.719">  1  6  2 -1</clus>
<clus scale="   82.054">  1  5  2 -1</clus>
<clus scale="   82.054">  2  3  1 -1</clus>
</clustering>
</event>
<event>
 6    0  0.4366089E+002  0.1651977E+03  0.7546771E-02  0.1182950E+00
         -1   -1    0    0    0  501 -0.00000000000E+00  0.00000000000E+00  0.95314839412E+03  0.95314839412E+03  0.00000000000E+00 0.  1.
         21   -1    0    0  505  502  0.00000000000E+00 -0.00000000000E+00 -0.38591320268E+03  0.38591320268E+03  0.00000000000E+00 0. -1.
         21    1    1    2  503  502  0.38800615088E+02 -0.84842189670E+01  0.16912348662E+02  0.43168243420E+02  0.00000000000E+00 0. -1.
         21    1    1    2  504  501 -0.48119553037E+02  0.39912771390E+02  0.61419255992E+02  0.87640434225E+02  0.00000000000E+00 0. -1.
         21    1    1    2  505  504  0.11692012973E+03  0.72699229521E+02 -0.33953715870E+03  0.36638910580E+03  0.00000000000E+00 0. -1.
         -1    1    1    2    0  503 -0.10760119178E+03 -0.10412778194E+03  0.82844074549E+03  0.84186381335E+03  0.00000000000E+00 0.  1.
<scales pt_clust_3="39.71737" pt_clust_4="61.28072" pt_clust_5="165.19768" pt_clust_6="14000.00000"></scales>
<clustering>
<clus scale="   39.717">  2  3  1 -1</clus>
<clus scale="   61.281">  1  4  2 -1</clus>
<clus scale="  165.198">  2  5  1 -1</clus>
<clus scale="   39.717">  2  3  1 -1</clus>
</clustering>
</event>
<event>
 6    0  0.2572175E+002  0.1102310E+03  0.7546771E-02  0.1260143E+00
          4   -1    0    0  503    0 -0.00000000000E+00  0.00000000000E+00  0.10724690090E+04  0.10724690090E+04  0.00000000000E+00 0. -1.
         21   -1    0    0  501  502  0.00000000000E+00 -0.00000000000E+00 -0.11559770515E+03  0.11559770515E+03  0.00000000000E+00 0. -1.
         21    1    1    2  503  505 -0.66023575075E+02  0.89700068518E+02  0.18473148044E+03  0.21571030254E+03  0.00000000000E+00 0. -1.
         21    1    1    2  504  502  0.32991882106E+02 -0.32899271240E+01 -0.67997551705E+02  0.75650214430E+02  0.00000000000E+00 0. -1.
         21    1    1    2  505  504  0.38546643107E+02  0.28563274550E+02 -0.74530566578E+00  0.47981869788E+02  0.00000000000E+00 0. -1.
          4    1    1    2  501    0 -0.55149501370E+01 -0.11497341594E+03  0.84088268083E+03  0.84872432742E+03  0.00000000000E+00 0. -1.
<scales pt_clust_3="110.23103" pt_clust_4="33.15551" pt_clust_5="62.87503" pt_clust_6="14000.00000"></scales>
<clustering>
<clus scale="   33.156">  2  4  1 -1</clus>
<clus scale="   62.875">  2  5  1 -1</clus>
<clus scale="  110.231">  2  3  1 -1</clus>
<clus scale="   33.156">  2  3  1 -1</clus>
</clustering>
</event>
<event>
 6    0  0.2572175E+002  0.1695814E+03  0.7546771E-02  0.1178285E+00
          2   -1    0    0  503    0 -0.00000000000E+00  0.00000000000E+00  0.28947377733E+04  0.28947377733E+04  0.00000000000E+00 0. -1.
         21   -1    0    0  504  502  0.00000000000E+00 -0.00000000000E+00 -0.38251212391E+02  0.38251212391E+02  0.00000000000E+00 0. -1.
         21    1    1    2  503  505  0.47671862227E+02  0.54386416202E+02  0.10047469723E+03  0.12379682346E+03  0.00000000000E+00 0. -1.
         21    1    1    2  504  501  0.12258039391E+01 -0.10423371893E+03  0.44487603662E+03  0.45692544110E+03  0.00000000000E+00 0.  1.
         21    1    1    2  505  502  0.85137322949E+02  0.13364223094E+03  0.34344509647E+03  0.37823688865E+03  0.00000000000E+00 0. -1.
          2    1    1    2  501    0 -0.13403498911E+03 -0.83794928210E+02  0.19676907305E+04  0.19740298324E+04  0.00000000000E+00 0. -1.
<scales pt_clust_3="30.06173" pt_clust_4="104.24093" pt_clust_5="30.06173" pt_clust_6="163.63932"></scales>
<clustering>
<clus scale="   30.062">  3  5 -1 -1</clus>
<clus scale="  104.241">  2  4  1 -1</clus>
<clus scale="  163.639">  1  6  2 -1</clus>
<clus scale="  104.241">  2  3  1 -1</clus>
</clustering>
</event>
<event>
 6    0  0.2572175E+002  0.1279964E+03  0.7546771E-02  0.1230459E+00
         21   -1    0    0  504  502  0.00000000000E+00  0.00000000000E+00  0.34370729835E+03  0.34370729835E+03  0.00000000000E+00 0. -1.
          2   -1    0    0  503    0 -0.00000000000E+00 -0.00000000000E+00 -0.36736138173E+03  0.36736138173E+03  0.00000000000E+00 0. -1.
         21    1    1    2  503  502 -0.20516363120E+02 -0.15149626255E+03 -0.16595651282E+03  0.22564042827E+03  0.00000000000E+00 0. -1.
         21    1    1    2  504  505 -0.67593435970E+01  0.73029700999E+02  0.18967509747E+03  0.20336093173E+03  0.00000000000E+00 0. -1.
         21    1    1    2  505  501  0.26939708084E+02  0.44675927150E+02  0.10966139973E+03  0.12143849855E+03  0.00000000000E+00 0. -1.
          2    1    1    2  501    0  0.33599863335E+00  0.33790634403E+02 -0.15703406776E+03  0.16062882153E+03  0.00000000000E+00 0. -1.
<scales pt_clust_3="121.46031" pt_clust_4="34.06841" pt_clust_5="34.06841" pt_clust_6="33.79230"></scales>
<clustering>
<clus scale="   33.792">  2  6  1 -1</clus>
<clus scale="   34.068">  4  5 -1 -1</clus>
<clus scale="  121.460">  2  3  1 -1</clus>
<clus scale="  127.996">  1  3  2 -1</clus>
</clustering>
</event>
<event>
 6    0  0.2572175E+002  0.7927968E+02  0.7546771E-02  0.1331108E+00
         21   -1    0    0  505  502  0.00000000000E+00  0.00000000000E+00  0.50735508807E+02  0.50735508807E+02  0.00000000000E+00 0. -1.
          2   -1    0    0  503    0 -0.00000000000E+00 -0.00000000000E+00 -0.27375005477E+04  0.27375005477E+04  0.00000000000E+00 0. -1.
         21    1    1    2  503  502 -0.15973420824E+02 -0.46420200357E+02  0.14819755616E+02  0.51279726311E+02  0.00000000000E+00 0. -1.
         21    1    1    2  504  501  0.71286995248E+02  0.44017461945E+02 -0.43285580399E+03  0.44088946426E+03  0.00000000000E+00 0.  1.
         21    1    1    2  505  504  0.20420959104E+02 -0.37498673649E+02 -0.22606535256E+02  0.48313782013E+02  0.00000000000E+00 0. -1.
          2    1    1    2  501    0 -0.75734533528E+02  0.39901412060E+02 -0.22461224553E+04  0.22477530840E+04  0.00000000000E+00 0. -1.
<scales pt_clust_3="79.15706" pt_clust_4="79.27968" pt_clust_5="42.69855" pt_clust_6="14000.00000"></scales>
<clustering>
<clus scale="   42.699">  1  5  2 -1</clus>
<clus scale="   79.157">  1  3  2 -1</clus>
<clus scale="   79.280">  1  4  2 -1</clus>
<clus scale="   42.699">  1  3  2 -1</clus>
</clustering>
</event>
<event>
 6    0  0.2572175E+002  0.9501848E+02  0.7546771E-02  0.1291134E+00
         -4   -1    0    0    0  501 -0.00000000000E+00  0.00000000000E+00  0.16093788015E+04  0.16093788015E+04  0.00000000000E+00 0.  1.
         21   -1    0    0  505  502  0.00000000000E+00 -0.00000000000E+00 -0.25215546627E+02  0.25215546627E+02  0.00000000000E+00 0.  1.
         21    1    1    2  503  501  0.71113740610E+02  0.80260988831E+02  0.39603039097E+03  0.41029143423E+03  0.00000000000E+00 0.  1.
         21    1    1    2  504  502 -0.43171962366E+02 -0.42924173010E+02  0.99497064038E+02  0.11664462575E+03  0.00000000000E+00 0.  1.
         21    1    1    2  505  503 -0.36222390554E+02  0.61961082022E+02  0.18321931925E+03  0.19677539534E+03  0.00000000000E+00 0.  1.
         -4    1    1    2    0  504  0.82806123096E+01 -0.99297897844E+02  0.90541648062E+03  0.91088289282E+03  0.00000000000E+00 0.  1.
<scales pt_clust_3="95.01848" pt_clust_4="60.87941" pt_clust_5="69.80983" pt_clust_6="14000.00000"></scales>
<clustering>
<clus scale="   60.879">  2  4  1 -1</clus>
<clus scale="   69.810">  2  5  1 -1</clus>
<clus scale="   95.018">  2  3  1 -1</clus>
<clus scale="   60.879">  2  3  1 -1</clus>
</clustering>
</event>
<event>
 6    0  0.2572175E+002  0.1062678E+03  0.7546771E-02  0.1267642E+00
         21   -1    0    0  503  502  0.00000000000E+00  0.00000000000E+00  0.26002773963E+03  0.26002773963E+03  0.00000000000E+00 0. -1.
          2   -1    0    0  504    0 -0.00000000000E+00 -0.00000000000E+00 -0.22034984787E+04  0.22034984787E+04  0.00000000000E+00 0. -1.
         21    1    1    2  503  501 -0.72023861486E+02  0.30592714250E+02 -0.91442259382E+01  0.78784310980E+02  0.00000000000E+00 0. -1.
         21    1    1    2  504  505  0.13942468419E+03 -0.10496457680E+01 -0.12407736668E+03  0.18664280656E+03  0.00000000000E+00 0. -1.
         21    1    1    2  505  502 -0.40356782183E+02  0.21010357361E+02  0.19084005130E+03  0.19618876156E+03  0.00000000000E+00 0. -1.
          2    1    1    2  501    0 -0.27044040521E+02 -0.50553425842E+02 -0.20010891977E+04  0.20019103392E+04  0.00000000000E+00 0. -1.
<scales pt_clust_3="106.26783" pt_clust_4="14000.00000" pt_clust_5="45.49841" pt_clust_6="57.33646"></scales>
<clustering>
<clus scale="   45.498">  1  5  2 -1</clus>
<clus scale="   57.336">  2  6  1 -1</clus>
<clus scale="  106.268">  1  3  2 -1</clus>
<clus scale="   45.498">  1  3  2 -1</clus>
</clustering>
</event>
<event>
 6    0  0.2572175E+002  0.8315165E+02  0.7546771E-02  0.1320338E+00
          3   -1    0    0  505    0 -0.00000000000E+00  0.00000000000E+00  0.60794482838E+02  0.60794482838E+02  0.00000000000E+00 0.  1.
         21   -1    0    0  504  502  0.00000000000E+00 -0.00000000000E+00 -0.16376975653E+04  0.16376975653E+04  0.00000000000E+00 0.  1.
         21    1    1    2  503  502  0.31762964845E+02  0.53996159960E+01 -0.12884711638E+03  0.13281423564E+03  0.00000000000E+00 0.  1.
         21    1    1    2  504  501  0.24001539195E+02 -0.90006711949E+02 -0.88405859694E+03  0.88895268992E+03  0.00000000000E+00 0.  1.
         21    1    1    2  505  503  0.27250582399E+02  0.73040246734E+02 -0.58511756614E+03  0.59028809754E+03  0.00000000000E+00 0.  1.
          3    1    1    2  501    0 -0.83015086439E+02  0.11566849219E+02  0.21120197005E+02  0.86437025046E+02  0.00000000000E+00 0.  1.
<scales pt_clust_3="32.21866" pt_clust_4="81.20313" pt_clust_5="14000.00000" pt_clust_6="83.15165"></scales>
<clustering>
<clus scale="   32.219">  2  3  1 -1</clus>
<clus scale="   83.152">  1  6  2 -1</clus>
<clus scale="   81.203">  2  4  1 -1</clus>
<clus scale="   32.219">  2  3  1 -1</clus>
</clustering>
</event>
<event>
 6    0  0.2572175E+002  0.9882459E+02  0.7546771E-02  0.1282787E+00
          2   -1    0    0  505    0 -0.00000000000E+00  0.00000000000E+00  0.46545924189E+03  0.46545924189E+03  0.00000000000E+00 0. -1.
         21   -1    0    0  503  502  0.00000000000E+00 -0.00000000000E+00 -0.99519630855E+02  0.99519630855E+02  0.00000000000E+00 0. -1.
         21    1    1    2  503  501 -0.23413142825E+02 -0.41110577568E+02  0.36993084244E+02  0.60056166434E+02  0.00000000000E+00 0.  1.
         21    1    1    2  504  502  0.72865700520E+02  0.37606314409E+02 -0.42280092254E+02  0.92256443660E+02  0.00000000000E+00 0. -1.
         21    1    1    2  505  504  0.32261967115E+02  0.26119286475E+02  0.11486443824E+02  0.43069595306E+02  0.00000000000E+00 0. -1.
          2    1    1    2  501    0 -0.81714524811E+02 -0.22615023316E+02  0.35974017522E+03  0.36959666734E+03  0.00000000000E+00 0. -1.
<scales pt_clust_3="47.31020" pt_clust_4="33.76511" pt_clust_5="33.76511" pt_clust_6="86.68443"></scales>
<clustering>
<clus scale="   33.765">  4  5 -1 -1</clus>
<clus scale="   47.310">  2  3  1 -1</clus>
<clus scale="   86.684">  1  6  2 -1</clus>
<clus scale="   47.310">  2  3  1 -1</clus>
</clustering>
</event>
<event>
 6    0  0.2572175E+002  0.7877291E+02  0.7546771E-02  0.1332570E+00
         21   -1    0    0  504  502  0.00000000000E+00  0.00000000000E+00  0.53468256019E+03  0.53468256019E+03  0.00000000000E+00 0. -1.
          2   -1    0    0  505    0 -0.00000000000E+00 -0.00000000000E+00 -0.16215653881E+04  0.16215653881E+04  0.00000000000E+00 0. -1.
         21    1    1    2  503  502 -0.19263274375E+02  0.33392469772E+02  0.36112421133E+03  0.36317602727E+03  0.00000000000E+00 0. -1.
         21    1    1    2  504  501  0.65497373647E+02 -0.17515658721E+02  0.14376402965E+03  0.15894904994E+03  0.00000000000E+00 0. -1.
         21    1    1    2  505  503 -0.51750062927E+02  0.63284132130E+02 -0.62780301217E+02  0.10307432568E+03  0.00000000000E+00 0.  1.
          2    1    1    2  501    0  0.55159636547E+01 -0.79160943181E+02 -0.15289907676E+04  0.15310485454E+04  0.00000000000E+00 0. -1.
<scales pt_clust_3="38.55037" pt_clust_4="50.00533" pt_clust_5="14000.00000" pt_clust_6="78.77291"></scales>
<clustering>
<clus scale="   38.550">  1  3  2 -1</clus>
<clus scale="   50.005">  1  4  2 -1</clus>
<clus scale="   78.773">  2  6  1 -1</clus>
<clus scale="   38.550">  1  3  2 -1</clus>
</clustering>
</event>
<event>
 6    0  0.2572175E+002  0.6909677E+02  0.7546771E-02  0.1363192E+00
         21   -1    0    0  503  502  0.00000000000E+00  0.00000000000E+00  0.89747000256E+03  0.89747000256E+03  0.00000000000E+00 0.  1.
          2   -1    0    0  504    0 -0.00000000000E+00 -0.00000000000E+00 -0.17126984575E+04  0.17126984575E+04  0.00000000000E+00 0.  1.
         21    1    1    2  503  501  0.56117160947E+02  0.35101918055E+02  0.10330792298E+03  0.12269395810E+03  0.00000000000E+00 0. -1.
         21    1    1    2  504  505 -0.14375093651E+02 -0.85013476000E+02  0.18845847685E+02  0.88255880223E+02  0.00000000000E+00 0. -1.
         21    1    1    2  505  502 -0.68104992238E+02  0.30922488527E+02  0.72884590398E+03  0.73267376234E+03  0.00000000000E+00 0.  1.
          2    1    1    2  501    0  0.26362924942E+02  0.18989069417E+02 -0.16662281296E+04  0.16665448594E+04  0.00000000000E+00 0.  1.
<scales pt_clust_3="69.09677" pt_clust_4="70.98776" pt_clust_5="14000.00000" pt_clust_6="32.48982"></scales>
<clustering>
<clus scale="   32.490">  2  6  1 -1</clus>
<clus scale="   70.988">  2  4  1 -1</clus>
<clus scale="   69.097">  2  3  1 -1</clus>
<clus scale="   69.097">  1  3  2 -1</clus>
</clustering>
</event>
<event>
 6    0  0.2572175E+002  0.7886142E+02  0.7546771E-02  0.1332314E+00
         21   -1    0    0  505  502  0.00000000000E+00  0.00000000000E+00  0.22617445836E+03  0.22617445836E+03  0.00000000000E+00 0. -1.
          2   -1    0    0  502    0 -0.00000000000E+00 -0.00000000000E+00 -0.12134025745E+04  0.12134025745E+04  0.00000000000E+00 0. -1.
         21    1    1    2  503  501 -0.21781270506E+02 -0.83989668489E+02  0.26940451705E+02  0.90854147378E+02  0.00000000000E+00 0. -1.
         21    1    1    2  504  503 -0.69145988814E+02  0.32655087200E+01  0.10621531188E+03  0.12678140161E+03  0.00000000000E+00 0. -1.
         21    1    1    2  505  504  0.19394342852E+02  0.46325356702E+02  0.36659995272E+02  0.62178247495E+02  0.00000000000E+00 0. -1.
          2    1    1    2  501    0  0.71532916468E+02  0.34398803067E+02 -0.11570438749E+04  0.11597632363E+04  0.00000000000E+00 0. -1.
<scales pt_clust_3="14000.00000" pt_clust_4="65.72020" pt_clust_5="50.22130" pt_clust_6="78.86142"></scales>
<clustering>
<clus scale="   50.221">  1  5  2 -1</clus>
<clus scale="   65.720">  1  4  2 -1</clus>
<clus scale="   78.861">  2  6  1 -1</clus>
<clus scale="   50.221">  1  3  2 -1</clus>
</clustering>
</event>
<event>
 6    0  0.2572175E+002  0.1365092E+03  0.7546771E-02  0.1218105E+00
         21   -1    0    0  501  502  0.00000000000E+00  0.00000000000E+00  0.57398020116E+02  0.57398020116E+02  0.00000000000E+00 0.  1.
          2   -1    0    0  504    0 -0.00000000000E+00 -0.00000000000E+00 -0.28128687214E+04  0.28128687214E+04  0.00000000000E+00 0.  1.
         21    1    1    2  503  505 -0.46518227338E+02 -0.39353908929E+02 -0.43843049470E+02  0.75065895116E+02  0.00000000000E+00 0.  1.
         21    1    1    2  504  503  0.12937281359E+03  0.41646836212E+02 -0.37598461147E+03  0.39979521248E+03  0.00000000000E+00 0.  1.
         21    1    1    2  505  502 -0.62523397410E+02 -0.35739598747E+02 -0.13917009850E+02  0.73349691925E+02  0.00000000000E+00 0.  1.
          2    1    1    2  501    0 -0.20331188838E+02  0.33446671465E+02 -0.23217260305E+04  0.23220559420E+04  0.00000000000E+00 0.  1.
<scales pt_clust_3="31.35296" pt_clust_4="132.18512" pt_clust_5="31.35296" pt_clust_6="39.14125"></scales>
<clustering>
<clus scale="   31.353">  3  5 -1 -1</clus>
<clus scale="   39.141">  2  6  1 -1</clus>
<clus scale="  132.185">  2  4  1 -1</clus>
<clus scale="  136.509">  1  3  2 -1</clus>
</clustering>
</event>
<event>
 6    0  0.2572175E+002  0.1361262E+03  0.7546771E-02  0.1218639E+00
          2   -1    0    0  505    0 -0.00000000000E+00  0.00000000000E+00  0.13682037049E+04  0.13682037049E+04  0.00000000000E+00 0. -1.
         21   -1    0    0  504  502  0.00000000000E+00 -0.00000000000E+00 -0.35370111019E+02  0.35370111019E+02  0.00000000000E+00 0.  1.
         21    1    1    2  503  501  0.12940932040E+03  0.10997192984E+03  0.37763163281E+03  0.41406068113E+03  0.00000000000E+00 0.  1.
         21    1    1    2  504  503  0.13890789260E+02 -0.29792451601E+02  0.66157627532E+02  0.73874054168E+02  0.00000000000E+00 0.  1.
         21    1    1    2  505  502 -0.95203653994E+02 -0.58600796982E+02  0.24339405766E+03  0.26784035627E+03  0.00000000000E+00 0.  1.
          2    1    1    2  501    0 -0.48096455662E+02 -0.21578681262E+02  0.64565027583E+03  0.64779872431E+03  0.00000000000E+00 0. -1.
<scales pt_clust_3="136.12621" pt_clust_4="32.87163" pt_clust_5="14000.00000" pt_clust_6="52.71096"></scales>
<clustering>
<clus scale="   32.872">  2  4  1 -1</clus>
<clus scale="   52.711">  1  6  2 -1</clus>
<clus scale="  136.126">  1  3  2 -1</clus>
<clus scale="   32.872">  2  3  1 -1</clus>
</clustering>
</event>
<event>
 6    0  0.2572175E+002  0.6884099E+02  0.7546771E-02  0.1364079E+00
         21   -1    0    0  504  502  0.00000000000E+00  0.00000000000E+00  0.55702249265E+02  0.55702249265E+02  0.00000000000E+00 0. -1.
          2   -1    0    0  505    0 -0.00000000000E+00 -0.00000000000E+00 -0.74810789061E+03  0.74810789061E+03  0.00000000000E+00 0. -1.
         21    1    1    2  503  501  0.66154152732E+02  0.37487252973E+02 -0.17009463567E+03  0.18631653481E+03  0.00000000000E+00 0. -1.
         21    1    1    2  504  503 -0.17895213734E+02 -0.60009343477E+02 -0.73706934944E+02  0.96716452778E+02  0.00000000000E+00 0. -1.
         21    1    1    2  505  502 -0.54110446172E+02  0.65301374664E+02 -0.16345836551E+02  0.86367796605E+02  0.00000000000E+00 0. -1.
          2    1    1    2  501    0  0.58515071740E+01 -0.42779284160E+02 -0.43225823418E+03  0.43440935569E+03  0.00000000000E+00 0. -1.
<scales pt_clust_3="70.72269" pt_clust_4="68.84099" pt_clust_5="14000.00000" pt_clust_6="43.17762"></scales>
<clustering>
<clus scale="   43.178">  2  6  1 -1</clus>
<clus scale="   70.723">  2  3  1 -1</clus>
<clus scale="   68.841">  2  4  1 -1</clus>
<clus scale="   68.841">  1  3  2 -1</clus>
</clustering>
</event>
<event>
 6    0  0.2572175E+002  0.1177603E+03  0.7546771E-02  0.1246838E+00
          1   -1    0    0  502    0 -0.00000000000E+00  0.00000000000E+00  0.59482094713E+03  0.59482094713E+03  0.00000000000E+00 0. -1.
         21   -1    0    0  505  502  0.00000000000E+00 -0.00000000000E+00 -0.25646902776E+03  0.25646902776E+03  0.00000000000E+00 0.  1.
         21    1    1    2  503  501 -0.91933904801E+02  0.53786418964E+01  0.53063824788E+02  0.10628519249E+03  0.00000000000E+00 0. -1.
         21    1    1    2  504  503  0.17983568854E+02 -0.31008965803E+02 -0.56069907747E+02  0.66549224365E+02  0.00000000000E+00 0.  1.
         21    1    1    2  505  504  0.84418292593E+02 -0.11851163013E+02 -0.15696280072E+03  0.17861752153E+03  0.00000000000E+00 0.  1.
          1    1    1    2  501    0 -0.10467956645E+02  0.37481486920E+02  0.49832080305E+03  0.49983803650E+03  0.00000000000E+00 0. -1.
<scales pt_clust_3="107.08325" pt_clust_4="31.77250" pt_clust_5="31.77250" pt_clust_6="38.91581"></scales>
<clustering>
<clus scale="   31.773">  4  5 -1 -1</clus>
<clus scale="   38.916">  1  6  2 -1</clus>
<clus scale="  107.083">  1  3  2 -1</clus>
<clus scale="  117.760">  2  3  1 -1</clus>
</clustering>
</event>
<event>
 6    0  0.2572175E+002  0.1948370E+03  0.7546771E-02  0.1154170E+00
          1   -1    0    0  504    0 -0.00000000000E+00  0.00000000000E+00  0.55380833622E+03  0.55380833622E+03  0.00000000000E+00 0.  1.
         21   -1    0    0  505  502  0.00000000000E+00 -0.00000000000E+00 -0.27354843251E+03  0.27354843251E+03  0.00000000000E+00 0.  1.
         21    1    1    2  503  501 -0.29913407805E+01  0.39907066314E+02  0.29929428478E+02  0.49972920172E+02  0.00000000000E+00 0.  1.
         21    1    1    2  504  502 -0.13600683528E+03 -0.12830505327E+03 -0.17224794004E+03  0.25422312795E+03  0.00000000000E+00 0.  1.
         21    1    1    2  505  503  0.10343619661E+03  0.87851329007E+02  0.43634330524E+02  0.14255124544E+03  0.00000000000E+00 0.  1.
          1    1    1    2  501    0  0.35561979448E+02  0.54665795130E+00  0.37894408475E+03  0.38060947517E+03  0.00000000000E+00 0.  1.
<scales pt_clust_3="37.45037" pt_clust_4="180.88373" pt_clust_5="37.45037" pt_clust_6="35.56618"></scales>
<clustering>
<clus scale="   35.566">  1  6  2 -1</clus>
<clus scale="   37.450">  3  5 -1 -1</clus>
<clus scale="  180.884">  2  4  1 -1</clus>
<clus scale="  180.884">  2  3  1 -1</clus>
</clustering>
</event>
<event>
 6    0  0.2572175E+002  0.7675443E+02  0.7546771E-02  0.1338523E+00
          3   -1    0    0  503    0 -0.00000000000E+00  0.00000000000E+00  0.54828497107E+03  0.54828497107E+03  0.00000000000E+00 0. -1.
         21   -1    0    0  505  502  0.00000000000E+00 -0.00000000000E+00 -0.60398280089E+02  0.60398280089E+02  0.00000000000E+00 0. -1.
         21    1    1    2  503  504 -0.36705839189E+02  0.26325144665E+02  0.67452486380E+02  0.81179860748E+02  0.00000000000E+00 0. -1.
         21    1    1    2  504  502  0.70269882959E+01  0.69001102628E+02  0.61377740473E+02  0.92616185162E+02  0.00000000000E+00 0. -1.
         21    1    1    2  505  501  0.48880254824E+02 -0.61592379994E+01 -0.13697943204E+02  0.51135595943E+02  0.00000000000E+00 0. -1.
          3    1    1    2  501    0 -0.19201403930E+02 -0.89167009294E+02  0.37275440733E+03  0.38375160931E+03  0.00000000000E+00 0. -1.
<scales pt_clust_3="45.17003" pt_clust_4="76.75443" pt_clust_5="47.70610" pt_clust_6="14000.00000"></scales>
<clustering>
<clus scale="   45.170">  1  3  2 -1</clus>
<clus scale="   47.706">  2  5  1 -1</clus>
<clus scale="   76.754">  2  4  1 -1</clus>
<clus scale="   47.706">  2  3  1 -1</clus>
</clustering>
</event>
<event>
 6    0  0.2572175E+002  0.1044099E+03  0.7546771E-02  0.1271287E+00
         21   -1    0    0  503  502  0.00000000000E+00  0.00000000000E+00  0.31541563605E+02  0.31541563605E+02  0.00000000000E+00 0.  1.
          2   -1    0    0  504    0 -0.00000000000E+00 -0.00000000000E+00 -0.20068336462E+04  0.20068336462E+04  0.00000000000E+00 0.  1.
         21    1    1    2  503  505 -0.36484282875E+02 -0.17459212211E+02 -0.32186058927E+02  0.51690128431E+02  0.00000000000E+00 0.  1.
         21    1    1    2  504  502  0.12907493309E+03  0.25625289194E+02 -0.32855708968E+03  0.35393043804E+03  0.00000000000E+00 0.  1.
         21    1    1    2  505  501 -0.24322498906E+02 -0.48912543172E+02 -0.84361017959E+02  0.10050274714E+03  0.00000000000E+00 0.  1.
          2    1    1    2  501    0 -0.68268151308E+02  0.40746466188E+02 -0.15301879160E+04  0.15322518961E+04  0.00000000000E+00 0.  1.
<scales pt_clust_3="33.06723" pt_clust_4="97.08066" pt_clust_5="33.06723" pt_clust_6="79.50355"></scales>
<clustering>
<clus scale="   33.067">  3  5 -1 -1</clus>
<clus scale="   79.504">  2  6  1 -1</clus>
<clus scale="   97.081">  2  4  1 -1</clus>
<clus scale="  104.410">  1  3  2 -1</clus>
</clustering>
</event>
<event>
 6    0  0.2572175E+002  0.9335904E+02  0.7546771E-02  0.1294915E+00
         21   -1    0    0  501  502  0.00000000000E+00  0.00000000000E+00  0.19811650835E+03  0.19811650835E+03  0.00000000000E+00 0.  1.
          2   -1    0    0  504    0 -0.00000000000E+00 -0.00000000000E+00 -0.30587702512E+03  0.30587702512E+03  0.00000000000E+00 0. -1.
         21    1    1    2  503  505  0.24339302273E+02  0.62613656619E+02  0.60504739622E+02  0.90408490459E+02  0.00000000000E+00 0.  1.
         21    1    1    2  504  503 -0.89237043499E+02 -0.58855102138E+02 -0.13588447870E+03  0.17289234954E+03  0.00000000000E+00 0. -1.
         21    1    1    2  505  502  0.34994601196E+02  0.19470883446E+02  0.97500450694E+02  0.10540434194E+03  0.00000000000E+00 0.  1.
          2    1    1    2  501    0  0.29903140030E+02 -0.23229437927E+02 -0.12988122839E+03  0.13528835152E+03  0.00000000000E+00 0. -1.
<scales pt_clust_3="93.35904" pt_clust_4="14000.00000" pt_clust_5="40.39285" pt_clust_6="37.86561"></scales>
<clustering>
<clus scale="   37.866">  2  6  1 -1</clus>
<clus scale="   40.393">  1  5  2 -1</clus>
<clus scale="   93.359">  1  3  2 -1</clus>
<clus scale="   40.393">  1  3  2 -1</clus>
</clustering>
</event>
<event>
 6    0  0.2572175E+002  0.1333616E+03  0.7546771E-02  0.1222551E+00
         21   -1    0    0  505  502  0.00000000000E+00  0.00000000000E+00  0.41853705569E+04  0.41853705569E+04  0.00000000000E+00 0.  1.
          2   -1    0    0  504    0 -0.00000000000E+00 -0.00000000000E+00 -0.11230931013E+02  0.11230931013E+02  0.00000000000E+00 0.  1.
         21    1    1    2  503  502  0.78260349027E+02  0.69299361693E+02  0.21703962201E+04  0.21729120636E+04  0.00000000000E+00 0.  1.
         21    1    1    2  504  503  0.42216411104E+02  0.74216166437E+02  0.57336973649E+03  0.57969226271E+03  0.00000000000E+00 0.  1.
         21    1    1    2  505  501 -0.77916380621E+02 -0.10687498065E+03  0.77342572401E+03  0.78465315548E+03  0.00000000000E+00 0.  1.
          2    1    1    2  501    0 -0.42560379510E+02 -0.36640547481E+02  0.65694794527E+03  0.65934400613E+03  0.00000000000E+00 0.  1.
<scales pt_clust_3="117.20801" pt_clust_4="85.38305" pt_clust_5="41.45668" pt_clust_6="41.45668"></scales>
<clustering>
<clus scale="   41.457">  5  6 -1 -1</clus>
<clus scale="   85.383">  2  4  1 -1</clus>
<clus scale="  117.208">  1  3  2 -1</clus>
<clus scale="  117.208">  1  3  2 -1</clus>
</clustering>
</event>
<event>
 6    0  0.2572175E+002  0.1196478E+03  0.7546771E-02  0.1243679E+00
         21   -1    0    0  504  502  0.00000000000E+00  0.00000000000E+00  0.11061869627E+03  0.11061869627E+03  0.00000000000E+00 0. -1.
          1   -1    0    0  503    0 -0.00000000000E+00 -0.00000000000E+00 -0.10326266040E+04  0.10326266040E+04  0.00000000000E+00 0. -1.
         21    1    1    2  503  505  0.15814103560E+03 -0.86936949943E+02 -0.14122269461E+03  0.22915163076E+03  0.00000000000E+00 0. -1.
         21    1    1    2  504  501 -0.64165675369E+02  0.88061350562E+02 -0.51184638500E+02  0.12038231837E+03  0.00000000000E+00 0. -1.
         21    1    1    2  505  502  0.59554300833E+01 -0.55088494069E+02 -0.86158675118E-01  0.55409536630E+02  0.00000000000E+00 0.  1.
          1    1    1    2  501    0 -0.99930790315E+02  0.53964093450E+02 -0.72951441597E+03  0.73830181453E+03  0.00000000000E+00 0. -1.
<scales pt_clust_3="14000.00000" pt_clust_4="89.67044" pt_clust_5="55.40947" pt_clust_6="119.64783"></scales>
<clustering>
<clus scale="   55.409">  1  5  2 -1</clus>
<clus scale="   89.670">  1  4  2 -1</clus>
<clus scale="  119.648">  2  6  1 -1</clus>
<clus scale="   55.409">  1  3  2 -1</clus>
</clustering>
</event>
<event>
 6    0  0.2572175E+002  0.1569348E+03  0.7546771E-02  0.1192201E+00
         21   -1    0    0  503  502  0.00000000000E+00  0.00000000000E+00  0.12198418316E+03  0.12198418316E+03  0.00000000000E+00 0.  1.
          2   -1    0    0  504    0 -0.00000000000E+00 -0.00000000000E+00 -0.74152016241E+03  0.74152016241E+03  0.00000000000E+00 0.  1.
         21    1    1    2  503  501 -0.68990352047E+02 -0.19518726603E+03 -0.42664944481E+02  0.21137179326E+03  0.00000000000E+00 0.  1.
         21    1    1    2  504  505  0.42085634585E+02  0.19386283168E+02 -0.12361632119E+03  0.13201523956E+03  0.00000000000E+00 0. -1.
         21    1    1    2  505  502  0.43236507958E+02  0.10567795216E+03 -0.78628563099E+02  0.13863504653E+03  0.00000000000E+00 0.  1.
          2    1    1    2  501    0 -0.16331790496E+02  0.70123030710E+02 -0.37462615048E+03  0.38148226622E+03  0.00000000000E+00 0.  1.
<scales pt_clust_3="14000.00000" pt_clust_4="46.33604" pt_clust_5="156.93476" pt_clust_6="82.62425"></scales>
<clustering>
<clus scale="   46.336">  2  4  1 -1</clus>
<clus scale="   82.624">  2  6  1 -1</clus>
<clus scale="  156.935">  1  5  2 -1</clus>
<clus scale="  156.935">  1  3  2 -1</clus>
</clustering>
</event>
<event>
 6    0  0.2572175E+002  0.7947522E+02  0.7546771E-02  0.1330547E+00
         21   -1    0    0  503  502  0.00000000000E+00  0.00000000000E+00  0.85495869512E+02  0.85495869512E+02  0.00000000000E+00 0. -1.
          2   -1    0    0  504    0 -0.00000000000E+00 -0.00000000000E+00 -0.14895812071E+04  0.14895812071E+04  0.00000000000E+00 0. -1.
         21    1    1    2  503  501  0.26906303315E+02  0.18009139652E+02  0.52223684243E+01  0.32795600331E+02  0.00000000000E+00 0. -1.
         21    1    1    2  504  505 -0.27887997655E+02  0.15956432652E+02 -0.98516792384E+02  0.10362387050E+03  0.00000000000E+00 0. -1.
         21    1    1    2  505  502 -0.10036865888E+03 -0.40247076676E+02  0.14833159574E+02  0.10914997705E+03  0.00000000000E+00 0. -1.
          2    1    1    2  501    0  0.10135035322E+03  0.62815043714E+01 -0.13256240732E+04  0.13295076287E+04  0.00000000000E+00 0. -1.
<scales pt_clust_3="32.23640" pt_clust_4="32.13018" pt_clust_5="79.47522" pt_clust_6="14000.00000"></scales>
<clustering>
<clus scale="   32.130">  2  4  1 -1</clus>
<clus scale="   32.236">  1  3  2 -1</clus>
<clus scale="   79.475">  1  5  2 -1</clus>
<clus scale="   32.236">  1  3  2 -1</clus>
</clustering>
</event>
<event>
 6    0  0.2572175E+002  0.1481525E+03  0.7546771E-02  0.1202762E+00
         21   -1    0    0  503  502  0.00000000000E+00  0.00000000000E+00  0.24666801799E+03  0.24666801799E+03  0.00000000000E+00 0. -1.
          2   -1    0    0  504    0 -0.00000000000E+00 -0.00000000000E+00 -0.20608734590E+04  0.20608734590E+04  0.00000000000E+00 0. -1.
         21    1    1    2  503  501  0.36056933897E+02 -0.13523404854E+02 -0.15745019764E+02  0.41603973468E+02  0.00000000000E+00 0. -1.
         21    1    1    2  504  505  0.11932754867E+03  0.10174627817E+03 -0.34741082842E+03  0.38116355111E+03  0.00000000000E+00 0. -1.
         21    1    1    2  505  502 -0.13473613558E+03 -0.61111376775E+02  0.19143173509E+03  0.24193911590E+03  0.00000000000E+00 0. -1.
          2    1    1    2  501    0 -0.20648346988E+02 -0.27111496536E+02 -0.16424813279E+04  0.16428348365E+04  0.00000000000E+00 0. -1.
<scales pt_clust_3="37.90287" pt_clust_4="14000.00000" pt_clust_5="148.15248" pt_clust_6="34.07914"></scales>
<clustering>
<clus scale="   34.079">  2  6  1 -1</clus>
<clus scale="   37.903">  2  3  1 -1</clus>
<clus scale="  148.152">  1  5  2 -1</clus>
<clus scale="  148.152">  1  3  2 -1</clus>
</clustering>
</event>
<event>
 6    0  0.2572175E+002  0.1137871E+03  0.7546771E-02  0.1253713E+00
         21   -1    0    0  505  502  0.00000000000E+00  0.00000000000E+00  0.51136089222E+03  0.51136089222E+03  0.00000000000E+00 0.  1.
         -4   -1    0    0    0  501 -0.00000000000E+00 -0.00000000000E+00 -0.19028771324E+03  0.19028771324E+03  0.00000000000E+00 0. -1.
         21    1    1    2  503  502 -0.27539625238E+02  0.19974314566E+02  0.24064280712E+03  0.24303572746E+03  0.00000000000E+00 0.  1.
         21    1    1    2  504  503 -0.80833135867E+02 -0.10863835357E+03  0.73111167891E+02  0.15388804564E+03  0.00000000000E+00 0.  1.
         21    1    1    2  505  501  0.53937946434E+02 -0.68310822422E+01  0.12945539937E+03  0.14040892485E+03  0.00000000000E+00 0.  1.
         -4    1    1    2    0  504  0.54434814672E+02  0.95495121250E+02 -0.12213619541E+03  0.16431590751E+03  0.00000000000E+00 0. -1.
<scales pt_clust_3="34.02064" pt_clust_4="113.78714" pt_clust_5="40.27547" pt_clust_6="14000.00000"></scales>
<clustering>
<clus scale="   34.021">  1  3  2 -1</clus>
<clus scale="   40.275">  1  5  2 -1</clus>
<clus scale="  113.787">  1  4  2 -1</clus>
<clus scale="   34.021">  1  3  2 -1</clus>
</clustering>
</event>
<event>
 6    0  0.2572175E+002  0.1197941E+03  0.7546771E-02  0.1243437E+00
         21   -1    0    0  504  502  0.00000000000E+00  0.00000000000E+00  0.43558483910E+03  0.43558483910E+03  0.00000000000E+00 0.  1.
          2   -1    0    0  503    0 -0.00000000000E+00 -0.00000000000E+00 -0.14601202008E+04  0.14601202008E+04  0.00000000000E+00 0.  1.
         21    1    1    2  503  505 -0.35064134930E+01 -0.44839621261E+02  0.91422774564E+02  0.10188724297E+03  0.00000000000E+00 0.  1.
         21    1    1    2  504  501  0.18165135394E+02  0.15336964206E+03 -0.20743039047E+02  0.15582840858E+03  0.00000000000E+00 0.  1.
         21    1    1    2  505  502 -0.72026519689E+01 -0.64543434560E+02  0.26713140690E+03  0.27491257100E+03  0.00000000000E+00 0.  1.
          2    1    1    2  501    0 -0.74560699317E+01 -0.43986586242E+02 -0.13623465042E+04  0.13630768174E+04  0.00000000000E+00 0.  1.
<scales pt_clust_3="30.43661" pt_clust_4="114.07443" pt_clust_5="30.43661" pt_clust_6="44.61404"></scales>
<clustering>
<clus scale="   30.437">  3  5 -1 -1</clus>
<clus scale="   44.614">  2  6  1 -1</clus>
<clus scale="  114.074">  2  4  1 -1</clus>
<clus scale="  119.794">  1  3  2 -1</clus>
</clustering>
</event>
<event>
 6    0  0.2572175E+002  0.2227740E+03  0.7546771E-02  0.1131832E+00
          1   -1    0    0  505    0 -0.00000000000E+00  0.00000000000E+00  0.75689604151E+03  0.75689604151E+03  0.00000000000E+00 0.  1.
         21   -1    0    0  503  502  0.00000000000E+00 -0.00000000000E+00 -0.10950763340E+04  0.10950763340E+04  0.00000000000E+00 0.  1.
         21    1    1    2  503  501 -0.18660743418E+02 -0.59505187264E+02 -0.10079854289E+03  0.11853032061E+03  0.00000000000E+00 0.  1.
         21    1    1    2  504  502 -0.16796409525E+02 -0.16414079696E+03 -0.93893292779E+03  0.95332017889E+03  0.00000000000E+00 0.  1.
         21    1    1    2  505  504 -0.58996198053E+01  0.21293693500E+03  0.25825726019E+03  0.33477418694E+03  0.00000000000E+00 0. -1.
          1    1    1    2  501    0  0.41356772748E+02  0.10709049225E+02  0.44329391801E+03  0.44534768904E+03  0.00000000000E+00 0.  1.
<scales pt_clust_3="61.73030" pt_clust_4="222.77399" pt_clust_5="14000.00000" pt_clust_6="42.72080"></scales>
<clustering>
<clus scale="   42.721">  1  6  2 -1</clus>
<clus scale="   61.730">  2  3  1 -1</clus>
<clus scale="  222.774">  2  4  1 -1</clus>
<clus scale="   61.730">  2  3  1 -1</clus>
</clustering>
</event>
<event>
 6    0  0.2572175E+002  0.7616186E+02  0.7546771E-02  0.1340310E+00
          2   -1    0    0  505    0 -0.00000000000E+00  0.00000000000E+00  0.40629542305E+03  0.40629542305E+03  0.00000000000E+00 0. -1.
         21   -1    0    0  503  502  0.00000000000E+00 -0.00000000000E+00 -0.12516925733E+03  0.12516925733E+03  0.00000000000E+00 0. -1.
         21    1    1    2  503  504  0.47996336511E+01  0.39351028305E+02  0.21146925920E+02  0.44930305894E+02  0.00000000000E+00 0.  1.
         21    1    1    2  504  501 -0.19898934392E+02  0.42815753106E+02 -0.15702372786E+02  0.49756615793E+02  0.00000000000E+00 0. -1.
         21    1    1    2  505  502  0.52979171245E+02 -0.11151282449E+03 -0.30255087331E+02  0.12711126197E+03  0.00000000000E+00 0. -1.
          2    1    1    2  501    0 -0.37879870504E+02  0.29346043075E+02  0.30593669991E+03  0.30966649672E+03  0.00000000000E+00 0. -1.
<scales pt_clust_3="39.64265" pt_clust_4="14000.00000" pt_clust_5="76.16186" pt_clust_6="48.25492"></scales>
<clustering>
<clus scale="   39.643">  2  3  1 -1</clus>
<clus scale="   48.255">  1  6  2 -1</clus>
<clus scale="   76.162">  2  5  1 -1</clus>
<clus scale="   39.643">  2  3  1 -1</clus>
</clustering>
</event>
<event>
 6    0  0.2572175E+002  0.6494812E+02  0.7546771E-02  0.1378167E+00
          2   -1    0    0  505    0 -0.00000000000E+00  0.00000000000E+00  0.17099776787E+04  0.17099776787E+04  0.00000000000E+00 0. -1.
         21   -1    0    0  504  502  0.00000000000E+00 -0.00000000000E+00 -0.47165135158E+02  0.47165135158E+02  0.00000000000E+00 0. -1.
         21    1    1    2  503  501  0.36350012097E+01 -0.56462885716E+02  0.23535943633E+03  0.24206473301E+03  0.00000000000E+00 0. -1.
         21    1    1    2  504  503 -0.13847156371E+01 -0.50435520299E+02  0.58236383573E+02  0.77052809923E+02  0.00000000000E+00 0. -1.
         21    1    1    2  505  502  0.56471822995E+02  0.64576124884E+02  0.21596060034E+02  0.88462039918E+02  0.00000000000E+00 0. -1.
          2    1    1    2  501    0 -0.58722108568E+02  0.42322281132E+02  0.13476206636E+04  0.13495632310E+04  0.00000000000E+00 0. -1.
<scales pt_clust_3="14000.00000" pt_clust_4="50.45453" pt_clust_5="58.72608" pt_clust_6="64.94812"></scales>
<clustering>
<clus scale="   50.455">  2  4  1 -1</clus>
<clus scale="   58.726">  2  5  1 -1</clus>
<clus scale="   64.948">  1  6  2 -1</clus>
<clus scale="   50.455">  2  3  1 -1</clus>
</clustering>
</event>
<event>
 6    0  0.2572175E+002  0.1301199E+03  0.7546771E-02  0.1227278E+00
         21   -1    0    0  504  502  0.00000000000E+00  0.00000000000E+00  0.52027773034E+03  0.52027773034E+03  0.00000000000E+00 0.  1.
          2   -1    0    0  505    0 -0.00000000000E+00 -0.00000000000E+00 -0.71800699997E+03  0.71800699997E+03  0.00000000000E+00 0.  1.
         21    1    1    2  503  502  0.10630582355E+02 -0.30229179582E+02  0.83795064615E+02  0.89713017078E+02  0.00000000000E+00 0.  1.
         21    1    1    2  504  501 -0.20944567857E+02 -0.24436816054E+02  0.40455077128E+03  0.40582897808E+03  0.00000000000E+00 0.  1.
         21    1    1    2  505  503  0.12969414067E+03  0.80581093747E+02 -0.28300836478E+03  0.32157054799E+03  0.00000000000E+00 0.  1.
          2    1    1    2  501    0 -0.11938015517E+03 -0.25915098111E+02 -0.40306674074E+03  0.42117218717E+03  0.00000000000E+00 0.  1.
<scales pt_clust_3="32.04392" pt_clust_4="53.82807" pt_clust_5="14000.00000" pt_clust_6="130.11991"></scales>
<clustering>
<clus scale="   32.044">  1  3  2 -1</clus>
<clus scale="   53.828">  1  4  2 -1</clus>
<clus scale="  130.120">  2  6  1 -1</clus>
<clus scale="   32.044">  1  3  2 -1</clus>
</clustering>
</event>
<event>
 6    0  0.2572175E+002  0.6592237E+02  0.7546771E-02  0.1374535E+00
         21   -1    0    0  504  502  0.00000000000E+00  0.00000000000E+00  0.17660275589E+04  0.17660275589E+04  0.00000000000E+00 0.  1.
          2   -1    0    0  505    0 -0.00000000000E+00 -0.00000000000E+00 -0.98931179233E+03  0.98931179233E+03  0.00000000000E+00 0. -1.
         21    1    1    2  503  502 -0.22928991397E+01 -0.47193037204E+02  0.27959206876E+03  0.28355628199E+03  0.00000000000E+00 0.  1.
         21    1    1    2  504  501  0.62949340414E+02  0.72858959843E+02  0.14770645508E+04  0.14801995590E+04  0.00000000000E+00 0.  1.
         21    1    1    2  505  503 -0.32695306407E+02 -0.81661629644E+02 -0.51678836474E+03  0.52422115442E+03  0.00000000000E+00 0. -1.
          2    1    1    2  501    0 -0.27961134868E+02  0.55995707005E+02 -0.46315248821E+03  0.46736235578E+03  0.00000000000E+00 0. -1.
<scales pt_clust_3="47.24871" pt_clust_4="65.92237" pt_clust_5="14000.00000" pt_clust_6="62.53028"></scales>
<clustering>
<clus scale="   47.249">  1  3  2 -1</clus>
<clus scale="   62.530">  2  6  1 -1</clus>
<clus scale="   65.922">  1  4  2 -1</clus>
<clus scale="   47.249">  1  3  2 -1</clus>
</clustering>
</event>
<event>
 6    0  0.2572175E+002  0.1414160E+03  0.7546771E-02  0.1211436E+00
          1   -1    0    0  505    0 -0.00000000000E+00  0.00000000000E+00  0.86423541766E+02  0.86423541766E+02  0.00000000000E+00 0.  1.
         21   -1    0    0  501  502  0.00000000000E+00 -0.00000000000E+00 -0.23324684680E+04  0.23324684680E+04  0.00000000000E+00 0.  1.
         21    1    1    2  503  504  0.20077026887E+02  0.10848287981E+03 -0.12003632675E+04  0.12054225800E+04  0.00000000000E+00 0.  1.
         21    1    1    2  504  502  0.60647171517E+02  0.15383276607E+02 -0.10280371228E+04  0.10299393431E+04  0.00000000000E+00 0.  1.
         21    1    1    2  505  503 -0.14653672693E+02 -0.40233958635E+02 -0.55789922793E+02  0.70327925009E+02  0.00000000000E+00 0.  1.
          1    1    1    2  501    0 -0.66070525711E+02 -0.83632197783E+02  0.38145386890E+02  0.11320216170E+03  0.00000000000E+00 0.  1.
<scales pt_clust_3="14000.00000" pt_clust_4="62.27968" pt_clust_5="42.81941" pt_clust_6="141.41603"></scales>
<clustering>
<clus scale="   42.819">  1  5  2 -1</clus>
<clus scale="   62.280">  2  4  1 -1</clus>
<clus scale="  141.416">  1  6  2 -1</clus>
<clus scale="   62.280">  2  3  1 -1</clus>
</clustering>
</event>
<event>
 6    0  0.2572175E+002  0.1148066E+03  0.7546771E-02  0.1251919E+00
         21   -1    0    0  503  502  0.00000000000E+00  0.00000000000E+00  0.29415783844E+02  0.29415783844E+02  0.00000000000E+00 0. -1.
          1   -1    0    0  502    0 -0.00000000000E+00 -0.00000000000E+00 -0.13748195708E+04  0.13748195708E+04  0.00000000000E+00 0. -1.
         21    1    1    2  503  505 -0.18339951807E+02  0.36613961037E+02 -0.18112138888E+02  0.44777065002E+02  0.00000000000E+00 0. -1.
         21    1    1    2  504  501  0.44657436159E+02 -0.11087219800E+03 -0.63847153502E+03  0.64956357035E+03  0.00000000000E+00 0. -1.
         21    1    1    2  505  504 -0.44647942566E+02  0.47271385112E+02 -0.94669823470E+02  0.11484945843E+03  0.00000000000E+00 0. -1.
          1    1    1    2  501    0  0.18330458213E+02  0.26986851852E+02 -0.59415028953E+03  0.59504526082E+03  0.00000000000E+00 0. -1.
<scales pt_clust_3="33.25118" pt_clust_4="106.88279" pt_clust_5="33.25118" pt_clust_6="32.62355"></scales>
<clustering>
<clus scale="   32.624">  2  6  1 -1</clus>
<clus scale="   33.251">  3  5 -1 -1</clus>
<clus scale="  106.883">  2  4  1 -1</clus>
<clus scale="  114.807">  1  3  2 -1</clus>
</clustering>
</event>
<event>
 6    0  0.2572175E+002  0.1332798E+03  0.7546771E-02  0.1222669E+00
          2   -1    0    0  503    0 -0.00000000000E+00  0.00000000000E+00  0.22262000866E+04  0.22262000866E+04  0.00000000000E+00 0.  1.
         21   -1    0    0  505  502  0.00000000000E+00 -0.00000000000E+00 -0.18805381661E+03  0.18805381661E+03  0.00000000000E+00 0. -1.
         21    1    1    2  503  504 -0.39064243790E+02 -0.25523745620E+02 -0.39696913790E+02  0.61264359115E+02  0.00000000000E+00 0.  1.
         21    1    1    2  504  502 -0.39984479783E+01 -0.30148047281E+02 -0.11603003846E+03  0.11994941503E+03  0.00000000000E+00 0. -1.
         21    1    1    2  505  501  0.10910389368E+03 -0.63666149498E+02  0.21419903579E+03  0.24867300847E+03  0.00000000000E+00 0.  1.
          2    1    1    2  501    0 -0.66041201912E+02  0.11933794240E+03  0.19796741864E+04  0.19843671206E+04  0.00000000000E+00 0.  1.
<scales pt_clust_3="63.17830" pt_clust_4="30.41204" pt_clust_5="133.27985" pt_clust_6="14000.00000"></scales>
<clustering>
<clus scale="   30.412">  2  4  1 -1</clus>
<clus scale="   63.178">  2  3  1 -1</clus>
<clus scale="  133.280">  2  5  1 -1</clus>
<clus scale="   30.412">  2  3  1 -1</clus>
</clustering>
</event>
<event>
 6    0  0.2572175E+002  0.8527000E+02  0.7546771E-02  0.1314728E+00
         21   -1    0    0  505  502  0.00000000000E+00  0.00000000000E+00  0.84953499602E+03  0.84953499602E+03  0.00000000000E+00 0.  1.
          2   -1    0    0  503    0 -0.00000000000E+00 -0.00000000000E+00 -0.11033881208E+04  0.11033881208E+04  0.00000000000E+00 0.  1.
         21    1    1    2  503  502 -0.16450638404E+02 -0.33001662695E+02  0.75759101478E+03  0.75848788976E+03  0.00000000000E+00 0.  1.
         21    1    1    2  504  501  0.58298047505E+02  0.83422753324E+02 -0.58903012938E+02  0.11759074389E+03  0.00000000000E+00 0.  1.
         21    1    1    2  505  504  0.33060932698E+02 -0.10469498740E+02  0.55386658294E+02  0.65347667072E+02  0.00000000000E+00 0.  1.
          2    1    1    2  501    0 -0.74908341799E+02 -0.39951591890E+02 -0.10079277849E+04  0.10114968161E+04  0.00000000000E+00 0.  1.
<scales pt_clust_3="45.69780" pt_clust_4="85.27000" pt_clust_5="34.67904" pt_clust_6="14000.00000"></scales>
<clustering>
<clus scale="   34.679">  1  5  2 -1</clus>
<clus scale="   45.698">  1  3  2 -1</clus>
<clus scale="   85.270">  1  4  2 -1</clus>
<clus scale="   34.679">  1  3  2 -1</clus>
</clustering>
</event>
<event>
 6    0  0.2572175E+002  0.2490018E+03  0.7546771E-02  0.1113937E+00
         21   -1    0    0  503  502  0.00000000000E+00  0.00000000000E+00  0.40892564083E+03  0.40892564083E+03  0.00000000000E+00 0. -1.
          4   -1    0    0  504    0 -0.00000000000E+00 -0.00000000000E+00 -0.33027330552E+03  0.33027330552E+03  0.00000000000E+00 0. -1.
         21    1    1    2  503  505 -0.12847579786E+03 -0.10468638487E+03  0.18229137623E+03  0.24636439609E+03  0.00000000000E+00 0. -1.
         21    1    1    2  504  502  0.23738659098E+03  0.91116551800E+02 -0.11027910747E+03  0.27715717767E+03  0.00000000000E+00 0. -1.
         21    1    1    2  505  501 -0.79439534984E+02 -0.12612336897E+00  0.93645193563E+02  0.12280096866E+03  0.00000000000E+00 0. -1.
          4    1    1    2  501    0 -0.29471258144E+02  0.13695956439E+02 -0.87005127021E+02  0.92876403932E+02  0.00000000000E+00 0. -1.
<scales pt_clust_3="53.58946" pt_clust_4="236.80010" pt_clust_5="53.58946" pt_clust_6="32.49822"></scales>
<clustering>
<clus scale="   32.498">  2  6  1 -1</clus>
<clus scale="   53.589">  3  5 -1 -1</clus>
<clus scale="  236.800">  2  4  1 -1</clus>
<clus scale="  249.002">  1  3  2 -1</clus>
</clustering>
</event>
<event>
 6    0  0.2572175E+002  0.1056117E+03  0.7546771E-02  0.1268919E+00
          2   -1    0    0  503    0 -0.00000000000E+00  0.00000000000E+00  0.37404906394E+03  0.37404906394E+03  0.00000000000E+00 0.  1.
         21   -1    0    0  505  502  0.00000000000E+00 -0.00000000000E+00 -0.42626175982E+03  0.42626175982E+03  0.00000000000E+00 0. -1.
         21    1    1    2  503  502  0.25432934221E+02 -0.93109125629E+02 -0.28090469309E+03  0.29702456131E+03  0.00000000000E+00 0. -1.
         21    1    1    2  504  501  0.22128399311E+02  0.15292327685E+03  0.20338626965E+02  0.15584881907E+03  0.00000000000E+00 0.  1.
         21    1    1    2  505  504 -0.52466513273E+02 -0.12497475171E+01 -0.55930784951E+02  0.76697780862E+02  0.00000000000E+00 0.  1.
          2    1    1    2  501    0  0.49051797411E+01 -0.58564403709E+02  0.26428415520E+03  0.27073966251E+03  0.00000000000E+00 0.  1.
<scales pt_clust_3="14000.00000" pt_clust_4="105.61166" pt_clust_5="52.48140" pt_clust_6="58.74324"></scales>
<clustering>
<clus scale="   52.481">  2  5  1 -1</clus>
<clus scale="   58.743">  1  6  2 -1</clus>
<clus scale="  105.612">  1  4  2 -1</clus>
<clus scale="   52.481">  2  3  1 -1</clus>
</clustering>
</event>
<event>
 6    0  0.2572175E+002  0.9955237E+02  0.7546771E-02  0.1281240E+00
         21   -1    0    0  504  502  0.00000000000E+00  0.00000000000E+00  0.40463547115E+02  0.40463547115E+02  0.00000000000E+00 0.  1.
          1   -1    0    0  505    0 -0.00000000000E+00 -0.00000000000E+00 -0.13509038428E+04  0.13509038428E+04  0.00000000000E+00 0.  1.
         21    1    1    2  503  502  0.92473997423E+02  0.50887009751E+02 -0.24483106895E+03  0.26661429122E+03  0.00000000000E+00 0.  1.
         21    1    1    2  504  501 -0.96191958817E+02 -0.21237452195E+02 -0.65805758872E+02  0.11846653628E+03  0.00000000000E+00 0.  1.
         21    1    1    2  505  503  0.18476777124E+02 -0.57348913633E+02 -0.31183373402E+03  0.31760127025E+03  0.00000000000E+00 0.  1.
          1    1    1    2  501    0 -0.14758815730E+02  0.27699356076E+02 -0.68796973386E+03  0.68868529219E+03  0.00000000000E+00 0.  1.
<scales pt_clust_3="14000.00000" pt_clust_4="99.55237" pt_clust_5="45.65535" pt_clust_6="31.38594"></scales>
<clustering>
<clus scale="   31.386">  2  6  1 -1</clus>
<clus scale="   45.655">  2  5  1 -1</clus>
<clus scale="   99.552">  1  4  2 -1</clus>
<clus scale="   99.552">  1  3  2 -1</clus>
</clustering>
</event>
<event>
 6    0  0.2572175E+002  0.2133364E+03  0.7546771E-02  0.1138951E+00
          1   -1    0    0  504    0 -0.00000000000E+00  0.00000000000E+00  0.17853542969E+04  0.17853542969E+04  0.00000000000E+00 0. -1.
         21   -1    0    0  505  502  0.00000000000E+00 -0.00000000000E+00 -0.58197019848E+02  0.58197019848E+02  0.00000000000E+00 0. -1.
         21    1    1    2  503  502  0.15513049663E+03 -0.82920862360E+00  0.32816532112E+03  0.36298572501E+03  0.00000000000E+00 0.  1.
         21    1    1    2  504  503  0.47762159445E+02 -0.60235848723E+02  0.17568823733E+03  0.19177053497E+03  0.00000000000E+00 0.  1.
         21    1    1    2  505  501 -0.14988467550E+03  0.10703169607E+03  0.23772982309E+03  0.30072690052E+03  0.00000000000E+00 0. -1.
          1    1    1    2  501    0 -0.53007980578E+02 -0.45966638723E+02  0.98557389554E+03  0.98806815627E+03  0.00000000000E+00 0. -1.
<scales pt_clust_3="66.75120" pt_clust_4="66.75120" pt_clust_5="191.10389" pt_clust_6="70.16251"></scales>
<clustering>
<clus scale="   66.751">  3  4 -1 -1</clus>
<clus scale="   70.163">  1  6  2 -1</clus>
<clus scale="  191.104">  2  5  1 -1</clus>
<clus scale="  191.104">  2  3  1 -1</clus>
</clustering>
</event>
<event>
 6    0  0.2572175E+002  0.8312436E+02  0.7546771E-02  0.1320412E+00
         -1   -1    0    0    0  501 -0.00000000000E+00  0.00000000000E+00  0.11389359422E+04  0.11389359422E+04  0.00000000000E+00 0.  1.
         21   -1    0    0  504  502  0.00000000000E+00 -0.00000000000E+00 -0.37039044742E+02  0.37039044742E+02  0.00000000000E+00 0.  1.
         21    1    1    2  503  501 -0.20901402353E+02 -0.42711990315E+02  0.34654542488E+03  0.34979267323E+03  0.00000000000E+00 0. -1.
         21    1    1    2  504  503 -0.80893851110E+02  0.68550908046E+02  0.10029328824E+03  0.14595131314E+03  0.00000000000E+00 0.  1.
         21    1    1    2  505  502  0.68448005144E+02 -0.12578651523E+02  0.88729730886E+02  0.11276664855E+03  0.00000000000E+00 0.  1.
         -1    1    1    2    0  505  0.33347248319E+02 -0.13260266208E+02  0.56632845348E+03  0.56746435205E+03  0.00000000000E+00 0.  1.
<scales pt_clust_3="50.78639" pt_clust_4="83.12436" pt_clust_5="14000.00000" pt_clust_6="35.88696"></scales>
<clustering>
<clus scale="   35.887">  1  6  2 -1</clus>
<clus scale="   50.786">  1  3  2 -1</clus>
<clus scale="   83.124">  1  4  2 -1</clus>
<clus scale="   83.124">  2  3  1 -1</clus>
</clustering>
</event>
<event>
 6    0  0.2572175E+002  0.1978212E+03  0.7546771E-02  0.1151590E+00
         21   -1    0    0  504  502  0.00000000000E+00  0.00000000000E+00  0.51350474699E+03  0.51350474699E+03  0.00000000000E+00 0. -1.
          2   -1    0    0  503    0 -0.00000000000E+00 -0.00000000000E+00 -0.12296055351E+04  0.12296055351E+04  0.00000000000E+00 0. -1.
         21    1    1    2  503  502 -0.12422854366E+03 -0.20347946930E+03  0.29854171978E+03  0.38205206966E+03  0.00000000000E+00 0. -1.
         21    1    1    2  504  505  0.10482989415E+03  0.12311440059E+03  0.13210693382E+03  0.20880302752E+03  0.00000000000E+00 0. -1.
         21    1    1    2  505  501  0.47044384359E+02  0.48458007867E+02 -0.57588422047E+03  0.57983099953E+03  0.00000000000E+00 0. -1.
          2    1    1    2  501    0 -0.27645734852E+02  0.31907060851E+02 -0.57086522123E+03  0.57242418537E+03  0.00000000000E+00 0. -1.
<scales pt_clust_3="197.82121" pt_clust_4="14000.00000" pt_clust_5="79.79656" pt_clust_6="42.21785"></scales>
<clustering>
<clus scale="   42.218">  2  6  1 -1</clus>
<clus scale="   79.797">  2  5  1 -1</clus>
<clus scale="  197.821">  2  3  1 -1</clus>
<clus scale="  197.821">  1  3  2 -1</clus>
</clustering>
</event>
<event>
 6    0  0.2572175E+002  0.1977847E+03  0.7546771E-02  0.1151622E+00
         21   -1    0    0  505  502  0.00000000000E+00  0.00000000000E+00  0.13426926548E+04  0.13426926548E+04  0.00000000000E+00 0.  1.
          1   -1    0    0  504    0 -0.00000000000E+00 -0.00000000000E+00 -0.46402567915E+03  0.46402567915E+03  0.00000000000E+00 0.  1.
         21    1    1    2  503  502 -0.30268077968E+02  0.78943715452E+02  0.77200840383E+03  0.77662426072E+03  0.00000000000E+00 0.  1.
         21    1    1    2  504  503 -0.42765721665E+02  0.10555748829E+03  0.44603697983E+03  0.46034799626E+03  0.00000000000E+00 0.  1.
         21    1    1    2  505  501 -0.49504431999E+01 -0.11987001254E+03  0.76118480070E+02  0.14208219383E+03  0.00000000000E+00 0. -1.
          1    1    1    2  501    0  0.77984242833E+02 -0.64631191202E+02 -0.41549688804E+03  0.42766388318E+03  0.00000000000E+00 0.  1.
<scales pt_clust_3="72.55437" pt_clust_4="72.55437" pt_clust_5="178.96258" pt_clust_6="101.28540"></scales>
<clustering>
<clus scale="   72.554">  3  4 -1 -1</clus>
<clus scale="  101.285">  2  6  1 -1</clus>
<clus scale="  178.963">  2  5  1 -1</clus>
<clus scale="  197.785">  1  3  2 -1</clus>
</clustering>
</event>
<event>
 6    0  0.2572175E+002  0.1080507E+03  0.7546771E-02  0.1264223E+00
         -1   -1    0    0    0  501 -0.00000000000E+00  0.00000000000E+00  0.11288510040E+04  0.11288510040E+04  0.00000000000E+00 0. -1.
         21   -1    0    0  505  502  0.00000000000E+00 -0.00000000000E+00 -0.61824456988E+03  0.61824456988E+03  0.00000000000E+00 0. -1.
         21    1    1    2  503  502 -0.24030632070E+02 -0.88418980338E+02 -0.27359740885E+03  0.28853237165E+03  0.00000000000E+00 0. -1.
         21    1    1    2  504  501  0.14848288728E+02  0.15606886479E+03  0.80836617422E+02  0.17638741721E+03  0.00000000000E+00 0. -1.
         21    1    1    2  505  504  0.38353723831E+02 -0.17624801663E+02 -0.28701492010E+03  0.29010206157E+03  0.00000000000E+00 0. -1.
         -1    1    1    2    0  503 -0.29171380488E+02 -0.50025082786E+02  0.99038214569E+03  0.99207372349E+03  0.00000000000E+00 0. -1.
<scales pt_clust_3="14000.00000" pt_clust_4="108.05066" pt_clust_5="42.20950" pt_clust_6="57.89882"></scales>
<clustering>
<clus scale="   42.209">  2  5  1 -1</clus>
<clus scale="   57.899">  1  6  2 -1</clus>
<clus scale="  108.051">  1  4  2 -1</clus>
<clus scale="   42.209">  2  3  1 -1</clus>
</clustering>
</event>
<event>
 6    0  0.2572175E+002  0.7758723E+02  0.7546771E-02  0.1336041E+00
         21   -1    0    0  503  502  0.00000000000E+00  0.00000000000E+00  0.92149840334E+02  0.92149840334E+02  0.00000000000E+00 0.  1.
          4   -1    0    0  504    0 -0.00000000000E+00 -0.00000000000E+00 -0.34210981559E+03  0.34210981559E+03  0.00000000000E+00 0. -1.
         21    1    1    2  503  501  0.12045271199E+03 -0.14126738867E+02 -0.12984727624E+02  0.12197140537E+03  0.00000000000E+00 0.  1.
         21    1    1    2  504  505 -0.49066419686E+02 -0.16170027534E+02 -0.47458226290E+02  0.70151739635E+02  0.00000000000E+00 0. -1.
         21    1    1    2  505  502 -0.34213634451E+02  0.17843085493E+02  0.91347158530E+01  0.39653392238E+02  0.00000000000E+00 0.  1.
          4    1    1    2  501    0 -0.37172657851E+02  0.12453680908E+02 -0.19865173720E+03  0.20248311868E+03  0.00000000000E+00 0. -1.
<scales pt_clust_3="77.58723" pt_clust_4="14000.00000" pt_clust_5="38.58690" pt_clust_6="40.28118"></scales>
<clustering>
<clus scale="   38.587">  1  5  2 -1</clus>
<clus scale="   40.281">  2  6  1 -1</clus>
<clus scale="   77.587">  1  3  2 -1</clus>
<clus scale="   38.587">  1  3  2 -1</clus>
</clustering>
</event>
<event>
 6    0  0.2572175E+002  0.7503494E+02  0.7546771E-02  0.1343763E+00
         21   -1    0    0  503  502  0.00000000000E+00  0.00000000000E+00  0.15159315432E+03  0.15159315432E+03  0.00000000000E+00 0.  1.
          1   -1    0    0  505    0 -0.00000000000E+00 -0.00000000000E+00 -0.74660091710E+03  0.74660091710E+03  0.00000000000E+00 0. -1.
         21    1    1    2  503  504  0.35374429923E+02  0.38223960549E+02  0.25689447559E+02  0.58072103185E+02  0.00000000000E+00 0. -1.
         21    1    1    2  504  501  0.46270181812E+02  0.29609621280E+02 -0.43923757329E+02  0.70334599275E+02  0.00000000000E+00 0. -1.
         21    1    1    2  505  502 -0.75045808867E+02 -0.10455845623E+03  0.52797851431E+02  0.13911131267E+03  0.00000000000E+00 0.  1.
          1    1    1    2  501    0 -0.65988028687E+01  0.36724874403E+02 -0.62957130444E+03  0.63067605629E+03  0.00000000000E+00 0. -1.
<scales pt_clust_3="55.35973" pt_clust_4="75.03494" pt_clust_5="14000.00000" pt_clust_6="37.31301"></scales>
<clustering>
<clus scale="   37.313">  2  6  1 -1</clus>
<clus scale="   55.360">  1  3  2 -1</clus>
<clus scale="   75.035">  2  4  1 -1</clus>
<clus scale="   55.360">  1  3  2 -1</clus>
</clustering>
</event>
<event>
 6    0  0.2572175E+002  0.1017180E+03  0.7546771E-02  0.1276724E+00
         21   -1    0    0  503  502  0.00000000000E+00  0.00000000000E+00  0.70182516743E+02  0.70182516743E+02  0.00000000000E+00 0. -1.
          2   -1    0    0  504    0 -0.00000000000E+00 -0.00000000000E+00 -0.21098540630E+04  0.21098540630E+04  0.00000000000E+00 0. -1.
         21    1    1    2  503  501 -0.55153443766E+02 -0.11405607381E+03 -0.17044721633E+01  0.12670278434E+03  0.00000000000E+00 0. -1.
         21    1    1    2  504  505  0.66417013994E+01  0.69049312082E+02 -0.29256852286E+03  0.30067966387E+03  0.00000000000E+00 0. -1.
         21    1    1    2  505  502  0.31265452514E+02  0.32052503913E+01 -0.71003255147E+02  0.77648337990E+02  0.00000000000E+00 0.  1.
          2    1    1    2  501    0  0.17246289853E+02  0.41801511341E+02 -0.16743952961E+04  0.16750057935E+04  0.00000000000E+00 0. -1.
<scales pt_clust_3="14000.00000" pt_clust_4="101.71800" pt_clust_5="31.42932" pt_clust_6="45.28762"></scales>
<clustering>
<clus scale="   31.429">  1  5  2 -1</clus>
<clus scale="   45.288">  2  6  1 -1</clus>
<clus scale="  101.718">  2  4  1 -1</clus>
<clus scale="   31.429">  1  3  2 -1</clus>
</clustering>
</event>
<event>
 6    0  0.2572175E+002  0.1057854E+03  0.7546771E-02  0.1268580E+00
         21   -1    0    0  503  502  0.00000000000E+00  0.00000000000E+00  0.88815862007E+03  0.88815862007E+03  0.00000000000E+00 0.  1.
          2   -1    0    0  505    0 -0.00000000000E+00 -0.00000000000E+00 -0.30202813721E+03  0.30202813721E+03  0.00000000000E+00 0. -1.
         21    1    1    2  503  501 -0.77908761655E+01 -0.35590447663E+02  0.47476878238E+03  0.47616465055E+03  0.00000000000E+00 0.  1.
         21    1    1    2  504  502 -0.58173255953E+02 -0.53983310225E+02  0.37899301592E+03  0.38721316042E+03  0.00000000000E+00 0.  1.
         21    1    1    2  505  504 -0.29910125329E+02  0.81322508293E+02 -0.16337752901E+03  0.18493291469E+03  0.00000000000E+00 0. -1.
          2    1    1    2  501    0  0.95874257448E+02  0.82512495939E+01 -0.10425378643E+03  0.14187603161E+03  0.00000000000E+00 0. -1.
<scales pt_clust_3="36.43320" pt_clust_4="14000.00000" pt_clust_5="85.84794" pt_clust_6="105.78541"></scales>
<clustering>
<clus scale="   36.433">  1  3  2 -1</clus>
<clus scale="   85.848">  2  5  1 -1</clus>
<clus scale="  105.785">  2  6  1 -1</clus>
<clus scale="   36.433">  1  3  2 -1</clus>
</clustering>
</event>
<event>
 6    0  0.2572175E+002  0.1244004E+03  0.7546771E-02  0.1236009E+00
         21   -1    0    0  504  502  0.00000000000E+00  0.00000000000E+00  0.31080844979E+03  0.31080844979E+03  0.00000000000E+00 0. -1.
         -2   -1    0    0    0  501 -0.00000000000E+00 -0.00000000000E+00 -0.11283064387E+03  0.11283064387E+03  0.00000000000E+00 0.  1.
         21    1    1    2  503  502  0.15381318498E+02 -0.33491825377E+02  0.78030294887E+02  0.86296084766E+02  0.00000000000E+00 0. -1.
         21    1    1    2  504  501  0.46512088798E+02  0.30824203775E-01  0.57380614405E+02  0.73864133813E+02  0.00000000000E+00 0. -1.
         21    1    1    2  505  503 -0.38557768567E+02 -0.77213788099E+02  0.11085846649E+03  0.14049295421E+03  0.00000000000E+00 0. -1.
         -2    1    1    2    0  505 -0.23335638728E+02  0.11067478927E+03 -0.48291569861E+02  0.12298592088E+03  0.00000000000E+00 0.  1.
<scales pt_clust_3="35.56137" pt_clust_4="46.51210" pt_clust_5="35.56137" pt_clust_6="111.86616"></scales>
<clustering>
<clus scale="   35.561">  3  5 -1 -1</clus>
<clus scale="   46.512">  1  4  2 -1</clus>
<clus scale="  111.866">  2  6  1 -1</clus>
<clus scale="   46.512">  1  3  2 -1</clus>
</clustering>
</event>
<event>
 6    0  0.2572175E+002  0.7865585E+02  0.7546771E-02  0.1332910E+00
          2   -1    0    0  504    0 -0.00000000000E+00  0.00000000000E+00  0.34413044483E+03  0.34413044483E+03  0.00000000000E+00 0. -1.
         21   -1    0    0  505  502  0.00000000000E+00 -0.00000000000E+00 -0.59718689830E+03  0.59718689830E+03  0.00000000000E+00 0. -1.
         21    1    1    2  503  501 -0.56757201457E+02  0.62349513552E+02 -0.50155034524E+02  0.98103869676E+02  0.00000000000E+00 0. -1.
         21    1    1    2  504  502  0.92906746971E+02 -0.37593303428E+02 -0.37466738648E+03  0.38784090887E+03  0.00000000000E+00 0. -1.
         21    1    1    2  505  503 -0.18004996557E+02  0.26292076384E+02 -0.13762905129E+03  0.14126998598E+03  0.00000000000E+00 0. -1.
          2    1    1    2  501    0 -0.18144548957E+02 -0.51048286508E+02  0.30939501882E+03  0.31410257860E+03  0.00000000000E+00 0. -1.
<scales pt_clust_3="78.65585" pt_clust_4="14000.00000" pt_clust_5="31.86618" pt_clust_6="54.08082"></scales>
<clustering>
<clus scale="   31.866">  2  5  1 -1</clus>
<clus scale="   54.081">  1  6  2 -1</clus>
<clus scale="   78.656">  1  3  2 -1</clus>
<clus scale="   31.866">  2  3  1 -1</clus>
</clustering>
</event>
<event>
 6    0  0.2572175E+002  0.1398616E+03  0.7546771E-02  0.1213515E+00
          2   -1    0    0  505    0 -0.00000000000E+00  0.00000000000E+00  0.10073065456E+04  0.10073065456E+04  0.00000000000E+00 0.  1.
         21   -1    0    0  503  502  0.00000000000E+00 -0.00000000000E+00 -0.99680521898E+02  0.99680521898E+02  0.00000000000E+00 0.  1.
         21    1    1    2  503  504 -0.11467742999E+03 -0.46359417780E+02  0.12187558412E+01  0.12369961169E+03  0.00000000000E+00 0.  1.
         21    1    1    2  504  501  0.93355846169E+02  0.11034570440E+03  0.26358631954E+03  0.30061476401E+03  0.00000000000E+00 0.  1.
         21    1    1    2  505  502 -0.48785490632E+02  0.26900479420E+02  0.38917705354E+02  0.67957690362E+02  0.00000000000E+00 0.  1.
          2    1    1    2  501    0  0.70107074452E+02 -0.90886766035E+02  0.60390324294E+03  0.61471500141E+03  0.00000000000E+00 0.  1.
<scales pt_clust_3="14000.00000" pt_clust_4="139.86159" pt_clust_5="55.71050" pt_clust_6="111.54951"></scales>
<clustering>
<clus scale="   55.711">  2  5  1 -1</clus>
<clus scale="  111.550">  1  6  2 -1</clus>
<clus scale="  139.862">  1  4  2 -1</clus>
<clus scale="   55.711">  2  3  1 -1</clus>
</clustering>
</event>
<event>
 6    0  0.5052055E+002  0.1154777E+03  0.7546771E-02  0.1250750E+00
          2   -1    0    0  505    0 -0.00000000000E+00  0.00000000000E+00  0.35464633153E+03  0.35464633153E+03  0.00000000000E+00 0. -1.
         21   -1    0    0  501  502  0.00000000000E+00 -0.00000000000E+00 -0.37274012207E+03  0.37274012207E+03  0.00000000000E+00 0. -1.
         21    1    1    2  503  504  0.17601807932E+02 -0.67339094315E+02  0.26713351749E+02  0.74551864010E+02  0.00000000000E+00 0. -1.
         21    1    1    2  504  502 -0.70263216138E+02  0.10613817847E+03 -0.32101692233E+03  0.34533186487E+03  0.00000000000E+00 0. -1.
         21    1    1    2  505  503  0.33926892578E+02 -0.64854195354E+01  0.64115586885E+01  0.35131222458E+02  0.00000000000E+00 0.  1.
          2    1    1    2  501    0  0.18734515628E+02 -0.32313664624E+02  0.26979822136E+03  0.27237150226E+03  0.00000000000E+00 0. -1.
<scales pt_clust_3="115.47766" pt_clust_4="14000.00000" pt_clust_5="34.54120" pt_clust_6="59.61660"></scales>
<clustering>
<clus scale="   34.541">  1  5  2 -1</clus>
<clus scale="   59.617">  1  6  2 -1</clus>
<clus scale="  115.478">  1  3  2 -1</clus>
<clus scale="  115.478">  2  3  1 -1</clus>
</clustering>
</event>
<event>
 6    0  0.2572175E+002  0.1012444E+03  0.7546771E-02  0.1277701E+00
         -2   -1    0    0    0  501 -0.00000000000E+00  0.00000000000E+00  0.29358719095E+03  0.29358719095E+03  0.00000000000E+00 0.  1.
         21   -1    0    0  504  502  0.00000000000E+00 -0.00000000000E+00 -0.25240447449E+03  0.25240447449E+03  0.00000000000E+00 0. -1.
         21    1    1    2  503  505  0.67527643700E+02  0.85082733680E+02  0.63915337760E+02  0.12603263322E+03  0.00000000000E+00 0. -1.
         21    1    1    2  504  501  0.50403675743E+02  0.18591960351E+02 -0.19627197523E+02  0.57196314573E+02  0.00000000000E+00 0.  1.
         21    1    1    2  505  502 -0.19076238158E+02 -0.72209687181E+02 -0.15890629725E+03  0.17558289521E+03  0.00000000000E+00 0. -1.
         -2    1    1    2    0  503 -0.98855081286E+02 -0.31465006849E+02  0.15580087348E+03  0.18717982244E+03  0.00000000000E+00 0.  1.
<scales pt_clust_3="101.24444" pt_clust_4="53.72329" pt_clust_5="61.15271" pt_clust_6="14000.00000"></scales>
<clustering>
<clus scale="   53.723">  2  4  1 -1</clus>
<clus scale="   61.153">  2  5  1 -1</clus>
<clus scale="  101.244">  2  3  1 -1</clus>
<clus scale="   53.723">  2  3  1 -1</clus>
</clustering>
</event>
<event>
 6    0  0.2572175E+002  0.1065927E+03  0.7546771E-02  0.1267013E+00
         21   -1    0    0  503  502  0.00000000000E+00  0.00000000000E+00  0.99354721625E+02  0.99354721625E+02  0.00000000000E+00 0.  1.
          1   -1    0    0  505    0 -0.00000000000E+00 -0.00000000000E+00 -0.49351877141E+03  0.49351877141E+03  0.00000000000E+00 0.  1.
         21    1    1    2  503  501 -0.53937987154E+02  0.62608451179E+02 -0.44080366553E+02  0.93660041281E+02  0.00000000000E+00 0.  1.
         21    1    1    2  504  502  0.10994944455E+03 -0.67573756230E+02  0.12941119234E+02  0.12970183289E+03  0.00000000000E+00 0.  1.
         21    1    1    2  505  504 -0.27850125697E+02 -0.14060617802E+02 -0.11451876146E+03  0.11869236370E+03  0.00000000000E+00 0.  1.
          1    1    1    2  501    0 -0.28161331703E+02  0.19025922852E+02 -0.24850604101E+03  0.25081925516E+03  0.00000000000E+00 0.  1.
<scales pt_clust_3="106.59266" pt_clust_4="14000.00000" pt_clust_5="31.19824" pt_clust_6="47.61008"></scales>
<clustering>
<clus scale="   31.198">  2  5  1 -1</clus>
<clus scale="   47.610">  2  6  1 -1</clus>
<clus scale="  106.593">  2  3  1 -1</clus>
<clus scale="  106.593">  1  3  2 -1</clus>
</clustering>
</event>
<event>
 6    0  0.2572175E+002  0.8392433E+02  0.7546771E-02  0.1318270E+00
          1   -1    0    0  504    0 -0.00000000000E+00  0.00000000000E+00  0.93706720744E+03  0.93706720744E+03  0.00000000000E+00 0. -1.
         21   -1    0    0  503  502  0.00000000000E+00 -0.00000000000E+00 -0.62734206858E+02  0.62734206858E+02  0.00000000000E+00 0. -1.
         21    1    1    2  503  505  0.29674980405E+02 -0.23943745599E+02  0.16431735495E+02  0.41519987316E+02  0.00000000000E+00 0. -1.
         21    1    1    2  504  502 -0.12779200128E+03  0.50675779284E+01  0.40021427591E+03  0.42015228498E+03  0.00000000000E+00 0. -1.
         21    1    1    2  505  501  0.51190449359E+02 -0.48020618402E+01 -0.21745031311E+02  0.55824441692E+02  0.00000000000E+00 0. -1.
          1    1    1    2  501    0  0.46926571511E+02  0.23678229510E+02  0.47943202049E+03  0.48230470031E+03  0.00000000000E+00 0. -1.
<scales pt_clust_3="38.13014" pt_clust_4="83.92433" pt_clust_5="14000.00000" pt_clust_6="53.02081"></scales>
<clustering>
<clus scale="   38.130">  2  3  1 -1</clus>
<clus scale="   53.021">  1  6  2 -1</clus>
<clus scale="   83.924">  1  4  2 -1</clus>
<clus scale="   38.130">  2  3  1 -1</clus>
</clustering>
</event>
<event>
 6    0  0.2572175E+002  0.9343782E+02  0.7546771E-02  0.1294734E+00
          1   -1    0    0  504    0 -0.00000000000E+00  0.00000000000E+00  0.96296944608E+03  0.96296944608E+03  0.00000000000E+00 0.  1.
         21   -1    0    0  505  502  0.00000000000E+00 -0.00000000000E+00 -0.18869614195E+03  0.18869614195E+03  0.00000000000E+00 0.  1.
         21    1    1    2  503  502 -0.10075014583E+03 -0.39796431099E+02 -0.11343019800E+03  0.15684628664E+03  0.00000000000E+00 0.  1.
         21    1    1    2  504  503  0.38409655483E+01  0.71585354638E+02  0.61450715976E+02  0.94421430347E+02  0.00000000000E+00 0. -1.
         21    1    1    2  505  501  0.69504313746E+02  0.12979333124E+02 -0.17553823577E+01  0.70727604829E+02  0.00000000000E+00 0. -1.
          1    1    1    2  501    0  0.27404866533E+02 -0.44768256663E+02  0.82800816852E+03  0.82967026622E+03  0.00000000000E+00 0.  1.
<scales pt_clust_3="14000.00000" pt_clust_4="49.67415" pt_clust_5="93.43782" pt_clust_6="52.49022"></scales>
<clustering>
<clus scale="   52.490">  1  6  2 -1</clus>
<clus scale="   49.674">  1  4  2 -1</clus>
<clus scale="   93.438">  1  5  2 -1</clus>
<clus scale="   93.438">  2  3  1 -1</clus>
</clustering>
</event>
<event>
 6    0  0.2572175E+002  0.8755101E+02  0.7546771E-02  0.1308893E+00
         21   -1    0    0  503  502  0.00000000000E+00  0.00000000000E+00  0.90091314567E+02  0.90091314567E+02  0.00000000000E+00 0.  1.
          2   -1    0    0  505    0 -0.00000000000E+00 -0.00000000000E+00 -0.80996405979E+03  0.80996405979E+03  0.00000000000E+00 0.  1.
         21    1    1    2  503  504  0.29403271842E+02  0.65920075831E+02  0.41937761034E+01  0.72302119959E+02  0.00000000000E+00 0.  1.
         21    1    1    2  504  501  0.64930560758E+01  0.78087744139E+02 -0.20350437537E+03  0.21806853591E+03  0.00000000000E+00 0.  1.
         21    1    1    2  505  502 -0.77283202539E+02 -0.11657680117E+03 -0.70020199885E+02  0.15641506435E+03  0.00000000000E+00 0.  1.
          2    1    1    2  501    0  0.41386874621E+02 -0.27431018804E+02 -0.45054194607E+03  0.45326965413E+03  0.00000000000E+00 0.  1.
<scales pt_clust_3="87.55101" pt_clust_4="69.20003" pt_clust_5="14000.00000" pt_clust_6="49.65213"></scales>
<clustering>
<clus scale="   49.652">  2  6  1 -1</clus>
<clus scale="   69.200">  2  4  1 -1</clus>
<clus scale="   87.551">  1  3  2 -1</clus>
<clus scale="   87.551">  1  3  2 -1</clus>
</clustering>
</event>
<event>
 6    0  0.2572175E+002  0.1177474E+03  0.7546771E-02  0.1246860E+00
          2   -1    0    0  504    0 -0.00000000000E+00  0.00000000000E+00  0.21475196512E+04  0.21475196512E+04  0.00000000000E+00 0.  1.
         21   -1    0    0  503  502  0.00000000000E+00 -0.00000000000E+00 -0.38430444561E+02  0.38430444561E+02  0.00000000000E+00 0. -1.
         21    1    1    2  503  505 -0.16210310094E+02 -0.48419140684E+02  0.14040138395E+03  0.14939791148E+03  0.00000000000E+00 0. -1.
         21    1    1    2  504  502 -0.35021326908E+02  0.52421864142E+02  0.34377717591E+03  0.34951007404E+03  0.00000000000E+00 0. -1.
         21    1    1    2  505  501 -0.35652814948E+02 -0.69500333398E+02  0.22981685658E+02  0.81422217066E+02  0.00000000000E+00 0. -1.
          2    1    1    2  501    0  0.86884451950E+02  0.65497609940E+02  0.16019289611E+04  0.16056198932E+04  0.00000000000E+00 0.  1.
<scales pt_clust_3="51.06062" pt_clust_4="60.49982" pt_clust_5="117.74739" pt_clust_6="14000.00000"></scales>
<clustering>
<clus scale="   51.061">  2  3  1 -1</clus>
<clus scale="   60.500">  1  4  2 -1</clus>
<clus scale="  117.747">  2  5  1 -1</clus>
<clus scale="   51.061">  2  3  1 -1</clus>
</clustering>
</event>
<event>
 6    0  0.2572175E+002  0.9983413E+02  0.7546771E-02  0.1280645E+00
          1   -1    0    0  505    0 -0.00000000000E+00  0.00000000000E+00  0.56414575184E+03  0.56414575184E+03  0.00000000000E+00 0.  1.
         21   -1    0    0  504  502  0.00000000000E+00 -0.00000000000E+00 -0.10640032961E+03  0.10640032961E+03  0.00000000000E+00 0.  1.
         21    1    1    2  503  502  0.13040839092E+02  0.38330713655E+02 -0.14981514018E+02  0.43171204011E+02  0.00000000000E+00 0.  1.
         21    1    1    2  504  501  0.77555331043E+02  0.11811792392E+02 -0.36643386183E+01  0.78535184410E+02  0.00000000000E+00 0.  1.
         21    1    1    2  505  503 -0.12199879100E+03 -0.34278589529E+02  0.77801815538E+02  0.14870053532E+03  0.00000000000E+00 0.  1.
          1    1    1    2  501    0  0.31402620861E+02 -0.15863916518E+02  0.39858945932E+03  0.40013915770E+03  0.00000000000E+00 0.  1.
<scales pt_clust_3="40.17954" pt_clust_4="14000.00000" pt_clust_5="99.83413" pt_clust_6="35.18222"></scales>
<clustering>
<clus scale="   35.182">  1  6  2 -1</clus>
<clus scale="   40.180">  2  3  1 -1</clus>
<clus scale="   99.834">  1  5  2 -1</clus>
<clus scale="   40.180">  2  3  1 -1</clus>
</clustering>
</event>
<event>
 6    0  0.2572175E+002  0.1435844E+03  0.7546771E-02  0.1208586E+00
         21   -1    0    0  503  502  0.00000000000E+00  0.00000000000E+00  0.20068976664E+02  0.20068976664E+02  0.00000000000E+00 0.  1.
          1   -1    0    0  502    0 -0.00000000000E+00 -0.00000000000E+00 -0.26143568849E+04  0.26143568849E+04  0.00000000000E+00 0. -1.
         21    1    1    2  503  504 -0.14012630393E+03  0.12171117280E+02 -0.58420770832E+03  0.60090112632E+03  0.00000000000E+00 0.  1.
         21    1    1    2  504  505  0.14278534381E+03 -0.40957595348E+02 -0.69929480604E+03  0.71489747851E+03  0.00000000000E+00 0. -1.
         21    1    1    2  505  501 -0.14651665771E+02  0.61000788584E+02 -0.26682038897E+03  0.27409649302E+03  0.00000000000E+00 0. -1.
          1    1    1    2  501    0  0.11992625890E+02 -0.32214310516E+02 -0.10439650049E+04  0.10445307637E+04  0.00000000000E+00 0. -1.
<scales pt_clust_3="14000.00000" pt_clust_4="143.58445" pt_clust_5="56.86210" pt_clust_6="34.37419"></scales>
<clustering>
<clus scale="   34.374">  2  6  1 -1</clus>
<clus scale="   56.862">  2  5  1 -1</clus>
<clus scale="  143.584">  2  4  1 -1</clus>
<clus scale="  143.584">  1  3  2 -1</clus>
</clustering>
</event>
<event>
 6    0  0.2572175E+002  0.1194066E+03  0.7546771E-02  0.1244079E+00
         21   -1    0    0  504  502  0.00000000000E+00  0.00000000000E+00  0.59471958756E+02  0.59471958756E+02  0.00000000000E+00 0.  1.
          2   -1    0    0  503    0 -0.00000000000E+00 -0.00000000000E+00 -0.75965082441E+03  0.75965082441E+03  0.00000000000E+00 0. -1.
         21    1    1    2  503  502 -0.51305995067E+01 -0.38896532654E+02 -0.14782647698E+03  0.15294420748E+03  0.00000000000E+00 0.  1.
         21    1    1    2  504  505 -0.61113952210E+02 -0.98886039131E+01  0.14806990203E+02  0.63654902411E+02  0.00000000000E+00 0.  1.
         21    1    1    2  505  501 -0.44434689891E+02 -0.11719693492E+01 -0.34693167073E+02  0.56386443579E+02  0.00000000000E+00 0.  1.
          2    1    1    2  501    0  0.11067924161E+03  0.49957105916E+02 -0.53246621180E+03  0.54613722970E+03  0.00000000000E+00 0. -1.
<scales pt_clust_3="39.23345" pt_clust_4="44.55506" pt_clust_5="44.55506" pt_clust_6="107.26755"></scales>
<clustering>
<clus scale="   39.233">  2  3  1 -1</clus>
<clus scale="   44.555">  4  5 -1 -1</clus>
<clus scale="  107.268">  2  6  1 -1</clus>
<clus scale="  119.407">  1  3  2 -1</clus>
</clustering>
</event>
<event>
 6    0  0.2572175E+002  0.1365747E+03  0.7546771E-02  0.1218014E+00
         21   -1    0    0  504  502  0.00000000000E+00  0.00000000000E+00  0.74978038632E+03  0.74978038632E+03  0.00000000000E+00 0. -1.
          1   -1    0    0  505    0 -0.00000000000E+00 -0.00000000000E+00 -0.40846270977E+03  0.40846270977E+03  0.00000000000E+00 0. -1.
         21    1    1    2  503  501  0.66821715764E+02 -0.65047527177E+02  0.59524583028E+03  0.60250636590E+03  0.00000000000E+00 0. -1.
         21    1    1    2  504  503  0.11940603316E+02 -0.34943739026E+02  0.11373248357E+03  0.11957725839E+03  0.00000000000E+00 0. -1.
         21    1    1    2  505  502 -0.41131396942E+02  0.11920454593E+03 -0.89076839581E+02  0.15438976305E+03  0.00000000000E+00 0. -1.
          1    1    1    2  501    0 -0.37630922138E+02 -0.19213279730E+02 -0.27858379772E+03  0.28176970875E+03  0.00000000000E+00 0. -1.
<scales pt_clust_3="31.79405" pt_clust_4="31.79405" pt_clust_5="126.88535" pt_clust_6="42.25206"></scales>
<clustering>
<clus scale="   31.794">  3  4 -1 -1</clus>
<clus scale="   42.252">  2  6  1 -1</clus>
<clus scale="  126.885">  2  5  1 -1</clus>
<clus scale="  136.575">  1  3  2 -1</clus>
</clustering>
</event>
<event>
 6    0  0.2572175E+002  0.1106669E+03  0.7546771E-02  0.1259340E+00
         -1   -1    0    0    0  501 -0.00000000000E+00  0.00000000000E+00  0.18251863245E+03  0.18251863245E+03  0.00000000000E+00 0.  1.
         21   -1    0    0  504  502  0.00000000000E+00 -0.00000000000E+00 -0.62724152269E+03  0.62724152269E+03  0.00000000000E+00 0.  1.
         21    1    1    2  503  501  0.15046827352E+03 -0.36095310145E+02 -0.38341027595E+02  0.15941645821E+03  0.00000000000E+00 0. -1.
         21    1    1    2  504  503  0.42991967341E+02 -0.10299956322E+02 -0.17050291593E+03  0.17614097393E+03  0.00000000000E+00 0. -1.
         21    1    1    2  505  502 -0.10365626194E+03 -0.22089408000E+00 -0.32390648176E+03  0.34008833905E+03  0.00000000000E+00 0.  1.
         -1    1    1    2    0  505 -0.89803978921E+02  0.46616160547E+02  0.88027535045E+02  0.13411438394E+03  0.00000000000E+00 0.  1.
<scales pt_clust_3="14000.00000" pt_clust_4="44.20858" pt_clust_5="72.62702" pt_clust_6="110.66690"></scales>
<clustering>
<clus scale="   44.209">  2  4  1 -1</clus>
<clus scale="   72.627">  2  5  1 -1</clus>
<clus scale="  110.667">  1  6  2 -1</clus>
<clus scale="   44.209">  2  3  1 -1</clus>
</clustering>
</event>
<event>
 6    0  0.2572175E+002  0.1064455E+03  0.7546771E-02  0.1267297E+00
         21   -1    0    0  505  502  0.00000000000E+00  0.00000000000E+00  0.15566064008E+04  0.15566064008E+04  0.00000000000E+00 0. -1.
          4   -1    0    0  502    0 -0.00000000000E+00 -0.00000000000E+00 -0.22961283507E+02  0.22961283507E+02  0.00000000000E+00 0.  1.
         21    1    1    2  503  504 -0.17842709686E+02  0.30644052663E+02  0.17634364679E+03  0.17987357231E+03  0.00000000000E+00 0. -1.
         21    1    1    2  504  501  0.80216167743E+02 -0.43402511152E+02  0.45644424846E+03  0.46546725287E+03  0.00000000000E+00 0.  1.
         21    1    1    2  505  503 -0.32575962997E+02  0.62924751704E+02  0.86019280712E+03  0.86310624095E+03  0.00000000000E+00 0. -1.
          4    1    1    2  501    0 -0.29797495060E+02 -0.50166293216E+02  0.40664414887E+02  0.71120618142E+02  0.00000000000E+00 0.  1.
<scales pt_clust_3="32.43287" pt_clust_4="96.06634" pt_clust_5="32.43287" pt_clust_6="58.34850"></scales>
<clustering>
<clus scale="   32.433">  3  5 -1 -1</clus>
<clus scale="   58.349">  2  6  1 -1</clus>
<clus scale="   96.066">  2  4  1 -1</clus>
<clus scale="  106.446">  1  3  2 -1</clus>
</clustering>
</event>
<event>
 6    0  0.2572175E+002  0.1036182E+03  0.7546771E-02  0.1272866E+00
         21   -1    0    0  503  502  0.00000000000E+00  0.00000000000E+00  0.34874341828E+03  0.34874341828E+03  0.00000000000E+00 0. -1.
          1   -1    0    0  505    0 -0.00000000000E+00 -0.00000000000E+00 -0.74945390682E+03  0.74945390682E+03  0.00000000000E+00 0.  1.
         21    1    1    2  503  504  0.56825693939E+02 -0.11713121186E+02  0.24288387002E+03  0.24971770265E+03  0.00000000000E+00 0. -1.
         21    1    1    2  504  501  0.34443115832E+02 -0.60285112867E+01  0.58869361333E+02  0.68470963775E+02  0.00000000000E+00 0. -1.
         21    1    1    2  505  502 -0.14547135502E+03  0.52719645229E+02 -0.12488996665E+03  0.19884360662E+03  0.00000000000E+00 0.  1.
          1    1    1    2  501    0  0.54202545250E+02 -0.34978012756E+02 -0.57757375325E+03  0.58116505206E+03  0.00000000000E+00 0.  1.
<scales pt_clust_3="30.50680" pt_clust_4="30.50680" pt_clust_5="95.87740" pt_clust_6="64.50874"></scales>
<clustering>
<clus scale="   30.507">  3  4 -1 -1</clus>
<clus scale="   64.509">  2  6  1 -1</clus>
<clus scale="   95.877">  2  5  1 -1</clus>
<clus scale="  103.618">  1  3  2 -1</clus>
</clustering>
</event>
<event>
 6    0  0.2572175E+002  0.2310008E+03  0.7546771E-02  0.1125937E+00
         21   -1    0    0  501  502  0.00000000000E+00  0.00000000000E+00  0.27518373923E+03  0.27518373923E+03  0.00000000000E+00 0. -1.
          2   -1    0    0  503    0 -0.00000000000E+00 -0.00000000000E+00 -0.39213386831E+03  0.39213386831E+03  0.00000000000E+00 0. -1.
         21    1    1    2  503  505 -0.28876476521E+02 -0.39735077152E+02 -0.35189376080E+02  0.60423666237E+02  0.00000000000E+00 0. -1.
         21    1    1    2  504  502  0.69357301585E+01  0.71977944252E+02  0.26673724579E+02  0.77074096781E+02  0.00000000000E+00 0. -1.
         21    1    1    2  505  504 -0.20118308638E+03  0.68705682615E+02  0.73282442112E+02  0.22486756412E+03  0.00000000000E+00 0. -1.
          2    1    1    2  501    0  0.22312383274E+03 -0.10094854972E+03 -0.18171691969E+03  0.30495228041E+03  0.00000000000E+00 0. -1.
<scales pt_clust_3="49.11952" pt_clust_4="69.23800" pt_clust_5="231.00083" pt_clust_6="14000.00000"></scales>
<clustering>
<clus scale="   49.120">  2  3  1 -1</clus>
<clus scale="   69.238">  1  4  2 -1</clus>
<clus scale="  231.001">  1  5  2 -1</clus>
<clus scale="   69.238">  1  3  2 -1</clus>
</clustering>
</event>
<event>
 6    0  0.2572175E+002  0.6742610E+02  0.7546771E-02  0.1369071E+00
          2   -1    0    0  503    0 -0.00000000000E+00  0.00000000000E+00  0.26972369625E+04  0.26972369625E+04  0.00000000000E+00 0.  1.
         21   -1    0    0  505  502  0.00000000000E+00 -0.00000000000E+00 -0.38741917021E+02  0.38741917021E+02  0.00000000000E+00 0.  1.
         21    1    1    2  503  504 -0.90414320637E+02 -0.36154784019E+02  0.13704474187E+04  0.13739024875E+04  0.00000000000E+00 0.  1.
         21    1    1    2  504  502  0.63901685474E+01 -0.44471392790E+02  0.99421020996E+02  0.10910123027E+03  0.00000000000E+00 0.  1.
         21    1    1    2  505  501  0.51122610834E+02  0.71195799649E+02  0.28243259430E+02  0.92087159417E+02  0.00000000000E+00 0.  1.
          2    1    1    2  501    0  0.32901541256E+02  0.94303771588E+01  0.11603833464E+04  0.11608880023E+04  0.00000000000E+00 0.  1.
<scales pt_clust_3="67.42610" pt_clust_4="44.67160" pt_clust_5="14000.00000" pt_clust_6="34.22636"></scales>
<clustering>
<clus scale="   34.226">  1  6  2 -1</clus>
<clus scale="   44.672">  2  4  1 -1</clus>
<clus scale="   67.426">  1  3  2 -1</clus>
<clus scale="   44.672">  2  3  1 -1</clus>
</clustering>
</event>
<event>
 6    0  0.2572175E+002  0.7991345E+02  0.7546771E-02  0.1329297E+00
         -3   -1    0    0    0  501 -0.00000000000E+00  0.00000000000E+00  0.28716828072E+03  0.28716828072E+03  0.00000000000E+00 0. -1.
         21   -1    0    0  504  502  0.00000000000E+00 -0.00000000000E+00 -0.22908712243E+03  0.22908712243E+03  0.00000000000E+00 0. -1.
         21    1    1    2  503  502 -0.63397906158E+02 -0.14441776804E+02 -0.27997575265E+02  0.70793528258E+02  0.00000000000E+00 0. -1.
         21    1    1    2  504  505 -0.11055018416E+02  0.69885485716E+02 -0.90279426579E+02  0.11470208982E+03  0.00000000000E+00 0. -1.
         21    1    1    2  505  501  0.10035188905E+03 -0.34058885490E+02 -0.38906778119E+02  0.11289041900E+03  0.00000000000E+00 0. -1.
         -3    1    1    2    0  503 -0.25898964480E+02 -0.21384823422E+02  0.21526493825E+03  0.21786936608E+03  0.00000000000E+00 0. -1.
<scales pt_clust_3="79.91345" pt_clust_4="67.98532" pt_clust_5="14000.00000" pt_clust_6="33.58671"></scales>
<clustering>
<clus scale="   33.587">  1  6  2 -1</clus>
<clus scale="   67.985">  2  4  1 -1</clus>
<clus scale="   79.913">  2  3  1 -1</clus>
<clus scale="   67.985">  2  3  1 -1</clus>
</clustering>
</event>
<event>
 6    0  0.2572175E+002  0.1132622E+03  0.7546771E-02  0.1254645E+00
         21   -1    0    0  503  502  0.00000000000E+00  0.00000000000E+00  0.56643852868E+03  0.56643852868E+03  0.00000000000E+00 0. -1.
         -2   -1    0    0    0  501 -0.00000000000E+00 -0.00000000000E+00 -0.74940661475E+03  0.74940661475E+03  0.00000000000E+00 0. -1.
         21    1    1    2  503  505  0.39119969985E+02  0.34774322134E+02  0.87226399539E+02  0.10172546539E+03  0.00000000000E+00 0. -1.
         21    1    1    2  504  502  0.39797765903E+02 -0.14539419139E+03  0.41175798447E+03  0.43848371787E+03  0.00000000000E+00 0. -1.
         21    1    1    2  505  501  0.91591632291E+01  0.39566447736E+02  0.32661767822E+02  0.52117033058E+02  0.00000000000E+00 0.  1.
         -2    1    1    2    0  504 -0.88076899117E+02  0.71053421520E+02 -0.71461423791E+03  0.72351892711E+03  0.00000000000E+00 0. -1.
<scales pt_clust_3="96.40717" pt_clust_4="113.26218" pt_clust_5="33.39059" pt_clust_6="14000.00000"></scales>
<clustering>
<clus scale="   33.391">  3  5 -1 -1</clus>
<clus scale="   96.407">  1  3  2 -1</clus>
<clus scale="  113.262">  1  4  2 -1</clus>
<clus scale="   96.407">  1  3  2 -1</clus>
</clustering>
</event>
<event>
 6    0  0.2572175E+002  0.1401270E+03  0.7546771E-02  0.1213158E+00
         21   -1    0    0  504  502  0.00000000000E+00  0.00000000000E+00  0.17640264490E+03  0.17640264490E+03  0.00000000000E+00 0.  1.
          2   -1    0    0  503    0 -0.00000000000E+00 -0.00000000000E+00 -0.12541064303E+04  0.12541064303E+04  0.00000000000E+00 0. -1.
         21    1    1    2  503  502 -0.39384815775E+02  0.97114673256E+01  0.75195382685E+01  0.41255542258E+02  0.00000000000E+00 0.  1.
         21    1    1    2  504  505  0.22374052065E+02 -0.13982767268E+03  0.11405721569E+03  0.18182800858E+03  0.00000000000E+00 0.  1.
         21    1    1    2  505  501 -0.10111810696E+02  0.89380796850E+02 -0.70103685276E+03  0.70678415693E+03  0.00000000000E+00 0. -1.
          2    1    1    2  501    0  0.27122574407E+02  0.40735408506E+02 -0.49824368660E+03  0.50064136744E+03  0.00000000000E+00 0. -1.
<scales pt_clust_3="40.56447" pt_clust_4="131.34908" pt_clust_5="36.00685" pt_clust_6="36.00685"></scales>
<clustering>
<clus scale="   36.007">  5  6 -1 -1</clus>
<clus scale="   40.564">  1  3  2 -1</clus>
<clus scale="  131.349">  1  4  2 -1</clus>
<clus scale="   40.564">  1  3  2 -1</clus>
</clustering>
</event>
<event>
 6    0  0.2572175E+002  0.1364841E+03  0.7546771E-02  0.1218140E+00
         -1   -1    0    0    0  501 -0.00000000000E+00  0.00000000000E+00  0.10883591226E+04  0.10883591226E+04  0.00000000000E+00 0.  1.
         21   -1    0    0  504  502  0.00000000000E+00 -0.00000000000E+00 -0.20073503518E+03  0.20073503518E+03  0.00000000000E+00 0.  1.
         21    1    1    2  503  505  0.16900192721E+02 -0.16484726943E+03  0.43539399413E+03  0.46586282195E+03  0.00000000000E+00 0.  1.
         21    1    1    2  504  501 -0.17447989834E+02  0.79367041574E+02 -0.14760338122E+03  0.16849426633E+03  0.00000000000E+00 0.  1.
         21    1    1    2  505  502 -0.84385424412E+01  0.56442117874E+02  0.30192417611E+01  0.57149256246E+02  0.00000000000E+00 0. -1.
         -1    1    1    2    0  503  0.89863395549E+01  0.29038109978E+02  0.59681423278E+03  0.59758781327E+03  0.00000000000E+00 0.  1.
<scales pt_clust_3="136.48408" pt_clust_4="14000.00000" pt_clust_5="58.75269" pt_clust_6="30.39681"></scales>
<clustering>
<clus scale="   30.397">  1  6  2 -1</clus>
<clus scale="   58.753">  2  5  1 -1</clus>
<clus scale="  136.484">  1  3  2 -1</clus>
<clus scale="   58.753">  2  3  1 -1</clus>
</clustering>
</event>
<event>
 6    0  0.2572175E+002  0.1473687E+03  0.7546771E-02  0.1203744E+00
         -4   -1    0    0    0  501 -0.00000000000E+00  0.00000000000E+00  0.12272081594E+04  0.12272081594E+04  0.00000000000E+00 0. -1.
         21   -1    0    0  501  502  0.00000000000E+00 -0.00000000000E+00 -0.79955491674E+02  0.79955491674E+02  0.00000000000E+00 0. -1.
         21    1    1    2  503  502 -0.54627102065E+02 -0.46522827700E-01 -0.15807149791E+02  0.56868167097E+02  0.00000000000E+00 0. -1.
         21    1    1    2  504  505  0.14403688356E+03  0.38650969615E+01  0.36196023175E+03  0.38958538496E+03  0.00000000000E+00 0. -1.
         21    1    1    2  505  503 -0.63881256739E+02  0.55708050512E+02  0.34714801383E+02  0.91593227313E+02  0.00000000000E+00 0.  1.
         -4    1    1    2    0  504 -0.25528524758E+02 -0.59526624646E+02  0.76638478434E+03  0.76911687167E+03  0.00000000000E+00 0. -1.
<scales pt_clust_3="54.09761" pt_clust_4="131.05989" pt_clust_5="54.09761" pt_clust_6="64.76978"></scales>
<clustering>
<clus scale="   54.098">  3  5 -1 -1</clus>
<clus scale="   64.770">  1  6  2 -1</clus>
<clus scale="  131.060">  1  4  2 -1</clus>
<clus scale="  147.369">  2  3  1 -1</clus>
</clustering>
</event>
<event>
 6    0  0.2572175E+002  0.1212285E+03  0.7546771E-02  0.1241084E+00
         21   -1    0    0  503  502  0.00000000000E+00  0.00000000000E+00  0.41736146069E+03  0.41736146069E+03  0.00000000000E+00 0.  1.
          1   -1    0    0  504    0 -0.00000000000E+00 -0.00000000000E+00 -0.72836508789E+03  0.72836508789E+03  0.00000000000E+00 0. -1.
         21    1    1    2  503  501 -0.78522988019E+02  0.50426327442E+02  0.28026198402E+03  0.29539034147E+03  0.00000000000E+00 0.  1.
         21    1    1    2  504  505  0.75497311101E+02  0.19873018705E+02  0.74901140551E+02  0.10818947135E+03  0.00000000000E+00 0.  1.
         21    1    1    2  505  502  0.41304449521E+02  0.46723603259E+02  0.23293756469E+01  0.62406559292E+02  0.00000000000E+00 0.  1.
          1    1    1    2  501    0 -0.38278772603E+02 -0.11702294941E+03 -0.66849612742E+03  0.67974017646E+03  0.00000000000E+00 0. -1.
<scales pt_clust_3="14000.00000" pt_clust_4="90.77038" pt_clust_5="62.36307" pt_clust_6="121.22845"></scales>
<clustering>
<clus scale="   62.363">  1  5  2 -1</clus>
<clus scale="   90.770">  1  4  2 -1</clus>
<clus scale="  121.228">  2  6  1 -1</clus>
<clus scale="   62.363">  1  3  2 -1</clus>
</clustering>
</event>
<event>
 6    0  0.2572175E+002  0.1193745E+03  0.7546771E-02  0.1244132E+00
         21   -1    0    0  504  502  0.00000000000E+00  0.00000000000E+00  0.11383920267E+02  0.11383920267E+02  0.00000000000E+00 0. -1.
          2   -1    0    0  503    0 -0.00000000000E+00 -0.00000000000E+00 -0.28550343154E+04  0.28550343154E+04  0.00000000000E+00 0. -1.
         21    1    1    2  503  505  0.11373861433E+03  0.76918474077E+02 -0.87271624761E+03  0.88345151134E+03  0.00000000000E+00 0. -1.
         21    1    1    2  504  501 -0.37386504041E+02 -0.19872873755E+02 -0.40642561909E+03  0.40862509180E+03  0.00000000000E+00 0. -1.
         21    1    1    2  505  502 -0.32548791329E+02 -0.21452741656E+02 -0.82369775218E+02  0.91128611374E+02  0.00000000000E+00 0. -1.
          2    1    1    2  501    0 -0.43803318958E+02 -0.35592858666E+02 -0.14821387532E+04  0.14832130211E+04  0.00000000000E+00 0. -1.
<scales pt_clust_3="107.43582" pt_clust_4="46.98349" pt_clust_5="38.98261" pt_clust_6="46.98349"></scales>
<clustering>
<clus scale="   38.983">  1  5  2 -1</clus>
<clus scale="   46.983">  4  6 -1 -1</clus>
<clus scale="  107.436">  1  3  2 -1</clus>
<clus scale="   38.983">  1  3  2 -1</clus>
</clustering>
</event>
<event>
 6    0  0.2572175E+002  0.1613149E+03  0.7546771E-02  0.1187220E+00
         21   -1    0    0  501  502  0.00000000000E+00  0.00000000000E+00  0.42409869641E+03  0.42409869641E+03  0.00000000000E+00 0.  1.
          2   -1    0    0  503    0 -0.00000000000E+00 -0.00000000000E+00 -0.58087967591E+03  0.58087967591E+03  0.00000000000E+00 0.  1.
         21    1    1    2  503  504  0.21113688214E+02  0.34625806533E+02 -0.68655337846E+02  0.79738884635E+02  0.00000000000E+00 0.  1.
         21    1    1    2  504  505  0.15669590236E+02 -0.84809238747E+02  0.22445072453E+03  0.24045014198E+03  0.00000000000E+00 0. -1.
         21    1    1    2  505  502 -0.24895826800E+02 -0.71589471941E+02  0.17043168095E+03  0.18652563512E+03  0.00000000000E+00 0.  1.
          2    1    1    2  501    0 -0.11887451649E+02  0.12177290416E+03 -0.48300804713E+03  0.49826371059E+03  0.00000000000E+00 0.  1.
<scales pt_clust_3="40.55532" pt_clust_4="40.10891" pt_clust_5="40.10891" pt_clust_6="155.53770"></scales>
<clustering>
<clus scale="   40.109">  4  5 -1 -1</clus>
<clus scale="   40.555">  2  3  1 -1</clus>
<clus scale="  155.538">  2  6  1 -1</clus>
<clus scale="  161.315">  1  3  2 -1</clus>
</clustering>
</event>
<event>
 6    0  0.2572175E+002  0.1292207E+03  0.7546771E-02  0.1228617E+00
          2   -1    0    0  505    0 -0.00000000000E+00  0.00000000000E+00  0.11281390411E+04  0.11281390411E+04  0.00000000000E+00 0.  1.
         21   -1    0    0  501  502  0.00000000000E+00 -0.00000000000E+00 -0.27006958559E+02  0.27006958559E+02  0.00000000000E+00 0. -1.
         21    1    1    2  503  504  0.56939812883E+02 -0.33711514772E+02  0.87238976890E+02  0.10949542277E+03  0.00000000000E+00 0. -1.
         21    1    1    2  504  502  0.67557606613E+02  0.24127257556E+02  0.14391891176E+03  0.16080674094E+03  0.00000000000E+00 0. -1.
         21    1    1    2  505  503 -0.88708121479E+02 -0.41476178248E+02  0.47633518934E+03  0.48629684019E+03  0.00000000000E+00 0.  1.
          2    1    1    2  501    0 -0.35789298017E+02  0.51060435465E+02  0.39363900460E+03  0.39854699580E+03  0.00000000000E+00 0.  1.
<scales pt_clust_3="61.02911" pt_clust_4="61.02911" pt_clust_5="112.51735" pt_clust_6="62.35417"></scales>
<clustering>
<clus scale="   61.029">  3  4 -1 -1</clus>
<clus scale="   62.354">  1  6  2 -1</clus>
<clus scale="  112.517">  1  5  2 -1</clus>
<clus scale="  129.221">  2  3  1 -1</clus>
</clustering>
</event>
<event>
 6    0  0.2572175E+002  0.1435024E+03  0.7546771E-02  0.1208692E+00
         21   -1    0    0  503  502  0.00000000000E+00  0.00000000000E+00  0.45384236824E+03  0.45384236824E+03  0.00000000000E+00 0. -1.
          2   -1    0    0  504    0 -0.00000000000E+00 -0.00000000000E+00 -0.60159527888E+03  0.60159527888E+03  0.00000000000E+00 0.  1.
         21    1    1    2  503  505  0.57269880515E+02 -0.36907567178E+02  0.54313549056E+02  0.87131907705E+02  0.00000000000E+00 0. -1.
         21    1    1    2  504  502 -0.44062931706E+02  0.20268628242E+02  0.34325907207E+03  0.34666864554E+03  0.00000000000E+00 0. -1.
         21    1    1    2  505  501 -0.15013086159E+03 -0.11664538338E+02 -0.21072760910E+03  0.25900089246E+03  0.00000000000E+00 0. -1.
          2    1    1    2  501    0  0.13692391278E+03  0.28303477275E+02 -0.33459792267E+03  0.36263620141E+03  0.00000000000E+00 0.  1.
<scales pt_clust_3="37.20777" pt_clust_4="48.50113" pt_clust_5="14000.00000" pt_clust_6="143.50241"></scales>
<clustering>
<clus scale="   48.501">  1  4  2 -1</clus>
<clus scale="   37.208">  1  3  2 -1</clus>
<clus scale="  143.502">  2  6  1 -1</clus>
<clus scale="   48.501">  1  3  2 -1</clus>
</clustering>
</event>
<event>
 6    0  0.2572175E+002  0.1040282E+03  0.7546771E-02  0.1272046E+00
         -3   -1    0    0    0  501 -0.00000000000E+00  0.00000000000E+00  0.13327013904E+03  0.13327013904E+03  0.00000000000E+00 0. -1.
         21   -1    0    0  504  502  0.00000000000E+00 -0.00000000000E+00 -0.62166841931E+03  0.62166841931E+03  0.00000000000E+00 0.  1.
         21    1    1    2  503  501  0.10786909663E+03  0.46327305941E+01  0.37275341845E+02  0.11422195634E+03  0.00000000000E+00 0. -1.
         21    1    1    2  504  503 -0.49391110620E+02  0.35608875536E+02 -0.45829816076E+03  0.46232529455E+03  0.00000000000E+00 0.  1.
         21    1    1    2  505  502  0.38146289685E+02 -0.12722703083E+02 -0.66745360920E+02  0.77922716808E+02  0.00000000000E+00 0. -1.
         -3    1    1    2    0  505 -0.96624275699E+02 -0.27518903047E+02 -0.63010044087E+00  0.10046859064E+03  0.00000000000E+00 0. -1.
<scales pt_clust_3="104.02819" pt_clust_4="30.43170" pt_clust_5="40.21202" pt_clust_6="14000.00000"></scales>
<clustering>
<clus scale="   40.212">  2  5  1 -1</clus>
<clus scale="   30.432">  2  4  1 -1</clus>
<clus scale="  104.028">  1  3  2 -1</clus>
<clus scale="   40.212">  2  3  1 -1</clus>
</clustering>
</event>
<event>
 6    0  0.2572175E+002  0.1306081E+03  0.7546771E-02  0.1226556E+00
         21   -1    0    0  503  502  0.00000000000E+00  0.00000000000E+00  0.21650117487E+03  0.21650117487E+03  0.00000000000E+00 0.  1.
          2   -1    0    0  504    0 -0.00000000000E+00 -0.00000000000E+00 -0.12362886967E+04  0.12362886967E+04  0.00000000000E+00 0.  1.
         21    1    1    2  503  505  0.77681560266E-01  0.53938279082E+02  0.26506092568E+02  0.60099225685E+02  0.00000000000E+00 0.  1.
         21    1    1    2  504  502 -0.30672145351E+02  0.74688208252E+01  0.51213413972E+02  0.60161262916E+02  0.00000000000E+00 0. -1.
         21    1    1    2  505  501  0.15167230448E+03 -0.12942422560E+02  0.62979642968E+02  0.16473745681E+03  0.00000000000E+00 0.  1.
          2    1    1    2  501    0 -0.12107784069E+03 -0.48464677347E+02 -0.11604866713E+04  0.11677919261E+04  0.00000000000E+00 0.  1.
<scales pt_clust_3="56.54445" pt_clust_4="31.56840" pt_clust_5="14000.00000" pt_clust_6="130.60815"></scales>
<clustering>
<clus scale="   31.568">  1  4  2 -1</clus>
<clus scale="   56.544">  1  3  2 -1</clus>
<clus scale="  130.608">  2  6  1 -1</clus>
<clus scale="   31.568">  1  3  2 -1</clus>
</clustering>
</event>
<event>
 6    0  0.2572175E+002  0.1039464E+03  0.7546771E-02  0.1272210E+00
         21   -1    0    0  505  502  0.00000000000E+00  0.00000000000E+00  0.17383438848E+02  0.17383438848E+02  0.00000000000E+00 0. -1.
          1   -1    0    0  504    0 -0.00000000000E+00 -0.00000000000E+00 -0.34064676368E+04  0.34064676368E+04  0.00000000000E+00 0. -1.
         21    1    1    2  503  502  0.11052433877E+03 -0.10028627580E+02 -0.20396308112E+03  0.23220064878E+03  0.00000000000E+00 0. -1.
         21    1    1    2  504  503 -0.51174340308E+02  0.66779045297E+02 -0.13764728277E+04  0.13790415873E+04  0.00000000000E+00 0. -1.
         21    1    1    2  505  501 -0.37196475974E+02 -0.23164058942E+02 -0.27804069781E+03  0.28147252279E+03  0.00000000000E+00 0.  1.
          1    1    1    2  501    0 -0.22153522491E+02 -0.33586358775E+02 -0.15306075913E+04  0.15311363167E+04  0.00000000000E+00 0. -1.
<scales pt_clust_3="103.94638" pt_clust_4="14000.00000" pt_clust_5="49.33631" pt_clust_6="40.23459"></scales>
<clustering>
<clus scale="   40.235">  2  6  1 -1</clus>
<clus scale="   49.336">  2  5  1 -1</clus>
<clus scale="  103.946">  1  3  2 -1</clus>
<clus scale="  103.946">  1  3  2 -1</clus>
</clustering>
</event>
<event>
 6    0  0.2572175E+002  0.1471196E+03  0.7546771E-02  0.1204058E+00
         21   -1    0    0  505  502  0.00000000000E+00  0.00000000000E+00  0.33454060530E+03  0.33454060530E+03  0.00000000000E+00 0.  1.
          1   -1    0    0  504    0 -0.00000000000E+00 -0.00000000000E+00 -0.26201743055E+03  0.26201743055E+03  0.00000000000E+00 0.  1.
         21    1    1    2  503  502 -0.24581842576E+02 -0.40319820450E+02  0.77392047589E+01  0.47852379208E+02  0.00000000000E+00 0. -1.
         21    1    1    2  504  503 -0.51746443294E+02  0.71802220670E+02 -0.98408761382E+02  0.13235383486E+03  0.00000000000E+00 0.  1.
         21    1    1    2  505  501 -0.65073336189E+02 -0.97507945579E+02  0.22080948770E+03  0.24999833678E+03  0.00000000000E+00 0.  1.
          1    1    1    2  501    0  0.14140162206E+03  0.66025545359E+02 -0.57616756335E+02  0.16635348500E+03  0.00000000000E+00 0.  1.
<scales pt_clust_3="47.22240" pt_clust_4="87.52412" pt_clust_5="147.11956" pt_clust_6="14000.00000"></scales>
<clustering>
<clus scale="   47.222">  1  3  2 -1</clus>
<clus scale="   87.524">  2  4  1 -1</clus>
<clus scale="  147.120">  1  5  2 -1</clus>
<clus scale="   47.222">  1  3  2 -1</clus>
</clustering>
</event>
<event>
 6    0  0.2572175E+002  0.1583326E+03  0.7546771E-02  0.1190592E+00
         21   -1    0    0  503  502  0.00000000000E+00  0.00000000000E+00  0.28310986470E+02  0.28310986470E+02  0.00000000000E+00 0.  1.
         -2   -1    0    0    0  501 -0.00000000000E+00 -0.00000000000E+00 -0.11170535167E+04  0.11170535167E+04  0.00000000000E+00 0.  1.
         21    1    1    2  503  501 -0.15525276979E+03  0.20323415044E+02 -0.43307654171E+03  0.46051249136E+03  0.00000000000E+00 0.  1.
         21    1    1    2  504  502  0.52661056160E+02 -0.28305447363E+02 -0.11056346654E+03  0.12569274172E+03  0.00000000000E+00 0.  1.
         21    1    1    2  505  504  0.81481253630E+02 -0.23745356455E+02 -0.33201203769E+03  0.34268794816E+03  0.00000000000E+00 0.  1.
         -2    1    1    2    0  505  0.21110460002E+02  0.31727388774E+02 -0.21309048426E+03  0.21647132189E+03  0.00000000000E+00 0.  1.
<scales pt_clust_3="149.21551" pt_clust_4="43.36154" pt_clust_5="43.36154" pt_clust_6="38.10877"></scales>
<clustering>
<clus scale="   38.109">  2  6  1 -1</clus>
<clus scale="   43.362">  4  5 -1 -1</clus>
<clus scale="  149.216">  2  3  1 -1</clus>
<clus scale="  158.333">  1  3  2 -1</clus>
</clustering>
</event>
<event>
 6    0  0.2572175E+002  0.7260763E+02  0.7546771E-02  0.1351444E+00
         21   -1    0    0  501  502  0.00000000000E+00  0.00000000000E+00  0.32092188503E+03  0.32092188503E+03  0.00000000000E+00 0. -1.
          2   -1    0    0  504    0 -0.00000000000E+00 -0.00000000000E+00 -0.42079614494E+04  0.42079614494E+04  0.00000000000E+00 0.  1.
         21    1    1    2  503  502 -0.36628179166E+02 -0.20326052963E+02  0.17808739959E+03  0.18294778991E+03  0.00000000000E+00 0. -1.
         21    1    1    2  504  505 -0.40032323933E+02 -0.24360697111E+02 -0.31803266229E+04  0.31806718566E+04  0.00000000000E+00 0.  1.
         21    1    1    2  505  503 -0.58971184233E+01  0.79203999033E+02  0.12685038075E+03  0.14966318373E+03  0.00000000000E+00 0. -1.
          2    1    1    2  501    0  0.82557621522E+02 -0.34517248960E+02 -0.10116507217E+04  0.10156005042E+04  0.00000000000E+00 0.  1.
<scales pt_clust_3="41.89000" pt_clust_4="46.91328" pt_clust_5="72.60763" pt_clust_6="14000.00000"></scales>
<clustering>
<clus scale="   41.890">  1  3  2 -1</clus>
<clus scale="   46.913">  2  4  1 -1</clus>
<clus scale="   72.608">  1  5  2 -1</clus>
<clus scale="   41.890">  1  3  2 -1</clus>
</clustering>
</event>
<event>
 6    0  0.2572175E+002  0.1421866E+03  0.7546771E-02  0.1210417E+00
         21   -1    0    0  501  502  0.00000000000E+00  0.00000000000E+00  0.36891664775E+03  0.36891664775E+03  0.00000000000E+00 0. -1.
          2   -1    0    0  504    0 -0.00000000000E+00 -0.00000000000E+00 -0.45411799513E+03  0.45411799513E+03  0.00000000000E+00 0. -1.
         21    1    1    2  503  505 -0.10351761185E+03  0.95100497286E+02  0.29710064332E+03  0.32867733844E+03  0.00000000000E+00 0. -1.
         21    1    1    2  504  503  0.31015701730E+02 -0.73963064711E+01 -0.12267640939E+02  0.34163930064E+02  0.00000000000E+00 0. -1.
         21    1    1    2  505  502  0.31714842345E+02  0.30119083657E+02  0.21893145993E+02  0.48911146652E+02  0.00000000000E+00 0. -1.
          2    1    1    2  501    0  0.40787067772E+02 -0.11782327447E+03 -0.39192749576E+03  0.41128222772E+03  0.00000000000E+00 0. -1.
<scales pt_clust_3="142.18662" pt_clust_4="31.88541" pt_clust_5="44.29106" pt_clust_6="14000.00000"></scales>
<clustering>
<clus scale="   31.885">  2  4  1 -1</clus>
<clus scale="   44.291">  1  5  2 -1</clus>
<clus scale="  142.187">  1  3  2 -1</clus>
<clus scale="   44.291">  1  3  2 -1</clus>
</clustering>
</event>
<event>
 6    0  0.4440881E+002  0.8986071E+02  0.7546771E-02  0.1303189E+00
          2   -1    0    0  504    0 -0.00000000000E+00  0.00000000000E+00  0.12899013769E+04  0.12899013769E+04  0.00000000000E+00 0. -1.
         21   -1    0    0  505  502  0.00000000000E+00 -0.00000000000E+00 -0.12485924842E+04  0.12485924842E+04  0.00000000000E+00 0. -1.
         21    1    1    2  503  502  0.50383333571E+02  0.44289468108E+02 -0.26898935366E+03  0.27722790204E+03  0.00000000000E+00 0.  1.
         21    1    1    2  504  503  0.22459029208E+02  0.54655441564E+02 -0.30160908954E+03  0.30734291626E+03  0.00000000000E+00 0. -1.
         21    1    1    2  505  501 -0.78294813596E+02 -0.15298107810E+02 -0.66726010638E+03  0.67201202333E+03  0.00000000000E+00 0. -1.
          2    1    1    2  501    0  0.54524508168E+01 -0.83646801862E+02  0.12791674422E+04  0.12819110195E+04  0.00000000000E+00 0. -1.
<scales pt_clust_3="30.33029" pt_clust_4="30.33029" pt_clust_5="79.77537" pt_clust_6="83.84863"></scales>
<clustering>
<clus scale="   30.330">  3  4 -1 -1</clus>
<clus scale="   79.775">  2  5  1 -1</clus>
<clus scale="   83.849">  1  6  2 -1</clus>
<clus scale="   79.775">  2  3  1 -1</clus>
</clustering>
</event>
<event>
 6    0  0.2572175E+002  0.1304958E+03  0.7546771E-02  0.1226722E+00
         21   -1    0    0  501  502  0.00000000000E+00  0.00000000000E+00  0.66930074137E+03  0.66930074137E+03  0.00000000000E+00 0. -1.
          2   -1    0    0  505    0 -0.00000000000E+00 -0.00000000000E+00 -0.11976472134E+04  0.11976472134E+04  0.00000000000E+00 0.  1.
         21    1    1    2  503  504  0.74040639541E+02  0.15913196994E+02 -0.64619637828E+02  0.99553722859E+02  0.00000000000E+00 0.  1.
         21    1    1    2  504  502 -0.12170722076E+03 -0.59307097416E+02  0.64180752231E+03  0.65593206591E+03  0.00000000000E+00 0. -1.
         21    1    1    2  505  503  0.66770622353E+01  0.45011645946E+02 -0.20480724635E+03  0.20980142895E+03  0.00000000000E+00 0.  1.
          2    1    1    2  501    0  0.40989518985E+02 -0.16177455235E+01 -0.90072711017E+03  0.90166073706E+03  0.00000000000E+00 0.  1.
<scales pt_clust_3="130.49579" pt_clust_4="14000.00000" pt_clust_5="56.34202" pt_clust_6="41.02143"></scales>
<clustering>
<clus scale="   41.021">  2  6  1 -1</clus>
<clus scale="   56.342">  2  5  1 -1</clus>
<clus scale="  130.496">  2  3  1 -1</clus>
<clus scale="  130.496">  1  3  2 -1</clus>
</clustering>
</event>
<event>
 6    0  0.2572175E+002  0.1157620E+03  0.7546771E-02  0.1250257E+00
         -3   -1    0    0    0  501 -0.00000000000E+00  0.00000000000E+00  0.17184345134E+03  0.17184345134E+03  0.00000000000E+00 0.  1.
         21   -1    0    0  504  502  0.00000000000E+00 -0.00000000000E+00 -0.70899975636E+03  0.70899975636E+03  0.00000000000E+00 0. -1.
         21    1    1    2  503  505  0.73018293521E+01 -0.59648067251E+02 -0.17055570025E+03  0.18083267273E+03  0.00000000000E+00 0. -1.
         21    1    1    2  504  501 -0.70338240209E+02  0.73931609889E+02 -0.35433240495E+03  0.36873405617E+03  0.00000000000E+00 0. -1.
         21    1    1    2  505  502  0.46385029867E+02 -0.50061989700E+02 -0.16234015172E+03  0.17610252317E+03  0.00000000000E+00 0. -1.
         -3    1    1    2    0  503  0.16651380991E+02  0.35778447061E+02  0.15007195189E+03  0.15517395564E+03  0.00000000000E+00 0.  1.
<scales pt_clust_3="38.28351" pt_clust_4="108.33436" pt_clust_5="38.28351" pt_clust_6="39.46347"></scales>
<clustering>
<clus scale="   38.284">  3  5 -1 -1</clus>
<clus scale="   39.463">  1  6  2 -1</clus>
<clus scale="  108.334">  2  4  1 -1</clus>
<clus scale="  108.334">  2  3  1 -1</clus>
</clustering>
</event>
<event>
 6    0  0.2572175E+002  0.1285304E+03  0.7546771E-02  0.1229653E+00
         21   -1    0    0  503  502  0.00000000000E+00  0.00000000000E+00  0.95527810024E+02  0.95527810024E+02  0.00000000000E+00 0. -1.
          2   -1    0    0  504    0 -0.00000000000E+00 -0.00000000000E+00 -0.61903931992E+03  0.61903931992E+03  0.00000000000E+00 0.  1.
         21    1    1    2  503  501  0.16716691433E+03  0.26807686784E+02 -0.20506331435E+03  0.26592177837E+03  0.00000000000E+00 0.  1.
         21    1    1    2  504  505 -0.32657089541E+02 -0.46825612551E+02 -0.10751594636E+02  0.58092342656E+02  0.00000000000E+00 0.  1.
         21    1    1    2  505  502 -0.58824279878E+02 -0.13218914567E+02  0.11021063878E+02  0.61290288419E+02  0.00000000000E+00 0. -1.
          2    1    1    2  501    0 -0.75685544913E+02  0.33236840333E+02 -0.31871766479E+03  0.32926272050E+03  0.00000000000E+00 0.  1.
<scales pt_clust_3="119.34031" pt_clust_4="46.44302" pt_clust_5="46.44302" pt_clust_6="82.66190"></scales>
<clustering>
<clus scale="   46.443">  4  5 -1 -1</clus>
<clus scale="   82.662">  2  6  1 -1</clus>
<clus scale="  119.340">  2  3  1 -1</clus>
<clus scale="  128.530">  1  3  2 -1</clus>
</clustering>
</event>
<event>
 6    0  0.2572175E+002  0.1032662E+03  0.7546771E-02  0.1273574E+00
          2   -1    0    0  504    0 -0.00000000000E+00  0.00000000000E+00  0.15171813291E+04  0.15171813291E+04  0.00000000000E+00 0. -1.
         21   -1    0    0  503  502  0.00000000000E+00 -0.00000000000E+00 -0.77672121277E+02  0.77672121277E+02  0.00000000000E+00 0.  1.
         21    1    1    2  503  505  0.85245483658E+02 -0.28560321336E+02  0.46115224791E+02  0.10104008312E+03  0.00000000000E+00 0.  1.
         21    1    1    2  504  502 -0.12750509037E+02  0.28648906378E+02  0.37294012015E+02  0.48725544118E+02  0.00000000000E+00 0.  1.
         21    1    1    2  505  501  0.26697561811E+01  0.74092850633E+02 -0.10088154160E+02  0.74824120225E+02  0.00000000000E+00 0.  1.
          2    1    1    2  501    0 -0.75164730801E+02 -0.74181435676E+02  0.13661881252E+04  0.13702637029E+04  0.00000000000E+00 0. -1.
<scales pt_clust_3="82.28915" pt_clust_4="31.35818" pt_clust_5="103.26625" pt_clust_6="14000.00000"></scales>
<clustering>
<clus scale="   31.358">  2  4  1 -1</clus>
<clus scale="   82.289">  2  3  1 -1</clus>
<clus scale="  103.266">  2  5  1 -1</clus>
<clus scale="   31.358">  2  3  1 -1</clus>
</clustering>
</event>
<event>
 6    0  0.2572175E+002  0.6778143E+02  0.7546771E-02  0.1367804E+00
         21   -1    0    0  501  502  0.00000000000E+00  0.00000000000E+00  0.31997859594E+03  0.31997859594E+03  0.00000000000E+00 0. -1.
          2   -1    0    0  505    0 -0.00000000000E+00 -0.00000000000E+00 -0.22222700374E+04  0.22222700374E+04  0.00000000000E+00 0.  1.
         21    1    1    2  503  502 -0.13792597704E+02 -0.62808871969E+02  0.24798290503E+03  0.25618491630E+03  0.00000000000E+00 0. -1.
         21    1    1    2  504  503 -0.10252942307E+02  0.12280230952E+03  0.39169117716E+01  0.12329181744E+03  0.00000000000E+00 0. -1.
         21    1    1    2  505  504 -0.25100159027E+02 -0.34565468762E+02 -0.11259661362E+03  0.12042751767E+03  0.00000000000E+00 0. -1.
          2    1    1    2  501    0  0.49145699039E+02 -0.25427968791E+02 -0.20415946446E+04  0.20423443819E+04  0.00000000000E+00 0.  1.
<scales pt_clust_3="67.78143" pt_clust_4="14000.00000" pt_clust_5="42.71756" pt_clust_6="63.95315"></scales>
<clustering>
<clus scale="   42.718">  2  5  1 -1</clus>
<clus scale="   63.953">  2  6  1 -1</clus>
<clus scale="   67.781">  1  3  2 -1</clus>
<clus scale="   67.781">  1  3  2 -1</clus>
</clustering>
</event>
<event>
 6    0  0.2572175E+002  0.9738004E+02  0.7546771E-02  0.1285904E+00
         21   -1    0    0  504  502  0.00000000000E+00  0.00000000000E+00  0.13775184284E+03  0.13775184284E+03  0.00000000000E+00 0. -1.
          2   -1    0    0  505    0 -0.00000000000E+00 -0.00000000000E+00 -0.40438082335E+04  0.40438082335E+04  0.00000000000E+00 0. -1.
         21    1    1    2  503  501  0.81931603477E+02 -0.53857206074E+01  0.69962951107E+02  0.10787311140E+03  0.00000000000E+00 0. -1.
         21    1    1    2  504  503 -0.43841470397E+02  0.51530348360E+02  0.59600739561E+01  0.67918876686E+02  0.00000000000E+00 0. -1.
         21    1    1    2  505  502  0.97520572739E+01  0.39154648601E+02 -0.24763107029E+02  0.47343432468E+02  0.00000000000E+00 0.  1.
          2    1    1    2  501    0 -0.47842190354E+02 -0.85299276354E+02 -0.39572163087E+04  0.39584246557E+04  0.00000000000E+00 0. -1.
<scales pt_clust_3="97.38004" pt_clust_4="75.13531" pt_clust_5="40.35083" pt_clust_6="14000.00000"></scales>
<clustering>
<clus scale="   40.351">  1  5  2 -1</clus>
<clus scale="   75.135">  1  4  2 -1</clus>
<clus scale="   97.380">  1  3  2 -1</clus>
<clus scale="   40.351">  1  3  2 -1</clus>
</clustering>
</event>
<event>
 6    0  0.2572175E+002  0.6495201E+02  0.7546771E-02  0.1378152E+00
         21   -1    0    0  504  502  0.00000000000E+00  0.00000000000E+00  0.19252848192E+03  0.19252848192E+03  0.00000000000E+00 0.  1.
         -4   -1    0    0    0  501 -0.00000000000E+00 -0.00000000000E+00 -0.10314205497E+04  0.10314205497E+04  0.00000000000E+00 0. -1.
         21    1    1    2  503  505 -0.53122977820E+02  0.33109408013E+02  0.28794600132E+02  0.68901470726E+02  0.00000000000E+00 0.  1.
         21    1    1    2  504  503 -0.98044725963E+01 -0.54127596666E+02  0.12869285079E+03  0.13995632979E+03  0.00000000000E+00 0.  1.
         21    1    1    2  505  501  0.11389352022E+03  0.43249296170E+02 -0.84665385545E+03  0.85537417925E+03  0.00000000000E+00 0. -1.
         -4    1    1    2    0  502 -0.50966069807E+02 -0.22231107518E+02 -0.14972566326E+03  0.15971705185E+03  0.00000000000E+00 0. -1.
<scales pt_clust_3="14000.00000" pt_clust_4="55.00840" pt_clust_5="64.95201" pt_clust_6="58.36434"></scales>
<clustering>
<clus scale="   55.008">  1  4  2 -1</clus>
<clus scale="   58.364">  2  6  1 -1</clus>
<clus scale="   64.952">  2  5  1 -1</clus>
<clus scale="   55.008">  1  3  2 -1</clus>
</clustering>
</event>
<event>
 6    0  0.2572175E+002  0.9467872E+02  0.7546771E-02  0.1291901E+00
         21   -1    0    0  503  502  0.00000000000E+00  0.00000000000E+00  0.73973193101E+03  0.73973193101E+03  0.00000000000E+00 0.  1.
         -2   -1    0    0    0  501 -0.00000000000E+00 -0.00000000000E+00 -0.68308278984E+03  0.68308278984E+03  0.00000000000E+00 0.  1.
         21    1    1    2  503  501  0.74636105940E+02  0.69012955214E+02  0.87551837732E+02  0.13415908686E+03  0.00000000000E+00 0.  1.
         21    1    1    2  504  502 -0.75031365838E+02 -0.55581968176E+02  0.46069601450E+03  0.47006369656E+03  0.00000000000E+00 0.  1.
         21    1    1    2  505  504 -0.21427453004E+02 -0.83197315689E+02  0.14998999607E+03  0.17285233005E+03  0.00000000000E+00 0.  1.
         -2    1    1    2    0  505  0.21822712902E+02  0.69766328651E+02 -0.64158870714E+03  0.64573960739E+03  0.00000000000E+00 0.  1.
<scales pt_clust_3="14000.00000" pt_clust_4="94.67872" pt_clust_5="64.75055" pt_clust_6="73.09974"></scales>
<clustering>
<clus scale="   73.100">  2  6  1 -1</clus>
<clus scale="   64.751">  2  5  1 -1</clus>
<clus scale="   94.679">  1  4  2 -1</clus>
<clus scale="   94.679">  1  3  2 -1</clus>
</clustering>
</event>
<event>
 6    0  0.2572175E+002  0.7070537E+02  0.7546771E-02  0.1357711E+00
         21   -1    0    0  503  502  0.00000000000E+00  0.00000000000E+00  0.32557900356E+03  0.32557900356E+03  0.00000000000E+00 0.  1.
          2   -1    0    0  504    0 -0.00000000000E+00 -0.00000000000E+00 -0.25906921605E+03  0.25906921605E+03  0.00000000000E+00 0. -1.
         21    1    1    2  503  501  0.15358852754E+02  0.58541258671E+02  0.92959092635E+02  0.11092504779E+03  0.00000000000E+00 0. -1.
         21    1    1    2  504  505  0.74955377599E+02 -0.30625817248E+02 -0.12368309481E+03  0.14783016355E+03  0.00000000000E+00 0. -1.
         21    1    1    2  505  502 -0.72205831178E+02 -0.54061992208E+02  0.19942008328E+03  0.21887153921E+03  0.00000000000E+00 0.  1.
          2    1    1    2  501    0 -0.18108399174E+02  0.26146550785E+02 -0.10218629360E+03  0.10702146906E+03  0.00000000000E+00 0. -1.
<scales pt_clust_3="70.70537" pt_clust_4="59.53330" pt_clust_5="14000.00000" pt_clust_6="31.80497"></scales>
<clustering>
<clus scale="   31.805">  2  6  1 -1</clus>
<clus scale="   59.533">  2  4  1 -1</clus>
<clus scale="   70.705">  1  3  2 -1</clus>
<clus scale="   70.705">  1  3  2 -1</clus>
</clustering>
</event>
<event>
 6    0  0.2572175E+002  0.1316110E+03  0.7546771E-02  0.1225085E+00
         -1   -1    0    0    0  501 -0.00000000000E+00  0.00000000000E+00  0.67557936653E+02  0.67557936653E+02  0.00000000000E+00 0. -1.
         21   -1    0    0  504  502  0.00000000000E+00 -0.00000000000E+00 -0.25689005516E+04  0.25689005516E+04  0.00000000000E+00 0. -1.
         21    1    1    2  503  502 -0.11855206250E+03 -0.16951399226E+03 -0.21782184332E+04  0.21880185392E+04  0.00000000000E+00 0. -1.
         21    1    1    2  504  505  0.46129653837E+02  0.61403735706E+02 -0.23746896992E+03  0.24957939698E+03  0.00000000000E+00 0. -1.
         21    1    1    2  505  501 -0.14078687912E+02  0.35933117498E+02 -0.76680924390E+02  0.85844991419E+02  0.00000000000E+00 0. -1.
         -1    1    1    2    0  503  0.86501096572E+02  0.72177139057E+02 -0.89742874012E+01  0.11301556063E+03  0.00000000000E+00 0. -1.
<scales pt_clust_3="14000.00000" pt_clust_4="78.81336" pt_clust_5="38.59272" pt_clust_6="131.61096"></scales>
<clustering>
<clus scale="   38.593">  1  5  2 -1</clus>
<clus scale="   78.813">  2  4  1 -1</clus>
<clus scale="  131.611">  1  6  2 -1</clus>
<clus scale="   78.813">  2  3  1 -1</clus>
</clustering>
</event>
<event>
 6    0  0.2572175E+002  0.1186211E+03  0.7546771E-02  0.1245389E+00
          2   -1    0    0  504    0 -0.00000000000E+00  0.00000000000E+00  0.20374245122E+04  0.20374245122E+04  0.00000000000E+00 0.  1.
         21   -1    0    0  503  502  0.00000000000E+00 -0.00000000000E+00 -0.90178068674E+02  0.90178068674E+02  0.00000000000E+00 0. -1.
         21    1    1    2  503  501  0.34584434246E+02  0.95100198231E+02  0.13033314473E+03  0.16500563448E+03  0.00000000000E+00 0.  1.
         21    1    1    2  504  505 -0.58083257146E+02 -0.21611861032E+02  0.29523243737E+03  0.30166691793E+03  0.00000000000E+00 0. -1.
         21    1    1    2  505  502 -0.27266833354E+02 -0.12264836363E+03 -0.11457325060E+02  0.12616406620E+03  0.00000000000E+00 0. -1.
          2    1    1    2  501    0  0.50765656254E+02  0.49160026433E+02  0.15331381865E+04  0.15347659623E+04  0.00000000000E+00 0.  1.
<scales pt_clust_3="14000.00000" pt_clust_4="61.97368" pt_clust_5="118.62110" pt_clust_6="30.09984"></scales>
<clustering>
<clus scale="   61.974">  1  4  2 -1</clus>
<clus scale="   30.100">  1  6  2 -1</clus>
<clus scale="  118.621">  2  5  1 -1</clus>
<clus scale="  118.621">  2  3  1 -1</clus>
</clustering>
</event>
<event>
 6    0  0.2572175E+002  0.1267431E+03  0.7546771E-02  0.1232370E+00
         21   -1    0    0  503  502  0.00000000000E+00  0.00000000000E+00  0.13483582658E+03  0.13483582658E+03  0.00000000000E+00 0.  1.
          1   -1    0    0  504    0 -0.00000000000E+00 -0.00000000000E+00 -0.13491372579E+04  0.13491372579E+04  0.00000000000E+00 0.  1.
         21    1    1    2  503  505 -0.18446080086E+02 -0.82472743488E+02  0.77812733934E+02  0.11487746886E+03  0.00000000000E+00 0.  1.
         21    1    1    2  504  502  0.67498498753E+02  0.61094925405E+02 -0.43844852895E+03  0.44780101583E+03  0.00000000000E+00 0. -1.
         21    1    1    2  505  501 -0.33219558376E+02 -0.26439780314E+02  0.19469128371E+02  0.46708114940E+02  0.00000000000E+00 0.  1.
          1    1    1    2  501    0 -0.15832860290E+02  0.47817598396E+02 -0.87313476471E+03  0.87458648487E+03  0.00000000000E+00 0.  1.
<scales pt_clust_3="32.59575" pt_clust_4="118.10564" pt_clust_5="32.59575" pt_clust_6="50.37065"></scales>
<clustering>
<clus scale="   32.596">  3  5 -1 -1</clus>
<clus scale="   50.371">  2  6  1 -1</clus>
<clus scale="  118.106">  2  4  1 -1</clus>
<clus scale="  126.743">  1  3  2 -1</clus>
</clustering>
</event>
<event>
 6    0  0.2572175E+002  0.2731362E+03  0.7546771E-02  0.1099498E+00
         21   -1    0    0  503  502  0.00000000000E+00  0.00000000000E+00  0.52246293817E+03  0.52246293817E+03  0.00000000000E+00 0. -1.
          2   -1    0    0  502    0 -0.00000000000E+00 -0.00000000000E+00 -0.90715543800E+03  0.90715543800E+03  0.00000000000E+00 0. -1.
         21    1    1    2  503  504 -0.17099126274E+03  0.59353235376E+02  0.24815490221E+03  0.30715089773E+03  0.00000000000E+00 0. -1.
         21    1    1    2  504  505 -0.10662761526E+03  0.51290189728E+01  0.19724101020E+03  0.22427610500E+03  0.00000000000E+00 0. -1.
         21    1    1    2  505  501  0.16872748632E+03  0.55445671305E+01 -0.23603023222E+03  0.29018955424E+03  0.00000000000E+00 0. -1.
          2    1    1    2  501    0  0.10889139168E+03 -0.70026821479E+02 -0.59405818001E+03  0.60800181920E+03  0.00000000000E+00 0. -1.
<scales pt_clust_3="40.68773" pt_clust_4="40.68773" pt_clust_5="267.94862" pt_clust_6="129.46463"></scales>
<clustering>
<clus scale="   40.688">  3  4 -1 -1</clus>
<clus scale="  129.465">  2  6  1 -1</clus>
<clus scale="  267.949">  2  5  1 -1</clus>
<clus scale="  273.136">  1  3  2 -1</clus>
</clustering>
</event>
<event>
 6    0  0.2572175E+002  0.1027943E+03  0.7546771E-02  0.1274527E+00
         21   -1    0    0  501  502  0.00000000000E+00  0.00000000000E+00  0.72019479199E+02  0.72019479199E+02  0.00000000000E+00 0.  1.
          1   -1    0    0  503    0 -0.00000000000E+00 -0.00000000000E+00 -0.31779768427E+04  0.31779768427E+04  0.00000000000E+00 0.  1.
         21    1    1    2  503  504 -0.16611794478E+02 -0.14908541473E+03 -0.52837944594E+03  0.54926064076E+03  0.00000000000E+00 0.  1.
         21    1    1    2  504  505 -0.10712544926E+02  0.69720796750E+02 -0.73199355077E+02  0.10165576079E+03  0.00000000000E+00 0.  1.
         21    1    1    2  505  502  0.35599685239E+02  0.35760224658E+02  0.33658405347E+02  0.60654921542E+02  0.00000000000E+00 0.  1.
          1    1    1    2  501    0 -0.82753458345E+01  0.43604393323E+02 -0.25380369678E+04  0.25384249988E+04  0.00000000000E+00 0.  1.
<scales pt_clust_3="102.79431" pt_clust_4="14000.00000" pt_clust_5="50.99389" pt_clust_6="44.38270"></scales>
<clustering>
<clus scale="   44.383">  2  6  1 -1</clus>
<clus scale="   50.994">  1  5  2 -1</clus>
<clus scale="  102.794">  2  3  1 -1</clus>
<clus scale="   50.994">  1  3  2 -1</clus>
</clustering>
</event>
<event>
 6    0  0.2572175E+002  0.8668644E+02  0.7546771E-02  0.1311080E+00
         21   -1    0    0  504  502  0.00000000000E+00  0.00000000000E+00  0.20414354481E+03  0.20414354481E+03  0.00000000000E+00 0.  1.
          2   -1    0    0  503    0 -0.00000000000E+00 -0.00000000000E+00 -0.10762531388E+04  0.10762531388E+04  0.00000000000E+00 0.  1.
         21    1    1    2  503  505  0.58516858619E+02 -0.17002733162E+02 -0.14799736671E+03  0.16005166738E+03  0.00000000000E+00 0. -1.
         21    1    1    2  504  501 -0.92133859988E+01  0.89398603570E+02  0.77784552790E+02  0.11885888042E+03  0.00000000000E+00 0.  1.
         21    1    1    2  505  502 -0.80206247138E+02 -0.44580753231E+02  0.78105067133E+02  0.12050264375E+03  0.00000000000E+00 0.  1.
          2    1    1    2  501    0  0.30902774518E+02 -0.27815117176E+02 -0.88000184716E+03  0.88098349202E+03  0.00000000000E+00 0.  1.
<scales pt_clust_3="86.31381" pt_clust_4="86.68644" pt_clust_5="14000.00000" pt_clust_6="41.57718"></scales>
<clustering>
<clus scale="   41.577">  2  6  1 -1</clus>
<clus scale="   86.686">  1  4  2 -1</clus>
<clus scale="   86.314">  2  3  1 -1</clus>
<clus scale="   86.686">  1  3  2 -1</clus>
</clustering>
</event>
<event>
 6    0  0.2572175E+002  0.1762428E+03  0.7546771E-02  0.1171490E+00
          2   -1    0    0  504    0 -0.00000000000E+00  0.00000000000E+00  0.18461468341E+04  0.18461468341E+04  0.00000000000E+00 0. -1.
         21   -1    0    0  503  502  0.00000000000E+00 -0.00000000000E+00 -0.34432933701E+03  0.34432933701E+03  0.00000000000E+00 0. -1.
         21    1    1    2  503  501  0.58822388660E+01  0.32321205211E+02 -0.13056203629E+03  0.13463174351E+03  0.00000000000E+00 0. -1.
         21    1    1    2  504  505  0.76846196897E+02 -0.74984644760E+02  0.71693993722E+03  0.72493510641E+03  0.00000000000E+00 0. -1.
         21    1    1    2  505  502  0.74201357067E+02  0.12784573751E+03 -0.17321173296E+03  0.22771183198E+03  0.00000000000E+00 0. -1.
          2    1    1    2  501    0 -0.15692979283E+03 -0.85182297957E+02  0.10886513291E+04  0.11031974892E+04  0.00000000000E+00 0. -1.
<scales pt_clust_3="32.85211" pt_clust_4="107.02323" pt_clust_5="14000.00000" pt_clust_6="176.24284"></scales>
<clustering>
<clus scale="   32.852">  2  3  1 -1</clus>
<clus scale="  107.023">  1  4  2 -1</clus>
<clus scale="  176.243">  1  6  2 -1</clus>
<clus scale="   32.852">  2  3  1 -1</clus>
</clustering>
</event>
<event>
 6    0  0.2572175E+002  0.9803298E+02  0.7546771E-02  0.1284488E+00
          3   -1    0    0  504    0 -0.00000000000E+00  0.00000000000E+00  0.26127252857E+03  0.26127252857E+03  0.00000000000E+00 0.  1.
         21   -1    0    0  505  502  0.00000000000E+00 -0.00000000000E+00 -0.13122634403E+04  0.13122634403E+04  0.00000000000E+00 0. -1.
         21    1    1    2  503  501  0.81211326798E+02  0.11521907863E+03 -0.62629752968E+02  0.15425045101E+03  0.00000000000E+00 0.  1.
         21    1    1    2  504  502 -0.50301033252E+02  0.19099707269E+02 -0.23621246300E+03  0.24226291594E+03  0.00000000000E+00 0.  1.
         21    1    1    2  505  503  0.16861941079E+02 -0.10604455041E+03 -0.95790748750E+03  0.96390690751E+03  0.00000000000E+00 0. -1.
          3    1    1    2  501    0 -0.47772234625E+02 -0.28274235488E+02  0.20575879178E+03  0.21311569437E+03  0.00000000000E+00 0.  1.
<scales pt_clust_3="98.03298" pt_clust_4="53.80514" pt_clust_5="14000.00000" pt_clust_6="55.62756"></scales>
<clustering>
<clus scale="   53.805">  2  4  1 -1</clus>
<clus scale="   55.628">  1  6  2 -1</clus>
<clus scale="   98.033">  1  3  2 -1</clus>
<clus scale="   53.805">  2  3  1 -1</clus>
</clustering>
</event>
<event>
 6    0  0.2572175E+002  0.9786255E+02  0.7546771E-02  0.1284856E+00
          2   -1    0    0  502    0 -0.00000000000E+00  0.00000000000E+00  0.68881710242E+03  0.68881710242E+03  0.00000000000E+00 0.  1.
         21   -1    0    0  505  502  0.00000000000E+00 -0.00000000000E+00 -0.17682532203E+03  0.17682532203E+03  0.00000000000E+00 0. -1.
         21    1    1    2  503  504 -0.32271623092E+02 -0.65534223613E+02  0.60644502246E+02  0.94941812571E+02  0.00000000000E+00 0.  1.
         21    1    1    2  504  501 -0.44143141290E+02 -0.13880711428E+02  0.50868880342E+02  0.68767245545E+02  0.00000000000E+00 0.  1.
         21    1    1    2  505  503  0.80077348418E+02  0.27327814707E+02 -0.13748860248E+03  0.16143824516E+03  0.00000000000E+00 0. -1.
          2    1    1    2  501    0 -0.36625840367E+01  0.52087120334E+02  0.53796700028E+03  0.54049512118E+03  0.00000000000E+00 0.  1.
<scales pt_clust_3="37.49609" pt_clust_4="37.49609" pt_clust_5="85.77649" pt_clust_6="52.21573"></scales>
<clustering>
<clus scale="   37.496">  3  4 -1 -1</clus>
<clus scale="   52.216">  1  6  2 -1</clus>
<clus scale="   85.776">  2  5  1 -1</clus>
<clus scale="   85.776">  2  3  1 -1</clus>
</clustering>
</event>
<event>
 6    0  0.2572175E+002  0.1058092E+03  0.7546771E-02  0.1268533E+00
          1   -1    0    0  504    0 -0.00000000000E+00  0.00000000000E+00  0.40660930598E+03  0.40660930598E+03  0.00000000000E+00 0. -1.
         21   -1    0    0  505  502  0.00000000000E+00 -0.00000000000E+00 -0.10561363288E+03  0.10561363288E+03  0.00000000000E+00 0.  1.
         21    1    1    2  503  502 -0.43401466448E+02  0.32624801057E+02  0.26456550581E+02  0.60398791399E+02  0.00000000000E+00 0.  1.
         21    1    1    2  504  503 -0.27122462532E+02  0.54844691928E+02  0.67913018238E+02  0.91409771101E+02  0.00000000000E+00 0.  1.
         21    1    1    2  505  501  0.10259654629E+03 -0.63864313600E+01 -0.30940927263E+02  0.10735072797E+03  0.00000000000E+00 0.  1.
          1    1    1    2  501    0 -0.32072617305E+02 -0.81083061625E+02  0.23756703154E+03  0.25306364839E+03  0.00000000000E+00 0. -1.
<scales pt_clust_3="36.67479" pt_clust_4="36.67479" pt_clust_5="98.38646" pt_clust_6="87.19585"></scales>
<clustering>
<clus scale="   36.675">  3  4 -1 -1</clus>
<clus scale="   87.196">  1  6  2 -1</clus>
<clus scale="   98.386">  2  5  1 -1</clus>
<clus scale="   98.386">  2  3  1 -1</clus>
</clustering>
</event>
<event>
 6    0  0.2572175E+002  0.1021730E+03  0.7546771E-02  0.1275792E+00
          1   -1    0    0  503    0 -0.00000000000E+00  0.00000000000E+00  0.39492164932E+03  0.39492164932E+03  0.00000000000E+00 0.  1.
         21   -1    0    0  505  502  0.00000000000E+00 -0.00000000000E+00 -0.23491728764E+03  0.23491728764E+03  0.00000000000E+00 0.  1.
         21    1    1    2  503  504 -0.44641881918E+02  0.94609357275E+02  0.75295399447E+02  0.12889230110E+03  0.00000000000E+00 0.  1.
         21    1    1    2  504  502  0.30114971783E+02 -0.22403585813E+02 -0.10534806587E+03  0.11183491032E+03  0.00000000000E+00 0.  1.
         21    1    1    2  505  501  0.93115615024E+01  0.31026580993E+02 -0.87302033799E+02  0.93118199141E+02  0.00000000000E+00 0.  1.
          1    1    1    2  501    0  0.52153486329E+01 -0.10323235246E+03  0.27735906190E+03  0.29599352640E+03  0.00000000000E+00 0.  1.
<scales pt_clust_3="14000.00000" pt_clust_4="37.11300" pt_clust_5="32.39373" pt_clust_6="102.17299"></scales>
<clustering>
<clus scale="   32.394">  2  5  1 -1</clus>
<clus scale="   37.113">  2  4  1 -1</clus>
<clus scale="  102.173">  1  6  2 -1</clus>
<clus scale="   32.394">  2  3  1 -1</clus>
</clustering>
</event>
<event>
 6    0  0.2572175E+002  0.2708401E+03  0.7546771E-02  0.1100800E+00
         21   -1    0    0  504  502  0.00000000000E+00  0.00000000000E+00  0.77776907912E+02  0.77776907912E+02  0.00000000000E+00 0.  1.
          1   -1    0    0  502    0 -0.00000000000E+00 -0.00000000000E+00 -0.16004202338E+04  0.16004202338E+04  0.00000000000E+00 0.  1.
         21    1    1    2  503  505  0.94163438652E+02 -0.14826740502E+03 -0.23331915062E+03  0.29204075506E+03  0.00000000000E+00 0.  1.
         21    1    1    2  504  503 -0.18002969982E+02 -0.73769474574E+02 -0.91009775418E+02  0.11852772473E+03  0.00000000000E+00 0.  1.
         21    1    1    2  505  501 -0.54328496923E+02  0.28861676258E+03 -0.63092576539E+03  0.69592998402E+03  0.00000000000E+00 0.  1.
          1    1    1    2  501    0 -0.21831971747E+02 -0.66579882991E+02 -0.56738863450E+03  0.57169867795E+03  0.00000000000E+00 0.  1.
<scales pt_clust_3="59.81737" pt_clust_4="59.81737" pt_clust_5="255.10379" pt_clust_6="70.06794"></scales>
<clustering>
<clus scale="   59.817">  3  4 -1 -1</clus>
<clus scale="   70.068">  2  6  1 -1</clus>
<clus scale="  255.104">  2  5  1 -1</clus>
<clus scale="  270.840">  1  3  2 -1</clus>
</clustering>
</event>
<event>
 6    0  0.2572175E+002  0.1141645E+03  0.7546771E-02  0.1253047E+00
         21   -1    0    0  503  502  0.00000000000E+00  0.00000000000E+00  0.34296516327E+03  0.34296516327E+03  0.00000000000E+00 0. -1.
          2   -1    0    0  505    0 -0.00000000000E+00 -0.00000000000E+00 -0.22556213068E+03  0.22556213068E+03  0.00000000000E+00 0.  1.
         21    1    1    2  503  504  0.87599735897E+02  0.33875066269E+02  0.10622597468E+03  0.14179277676E+03  0.00000000000E+00 0. -1.
         21    1    1    2  504  501 -0.69418491553E+02  0.62848800058E+02 -0.32774780562E+02  0.99212322214E+02  0.00000000000E+00 0.  1.
         21    1    1    2  505  502  0.28524938987E+02 -0.11364071806E+03  0.16172178061E+03  0.19970432962E+03  0.00000000000E+00 0. -1.
          2    1    1    2  501    0 -0.46706183331E+02  0.16916851735E+02 -0.11776994214E+03  0.12781786536E+03  0.00000000000E+00 0.  1.
<scales pt_clust_3="87.62109" pt_clust_4="14000.00000" pt_clust_5="114.16454" pt_clust_6="49.67542"></scales>
<clustering>
<clus scale="   49.675">  2  6  1 -1</clus>
<clus scale="   87.621">  1  3  2 -1</clus>
<clus scale="  114.165">  1  5  2 -1</clus>
<clus scale="   87.621">  1  3  2 -1</clus>
</clustering>
</event>
<event>
 6    0  0.2572175E+002  0.1626584E+03  0.7546771E-02  0.1185728E+00
         21   -1    0    0  505  502  0.00000000000E+00  0.00000000000E+00  0.67936930944E+03  0.67936930944E+03  0.00000000000E+00 0. -1.
          2   -1    0    0  504    0 -0.00000000000E+00 -0.00000000000E+00 -0.26581874008E+04  0.26581874008E+04  0.00000000000E+00 0. -1.
         21    1    1    2  503  501  0.66224614179E+02 -0.83926894458E+02 -0.10731338711E+04  0.10784459784E+04  0.00000000000E+00 0.  1.
         21    1    1    2  504  502 -0.24423340859E+02 -0.13165414264E+03  0.23619152087E+03  0.27150644078E+03  0.00000000000E+00 0. -1.
         21    1    1    2  505  503 -0.67953259903E+01  0.20564058002E+03  0.39760827010E+03  0.44769025125E+03  0.00000000000E+00 0. -1.
          2    1    1    2  501    0 -0.35005947330E+02  0.99404570717E+01 -0.15394840113E+04  0.15399140398E+04  0.00000000000E+00 0. -1.
<scales pt_clust_3="81.17955" pt_clust_4="14000.00000" pt_clust_5="162.65837" pt_clust_6="36.38996"></scales>
<clustering>
<clus scale="   36.390">  2  6  1 -1</clus>
<clus scale="   81.180">  2  3  1 -1</clus>
<clus scale="  162.658">  2  5  1 -1</clus>
<clus scale="  162.658">  1  3  2 -1</clus>
</clustering>
</event>
<event>
 6    0  0.2572175E+002  0.7658388E+02  0.7546771E-02  0.1339035E+00
         21   -1    0    0  503  502  0.00000000000E+00  0.00000000000E+00  0.15749666958E+03  0.15749666958E+03  0.00000000000E+00 0.  1.
          2   -1    0    0  505    0 -0.00000000000E+00 -0.00000000000E+00 -0.39558378891E+03  0.39558378891E+03  0.00000000000E+00 0.  1.
         21    1    1    2  503  504  0.32698270303E+02 -0.54869851238E+02  0.52359069126E+02  0.82591461880E+02  0.00000000000E+00 0.  1.
         21    1    1    2  504  501 -0.10832642603E+02  0.13398837570E+03  0.19709228996E+02  0.13586274205E+03  0.00000000000E+00 0.  1.
         21    1    1    2  505  502 -0.64421948364E+01 -0.44990035298E+02 -0.36148452268E+02  0.58071643267E+02  0.00000000000E+00 0.  1.
          2    1    1    2  501    0 -0.15423432864E+02 -0.34128489169E+02 -0.27400696518E+03  0.27655461129E+03  0.00000000000E+00 0.  1.
<scales pt_clust_3="76.58388" pt_clust_4="14000.00000" pt_clust_5="59.67458" pt_clust_6="37.45178"></scales>
<clustering>
<clus scale="   37.452">  2  6  1 -1</clus>
<clus scale="   59.675">  2  5  1 -1</clus>
<clus scale="   76.584">  1  3  2 -1</clus>
<clus scale="   76.584">  1  3  2 -1</clus>
</clustering>
</event>
<event>
 6    0  0.2572175E+002  0.9888408E+02  0.7546771E-02  0.1282660E+00
         -2   -1    0    0    0  501 -0.00000000000E+00  0.00000000000E+00  0.54275131496E+03  0.54275131496E+03  0.00000000000E+00 0.  1.
         21   -1    0    0  503  502  0.00000000000E+00 -0.00000000000E+00 -0.11572822781E+04  0.11572822781E+04  0.00000000000E+00 0.  1.
         21    1    1    2  503  501 -0.19224059575E+02  0.25635627144E+02 -0.24425500088E+01  0.32135897313E+02  0.00000000000E+00 0.  1.
         21    1    1    2  504  505  0.79532028693E+02  0.82666334714E+02 -0.25470260475E+02  0.11750659833E+03  0.00000000000E+00 0.  1.
         21    1    1    2  505  502  0.20394888980E+02 -0.68566918739E+02 -0.10630940777E+04  0.10654981895E+04  0.00000000000E+00 0.  1.
         -2    1    1    2    0  504 -0.80702858098E+02 -0.39735043119E+02  0.47647592506E+03  0.48489290788E+03  0.00000000000E+00 0.  1.
<scales pt_clust_3="32.04294" pt_clust_4="98.88408" pt_clust_5="71.46740" pt_clust_6="14000.00000"></scales>
<clustering>
<clus scale="   32.043">  1  3  2 -1</clus>
<clus scale="   71.467">  2  5  1 -1</clus>
<clus scale="   98.884">  2  4  1 -1</clus>
<clus scale="   71.467">  2  3  1 -1</clus>
</clustering>
</event>
<event>
 6    0  0.2572175E+002  0.1305699E+03  0.7546771E-02  0.1226612E+00
         21   -1    0    0  501  502  0.00000000000E+00  0.00000000000E+00  0.32961619587E+03  0.32961619587E+03  0.00000000000E+00 0. -1.
         -4   -1    0    0    0  501 -0.00000000000E+00 -0.00000000000E+00 -0.51917614370E+03  0.51917614370E+03  0.00000000000E+00 0. -1.
         21    1    1    2  503  504  0.66857499097E+02  0.19581570823E+02 -0.19236884999E+02  0.72273237411E+02  0.00000000000E+00 0.  1.
         21    1    1    2  504  505  0.45181020457E+01 -0.12671913522E+03  0.56993682565E+02  0.13901953938E+03  0.00000000000E+00 0.  1.
         21    1    1    2  505  502 -0.15881344047E+02  0.13177058167E+03  0.18113688941E+03  0.22455795686E+03  0.00000000000E+00 0. -1.
         -4    1    1    2    0  503 -0.55494257095E+02 -0.24633017270E+02 -0.40845363481E+03  0.41294160592E+03  0.00000000000E+00 0. -1.
<scales pt_clust_3="44.41219" pt_clust_4="130.56994" pt_clust_5="14000.00000" pt_clust_6="60.71572"></scales>
<clustering>
<clus scale="   60.716">  2  6  1 -1</clus>
<clus scale="   44.412">  2  3  1 -1</clus>
<clus scale="  130.570">  2  4  1 -1</clus>
<clus scale="  130.570">  1  3  2 -1</clus>
</clustering>
</event>
<event>
 6    0  0.2572175E+002  0.1181399E+03  0.7546771E-02  0.1246198E+00
          1   -1    0    0  503    0 -0.00000000000E+00  0.00000000000E+00  0.18303228352E+04  0.18303228352E+04  0.00000000000E+00 0.  1.
         21   -1    0    0  504  502  0.00000000000E+00 -0.00000000000E+00 -0.20270170007E+03  0.20270170007E+03  0.00000000000E+00 0.  1.
         21    1    1    2  503  502 -0.79306546039E+02  0.13812452227E+03  0.14446761080E+04  0.14534293822E+04  0.00000000000E+00 0.  1.
         21    1    1    2  504  505  0.29494234543E+02  0.27688391350E+02 -0.17102460634E+01  0.40490515289E+02  0.00000000000E+00 0.  1.
         21    1    1    2  505  501  0.29975673195E+02 -0.12809938867E+03 -0.15127659034E+03  0.20048092465E+03  0.00000000000E+00 0.  1.
          1    1    1    2  501    0  0.19836638301E+02 -0.37713524951E+02  0.33593186355E+03  0.33862371319E+03  0.00000000000E+00 0.  1.
<scales pt_clust_3="14000.00000" pt_clust_4="40.45438" pt_clust_5="118.13988" pt_clust_6="42.53335"></scales>
<clustering>
<clus scale="   40.454">  2  4  1 -1</clus>
<clus scale="   42.533">  1  6  2 -1</clus>
<clus scale="  118.140">  2  5  1 -1</clus>
<clus scale="   40.454">  2  3  1 -1</clus>
</clustering>
</event>
<event>
 6    0  0.2572175E+002  0.1649307E+03  0.7546771E-02  0.1183240E+00
         21   -1    0    0  504  502  0.00000000000E+00  0.00000000000E+00  0.19314559348E+03  0.19314559348E+03  0.00000000000E+00 0.  1.
         -4   -1    0    0    0  501 -0.00000000000E+00 -0.00000000000E+00 -0.28485301947E+03  0.28485301947E+03  0.00000000000E+00 0.  1.
         21    1    1    2  503  505  0.12054173031E+02 -0.84610594013E+02  0.25176235620E+02  0.89096007468E+02  0.00000000000E+00 0.  1.
         21    1    1    2  504  501  0.25001022561E+02  0.21212806742E+02 -0.17352051739E+02  0.37096199246E+02  0.00000000000E+00 0.  1.
         21    1    1    2  505  502  0.12559765120E+02 -0.68869108154E+02  0.90878499473E+02  0.11471531469E+03  0.00000000000E+00 0.  1.
         -4    1    1    2    0  503 -0.49614960712E+02  0.13226689542E+03 -0.19041010935E+03  0.23709109155E+03  0.00000000000E+00 0.  1.
<scales pt_clust_3="56.98283" pt_clust_4="32.78772" pt_clust_5="56.98283" pt_clust_6="152.62260"></scales>
<clustering>
<clus scale="   32.788">  2  4  1 -1</clus>
<clus scale="   56.983">  3  5 -1 -1</clus>
<clus scale="  152.623">  2  6  1 -1</clus>
<clus scale="  164.931">  1  3  2 -1</clus>
</clustering>
</event>
<event>
 6    0  0.2572175E+002  0.1121415E+03  0.7546771E-02  0.1256655E+00
         -2   -1    0    0    0  501 -0.00000000000E+00  0.00000000000E+00  0.21921991506E+04  0.21921991506E+04  0.00000000000E+00 0.  1.
         21   -1    0    0  503  502  0.00000000000E+00 -0.00000000000E+00 -0.57682413001E+02  0.57682413001E+02  0.00000000000E+00 0. -1.
         21    1    1    2  503  505 -0.29834379544E+01  0.33428156451E+02  0.10177683853E+02  0.35070326408E+02  0.00000000000E+00 0.  1.
         21    1    1    2  504  502 -0.12741233067E+03  0.39363598720E+02  0.12084745995E+03  0.17996528412E+03  0.00000000000E+00 0. -1.
         21    1    1    2  505  501  0.71395403806E+02  0.23236955414E+02  0.86485026882E+02  0.11452912143E+03  0.00000000000E+00 0.  1.
         -2    1    1    2    0  504  0.59000364818E+02 -0.96028710584E+02  0.19170065669E+04  0.19203168316E+04  0.00000000000E+00 0.  1.
<scales pt_clust_3="33.56103" pt_clust_4="112.14155" pt_clust_5="78.07041" pt_clust_6="14000.00000"></scales>
<clustering>
<clus scale="   33.561">  2  3  1 -1</clus>
<clus scale="   78.070">  2  5  1 -1</clus>
<clus scale="  112.142">  2  4  1 -1</clus>
<clus scale="   33.561">  2  3  1 -1</clus>
</clustering>
</event>
<event>
 6    0  0.2572175E+002  0.8851855E+02  0.7546771E-02  0.1306479E+00
         21   -1    0    0  503  502  0.00000000000E+00  0.00000000000E+00  0.13556119222E+03  0.13556119222E+03  0.00000000000E+00 0. -1.
         -1   -1    0    0    0  501 -0.00000000000E+00 -0.00000000000E+00 -0.42923701358E+03  0.42923701358E+03  0.00000000000E+00 0.  1.
         21    1    1    2  503  505  0.34834589371E+02  0.85865089627E+02  0.65888736845E+02  0.11369955091E+03  0.00000000000E+00 0. -1.
         21    1    1    2  504  502 -0.93108593194E+01 -0.68404949557E+02 -0.80877913890E+02  0.10633515966E+03  0.00000000000E+00 0.  1.
         21    1    1    2  505  501 -0.87747229188E+02 -0.38532636940E+02 -0.52590505265E+02  0.10931652018E+03  0.00000000000E+00 0.  1.
         -1    1    1    2    0  504  0.62223499136E+02  0.21072496870E+02 -0.22609613905E+03  0.23544697505E+03  0.00000000000E+00 0.  1.
<scales pt_clust_3="88.51855" pt_clust_4="61.80422" pt_clust_5="14000.00000" pt_clust_6="65.69485"></scales>
<clustering>
<clus scale="   65.695">  2  6  1 -1</clus>
<clus scale="   61.804">  2  4  1 -1</clus>
<clus scale="   88.519">  1  3  2 -1</clus>
<clus scale="   88.519">  1  3  2 -1</clus>
</clustering>
</event>
<event>
 6    0  0.2572175E+002  0.5683781E+02  0.7546771E-02  0.1411602E+00
         21   -1    0    0  503  502  0.00000000000E+00  0.00000000000E+00  0.22679340455E+03  0.22679340455E+03  0.00000000000E+00 0.  1.
          2   -1    0    0  504    0 -0.00000000000E+00 -0.00000000000E+00 -0.11835776728E+04  0.11835776728E+04  0.00000000000E+00 0.  1.
         21    1    1    2  503  501 -0.47615448734E+02 -0.42916536524E+02  0.12321902551E+03  0.13889560221E+03  0.00000000000E+00 0.  1.
         21    1    1    2  504  505  0.83711520462E+02 -0.30813285826E+01 -0.67038840535E+02  0.10729081687E+03  0.00000000000E+00 0.  1.
         21    1    1    2  505  502  0.19530484216E+02  0.51466005680E+02  0.64769845495E+02  0.85001896684E+02  0.00000000000E+00 0.  1.
          2    1    1    2  501    0 -0.55626555943E+02 -0.54681405737E+01 -0.10777342987E+04  0.10791827616E+04  0.00000000000E+00 0.  1.
<scales pt_clust_3="30.80148" pt_clust_4="14000.00000" pt_clust_5="55.04716" pt_clust_6="56.83781"></scales>
<clustering>
<clus scale="   55.047">  1  5  2 -1</clus>
<clus scale="   30.801">  1  3  2 -1</clus>
<clus scale="   56.838">  2  6  1 -1</clus>
<clus scale="   55.047">  1  3  2 -1</clus>
</clustering>
</event>
<event>
 6    0  0.2572175E+002  0.9617293E+02  0.7546771E-02  0.1288556E+00
         21   -1    0    0  504  502  0.00000000000E+00  0.00000000000E+00  0.11443293234E+04  0.11443293234E+04  0.00000000000E+00 0. -1.
          1   -1    0    0  505    0 -0.00000000000E+00 -0.00000000000E+00 -0.91247288527E+03  0.91247288527E+03  0.00000000000E+00 0. -1.
         21    1    1    2  503  501 -0.12258131986E+03 -0.61774580078E+02 -0.14192903508E+03  0.19744905601E+03  0.00000000000E+00 0. -1.
         21    1    1    2  504  503  0.28260770797E+02  0.12307219117E+02  0.25169564503E+03  0.25357609614E+03  0.00000000000E+00 0. -1.
         21    1    1    2  505  502  0.10620946506E+01  0.50889124948E+02  0.86024658977E+03  0.86175113942E+03  0.00000000000E+00 0. -1.
          1    1    1    2  501    0  0.93258454409E+02 -0.14217639869E+01 -0.73815676155E+03  0.74402591712E+03  0.00000000000E+00 0. -1.
<scales pt_clust_3="14000.00000" pt_clust_4="30.82432" pt_clust_5="68.87769" pt_clust_6="96.17293"></scales>
<clustering>
<clus scale="   30.824">  1  4  2 -1</clus>
<clus scale="   68.878">  1  5  2 -1</clus>
<clus scale="   96.173">  2  6  1 -1</clus>
<clus scale="   30.824">  1  3  2 -1</clus>
</clustering>
</event>
<event>
 6    0  0.2572175E+002  0.1400877E+03  0.7546771E-02  0.1213211E+00
         21   -1    0    0  503  502  0.00000000000E+00  0.00000000000E+00  0.16821957401E+04  0.16821957401E+04  0.00000000000E+00 0. -1.
         -1   -1    0    0    0  501 -0.00000000000E+00 -0.00000000000E+00 -0.25949260764E+03  0.25949260764E+03  0.00000000000E+00 0. -1.
         21    1    1    2  503  505 -0.60144366068E+00  0.61843684963E+02  0.14339058740E+04  0.14352390249E+04  0.00000000000E+00 0. -1.
         21    1    1    2  504  502 -0.45908937709E+02 -0.24304155340E+01  0.14398178777E+03  0.15114328530E+03  0.00000000000E+00 0.  1.
         21    1    1    2  505  501  0.31284671302E+02 -0.18260098227E+03 -0.48177672529E+02  0.19142345079E+03  0.00000000000E+00 0. -1.
         -1    1    1    2    0  504  0.15225710068E+02  0.12318771284E+03 -0.10700685678E+03  0.16388258675E+03  0.00000000000E+00 0. -1.
<scales pt_clust_3="73.77347" pt_clust_4="45.97323" pt_clust_5="14000.00000" pt_clust_6="140.08770"></scales>
<clustering>
<clus scale="   45.973">  1  4  2 -1</clus>
<clus scale="   73.773">  1  3  2 -1</clus>
<clus scale="  140.088">  2  6  1 -1</clus>
<clus scale="   45.973">  1  3  2 -1</clus>
</clustering>
</event>
<event>
 6    0  0.2572175E+002  0.8406418E+02  0.7546771E-02  0.1317898E+00
          1   -1    0    0  503    0 -0.00000000000E+00  0.00000000000E+00  0.27061660268E+03  0.27061660268E+03  0.00000000000E+00 0.  1.
         21   -1    0    0  504  502  0.00000000000E+00 -0.00000000000E+00 -0.29413779456E+03  0.29413779456E+03  0.00000000000E+00 0. -1.
         21    1    1    2  503  505 -0.40344676124E+02  0.49740879494E+02 -0.23035137918E+02  0.68062218325E+02  0.00000000000E+00 0. -1.
         21    1    1    2  504  501  0.98187817137E+02 -0.53372271575E+02  0.67817844788E+01  0.11196177655E+03  0.00000000000E+00 0. -1.
         21    1    1    2  505  502 -0.64208717565E+01  0.41350775025E+02 -0.18824793706E+03  0.19284294127E+03  0.00000000000E+00 0. -1.
          1    1    1    2  501    0 -0.51422269256E+02 -0.37719382944E+02  0.18098009862E+03  0.19188746109E+03  0.00000000000E+00 0.  1.
<scales pt_clust_3="84.06418" pt_clust_4="14000.00000" pt_clust_5="41.84632" pt_clust_6="62.78849"></scales>
<clustering>
<clus scale="   41.846">  2  5  1 -1</clus>
<clus scale="   62.788">  1  6  2 -1</clus>
<clus scale="   84.064">  2  3  1 -1</clus>
<clus scale="   41.846">  2  3  1 -1</clus>
</clustering>
</event>
<event>
 6    0  0.2572175E+002  0.1068667E+03  0.7546771E-02  0.1266485E+00
         21   -1    0    0  503  502  0.00000000000E+00  0.00000000000E+00  0.60653546960E+02  0.60653546960E+02  0.00000000000E+00 0. -1.
          2   -1    0    0  504    0 -0.00000000000E+00 -0.00000000000E+00 -0.95034715420E+03  0.95034715420E+03  0.00000000000E+00 0.  1.
         21    1    1    2  503  501 -0.22435719873E+02 -0.73053943678E+02 -0.11905958381E+03  0.14147588031E+03  0.00000000000E+00 0. -1.
         21    1    1    2  504  505 -0.69084620718E+01  0.75768778548E+02 -0.62476267155E+02  0.98447542420E+02  0.00000000000E+00 0. -1.
         21    1    1    2  505  502  0.52975942883E+02  0.77221542633E+02 -0.47171832381E+02  0.10485608681E+03  0.00000000000E+00 0. -1.
          2    1    1    2  501    0 -0.23631760939E+02 -0.79936377503E+02 -0.66098592390E+03  0.66622119162E+03  0.00000000000E+00 0.  1.
<scales pt_clust_3="76.42146" pt_clust_4="55.42755" pt_clust_5="55.42755" pt_clust_6="87.40190"></scales>
<clustering>
<clus scale="   55.428">  4  5 -1 -1</clus>
<clus scale="   76.421">  1  3  2 -1</clus>
<clus scale="   87.402">  2  6  1 -1</clus>
<clus scale="   76.421">  1  3  2 -1</clus>
</clustering>
</event>
<event>
 6    0  0.2572175E+002  0.3026298E+03  0.7546771E-02  0.1083933E+00
         21   -1    0    0  504  502  0.00000000000E+00  0.00000000000E+00  0.17612341167E+03  0.17612341167E+03  0.00000000000E+00 0.  1.
          1   -1    0    0  505    0 -0.00000000000E+00 -0.00000000000E+00 -0.91793753555E+03  0.91793753555E+03  0.00000000000E+00 0.  1.
         21    1    1    2  503  502  0.13203881613E+03 -0.27760045428E+03 -0.14419677675E+03  0.33954229723E+03  0.00000000000E+00 0.  1.
         21    1    1    2  504  501 -0.48828502934E+02  0.38718254441E+02 -0.14308581587E+03  0.15606689793E+03  0.00000000000E+00 0. -1.
         21    1    1    2  505  503 -0.74893557268E+02  0.28984121832E+03 -0.25783021409E+03  0.39508656781E+03  0.00000000000E+00 0.  1.
          1    1    1    2  501    0 -0.83167559295E+01 -0.50959018481E+02 -0.19670131716E+03  0.20336518426E+03  0.00000000000E+00 0.  1.
<scales pt_clust_3="302.62979" pt_clust_4="57.84553" pt_clust_5="14000.00000" pt_clust_6="51.63323"></scales>
<clustering>
<clus scale="   51.633">  2  6  1 -1</clus>
<clus scale="   57.846">  2  4  1 -1</clus>
<clus scale="  302.630">  1  3  2 -1</clus>
<clus scale="  302.630">  1  3  2 -1</clus>
</clustering>
</event>
<event>
 6    0  0.2572175E+002  0.8074073E+02  0.7546771E-02  0.1326962E+00
         21   -1    0    0  504  502  0.00000000000E+00  0.00000000000E+00  0.65481719819E+02  0.65481719819E+02  0.00000000000E+00 0. -1.
          2   -1    0    0  505    0 -0.00000000000E+00 -0.00000000000E+00 -0.16831743391E+04  0.16831743391E+04  0.00000000000E+00 0. -1.
         21    1    1    2  503  502  0.60778441238E+02  0.16629017970E+02  0.11135589918E+01  0.63022084793E+02  0.00000000000E+00 0. -1.
         21    1    1    2  504  501 -0.29304075366E+02 -0.81147175417E+01 -0.35861539633E+02  0.47017310628E+02  0.00000000000E+00 0. -1.
         21    1    1    2  505  503 -0.28570151387E+02  0.72531986122E+02 -0.29958408763E+02  0.83514362937E+02  0.00000000000E+00 0. -1.
          2    1    1    2  501    0 -0.29042144858E+01 -0.81046286551E+02 -0.15529862299E+04  0.15551023006E+04  0.00000000000E+00 0. -1.
<scales pt_clust_3="46.73490" pt_clust_4="30.40687" pt_clust_5="80.74073" pt_clust_6="14000.00000"></scales>
<clustering>
<clus scale="   30.407">  1  4  2 -1</clus>
<clus scale="   46.735">  1  3  2 -1</clus>
<clus scale="   80.741">  1  5  2 -1</clus>
<clus scale="   30.407">  1  3  2 -1</clus>
</clustering>
</event>
<event>
 6    0  0.2572175E+002  0.1341577E+03  0.7546771E-02  0.1221414E+00
          1   -1    0    0  504    0 -0.00000000000E+00  0.00000000000E+00  0.32645946286E+03  0.32645946286E+03  0.00000000000E+00 0.  1.
         21   -1    0    0  505  502  0.00000000000E+00 -0.00000000000E+00 -0.30300237745E+03  0.30300237745E+03  0.00000000000E+00 0.  1.
         21    1    1    2  503  501  0.46874914021E+02 -0.12360170011E+02 -0.52142500378E+02  0.71196009108E+02  0.00000000000E+00 0.  1.
         21    1    1    2  504  502 -0.86360193407E+02  0.10853475668E+03 -0.30323124702E+02  0.14197664704E+03  0.00000000000E+00 0.  1.
         21    1    1    2  505  503  0.44242921411E+02 -0.65147658458E+02 -0.14414763109E+03  0.16425648555E+03  0.00000000000E+00 0.  1.
          1    1    1    2  501    0 -0.47576420252E+01 -0.31026928210E+02  0.25007034158E+03  0.25203269861E+03  0.00000000000E+00 0.  1.
<scales pt_clust_3="39.45634" pt_clust_4="124.09733" pt_clust_5="39.45634" pt_clust_6="31.38958"></scales>
<clustering>
<clus scale="   31.390">  1  6  2 -1</clus>
<clus scale="   39.456">  3  5 -1 -1</clus>
<clus scale="  124.097">  1  4  2 -1</clus>
<clus scale="  134.158">  2  3  1 -1</clus>
</clustering>
</event>
<event>
 6    0  0.2572175E+002  0.2488739E+03  0.7546771E-02  0.1114019E+00
         21   -1    0    0  503  502  0.00000000000E+00  0.00000000000E+00  0.11492606768E+04  0.11492606768E+04  0.00000000000E+00 0. -1.
          2   -1    0    0  505    0 -0.00000000000E+00 -0.00000000000E+00 -0.28015972352E+04  0.28015972352E+04  0.00000000000E+00 0.  1.
         21    1    1    2  503  504 -0.23467830794E+03 -0.12863386397E+03  0.95713722747E+03  0.99384719720E+03  0.00000000000E+00 0. -1.
         21    1    1    2  504  501  0.69725694677E+02  0.20960112136E+03  0.82817808882E+02  0.23590907579E+03  0.00000000000E+00 0. -1.
         21    1    1    2  505  502 -0.64079684570E+02 -0.27955231259E+01 -0.10879308164E+03  0.12629313337E+03  0.00000000000E+00 0.  1.
          2    1    1    2  501    0  0.22903229784E+03 -0.78171734265E+02 -0.25834985131E+04  0.25948085056E+04  0.00000000000E+00 0.  1.
<scales pt_clust_3="248.87385" pt_clust_4="14000.00000" pt_clust_5="64.14063" pt_clust_6="185.74622"></scales>
<clustering>
<clus scale="   64.141">  2  5  1 -1</clus>
<clus scale="  185.746">  2  6  1 -1</clus>
<clus scale="  248.874">  1  3  2 -1</clus>
<clus scale="  248.874">  1  3  2 -1</clus>
</clustering>
</event>
<event>
 6    0  0.2572175E+002  0.8364031E+02  0.7546771E-02  0.1319027E+00
         21   -1    0    0  504  502  0.00000000000E+00  0.00000000000E+00  0.11605013293E+04  0.11605013293E+04  0.00000000000E+00 0.  1.
         -1   -1    0    0    0  501 -0.00000000000E+00 -0.00000000000E+00 -0.93158320645E+03  0.93158320645E+03  0.00000000000E+00 0.  1.
         21    1    1    2  503  502  0.82259668511E+01  0.56710788920E+02  0.11243668529E+04  0.11258261855E+04  0.00000000000E+00 0.  1.
         21    1    1    2  504  501  0.20445415343E+02 -0.46570811907E+02 -0.31274217241E+01  0.50957200638E+02  0.00000000000E+00 0. -1.
         21    1    1    2  505  503 -0.84395632064E+02 -0.48187188148E+02 -0.23187813753E+03  0.25142016323E+03  0.00000000000E+00 0. -1.
         -1    1    1    2    0  505  0.55724249870E+02  0.38047211135E+02 -0.66044317076E+03  0.66388098640E+03  0.00000000000E+00 0.  1.
<scales pt_clust_3="57.26947" pt_clust_4="50.86114" pt_clust_5="14000.00000" pt_clust_6="83.64031"></scales>
<clustering>
<clus scale="   50.861">  2  4  1 -1</clus>
<clus scale="   57.269">  1  3  2 -1</clus>
<clus scale="   83.640">  2  6  1 -1</clus>
<clus scale="   57.269">  1  3  2 -1</clus>
</clustering>
</event>
<event>
 6    0  0.2572175E+002  0.2038440E+03  0.7546771E-02  0.1146536E+00
         21   -1    0    0  505  502  0.00000000000E+00  0.00000000000E+00  0.56424103772E+02  0.56424103772E+02  0.00000000000E+00 0.  1.
          2   -1    0    0  502    0 -0.00000000000E+00 -0.00000000000E+00 -0.31434295369E+04  0.31434295369E+04  0.00000000000E+00 0.  1.
         21    1    1    2  503  504  0.24866572481E+02 -0.58352263778E+02 -0.16441080508E+03  0.17622214941E+03  0.00000000000E+00 0. -1.
         21    1    1    2  504  501  0.11027730585E+03 -0.30747427720E+02 -0.20735761021E+03  0.23686212658E+03  0.00000000000E+00 0.  1.
         21    1    1    2  505  503 -0.12360724546E+03  0.17742342988E+03 -0.29956153970E+03  0.36945221703E+03  0.00000000000E+00 0.  1.
          2    1    1    2  501    0 -0.11536632866E+02 -0.88323738381E+02 -0.24156754782E+04  0.24173171477E+04  0.00000000000E+00 0.  1.
<scales pt_clust_3="58.72434" pt_clust_4="58.72434" pt_clust_5="187.95785" pt_clust_6="89.07400"></scales>
<clustering>
<clus scale="   58.724">  3  4 -1 -1</clus>
<clus scale="   89.074">  2  6  1 -1</clus>
<clus scale="  187.958">  1  5  2 -1</clus>
<clus scale="  187.958">  1  3  2 -1</clus>
</clustering>
</event>
<event>
 6    0  0.2572175E+002  0.7834058E+02  0.7546771E-02  0.1333828E+00
          2   -1    0    0  503    0 -0.00000000000E+00  0.00000000000E+00  0.40911679392E+03  0.40911679392E+03  0.00000000000E+00 0.  1.
         21   -1    0    0  505  502  0.00000000000E+00 -0.00000000000E+00 -0.19381320347E+03  0.19381320347E+03  0.00000000000E+00 0.  1.
         21    1    1    2  503  502  0.24169893896E+02  0.50803565659E+02  0.22668981563E+03  0.23356681820E+03  0.00000000000E+00 0.  1.
         21    1    1    2  504  501 -0.52186522245E+02 -0.33164992263E+02  0.15027235654E+02  0.63633070233E+02  0.00000000000E+00 0.  1.
         21    1    1    2  505  504  0.60502817023E+02  0.57371804631E+02 -0.14169614310E+03  0.16440776078E+03  0.00000000000E+00 0.  1.
          2    1    1    2  501    0 -0.32486188673E+02 -0.75010378027E+02  0.11528268226E+03  0.14132234818E+03  0.00000000000E+00 0.  1.
<scales pt_clust_3="56.25999" pt_clust_4="78.34058" pt_clust_5="14000.00000" pt_clust_6="41.46439"></scales>
<clustering>
<clus scale="   56.260">  1  3  2 -1</clus>
<clus scale="   41.464">  1  6  2 -1</clus>
<clus scale="   78.341">  1  4  2 -1</clus>
<clus scale="   78.341">  2  3  1 -1</clus>
</clustering>
</event>
<event>
 6    0  0.2572175E+002  0.1262373E+03  0.7546771E-02  0.1233148E+00
         21   -1    0    0  503  502  0.00000000000E+00  0.00000000000E+00  0.26929077107E+04  0.26929077107E+04  0.00000000000E+00 0. -1.
          2   -1    0    0  505    0 -0.00000000000E+00 -0.00000000000E+00 -0.18190911387E+03  0.18190911387E+03  0.00000000000E+00 0. -1.
         21    1    1    2  503  504  0.13773038456E+01 -0.11210323339E+03  0.60710430008E+03  0.61736914652E+03  0.00000000000E+00 0. -1.
         21    1    1    2  504  501  0.18423176819E+02 -0.41389587928E+02  0.42989211456E+03  0.43227276296E+03  0.00000000000E+00 0. -1.
         21    1    1    2  505  502 -0.64917667706E+02  0.87768374374E+02  0.16386291324E+04  0.16422615580E+04  0.00000000000E+00 0. -1.
          2    1    1    2  501    0  0.45117187041E+02  0.65724446941E+02 -0.16462695021E+03  0.18291335716E+03  0.00000000000E+00 0. -1.
<scales pt_clust_3="31.36520" pt_clust_4="31.36520" pt_clust_5="116.19546" pt_clust_6="79.71991"></scales>
<clustering>
<clus scale="   31.365">  3  4 -1 -1</clus>
<clus scale="   79.720">  2  6  1 -1</clus>
<clus scale="  116.195">  1  5  2 -1</clus>
<clus scale="  116.195">  1  3  2 -1</clus>
</clustering>
</event>
<event>
 6    0  0.2572175E+002  0.1172023E+03  0.7546771E-02  0.1247785E+00
          1   -1    0    0  503    0 -0.00000000000E+00  0.00000000000E+00  0.53269607442E+03  0.53269607442E+03  0.00000000000E+00 0. -1.
         21   -1    0    0  505  502  0.00000000000E+00 -0.00000000000E+00 -0.30019126126E+03  0.30019126126E+03  0.00000000000E+00 0.  1.
         21    1    1    2  503  504  0.23383569405E+02 -0.17378688922E+03  0.91338691571E+02  0.19771552989E+03  0.00000000000E+00 0. -1.
         21    1    1    2  504  502  0.90986285036E+02  0.58844498427E+02 -0.20017403476E+03  0.22761990961E+03  0.00000000000E+00 0.  1.
         21    1    1    2  505  501 -0.42671847291E+02  0.30016173767E+02  0.39435755802E+01  0.52320254465E+02  0.00000000000E+00 0. -1.
          1    1    1    2  501    0 -0.71698007150E+02  0.84926217021E+02  0.33739658076E+03  0.35523164172E+03  0.00000000000E+00 0. -1.
<scales pt_clust_3="14000.00000" pt_clust_4="100.47777" pt_clust_5="52.17142" pt_clust_6="117.20230"></scales>
<clustering>
<clus scale="   52.171">  2  5  1 -1</clus>
<clus scale="  100.478">  2  4  1 -1</clus>
<clus scale="  117.202">  1  6  2 -1</clus>
<clus scale="   52.171">  2  3  1 -1</clus>
</clustering>
</event>
<event>
 6    0  0.2572175E+002  0.1285933E+03  0.7546771E-02  0.1229558E+00
         21   -1    0    0  505  502  0.00000000000E+00  0.00000000000E+00  0.43333964724E+02  0.43333964724E+02  0.00000000000E+00 0. -1.
         -2   -1    0    0    0  501 -0.00000000000E+00 -0.00000000000E+00 -0.15666960643E+04  0.15666960643E+04  0.00000000000E+00 0.  1.
         21    1    1    2  503  501 -0.66213811106E+02 -0.39425653009E+01 -0.11226267937E+03  0.13039448524E+03  0.00000000000E+00 0. -1.
         21    1    1    2  504  502  0.92567794990E+02 -0.62439299359E+02 -0.23361791725E+03  0.25893009488E+03  0.00000000000E+00 0.  1.
         21    1    1    2  505  503 -0.64809682171E+02 -0.10460332113E+02 -0.33870848272E+02  0.73871156845E+02  0.00000000000E+00 0. -1.
         -2    1    1    2    0  504  0.38455698287E+02  0.76842196773E+02 -0.11436106547E+04  0.11468342921E+04  0.00000000000E+00 0.  1.
<scales pt_clust_3="54.44284" pt_clust_4="116.36746" pt_clust_5="54.44284" pt_clust_6="85.92767"></scales>
<clustering>
<clus scale="   54.443">  3  5 -1 -1</clus>
<clus scale="   85.928">  2  6  1 -1</clus>
<clus scale="  116.367">  2  4  1 -1</clus>
<clus scale="  128.593">  1  3  2 -1</clus>
</clustering>
</event>
<event>
 6    0  0.2572175E+002  0.1518614E+03  0.7546771E-02  0.1198204E+00
         -2   -1    0    0    0  501 -0.00000000000E+00  0.00000000000E+00  0.12174087710E+04  0.12174087710E+04  0.00000000000E+00 0.  1.
         21   -1    0    0  504  502  0.00000000000E+00 -0.00000000000E+00 -0.38781576258E+03  0.38781576258E+03  0.00000000000E+00 0. -1.
         21    1    1    2  503  502 -0.28274639122E+02  0.30472983239E+02 -0.36513416234E+02  0.55328902845E+02  0.00000000000E+00 0. -1.
         21    1    1    2  504  501 -0.37677881168E+02  0.29490899977E+02 -0.14458835679E+03  0.15229947088E+03  0.00000000000E+00 0. -1.
         21    1    1    2  505  503  0.21002082204E+03 -0.15807418002E+02 -0.12966174416E+03  0.24732728934E+03  0.00000000000E+00 0. -1.
         -2    1    1    2    0  505 -0.14406830175E+03 -0.44156465214E+02  0.11403565256E+04  0.11502688705E+04  0.00000000000E+00 0.  1.
<scales pt_clust_3="41.56992" pt_clust_4="65.73097" pt_clust_5="151.86137" pt_clust_6="14000.00000"></scales>
<clustering>
<clus scale="   41.570">  2  3  1 -1</clus>
<clus scale="   65.731">  2  4  1 -1</clus>
<clus scale="  151.861">  2  5  1 -1</clus>
<clus scale="   41.570">  2  3  1 -1</clus>
</clustering>
</event>
<event>
 6    0  0.2572175E+002  0.7519799E+02  0.7546771E-02  0.1343259E+00
         21   -1    0    0  503  502  0.00000000000E+00  0.00000000000E+00  0.25096041981E+03  0.25096041981E+03  0.00000000000E+00 0.  1.
          4   -1    0    0  504    0 -0.00000000000E+00 -0.00000000000E+00 -0.14292632928E+03  0.14292632928E+03  0.00000000000E+00 0.  1.
         21    1    1    2  503  505  0.24890066337E+02  0.58769247912E+02  0.14650868183E+03  0.15980655103E+03  0.00000000000E+00 0.  1.
         21    1    1    2  504  502  0.46793784641E+02 -0.15733132899E+02  0.18288891867E+02  0.52646683823E+02  0.00000000000E+00 0.  1.
         21    1    1    2  505  501 -0.81012608086E+02  0.38873280704E+02 -0.27911368430E+02  0.94091546428E+02  0.00000000000E+00 0.  1.
          4    1    1    2  501    0  0.93287571078E+01 -0.81909395717E+02 -0.28852114738E+02  0.87341967809E+02  0.00000000000E+00 0.  1.
<scales pt_clust_3="75.13803" pt_clust_4="49.36790" pt_clust_5="14000.00000" pt_clust_6="75.19799"></scales>
<clustering>
<clus scale="   49.368">  1  4  2 -1</clus>
<clus scale="   75.138">  1  3  2 -1</clus>
<clus scale="   75.198">  2  6  1 -1</clus>
<clus scale="   49.368">  1  3  2 -1</clus>
</clustering>
</event>
<event>
 6    0  0.2572175E+002  0.7466246E+02  0.7546771E-02  0.1344919E+00
          2   -1    0    0  505    0 -0.00000000000E+00  0.00000000000E+00  0.26963031997E+04  0.26963031997E+04  0.00000000000E+00 0.  1.
         21   -1    0    0  504  502  0.00000000000E+00 -0.00000000000E+00 -0.12923816678E+03  0.12923816678E+03  0.00000000000E+00 0.  1.
         21    1    1    2  503  502 -0.22026170595E+02  0.49989854219E+02 -0.18993412492E+01  0.54660270884E+02  0.00000000000E+00 0.  1.
         21    1    1    2  504  501 -0.42829949131E+02 -0.76322155639E+02 -0.71733926669E+02  0.11316020599E+03  0.00000000000E+00 0.  1.
         21    1    1    2  505  503  0.11062035910E+03  0.42401284163E+02  0.41721256754E+03  0.43370619002E+03  0.00000000000E+00 0. -1.
          2    1    1    2  501    0 -0.45764239377E+02 -0.16068982742E+02  0.22234857332E+04  0.22240146995E+04  0.00000000000E+00 0.  1.
<scales pt_clust_3="54.90289" pt_clust_4="14000.00000" pt_clust_5="74.66246" pt_clust_6="48.50338"></scales>
<clustering>
<clus scale="   48.503">  1  6  2 -1</clus>
<clus scale="   54.903">  2  3  1 -1</clus>
<clus scale="   74.662">  1  5  2 -1</clus>
<clus scale="   54.903">  2  3  1 -1</clus>
</clustering>
</event>
<event>
 6    0  0.2572175E+002  0.1277051E+03  0.7546771E-02  0.1230901E+00
          1   -1    0    0  505    0 -0.00000000000E+00  0.00000000000E+00  0.23247080937E+04  0.23247080937E+04  0.00000000000E+00 0.  1.
         21   -1    0    0  504  502  0.00000000000E+00 -0.00000000000E+00 -0.37788450793E+02  0.37788450793E+02  0.00000000000E+00 0.  1.
         21    1    1    2  503  502  0.27993912504E+02  0.23469688041E+02  0.36818533829E+02  0.51866075882E+02  0.00000000000E+00 0. -1.
         21    1    1    2  504  501 -0.48010409558E+02 -0.32885080600E+02  0.15471710875E+02  0.60214631025E+02  0.00000000000E+00 0.  1.
         21    1    1    2  505  503 -0.87078197589E+02 -0.82568494064E+02  0.12445820641E+04  0.12503538232E+04  0.00000000000E+00 0.  1.
          1    1    1    2  501    0  0.10709469464E+03  0.91983886623E+02  0.99004733411E+03  0.10000620145E+04  0.00000000000E+00 0.  1.
<scales pt_clust_3="36.53061" pt_clust_4="31.42652" pt_clust_5="127.70505" pt_clust_6="14000.00000"></scales>
<clustering>
<clus scale="   36.531">  2  3  1 -1</clus>
<clus scale="   31.427">  2  4  1 -1</clus>
<clus scale="  127.705">  1  5  2 -1</clus>
<clus scale="   36.531">  2  3  1 -1</clus>
</clustering>
</event>
<event>
 6    0  0.3462719E+002  0.1505214E+03  0.7546771E-02  0.1199834E+00
         21   -1    0    0  505  502  0.00000000000E+00  0.00000000000E+00  0.11576799784E+04  0.11576799784E+04  0.00000000000E+00 0. -1.
          2   -1    0    0  502    0 -0.00000000000E+00 -0.00000000000E+00 -0.36933540643E+03  0.36933540643E+03  0.00000000000E+00 0. -1.
         21    1    1    2  503  501  0.16624944749E+02 -0.82545296880E+02  0.34746192071E+03  0.35751909204E+03  0.00000000000E+00 0. -1.
         21    1    1    2  504  503  0.34382939409E+02 -0.22362408568E+02  0.12744841128E+03  0.13388562797E+03  0.00000000000E+00 0. -1.
         21    1    1    2  505  504  0.52922228445E+02  0.58905424870E+01  0.65913970876E+03  0.66128709077E+03  0.00000000000E+00 0. -1.
          2    1    1    2  501    0 -0.10393011260E+03  0.99017162961E+02 -0.34570546884E+03  0.37432357400E+03  0.00000000000E+00 0. -1.
<scales pt_clust_3="33.69872" pt_clust_4="33.69872" pt_clust_5="53.24904" pt_clust_6="142.56701"></scales>
<clustering>
<clus scale="   33.699">  3  4 -1 -1</clus>
<clus scale="   53.249">  1  5  2 -1</clus>
<clus scale="  142.567">  2  6  1 -1</clus>
<clus scale="   53.249">  1  3  2 -1</clus>
</clustering>
</event>
<event>
 6    0  0.2572175E+002  0.1428226E+03  0.7546771E-02  0.1209581E+00
         21   -1    0    0  504  502  0.00000000000E+00  0.00000000000E+00  0.38959702364E+03  0.38959702364E+03  0.00000000000E+00 0.  1.
          2   -1    0    0  503    0 -0.00000000000E+00 -0.00000000000E+00 -0.72315037440E+03  0.72315037440E+03  0.00000000000E+00 0. -1.
         21    1    1    2  503  505  0.68446802862E+02  0.78091697787E+02  0.36203942737E+02  0.10997274005E+03  0.00000000000E+00 0.  1.
         21    1    1    2  504  501  0.19492521516E+02  0.27744702850E+02 -0.11759567201E+03  0.12238655567E+03  0.00000000000E+00 0.  1.
         21    1    1    2  505  502 -0.12009952079E+03 -0.11501853532E+03  0.29155442901E+03  0.33564437048E+03  0.00000000000E+00 0.  1.
          2    1    1    2  501    0  0.32160196413E+02  0.91821346809E+01 -0.54371605049E+03  0.54474373185E+03  0.00000000000E+00 0. -1.
<scales pt_clust_3="142.82260" pt_clust_4="53.24795" pt_clust_5="14000.00000" pt_clust_6="33.44533"></scales>
<clustering>
<clus scale="   33.445">  2  6  1 -1</clus>
<clus scale="   53.248">  2  4  1 -1</clus>
<clus scale="  142.823">  2  3  1 -1</clus>
<clus scale="  142.823">  1  3  2 -1</clus>
</clustering>
</event>
<event>
 6    0  0.2572175E+002  0.1731491E+03  0.7546771E-02  0.1174603E+00
          1   -1    0    0  503    0 -0.00000000000E+00  0.00000000000E+00  0.88644776941E+02  0.88644776941E+02  0.00000000000E+00 0. -1.
         21   -1    0    0  504  502  0.00000000000E+00 -0.00000000000E+00 -0.65719109528E+03  0.65719109528E+03  0.00000000000E+00 0.  1.
         21    1    1    2  503  505  0.95790629125E+01 -0.11223204884E+03 -0.11734516605E+03  0.16265816681E+03  0.00000000000E+00 0.  1.
         21    1    1    2  504  501  0.11335222927E+03  0.97593985887E+02 -0.26589771621E+03  0.30508180779E+03  0.00000000000E+00 0.  1.
         21    1    1    2  505  502 -0.56100112229E+02 -0.73386266275E+02 -0.11332743667E+03  0.14620490611E+03  0.00000000000E+00 0.  1.
          1    1    1    2  501    0 -0.66831179952E+02  0.88024329230E+02 -0.71975999416E+02  0.13189099151E+03  0.00000000000E+00 0. -1.
<scales pt_clust_3="67.57447" pt_clust_4="156.24477" pt_clust_5="67.57447" pt_clust_6="110.52008"></scales>
<clustering>
<clus scale="   67.574">  3  5 -1 -1</clus>
<clus scale="  110.520">  1  6  2 -1</clus>
<clus scale="  156.245">  2  4  1 -1</clus>
<clus scale="  156.245">  2  3  1 -1</clus>
</clustering>
</event>
<event>
 6    0  0.2572175E+002  0.7696662E+02  0.7546771E-02  0.1337887E+00
         21   -1    0    0  504  502  0.00000000000E+00  0.00000000000E+00  0.34995447301E+02  0.34995447301E+02  0.00000000000E+00 0.  1.
          1   -1    0    0  503    0 -0.00000000000E+00 -0.00000000000E+00 -0.18537887106E+04  0.18537887106E+04  0.00000000000E+00 0.  1.
         21    1    1    2  503  505 -0.10525222900E+03  0.21326755653E+02 -0.22894061178E+03  0.25287678015E+03  0.00000000000E+00 0.  1.
         21    1    1    2  504  501  0.51083063335E+02  0.61477297547E+01 -0.35899972011E+02  0.62738201530E+02  0.00000000000E+00 0.  1.
         21    1    1    2  505  502 -0.20434882045E+02 -0.23136234163E+02 -0.18683785113E+02  0.36082593609E+02  0.00000000000E+00 0.  1.
          1    1    1    2  501    0  0.74604047706E+02 -0.43382512445E+01 -0.15352688943E+04  0.15370865826E+04  0.00000000000E+00 0.  1.
<scales pt_clust_3="14000.00000" pt_clust_4="41.04691" pt_clust_5="30.86859" pt_clust_6="76.96662"></scales>
<clustering>
<clus scale="   30.869">  1  5  2 -1</clus>
<clus scale="   41.047">  1  4  2 -1</clus>
<clus scale="   76.967">  2  6  1 -1</clus>
<clus scale="   30.869">  1  3  2 -1</clus>
</clustering>
</event>
<event>
 6    0  0.2572175E+002  0.7293887E+02  0.7546771E-02  0.1350375E+00
         21   -1    0    0  503  502  0.00000000000E+00  0.00000000000E+00  0.90130491492E+02  0.90130491492E+02  0.00000000000E+00 0. -1.
          2   -1    0    0  504    0 -0.00000000000E+00 -0.00000000000E+00 -0.87829770330E+03  0.87829770330E+03  0.00000000000E+00 0.  1.
         21    1    1    2  503  501 -0.12939643639E+02 -0.64892276163E+02 -0.13828812058E+03  0.15330377091E+03  0.00000000000E+00 0. -1.
         21    1    1    2  504  505 -0.76780409923E+02  0.49925831964E+02  0.36684399983E+02  0.98658832587E+02  0.00000000000E+00 0. -1.
         21    1    1    2  505  502  0.30874284491E+02  0.16137120520E+02 -0.85088599741E+01  0.35861243698E+02  0.00000000000E+00 0. -1.
          2    1    1    2  501    0  0.58845769071E+02 -0.11706763216E+01 -0.67805463124E+03  0.68060434760E+03  0.00000000000E+00 0.  1.
<scales pt_clust_3="14000.00000" pt_clust_4="72.93887" pt_clust_5="34.83717" pt_clust_6="59.36744"></scales>
<clustering>
<clus scale="   34.837">  1  5  2 -1</clus>
<clus scale="   59.367">  2  6  1 -1</clus>
<clus scale="   72.939">  1  4  2 -1</clus>
<clus scale="   34.837">  1  3  2 -1</clus>
</clustering>
</event>
<event>
 6    0  0.2572175E+002  0.3314916E+03  0.7546771E-02  0.1070479E+00
          2   -1    0    0  505    0 -0.00000000000E+00  0.00000000000E+00  0.23904008087E+04  0.23904008087E+04  0.00000000000E+00 0.  1.
         21   -1    0    0  501  502  0.00000000000E+00 -0.00000000000E+00 -0.18618737841E+03  0.18618737841E+03  0.00000000000E+00 0.  1.
         21    1    1    2  503  502  0.74754832673E+02 -0.70276273753E+01 -0.39698195601E+02  0.84933028254E+02  0.00000000000E+00 0.  1.
         21    1    1    2  504  503  0.57618077511E+02  0.20108652577E+02  0.18962112654E+02  0.63904322865E+02  0.00000000000E+00 0.  1.
         21    1    1    2  505  504  0.69115321915E+02  0.26494116792E+03  0.12689007455E+03  0.30178111472E+03  0.00000000000E+00 0.  1.
          2    1    1    2  501    0 -0.20148823210E+03 -0.27802219312E+03  0.20980594387E+04  0.21259697213E+04  0.00000000000E+00 0.  1.
<scales pt_clust_3="147.38579" pt_clust_4="57.22358" pt_clust_5="331.49157" pt_clust_6="14000.00000"></scales>
<clustering>
<clus scale="   57.224">  3  4 -1 -1</clus>
<clus scale="  147.386">  2  3  1 -1</clus>
<clus scale="  331.492">  2  5  1 -1</clus>
<clus scale="  147.386">  2  3  1 -1</clus>
</clustering>
</event>
<event>
 6    0  0.2572175E+002  0.8145657E+02  0.7546771E-02  0.1324968E+00
         21   -1    0    0  503  502  0.00000000000E+00  0.00000000000E+00  0.40279847198E+03  0.40279847198E+03  0.00000000000E+00 0.  1.
          1   -1    0    0  504    0 -0.00000000000E+00 -0.00000000000E+00 -0.23294584272E+03  0.23294584272E+03  0.00000000000E+00 0.  1.
         21    1    1    2  503  501 -0.51960077375E+02 -0.97851641860E+02  0.94230528613E+02  0.14544478670E+03  0.00000000000E+00 0.  1.
         21    1    1    2  504  505 -0.12049358046E+02  0.10414121239E+03 -0.14970008366E+03  0.18275856805E+03  0.00000000000E+00 0.  1.
         21    1    1    2  505  502  0.45259482492E+02  0.24464245358E+02  0.25545226558E+03  0.26058161878E+03  0.00000000000E+00 0.  1.
          1    1    1    2  501    0  0.18749952929E+02 -0.30753815886E+02 -0.30130081267E+02  0.46959341175E+02  0.00000000000E+00 0.  1.
<scales pt_clust_3="81.45657" pt_clust_4="14000.00000" pt_clust_5="51.47509" pt_clust_6="36.01886"></scales>
<clustering>
<clus scale="   36.019">  2  6  1 -1</clus>
<clus scale="   51.475">  1  5  2 -1</clus>
<clus scale="   81.457">  1  3  2 -1</clus>
<clus scale="   51.475">  1  3  2 -1</clus>
</clustering>
</event>
<event>
 6    0  0.2572175E+002  0.1015903E+03  0.7546771E-02  0.1276987E+00
          2   -1    0    0  502    0 -0.00000000000E+00  0.00000000000E+00  0.41774172068E+04  0.41774172068E+04  0.00000000000E+00 0. -1.
         21   -1    0    0  505  502  0.00000000000E+00 -0.00000000000E+00 -0.32579963571E+02  0.32579963571E+02  0.00000000000E+00 0.  1.
         21    1    1    2  503  504  0.31652912928E+02  0.57634551713E+02  0.64579533620E+02  0.92163792297E+02  0.00000000000E+00 0.  1.
         21    1    1    2  504  501  0.60389455184E+02 -0.66161669506E+02  0.10391425476E+04  0.10429963984E+04  0.00000000000E+00 0. -1.
         21    1    1    2  505  503  0.30365089084E+02  0.83214421703E+01  0.22637042297E+00  0.31485493143E+02  0.00000000000E+00 0.  1.
          2    1    1    2  501    0 -0.12240745720E+03  0.20567562263E+00  0.30408887916E+04  0.30433514866E+04  0.00000000000E+00 0. -1.
<scales pt_clust_3="85.58357" pt_clust_4="14000.00000" pt_clust_5="31.48468" pt_clust_6="101.59032"></scales>
<clustering>
<clus scale="   31.485">  2  5  1 -1</clus>
<clus scale="   85.584">  2  3  1 -1</clus>
<clus scale="  101.590">  1  6  2 -1</clus>
<clus scale="   31.485">  2  3  1 -1</clus>
</clustering>
</event>
<event>
 6    0  0.2572175E+002  0.1311393E+03  0.7546771E-02  0.1225775E+00
         -2   -1    0    0    0  501 -0.00000000000E+00  0.00000000000E+00  0.17141237343E+03  0.17141237343E+03  0.00000000000E+00 0.  1.
         21   -1    0    0  504  502  0.00000000000E+00 -0.00000000000E+00 -0.29395470971E+03  0.29395470971E+03  0.00000000000E+00 0.  1.
         21    1    1    2  503  501 -0.14280709515E+02  0.12538378889E+03 -0.42589417646E+02  0.13318743062E+03  0.00000000000E+00 0.  1.
         21    1    1    2  504  503 -0.20089591616E+02 -0.23294585586E+02 -0.47043299385E+02  0.56207663409E+02  0.00000000000E+00 0.  1.
         21    1    1    2  505  502 -0.51587818668E+02  0.82120506725E+01 -0.10600770744E+03  0.11817941804E+03  0.00000000000E+00 0.  1.
         -2    1    1    2    0  505  0.85958119799E+02 -0.11030125398E+03  0.73098088195E+02  0.15779257107E+03  0.00000000000E+00 0.  1.
<scales pt_clust_3="14000.00000" pt_clust_4="30.76084" pt_clust_5="60.93454" pt_clust_6="131.13933"></scales>
<clustering>
<clus scale="   30.761">  2  4  1 -1</clus>
<clus scale="   60.935">  2  5  1 -1</clus>
<clus scale="  131.139">  1  6  2 -1</clus>
<clus scale="   30.761">  2  3  1 -1</clus>
</clustering>
</event>
<event>
 6    0  0.2572175E+002  0.1410597E+03  0.7546771E-02  0.1211910E+00
         21   -1    0    0  501  502  0.00000000000E+00  0.00000000000E+00  0.35174443967E+03  0.35174443967E+03  0.00000000000E+00 0. -1.
          2   -1    0    0  503    0 -0.00000000000E+00 -0.00000000000E+00 -0.10314176974E+04  0.10314176974E+04  0.00000000000E+00 0.  1.
         21    1    1    2  503  504 -0.13214014154E+03 -0.10344693054E+02 -0.14648712954E+03  0.19755128145E+03  0.00000000000E+00 0. -1.
         21    1    1    2  504  505  0.67071814365E+02  0.77560507581E+01  0.10783801557E+03  0.12723137273E+03  0.00000000000E+00 0.  1.
         21    1    1    2  505  502  0.58121510570E+02  0.36364317550E+02  0.20268470621E+03  0.21396626770E+03  0.00000000000E+00 0. -1.
          2    1    1    2  501    0  0.69468166065E+01 -0.33775675254E+02 -0.84370884996E+03  0.84441321520E+03  0.00000000000E+00 0.  1.
<scales pt_clust_3="132.38713" pt_clust_4="48.51686" pt_clust_5="48.51686" pt_clust_6="34.48267"></scales>
<clustering>
<clus scale="   34.483">  2  6  1 -1</clus>
<clus scale="   48.517">  4  5 -1 -1</clus>
<clus scale="  132.387">  2  3  1 -1</clus>
<clus scale="  141.060">  1  3  2 -1</clus>
</clustering>
</event>
<event>
 6    0  0.2572175E+002  0.2400109E+03  0.7546771E-02  0.1119786E+00
         21   -1    0    0  503  502  0.00000000000E+00  0.00000000000E+00  0.28086417128E+03  0.28086417128E+03  0.00000000000E+00 0.  1.
          2   -1    0    0  505    0 -0.00000000000E+00 -0.00000000000E+00 -0.21685273604E+04  0.21685273604E+04  0.00000000000E+00 0. -1.
         21    1    1    2  503  504 -0.30461426236E+02 -0.72511937316E+02  0.78987248990E+02  0.11146687869E+03  0.00000000000E+00 0.  1.
         21    1    1    2  504  501  0.67147861442E+02 -0.15380714119E+03  0.75509878191E+02  0.18403046944E+03  0.00000000000E+00 0.  1.
         21    1    1    2  505  502 -0.49994105304E+02  0.10765791571E+02  0.37269496827E+02  0.63279761591E+02  0.00000000000E+00 0.  1.
          2    1    1    2  501    0  0.13307670099E+02  0.21555328693E+03 -0.20794298131E+04  0.20906144219E+04  0.00000000000E+00 0. -1.
<scales pt_clust_3="77.85856" pt_clust_4="77.85856" pt_clust_5="51.14013" pt_clust_6="216.15305"></scales>
<clustering>
<clus scale="   51.140">  1  5  2 -1</clus>
<clus scale="   77.859">  3  4 -1 -1</clus>
<clus scale="  216.153">  2  6  1 -1</clus>
<clus scale="   51.140">  1  3  2 -1</clus>
</clustering>
</event>
<event>
 6    0  0.2572175E+002  0.1260367E+03  0.7546771E-02  0.1233458E+00
         21   -1    0    0  505  502  0.00000000000E+00  0.00000000000E+00  0.56380606188E+02  0.56380606188E+02  0.00000000000E+00 0. -1.
          2   -1    0    0  502    0 -0.00000000000E+00 -0.00000000000E+00 -0.18172173923E+04  0.18172173923E+04  0.00000000000E+00 0. -1.
         21    1    1    2  503  504 -0.31871214679E+02  0.72396665284E+02 -0.38706214012E+02  0.88063740964E+02  0.00000000000E+00 0. -1.
         21    1    1    2  504  501 -0.25352723420E+02 -0.11330824038E+03 -0.14435730559E+03  0.18525806217E+03  0.00000000000E+00 0. -1.
         21    1    1    2  505  503  0.20729447035E+02  0.41674906858E+02 -0.38046810408E+02  0.60117115851E+02  0.00000000000E+00 0. -1.
          2    1    1    2  501    0  0.36494491065E+02 -0.76333176344E+00 -0.15397264561E+04  0.15401590795E+04  0.00000000000E+00 0. -1.
<scales pt_clust_3="43.76218" pt_clust_4="113.82084" pt_clust_5="43.76218" pt_clust_6="36.50247"></scales>
<clustering>
<clus scale="   36.502">  2  6  1 -1</clus>
<clus scale="   43.762">  3  5 -1 -1</clus>
<clus scale="  113.821">  2  4  1 -1</clus>
<clus scale="  126.037">  1  3  2 -1</clus>
</clustering>
</event>
<event>
 6    0  0.2572175E+002  0.9027454E+02  0.7546771E-02  0.1302188E+00
         21   -1    0    0  505  502  0.00000000000E+00  0.00000000000E+00  0.22960446567E+02  0.22960446567E+02  0.00000000000E+00 0. -1.
          2   -1    0    0  503    0 -0.00000000000E+00 -0.00000000000E+00 -0.25001921494E+04  0.25001921494E+04  0.00000000000E+00 0. -1.
         21    1    1    2  503  504 -0.79534323949E+02 -0.19479957025E+02 -0.36653551954E+03  0.37557085150E+03  0.00000000000E+00 0. -1.
         21    1    1    2  504  502 -0.76913716725E+02  0.36570493209E+02 -0.18647646014E+03  0.20500388041E+03  0.00000000000E+00 0. -1.
         21    1    1    2  505  501  0.94473745358E+02 -0.27328683151E+02 -0.27318016545E+03  0.29034384492E+03  0.00000000000E+00 0. -1.
          2    1    1    2  501    0  0.61974295316E+02  0.10238146966E+02 -0.16510395577E+04  0.16522340191E+04  0.00000000000E+00 0. -1.
<scales pt_clust_3="54.53862" pt_clust_4="14000.00000" pt_clust_5="90.27454" pt_clust_6="62.81427"></scales>
<clustering>
<clus scale="   62.814">  2  6  1 -1</clus>
<clus scale="   54.539">  2  3  1 -1</clus>
<clus scale="   90.275">  2  5  1 -1</clus>
<clus scale="   90.275">  1  3  2 -1</clus>
</clustering>
</event>
<event>
 6    0  0.2572175E+002  0.1019540E+03  0.7546771E-02  0.1276240E+00
         21   -1    0    0  504  502  0.00000000000E+00  0.00000000000E+00  0.71306251636E+03  0.71306251636E+03  0.00000000000E+00 0. -1.
          2   -1    0    0  503    0 -0.00000000000E+00 -0.00000000000E+00 -0.29501670712E+03  0.29501670712E+03  0.00000000000E+00 0. -1.
         21    1    1    2  503  505  0.41786814011E+02  0.33748179462E+02  0.23720647445E+03  0.24321181913E+03  0.00000000000E+00 0. -1.
         21    1    1    2  504  501 -0.57676983401E+02 -0.93301173683E+02  0.25877293699E+03  0.28106080542E+03  0.00000000000E+00 0. -1.
         21    1    1    2  505  502  0.47441844716E+02 -0.10901069789E+02  0.19457665044E+03  0.20057326554E+03  0.00000000000E+00 0. -1.
          2    1    1    2  501    0 -0.31551675326E+02  0.70454064010E+02 -0.27251025264E+03  0.28323333340E+03  0.00000000000E+00 0. -1.
<scales pt_clust_3="42.83687" pt_clust_4="91.48679" pt_clust_5="42.83687" pt_clust_6="77.19639"></scales>
<clustering>
<clus scale="   42.837">  3  5 -1 -1</clus>
<clus scale="   77.196">  2  6  1 -1</clus>
<clus scale="   91.487">  2  4  1 -1</clus>
<clus scale="  101.954">  1  3  2 -1</clus>
</clustering>
</event>
<event>
 6    0  0.2572175E+002  0.7115519E+02  0.7546771E-02  0.1356208E+00
         21   -1    0    0  505  502  0.00000000000E+00  0.00000000000E+00  0.11530161627E+03  0.11530161627E+03  0.00000000000E+00 0.  1.
          2   -1    0    0  503    0 -0.00000000000E+00 -0.00000000000E+00 -0.13153726681E+04  0.13153726681E+04  0.00000000000E+00 0. -1.
         21    1    1    2  503  504 -0.10067384332E+03 -0.27625998560E+02 -0.33384282548E+03  0.34978486338E+03  0.00000000000E+00 0.  1.
         21    1    1    2  504  502  0.87523196071E+02  0.10544456451E+02  0.47807481037E+02  0.10028484759E+03  0.00000000000E+00 0.  1.
         21    1    1    2  505  501 -0.21080388331E+02 -0.21503405641E+02  0.25618393958E+02  0.39535823444E+02  0.00000000000E+00 0. -1.
          2    1    1    2  501    0  0.34231035577E+02  0.38584947750E+02 -0.93965410130E+03  0.94106874992E+03  0.00000000000E+00 0. -1.
<scales pt_clust_3="14000.00000" pt_clust_4="71.15519" pt_clust_5="30.11278" pt_clust_6="51.32348"></scales>
<clustering>
<clus scale="   30.113">  1  5  2 -1</clus>
<clus scale="   51.323">  2  6  1 -1</clus>
<clus scale="   71.155">  1  4  2 -1</clus>
<clus scale="   30.113">  1  3  2 -1</clus>
</clustering>
</event>
<event>
 6    0  0.2572175E+002  0.1900267E+03  0.7546771E-02  0.1158437E+00
          2   -1    0    0  502    0 -0.00000000000E+00  0.00000000000E+00  0.11207595951E+04  0.11207595951E+04  0.00000000000E+00 0.  1.
         21   -1    0    0  504  502  0.00000000000E+00 -0.00000000000E+00 -0.18059133464E+03  0.18059133464E+03  0.00000000000E+00 0. -1.
         21    1    1    2  503  505  0.67855463421E+02  0.11606240644E+03 -0.53249567999E+02  0.14460415829E+03  0.00000000000E+00 0. -1.
         21    1    1    2  504  503 -0.25887662109E+02 -0.51332827570E+02  0.67195638597E+01  0.57882491086E+02  0.00000000000E+00 0. -1.
         21    1    1    2  505  501  0.84904219811E+02  0.52070033220E+02  0.24567525118E+01  0.99629566567E+02  0.00000000000E+00 0.  1.
          2    1    1    2  501    0 -0.12687202112E+03 -0.11679961209E+03  0.98424151207E+03  0.99923471377E+03  0.00000000000E+00 0.  1.
<scales pt_clust_3="68.82798" pt_clust_4="57.49113" pt_clust_5="68.82798" pt_clust_6="175.05427"></scales>
<clustering>
<clus scale="   57.491">  2  4  1 -1</clus>
<clus scale="   68.828">  3  5 -1 -1</clus>
<clus scale="  175.054">  1  6  2 -1</clus>
<clus scale="   57.491">  2  3  1 -1</clus>
</clustering>
</event>
<event>
 6    0  0.2572175E+002  0.7007841E+02  0.7546771E-02  0.1359827E+00
         21   -1    0    0  503  502  0.00000000000E+00  0.00000000000E+00  0.72948916315E+02  0.72948916315E+02  0.00000000000E+00 0.  1.
          2   -1    0    0  505    0 -0.00000000000E+00 -0.00000000000E+00 -0.10305095236E+04  0.10305095236E+04  0.00000000000E+00 0.  1.
         21    1    1    2  503  501 -0.41975567000E+02 -0.46170873495E+02  0.16024833020E+02  0.64424320389E+02  0.00000000000E+00 0.  1.
         21    1    1    2  504  502  0.85539654010E+02  0.57166711465E+02 -0.69177095736E+02  0.12397796531E+03  0.00000000000E+00 0.  1.
         21    1    1    2  505  504  0.86693482261E+01  0.31034109851E+02 -0.61001557715E+02  0.68988865888E+02  0.00000000000E+00 0.  1.
          2    1    1    2  501    0 -0.52233435236E+02 -0.42029947821E+02 -0.84340678689E+03  0.84606728837E+03  0.00000000000E+00 0.  1.
<scales pt_clust_3="70.07841" pt_clust_4="14000.00000" pt_clust_5="32.22225" pt_clust_6="47.06214"></scales>
<clustering>
<clus scale="   32.222">  2  5  1 -1</clus>
<clus scale="   47.062">  2  6  1 -1</clus>
<clus scale="   70.078">  1  3  2 -1</clus>
<clus scale="   70.078">  1  3  2 -1</clus>
</clustering>
</event>
<event>
 6    0  0.2572175E+002  0.1127781E+03  0.7546771E-02  0.1255510E+00
         21   -1    0    0  505  502  0.00000000000E+00  0.00000000000E+00  0.18989265405E+02  0.18989265405E+02  0.00000000000E+00 0. -1.
          2   -1    0    0  503    0 -0.00000000000E+00 -0.00000000000E+00 -0.21993865810E+04  0.21993865810E+04  0.00000000000E+00 0. -1.
         21    1    1    2  503  504  0.14655746790E+03  0.30910404032E+02 -0.11637319002E+04  0.11733313598E+04  0.00000000000E+00 0.  1.
         21    1    1    2  504  502 -0.57068850160E+02 -0.22500808117E+02 -0.92816822707E+02  0.11125692159E+03  0.00000000000E+00 0. -1.
         21    1    1    2  505  501  0.31265468781E+01 -0.32515396770E+02 -0.12385708695E+03  0.12809217115E+03  0.00000000000E+00 0.  1.
          2    1    1    2  501    0 -0.92615164613E+02  0.24105800855E+02 -0.79999150576E+03  0.80569539383E+03  0.00000000000E+00 0. -1.
<scales pt_clust_3="14000.00000" pt_clust_4="68.45740" pt_clust_5="32.66537" pt_clust_6="112.77810"></scales>
<clustering>
<clus scale="   32.665">  1  5  2 -1</clus>
<clus scale="   68.457">  1  4  2 -1</clus>
<clus scale="  112.778">  2  6  1 -1</clus>
<clus scale="   32.665">  1  3  2 -1</clus>
</clustering>
</event>
<event>
 6    0  0.3789108E+002  0.1900278E+03  0.7546771E-02  0.1158436E+00
         21   -1    0    0  504  502  0.00000000000E+00  0.00000000000E+00  0.77607947358E+03  0.77607947358E+03  0.00000000000E+00 0. -1.
          2   -1    0    0  505    0 -0.00000000000E+00 -0.00000000000E+00 -0.18809912718E+04  0.18809912718E+04  0.00000000000E+00 0.  1.
         21    1    1    2  503  502  0.28832290069E+02  0.27180607436E+02  0.30463009335E+02  0.49980809407E+02  0.00000000000E+00 0. -1.
         21    1    1    2  504  501 -0.63391645605E+02 -0.34636318151E+02  0.46528058683E+03  0.47085475440E+03  0.00000000000E+00 0. -1.
         21    1    1    2  505  503 -0.10890378173E+03 -0.11802446886E+03  0.23833700362E+03  0.28739230368E+03  0.00000000000E+00 0. -1.
          2    1    1    2  501    0  0.14346313727E+03  0.12548017957E+03 -0.18389923980E+04  0.18488428779E+04  0.00000000000E+00 0.  1.
<scales pt_clust_3="39.62432" pt_clust_4="48.27623" pt_clust_5="14000.00000" pt_clust_6="190.02784"></scales>
<clustering>
<clus scale="   39.624">  1  3  2 -1</clus>
<clus scale="   48.276">  1  4  2 -1</clus>
<clus scale="  190.028">  2  6  1 -1</clus>
<clus scale="   39.624">  1  3  2 -1</clus>
</clustering>
</event>
<event>
 6    0  0.2572175E+002  0.9978412E+02  0.7546771E-02  0.1280751E+00
          2   -1    0    0  504    0 -0.00000000000E+00  0.00000000000E+00  0.10733247091E+04  0.10733247091E+04  0.00000000000E+00 0.  1.
         21   -1    0    0  503  502  0.00000000000E+00 -0.00000000000E+00 -0.65048760119E+02  0.65048760119E+02  0.00000000000E+00 0. -1.
         21    1    1    2  503  501  0.96101246678E+02  0.73558083561E+02  0.19766435038E+02  0.12262525525E+03  0.00000000000E+00 0. -1.
         21    1    1    2  504  505 -0.80605928729E+01 -0.32400607247E+02  0.78664065481E+02  0.85456466727E+02  0.00000000000E+00 0.  1.
         21    1    1    2  505  502 -0.30850827334E+02  0.31188072092E+01  0.18688076608E+02  0.36204208497E+02  0.00000000000E+00 0.  1.
          2    1    1    2  501    0 -0.57189826471E+02 -0.44276283523E+02  0.89115737188E+03  0.89408753878E+03  0.00000000000E+00 0.  1.
<scales pt_clust_3="14000.00000" pt_clust_4="33.70587" pt_clust_5="31.00807" pt_clust_6="99.78412"></scales>
<clustering>
<clus scale="   31.008">  2  5  1 -1</clus>
<clus scale="   33.706">  1  4  2 -1</clus>
<clus scale="   99.784">  1  6  2 -1</clus>
<clus scale="   31.008">  2  3  1 -1</clus>
</clustering>
</event>
<event>
 6    0  0.2572175E+002  0.1776367E+03  0.7546771E-02  0.1170110E+00
         21   -1    0    0  503  502  0.00000000000E+00  0.00000000000E+00  0.24058550047E+03  0.24058550047E+03  0.00000000000E+00 0. -1.
         -3   -1    0    0    0  501 -0.00000000000E+00 -0.00000000000E+00 -0.20203864696E+03  0.20203864696E+03  0.00000000000E+00 0. -1.
         21    1    1    2  503  501  0.12230542931E+03  0.13324201191E+03  0.12236426371E+00  0.18086477476E+03  0.00000000000E+00 0. -1.
         21    1    1    2  504  502 -0.76191078017E+02 -0.61663648942E+01  0.65110539138E+02  0.10041158664E+03  0.00000000000E+00 0. -1.
         21    1    1    2  505  504 -0.49700724924E+02 -0.69650304705E+02  0.19272861055E+02  0.87708438458E+02  0.00000000000E+00 0. -1.
         -3    1    1    2    0  505  0.35863736315E+01 -0.57425342309E+02 -0.45958910951E+02  0.73639347573E+02  0.00000000000E+00 0. -1.
<scales pt_clust_3="157.74382" pt_clust_4="72.83998" pt_clust_5="72.83998" pt_clust_6="57.53722"></scales>
<clustering>
<clus scale="   57.537">  2  6  1 -1</clus>
<clus scale="   72.840">  4  5 -1 -1</clus>
<clus scale="  157.744">  2  3  1 -1</clus>
<clus scale="  177.637">  1  3  2 -1</clus>
</clustering>
</event>
<event>
 6    0  0.2572175E+002  0.1282574E+03  0.7546771E-02  0.1230065E+00
         21   -1    0    0  504  502  0.00000000000E+00  0.00000000000E+00  0.32563037029E+03  0.32563037029E+03  0.00000000000E+00 0.  1.
          1   -1    0    0  505    0 -0.00000000000E+00 -0.00000000000E+00 -0.16194131053E+04  0.16194131053E+04  0.00000000000E+00 0.  1.
         21    1    1    2  503  502  0.50509497213E+02 -0.87555240449E+01 -0.57471614057E+01  0.51583896463E+02  0.00000000000E+00 0.  1.
         21    1    1    2  504  501  0.62955302500E+02  0.74883977853E+02  0.28586222526E+03  0.30213935871E+03  0.00000000000E+00 0.  1.
         21    1    1    2  505  503 -0.80980112699E+02  0.13194199884E+02 -0.22148420349E+03  0.23619296763E+03  0.00000000000E+00 0.  1.
          1    1    1    2  501    0 -0.32484687014E+02 -0.79322653692E+02 -0.13524135954E+04  0.13551272528E+04  0.00000000000E+00 0.  1.
<scales pt_clust_3="51.26274" pt_clust_4="128.25736" pt_clust_5="80.80258" pt_clust_6="14000.00000"></scales>
<clustering>
<clus scale="   51.263">  1  3  2 -1</clus>
<clus scale="   80.803">  2  5  1 -1</clus>
<clus scale="  128.257">  1  4  2 -1</clus>
<clus scale="   51.263">  1  3  2 -1</clus>
</clustering>
</event>
<event>
 6    0  0.2572175E+002  0.2424365E+03  0.7546771E-02  0.1118180E+00
         21   -1    0    0  503  502  0.00000000000E+00  0.00000000000E+00  0.65208643108E+03  0.65208643108E+03  0.00000000000E+00 0. -1.
          1   -1    0    0  504    0 -0.00000000000E+00 -0.00000000000E+00 -0.26153332674E+03  0.26153332674E+03  0.00000000000E+00 0. -1.
         21    1    1    2  503  505  0.11272727422E+03 -0.73356987732E+02  0.10300983467E+03  0.16940989358E+03  0.00000000000E+00 0. -1.
         21    1    1    2  504  502 -0.25906516682E+03  0.84637910779E+02  0.43746694772E+03  0.51541795366E+03  0.00000000000E+00 0. -1.
         21    1    1    2  505  501  0.42108765552E+02 -0.21662819549E+02 -0.18173730163E+01  0.47389120395E+02  0.00000000000E+00 0. -1.
          1    1    1    2  501    0  0.10422912704E+03  0.10381896503E+02 -0.14810630503E+03  0.18140279019E+03  0.00000000000E+00 0. -1.
<scales pt_clust_3="36.37979" pt_clust_4="234.55604" pt_clust_5="36.37979" pt_clust_6="104.74490"></scales>
<clustering>
<clus scale="   36.380">  3  5 -1 -1</clus>
<clus scale="  104.745">  2  6  1 -1</clus>
<clus scale="  234.556">  1  4  2 -1</clus>
<clus scale="  234.556">  1  3  2 -1</clus>
</clustering>
</event>
<event>
 6    0  0.2572175E+002  0.1006943E+03  0.7546771E-02  0.1278843E+00
          2   -1    0    0  504    0 -0.00000000000E+00  0.00000000000E+00  0.33391484731E+04  0.33391484731E+04  0.00000000000E+00 0.  1.
         21   -1    0    0  505  502  0.00000000000E+00 -0.00000000000E+00 -0.35607078157E+02  0.35607078157E+02  0.00000000000E+00 0. -1.
         21    1    1    2  503  502 -0.40473107438E+02  0.13726798673E+02  0.71022529396E+01  0.43323658944E+02  0.00000000000E+00 0. -1.
         21    1    1    2  504  503 -0.94190090093E+02 -0.12853961969E+02  0.25584061348E+04  0.25601716638E+04  0.00000000000E+00 0.  1.
         21    1    1    2  505  501 -0.14427421508E+02 -0.30572261954E+02  0.24595253754E+02  0.41805982821E+02  0.00000000000E+00 0. -1.
          2    1    1    2  501    0  0.14909061904E+03  0.29699425250E+02  0.71343775337E+03  0.72945424564E+03  0.00000000000E+00 0.  1.
<scales pt_clust_3="50.60600" pt_clust_4="100.69435" pt_clust_5="33.80553" pt_clust_6="14000.00000"></scales>
<clustering>
<clus scale="   33.806">  2  5  1 -1</clus>
<clus scale="   50.606">  2  3  1 -1</clus>
<clus scale="  100.694">  1  4  2 -1</clus>
<clus scale="   33.806">  2  3  1 -1</clus>
</clustering>
</event>
<event>
 6    0  0.2572175E+002  0.8476852E+02  0.7546771E-02  0.1316039E+00
         21   -1    0    0  504  502  0.00000000000E+00  0.00000000000E+00  0.12490923889E+03  0.12490923889E+03  0.00000000000E+00 0.  1.
          2   -1    0    0  505    0 -0.00000000000E+00 -0.00000000000E+00 -0.53612319863E+03  0.53612319863E+03  0.00000000000E+00 0.  1.
         21    1    1    2  503  501  0.49202373857E+02  0.57084162824E+02  0.20143672262E+02  0.78007966072E+02  0.00000000000E+00 0.  1.
         21    1    1    2  504  503 -0.45037576653E+02  0.31518471399E+02  0.47993664237E+02  0.72973893667E+02  0.00000000000E+00 0.  1.
         21    1    1    2  505  502  0.38385285598E+02 -0.14279660246E+02 -0.25622088216E+02  0.48309732474E+02  0.00000000000E+00 0.  1.
          2    1    1    2  501    0 -0.42550082803E+02 -0.74322973976E+02 -0.45372920803E+03  0.46174084530E+03  0.00000000000E+00 0.  1.
<scales pt_clust_3="84.76852" pt_clust_4="34.30317" pt_clust_5="40.95533" pt_clust_6="14000.00000"></scales>
<clustering>
<clus scale="   40.955">  1  5  2 -1</clus>
<clus scale="   34.303">  1  4  2 -1</clus>
<clus scale="   84.769">  1  3  2 -1</clus>
<clus scale="   40.955">  1  3  2 -1</clus>
</clustering>
</event>
<event>
 6    0  0.2572175E+002  0.1004277E+03  0.7546771E-02  0.1279399E+00
         21   -1    0    0  503  502  0.00000000000E+00  0.00000000000E+00  0.80865616207E+02  0.80865616207E+02  0.00000000000E+00 0.  1.
          1   -1    0    0  504    0 -0.00000000000E+00 -0.00000000000E+00 -0.12587106239E+04  0.12587106239E+04  0.00000000000E+00 0. -1.
         21    1    1    2  503  501 -0.44798225948E+02  0.20265719016E+02  0.25375118990E+02  0.55330616109E+02  0.00000000000E+00 0.  1.
         21    1    1    2  504  505 -0.16275175697E+01 -0.55405709785E+02 -0.41891792711E+02  0.69479232773E+02  0.00000000000E+00 0.  1.
         21    1    1    2  505  502  0.34886513567E+02 -0.53335813290E+02 -0.15658648112E+02  0.65627517619E+02  0.00000000000E+00 0.  1.
          1    1    1    2  501    0  0.11539229951E+02  0.88475804059E+02 -0.11456696859E+04  0.11491388736E+04  0.00000000000E+00 0. -1.
<scales pt_clust_3="49.16890" pt_clust_4="41.82031" pt_clust_5="41.82031" pt_clust_6="89.86005"></scales>
<clustering>
<clus scale="   41.820">  4  5 -1 -1</clus>
<clus scale="   49.169">  1  3  2 -1</clus>
<clus scale="   89.860">  2  6  1 -1</clus>
<clus scale="   49.169">  1  3  2 -1</clus>
</clustering>
</event>
<event>
 6    0  0.2572175E+002  0.5546537E+02  0.7546771E-02  0.1417911E+00
          2   -1    0    0  504    0 -0.00000000000E+00  0.00000000000E+00  0.30372385855E+04  0.30372385855E+04  0.00000000000E+00 0. -1.
         21   -1    0    0  503  502  0.00000000000E+00 -0.00000000000E+00 -0.16291381856E+04  0.16291381856E+04  0.00000000000E+00 0.  1.
         21    1    1    2  503  505  0.34491972711E+02  0.42819930662E+02 -0.12162956547E+04  0.12175378279E+04  0.00000000000E+00 0.  1.
         21    1    1    2  504  502 -0.75535724970E+02 -0.26471609538E+01  0.10589501387E+02  0.76320316742E+02  0.00000000000E+00 0. -1.
         21    1    1    2  505  501 -0.73294517283E+01 -0.65583157815E+02 -0.37623462420E+03  0.38197822437E+03  0.00000000000E+00 0. -1.
          2    1    1    2  501    0  0.48373203988E+02  0.25410388107E+02  0.29900411774E+04  0.29905404022E+04  0.00000000000E+00 0. -1.
<scales pt_clust_3="14000.00000" pt_clust_4="37.17442" pt_clust_5="55.46537" pt_clust_6="54.64114"></scales>
<clustering>
<clus scale="   54.641">  1  6  2 -1</clus>
<clus scale="   37.174">  1  4  2 -1</clus>
<clus scale="   55.465">  1  5  2 -1</clus>
<clus scale="   55.465">  2  3  1 -1</clus>
</clustering>
</event>
<event>
 6    0  0.2572175E+002  0.1857626E+03  0.7546771E-02  0.1162340E+00
         21   -1    0    0  501  502  0.00000000000E+00  0.00000000000E+00  0.15127789866E+04  0.15127789866E+04  0.00000000000E+00 0. -1.
         -4   -1    0    0    0  501 -0.00000000000E+00 -0.00000000000E+00 -0.22984087456E+02  0.22984087456E+02  0.00000000000E+00 0. -1.
         21    1    1    2  503  502  0.19670744159E+02  0.15896518963E+03  0.98364207056E+03  0.99659851127E+03  0.00000000000E+00 0. -1.
         21    1    1    2  504  505 -0.31068025999E+02 -0.25523704498E+02  0.10813377974E+03  0.11536722261E+03  0.00000000000E+00 0. -1.
         21    1    1    2  505  503  0.18583971233E+02 -0.90476316469E+02  0.33271008170E+03  0.34529310201E+03  0.00000000000E+00 0. -1.
         -4    1    1    2    0  504 -0.71866893934E+01 -0.42965168664E+02  0.65308967178E+02  0.78504238208E+02  0.00000000000E+00 0. -1.
<scales pt_clust_3="160.17762" pt_clust_4="35.29439" pt_clust_5="73.00640" pt_clust_6="73.00640"></scales>
<clustering>
<clus scale="   35.294">  4  6 -1 -1</clus>
<clus scale="   73.006">  4  5 -1 -1</clus>
<clus scale="  160.178">  1  3  2 -1</clus>
<clus scale="  160.178">  1  3  2 -1</clus>
</clustering>
</event>
<event>
 6    0  0.2572175E+002  0.7045560E+02  0.7546771E-02  0.1358551E+00
          1   -1    0    0  505    0 -0.00000000000E+00  0.00000000000E+00  0.17284251782E+04  0.17284251782E+04  0.00000000000E+00 0. -1.
         21   -1    0    0  503  502  0.00000000000E+00 -0.00000000000E+00 -0.99413987088E+03  0.99413987088E+03  0.00000000000E+00 0.  1.
         21    1    1    2  503  501  0.11070627110E+02 -0.32662983414E+02 -0.26984523814E+03  0.27204022095E+03  0.00000000000E+00 0.  1.
         21    1    1    2  504  502  0.30412945276E+02  0.89369777935E+02 -0.71658101460E+03  0.72277261635E+03  0.00000000000E+00 0.  1.
         21    1    1    2  505  504 -0.78338827319E+02 -0.58439884705E+02  0.75020998910E+03  0.75654954877E+03  0.00000000000E+00 0. -1.
          1    1    1    2  501    0  0.36855254933E+02  0.17330901838E+01  0.97050157097E+03  0.97120266303E+03  0.00000000000E+00 0. -1.
<scales pt_clust_3="34.48810" pt_clust_4="14000.00000" pt_clust_5="70.45560" pt_clust_6="36.90060"></scales>
<clustering>
<clus scale="   34.488">  2  3  1 -1</clus>
<clus scale="   36.901">  1  6  2 -1</clus>
<clus scale="   70.456">  1  5  2 -1</clus>
<clus scale="   34.488">  2  3  1 -1</clus>
</clustering>
</event>
<event>
 6    0  0.2572175E+002  0.8595634E+02  0.7546771E-02  0.1312950E+00
          2   -1    0    0  503    0 -0.00000000000E+00  0.00000000000E+00  0.13664952623E+04  0.13664952623E+04  0.00000000000E+00 0. -1.
         21   -1    0    0  505  502  0.00000000000E+00 -0.00000000000E+00 -0.13090423257E+04  0.13090423257E+04  0.00000000000E+00 0. -1.
         21    1    1    2  503  504 -0.82825405026E+02 -0.96873775114E+02 -0.23536903790E+02  0.12960926611E+03  0.00000000000E+00 0. -1.
         21    1    1    2  504  502  0.48165193392E+02  0.12848683133E+02 -0.24001898010E+03  0.24514094990E+03  0.00000000000E+00 0. -1.
         21    1    1    2  505  501  0.32381164284E+02 -0.16492009232E+01 -0.98822230557E+03  0.98875405683E+03  0.00000000000E+00 0. -1.
          2    1    1    2  501    0  0.22790473490E+01  0.85674292905E+02  0.13092311260E+04  0.13120333151E+04  0.00000000000E+00 0. -1.
<scales pt_clust_3="14000.00000" pt_clust_4="73.58981" pt_clust_5="32.42313" pt_clust_6="85.95634"></scales>
<clustering>
<clus scale="   32.423">  2  5  1 -1</clus>
<clus scale="   73.590">  2  4  1 -1</clus>
<clus scale="   85.956">  1  6  2 -1</clus>
<clus scale="   32.423">  2  3  1 -1</clus>
</clustering>
</event>
<event>
 6    0  0.2572175E+002  0.1085205E+03  0.7546771E-02  0.1263335E+00
         -1   -1    0    0    0  501 -0.00000000000E+00  0.00000000000E+00  0.34316766340E+03  0.34316766340E+03  0.00000000000E+00 0.  1.
         21   -1    0    0  503  502  0.00000000000E+00 -0.00000000000E+00 -0.86990794910E+03  0.86990794910E+03  0.00000000000E+00 0. -1.
         21    1    1    2  503  504  0.62086268962E+02 -0.15542045675E+02 -0.46522413810E+02  0.79123921567E+02  0.00000000000E+00 0.  1.
         21    1    1    2  504  501 -0.14278326761E+02  0.28825374467E+02  0.56968310549E+01  0.32668436025E+02  0.00000000000E+00 0. -1.
         21    1    1    2  505  502 -0.45752528380E+02 -0.94273041354E+02 -0.78472207138E+03  0.79168770957E+03  0.00000000000E+00 0. -1.
         -1    1    1    2    0  505 -0.20554138215E+01  0.80989712561E+02  0.29880736843E+03  0.30959554534E+03  0.00000000000E+00 0.  1.
<scales pt_clust_3="62.96502" pt_clust_4="32.16789" pt_clust_5="14000.00000" pt_clust_6="108.52045"></scales>
<clustering>
<clus scale="   32.168">  1  4  2 -1</clus>
<clus scale="   62.965">  2  3  1 -1</clus>
<clus scale="  108.520">  1  6  2 -1</clus>
<clus scale="   62.965">  2  3  1 -1</clus>
</clustering>
</event>
<event>
 6    0  0.2572175E+002  0.1125324E+03  0.7546771E-02  0.1255951E+00
         21   -1    0    0  501  502  0.00000000000E+00  0.00000000000E+00  0.15423011475E+02  0.15423011475E+02  0.00000000000E+00 0.  1.
          1   -1    0    0  504    0 -0.00000000000E+00 -0.00000000000E+00 -0.24712952792E+04  0.24712952792E+04  0.00000000000E+00 0.  1.
         21    1    1    2  503  502 -0.73138504691E+02 -0.68402372096E+02 -0.21462918098E+03  0.23684131967E+03  0.00000000000E+00 0.  1.
         21    1    1    2  504  505  0.67104436694E+02  0.54654382947E+02 -0.64343765065E+03  0.64923194413E+03  0.00000000000E+00 0.  1.
         21    1    1    2  505  503  0.31488518901E+02 -0.90532478901E+01 -0.22099585023E+03  0.22341140064E+03  0.00000000000E+00 0.  1.
          1    1    1    2  501    0 -0.25454450903E+02  0.22801237039E+02 -0.13768095858E+04  0.13772336262E+04  0.00000000000E+00 0.  1.
<scales pt_clust_3="101.00711" pt_clust_4="30.52401" pt_clust_5="30.52401" pt_clust_6="34.17346"></scales>
<clustering>
<clus scale="   30.524">  4  5 -1 -1</clus>
<clus scale="   34.173">  2  6  1 -1</clus>
<clus scale="  101.007">  1  3  2 -1</clus>
<clus scale="  101.007">  1  3  2 -1</clus>
</clustering>
</event>
<event>
 6    0  0.2572175E+002  0.2101211E+03  0.7546771E-02  0.1141470E+00
         21   -1    0    0  504  502  0.00000000000E+00  0.00000000000E+00  0.17134663396E+03  0.17134663396E+03  0.00000000000E+00 0. -1.
          1   -1    0    0  503    0 -0.00000000000E+00 -0.00000000000E+00 -0.44249936896E+04  0.44249936896E+04  0.00000000000E+00 0.  1.
         21    1    1    2  503  505  0.12646694236E+03  0.82063528953E+02  0.63953880748E+02  0.16376327170E+03  0.00000000000E+00 0. -1.
         21    1    1    2  504  501 -0.15729520443E+03 -0.10501959003E+03 -0.34121673179E+04  0.34174049660E+04  0.00000000000E+00 0.  1.
         21    1    1    2  505  502  0.26011052777E+02  0.52663547048E+02  0.38841212700E+02  0.70417780839E+02  0.00000000000E+00 0. -1.
          1    1    1    2  501    0  0.48172092862E+01 -0.29707485973E+02 -0.94427483112E+03  0.94475430505E+03  0.00000000000E+00 0.  1.
<scales pt_clust_3="33.44422" pt_clust_4="203.16960" pt_clust_5="33.44422" pt_clust_6="30.09552"></scales>
<clustering>
<clus scale="   30.096">  2  6  1 -1</clus>
<clus scale="   33.444">  3  5 -1 -1</clus>
<clus scale="  203.170">  2  4  1 -1</clus>
<clus scale="  210.121">  1  3  2 -1</clus>
</clustering>
</event>
<event>
 6    0  0.2572175E+002  0.1457052E+03  0.7546771E-02  0.1205852E+00
         -4   -1    0    0    0  501 -0.00000000000E+00  0.00000000000E+00  0.10690778158E+04  0.10690778158E+04  0.00000000000E+00 0.  1.
         21   -1    0    0  505  502  0.00000000000E+00 -0.00000000000E+00 -0.10641327273E+03  0.10641327273E+03  0.00000000000E+00 0.  1.
         21    1    1    2  503  501 -0.17238192077E+02  0.58707698523E+02  0.12894527661E+03  0.14272572820E+03  0.00000000000E+00 0. -1.
         21    1    1    2  504  502 -0.37066323481E+02 -0.23062679792E+03  0.98600087431E+02  0.25354409774E+03  0.00000000000E+00 0.  1.
         21    1    1    2  505  503  0.50388113767E+02  0.79701620037E+02  0.10005904732E+03  0.13748862934E+03  0.00000000000E+00 0. -1.
         -4    1    1    2    0  504  0.39164017898E+01  0.92217479362E+02  0.63506013171E+03  0.64173263326E+03  0.00000000000E+00 0.  1.
<scales pt_clust_3="61.18618" pt_clust_4="14000.00000" pt_clust_5="99.60861" pt_clust_6="145.70524"></scales>
<clustering>
<clus scale="   61.186">  1  3  2 -1</clus>
<clus scale="   99.609">  2  5  1 -1</clus>
<clus scale="  145.705">  1  6  2 -1</clus>
<clus scale="   99.609">  2  3  1 -1</clus>
</clustering>
</event>
<event>
 6    0  0.2572175E+002  0.9181948E+02  0.7546771E-02  0.1298504E+00
         -1   -1    0    0    0  501 -0.00000000000E+00  0.00000000000E+00  0.30138504102E+03  0.30138504102E+03  0.00000000000E+00 0.  1.
         21   -1    0    0  505  502  0.00000000000E+00 -0.00000000000E+00 -0.37114192539E+03  0.37114192539E+03  0.00000000000E+00 0.  1.
         21    1    1    2  503  502  0.42382259744E+02 -0.11080519053E+02 -0.22379844176E+03  0.22804555768E+03  0.00000000000E+00 0.  1.
         21    1    1    2  504  503  0.38624013907E+02 -0.39693063344E+02 -0.11612016275E+03  0.12865164564E+03  0.00000000000E+00 0.  1.
         21    1    1    2  505  501 -0.89674017203E+02  0.87612649042E+02  0.19817081934E+03  0.23449750377E+03  0.00000000000E+00 0.  1.
         -1    1    1    2    0  504  0.86677435513E+01 -0.36839066645E+02  0.71990900794E+02  0.81332259324E+02  0.00000000000E+00 0.  1.
<scales pt_clust_3="43.97521" pt_clust_4="14000.00000" pt_clust_5="91.81948" pt_clust_6="37.84503"></scales>
<clustering>
<clus scale="   37.845">  1  6  2 -1</clus>
<clus scale="   43.975">  2  3  1 -1</clus>
<clus scale="   91.819">  1  5  2 -1</clus>
<clus scale="   43.975">  2  3  1 -1</clus>
</clustering>
</event>
<event>
 6    0  0.4847207E+002  0.8338011E+02  0.7546771E-02  0.1319724E+00
         21   -1    0    0  503  502  0.00000000000E+00  0.00000000000E+00  0.14698885441E+04  0.14698885441E+04  0.00000000000E+00 0. -1.
         -2   -1    0    0    0  501 -0.00000000000E+00 -0.00000000000E+00 -0.23898221593E+03  0.23898221593E+03  0.00000000000E+00 0.  1.
         21    1    1    2  503  505  0.10972778063E+03 -0.18136361176E+02  0.13668283466E+04  0.13713456320E+04  0.00000000000E+00 0. -1.
         21    1    1    2  504  502 -0.34224308173E+02 -0.18415673465E+02  0.52686059177E+02  0.65469543535E+02  0.00000000000E+00 0. -1.
         21    1    1    2  505  501 -0.15468575523E+02  0.46411046264E+02  0.21411534512E+02  0.53401459289E+02  0.00000000000E+00 0. -1.
         -2    1    1    2    0  504 -0.60034896936E+02 -0.98590116227E+01 -0.21001961214E+03  0.21865412515E+03  0.00000000000E+00 0.  1.
<scales pt_clust_3="83.38011" pt_clust_4="38.86438" pt_clust_5="48.75525" pt_clust_6="14000.00000"></scales>
<clustering>
<clus scale="   38.864">  1  4  2 -1</clus>
<clus scale="   48.755">  2  5  1 -1</clus>
<clus scale="   83.380">  1  3  2 -1</clus>
<clus scale="   38.864">  1  3  2 -1</clus>
</clustering>
</event>
<event>
 6    0  0.2572175E+002  0.1106674E+03  0.7546771E-02  0.1259339E+00
          3   -1    0    0  504    0 -0.00000000000E+00  0.00000000000E+00  0.27843534525E+03  0.27843534525E+03  0.00000000000E+00 0. -1.
         21   -1    0    0  505  502  0.00000000000E+00 -0.00000000000E+00 -0.92986001960E+03  0.92986001960E+03  0.00000000000E+00 0.  1.
         21    1    1    2  503  502 -0.43958544786E+02  0.22028411331E+01 -0.46184418708E+02  0.63798171605E+02  0.00000000000E+00 0.  1.
         21    1    1    2  504  503  0.10276954027E+02  0.36714622028E+02 -0.14315576079E+02  0.40724869223E+02  0.00000000000E+00 0. -1.
         21    1    1    2  505  501  0.36235699270E+02 -0.11440231107E+03 -0.83741520907E+03  0.84596994454E+03  0.00000000000E+00 0.  1.
          3    1    1    2  501    0 -0.25541085112E+01  0.75484847904E+02  0.24649052950E+03  0.25780237948E+03  0.00000000000E+00 0. -1.
<scales pt_clust_3="43.75133" pt_clust_4="38.12583" pt_clust_5="110.66740" pt_clust_6="14000.00000"></scales>
<clustering>
<clus scale="   38.126">  1  4  2 -1</clus>
<clus scale="   43.751">  2  3  1 -1</clus>
<clus scale="  110.667">  2  5  1 -1</clus>
<clus scale="   43.751">  2  3  1 -1</clus>
</clustering>
</event>
<event>
 6    0  0.2572175E+002  0.7048744E+02  0.7546771E-02  0.1358443E+00
          2   -1    0    0  505    0 -0.00000000000E+00  0.00000000000E+00  0.30277646119E+04  0.30277646119E+04  0.00000000000E+00 0. -1.
         21   -1    0    0  503  502  0.00000000000E+00 -0.00000000000E+00 -0.57165180225E+02  0.57165180225E+02  0.00000000000E+00 0.  1.
         21    1    1    2  503  504  0.38060242112E+02  0.15707396938E+02 -0.78464600112E+01  0.41915048406E+02  0.00000000000E+00 0.  1.
         21    1    1    2  504  501 -0.48781315859E+02  0.88851411246E+02  0.13266234871E+03  0.16695355289E+03  0.00000000000E+00 0.  1.
         21    1    1    2  505  502 -0.14113001685E+02 -0.63946751829E+02  0.56844680535E+02  0.86716097647E+02  0.00000000000E+00 0.  1.
          2    1    1    2  501    0  0.24834075432E+02 -0.40612056355E+02  0.27889388624E+04  0.27893450931E+04  0.00000000000E+00 0. -1.
<scales pt_clust_3="41.17407" pt_clust_4="14000.00000" pt_clust_5="70.48744" pt_clust_6="47.64456"></scales>
<clustering>
<clus scale="   41.174">  2  3  1 -1</clus>
<clus scale="   47.645">  1  6  2 -1</clus>
<clus scale="   70.487">  2  5  1 -1</clus>
<clus scale="   41.174">  2  3  1 -1</clus>
</clustering>
</event>
<event>
 6    0  0.2572175E+002  0.1138675E+03  0.7546771E-02  0.1253571E+00
         21   -1    0    0  504  502  0.00000000000E+00  0.00000000000E+00  0.14688991364E+03  0.14688991364E+03  0.00000000000E+00 0. -1.
          2   -1    0    0  505    0 -0.00000000000E+00 -0.00000000000E+00 -0.29171744350E+04  0.29171744350E+04  0.00000000000E+00 0. -1.
         21    1    1    2  503  501  0.14846655902E+02  0.68621670000E+02 -0.26563429446E+02  0.75066454352E+02  0.00000000000E+00 0.  1.
         21    1    1    2  504  503  0.34902582431E+02  0.18871026053E+02  0.16373471867E+02  0.42923146036E+02  0.00000000000E+00 0.  1.
         21    1    1    2  505  502  0.50667848488E+02 -0.31567024171E+02  0.82126438118E+02  0.10153058516E+03  0.00000000000E+00 0. -1.
          2    1    1    2  501    0 -0.10041708682E+03 -0.55925671882E+02 -0.28422210019E+04  0.28445441631E+04  0.00000000000E+00 0. -1.
<scales pt_clust_3="75.80778" pt_clust_4="39.67752" pt_clust_5="113.86748" pt_clust_6="14000.00000"></scales>
<clustering>
<clus scale="   39.678">  1  4  2 -1</clus>
<clus scale="   75.808">  1  3  2 -1</clus>
<clus scale="  113.867">  1  5  2 -1</clus>
<clus scale="   39.678">  1  3  2 -1</clus>
</clustering>
</event>
<event>
 6    0  0.2572175E+002  0.6578932E+02  0.7546771E-02  0.1375027E+00
         -1   -1    0    0    0  501 -0.00000000000E+00  0.00000000000E+00  0.26356940815E+04  0.26356940815E+04  0.00000000000E+00 0.  1.
         21   -1    0    0  504  502  0.00000000000E+00 -0.00000000000E+00 -0.36698603851E+03  0.36698603851E+03  0.00000000000E+00 0. -1.
         21    1    1    2  503  502  0.27362425644E+01  0.39272576925E+02 -0.89046208636E+02  0.97360410816E+02  0.00000000000E+00 0.  1.
         21    1    1    2  504  505 -0.58530719387E+02 -0.58734584276E+01 -0.25874905076E+03  0.26535149122E+03  0.00000000000E+00 0. -1.
         21    1    1    2  505  501  0.84558203888E+02 -0.77436680523E+02  0.27593181175E+03  0.29880577985E+03  0.00000000000E+00 0. -1.
         -1    1    1    2    0  503 -0.28763727065E+02  0.44037562026E+02  0.23405714907E+04  0.23411624381E+04  0.00000000000E+00 0.  1.
<scales pt_clust_3="39.36778" pt_clust_4="14000.00000" pt_clust_5="65.78932" pt_clust_6="52.63292"></scales>
<clustering>
<clus scale="   39.368">  2  3  1 -1</clus>
<clus scale="   52.633">  1  6  2 -1</clus>
<clus scale="   65.789">  1  5  2 -1</clus>
<clus scale="   39.368">  2  3  1 -1</clus>
</clustering>
</event>
<event>
 6    0  0.2572175E+002  0.6667940E+02  0.7546771E-02  0.1371763E+00
         21   -1    0    0  503  502  0.00000000000E+00  0.00000000000E+00  0.16320169356E+03  0.16320169356E+03  0.00000000000E+00 0. -1.
          1   -1    0    0  504    0 -0.00000000000E+00 -0.00000000000E+00 -0.19057723891E+04  0.19057723891E+04  0.00000000000E+00 0.  1.
         21    1    1    2  503  501 -0.84993826015E+02 -0.75507542893E+01  0.13933065622E+03  0.16338297376E+03  0.00000000000E+00 0. -1.
         21    1    1    2  504  505  0.64414776115E+02 -0.15973287829E+02 -0.40952779578E+03  0.41487037111E+03  0.00000000000E+00 0. -1.
         21    1    1    2  505  502  0.29451183801E+02 -0.35693207613E+02 -0.54131194968E+02  0.71214911119E+02  0.00000000000E+00 0.  1.
          1    1    1    2  501    0 -0.88721339020E+01  0.59217249731E+02 -0.14182423610E+04  0.14195058267E+04  0.00000000000E+00 0.  1.
<scales pt_clust_3="66.67940" pt_clust_4="14000.00000" pt_clust_5="46.27502" pt_clust_6="59.71626"></scales>
<clustering>
<clus scale="   46.275">  1  5  2 -1</clus>
<clus scale="   59.716">  2  6  1 -1</clus>
<clus scale="   66.679">  1  3  2 -1</clus>
<clus scale="   46.275">  1  3  2 -1</clus>
</clustering>
</event>
<event>
 6    0  0.2572175E+002  0.7517858E+02  0.7546771E-02  0.1343319E+00
         21   -1    0    0  505  502  0.00000000000E+00  0.00000000000E+00  0.80734887960E+03  0.80734887960E+03  0.00000000000E+00 0. -1.
          2   -1    0    0  503    0 -0.00000000000E+00 -0.00000000000E+00 -0.20574574631E+03  0.20574574631E+03  0.00000000000E+00 0. -1.
         21    1    1    2  503  504  0.46671771292E+02 -0.77814428369E+02  0.11104253874E+03  0.14340078419E+03  0.00000000000E+00 0. -1.
         21    1    1    2  504  502  0.39964824950E+02 -0.14522308510E+02  0.27245628751E+03  0.27575444381E+03  0.00000000000E+00 0. -1.
         21    1    1    2  505  501 -0.59365328124E+02  0.73973996971E+02  0.39898035233E+03  0.41009964149E+03  0.00000000000E+00 0. -1.
          2    1    1    2  501    0 -0.27271268117E+02  0.18362739908E+02 -0.18087604528E+03  0.18383975641E+03  0.00000000000E+00 0. -1.
<scales pt_clust_3="75.17858" pt_clust_4="40.27600" pt_clust_5="14000.00000" pt_clust_6="32.87723"></scales>
<clustering>
<clus scale="   32.877">  2  6  1 -1</clus>
<clus scale="   40.276">  1  4  2 -1</clus>
<clus scale="   75.179">  2  3  1 -1</clus>
<clus scale="   40.276">  1  3  2 -1</clus>
</clustering>
</event>
<event>
 6    0  0.2572175E+002  0.1912612E+03  0.7546771E-02  0.1157329E+00
         21   -1    0    0  505  502  0.00000000000E+00  0.00000000000E+00  0.25042424293E+02  0.25042424293E+02  0.00000000000E+00 0. -1.
          2   -1    0    0  503    0 -0.00000000000E+00 -0.00000000000E+00 -0.51715682120E+04  0.51715682120E+04  0.00000000000E+00 0.  1.
         21    1    1    2  503  504  0.13209896276E+02  0.97010957115E+02 -0.71099286011E+03  0.71770221839E+03  0.00000000000E+00 0.  1.
         21    1    1    2  504  502 -0.17997845140E+03 -0.13181104316E+03 -0.62751706327E+03  0.66599103505E+03  0.00000000000E+00 0. -1.
         21    1    1    2  505  501  0.11276761782E+03  0.32297896396E+02 -0.16232412254E+04  0.16274740445E+04  0.00000000000E+00 0.  1.
          2    1    1    2  501    0  0.54000937303E+02  0.25021896475E+01 -0.21847746389E+04  0.21854433383E+04  0.00000000000E+00 0.  1.
<scales pt_clust_3="101.04559" pt_clust_4="191.26117" pt_clust_5="14000.00000" pt_clust_6="54.05888"></scales>
<clustering>
<clus scale="   54.059">  2  6  1 -1</clus>
<clus scale="  101.046">  2  3  1 -1</clus>
<clus scale="  191.261">  1  4  2 -1</clus>
<clus scale="  191.261">  1  3  2 -1</clus>
</clustering>
</event>
<event>
 6    0  0.2572175E+002  0.2184524E+03  0.7546771E-02  0.1135042E+00
          2   -1    0    0  504    0 -0.00000000000E+00  0.00000000000E+00  0.80631976966E+03  0.80631976966E+03  0.00000000000E+00 0.  1.
         21   -1    0    0  505  502  0.00000000000E+00 -0.00000000000E+00 -0.13271118316E+03  0.13271118316E+03  0.00000000000E+00 0.  1.
         21    1    1    2  503  502  0.20307921674E+03  0.27341288280E+02  0.56425399428E+02  0.21253832600E+03  0.00000000000E+00 0.  1.
         21    1    1    2  504  503  0.26985822271E+02  0.53443587892E+02  0.99668887359E+02  0.11626839122E+03  0.00000000000E+00 0.  1.
         21    1    1    2  505  501 -0.24948714695E+03 -0.55249537709E+02  0.31703779190E+03  0.40719689267E+03  0.00000000000E+00 0.  1.
          2    1    1    2  501    0  0.19422107933E+02 -0.25535338463E+02  0.20047650781E+03  0.20302734291E+03  0.00000000000E+00 0.  1.
<scales pt_clust_3="14000.00000" pt_clust_4="57.59379" pt_clust_5="218.45242" pt_clust_6="32.08227"></scales>
<clustering>
<clus scale="   32.082">  1  6  2 -1</clus>
<clus scale="   57.594">  1  4  2 -1</clus>
<clus scale="  218.452">  1  5  2 -1</clus>
<clus scale="  218.452">  2  3  1 -1</clus>
</clustering>
</event>
<event>
 6    0  0.2572175E+002  0.1623547E+03  0.7546771E-02  0.1186064E+00
          2   -1    0    0  505    0 -0.00000000000E+00  0.00000000000E+00  0.16318187670E+04  0.16318187670E+04  0.00000000000E+00 0.  1.
         21   -1    0    0  503  502  0.00000000000E+00 -0.00000000000E+00 -0.29462170279E+03  0.29462170279E+03  0.00000000000E+00 0.  1.
         21    1    1    2  503  501  0.61115131239E+02  0.10843608779E+03  0.57366352569E+02  0.13705598422E+03  0.00000000000E+00 0.  1.
         21    1    1    2  504  502 -0.26408403249E+02  0.97764850421E+02 -0.21074838294E+03  0.23381670310E+03  0.00000000000E+00 0.  1.
         21    1    1    2  505  504  0.94720144170E+02 -0.98594428028E+02  0.14421267987E+03  0.19872107081E+03  0.00000000000E+00 0.  1.
          2    1    1    2  501    0 -0.12942687216E+03 -0.10760651019E+03  0.13463664147E+04  0.13568467116E+04  0.00000000000E+00 0.  1.
<scales pt_clust_3="14000.00000" pt_clust_4="101.26880" pt_clust_5="104.88315" pt_clust_6="162.35467"></scales>
<clustering>
<clus scale="  101.269">  2  4  1 -1</clus>
<clus scale="  104.883">  2  5  1 -1</clus>
<clus scale="  162.355">  1  6  2 -1</clus>
<clus scale="  101.269">  2  3  1 -1</clus>
</clustering>
</event>
<event>
 6    0  0.2572175E+002  0.8476603E+02  0.7546771E-02  0.1316046E+00
         21   -1    0    0  505  502  0.00000000000E+00  0.00000000000E+00  0.10756475271E+03  0.10756475271E+03  0.00000000000E+00 0.  1.
          2   -1    0    0  502    0 -0.00000000000E+00 -0.00000000000E+00 -0.25599472941E+04  0.25599472941E+04  0.00000000000E+00 0. -1.
         21    1    1    2  503  501 -0.36178336421E+02 -0.10831700206E+03 -0.14833111756E+03  0.18719926655E+03  0.00000000000E+00 0.  1.
         21    1    1    2  504  503 -0.23000333814E+02  0.63949677404E+02  0.27040441380E+02  0.73142067687E+02  0.00000000000E+00 0.  1.
         21    1    1    2  505  504  0.33189512049E+02  0.21138112971E+02  0.27700044162E+02  0.48121263248E+02  0.00000000000E+00 0.  1.
          2    1    1    2  501    0  0.25989158186E+02  0.23229211689E+02 -0.23587919094E+04  0.23590494494E+04  0.00000000000E+00 0. -1.
<scales pt_clust_3="84.76603" pt_clust_4="14000.00000" pt_clust_5="41.09747" pt_clust_6="34.85732"></scales>
<clustering>
<clus scale="   34.857">  2  6  1 -1</clus>
<clus scale="   41.097">  1  5  2 -1</clus>
<clus scale="   84.766">  2  3  1 -1</clus>
<clus scale="   41.097">  1  3  2 -1</clus>
</clustering>
</event>
<event>
 6    0  0.2572175E+002  0.8666947E+02  0.7546771E-02  0.1311124E+00
         -1   -1    0    0    0  501 -0.00000000000E+00  0.00000000000E+00  0.18215989345E+03  0.18215989345E+03  0.00000000000E+00 0.  1.
         21   -1    0    0  505  502  0.00000000000E+00 -0.00000000000E+00 -0.11421244194E+04  0.11421244194E+04  0.00000000000E+00 0.  1.
         21    1    1    2  503  501 -0.51954699282E+02 -0.53403324684E+02  0.78760887231E+02  0.10841809453E+03  0.00000000000E+00 0.  1.
         21    1    1    2  504  502 -0.12834488717E+02  0.38320373915E+02 -0.54200855346E+02  0.67608489688E+02  0.00000000000E+00 0.  1.
         21    1    1    2  505  503 -0.10099003484E+02 -0.98913020558E+02 -0.10053747730E+04  0.10102792731E+04  0.00000000000E+00 0.  1.
         -1    1    1    2    0  504  0.74888191483E+02  0.11399597133E+03  0.20850215197E+02  0.13797845548E+03  0.00000000000E+00 0.  1.
<scales pt_clust_3="86.66947" pt_clust_4="40.41256" pt_clust_5="66.93432" pt_clust_6="14000.00000"></scales>
<clustering>
<clus scale="   40.413">  2  4  1 -1</clus>
<clus scale="   66.934">  2  5  1 -1</clus>
<clus scale="   86.669">  1  3  2 -1</clus>
<clus scale="   40.413">  2  3  1 -1</clus>
</clustering>
</event>
<event>
 6    0  0.2572175E+002  0.7908826E+02  0.7546771E-02  0.1331659E+00
          1   -1    0    0  503    0 -0.00000000000E+00  0.00000000000E+00  0.10135534503E+04  0.10135534503E+04  0.00000000000E+00 0.  1.
         21   -1    0    0  504  502  0.00000000000E+00 -0.00000000000E+00 -0.19515211069E+04  0.19515211069E+04  0.00000000000E+00 0. -1.
         21    1    1    2  503  505  0.14991462945E+02  0.52749173404E+02  0.71050731324E+03  0.71262041889E+03  0.00000000000E+00 0.  1.
         21    1    1    2  504  501 -0.41405969907E+02 -0.56519007511E+01 -0.33886143988E+02  0.53802128958E+02  0.00000000000E+00 0. -1.
         21    1    1    2  505  502  0.81319124984E+02 -0.64184167725E+02 -0.19023667496E+04  0.19051854653E+04  0.00000000000E+00 0. -1.
          1    1    1    2  501    0 -0.54904618021E+02  0.17086895072E+02  0.28777792372E+03  0.29346654400E+03  0.00000000000E+00 0.  1.
<scales pt_clust_3="54.82884" pt_clust_4="41.78993" pt_clust_5="14000.00000" pt_clust_6="79.08826"></scales>
<clustering>
<clus scale="   41.790">  2  4  1 -1</clus>
<clus scale="   54.829">  1  3  2 -1</clus>
<clus scale="   79.088">  1  6  2 -1</clus>
<clus scale="   41.790">  2  3  1 -1</clus>
</clustering>
</event>
<event>
 6    0  0.2572175E+002  0.1157963E+03  0.7546771E-02  0.1250197E+00
         21   -1    0    0  505  502  0.00000000000E+00  0.00000000000E+00  0.27413275486E+02  0.27413275486E+02  0.00000000000E+00 0.  1.
          2   -1    0    0  503    0 -0.00000000000E+00 -0.00000000000E+00 -0.87768050872E+03  0.87768050872E+03  0.00000000000E+00 0.  1.
         21    1    1    2  503  504  0.78394997567E+02  0.44602584790E+02 -0.10571172267E+03  0.13896091005E+03  0.00000000000E+00 0.  1.
         21    1    1    2  504  502  0.12871918322E+01  0.42708678763E+02 -0.85246075309E+02  0.95355028499E+02  0.00000000000E+00 0.  1.
         21    1    1    2  505  501 -0.39045013039E+02 -0.44609121615E+02 -0.23353129146E+03  0.24093847942E+03  0.00000000000E+00 0.  1.
          2    1    1    2  501    0 -0.40637176361E+02 -0.42702141938E+02 -0.42577814379E+03  0.42983936622E+03  0.00000000000E+00 0.  1.
<scales pt_clust_3="110.12405" pt_clust_4="42.72807" pt_clust_5="35.69639" pt_clust_6="35.69639"></scales>
<clustering>
<clus scale="   35.696">  5  6 -1 -1</clus>
<clus scale="   42.728">  1  4  2 -1</clus>
<clus scale="  110.124">  1  3  2 -1</clus>
<clus scale="   42.728">  1  3  2 -1</clus>
</clustering>
</event>
<event>
 6    0  0.2572175E+002  0.1106159E+03  0.7546771E-02  0.1259434E+00
         21   -1    0    0  503  502  0.00000000000E+00  0.00000000000E+00  0.22639314067E+03  0.22639314067E+03  0.00000000000E+00 0. -1.
          2   -1    0    0  505    0 -0.00000000000E+00 -0.00000000000E+00 -0.26582769305E+03  0.26582769305E+03  0.00000000000E+00 0.  1.
         21    1    1    2  503  504  0.39843005615E+02  0.32959076301E+02  0.15672333591E+02  0.54031359850E+02  0.00000000000E+00 0.  1.
         21    1    1    2  504  501  0.54690886423E+02 -0.70646583196E+01  0.12328993063E+02  0.56506694514E+02  0.00000000000E+00 0.  1.
         21    1    1    2  505  502 -0.79597101779E+02 -0.71834375519E+02  0.13566349626E+03  0.17291749574E+03  0.00000000000E+00 0. -1.
          2    1    1    2  501    0 -0.14936790259E+02  0.45939957537E+02 -0.20309937528E+03  0.20876528361E+03  0.00000000000E+00 0.  1.
<scales pt_clust_3="41.39469" pt_clust_4="41.39469" pt_clust_5="102.02193" pt_clust_6="48.30722"></scales>
<clustering>
<clus scale="   41.395">  3  4 -1 -1</clus>
<clus scale="   48.307">  2  6  1 -1</clus>
<clus scale="  102.022">  1  5  2 -1</clus>
<clus scale="  102.022">  1  3  2 -1</clus>
</clustering>
</event>
<event>
 6    0  0.2572175E+002  0.1346365E+03  0.7546771E-02  0.1220734E+00
         21   -1    0    0  503  502  0.00000000000E+00  0.00000000000E+00  0.31032989556E+03  0.31032989556E+03  0.00000000000E+00 0. -1.
          2   -1    0    0  505    0 -0.00000000000E+00 -0.00000000000E+00 -0.18971892066E+04  0.18971892066E+04  0.00000000000E+00 0. -1.
         21    1    1    2  503  501  0.28868821952E+01 -0.93123224312E+02 -0.25598635895E+03  0.27241381199E+03  0.00000000000E+00 0. -1.
         21    1    1    2  504  502 -0.65719979552E+02  0.12109983894E+03  0.27502102190E+03  0.30760502140E+03  0.00000000000E+00 0. -1.
         21    1    1    2  505  504  0.33054099224E+02 -0.10459719450E+02 -0.17692482655E+02  0.38923041363E+02  0.00000000000E+00 0.  1.
          2    1    1    2  501    0  0.29778998133E+02 -0.17516895183E+02 -0.15882014914E+04  0.15885772274E+04  0.00000000000E+00 0. -1.
<scales pt_clust_3="134.63646" pt_clust_4="14000.00000" pt_clust_5="37.76330" pt_clust_6="34.54896"></scales>
<clustering>
<clus scale="   34.549">  2  6  1 -1</clus>
<clus scale="   37.763">  2  5  1 -1</clus>
<clus scale="  134.636">  2  3  1 -1</clus>
<clus scale="  134.636">  1  3  2 -1</clus>
</clustering>
</event>
<event>
 6    0  0.2572175E+002  0.1124868E+03  0.7546771E-02  0.1256033E+00
          2   -1    0    0  503    0 -0.00000000000E+00  0.00000000000E+00  0.97367097703E+03  0.97367097703E+03  0.00000000000E+00 0. -1.
         21   -1    0    0  504  502  0.00000000000E+00 -0.00000000000E+00 -0.27529431589E+03  0.27529431589E+03  0.00000000000E+00 0.  1.
         21    1    1    2  503  505 -0.78494455636E+01  0.34167920760E+02  0.67306101533E+02  0.75889208114E+02  0.00000000000E+00 0. -1.
         21    1    1    2  504  501  0.17415997453E+02  0.12765144198E+03  0.10337855287E+02  0.12924812904E+03  0.00000000000E+00 0.  1.
         21    1    1    2  505  502  0.53449181243E+02 -0.99866899069E+02 -0.19382234367E+03  0.22449345961E+03  0.00000000000E+00 0.  1.
          2    1    1    2  501    0 -0.63015733132E+02 -0.61952463674E+02  0.81455504799E+03  0.81933449616E+03  0.00000000000E+00 0. -1.
<scales pt_clust_3="35.05796" pt_clust_4="14000.00000" pt_clust_5="112.48683" pt_clust_6="76.67458"></scales>
<clustering>
<clus scale="   35.058">  1  3  2 -1</clus>
<clus scale="   76.675">  1  6  2 -1</clus>
<clus scale="  112.487">  2  5  1 -1</clus>
<clus scale="  112.487">  2  3  1 -1</clus>
</clustering>
</event>
<event>
 6    0  0.2572175E+002  0.2120295E+03  0.7546771E-02  0.1139969E+00
          1   -1    0    0  505    0 -0.00000000000E+00  0.00000000000E+00  0.12694192996E+04  0.12694192996E+04  0.00000000000E+00 0. -1.
         21   -1    0    0  503  502  0.00000000000E+00 -0.00000000000E+00 -0.20505880521E+04  0.20505880521E+04  0.00000000000E+00 0. -1.
         21    1    1    2  503  501  0.39962231094E+02 -0.19324173678E+03 -0.16870332879E+04  0.16985348579E+04  0.00000000000E+00 0. -1.
         21    1    1    2  504  502 -0.42293631875E+02  0.13701046805E+03 -0.22329339228E+03  0.26536872214E+03  0.00000000000E+00 0.  1.
         21    1    1    2  505  504  0.27938148984E+02  0.76044213908E+02 -0.98772321061E+02  0.12774675747E+03  0.00000000000E+00 0. -1.
          1    1    1    2  501    0 -0.25606748204E+02 -0.19812945181E+02  0.12279302488E+04  0.12283570142E+04  0.00000000000E+00 0. -1.
<scales pt_clust_3="199.35251" pt_clust_4="51.94695" pt_clust_5="51.94695" pt_clust_6="32.37682"></scales>
<clustering>
<clus scale="   32.377">  1  6  2 -1</clus>
<clus scale="   51.947">  4  5 -1 -1</clus>
<clus scale="  199.353">  2  3  1 -1</clus>
<clus scale="  199.353">  2  3  1 -1</clus>
</clustering>
</event>
<event>
 6    0  0.2572175E+002  0.1196930E+03  0.7546771E-02  0.1243604E+00
          4   -1    0    0  504    0 -0.00000000000E+00  0.00000000000E+00  0.87188272273E+03  0.87188272273E+03  0.00000000000E+00 0.  1.
         21   -1    0    0  503  502  0.00000000000E+00 -0.00000000000E+00 -0.12235826995E+03  0.12235826995E+03  0.00000000000E+00 0.  1.
         21    1    1    2  503  501 -0.40347582807E+02 -0.43237555198E+02  0.47077087325E+02  0.75588793937E+02  0.00000000000E+00 0.  1.
         21    1    1    2  504  505  0.80112144130E+02  0.17713644892E+03  0.19943533187E+03  0.27851342655E+03  0.00000000000E+00 0.  1.
         21    1    1    2  505  502  0.52188100009E+02 -0.69962798279E+02 -0.32426918319E+02  0.93112276082E+02  0.00000000000E+00 0.  1.
          4    1    1    2  501    0 -0.91952661332E+02 -0.63936095440E+02  0.53543895190E+03  0.54702649611E+03  0.00000000000E+00 0.  1.
<scales pt_clust_3="59.13893" pt_clust_4="14000.00000" pt_clust_5="99.32374" pt_clust_6="119.69303"></scales>
<clustering>
<clus scale="   59.139">  2  3  1 -1</clus>
<clus scale="   99.324">  2  5  1 -1</clus>
<clus scale="  119.693">  1  6  2 -1</clus>
<clus scale="   59.139">  2  3  1 -1</clus>
</clustering>
</event>
<event>
 6    0  0.2572175E+002  0.7058282E+02  0.7546771E-02  0.1358122E+00
          4   -1    0    0  503    0 -0.00000000000E+00  0.00000000000E+00  0.42331880109E+03  0.42331880109E+03  0.00000000000E+00 0.  1.
         21   -1    0    0  504  502  0.00000000000E+00 -0.00000000000E+00 -0.55161712624E+03  0.55161712624E+03  0.00000000000E+00 0.  1.
         21    1    1    2  503  502  0.66748659823E+02  0.12873601335E+02 -0.37555692962E+03  0.38165969212E+03  0.00000000000E+00 0.  1.
         21    1    1    2  504  505 -0.35423572954E+01 -0.37666851632E+02 -0.12541190827E+03  0.13099422408E+03  0.00000000000E+00 0. -1.
         21    1    1    2  505  501 -0.12558070363E+03  0.29786876281E+02  0.58084257394E+02  0.14153286573E+03  0.00000000000E+00 0. -1.
          4    1    1    2  501    0  0.62374401107E+02 -0.49936259838E+01  0.31458625535E+03  0.32074914539E+03  0.00000000000E+00 0.  1.
<scales pt_clust_3="70.58282" pt_clust_4="37.83305" pt_clust_5="14000.00000" pt_clust_6="62.57076"></scales>
<clustering>
<clus scale="   37.833">  2  4  1 -1</clus>
<clus scale="   62.571">  1  6  2 -1</clus>
<clus scale="   70.583">  2  3  1 -1</clus>
<clus scale="   37.833">  2  3  1 -1</clus>
</clustering>
</event>
<event>
 6    0  0.2572175E+002  0.1671521E+03  0.7546771E-02  0.1180851E+00
         21   -1    0    0  504  502  0.00000000000E+00  0.00000000000E+00  0.96937272970E+03  0.96937272970E+03  0.00000000000E+00 0.  1.
          3   -1    0    0  505    0 -0.00000000000E+00 -0.00000000000E+00 -0.34871045321E+03  0.34871045321E+03  0.00000000000E+00 0.  1.
         21    1    1    2  503  502 -0.62730228428E+02  0.46603276327E+02 -0.13405141964E+02  0.79288364557E+02  0.00000000000E+00 0.  1.
         21    1    1    2  504  501  0.14536832147E+03 -0.61516933429E+02  0.90868373568E+03  0.92229193506E+03  0.00000000000E+00 0.  1.
         21    1    1    2  505  503 -0.62583086814E+02 -0.11406995313E+02 -0.31210382390E+02  0.70857958382E+02  0.00000000000E+00 0.  1.
          3    1    1    2  501    0 -0.20055006224E+02  0.26320652416E+02 -0.24340593484E+03  0.24564492491E+03  0.00000000000E+00 0.  1.
<scales pt_clust_3="53.20690" pt_clust_4="155.97651" pt_clust_5="53.20690" pt_clust_6="33.09048"></scales>
<clustering>
<clus scale="   33.090">  2  6  1 -1</clus>
<clus scale="   53.207">  3  5 -1 -1</clus>
<clus scale="  155.977">  1  4  2 -1</clus>
<clus scale="  155.977">  1  3  2 -1</clus>
</clustering>
</event>
<event>
 6    0  0.2572175E+002  0.8086946E+02  0.7546771E-02  0.1326602E+00
         21   -1    0    0  505  502  0.00000000000E+00  0.00000000000E+00  0.83420140413E+02  0.83420140413E+02  0.00000000000E+00 0. -1.
          2   -1    0    0  504    0 -0.00000000000E+00 -0.00000000000E+00 -0.53871315859E+03  0.53871315859E+03  0.00000000000E+00 0.  1.
         21    1    1    2  503  502 -0.29790260331E+02 -0.18775809422E+02  0.14340306471E+01  0.35242688233E+02  0.00000000000E+00 0. -1.
         21    1    1    2  504  503  0.56095184093E+02  0.38381897906E+02 -0.13803378837E+03  0.15386086733E+03  0.00000000000E+00 0.  1.
         21    1    1    2  505  501  0.32317490356E+02 -0.68725876734E+02  0.25754473923E+02  0.80193261829E+02  0.00000000000E+00 0. -1.
          2    1    1    2  501    0 -0.58622414118E+02  0.49119788249E+02 -0.34444773438E+03  0.35283648161E+03  0.00000000000E+00 0.  1.
<scales pt_clust_3="35.21350" pt_clust_4="63.69090" pt_clust_5="80.86946" pt_clust_6="14000.00000"></scales>
<clustering>
<clus scale="   35.214">  1  3  2 -1</clus>
<clus scale="   63.691">  2  4  1 -1</clus>
<clus scale="   80.869">  1  5  2 -1</clus>
<clus scale="   35.214">  1  3  2 -1</clus>
</clustering>
</event>
<event>
 6    0  0.2572175E+002  0.1100195E+03  0.7546771E-02  0.1260534E+00
         -4   -1    0    0    0  501 -0.00000000000E+00  0.00000000000E+00  0.69613666421E+03  0.69613666421E+03  0.00000000000E+00 0.  1.
         21   -1    0    0  503  502  0.00000000000E+00 -0.00000000000E+00 -0.49323529822E+03  0.49323529822E+03  0.00000000000E+00 0.  1.
         21    1    1    2  503  501  0.60041007947E+02  0.80014909511E+01 -0.36799650074E+03  0.37294821497E+03  0.00000000000E+00 0.  1.
         21    1    1    2  504  502 -0.85796738030E+02  0.39771339596E+02 -0.34354816968E+02  0.10061358337E+03  0.00000000000E+00 0.  1.
         21    1    1    2  505  504 -0.65400950407E+02 -0.39388348082E+01 -0.30351475702E+02  0.72208107654E+02  0.00000000000E+00 0.  1.
         -4    1    1    2    0  505  0.91156680490E+02 -0.43833995739E+02  0.63560415941E+03  0.64360205643E+03  0.00000000000E+00 0.  1.
<scales pt_clust_3="60.57183" pt_clust_4="32.61916" pt_clust_5="32.61916" pt_clust_6="102.80356"></scales>
<clustering>
<clus scale="   32.619">  4  5 -1 -1</clus>
<clus scale="   60.572">  2  3  1 -1</clus>
<clus scale="  102.804">  1  6  2 -1</clus>
<clus scale="   60.572">  2  3  1 -1</clus>
</clustering>
</event>
<event>
 6    0  0.2572175E+002  0.1071405E+03  0.7546771E-02  0.1265959E+00
          2   -1    0    0  503    0 -0.00000000000E+00  0.00000000000E+00  0.21536605172E+03  0.21536605172E+03  0.00000000000E+00 0. -1.
         21   -1    0    0  505  502  0.00000000000E+00 -0.00000000000E+00 -0.38896380161E+03  0.38896380161E+03  0.00000000000E+00 0. -1.
         21    1    1    2  503  504  0.42876353835E+02 -0.31945148480E+02  0.22605424121E+02  0.58050662609E+02  0.00000000000E+00 0.  1.
         21    1    1    2  504  502  0.17776878540E+02  0.54867474636E+02 -0.14950320681E+03  0.16024252254E+03  0.00000000000E+00 0. -1.
         21    1    1    2  505  501 -0.90308149692E+02  0.36755977819E+02 -0.19800341476E+03  0.22070776167E+03  0.00000000000E+00 0. -1.
          2    1    1    2  501    0  0.29654917317E+02 -0.59678303975E+02  0.15130344756E+03  0.16532890652E+03  0.00000000000E+00 0. -1.
<scales pt_clust_3="53.46844" pt_clust_4="57.16969" pt_clust_5="107.14048" pt_clust_6="14000.00000"></scales>
<clustering>
<clus scale="   53.468">  1  3  2 -1</clus>
<clus scale="   57.170">  2  4  1 -1</clus>
<clus scale="  107.140">  2  5  1 -1</clus>
<clus scale="   57.170">  2  3  1 -1</clus>
</clustering>
</event>
<event>
 6    0  0.2572175E+002  0.1751633E+03  0.7546771E-02  0.1172568E+00
         21   -1    0    0  501  502  0.00000000000E+00  0.00000000000E+00  0.13890920124E+03  0.13890920124E+03  0.00000000000E+00 0.  1.
          1   -1    0    0  503    0 -0.00000000000E+00 -0.00000000000E+00 -0.48562623090E+03  0.48562623090E+03  0.00000000000E+00 0. -1.
         21    1    1    2  503  504 -0.43425449370E+00  0.91415042964E+02 -0.42436352214E+02  0.10078562718E+03  0.00000000000E+00 0.  1.
         21    1    1    2  504  505  0.53778384972E+02  0.35404696316E+02 -0.22319608969E+02  0.68145228417E+02  0.00000000000E+00 0.  1.
         21    1    1    2  505  502  0.70310150281E+02 -0.86770917356E+01  0.46880113753E+02  0.84950304408E+02  0.00000000000E+00 0.  1.
          1    1    1    2  501    0 -0.12365428076E+03 -0.11814264754E+03 -0.32884118223E+03  0.37065427213E+03  0.00000000000E+00 0. -1.
<scales pt_clust_3="61.75943" pt_clust_4="61.75943" pt_clust_5="70.84355" pt_clust_6="158.95515"></scales>
<clustering>
<clus scale="   61.759">  3  4 -1 -1</clus>
<clus scale="   70.844">  1  5  2 -1</clus>
<clus scale="  158.955">  2  6  1 -1</clus>
<clus scale="   70.844">  1  3  2 -1</clus>
</clustering>
</event>
<event>
 6    0  0.2572175E+002  0.8863199E+02  0.7546771E-02  0.1306199E+00
          2   -1    0    0  502    0 -0.00000000000E+00  0.00000000000E+00  0.75303012238E+02  0.75303012238E+02  0.00000000000E+00 0. -1.
         21   -1    0    0  505  502  0.00000000000E+00 -0.00000000000E+00 -0.68341855138E+03  0.68341855138E+03  0.00000000000E+00 0. -1.
         21    1    1    2  503  501 -0.36696361217E+02 -0.10437422282E+03 -0.39824721479E+02  0.11758660535E+03  0.00000000000E+00 0. -1.
         21    1    1    2  504  503  0.11917067552E+02  0.63809036631E+02 -0.27371190604E+03  0.28130378092E+03  0.00000000000E+00 0. -1.
         21    1    1    2  505  504 -0.36452535169E+02  0.31288995219E+02 -0.29399901066E+03  0.29789798055E+03  0.00000000000E+00 0. -1.
          2    1    1    2  501    0  0.61231828833E+02  0.92761909743E+01 -0.57990096703E+00  0.61933196804E+02  0.00000000000E+00 0. -1.
<scales pt_clust_3="88.63199" pt_clust_4="14000.00000" pt_clust_5="48.03945" pt_clust_6="59.47366"></scales>
<clustering>
<clus scale="   48.039">  2  5  1 -1</clus>
<clus scale="   59.474">  1  6  2 -1</clus>
<clus scale="   88.632">  1  3  2 -1</clus>
<clus scale="   48.039">  2  3  1 -1</clus>
</clustering>
</event>
<event>
 6    0  0.2572175E+002  0.7448165E+02  0.7546771E-02  0.1345484E+00
          1   -1    0    0  505    0 -0.00000000000E+00  0.00000000000E+00  0.14732347777E+04  0.14732347777E+04  0.00000000000E+00 0.  1.
         21   -1    0    0  503  502  0.00000000000E+00 -0.00000000000E+00 -0.36887779070E+02  0.36887779070E+02  0.00000000000E+00 0. -1.
         21    1    1    2  503  501  0.52865881100E+02  0.38094538207E+02  0.81748758164E+02  0.10454116264E+03  0.00000000000E+00 0. -1.
         21    1    1    2  504  502  0.40521708399E+02 -0.24234390809E+02  0.35602907379E+02  0.59134436357E+02  0.00000000000E+00 0. -1.
         21    1    1    2  505  504 -0.98230344991E+02  0.54005696997E+02  0.23550620560E+03  0.26082367389E+03  0.00000000000E+00 0. -1.
          1    1    1    2  501    0  0.48427554918E+01 -0.67865844395E+02  0.10834891275E+04  0.10856232838E+04  0.00000000000E+00 0.  1.
<scales pt_clust_3="14000.00000" pt_clust_4="47.21562" pt_clust_5="74.48165" pt_clust_6="69.20720"></scales>
<clustering>
<clus scale="   47.216">  2  4  1 -1</clus>
<clus scale="   69.207">  1  6  2 -1</clus>
<clus scale="   74.482">  1  5  2 -1</clus>
<clus scale="   47.216">  2  3  1 -1</clus>
</clustering>
</event>
<event>
 6    0  0.2572175E+002  0.8216888E+02  0.7546771E-02  0.1323007E+00
         21   -1    0    0  504  502  0.00000000000E+00  0.00000000000E+00  0.37258731204E+02  0.37258731204E+02  0.00000000000E+00 0.  1.
          2   -1    0    0  505    0 -0.00000000000E+00 -0.00000000000E+00 -0.15541889132E+04  0.15541889132E+04  0.00000000000E+00 0. -1.
         21    1    1    2  503  502  0.74770645806E+02 -0.21179022115E+02 -0.29376230358E+02  0.83079259518E+02  0.00000000000E+00 0.  1.
         21    1    1    2  504  501 -0.11989782575E+03  0.32764327913E+02 -0.52415681028E+03  0.53869226054E+03  0.00000000000E+00 0. -1.
         21    1    1    2  505  503  0.29568386563E+02  0.14319923292E+02 -0.90883193362E+02  0.96639042435E+02  0.00000000000E+00 0. -1.
          2    1    1    2  501    0  0.15558793382E+02 -0.25905229090E+02 -0.87251394801E+03  0.87303708193E+03  0.00000000000E+00 0. -1.
<scales pt_clust_3="14000.00000" pt_clust_4="82.16888" pt_clust_5="33.48366" pt_clust_6="30.21849"></scales>
<clustering>
<clus scale="   30.218">  2  6  1 -1</clus>
<clus scale="   33.484">  2  5  1 -1</clus>
<clus scale="   82.169">  2  4  1 -1</clus>
<clus scale="   82.169">  1  3  2 -1</clus>
</clustering>
</event>
<event>
 6    0  0.2572175E+002  0.8057097E+02  0.7546771E-02  0.1327439E+00
          2   -1    0    0  505    0 -0.00000000000E+00  0.00000000000E+00  0.12030748242E+04  0.12030748242E+04  0.00000000000E+00 0. -1.
         21   -1    0    0  504  502  0.00000000000E+00 -0.00000000000E+00 -0.38576187349E+02  0.38576187349E+02  0.00000000000E+00 0.  1.
         21    1    1    2  503  502  0.41761881231E+02  0.29668611482E+02  0.22283581625E+02  0.55864472084E+02  0.00000000000E+00 0.  1.
         21    1    1    2  504  501 -0.91016698341E+01 -0.98946955996E+02  0.17993737256E+03  0.20554999036E+03  0.00000000000E+00 0.  1.
         21    1    1    2  505  503  0.22311148670E+02  0.67673127787E+02  0.14963304399E+03  0.16573318145E+03  0.00000000000E+00 0.  1.
          2    1    1    2  501    0 -0.54971360067E+02  0.16052167276E+01  0.81264463866E+03  0.81450336763E+03  0.00000000000E+00 0. -1.
<scales pt_clust_3="51.22774" pt_clust_4="14000.00000" pt_clust_5="80.57097" pt_clust_6="53.26725"></scales>
<clustering>
<clus scale="   51.228">  2  3  1 -1</clus>
<clus scale="   53.267">  1  6  2 -1</clus>
<clus scale="   80.571">  1  5  2 -1</clus>
<clus scale="   51.228">  2  3  1 -1</clus>
</clustering>
</event>
<event>
 6    0  0.2572175E+002  0.1385177E+03  0.7546771E-02  0.1215338E+00
         21   -1    0    0  501  502  0.00000000000E+00  0.00000000000E+00  0.25164739035E+03  0.25164739035E+03  0.00000000000E+00 0. -1.
          1   -1    0    0  504    0 -0.00000000000E+00 -0.00000000000E+00 -0.27066621496E+04  0.27066621496E+04  0.00000000000E+00 0.  1.
         21    1    1    2  503  502  0.70540259608E+02 -0.63633861312E+02  0.16546845686E+03  0.19080096108E+03  0.00000000000E+00 0. -1.
         21    1    1    2  504  505 -0.11899152507E+03  0.81737883904E+02 -0.73650160257E+03  0.75051627250E+03  0.00000000000E+00 0.  1.
         21    1    1    2  505  503 -0.53580145124E+02 -0.91618775098E+02  0.20723521857E+02  0.10814016950E+03  0.00000000000E+00 0. -1.
          1    1    1    2  501    0  0.10203141058E+03  0.73514752505E+02 -0.19047051354E+04  0.19088521369E+04  0.00000000000E+00 0.  1.
<scales pt_clust_3="95.00103" pt_clust_4="14000.00000" pt_clust_5="138.51769" pt_clust_6="126.34922"></scales>
<clustering>
<clus scale="   95.001">  1  3  2 -1</clus>
<clus scale="  126.349">  2  6  1 -1</clus>
<clus scale="  138.518">  1  5  2 -1</clus>
<clus scale="   95.001">  1  3  2 -1</clus>
</clustering>
</event>
<event>
 6    0  0.2572175E+002  0.1615555E+03  0.7546771E-02  0.1186952E+00
         -1   -1    0    0    0  501 -0.00000000000E+00  0.00000000000E+00  0.40871607479E+03  0.40871607479E+03  0.00000000000E+00 0. -1.
         21   -1    0    0  504  502  0.00000000000E+00 -0.00000000000E+00 -0.23405499440E+03  0.23405499440E+03  0.00000000000E+00 0. -1.
         21    1    1    2  503  505 -0.19953381203E+02  0.37549093992E+02  0.80535026051E+02  0.91071193591E+02  0.00000000000E+00 0.  1.
         21    1    1    2  504  501  0.10330059436E+03 -0.17671108403E+03 -0.69355494697E+02  0.21612034763E+03  0.00000000000E+00 0. -1.
         21    1    1    2  505  502 -0.67965972328E+02  0.11267029296E+03 -0.33864236445E+02  0.13587036035E+03  0.00000000000E+00 0.  1.
         -1    1    1    2    0  503 -0.15381240827E+02  0.26491697074E+02  0.19734578548E+03  0.19970916762E+03  0.00000000000E+00 0. -1.
<scales pt_clust_3="55.01967" pt_clust_4="161.55554" pt_clust_5="14000.00000" pt_clust_6="30.63319"></scales>
<clustering>
<clus scale="   30.633">  1  6  2 -1</clus>
<clus scale="   55.020">  1  3  2 -1</clus>
<clus scale="  161.556">  1  4  2 -1</clus>
<clus scale="  161.556">  2  3  1 -1</clus>
</clustering>
</event>
<event>
 6    0  0.2572175E+002  0.1273406E+03  0.7546771E-02  0.1231456E+00
          3   -1    0    0  504    0 -0.00000000000E+00  0.00000000000E+00  0.15753754942E+04  0.15753754942E+04  0.00000000000E+00 0.  1.
         21   -1    0    0  503  502  0.00000000000E+00 -0.00000000000E+00 -0.70447419584E+02  0.70447419584E+02  0.00000000000E+00 0. -1.
         21    1    1    2  503  505  0.10019448801E+03 -0.74879960460E+02  0.15715381168E+02  0.12606711352E+03  0.00000000000E+00 0. -1.
         21    1    1    2  504  502 -0.10345068520E+03  0.10861934483E+03  0.64445774753E+03  0.66168421070E+03  0.00000000000E+00 0.  1.
         21    1    1    2  505  501  0.44083813544E+02 -0.26135309592E+02  0.10194678949E+03  0.11410339570E+03  0.00000000000E+00 0.  1.
          3    1    1    2  501    0 -0.40827616359E+02 -0.76040747785E+01  0.74280815643E+03  0.74396819386E+03  0.00000000000E+00 0.  1.
<scales pt_clust_3="127.34061" pt_clust_4="14000.00000" pt_clust_5="47.32588" pt_clust_6="41.52970"></scales>
<clustering>
<clus scale="   41.530">  1  6  2 -1</clus>
<clus scale="   47.326">  1  5  2 -1</clus>
<clus scale="  127.341">  2  3  1 -1</clus>
<clus scale="  127.341">  2  3  1 -1</clus>
</clustering>
</event>
<event>
 6    0  0.2572175E+002  0.1310947E+03  0.7546771E-02  0.1225840E+00
          2   -1    0    0  503    0 -0.00000000000E+00  0.00000000000E+00  0.14392631732E+04  0.14392631732E+04  0.00000000000E+00 0. -1.
         21   -1    0    0  504  502  0.00000000000E+00 -0.00000000000E+00 -0.39919259510E+02  0.39919259510E+02  0.00000000000E+00 0.  1.
         21    1    1    2  503  505 -0.74843841684E+02 -0.21004630725E+02  0.90314131148E+02  0.11916139238E+03  0.00000000000E+00 0.  1.
         21    1    1    2  504  501  0.11838520933E+03 -0.39594594205E+01  0.56142774836E+03  0.57378728788E+03  0.00000000000E+00 0. -1.
         21    1    1    2  505  502 -0.34274261794E+02 -0.35541709438E+02  0.15750417181E+02  0.51826766952E+02  0.00000000000E+00 0. -1.
          2    1    1    2  501    0 -0.92671058494E+01  0.60505799584E+02  0.73185161701E+03  0.73440698550E+03  0.00000000000E+00 0. -1.
<scales pt_clust_3="42.79268" pt_clust_4="119.59436" pt_clust_5="42.79268" pt_clust_6="61.21136"></scales>
<clustering>
<clus scale="   42.793">  3  5 -1 -1</clus>
<clus scale="   61.211">  1  6  2 -1</clus>
<clus scale="  119.594">  1  4  2 -1</clus>
<clus scale="  131.095">  2  3  1 -1</clus>
</clustering>
</event>
<event>
 6    0  0.2572175E+002  0.9715760E+02  0.7546771E-02  0.1286389E+00
          2   -1    0    0  504    0 -0.00000000000E+00  0.00000000000E+00  0.50314933566E+04  0.50314933566E+04  0.00000000000E+00 0.  1.
         21   -1    0    0  503  502  0.00000000000E+00 -0.00000000000E+00 -0.27828445555E+02  0.27828445555E+02  0.00000000000E+00 0. -1.
         21    1    1    2  503  501 -0.32151211657E+01  0.90235794688E+02  0.55407773350E+02  0.10593798655E+03  0.00000000000E+00 0. -1.
         21    1    1    2  504  505 -0.22379860389E+02 -0.36272693454E+02  0.33731700833E+03  0.33999901552E+03  0.00000000000E+00 0. -1.
         21    1    1    2  505  502 -0.44437571922E+02 -0.99907056814E+01  0.65555218143E+03  0.65713253958E+03  0.00000000000E+00 0. -1.
          2    1    1    2  501    0  0.70032553477E+02 -0.43972395553E+02  0.39553879480E+04  0.39562522605E+04  0.00000000000E+00 0.  1.
<scales pt_clust_3="86.96184" pt_clust_4="41.91250" pt_clust_5="41.91250" pt_clust_6="82.69299"></scales>
<clustering>
<clus scale="   41.913">  4  5 -1 -1</clus>
<clus scale="   82.693">  1  6  2 -1</clus>
<clus scale="   86.962">  2  3  1 -1</clus>
<clus scale="   86.962">  2  3  1 -1</clus>
</clustering>
</event>
<event>
 6    0  0.2572175E+002  0.9350537E+02  0.7546771E-02  0.1294578E+00
          2   -1    0    0  503    0 -0.00000000000E+00  0.00000000000E+00  0.82094885861E+02  0.82094885861E+02  0.00000000000E+00 0. -1.
         21   -1    0    0  505  502  0.00000000000E+00 -0.00000000000E+00 -0.11870210851E+04  0.11870210851E+04  0.00000000000E+00 0. -1.
         21    1    1    2  503  504  0.30372137491E+02 -0.11951972539E+01  0.30799749293E+02  0.43272621700E+02  0.00000000000E+00 0. -1.
         21    1    1    2  504  502 -0.40389192801E+02 -0.16610107113E+02 -0.11179826990E+03  0.12002514614E+03  0.00000000000E+00 0. -1.
         21    1    1    2  505  501 -0.92252484140E+02 -0.10646965948E+02 -0.99004142540E+03  0.99438719960E+03  0.00000000000E+00 0. -1.
          2    1    1    2  501    0  0.10226953945E+03  0.28452270315E+02 -0.33886253213E+02  0.11143100351E+03  0.00000000000E+00 0. -1.
<scales pt_clust_3="30.39564" pt_clust_4="41.16471" pt_clust_5="14000.00000" pt_clust_6="93.50537"></scales>
<clustering>
<clus scale="   30.396">  1  3  2 -1</clus>
<clus scale="   41.165">  1  4  2 -1</clus>
<clus scale="   93.505">  1  6  2 -1</clus>
<clus scale="   93.505">  2  3  1 -1</clus>
</clustering>
</event>
<event>
 6    0  0.2572175E+002  0.7686889E+02  0.7546771E-02  0.1338179E+00
         21   -1    0    0  503  502  0.00000000000E+00  0.00000000000E+00  0.77188371369E+03  0.77188371369E+03  0.00000000000E+00 0.  1.
         -3   -1    0    0    0  501 -0.00000000000E+00 -0.00000000000E+00 -0.27479436324E+02  0.27479436324E+02  0.00000000000E+00 0. -1.
         21    1    1    2  503  501 -0.62747192858E+02  0.10153607393E+03  0.37680433456E+03  0.39525724669E+03  0.00000000000E+00 0.  1.
         21    1    1    2  504  505  0.19448210000E+02 -0.46348542179E+02  0.19786809367E+03  0.20415240074E+03  0.00000000000E+00 0.  1.
         21    1    1    2  505  502  0.43413007951E+02 -0.72707208061E+00  0.11419049114E+03  0.12216663276E+03  0.00000000000E+00 0. -1.
         -3    1    1    2    0  504 -0.11402509316E+00 -0.54460459667E+02  0.55541357995E+02  0.77786869822E+02  0.00000000000E+00 0. -1.
<scales pt_clust_3="14000.00000" pt_clust_4="76.86889" pt_clust_5="43.41910" pt_clust_6="54.70491"></scales>
<clustering>
<clus scale="   43.419">  1  5  2 -1</clus>
<clus scale="   54.705">  2  6  1 -1</clus>
<clus scale="   76.869">  1  4  2 -1</clus>
<clus scale="   43.419">  1  3  2 -1</clus>
</clustering>
</event>
<event>
 6    0  0.2572175E+002  0.9882235E+02  0.7546771E-02  0.1282792E+00
         21   -1    0    0  504  502  0.00000000000E+00  0.00000000000E+00  0.27813200912E+03  0.27813200912E+03  0.00000000000E+00 0.  1.
          2   -1    0    0  505    0 -0.00000000000E+00 -0.00000000000E+00 -0.15848448193E+03  0.15848448193E+03  0.00000000000E+00 0.  1.
         21    1    1    2  503  502  0.50134103461E+02  0.12615060907E+03  0.14473144585E+03  0.19843033013E+03  0.00000000000E+00 0.  1.
         21    1    1    2  504  501 -0.46061188658E+02 -0.62542614809E+02  0.76007312116E+02  0.10867531119E+03  0.00000000000E+00 0.  1.
         21    1    1    2  505  503  0.13290774161E+02 -0.31059776384E+02 -0.17294429872E+02  0.37953283012E+02  0.00000000000E+00 0.  1.
          2    1    1    2  501    0 -0.17363688964E+02 -0.32548217874E+02 -0.83796800904E+02  0.91557566716E+02  0.00000000000E+00 0.  1.
<scales pt_clust_3="14000.00000" pt_clust_4="98.82235" pt_clust_5="33.78394" pt_clust_6="54.02472"></scales>
<clustering>
<clus scale="   33.784">  2  5  1 -1</clus>
<clus scale="   54.025">  2  6  1 -1</clus>
<clus scale="   98.822">  1  4  2 -1</clus>
<clus scale="   98.822">  1  3  2 -1</clus>
</clustering>
</event>
<event>
 6    0  0.2572175E+002  0.1471736E+03  0.7546771E-02  0.1203990E+00
         -1   -1    0    0    0  501 -0.00000000000E+00  0.00000000000E+00  0.12386125363E+04  0.12386125363E+04  0.00000000000E+00 0.  1.
         21   -1    0    0  504  502  0.00000000000E+00 -0.00000000000E+00 -0.15028482519E+03  0.15028482519E+03  0.00000000000E+00 0.  1.
         21    1    1    2  503  502 -0.18724650312E+02 -0.44806324886E+02  0.19723961690E+02  0.52414253251E+02  0.00000000000E+00 0.  1.
         21    1    1    2  504  505  0.39416535834E+02 -0.10305331026E+03 -0.89777698032E+02  0.14224515147E+03  0.00000000000E+00 0.  1.
         21    1    1    2  505  501 -0.66616463119E+02 -0.49172233637E+02  0.24144897763E+03  0.25525138691E+03  0.00000000000E+00 0. -1.
         -1    1    1    2    0  503  0.45924577597E+02  0.19703186879E+03  0.91693246986E+03  0.93898656989E+03  0.00000000000E+00 0.  1.
<scales pt_clust_3="48.56150" pt_clust_4="14000.00000" pt_clust_5="84.95590" pt_clust_6="147.17357"></scales>
<clustering>
<clus scale="   48.561">  2  3  1 -1</clus>
<clus scale="   84.956">  1  5  2 -1</clus>
<clus scale="  147.174">  1  6  2 -1</clus>
<clus scale="   48.561">  2  3  1 -1</clus>
</clustering>
</event>
<event>
 6    0  0.2572175E+002  0.1281333E+03  0.7546771E-02  0.1230252E+00
         21   -1    0    0  504  502  0.00000000000E+00  0.00000000000E+00  0.88550331905E+03  0.88550331905E+03  0.00000000000E+00 0. -1.
          2   -1    0    0  505    0 -0.00000000000E+00 -0.00000000000E+00 -0.79984811894E+03  0.79984811894E+03  0.00000000000E+00 0. -1.
         21    1    1    2  503  502 -0.28356094092E+02  0.95027889810E+02  0.66690938926E+03  0.67424216821E+03  0.00000000000E+00 0. -1.
         21    1    1    2  504  501  0.17630766755E+02  0.50216609397E+02  0.13435631956E+03  0.14451357169E+03  0.00000000000E+00 0. -1.
         21    1    1    2  505  503 -0.66412329855E+02 -0.91933502346E+02  0.28226288066E+02  0.11687210851E+03  0.00000000000E+00 0.  1.
          2    1    1    2  501    0  0.77137657192E+02 -0.53310996861E+02 -0.74383679677E+03  0.74972358958E+03  0.00000000000E+00 0. -1.
<scales pt_clust_3="14000.00000" pt_clust_4="53.22172" pt_clust_5="128.13327" pt_clust_6="93.71196"></scales>
<clustering>
<clus scale="   53.222">  1  4  2 -1</clus>
<clus scale="   93.712">  2  6  1 -1</clus>
<clus scale="  128.133">  2  5  1 -1</clus>
<clus scale="   53.222">  1  3  2 -1</clus>
</clustering>
</event>
<event>
 6    0  0.2572175E+002  0.1065727E+03  0.7546771E-02  0.1267052E+00
          1   -1    0    0  504    0 -0.00000000000E+00  0.00000000000E+00  0.10652897975E+04  0.10652897975E+04  0.00000000000E+00 0.  1.
         21   -1    0    0  501  502  0.00000000000E+00 -0.00000000000E+00 -0.82401124598E+02  0.82401124598E+02  0.00000000000E+00 0. -1.
         21    1    1    2  503  502  0.19376732376E+02  0.50199993410E+02  0.20364433395E+02  0.57534400522E+02  0.00000000000E+00 0. -1.
         21    1    1    2  504  505 -0.56348386803E+01 -0.10184905187E+03  0.89759817268E+03  0.90337559208E+03  0.00000000000E+00 0.  1.
         21    1    1    2  505  503  0.36467607217E+02  0.51128994170E+02 -0.37190056519E+02  0.72987401138E+02  0.00000000000E+00 0. -1.
          1    1    1    2  501    0 -0.50209500912E+02  0.52006429253E+00  0.10211612336E+03  0.11379352837E+03  0.00000000000E+00 0.  1.
<scales pt_clust_3="53.12843" pt_clust_4="106.57273" pt_clust_5="14000.00000" pt_clust_6="50.21219"></scales>
<clustering>
<clus scale="   50.212">  1  6  2 -1</clus>
<clus scale="   53.128">  2  3  1 -1</clus>
<clus scale="  106.573">  1  4  2 -1</clus>
<clus scale="   53.128">  2  3  1 -1</clus>
</clustering>
</event>
<event>
 6    0  0.2572175E+002  0.1394071E+03  0.7546771E-02  0.1214129E+00
          2   -1    0    0  504    0 -0.00000000000E+00  0.00000000000E+00  0.34886668801E+04  0.34886668801E+04  0.00000000000E+00 0. -1.
         21   -1    0    0  505  502  0.00000000000E+00 -0.00000000000E+00 -0.22804994391E+03  0.22804994391E+03  0.00000000000E+00 0. -1.
         21    1    1    2  503  502  0.41865919513E+02  0.54117086816E+02 -0.24475864952E+02  0.72666926915E+02  0.00000000000E+00 0. -1.
         21    1    1    2  504  503  0.26205543365E+02  0.38945571863E+02 -0.70775320729E+02  0.84927228231E+02  0.00000000000E+00 0. -1.
         21    1    1    2  505  501 -0.22846998198E+02  0.29286912337E+02 -0.96960101710E+02  0.10383144940E+03  0.00000000000E+00 0. -1.
          2    1    1    2  501    0 -0.45224464679E+02 -0.12234957102E+03  0.34528282236E+04  0.34552912195E+04  0.00000000000E+00 0. -1.
<scales pt_clust_3="44.27018" pt_clust_4="44.27018" pt_clust_5="37.14443" pt_clust_6="130.25205"></scales>
<clustering>
<clus scale="   37.144">  2  5  1 -1</clus>
<clus scale="   44.270">  3  4 -1 -1</clus>
<clus scale="  130.252">  1  6  2 -1</clus>
<clus scale="   37.144">  2  3  1 -1</clus>
</clustering>
</event>
<event>
 6    0  0.2572175E+002  0.1072607E+03  0.7546771E-02  0.1265728E+00
         21   -1    0    0  504  502  0.00000000000E+00  0.00000000000E+00  0.69164442132E+03  0.69164442132E+03  0.00000000000E+00 0.  1.
          2   -1    0    0  503    0 -0.00000000000E+00 -0.00000000000E+00 -0.60630073609E+03  0.60630073609E+03  0.00000000000E+00 0.  1.
         21    1    1    2  503  505  0.36436951467E+01 -0.13958599531E+03 -0.34808752630E+03  0.37504993343E+03  0.00000000000E+00 0.  1.
         21    1    1    2  504  501 -0.47968007883E+02  0.62364046543E+02  0.63168043030E+03  0.63656136398E+03  0.00000000000E+00 0.  1.
         21    1    1    2  505  502 -0.71085869517E-01  0.33747199237E+02  0.32808612305E+02  0.47066798817E+02  0.00000000000E+00 0.  1.
          2    1    1    2  501    0  0.44395398606E+02  0.43474749525E+02 -0.23105783108E+03  0.23926706118E+03  0.00000000000E+00 0.  1.
<scales pt_clust_3="14000.00000" pt_clust_4="107.26067" pt_clust_5="33.74727" pt_clust_6="62.28557"></scales>
<clustering>
<clus scale="   33.747">  1  5  2 -1</clus>
<clus scale="   62.286">  2  6  1 -1</clus>
<clus scale="  107.261">  1  4  2 -1</clus>
<clus scale="   33.747">  1  3  2 -1</clus>
</clustering>
</event>
<event>
 6    0  0.2572175E+002  0.1131615E+03  0.7546771E-02  0.1254825E+00
          2   -1    0    0  503    0 -0.00000000000E+00  0.00000000000E+00  0.28034272952E+03  0.28034272952E+03  0.00000000000E+00 0.  1.
         21   -1    0    0  505  502  0.00000000000E+00 -0.00000000000E+00 -0.66936732334E+03  0.66936732334E+03  0.00000000000E+00 0.  1.
         21    1    1    2  503  504  0.18150443851E+02 -0.57386290658E+02 -0.24554722632E+03  0.25281626791E+03  0.00000000000E+00 0.  1.
         21    1    1    2  504  502  0.42516688242E+02 -0.39249310458E+02 -0.33149637487E+03  0.33650857895E+03  0.00000000000E+00 0.  1.
         21    1    1    2  505  501 -0.70543908204E+02  0.51246322446E+02 -0.61422581614E+02  0.10665534249E+03  0.00000000000E+00 0. -1.
          2    1    1    2  501    0  0.98767761118E+01  0.45389278670E+02  0.24944158899E+03  0.25372986352E+03  0.00000000000E+00 0.  1.
<scales pt_clust_3="35.42726" pt_clust_4="35.42726" pt_clust_5="107.23807" pt_clust_6="46.45145"></scales>
<clustering>
<clus scale="   35.427">  3  4 -1 -1</clus>
<clus scale="   46.451">  1  6  2 -1</clus>
<clus scale="  107.238">  1  5  2 -1</clus>
<clus scale="  113.161">  2  3  1 -1</clus>
</clustering>
</event>
<event>
 6    0  0.2572175E+002  0.7207495E+02  0.7546771E-02  0.1353176E+00
         21   -1    0    0  505  502  0.00000000000E+00  0.00000000000E+00  0.88305403589E+02  0.88305403589E+02  0.00000000000E+00 0.  1.
          2   -1    0    0  504    0 -0.00000000000E+00 -0.00000000000E+00 -0.78298804301E+03  0.78298804301E+03  0.00000000000E+00 0.  1.
         21    1    1    2  503  501  0.37818646291E+02  0.78804273320E+02 -0.36643856744E+03  0.37671950734E+03  0.00000000000E+00 0.  1.
         21    1    1    2  504  502 -0.50039942254E+02 -0.56217850925E+02  0.40279337128E+02  0.85363151201E+02  0.00000000000E+00 0.  1.
         21    1    1    2  505  503 -0.14715839484E+02  0.44659806720E+02 -0.16533447177E+02  0.49843847600E+02  0.00000000000E+00 0.  1.
          2    1    1    2  501    0  0.26937135447E+02 -0.67246229115E+02 -0.35198996193E+03  0.35936694046E+03  0.00000000000E+00 0.  1.
<scales pt_clust_3="72.07495" pt_clust_4="65.21377" pt_clust_5="47.02185" pt_clust_6="14000.00000"></scales>
<clustering>
<clus scale="   47.022">  1  5  2 -1</clus>
<clus scale="   65.214">  1  4  2 -1</clus>
<clus scale="   72.075">  1  3  2 -1</clus>
<clus scale="   47.022">  1  3  2 -1</clus>
</clustering>
</event>
<event>
 6    0  0.2572175E+002  0.1426746E+03  0.7546771E-02  0.1209775E+00
          1   -1    0    0  503    0 -0.00000000000E+00  0.00000000000E+00  0.80502367301E+02  0.80502367301E+02  0.00000000000E+00 0.  1.
         21   -1    0    0  505  502  0.00000000000E+00 -0.00000000000E+00 -0.14553014819E+04  0.14553014819E+04  0.00000000000E+00 0. -1.
         21    1    1    2  503  504 -0.69754088586E+02 -0.51821641237E+02 -0.82711816765E+02  0.11996816247E+03  0.00000000000E+00 0.  1.
         21    1    1    2  504  502  0.12144424446E+03  0.98703241143E+02 -0.13235225539E+04  0.13327426552E+04  0.00000000000E+00 0. -1.
         21    1    1    2  505  501 -0.28507224152E+02 -0.23646485014E+02 -0.85757610009E+00  0.37047989407E+02  0.00000000000E+00 0.  1.
          1    1    1    2  501    0 -0.23182931717E+02 -0.23235114893E+02  0.32292832210E+02  0.46045042070E+02  0.00000000000E+00 0.  1.
<scales pt_clust_3="14000.00000" pt_clust_4="142.67457" pt_clust_5="30.45339" pt_clust_6="76.91734"></scales>
<clustering>
<clus scale="   30.453">  5  6 -1 -1</clus>
<clus scale="   76.917">  1  5  2 -1</clus>
<clus scale="  142.675">  2  4  1 -1</clus>
<clus scale="  142.675">  2  3  1 -1</clus>
</clustering>
</event>
<event>
 6    0  0.2572175E+002  0.1232385E+03  0.7546771E-02  0.1237848E+00
         21   -1    0    0  505  502  0.00000000000E+00  0.00000000000E+00  0.49878670937E+03  0.49878670937E+03  0.00000000000E+00 0. -1.
         -1   -1    0    0    0  501 -0.00000000000E+00 -0.00000000000E+00 -0.72907968326E+03  0.72907968326E+03  0.00000000000E+00 0.  1.
         21    1    1    2  503  502  0.41243677447E+02 -0.11432249591E+03  0.28546411222E+03  0.31025865558E+03  0.00000000000E+00 0. -1.
         21    1    1    2  504  503 -0.33854062231E+02 -0.47072933002E+02  0.12060981169E+03  0.13382333589E+03  0.00000000000E+00 0. -1.
         21    1    1    2  505  501  0.33145979302E+02  0.76210413349E+02  0.45958922503E+02  0.94967918816E+02  0.00000000000E+00 0. -1.
         -1    1    1    2    0  504 -0.40535594519E+02  0.85185015558E+02 -0.68232582030E+03  0.68881648234E+03  0.00000000000E+00 0.  1.
<scales pt_clust_3="54.42934" pt_clust_4="54.42934" pt_clust_5="83.10646" pt_clust_6="94.75249"></scales>
<clustering>
<clus scale="   54.429">  3  4 -1 -1</clus>
<clus scale="   83.106">  1  5  2 -1</clus>
<clus scale="   94.752">  2  6  1 -1</clus>
<clus scale="   83.106">  1  3  2 -1</clus>
</clustering>
</event>
<event>
 6    0  0.2572175E+002  0.1870177E+03  0.7546771E-02  0.1161179E+00
          2   -1    0    0  503    0 -0.00000000000E+00  0.00000000000E+00  0.11663675730E+04  0.11663675730E+04  0.00000000000E+00 0. -1.
         21   -1    0    0  505  502  0.00000000000E+00 -0.00000000000E+00 -0.10726815522E+03  0.10726815522E+03  0.00000000000E+00 0. -1.
         21    1    1    2  503  504  0.21865314060E+02 -0.20184479300E+03  0.45686791312E+03  0.49994769972E+03  0.00000000000E+00 0. -1.
         21    1    1    2  504  502  0.27867989853E+02 -0.30541465101E+02  0.39482456500E+02  0.57168787989E+02  0.00000000000E+00 0. -1.
         21    1    1    2  505  501 -0.14099679564E+02  0.15408855278E+03  0.77856398283E+01  0.15492804539E+03  0.00000000000E+00 0. -1.
          2    1    1    2  501    0 -0.35633624349E+02  0.78297705324E+02  0.55496340833E+03  0.56159119511E+03  0.00000000000E+00 0. -1.
<scales pt_clust_3="39.18078" pt_clust_4="39.18078" pt_clust_5="165.64208" pt_clust_6="86.02491"></scales>
<clustering>
<clus scale="   39.181">  3  4 -1 -1</clus>
<clus scale="   86.025">  1  6  2 -1</clus>
<clus scale="  165.642">  2  5  1 -1</clus>
<clus scale="  165.642">  2  3  1 -1</clus>
</clustering>
</event>
<event>
 6    0  0.2572175E+002  0.1143373E+03  0.7546771E-02  0.1252742E+00
         21   -1    0    0  503  502  0.00000000000E+00  0.00000000000E+00  0.47185006859E+03  0.47185006859E+03  0.00000000000E+00 0. -1.
          2   -1    0    0  505    0 -0.00000000000E+00 -0.00000000000E+00 -0.39100923951E+03  0.39100923951E+03  0.00000000000E+00 0.  1.
         21    1    1    2  503  501  0.35576918566E+02 -0.95483678496E+02  0.36131758384E+03  0.37541077020E+03  0.00000000000E+00 0. -1.
         21    1    1    2  504  502 -0.40310426524E+02 -0.19788254325E+02  0.82429510449E+02  0.93867617892E+02  0.00000000000E+00 0. -1.
         21    1    1    2  505  504  0.32563591156E+02  0.36635951624E+01 -0.46266504542E+02  0.56695668627E+02  0.00000000000E+00 0. -1.
          2    1    1    2  501    0 -0.27830083198E+02  0.11160833766E+03 -0.31663976066E+03  0.33688525138E+03  0.00000000000E+00 0.  1.
<scales pt_clust_3="114.33732" pt_clust_4="44.38634" pt_clust_5="32.76903" pt_clust_6="14000.00000"></scales>
<clustering>
<clus scale="   32.769">  2  5  1 -1</clus>
<clus scale="   44.386">  1  4  2 -1</clus>
<clus scale="  114.337">  1  3  2 -1</clus>
<clus scale="   44.386">  1  3  2 -1</clus>
</clustering>
</event>
<event>
 6    0  0.2572175E+002  0.1908479E+03  0.7546771E-02  0.1157699E+00
         21   -1    0    0  504  502  0.00000000000E+00  0.00000000000E+00  0.20854416785E+04  0.20854416785E+04  0.00000000000E+00 0.  1.
          2   -1    0    0  503    0 -0.00000000000E+00 -0.00000000000E+00 -0.71070459905E+03  0.71070459905E+03  0.00000000000E+00 0.  1.
         21    1    1    2  503  505 -0.74036441473E+02 -0.14404572193E+02 -0.58425526235E+03  0.58910363940E+03  0.00000000000E+00 0.  1.
         21    1    1    2  504  501  0.19126386432E+03 -0.60983709429E+02  0.16184846290E+04  0.16308872962E+04  0.00000000000E+00 0.  1.
         21    1    1    2  505  502 -0.10379510449E+03  0.16202763051E+03  0.41734969064E+03  0.45957278100E+03  0.00000000000E+00 0.  1.
          2    1    1    2  501    0 -0.13432318354E+02 -0.86639348885E+02 -0.76841977857E+02  0.11658256093E+03  0.00000000000E+00 0.  1.
<scales pt_clust_3="75.42471" pt_clust_4="190.84788" pt_clust_5="14000.00000" pt_clust_6="121.00930"></scales>
<clustering>
<clus scale="   75.425">  2  3  1 -1</clus>
<clus scale="  121.009">  2  6  1 -1</clus>
<clus scale="  190.848">  1  4  2 -1</clus>
<clus scale="  190.848">  1  3  2 -1</clus>
</clustering>
</event>
<event>
 6    0  0.2572175E+002  0.1355400E+03  0.7546771E-02  0.1219459E+00
         -2   -1    0    0    0  501 -0.00000000000E+00  0.00000000000E+00  0.15197925899E+03  0.15197925899E+03  0.00000000000E+00 0.  1.
         21   -1    0    0  503  502  0.00000000000E+00 -0.00000000000E+00 -0.25283250454E+04  0.25283250454E+04  0.00000000000E+00 0.  1.
         21    1    1    2  503  504  0.72885229944E+02  0.74774044139E+02 -0.17283635136E+04  0.17315149002E+04  0.00000000000E+00 0.  1.
         21    1    1    2  504  505 -0.57188423796E+01 -0.58511941889E+02 -0.26627928433E+03  0.27269215200E+03  0.00000000000E+00 0. -1.
         21    1    1    2  505  501 -0.10454160279E+03 -0.64474273180E+02 -0.51503222039E+03  0.52947527483E+03  0.00000000000E+00 0. -1.
         -2    1    1    2    0  502  0.37375215223E+02  0.48212170930E+02  0.13332923196E+03  0.14662197732E+03  0.00000000000E+00 0.  1.
<scales pt_clust_3="112.37952" pt_clust_4="52.42532" pt_clust_5="52.42532" pt_clust_6="61.00262"></scales>
<clustering>
<clus scale="   52.425">  4  5 -1 -1</clus>
<clus scale="   61.003">  1  6  2 -1</clus>
<clus scale="  112.380">  2  3  1 -1</clus>
<clus scale="  112.380">  2  3  1 -1</clus>
</clustering>
</event>
<event>
 6    0  0.2572175E+002  0.1961961E+03  0.7546771E-02  0.1152989E+00
          2   -1    0    0  504    0 -0.00000000000E+00  0.00000000000E+00  0.31876990929E+04  0.31876990929E+04  0.00000000000E+00 0.  1.
         21   -1    0    0  503  502  0.00000000000E+00 -0.00000000000E+00 -0.11502553814E+03  0.11502553814E+03  0.00000000000E+00 0. -1.
         21    1    1    2  503  501 -0.18278068281E+03 -0.22790737566E+01  0.38301245329E+02  0.18676444410E+03  0.00000000000E+00 0. -1.
         21    1    1    2  504  505  0.30639741208E+02 -0.27390187080E+02  0.11121525495E+04  0.11129116360E+04  0.00000000000E+00 0.  1.
         21    1    1    2  505  502 -0.12020033799E+02  0.47361639369E+02 -0.20742413371E+02  0.53083460783E+02  0.00000000000E+00 0. -1.
          2    1    1    2  501    0  0.16416097541E+03 -0.17692378532E+02  0.19429621733E+04  0.19499650902E+04  0.00000000000E+00 0.  1.
<scales pt_clust_3="196.19609" pt_clust_4="41.09764" pt_clust_5="48.59786" pt_clust_6="14000.00000"></scales>
<clustering>
<clus scale="   41.098">  1  4  2 -1</clus>
<clus scale="   48.598">  2  5  1 -1</clus>
<clus scale="  196.196">  2  3  1 -1</clus>
<clus scale="   48.598">  2  3  1 -1</clus>
</clustering>
</event>
<event>
 6    0  0.2572175E+002  0.1208956E+03  0.7546771E-02  0.1241627E+00
         21   -1    0    0  504  502  0.00000000000E+00  0.00000000000E+00  0.85409683330E+02  0.85409683330E+02  0.00000000000E+00 0.  1.
          2   -1    0    0  505    0 -0.00000000000E+00 -0.00000000000E+00 -0.24675650194E+04  0.24675650194E+04  0.00000000000E+00 0.  1.
         21    1    1    2  503  502 -0.49867435807E+02 -0.37090129526E+01 -0.50209565394E+02  0.70862672742E+02  0.00000000000E+00 0.  1.
         21    1    1    2  504  501  0.74278456492E+02  0.75783492078E+02 -0.23796218724E+02  0.10875057147E+03  0.00000000000E+00 0.  1.
         21    1    1    2  505  503 -0.80140082838E+02 -0.32416653308E+02 -0.26121247591E+02  0.90308315590E+02  0.00000000000E+00 0.  1.
          2    1    1    2  501    0  0.55729062153E+02 -0.39657825817E+02 -0.22820283044E+04  0.22830531430E+04  0.00000000000E+00 0.  1.
<scales pt_clust_3="33.52200" pt_clust_4="112.57477" pt_clust_5="33.52200" pt_clust_6="68.39935"></scales>
<clustering>
<clus scale="   33.522">  3  5 -1 -1</clus>
<clus scale="   68.399">  2  6  1 -1</clus>
<clus scale="  112.575">  1  4  2 -1</clus>
<clus scale="  112.575">  1  3  2 -1</clus>
</clustering>
</event>
<event>
 6    0  0.2572175E+002  0.2228894E+03  0.7546771E-02  0.1131747E+00
          2   -1    0    0  505    0 -0.00000000000E+00  0.00000000000E+00  0.33260591935E+04  0.33260591935E+04  0.00000000000E+00 0. -1.
         21   -1    0    0  503  502  0.00000000000E+00 -0.00000000000E+00 -0.39058541795E+03  0.39058541795E+03  0.00000000000E+00 0. -1.
         21    1    1    2  503  501  0.10387429123E+03 -0.21573752610E+02  0.47043925666E+03  0.48225344933E+03  0.00000000000E+00 0. -1.
         21    1    1    2  504  502 -0.18184120585E+03  0.13170348812E+03 -0.31067882457E+03  0.38331888156E+03  0.00000000000E+00 0. -1.
         21    1    1    2  505  504  0.15120968229E+03 -0.14763286050E+03  0.26470508113E+03  0.33871611933E+03  0.00000000000E+00 0. -1.
          2    1    1    2  501    0 -0.73242767672E+02  0.37503124993E+02  0.25110082623E+04  0.25123561612E+04  0.00000000000E+00 0. -1.
<scales pt_clust_3="61.03412" pt_clust_4="222.88935" pt_clust_5="14000.00000" pt_clust_6="82.28601"></scales>
<clustering>
<clus scale="   82.286">  1  6  2 -1</clus>
<clus scale="   61.034">  1  3  2 -1</clus>
<clus scale="  222.889">  2  4  1 -1</clus>
<clus scale="  222.889">  2  3  1 -1</clus>
</clustering>
</event>
<event>
 6    0  0.2572175E+002  0.1503468E+03  0.7546771E-02  0.1200048E+00
         21   -1    0    0  505  502  0.00000000000E+00  0.00000000000E+00  0.50522483989E+02  0.50522483989E+02  0.00000000000E+00 0. -1.
          1   -1    0    0  503    0 -0.00000000000E+00 -0.00000000000E+00 -0.11670033387E+04  0.11670033387E+04  0.00000000000E+00 0. -1.
         21    1    1    2  503  502 -0.35098494567E+02  0.76585447111E+01 -0.21134103081E+03  0.21437254706E+03  0.00000000000E+00 0. -1.
         21    1    1    2  504  501 -0.34820488881E+02  0.29798072657E+02 -0.21845343537E+02  0.50770174456E+02  0.00000000000E+00 0. -1.
         21    1    1    2  505  504  0.12831984319E+02  0.10161394879E+03 -0.67063483776E+02  0.12242371203E+03  0.00000000000E+00 0. -1.
          1    1    1    2  501    0  0.57086999129E+02 -0.13907056616E+03 -0.81623099657E+03  0.82995938913E+03  0.00000000000E+00 0. -1.
<scales pt_clust_3="35.92433" pt_clust_4="44.55659" pt_clust_5="44.55659" pt_clust_6="135.14964"></scales>
<clustering>
<clus scale="   35.924">  2  3  1 -1</clus>
<clus scale="   44.557">  4  5 -1 -1</clus>
<clus scale="  135.150">  2  6  1 -1</clus>
<clus scale="  150.347">  1  3  2 -1</clus>
</clustering>
</event>
<event>
 6    0  0.2572175E+002  0.1082346E+03  0.7546771E-02  0.1263874E+00
         21   -1    0    0  505  502  0.00000000000E+00  0.00000000000E+00  0.33684129324E+02  0.33684129324E+02  0.00000000000E+00 0.  1.
          3   -1    0    0  504    0 -0.00000000000E+00 -0.00000000000E+00 -0.19141412185E+04  0.19141412185E+04  0.00000000000E+00 0.  1.
         21    1    1    2  503  502 -0.10199107860E+03  0.32121551437E+02 -0.13394111974E+03  0.17138902455E+03  0.00000000000E+00 0.  1.
         21    1    1    2  504  503 -0.32430862965E+02  0.10268542826E+02 -0.12842105649E+03  0.13285018478E+03  0.00000000000E+00 0.  1.
         21    1    1    2  505  501  0.11407261136E+03  0.16326596791E+01 -0.25189226419E+03  0.27652294480E+03  0.00000000000E+00 0.  1.
          3    1    1    2  501    0  0.20349330208E+02 -0.44022753942E+02 -0.13662026487E+04  0.13670631937E+04  0.00000000000E+00 0.  1.
<scales pt_clust_3="108.23461" pt_clust_4="34.01770" pt_clust_5="14000.00000" pt_clust_6="36.43348"></scales>
<clustering>
<clus scale="   34.018">  2  4  1 -1</clus>
<clus scale="   36.433">  2  6  1 -1</clus>
<clus scale="  108.235">  1  3  2 -1</clus>
<clus scale="  108.235">  1  3  2 -1</clus>
</clustering>
</event>
<event>
 6    0  0.2572175E+002  0.2847379E+03  0.7546771E-02  0.1093129E+00
          1   -1    0    0  504    0 -0.00000000000E+00  0.00000000000E+00  0.13127172136E+04  0.13127172136E+04  0.00000000000E+00 0.  1.
         21   -1    0    0  505  502  0.00000000000E+00 -0.00000000000E+00 -0.63627188412E+03  0.63627188412E+03  0.00000000000E+00 0.  1.
         21    1    1    2  503  501 -0.14249216059E+03  0.63555442077E+02  0.16540224957E+03  0.22737901004E+03  0.00000000000E+00 0.  1.
         21    1    1    2  504  502  0.26371268289E+03  0.87720845228E+01 -0.56017748781E+03  0.61920929130E+03  0.00000000000E+00 0.  1.
         21    1    1    2  505  503 -0.94556666638E+02 -0.43089697232E+02  0.16291037309E+03  0.19322907357E+03  0.00000000000E+00 0.  1.
          1    1    1    2  501    0 -0.26663855661E+02 -0.29237829367E+02  0.90831019464E+03  0.90917172280E+03  0.00000000000E+00 0.  1.
<scales pt_clust_3="96.00164" pt_clust_4="261.84863" pt_clust_5="96.00164" pt_clust_6="39.57034"></scales>
<clustering>
<clus scale="   39.570">  1  6  2 -1</clus>
<clus scale="   96.002">  3  5 -1 -1</clus>
<clus scale="  261.849">  2  4  1 -1</clus>
<clus scale="  261.849">  2  3  1 -1</clus>
</clustering>
</event>
<event>
 6    0  0.2572175E+002  0.1660899E+03  0.7546771E-02  0.1181988E+00
         -1   -1    0    0    0  501 -0.00000000000E+00  0.00000000000E+00  0.51736347515E+03  0.51736347515E+03  0.00000000000E+00 0.  1.
         21   -1    0    0  503  502  0.00000000000E+00 -0.00000000000E+00 -0.29430655072E+03  0.29430655072E+03  0.00000000000E+00 0. -1.
         21    1    1    2  503  505  0.12158330845E+03  0.10870871614E+03 -0.39949492315E+01  0.16314424746E+03  0.00000000000E+00 0.  1.
         21    1    1    2  504  502 -0.16511788033E+03 -0.49937693574E+02 -0.16177704339E+03  0.23649418473E+03  0.00000000000E+00 0. -1.
         21    1    1    2  505  501  0.27902614479E+02 -0.92798688326E+02  0.24660857875E+03  0.26496404201E+03  0.00000000000E+00 0.  1.
         -1    1    1    2    0  504  0.15631957395E+02  0.34027665759E+02  0.14222033830E+03  0.14706755168E+03  0.00000000000E+00 0.  1.
<scales pt_clust_3="166.08992" pt_clust_4="14000.00000" pt_clust_5="79.46775" pt_clust_6="37.44650"></scales>
<clustering>
<clus scale="   37.446">  1  6  2 -1</clus>
<clus scale="   79.468">  1  5  2 -1</clus>
<clus scale="  166.090">  1  3  2 -1</clus>
<clus scale="  166.090">  2  3  1 -1</clus>
</clustering>
</event>
<event>
 6    0  0.2572175E+002  0.1590577E+03  0.7546771E-02  0.1189765E+00
          1   -1    0    0  503    0 -0.00000000000E+00  0.00000000000E+00  0.71780752913E+03  0.71780752913E+03  0.00000000000E+00 0.  1.
         21   -1    0    0  504  502  0.00000000000E+00 -0.00000000000E+00 -0.12201579365E+03  0.12201579365E+03  0.00000000000E+00 0.  1.
         21    1    1    2  503  505  0.81054233656E+00  0.65881798885E+02  0.10577300749E+03  0.12461539839E+03  0.00000000000E+00 0.  1.
         21    1    1    2  504  501  0.11576357382E+03 -0.11968209854E+03  0.13419042315E+03  0.21385060066E+03  0.00000000000E+00 0.  1.
         21    1    1    2  505  502 -0.14076545551E+03  0.72311791426E+02  0.14768928220E+02  0.15894033436E+03  0.00000000000E+00 0.  1.
          1    1    1    2  501    0  0.24191339357E+02 -0.18511491769E+02  0.34105937663E+03  0.34241698938E+03  0.00000000000E+00 0.  1.
<scales pt_clust_3="60.77011" pt_clust_4="159.05772" pt_clust_5="14000.00000" pt_clust_6="30.46139"></scales>
<clustering>
<clus scale="   30.461">  1  6  2 -1</clus>
<clus scale="   60.770">  1  3  2 -1</clus>
<clus scale="  159.058">  1  4  2 -1</clus>
<clus scale="  159.058">  2  3  1 -1</clus>
</clustering>
</event>
<event>
 6    0  0.2572175E+002  0.1202661E+03  0.7546771E-02  0.1242659E+00
          2   -1    0    0  504    0 -0.00000000000E+00  0.00000000000E+00  0.19114882297E+04  0.19114882297E+04  0.00000000000E+00 0.  1.
         21   -1    0    0  505  502  0.00000000000E+00 -0.00000000000E+00 -0.10869255810E+04  0.10869255810E+04  0.00000000000E+00 0. -1.
         21    1    1    2  503  502  0.11938914637E+03  0.15001670823E+03 -0.80718775681E+03  0.82964501792E+03  0.00000000000E+00 0. -1.
         21    1    1    2  504  503 -0.33956434910E+02 -0.82511340952E+02  0.24416386530E+03  0.25995606162E+03  0.00000000000E+00 0.  1.
         21    1    1    2  505  501 -0.24699988054E+02 -0.73850696102E+02 -0.25421574923E+03  0.26587527504E+03  0.00000000000E+00 0. -1.
          2    1    1    2  501    0 -0.60732723408E+02  0.63453288207E+01  0.16418022895E+04  0.16429374561E+04  0.00000000000E+00 0.  1.
<scales pt_clust_3="14000.00000" pt_clust_4="120.26612" pt_clust_5="78.16939" pt_clust_6="61.06330"></scales>
<clustering>
<clus scale="   61.063">  1  6  2 -1</clus>
<clus scale="   78.169">  2  5  1 -1</clus>
<clus scale="  120.266">  1  4  2 -1</clus>
<clus scale="   78.169">  2  3  1 -1</clus>
</clustering>
</event>
<event>
 6    0  0.2572175E+002  0.8853432E+02  0.7546771E-02  0.1306440E+00
          2   -1    0    0  505    0 -0.00000000000E+00  0.00000000000E+00  0.39476880782E+03  0.39476880782E+03  0.00000000000E+00 0.  1.
         21   -1    0    0  501  502  0.00000000000E+00 -0.00000000000E+00 -0.37762357255E+03  0.37762357255E+03  0.00000000000E+00 0. -1.
         21    1    1    2  503  504 -0.69078747271E+02 -0.20695737907E+02 -0.11074995524E+03  0.13215800951E+03  0.00000000000E+00 0. -1.
         21    1    1    2  504  502 -0.19906454298E+02  0.60887700423E+02 -0.22949144131E+03  0.23826435029E+03  0.00000000000E+00 0. -1.
         21    1    1    2  505  503  0.63103153305E+02 -0.70435147138E+02  0.86459285538E+02  0.12813401564E+03  0.00000000000E+00 0. -1.
          2    1    1    2  501    0  0.25882048264E+02  0.30243184623E+02  0.27092734627E+03  0.27383600493E+03  0.00000000000E+00 0.  1.
<scales pt_clust_3="88.53432" pt_clust_4="64.81265" pt_clust_5="14000.00000" pt_clust_6="39.80616"></scales>
<clustering>
<clus scale="   39.806">  1  6  2 -1</clus>
<clus scale="   64.813">  2  4  1 -1</clus>
<clus scale="   88.534">  2  3  1 -1</clus>
<clus scale="   64.813">  2  3  1 -1</clus>
</clustering>
</event>
<event>
 6    0  0.2572175E+002  0.2314526E+03  0.7546771E-02  0.1125622E+00
         21   -1    0    0  503  502  0.00000000000E+00  0.00000000000E+00  0.82606892605E+03  0.82606892605E+03  0.00000000000E+00 0. -1.
         -3   -1    0    0    0  501 -0.00000000000E+00 -0.00000000000E+00 -0.26485632319E+03  0.26485632319E+03  0.00000000000E+00 0. -1.
         21    1    1    2  503  504 -0.11199775382E+03  0.18134145685E+02  0.24567691536E+03  0.27060948032E+03  0.00000000000E+00 0. -1.
         21    1    1    2  504  501 -0.14402941377E+03  0.22901378936E+02  0.16796818252E+03  0.22244607330E+03  0.00000000000E+00 0. -1.
         21    1    1    2  505  502  0.60873615754E+02 -0.14705182236E+03  0.29227285250E+03  0.33279611756E+03  0.00000000000E+00 0. -1.
         -3    1    1    2    0  505  0.19515355184E+03  0.10601629774E+03 -0.14470534752E+03  0.26507357806E+03  0.00000000000E+00 0. -1.
<scales pt_clust_3="60.90203" pt_clust_4="60.90203" pt_clust_5="159.15350" pt_clust_6="220.91317"></scales>
<clustering>
<clus scale="   60.902">  3  4 -1 -1</clus>
<clus scale="  159.153">  1  5  2 -1</clus>
<clus scale="  220.913">  2  6  1 -1</clus>
<clus scale="  159.153">  1  3  2 -1</clus>
</clustering>
</event>
<event>
 6    0  0.2572175E+002  0.1082423E+03  0.7546771E-02  0.1263860E+00
          2   -1    0    0  503    0 -0.00000000000E+00  0.00000000000E+00  0.74226656849E+03  0.74226656849E+03  0.00000000000E+00 0.  1.
         21   -1    0    0  505  502  0.00000000000E+00 -0.00000000000E+00 -0.27055655755E+03  0.27055655755E+03  0.00000000000E+00 0. -1.
         21    1    1    2  503  502 -0.30276323627E+02  0.39576321250E+01  0.91453465653E+01  0.31874064508E+02  0.00000000000E+00 0.  1.
         21    1    1    2  504  501  0.16874214381E+02 -0.16525463812E+03 -0.28040895691E+02  0.16846402097E+03  0.00000000000E+00 0. -1.
         21    1    1    2  505  504  0.11584151253E+02  0.55569196888E+02 -0.15147177239E+03  0.16175854238E+03  0.00000000000E+00 0. -1.
          2    1    1    2  501    0  0.18179579934E+01  0.10572780911E+03  0.64207733245E+03  0.65072649819E+03  0.00000000000E+00 0.  1.
<scales pt_clust_3="30.53389" pt_clust_4="14000.00000" pt_clust_5="58.34769" pt_clust_6="108.24232"></scales>
<clustering>
<clus scale="   30.534">  2  3  1 -1</clus>
<clus scale="   58.348">  2  5  1 -1</clus>
<clus scale="  108.242">  1  6  2 -1</clus>
<clus scale="   30.534">  2  3  1 -1</clus>
</clustering>
</event>
<event>
 6    0  0.2572175E+002  0.1123086E+03  0.7546771E-02  0.1256353E+00
         21   -1    0    0  505  502  0.00000000000E+00  0.00000000000E+00  0.23338981859E+03  0.23338981859E+03  0.00000000000E+00 0.  1.
          2   -1    0    0  504    0 -0.00000000000E+00 -0.00000000000E+00 -0.29072856310E+04  0.29072856310E+04  0.00000000000E+00 0.  1.
         21    1    1    2  503  501  0.24144768881E+02 -0.55942363601E+02 -0.80586138012E+02  0.10102793450E+03  0.00000000000E+00 0.  1.
         21    1    1    2  504  502  0.86474808230E+02  0.39720470078E+02  0.16339920267E+03  0.18908968146E+03  0.00000000000E+00 0.  1.
         21    1    1    2  505  503 -0.90946591543E+01 -0.32566743586E+02  0.39548564169E+02  0.52032629578E+02  0.00000000000E+00 0.  1.
          2    1    1    2  501    0 -0.10152491796E+03  0.48788637109E+02 -0.27962574412E+04  0.27985252040E+04  0.00000000000E+00 0.  1.
<scales pt_clust_3="62.37390" pt_clust_4="14000.00000" pt_clust_5="33.81280" pt_clust_6="112.30862"></scales>
<clustering>
<clus scale="   33.813">  1  5  2 -1</clus>
<clus scale="   62.374">  1  3  2 -1</clus>
<clus scale="  112.309">  2  6  1 -1</clus>
<clus scale="   33.813">  1  3  2 -1</clus>
</clustering>
</event>
<event>
 6    0  0.2572175E+002  0.9360517E+02  0.7546771E-02  0.1294349E+00
         21   -1    0    0  504  502  0.00000000000E+00  0.00000000000E+00  0.50728930395E+03  0.50728930395E+03  0.00000000000E+00 0.  1.
          1   -1    0    0  503    0 -0.00000000000E+00 -0.00000000000E+00 -0.83204614531E+03  0.83204614531E+03  0.00000000000E+00 0.  1.
         21    1    1    2  503  502  0.31081039122E+02  0.91462141416E+02  0.40057545117E+03  0.41205830460E+03  0.00000000000E+00 0.  1.
         21    1    1    2  504  505  0.45882199962E+02 -0.93840064847E+02  0.69815824428E+02  0.12563989567E+03  0.00000000000E+00 0.  1.
         21    1    1    2  505  501 -0.47780860310E+02 -0.24652792728E+02 -0.29121906033E+03  0.29614069612E+03  0.00000000000E+00 0.  1.
          1    1    1    2  501    0 -0.29182378775E+02  0.27030716159E+02 -0.50392905663E+03  0.50549655287E+03  0.00000000000E+00 0.  1.
<scales pt_clust_3="14000.00000" pt_clust_4="93.60517" pt_clust_5="73.96406" pt_clust_6="39.77777"></scales>
<clustering>
<clus scale="   39.778">  2  6  1 -1</clus>
<clus scale="   73.964">  2  5  1 -1</clus>
<clus scale="   93.605">  2  4  1 -1</clus>
<clus scale="   93.605">  1  3  2 -1</clus>
</clustering>
</event>
<event>
 6    0  0.2572175E+002  0.2463370E+03  0.7546771E-02  0.1115642E+00
         21   -1    0    0  504  502  0.00000000000E+00  0.00000000000E+00  0.21656302534E+03  0.21656302534E+03  0.00000000000E+00 0.  1.
          2   -1    0    0  505    0 -0.00000000000E+00 -0.00000000000E+00 -0.74559234007E+03  0.74559234007E+03  0.00000000000E+00 0. -1.
         21    1    1    2  503  501  0.16749978825E+02 -0.27615430783E+02  0.11852950774E+02  0.34404451020E+02  0.00000000000E+00 0.  1.
         21    1    1    2  504  503  0.27760087222E+02  0.13980963382E+02  0.50071598252E+02  0.58934325576E+02  0.00000000000E+00 0.  1.
         21    1    1    2  505  502 -0.26933413688E+03 -0.68740784705E+02 -0.57165371259E+02  0.28378522238E+03  0.00000000000E+00 0.  1.
          2    1    1    2  501    0  0.22482407083E+03  0.82375252106E+02 -0.53378849250E+03  0.58503136643E+03  0.00000000000E+00 0. -1.
<scales pt_clust_3="32.94494" pt_clust_4="31.08198" pt_clust_5="14000.00000" pt_clust_6="246.33698"></scales>
<clustering>
<clus scale="   31.082">  1  4  2 -1</clus>
<clus scale="   32.945">  1  3  2 -1</clus>
<clus scale="  246.337">  2  6  1 -1</clus>
<clus scale="   31.082">  1  3  2 -1</clus>
</clustering>
</event>
<event>
 6    0  0.2572175E+002  0.1714129E+03  0.7546771E-02  0.1176382E+00
         21   -1    0    0  505  502  0.00000000000E+00  0.00000000000E+00  0.99483981043E+03  0.99483981043E+03  0.00000000000E+00 0.  1.
          2   -1    0    0  503    0 -0.00000000000E+00 -0.00000000000E+00 -0.12605292132E+04  0.12605292132E+04  0.00000000000E+00 0. -1.
         21    1    1    2  503  502  0.53328595550E+02 -0.10643015468E+02 -0.66692478896E+02  0.86052888522E+02  0.00000000000E+00 0. -1.
         21    1    1    2  504  501 -0.93255586612E+02  0.54003574551E+02  0.50049083521E+03  0.51196100108E+03  0.00000000000E+00 0.  1.
         21    1    1    2  505  504 -0.37709632719E+02  0.44119577586E+02  0.47425799225E+03  0.47779618745E+03  0.00000000000E+00 0.  1.
          2    1    1    2  501    0  0.77636623781E+02 -0.87480136669E+02 -0.11737457514E+04  0.11795589466E+04  0.00000000000E+00 0. -1.
<scales pt_clust_3="54.38026" pt_clust_4="38.16156" pt_clust_5="38.16156" pt_clust_6="163.33525"></scales>
<clustering>
<clus scale="   38.162">  4  5 -1 -1</clus>
<clus scale="   54.380">  2  3  1 -1</clus>
<clus scale="  163.335">  2  6  1 -1</clus>
<clus scale="  171.413">  1  3  2 -1</clus>
</clustering>
</event>
<event>
 6    0  0.2572175E+002  0.6647204E+02  0.7546771E-02  0.1372518E+00
          3   -1    0    0  504    0 -0.00000000000E+00  0.00000000000E+00  0.40773629862E+04  0.40773629862E+04  0.00000000000E+00 0.  1.
         21   -1    0    0  503  502  0.00000000000E+00 -0.00000000000E+00 -0.80465988543E+02  0.80465988543E+02  0.00000000000E+00 0. -1.
         21    1    1    2  503  505  0.51727564284E+01  0.30372413255E+02  0.56461772699E+02  0.64320857211E+02  0.00000000000E+00 0. -1.
         21    1    1    2  504  502 -0.65179945478E+02 -0.86274349634E+02 -0.27576289242E+02  0.11158915909E+03  0.00000000000E+00 0. -1.
         21    1    1    2  505  501  0.64268622520E+02 -0.10368478243E+02  0.15230296771E+03  0.16563259086E+03  0.00000000000E+00 0. -1.
          3    1    1    2  501    0 -0.42614334704E+01  0.66270414622E+02  0.38157085465E+04  0.38162863676E+04  0.00000000000E+00 0.  1.
<scales pt_clust_3="30.80975" pt_clust_4="66.47204" pt_clust_5="65.17831" pt_clust_6="14000.00000"></scales>
<clustering>
<clus scale="   30.810">  2  3  1 -1</clus>
<clus scale="   65.178">  2  5  1 -1</clus>
<clus scale="   66.472">  2  4  1 -1</clus>
<clus scale="   30.810">  2  3  1 -1</clus>
</clustering>
</event>
<event>
 6    0  0.2572175E+002  0.8658932E+02  0.7546771E-02  0.1311328E+00
         21   -1    0    0  501  502  0.00000000000E+00  0.00000000000E+00  0.23561248440E+03  0.23561248440E+03  0.00000000000E+00 0. -1.
          3   -1    0    0  505    0 -0.00000000000E+00 -0.00000000000E+00 -0.45187427153E+03  0.45187427153E+03  0.00000000000E+00 0.  1.
         21    1    1    2  503  504  0.87238083553E+02 -0.44633842045E+02  0.16123922579E+03  0.18868161281E+03  0.00000000000E+00 0. -1.
         21    1    1    2  504  502  0.29323898431E+02  0.13222627270E+02 -0.62360863208E+01  0.32766105410E+02  0.00000000000E+00 0.  1.
         21    1    1    2  505  503 -0.60056233569E+02  0.25805904671E+02  0.21791204349E+02  0.68902485393E+02  0.00000000000E+00 0. -1.
          3    1    1    2  501    0 -0.56505748416E+02  0.56053101033E+01 -0.39305613096E+03  0.39713655232E+03  0.00000000000E+00 0.  1.
<scales pt_clust_3="86.58932" pt_clust_4="32.16720" pt_clust_5="14000.00000" pt_clust_6="56.52750"></scales>
<clustering>
<clus scale="   32.167">  1  4  2 -1</clus>
<clus scale="   56.528">  2  6  1 -1</clus>
<clus scale="   86.589">  1  3  2 -1</clus>
<clus scale="   32.167">  1  3  2 -1</clus>
</clustering>
</event>
<event>
 6    0  0.2572175E+002  0.1224957E+03  0.7546771E-02  0.1239036E+00
         21   -1    0    0  503  502  0.00000000000E+00  0.00000000000E+00  0.28687537230E+03  0.28687537230E+03  0.00000000000E+00 0.  1.
          1   -1    0    0  504    0 -0.00000000000E+00 -0.00000000000E+00 -0.30115335112E+04  0.30115335112E+04  0.00000000000E+00 0.  1.
         21    1    1    2  503  505 -0.32948781130E+02 -0.59743606062E+02 -0.46961300207E+02  0.82826833578E+02  0.00000000000E+00 0. -1.
         21    1    1    2  504  502  0.70065915555E+02  0.11793392732E+03  0.25056879547E+03  0.28566127668E+03  0.00000000000E+00 0.  1.
         21    1    1    2  505  501 -0.54357406692E+02 -0.22503615054E+02 -0.17358901454E+04  0.17368867946E+04  0.00000000000E+00 0.  1.
          1    1    1    2  501    0  0.17240272267E+02 -0.35686706202E+02 -0.11923754888E+04  0.11930339787E+04  0.00000000000E+00 0.  1.
<scales pt_clust_3="14000.00000" pt_clust_4="122.49572" pt_clust_5="68.09392" pt_clust_6="39.63292"></scales>
<clustering>
<clus scale="   39.633">  2  6  1 -1</clus>
<clus scale="   68.094">  2  5  1 -1</clus>
<clus scale="  122.496">  1  4  2 -1</clus>
<clus scale="  122.496">  1  3  2 -1</clus>
</clustering>
</event>
<event>
 6    0  0.2572175E+002  0.1244268E+03  0.7546771E-02  0.1235968E+00
         21   -1    0    0  504  502  0.00000000000E+00  0.00000000000E+00  0.10534542905E+03  0.10534542905E+03  0.00000000000E+00 0.  1.
         -1   -1    0    0    0  501 -0.00000000000E+00 -0.00000000000E+00 -0.91727938592E+03  0.91727938592E+03  0.00000000000E+00 0.  1.
         21    1    1    2  503  502  0.10826207981E+03 -0.60213698249E+01  0.50051011097E+02  0.11942377707E+03  0.00000000000E+00 0.  1.
         21    1    1    2  504  501  0.20844218643E+02  0.48222059297E+02 -0.59988574297E+02  0.79740062076E+02  0.00000000000E+00 0. -1.
         21    1    1    2  505  503 -0.10972300048E+03  0.21679356715E+02 -0.37655068885E+03  0.39280981736E+03  0.00000000000E+00 0. -1.
         -1    1    1    2    0  505 -0.19383297973E+02 -0.63880046187E+02 -0.42544570481E+03  0.43065115846E+03  0.00000000000E+00 0.  1.
<scales pt_clust_3="124.42677" pt_clust_4="52.53426" pt_clust_5="14000.00000" pt_clust_6="65.33326"></scales>
<clustering>
<clus scale="   52.534">  1  4  2 -1</clus>
<clus scale="   65.333">  2  6  1 -1</clus>
<clus scale="  124.427">  1  3  2 -1</clus>
<clus scale="   52.534">  1  3  2 -1</clus>
</clustering>
</event>
<event>
 6    0  0.2572175E+002  0.2160238E+03  0.7546771E-02  0.1136883E+00
          2   -1    0    0  503    0 -0.00000000000E+00  0.00000000000E+00  0.97897310203E+03  0.97897310203E+03  0.00000000000E+00 0. -1.
         21   -1    0    0  505  502  0.00000000000E+00 -0.00000000000E+00 -0.41092455443E+03  0.41092455443E+03  0.00000000000E+00 0. -1.
         21    1    1    2  503  504 -0.36753882989E+02 -0.21281029207E+03  0.80489756293E+03  0.83336615910E+03  0.00000000000E+00 0. -1.
         21    1    1    2  504  502 -0.71693774921E+02  0.46242880197E+01 -0.26241965612E+03  0.27207619763E+03  0.00000000000E+00 0. -1.
         21    1    1    2  505  501 -0.36455192137E+02  0.16999000410E+02 -0.11212704892E+02  0.41757296365E+02  0.00000000000E+00 0.  1.
          2    1    1    2  501    0  0.14490285005E+03  0.19118700364E+03  0.36783345683E+02  0.24269800335E+03  0.00000000000E+00 0. -1.
<scales pt_clust_3="14000.00000" pt_clust_4="98.41907" pt_clust_5="40.22371" pt_clust_6="216.02376"></scales>
<clustering>
<clus scale="   40.224">  2  5  1 -1</clus>
<clus scale="   98.419">  2  4  1 -1</clus>
<clus scale="  216.024">  2  6  1 -1</clus>
<clus scale="   40.224">  2  3  1 -1</clus>
</clustering>
</event>
<event>
 6    0  0.2572175E+002  0.1862623E+03  0.7546771E-02  0.1161876E+00
         21   -1    0    0  504  502  0.00000000000E+00  0.00000000000E+00  0.39973454914E+03  0.39973454914E+03  0.00000000000E+00 0.  1.
         -3   -1    0    0    0  501 -0.00000000000E+00 -0.00000000000E+00 -0.53910116421E+03  0.53910116421E+03  0.00000000000E+00 0.  1.
         21    1    1    2  503  505  0.40276348022E+01 -0.10106581502E+03  0.13684861052E+03  0.17017068786E+03  0.00000000000E+00 0.  1.
         21    1    1    2  504  501 -0.18338962949E+02  0.16246886934E+03 -0.68562376640E+02  0.17729424852E+03  0.00000000000E+00 0.  1.
         21    1    1    2  505  502 -0.33080605863E+01 -0.85801372175E+02  0.18164193721E+03  0.20091443971E+03  0.00000000000E+00 0.  1.
         -3    1    1    2    0  503  0.17619388733E+02  0.24398317854E+02 -0.38929478616E+03  0.39045633725E+03  0.00000000000E+00 0.  1.
<scales pt_clust_3="33.95321" pt_clust_4="182.60765" pt_clust_5="33.95321" pt_clust_6="30.09520"></scales>
<clustering>
<clus scale="   30.095">  2  6  1 -1</clus>
<clus scale="   33.953">  3  5 -1 -1</clus>
<clus scale="  182.608">  2  4  1 -1</clus>
<clus scale="  186.262">  1  3  2 -1</clus>
</clustering>
</event>
<event>
 6    0  0.2572175E+002  0.1556376E+03  0.7546771E-02  0.1193712E+00
          1   -1    0    0  502    0 -0.00000000000E+00  0.00000000000E+00  0.78830279511E+03  0.78830279511E+03  0.00000000000E+00 0.  1.
         21   -1    0    0  504  502  0.00000000000E+00 -0.00000000000E+00 -0.77525595506E+03  0.77525595506E+03  0.00000000000E+00 0.  1.
         21    1    1    2  503  501  0.14286088351E+03  0.39465717068E+02  0.30904528954E+03  0.34274737905E+03  0.00000000000E+00 0.  1.
         21    1    1    2  504  505 -0.40905405542E+02 -0.78350969203E+02 -0.58475595130E+03  0.59139804629E+03  0.00000000000E+00 0.  1.
         21    1    1    2  505  503 -0.17919145610E+02 -0.53194068947E+02 -0.15690535016E+03  0.16664331267E+03  0.00000000000E+00 0.  1.
          1    1    1    2  501    0 -0.84036332357E+02  0.92079321082E+02  0.44566285197E+03  0.46277001216E+03  0.00000000000E+00 0.  1.
<scales pt_clust_3="142.90649" pt_clust_4="49.12998" pt_clust_5="49.12998" pt_clust_6="124.66237"></scales>
<clustering>
<clus scale="   49.130">  4  5 -1 -1</clus>
<clus scale="  124.662">  1  6  2 -1</clus>
<clus scale="  142.906">  1  3  2 -1</clus>
<clus scale="  155.638">  2  3  1 -1</clus>
</clustering>
</event>
<event>
 6    0  0.2572175E+002  0.7692615E+02  0.7546771E-02  0.1338008E+00
         21   -1    0    0  504  502  0.00000000000E+00  0.00000000000E+00  0.23172378205E+03  0.23172378205E+03  0.00000000000E+00 0.  1.
          1   -1    0    0  503    0 -0.00000000000E+00 -0.00000000000E+00 -0.10604039739E+04  0.10604039739E+04  0.00000000000E+00 0.  1.
         21    1    1    2  503  505 -0.42978318246E+02  0.11866937866E+03 -0.57641887436E+03  0.59007480542E+03  0.00000000000E+00 0. -1.
         21    1    1    2  504  501  0.32996653947E+02 -0.28015954802E+01  0.60442931436E+02  0.68920070150E+02  0.00000000000E+00 0. -1.
         21    1    1    2  505  502 -0.11341262301E+02 -0.70328235539E+02  0.15086833679E+03  0.16684106207E+03  0.00000000000E+00 0.  1.
          1    1    1    2  501    0  0.21322926600E+02 -0.45539547636E+02 -0.46357258574E+03  0.46629181834E+03  0.00000000000E+00 0.  1.
<scales pt_clust_3="14000.00000" pt_clust_4="33.11538" pt_clust_5="76.92615" pt_clust_6="50.41945"></scales>
<clustering>
<clus scale="   33.115">  1  4  2 -1</clus>
<clus scale="   50.419">  2  6  1 -1</clus>
<clus scale="   76.926">  1  5  2 -1</clus>
<clus scale="   33.115">  1  3  2 -1</clus>
</clustering>
</event>
<event>
 6    0  0.2572175E+002  0.8465477E+02  0.7546771E-02  0.1316338E+00
          2   -1    0    0  505    0 -0.00000000000E+00  0.00000000000E+00  0.46325431703E+03  0.46325431703E+03  0.00000000000E+00 0. -1.
         21   -1    0    0  504  502  0.00000000000E+00 -0.00000000000E+00 -0.11123401102E+04  0.11123401102E+04  0.00000000000E+00 0. -1.
         21    1    1    2  503  501 -0.13611452348E+02  0.73360575938E+02  0.95439248911E+02  0.12114328694E+03  0.00000000000E+00 0. -1.
         21    1    1    2  504  503 -0.33271549548E+02 -0.30202428743E+01 -0.12483482885E+03  0.12922790864E+03  0.00000000000E+00 0.  1.
         21    1    1    2  505  502  0.66305701210E+02  0.18816631613E+02 -0.96530670108E+03  0.96776419586E+03  0.00000000000E+00 0. -1.
          2    1    1    2  501    0 -0.19422699313E+02 -0.89156964677E+02  0.34561648785E+03  0.35745903580E+03  0.00000000000E+00 0. -1.
<scales pt_clust_3="84.65477" pt_clust_4="33.40835" pt_clust_5="37.21407" pt_clust_6="14000.00000"></scales>
<clustering>
<clus scale="   33.408">  2  4  1 -1</clus>
<clus scale="   37.214">  2  5  1 -1</clus>
<clus scale="   84.655">  2  3  1 -1</clus>
<clus scale="   33.408">  2  3  1 -1</clus>
</clustering>
</event>
<event>
 6    0  0.2572175E+002  0.1382213E+03  0.7546771E-02  0.1215743E+00
         21   -1    0    0  501  502  0.00000000000E+00  0.00000000000E+00  0.55511322801E+02  0.55511322801E+02  0.00000000000E+00 0.  1.
          2   -1    0    0  505    0 -0.00000000000E+00 -0.00000000000E+00 -0.16146639652E+04  0.16146639652E+04  0.00000000000E+00 0.  1.
         21    1    1    2  503  502  0.13898451192E+03  0.42887974155E+02 -0.63961676446E+02  0.15889357739E+03  0.00000000000E+00 0.  1.
         21    1    1    2  504  503 -0.50589090844E+02 -0.33871567456E+02 -0.18184239630E+03  0.19176338620E+03  0.00000000000E+00 0.  1.
         21    1    1    2  505  504 -0.12510404873E+02 -0.34917240743E+02 -0.20923957067E+03  0.21250158085E+03  0.00000000000E+00 0.  1.
          2    1    1    2  501    0 -0.75885016204E+02  0.25900834044E+02 -0.11041089990E+04  0.11070167436E+04  0.00000000000E+00 0.  1.
<scales pt_clust_3="131.65686" pt_clust_4="32.85300" pt_clust_5="32.85300" pt_clust_6="80.18347"></scales>
<clustering>
<clus scale="   32.853">  4  5 -1 -1</clus>
<clus scale="   80.183">  2  6  1 -1</clus>
<clus scale="  131.657">  1  3  2 -1</clus>
<clus scale="  131.657">  1  3  2 -1</clus>
</clustering>
</event>
<event>
 6    0  0.2572175E+002  0.6216434E+02  0.7546771E-02  0.1388967E+00
          2   -1    0    0  502    0 -0.00000000000E+00  0.00000000000E+00  0.17078362439E+04  0.17078362439E+04  0.00000000000E+00 0. -1.
         21   -1    0    0  504  502  0.00000000000E+00 -0.00000000000E+00 -0.54794630143E+02  0.54794630143E+02  0.00000000000E+00 0.  1.
         21    1    1    2  503  505  0.18265188059E+02  0.72240250733E+02  0.86077025342E+02  0.11384869438E+03  0.00000000000E+00 0. -1.
         21    1    1    2  504  503 -0.47307064252E+02 -0.39606982279E+02 -0.49365913779E+01  0.61895406193E+02  0.00000000000E+00 0.  1.
         21    1    1    2  505  501  0.87654419170E+01 -0.72127728614E+02  0.17772187542E+03  0.19200080002E+03  0.00000000000E+00 0. -1.
          2    1    1    2  501    0  0.20276434276E+02  0.39494460160E+02  0.13941793044E+04  0.13948859735E+04  0.00000000000E+00 0. -1.
<scales pt_clust_3="62.16434" pt_clust_4="14000.00000" pt_clust_5="53.04274" pt_clust_6="44.39534"></scales>
<clustering>
<clus scale="   44.395">  1  6  2 -1</clus>
<clus scale="   53.043">  1  5  2 -1</clus>
<clus scale="   62.164">  1  3  2 -1</clus>
<clus scale="   62.164">  2  3  1 -1</clus>
</clustering>
</event>
<event>
 6    0  0.2572175E+002  0.1757897E+03  0.7546771E-02  0.1171941E+00
          2   -1    0    0  504    0 -0.00000000000E+00  0.00000000000E+00  0.23867549998E+04  0.23867549998E+04  0.00000000000E+00 0. -1.
         21   -1    0    0  505  502  0.00000000000E+00 -0.00000000000E+00 -0.44488118542E+03  0.44488118542E+03  0.00000000000E+00 0.  1.
         21    1    1    2  503  501  0.11972498687E+03  0.90521533053E+02  0.68811172479E+03  0.70429110901E+03  0.00000000000E+00 0.  1.
         21    1    1    2  504  502 -0.62128229019E+02  0.57129876397E+02  0.20900642980E+02  0.86951575576E+02  0.00000000000E+00 0. -1.
         21    1    1    2  505  503 -0.10317273175E+03 -0.14343355957E+03 -0.38409753331E+03  0.42278684190E+03  0.00000000000E+00 0.  1.
          2    1    1    2  501    0  0.45575973893E+02 -0.42178498785E+01  0.16169589799E+04  0.16176066587E+04  0.00000000000E+00 0. -1.
<scales pt_clust_3="14000.00000" pt_clust_4="81.87413" pt_clust_5="175.78973" pt_clust_6="45.77073"></scales>
<clustering>
<clus scale="   45.771">  1  6  2 -1</clus>
<clus scale="   81.874">  1  4  2 -1</clus>
<clus scale="  175.790">  2  5  1 -1</clus>
<clus scale="  175.790">  2  3  1 -1</clus>
</clustering>
</event>
<event>
 6    0  0.2572175E+002  0.2333497E+03  0.7546771E-02  0.1124304E+00
         -3   -1    0    0    0  501 -0.00000000000E+00  0.00000000000E+00  0.21750094779E+03  0.21750094779E+03  0.00000000000E+00 0. -1.
         21   -1    0    0  503  502  0.00000000000E+00 -0.00000000000E+00 -0.80359950114E+03  0.80359950114E+03  0.00000000000E+00 0. -1.
         21    1    1    2  503  501 -0.25102915755E+03  0.10258284616E+02 -0.50335875405E+03  0.56257524441E+03  0.00000000000E+00 0. -1.
         21    1    1    2  504  505  0.11394101805E+03 -0.31949995478E+02 -0.97767247754E+02  0.15349850989E+03  0.00000000000E+00 0. -1.
         21    1    1    2  505  502  0.80837143017E+02 -0.29597271464E+02 -0.12138498844E+03  0.14881181938E+03  0.00000000000E+00 0. -1.
         -3    1    1    2    0  504  0.56250996480E+02  0.51288982327E+02  0.13641243689E+03  0.15621487525E+03  0.00000000000E+00 0. -1.
<scales pt_clust_3="229.81479" pt_clust_4="34.51130" pt_clust_5="34.51130" pt_clust_6="76.12315"></scales>
<clustering>
<clus scale="   34.511">  4  5 -1 -1</clus>
<clus scale="   76.123">  1  6  2 -1</clus>
<clus scale="  229.815">  2  3  1 -1</clus>
<clus scale="  229.815">  2  3  1 -1</clus>
</clustering>
</event>
<event>
 6    0  0.2572175E+002  0.2106584E+03  0.7546771E-02  0.1141046E+00
         21   -1    0    0  501  502  0.00000000000E+00  0.00000000000E+00  0.16099107888E+03  0.16099107888E+03  0.00000000000E+00 0.  1.
          1   -1    0    0  505    0 -0.00000000000E+00 -0.00000000000E+00 -0.24549389501E+04  0.24549389501E+04  0.00000000000E+00 0.  1.
         21    1    1    2  503  504 -0.96897460240E+02  0.95022689540E+01  0.95473418266E+01  0.97829252538E+02  0.00000000000E+00 0.  1.
         21    1    1    2  504  502 -0.10423067365E+03 -0.15329842879E+02  0.65897972710E+02  0.12426415501E+03  0.00000000000E+00 0.  1.
         21    1    1    2  505  503 -0.54555870272E+02  0.48266265048E+02 -0.32397601010E+03  0.33206389512E+03  0.00000000000E+00 0.  1.
          1    1    1    2  501    0  0.25568400416E+03 -0.42438691123E+02 -0.20454171756E+04  0.20617727263E+04  0.00000000000E+00 0.  1.
<scales pt_clust_3="53.92900" pt_clust_4="53.92900" pt_clust_5="72.84213" pt_clust_6="203.05160"></scales>
<clustering>
<clus scale="   53.929">  3  4 -1 -1</clus>
<clus scale="   72.842">  2  5  1 -1</clus>
<clus scale="  203.052">  2  6  1 -1</clus>
<clus scale="  210.658">  1  3  2 -1</clus>
</clustering>
</event>
<event>
 6    0  0.2572175E+002  0.1255040E+03  0.7546771E-02  0.1234284E+00
         21   -1    0    0  503  502  0.00000000000E+00  0.00000000000E+00  0.20906891475E+03  0.20906891475E+03  0.00000000000E+00 0.  1.
          2   -1    0    0  502    0 -0.00000000000E+00 -0.00000000000E+00 -0.12804954115E+04  0.12804954115E+04  0.00000000000E+00 0.  1.
         21    1    1    2  503  504  0.40311097877E+02  0.44038134378E+02  0.14338289557E+03  0.15531579647E+03  0.00000000000E+00 0.  1.
         21    1    1    2  504  505 -0.28769805679E+02  0.56816110924E+02 -0.77999824921E+00  0.63689721122E+02  0.00000000000E+00 0. -1.
         21    1    1    2  505  501 -0.12678381820E+02 -0.21212043702E+03 -0.44060755206E+03  0.48917362572E+03  0.00000000000E+00 0.  1.
          2    1    1    2  501    0  0.11370896220E+01  0.11126619172E+03 -0.77342184204E+03  0.78138518295E+03  0.00000000000E+00 0.  1.
<scales pt_clust_3="59.70211" pt_clust_4="80.36567" pt_clust_5="125.50402" pt_clust_6="14000.00000"></scales>
<clustering>
<clus scale="   59.702">  1  3  2 -1</clus>
<clus scale="   80.366">  1  4  2 -1</clus>
<clus scale="  125.504">  1  5  2 -1</clus>
<clus scale="   59.702">  1  3  2 -1</clus>
</clustering>
</event>
<event>
 6    0  0.2572175E+002  0.2545679E+03  0.7546771E-02  0.1110452E+00
          2   -1    0    0  505    0 -0.00000000000E+00  0.00000000000E+00  0.21897415886E+04  0.21897415886E+04  0.00000000000E+00 0. -1.
         21   -1    0    0  504  502  0.00000000000E+00 -0.00000000000E+00 -0.41179994448E+02  0.41179994448E+02  0.00000000000E+00 0.  1.
         21    1    1    2  503  501 -0.19178674475E+03  0.62456481816E+02  0.65963059841E+03  0.68977930814E+03  0.00000000000E+00 0.  1.
         21    1    1    2  504  503 -0.61359188910E+02  0.14704475173E+02  0.11069065438E+03  0.12741111655E+03  0.00000000000E+00 0.  1.
         21    1    1    2  505  502  0.50635765471E+02  0.49884055446E+02  0.22451461019E+03  0.23549779176E+03  0.00000000000E+00 0.  1.
          2    1    1    2  501    0  0.20251016819E+03 -0.12704501244E+03  0.11537257312E+04  0.11782333666E+04  0.00000000000E+00 0. -1.
<scales pt_clust_3="36.96789" pt_clust_4="36.96789" pt_clust_5="71.08023" pt_clust_6="245.83758"></scales>
<clustering>
<clus scale="   36.968">  3  4 -1 -1</clus>
<clus scale="   71.080">  2  5  1 -1</clus>
<clus scale="  245.838">  1  6  2 -1</clus>
<clus scale="   71.080">  2  3  1 -1</clus>
</clustering>
</event>
<event>
 6    0  0.2922488E+002  0.7956216E+02  0.7546771E-02  0.1330299E+00
          2   -1    0    0  503    0 -0.00000000000E+00  0.00000000000E+00  0.35540307368E+04  0.35540307368E+04  0.00000000000E+00 0.  1.
         21   -1    0    0  505  502  0.00000000000E+00 -0.00000000000E+00 -0.12653051012E+04  0.12653051012E+04  0.00000000000E+00 0. -1.
         21    1    1    2  503  504  0.36555505964E+02 -0.51187083899E+02  0.31282068258E+01  0.62977839375E+02  0.00000000000E+00 0. -1.
         21    1    1    2  504  502 -0.44831622493E+02  0.22724935189E+01 -0.17108570997E+02  0.48038961310E+02  0.00000000000E+00 0.  1.
         21    1    1    2  505  501 -0.68556473520E+01  0.12700679172E+03 -0.11989910832E+04  0.12057186001E+04  0.00000000000E+00 0. -1.
          2    1    1    2  501    0  0.15131763881E+02 -0.78092201341E+02  0.35016970829E+04  0.35026004372E+04  0.00000000000E+00 0.  1.
<scales pt_clust_3="62.22858" pt_clust_4="44.88918" pt_clust_5="14000.00000" pt_clust_6="79.56216"></scales>
<clustering>
<clus scale="   44.889">  2  4  1 -1</clus>
<clus scale="   62.229">  2  3  1 -1</clus>
<clus scale="   79.562">  1  6  2 -1</clus>
<clus scale="   44.889">  2  3  1 -1</clus>
</clustering>
</event>
<event>
 6    0  0.2572175E+002  0.8814643E+02  0.7546771E-02  0.1307403E+00
         21   -1    0    0  503  502  0.00000000000E+00  0.00000000000E+00  0.12963387225E+02  0.12963387225E+02  0.00000000000E+00 0. -1.
          1   -1    0    0  504    0 -0.00000000000E+00 -0.00000000000E+00 -0.20917214957E+04  0.20917214957E+04  0.00000000000E+00 0.  1.
         21    1    1    2  503  505 -0.30357692990E+02 -0.82812342152E+01 -0.62137404255E+02  0.69650738484E+02  0.00000000000E+00 0. -1.
         21    1    1    2  504  502  0.83244122257E+02 -0.38878817455E+02 -0.35342215388E+03  0.36516895431E+03  0.00000000000E+00 0. -1.
         21    1    1    2  505  501 -0.21804589270E+02 -0.40672207316E+02 -0.30463446806E+03  0.30811009021E+03  0.00000000000E+00 0. -1.
          1    1    1    2  501    0 -0.31081839998E+02  0.87832258986E+02 -0.13585640822E+04  0.13617550999E+04  0.00000000000E+00 0.  1.
<scales pt_clust_3="31.46694" pt_clust_4="88.14643" pt_clust_5="50.41810" pt_clust_6="14000.00000"></scales>
<clustering>
<clus scale="   31.467">  1  3  2 -1</clus>
<clus scale="   50.418">  1  5  2 -1</clus>
<clus scale="   88.146">  1  4  2 -1</clus>
<clus scale="   31.467">  1  3  2 -1</clus>
</clustering>
</event>
<event>
 6    0  0.2572175E+002  0.1030440E+03  0.7546771E-02  0.1274022E+00
          2   -1    0    0  505    0 -0.00000000000E+00  0.00000000000E+00  0.49691281011E+04  0.49691281011E+04  0.00000000000E+00 0.  1.
         21   -1    0    0  503  502  0.00000000000E+00 -0.00000000000E+00 -0.14935657059E+03  0.14935657059E+03  0.00000000000E+00 0.  1.
         21    1    1    2  503  504  0.15672510231E+01 -0.38648896410E+02 -0.13410670295E+03  0.13957364094E+03  0.00000000000E+00 0.  1.
         21    1    1    2  504  501  0.10790321011E+03 -0.30363414155E+02  0.21986010403E+04  0.22014566937E+04  0.00000000000E+00 0.  1.
         21    1    1    2  505  502 -0.26313769390E+02  0.14841805881E+02  0.12198061420E+02  0.32580459846E+02  0.00000000000E+00 0.  1.
          2    1    1    2  501    0 -0.83156691746E+02  0.54170504684E+02  0.27430791317E+04  0.27448738772E+04  0.00000000000E+00 0.  1.
<scales pt_clust_3="34.19751" pt_clust_4="103.04395" pt_clust_5="30.21082" pt_clust_6="14000.00000"></scales>
<clustering>
<clus scale="   30.211">  2  5  1 -1</clus>
<clus scale="   34.198">  2  3  1 -1</clus>
<clus scale="  103.044">  2  4  1 -1</clus>
<clus scale="   30.211">  2  3  1 -1</clus>
</clustering>
</event>
<event>
 6    0  0.2572175E+002  0.1216683E+03  0.7546771E-02  0.1240370E+00
         21   -1    0    0  504  502  0.00000000000E+00  0.00000000000E+00  0.14321496075E+03  0.14321496075E+03  0.00000000000E+00 0. -1.
          2   -1    0    0  505    0 -0.00000000000E+00 -0.00000000000E+00 -0.17064219310E+04  0.17064219310E+04  0.00000000000E+00 0. -1.
         21    1    1    2  503  502  0.78997235668E+02  0.53703002770E+01 -0.95180429390E+02  0.12380919799E+03  0.00000000000E+00 0. -1.
         21    1    1    2  504  501  0.63467690101E+02  0.17060158265E+02  0.10881989844E+03  0.12712579197E+03  0.00000000000E+00 0. -1.
         21    1    1    2  505  503 -0.14185273637E+03 -0.10413300776E+03 -0.12197071484E+04  0.12323357538E+04  0.00000000000E+00 0. -1.
          2    1    1    2  501    0 -0.61218940324E+00  0.81702549218E+02 -0.35713929086E+03  0.36636614800E+03  0.00000000000E+00 0. -1.
<scales pt_clust_3="121.66831" pt_clust_4="65.72060" pt_clust_5="14000.00000" pt_clust_6="85.52929"></scales>
<clustering>
<clus scale="   65.721">  1  4  2 -1</clus>
<clus scale="   85.529">  2  6  1 -1</clus>
<clus scale="  121.668">  1  3  2 -1</clus>
<clus scale="   65.721">  1  3  2 -1</clus>
</clustering>
</event>
<event>
 6    0  0.2572175E+002  0.1114743E+03  0.7546771E-02  0.1257864E+00
          1   -1    0    0  503    0 -0.00000000000E+00  0.00000000000E+00  0.10028487458E+04  0.10028487458E+04  0.00000000000E+00 0.  1.
         21   -1    0    0  504  502  0.00000000000E+00 -0.00000000000E+00 -0.14927491095E+03  0.14927491095E+03  0.00000000000E+00 0.  1.
         21    1    1    2  503  502  0.84403782669E+02  0.10807675277E+02 -0.58044631776E+02  0.10300477490E+03  0.00000000000E+00 0.  1.
         21    1    1    2  504  505 -0.16931671416E+02  0.28489071009E+02  0.83253711579E+01  0.34170461934E+02  0.00000000000E+00 0.  1.
         21    1    1    2  505  501 -0.42463009991E+01  0.55334587428E+02 -0.37704272040E+02  0.67093664143E+02  0.00000000000E+00 0.  1.
          1    1    1    2  501    0 -0.63225810254E+02 -0.94631333714E+02  0.94099736747E+03  0.94785475574E+03  0.00000000000E+00 0.  1.
<scales pt_clust_3="111.47425" pt_clust_4="33.14074" pt_clust_5="67.14924" pt_clust_6="14000.00000"></scales>
<clustering>
<clus scale="   33.141">  2  4  1 -1</clus>
<clus scale="   67.149">  2  5  1 -1</clus>
<clus scale="  111.474">  2  3  1 -1</clus>
<clus scale="   33.141">  2  3  1 -1</clus>
</clustering>
</event>
<event>
 6    0  0.2572175E+002  0.9890129E+02  0.7546771E-02  0.1282623E+00
          2   -1    0    0  505    0 -0.00000000000E+00  0.00000000000E+00  0.68086924471E+03  0.68086924471E+03  0.00000000000E+00 0. -1.
         21   -1    0    0  501  502  0.00000000000E+00 -0.00000000000E+00 -0.11328103346E+03  0.11328103346E+03  0.00000000000E+00 0.  1.
         21    1    1    2  503  504  0.45152624481E+01 -0.42542156139E+02 -0.12690795167E+02  0.44623748452E+02  0.00000000000E+00 0.  1.
         21    1    1    2  504  502  0.14712636326E+02 -0.45993715225E+02 -0.66315051459E+02  0.82033953690E+02  0.00000000000E+00 0.  1.
         21    1    1    2  505  503 -0.76045555258E+02  0.73243035955E+02  0.37379425065E+03  0.38841937466E+03  0.00000000000E+00 0.  1.
          2    1    1    2  501    0  0.56817656483E+02  0.15292835410E+02  0.27279980722E+03  0.27907320137E+03  0.00000000000E+00 0. -1.
<scales pt_clust_3="37.55452" pt_clust_4="37.55452" pt_clust_5="90.49601" pt_clust_6="58.83976"></scales>
<clustering>
<clus scale="   37.555">  3  4 -1 -1</clus>
<clus scale="   58.840">  1  6  2 -1</clus>
<clus scale="   90.496">  1  5  2 -1</clus>
<clus scale="   98.901">  2  3  1 -1</clus>
</clustering>
</event>
<event>
 6    0  0.2572175E+002  0.1801837E+03  0.7546771E-02  0.1167625E+00
         21   -1    0    0  503  502  0.00000000000E+00  0.00000000000E+00  0.25600377418E+03  0.25600377418E+03  0.00000000000E+00 0. -1.
          1   -1    0    0  505    0 -0.00000000000E+00 -0.00000000000E+00 -0.37719099505E+04  0.37719099505E+04  0.00000000000E+00 0.  1.
         21    1    1    2  503  504  0.11203999632E+02 -0.15622159390E+03  0.19343800858E+03  0.24889551859E+03  0.00000000000E+00 0. -1.
         21    1    1    2  504  501 -0.17038526620E+02  0.26545587242E+03 -0.15642711865E+04  0.15867266547E+04  0.00000000000E+00 0.  1.
         21    1    1    2  505  502 -0.28377890396E+02 -0.21764736975E+02  0.84283949729E+01  0.36742975938E+02  0.00000000000E+00 0.  1.
          1    1    1    2  501    0  0.34212417385E+02 -0.87469541538E+02 -0.21535013933E+04  0.21555485755E+04  0.00000000000E+00 0.  1.
<scales pt_clust_3="14000.00000" pt_clust_4="180.18367" pt_clust_5="35.76323" pt_clust_6="93.96604"></scales>
<clustering>
<clus scale="   35.763">  1  5  2 -1</clus>
<clus scale="   93.966">  2  6  1 -1</clus>
<clus scale="  180.184">  2  4  1 -1</clus>
<clus scale="   35.763">  1  3  2 -1</clus>
</clustering>
</event>
<event>
 6    0  0.2572175E+002  0.8158182E+02  0.7546771E-02  0.1324621E+00
          1   -1    0    0  503    0 -0.00000000000E+00  0.00000000000E+00  0.22859935972E+03  0.22859935972E+03  0.00000000000E+00 0. -1.
         21   -1    0    0  505  502  0.00000000000E+00 -0.00000000000E+00 -0.28043998420E+03  0.28043998420E+03  0.00000000000E+00 0. -1.
         21    1    1    2  503  504 -0.30501132958E+02  0.73559777521E+02 -0.30169868550E+02  0.85156214975E+02  0.00000000000E+00 0. -1.
         21    1    1    2  504  502  0.66054021274E+02 -0.16061079590E+02 -0.85252745613E+02  0.10903725344E+03  0.00000000000E+00 0.  1.
         21    1    1    2  505  501  0.19185138793E+02 -0.68216097615E+02 -0.11093272635E+03  0.13163424820E+03  0.00000000000E+00 0. -1.
          1    1    1    2  501    0 -0.54738027110E+02  0.10717399684E+02  0.17451471603E+03  0.18321162730E+03  0.00000000000E+00 0. -1.
<scales pt_clust_3="14000.00000" pt_clust_4="54.65880" pt_clust_5="81.58182" pt_clust_6="55.77736"></scales>
<clustering>
<clus scale="   55.777">  1  6  2 -1</clus>
<clus scale="   54.659">  2  4  1 -1</clus>
<clus scale="   81.582">  2  5  1 -1</clus>
<clus scale="   54.659">  2  3  1 -1</clus>
</clustering>
</event>
<event>
 6    0  0.2572175E+002  0.1253839E+03  0.7546771E-02  0.1234470E+00
          2   -1    0    0  504    0 -0.00000000000E+00  0.00000000000E+00  0.63879505110E+03  0.63879505110E+03  0.00000000000E+00 0.  1.
         21   -1    0    0  505  502  0.00000000000E+00 -0.00000000000E+00 -0.91991614173E+02  0.91991614173E+02  0.00000000000E+00 0.  1.
         21    1    1    2  503  501  0.70047977651E+01  0.75151047384E+02  0.27643942064E+01  0.75527405556E+02  0.00000000000E+00 0.  1.
         21    1    1    2  504  502 -0.19161373471E+02 -0.15870946971E+03  0.39153854926E+03  0.42291640967E+03  0.00000000000E+00 0.  1.
         21    1    1    2  505  503  0.22156751062E+02  0.33115919100E+02 -0.25337988758E+02  0.47218633925E+02  0.00000000000E+00 0.  1.
          2    1    1    2  501    0 -0.10000175355E+02  0.50442503224E+02  0.17783848221E+03  0.18512421612E+03  0.00000000000E+00 0.  1.
<scales pt_clust_3="32.37024" pt_clust_4="117.20170" pt_clust_5="32.37024" pt_clust_6="51.42421"></scales>
<clustering>
<clus scale="   32.370">  3  5 -1 -1</clus>
<clus scale="   51.424">  1  6  2 -1</clus>
<clus scale="  117.202">  1  4  2 -1</clus>
<clus scale="  125.384">  2  3  1 -1</clus>
</clustering>
</event>
<event>
 6    0  0.2572175E+002  0.2052852E+03  0.7546771E-02  0.1145355E+00
         21   -1    0    0  505  502  0.00000000000E+00  0.00000000000E+00  0.50251494725E+03  0.50251494725E+03  0.00000000000E+00 0. -1.
          2   -1    0    0  503    0 -0.00000000000E+00 -0.00000000000E+00 -0.16631414539E+04  0.16631414539E+04  0.00000000000E+00 0. -1.
         21    1    1    2  503  502  0.30728935953E+03  0.12690206575E+03  0.16332789768E+03  0.37041447992E+03  0.00000000000E+00 0. -1.
         21    1    1    2  504  501 -0.63554871542E+02 -0.22803998520E+02  0.71967118202E+02  0.98683890010E+02  0.00000000000E+00 0. -1.
         21    1    1    2  505  504 -0.47591325015E+02 -0.54974198205E+02  0.13446806455E+03  0.15286843058E+03  0.00000000000E+00 0.  1.
          2    1    1    2  501    0 -0.19614316297E+03 -0.49123869022E+02 -0.15303895870E+04  0.15436896006E+04  0.00000000000E+00 0. -1.
<scales pt_clust_3="205.28520" pt_clust_4="45.81298" pt_clust_5="143.74660" pt_clust_6="14000.00000"></scales>
<clustering>
<clus scale="   45.813">  4  5 -1 -1</clus>
<clus scale="  143.747">  1  4  2 -1</clus>
<clus scale="  205.285">  1  3  2 -1</clus>
<clus scale="  143.747">  1  3  2 -1</clus>
</clustering>
</event>
<event>
 6    0  0.2572175E+002  0.1034924E+03  0.7546771E-02  0.1273119E+00
          2   -1    0    0  505    0 -0.00000000000E+00  0.00000000000E+00  0.19517092020E+04  0.19517092020E+04  0.00000000000E+00 0.  1.
         21   -1    0    0  501  502  0.00000000000E+00 -0.00000000000E+00 -0.23843905237E+03  0.23843905237E+03  0.00000000000E+00 0. -1.
         21    1    1    2  503  504 -0.40402589980E+02 -0.37207649058E+02 -0.14987979467E+03  0.15962685011E+03  0.00000000000E+00 0. -1.
         21    1    1    2  504  502 -0.28892806741E+02 -0.90125951887E+01 -0.25720653899E+02  0.39718675587E+02  0.00000000000E+00 0. -1.
         21    1    1    2  505  503  0.80652572554E+02 -0.57722393442E+02  0.14024243932E+00  0.99180299617E+02  0.00000000000E+00 0. -1.
          2    1    1    2  501    0 -0.11357175833E+02  0.10394263769E+03  0.18887303558E+04  0.18916224291E+04  0.00000000000E+00 0.  1.
<scales pt_clust_3="76.13108" pt_clust_4="30.26584" pt_clust_5="14000.00000" pt_clust_6="103.49243"></scales>
<clustering>
<clus scale="   30.266">  2  4  1 -1</clus>
<clus scale="   76.131">  2  3  1 -1</clus>
<clus scale="  103.492">  1  6  2 -1</clus>
<clus scale="   30.266">  2  3  1 -1</clus>
</clustering>
</event>
<event>
 6    0  0.2572175E+002  0.9907617E+02  0.7546771E-02  0.1282251E+00
         21   -1    0    0  505  502  0.00000000000E+00  0.00000000000E+00  0.37007355756E+03  0.37007355756E+03  0.00000000000E+00 0.  1.
          1   -1    0    0  504    0 -0.00000000000E+00 -0.00000000000E+00 -0.26172258386E+03  0.26172258386E+03  0.00000000000E+00 0. -1.
         21    1    1    2  503  502  0.14457748980E+03  0.36490566640E+02  0.21843735702E+03  0.26447890455E+03  0.00000000000E+00 0.  1.
         21    1    1    2  504  503 -0.66966834738E+02 -0.51520541695E+00  0.87434594538E+02  0.11013460271E+03  0.00000000000E+00 0.  1.
         21    1    1    2  505  501 -0.25443165119E+02 -0.27313686063E+02  0.13455812487E+02  0.39679352153E+02  0.00000000000E+00 0. -1.
          1    1    1    2  501    0 -0.52167489941E+02 -0.86616751597E+01 -0.21097679034E+03  0.21750328201E+03  0.00000000000E+00 0. -1.
<scales pt_clust_3="14000.00000" pt_clust_4="99.07617" pt_clust_5="37.32817" pt_clust_6="53.16306"></scales>
<clustering>
<clus scale="   37.328">  1  5  2 -1</clus>
<clus scale="   53.163">  2  6  1 -1</clus>
<clus scale="   99.076">  2  4  1 -1</clus>
<clus scale="   37.328">  1  3  2 -1</clus>
</clustering>
</event>
<event>
 6    0  0.2572175E+002  0.1037514E+03  0.7546771E-02  0.1272599E+00
         21   -1    0    0  505  502  0.00000000000E+00  0.00000000000E+00  0.28991282901E+02  0.28991282901E+02  0.00000000000E+00 0.  1.
          1   -1    0    0  502    0 -0.00000000000E+00 -0.00000000000E+00 -0.21732446697E+04  0.21732446697E+04  0.00000000000E+00 0.  1.
         21    1    1    2  503  501  0.23487883188E+01  0.58796497985E+02 -0.41924295423E+02  0.72250892925E+02  0.00000000000E+00 0.  1.
         21    1    1    2  504  503 -0.31453321475E+02  0.28179048051E+02 -0.11381770192E+03  0.12139950350E+03  0.00000000000E+00 0.  1.
         21    1    1    2  505  504 -0.40866488694E+02 -0.23676802932E+01 -0.40845698788E+02  0.57827734848E+02  0.00000000000E+00 0.  1.
          1    1    1    2  501    0  0.69971021850E+02 -0.84607865742E+02 -0.19476656907E+04  0.19507578214E+04  0.00000000000E+00 0.  1.
<scales pt_clust_3="14000.00000" pt_clust_4="47.86838" pt_clust_5="40.93502" pt_clust_6="103.75144"></scales>
<clustering>
<clus scale="   40.935">  1  5  2 -1</clus>
<clus scale="   47.868">  1  4  2 -1</clus>
<clus scale="  103.751">  2  6  1 -1</clus>
<clus scale="   40.935">  1  3  2 -1</clus>
</clustering>
</event>
<event>
 6    0  0.2572175E+002  0.2762433E+03  0.7546771E-02  0.1097759E+00
         21   -1    0    0  505  502  0.00000000000E+00  0.00000000000E+00  0.45171111666E+03  0.45171111666E+03  0.00000000000E+00 0. -1.
         -1   -1    0    0    0  501 -0.00000000000E+00 -0.00000000000E+00 -0.17089348076E+04  0.17089348076E+04  0.00000000000E+00 0.  1.
         21    1    1    2  503  501 -0.22161238479E+03  0.19951854652E+03 -0.36836221155E+03  0.47393081605E+03  0.00000000000E+00 0.  1.
         21    1    1    2  504  502  0.17769537073E+03  0.12842872585E+03  0.30045831668E+03  0.37194728452E+03  0.00000000000E+00 0. -1.
         21    1    1    2  505  503  0.10045910076E+03 -0.23435953593E+02 -0.19937296405E+02  0.10506555399E+03  0.00000000000E+00 0.  1.
         -1    1    1    2    0  504 -0.56542086700E+02 -0.30451131877E+03 -0.11693824997E+04  0.12097022697E+04  0.00000000000E+00 0.  1.
<scales pt_clust_3="276.24333" pt_clust_4="282.21514" pt_clust_5="103.15656" pt_clust_6="14000.00000"></scales>
<clustering>
<clus scale="  103.157">  1  5  2 -1</clus>
<clus scale="  282.215">  1  4  2 -1</clus>
<clus scale="  276.243">  1  3  2 -1</clus>
<clus scale="  103.157">  1  3  2 -1</clus>
</clustering>
</event>
<event>
 6    0  0.2572175E+002  0.9963581E+02  0.7546771E-02  0.1281064E+00
         21   -1    0    0  503  502  0.00000000000E+00  0.00000000000E+00  0.53251200417E+03  0.53251200417E+03  0.00000000000E+00 0.  1.
          2   -1    0    0  504    0 -0.00000000000E+00 -0.00000000000E+00 -0.12427484821E+03  0.12427484821E+03  0.00000000000E+00 0.  1.
         21    1    1    2  503  501 -0.10514207656E+03  0.14958015827E+02  0.36025869231E+03  0.37558610715E+03  0.00000000000E+00 0.  1.
         21    1    1    2  504  505  0.95124780608E+02  0.54262466875E+02  0.57899850714E+02  0.12387708388E+03  0.00000000000E+00 0.  1.
         21    1    1    2  505  502  0.85734449181E+01 -0.30123069153E+02  0.65363534429E+02  0.72479617038E+02  0.00000000000E+00 0.  1.
          2    1    1    2  501    0  0.14438510373E+01 -0.39097413549E+02 -0.75284921491E+02  0.84844044316E+02  0.00000000000E+00 0.  1.
<scales pt_clust_3="14000.00000" pt_clust_4="99.63581" pt_clust_5="31.31938" pt_clust_6="39.43776"></scales>
<clustering>
<clus scale="   31.319">  1  5  2 -1</clus>
<clus scale="   39.438">  2  6  1 -1</clus>
<clus scale="   99.636">  2  4  1 -1</clus>
<clus scale="   31.319">  1  3  2 -1</clus>
</clustering>
</event>
<event>
 6    0  0.2572175E+002  0.1287509E+03  0.7546771E-02  0.1229321E+00
          2   -1    0    0  504    0 -0.00000000000E+00  0.00000000000E+00  0.16141556449E+04  0.16141556449E+04  0.00000000000E+00 0. -1.
         21   -1    0    0  505  502  0.00000000000E+00 -0.00000000000E+00 -0.17025341541E+03  0.17025341541E+03  0.00000000000E+00 0.  1.
         21    1    1    2  503  501 -0.49663510618E+02 -0.12158016471E+02 -0.12868620547E+02  0.52724596217E+02  0.00000000000E+00 0.  1.
         21    1    1    2  504  502  0.60743612920E+02  0.94290795631E+01  0.25856805281E+02  0.66687843205E+02  0.00000000000E+00 0.  1.
         21    1    1    2  505  503 -0.72782509501E+02 -0.92195262196E+02 -0.84917993317E+02  0.14494249084E+03  0.00000000000E+00 0.  1.
          2    1    1    2  501    0  0.61702407200E+02  0.94924199104E+02  0.15158320380E+04  0.15200541300E+04  0.00000000000E+00 0. -1.
<scales pt_clust_3="39.73643" pt_clust_4="61.47108" pt_clust_5="39.73643" pt_clust_6="113.79531"></scales>
<clustering>
<clus scale="   39.736">  3  5 -1 -1</clus>
<clus scale="   61.471">  2  4  1 -1</clus>
<clus scale="  113.795">  1  6  2 -1</clus>
<clus scale="   61.471">  2  3  1 -1</clus>
</clustering>
</event>
<event>
 6    0  0.2572175E+002  0.8160748E+02  0.7546771E-02  0.1324551E+00
         21   -1    0    0  503  502  0.00000000000E+00  0.00000000000E+00  0.11244055642E+03  0.11244055642E+03  0.00000000000E+00 0. -1.
          2   -1    0    0  504    0 -0.00000000000E+00 -0.00000000000E+00 -0.20546479660E+04  0.20546479660E+04  0.00000000000E+00 0. -1.
         21    1    1    2  503  501 -0.70939284588E+02 -0.42176355516E+01  0.29743008658E+02  0.77037764191E+02  0.00000000000E+00 0. -1.
         21    1    1    2  504  505 -0.13340146180E+02 -0.45481644294E+02 -0.11417788374E+03  0.12362495138E+03  0.00000000000E+00 0. -1.
         21    1    1    2  505  502  0.10661554582E+03  0.83573256435E+02 -0.30699399368E+02  0.13890218473E+03  0.00000000000E+00 0. -1.
          2    1    1    2  501    0 -0.22336115050E+02 -0.33873976589E+02 -0.18270731352E+04  0.18275236222E+04  0.00000000000E+00 0. -1.
<scales pt_clust_3="81.60748" pt_clust_4="67.97053" pt_clust_5="14000.00000" pt_clust_6="40.57522"></scales>
<clustering>
<clus scale="   40.575">  2  6  1 -1</clus>
<clus scale="   67.971">  2  4  1 -1</clus>
<clus scale="   81.607">  1  3  2 -1</clus>
<clus scale="   81.607">  1  3  2 -1</clus>
</clustering>
</event>
<event>
 6    0  0.2572175E+002  0.9678900E+02  0.7546771E-02  0.1287197E+00
          2   -1    0    0  505    0 -0.00000000000E+00  0.00000000000E+00  0.33160350641E+04  0.33160350641E+04  0.00000000000E+00 0. -1.
         21   -1    0    0  503  502  0.00000000000E+00 -0.00000000000E+00 -0.97091602634E+02  0.97091602634E+02  0.00000000000E+00 0.  1.
         21    1    1    2  503  504 -0.46327709081E+02 -0.36447269575E+02 -0.49440426449E+02  0.76935140577E+02  0.00000000000E+00 0.  1.
         21    1    1    2  504  501 -0.30684104499E+02  0.10379629482E+03  0.11968225957E+04  0.12017069155E+04  0.00000000000E+00 0. -1.
         21    1    1    2  505  502  0.19898986393E+02 -0.61207245590E+02  0.22746660239E+01  0.64400859293E+02  0.00000000000E+00 0.  1.
          2    1    1    2  501    0  0.57112827188E+02 -0.61417796562E+01  0.20692866262E+04  0.20700837514E+04  0.00000000000E+00 0. -1.
<scales pt_clust_3="58.49471" pt_clust_4="14000.00000" pt_clust_5="96.78900" pt_clust_6="57.44211"></scales>
<clustering>
<clus scale="   57.442">  1  6  2 -1</clus>
<clus scale="   58.495">  2  3  1 -1</clus>
<clus scale="   96.789">  2  5  1 -1</clus>
<clus scale="   58.495">  2  3  1 -1</clus>
</clustering>
</event>
<event>
 6    0  0.2572175E+002  0.3032471E+03  0.7546771E-02  0.1083629E+00
          2   -1    0    0  504    0 -0.00000000000E+00  0.00000000000E+00  0.19352694506E+04  0.19352694506E+04  0.00000000000E+00 0. -1.
         21   -1    0    0  503  502  0.00000000000E+00 -0.00000000000E+00 -0.63906162796E+02  0.63906162796E+02  0.00000000000E+00 0. -1.
         21    1    1    2  503  501  0.10924019433E+03  0.12340629696E+02  0.96501604231E+02  0.14628147804E+03  0.00000000000E+00 0. -1.
         21    1    1    2  504  505 -0.26291306894E+03 -0.60434244990E+02  0.13071844323E+04  0.13347309541E+04  0.00000000000E+00 0. -1.
         21    1    1    2  505  502 -0.89363983885E+00 -0.34247596591E+02  0.25926711909E+02  0.42963831939E+02  0.00000000000E+00 0.  1.
          2    1    1    2  501    0  0.15456651445E+03  0.82341211885E+02  0.44175053936E+03  0.47519934931E+03  0.00000000000E+00 0. -1.
<scales pt_clust_3="107.18048" pt_clust_4="272.01906" pt_clust_5="34.25925" pt_clust_6="107.18048"></scales>
<clustering>
<clus scale="   34.259">  2  5  1 -1</clus>
<clus scale="  107.180">  3  6 -1 -1</clus>
<clus scale="  272.019">  1  4  2 -1</clus>
<clus scale="   34.259">  2  3  1 -1</clus>
</clustering>
</event>
<event>
 6    0  0.2572175E+002  0.2221600E+03  0.7546771E-02  0.1132283E+00
          1   -1    0    0  502    0 -0.00000000000E+00  0.00000000000E+00  0.75475046126E+03  0.75475046126E+03  0.00000000000E+00 0.  1.
         21   -1    0    0  503  502  0.00000000000E+00 -0.00000000000E+00 -0.10830452138E+04  0.10830452138E+04  0.00000000000E+00 0.  1.
         21    1    1    2  503  505  0.68158921778E+02 -0.30263960178E+02 -0.29417831216E+03  0.30348381381E+03  0.00000000000E+00 0. -1.
         21    1    1    2  504  501 -0.23163938947E+03  0.92287059461E+02  0.12515042004E+03  0.27899164097E+03  0.00000000000E+00 0. -1.
         21    1    1    2  505  504  0.14492653365E+03 -0.71015075197E+01 -0.69828114676E+03  0.71319751226E+03  0.00000000000E+00 0.  1.
          1    1    1    2  501    0  0.18553934043E+02 -0.54921591763E+02  0.53901428632E+03  0.54212270804E+03  0.00000000000E+00 0.  1.
<scales pt_clust_3="30.94819" pt_clust_4="217.92550" pt_clust_5="30.94819" pt_clust_6="57.97094"></scales>
<clustering>
<clus scale="   30.948">  3  5 -1 -1</clus>
<clus scale="   57.971">  1  6  2 -1</clus>
<clus scale="  217.926">  1  4  2 -1</clus>
<clus scale="  222.160">  2  3  1 -1</clus>
</clustering>
</event>
<event>
 6    0  0.2572175E+002  0.1952801E+03  0.7546771E-02  0.1153783E+00
         21   -1    0    0  501  502  0.00000000000E+00  0.00000000000E+00  0.12773400517E+03  0.12773400517E+03  0.00000000000E+00 0. -1.
         -2   -1    0    0    0  501 -0.00000000000E+00 -0.00000000000E+00 -0.80154604606E+03  0.80154604606E+03  0.00000000000E+00 0. -1.
         21    1    1    2  503  502  0.92548311492E+01 -0.18736542953E+03  0.16414731872E+02  0.18831064628E+03  0.00000000000E+00 0. -1.
         21    1    1    2  504  505 -0.27639418784E+02  0.98092885440E+02 -0.21119038338E+03  0.23449419967E+03  0.00000000000E+00 0. -1.
         21    1    1    2  505  503  0.29919035637E+02  0.48398870020E+02 -0.51225484854E+02  0.76561410719E+02  0.00000000000E+00 0. -1.
         -2    1    1    2    0  504 -0.11534448003E+02  0.40873674067E+02 -0.42781090453E+03  0.42991379456E+03  0.00000000000E+00 0. -1.
<scales pt_clust_3="178.06135" pt_clust_4="55.97701" pt_clust_5="55.97701" pt_clust_6="42.47000"></scales>
<clustering>
<clus scale="   42.470">  2  6  1 -1</clus>
<clus scale="   55.977">  4  5 -1 -1</clus>
<clus scale="  178.061">  1  3  2 -1</clus>
<clus scale="  178.061">  1  3  2 -1</clus>
</clustering>
</event>
<event>
 6    0  0.2572175E+002  0.2975287E+03  0.7546771E-02  0.1086483E+00
         21   -1    0    0  505  502  0.00000000000E+00  0.00000000000E+00  0.22195646677E+03  0.22195646677E+03  0.00000000000E+00 0.  1.
          1   -1    0    0  504    0 -0.00000000000E+00 -0.00000000000E+00 -0.23206875642E+04  0.23206875642E+04  0.00000000000E+00 0.  1.
         21    1    1    2  503  502  0.12948631497E+03 -0.23729680242E+03 -0.70191641066E+02  0.27929078874E+03  0.00000000000E+00 0.  1.
         21    1    1    2  504  503 -0.12971560101E+03 -0.21653306156E+03 -0.85549272519E+03  0.89195319762E+03  0.00000000000E+00 0.  1.
         21    1    1    2  505  501 -0.13928764907E+03  0.32394053270E+03 -0.25855299122E+03  0.43725069146E+03  0.00000000000E+00 0.  1.
          1    1    1    2  501    0  0.13951693510E+03  0.12988933127E+03 -0.91449373999E+03  0.93414935317E+03  0.00000000000E+00 0.  1.
<scales pt_clust_3="14000.00000" pt_clust_4="141.75508" pt_clust_5="297.52874" pt_clust_6="190.62060"></scales>
<clustering>
<clus scale="  190.621">  2  6  1 -1</clus>
<clus scale="  141.755">  2  4  1 -1</clus>
<clus scale="  297.529">  2  5  1 -1</clus>
<clus scale="  297.529">  1  3  2 -1</clus>
</clustering>
</event>
<event>
 6    0  0.2572175E+002  0.2134141E+03  0.7546771E-02  0.1138891E+00
          2   -1    0    0  503    0 -0.00000000000E+00  0.00000000000E+00  0.15667502289E+04  0.15667502289E+04  0.00000000000E+00 0. -1.
         21   -1    0    0  501  502  0.00000000000E+00 -0.00000000000E+00 -0.19497239574E+03  0.19497239574E+03  0.00000000000E+00 0. -1.
         21    1    1    2  503  504  0.94314273026E+02 -0.22979351126E+03  0.52491283775E+03  0.58071828553E+03  0.00000000000E+00 0. -1.
         21    1    1    2  504  505 -0.26600352461E+02  0.23603430611E+03 -0.19515222760E+02  0.23832879879E+03  0.00000000000E+00 0. -1.
         21    1    1    2  505  502 -0.12530247863E+01 -0.36868759419E+02 -0.27369874912E+02  0.45934578967E+02  0.00000000000E+00 0.  1.
          2    1    1    2  501    0 -0.66460895778E+02  0.30627964571E+02  0.89375009308E+03  0.89674096135E+03  0.00000000000E+00 0. -1.
<scales pt_clust_3="213.41408" pt_clust_4="14000.00000" pt_clust_5="36.89005" pt_clust_6="73.04441"></scales>
<clustering>
<clus scale="   36.890">  2  5  1 -1</clus>
<clus scale="   73.044">  1  6  2 -1</clus>
<clus scale="  213.414">  1  3  2 -1</clus>
<clus scale="   36.890">  2  3  1 -1</clus>
</clustering>
</event>
<event>
 6    0  0.2572175E+002  0.6660223E+02  0.7546771E-02  0.1372044E+00
         21   -1    0    0  504  502  0.00000000000E+00  0.00000000000E+00  0.27103872877E+03  0.27103872877E+03  0.00000000000E+00 0. -1.
          1   -1    0    0  505    0 -0.00000000000E+00 -0.00000000000E+00 -0.10674520165E+04  0.10674520165E+04  0.00000000000E+00 0.  1.
         21    1    1    2  503  502  0.81210383242E+01 -0.11194372073E+03  0.22075330011E+03  0.24764766783E+03  0.00000000000E+00 0. -1.
         21    1    1    2  504  501  0.18477349529E+02  0.52034925466E+02  0.82341325157E+01  0.55828727840E+02  0.00000000000E+00 0. -1.
         21    1    1    2  505  503  0.78958499273E+01  0.82679520335E+02 -0.87826521317E+03  0.88218367260E+03  0.00000000000E+00 0.  1.
          1    1    1    2  501    0 -0.34494237781E+02 -0.22770725075E+02 -0.14713550722E+03  0.15283067704E+03  0.00000000000E+00 0.  1.
<scales pt_clust_3="14000.00000" pt_clust_4="54.36603" pt_clust_5="66.60223" pt_clust_6="41.33229"></scales>
<clustering>
<clus scale="   41.332">  2  6  1 -1</clus>
<clus scale="   54.366">  1  4  2 -1</clus>
<clus scale="   66.602">  2  5  1 -1</clus>
<clus scale="   54.366">  1  3  2 -1</clus>
</clustering>
</event>
<event>
 6    0  0.2572175E+002  0.8000289E+02  0.7546771E-02  0.1329043E+00
         21   -1    0    0  501  502  0.00000000000E+00  0.00000000000E+00  0.11279366873E+03  0.11279366873E+03  0.00000000000E+00 0.  1.
          3   -1    0    0  504    0 -0.00000000000E+00 -0.00000000000E+00 -0.29859395042E+04  0.29859395042E+04  0.00000000000E+00 0. -1.
         21    1    1    2  503  502  0.59138968917E+02  0.69299130523E+02  0.57428337881E+02  0.10769308765E+03  0.00000000000E+00 0.  1.
         21    1    1    2  504  505  0.30724052845E+02 -0.42226380123E+01 -0.17931547654E+03  0.18197757615E+03  0.00000000000E+00 0.  1.
         21    1    1    2  505  503 -0.10024761505E+00 -0.71988943155E+02 -0.17846562469E+02  0.74168172271E+02  0.00000000000E+00 0.  1.
          3    1    1    2  501    0 -0.89762774147E+02  0.69124506436E+01 -0.27334121343E+04  0.27348943368E+04  0.00000000000E+00 0. -1.
<scales pt_clust_3="80.00289" pt_clust_4="31.01287" pt_clust_5="14000.00000" pt_clust_6="59.88321"></scales>
<clustering>
<clus scale="   31.013">  2  4  1 -1</clus>
<clus scale="   59.883">  2  6  1 -1</clus>
<clus scale="   80.003">  1  3  2 -1</clus>
<clus scale="   80.003">  1  3  2 -1</clus>
</clustering>
</event>
<event>
 6    0  0.2572175E+002  0.8574756E+02  0.7546771E-02  0.1313489E+00
         21   -1    0    0  504  502  0.00000000000E+00  0.00000000000E+00  0.11095658946E+04  0.11095658946E+04  0.00000000000E+00 0. -1.
          2   -1    0    0  505    0 -0.00000000000E+00 -0.00000000000E+00 -0.12840514564E+03  0.12840514564E+03  0.00000000000E+00 0. -1.
         21    1    1    2  503  502  0.35462233733E+01  0.36729457775E+02  0.80771598955E+02  0.88801351152E+02  0.00000000000E+00 0.  1.
         21    1    1    2  504  501  0.21116299091E+02 -0.12118001196E+03  0.99030797810E+03  0.99791802513E+03  0.00000000000E+00 0. -1.
         21    1    1    2  505  503 -0.38631778334E+02  0.53783876050E+02 -0.13290282956E+02  0.67540737642E+02  0.00000000000E+00 0. -1.
          2    1    1    2  501    0  0.13969255870E+02  0.30666678139E+02 -0.76628545134E+02  0.83710926330E+02  0.00000000000E+00 0. -1.
<scales pt_clust_3="39.56324" pt_clust_4="85.74756" pt_clust_5="14000.00000" pt_clust_6="33.69845"></scales>
<clustering>
<clus scale="   33.698">  2  6  1 -1</clus>
<clus scale="   39.563">  1  3  2 -1</clus>
<clus scale="   85.748">  1  4  2 -1</clus>
<clus scale="   39.563">  1  3  2 -1</clus>
</clustering>
</event>
<event>
 6    0  0.2572175E+002  0.9006399E+02  0.7546771E-02  0.1302697E+00
          2   -1    0    0  505    0 -0.00000000000E+00  0.00000000000E+00  0.13279403944E+04  0.13279403944E+04  0.00000000000E+00 0.  1.
         21   -1    0    0  504  502  0.00000000000E+00 -0.00000000000E+00 -0.14228291398E+04  0.14228291398E+04  0.00000000000E+00 0. -1.
         21    1    1    2  503  502  0.54587631559E+02  0.74239857822E+02 -0.20749310204E+03  0.22703469647E+03  0.00000000000E+00 0.  1.
         21    1    1    2  504  501  0.17515041738E+02 -0.66610924377E+02 -0.11972959044E+04  0.11992753122E+04  0.00000000000E+00 0. -1.
         21    1    1    2  505  503 -0.20254578050E+02 -0.91965967713E+02  0.53001536276E+03  0.53831614495E+03  0.00000000000E+00 0. -1.
          2    1    1    2  501    0 -0.51848095248E+02  0.84337034268E+02  0.77988489822E+03  0.78614338056E+03  0.00000000000E+00 0.  1.
<scales pt_clust_3="72.20143" pt_clust_4="68.87519" pt_clust_5="90.06399" pt_clust_6="14000.00000"></scales>
<clustering>
<clus scale="   68.875">  2  4  1 -1</clus>
<clus scale="   72.201">  2  3  1 -1</clus>
<clus scale="   90.064">  2  5  1 -1</clus>
<clus scale="   68.875">  2  3  1 -1</clus>
</clustering>
</event>
<event>
 6    0  0.2572175E+002  0.9583339E+02  0.7546771E-02  0.1289310E+00
         21   -1    0    0  503  502  0.00000000000E+00  0.00000000000E+00  0.21128330740E+03  0.21128330740E+03  0.00000000000E+00 0.  1.
          1   -1    0    0  502    0 -0.00000000000E+00 -0.00000000000E+00 -0.12814052500E+04  0.12814052500E+04  0.00000000000E+00 0. -1.
         21    1    1    2  503  505 -0.58214799389E+02 -0.26240131975E+02  0.17566545139E+03  0.18691136458E+03  0.00000000000E+00 0.  1.
         21    1    1    2  504  501  0.72317928297E+02  0.43166179021E+02 -0.12805107494E+03  0.15326538931E+03  0.00000000000E+00 0.  1.
         21    1    1    2  505  504  0.60678758947E+02  0.20390486278E+02 -0.49262196716E+02  0.80774053652E+02  0.00000000000E+00 0.  1.
          1    1    1    2  501    0 -0.74781887855E+02 -0.37316533324E+02 -0.10684741223E+04  0.10717377499E+04  0.00000000000E+00 0. -1.
<scales pt_clust_3="63.85536" pt_clust_4="34.94765" pt_clust_5="34.94765" pt_clust_6="87.04678"></scales>
<clustering>
<clus scale="   34.948">  4  5 -1 -1</clus>
<clus scale="   63.855">  1  3  2 -1</clus>
<clus scale="   87.047">  2  6  1 -1</clus>
<clus scale="   63.855">  1  3  2 -1</clus>
</clustering>
</event>
<event>
 6    0  0.2572175E+002  0.1053979E+03  0.7546771E-02  0.1269338E+00
          1   -1    0    0  503    0 -0.00000000000E+00  0.00000000000E+00  0.11444117691E+04  0.11444117691E+04  0.00000000000E+00 0.  1.
         21   -1    0    0  505  502  0.00000000000E+00 -0.00000000000E+00 -0.21858378813E+03  0.21858378813E+03  0.00000000000E+00 0. -1.
         21    1    1    2  503  502  0.20643094526E+02  0.11830905224E+03 -0.16353956784E+03  0.20289987542E+03  0.00000000000E+00 0. -1.
         21    1    1    2  504  501 -0.38925157129E+02 -0.45173535934E+02  0.18472224425E+03  0.19410853595E+03  0.00000000000E+00 0.  1.
         21    1    1    2  505  504 -0.18561542525E+02 -0.70465835816E+02  0.13540333372E+02  0.74116836859E+02  0.00000000000E+00 0.  1.
          1    1    1    2  501    0  0.36843605128E+02 -0.26696804935E+01  0.89110497119E+03  0.89187030902E+03  0.00000000000E+00 0.  1.
<scales pt_clust_3="14000.00000" pt_clust_4="48.51509" pt_clust_5="105.39794" pt_clust_6="36.94020"></scales>
<clustering>
<clus scale="   36.940">  1  6  2 -1</clus>
<clus scale="   48.515">  1  4  2 -1</clus>
<clus scale="  105.398">  1  5  2 -1</clus>
<clus scale="  105.398">  2  3  1 -1</clus>
</clustering>
</event>
<event>
 6    0  0.2572175E+002  0.1416125E+03  0.7546771E-02  0.1211176E+00
          2   -1    0    0  505    0 -0.00000000000E+00  0.00000000000E+00  0.21749381813E+03  0.21749381813E+03  0.00000000000E+00 0. -1.
         21   -1    0    0  504  502  0.00000000000E+00 -0.00000000000E+00 -0.19652388811E+03  0.19652388811E+03  0.00000000000E+00 0. -1.
         21    1    1    2  503  501  0.89478152694E+02 -0.72168240808E+02 -0.80080985727E+02  0.14009839066E+03  0.00000000000E+00 0. -1.
         21    1    1    2  504  503  0.35063959486E+02  0.81264296334E+01 -0.18762417841E+02  0.40590004147E+02  0.00000000000E+00 0. -1.
         21    1    1    2  505  502 -0.46594563873E+01  0.70980768210E+02  0.79456973450E+02  0.10664609988E+03  0.00000000000E+00 0. -1.
          2    1    1    2  501    0 -0.11988265579E+03 -0.69389570354E+01  0.40356360134E+02  0.12668321155E+03  0.00000000000E+00 0. -1.
<scales pt_clust_3="31.97923" pt_clust_4="31.97923" pt_clust_5="71.13354" pt_clust_6="129.56819"></scales>
<clustering>
<clus scale="   31.979">  3  4 -1 -1</clus>
<clus scale="   71.134">  1  5  2 -1</clus>
<clus scale="  129.568">  1  6  2 -1</clus>
<clus scale="  141.613">  2  3  1 -1</clus>
</clustering>
</event>
<event>
 6    0  0.2572175E+002  0.1898725E+03  0.7546771E-02  0.1158576E+00
         21   -1    0    0  503  502  0.00000000000E+00  0.00000000000E+00  0.32083299502E+03  0.32083299502E+03  0.00000000000E+00 0. -1.
          2   -1    0    0  504    0 -0.00000000000E+00 -0.00000000000E+00 -0.21396418443E+04  0.21396418443E+04  0.00000000000E+00 0. -1.
         21    1    1    2  503  505 -0.86271580370E+02  0.17943411557E+03  0.18049408720E+03  0.26873314445E+03  0.00000000000E+00 0. -1.
         21    1    1    2  504  502  0.37383502651E+02  0.11040475067E+01 -0.46294111274E+02  0.59513779329E+02  0.00000000000E+00 0.  1.
         21    1    1    2  505  501 -0.51177333129E+02 -0.19471488269E+03 -0.26493862397E+02  0.20306385624E+03  0.00000000000E+00 0. -1.
          2    1    1    2  501    0  0.10006541085E+03  0.14176719607E+02 -0.19265149628E+04  0.19291640593E+04  0.00000000000E+00 0. -1.
<scales pt_clust_3="14000.00000" pt_clust_4="37.39980" pt_clust_5="189.87252" pt_clust_6="135.45742"></scales>
<clustering>
<clus scale="   37.400">  2  4  1 -1</clus>
<clus scale="  135.457">  2  6  1 -1</clus>
<clus scale="  189.873">  2  5  1 -1</clus>
<clus scale="  189.873">  1  3  2 -1</clus>
</clustering>
</event>
<event>
 6    0  0.2572175E+002  0.9040199E+02  0.7546771E-02  0.1301881E+00
         21   -1    0    0  504  502  0.00000000000E+00  0.00000000000E+00  0.30078484063E+03  0.30078484063E+03  0.00000000000E+00 0.  1.
          1   -1    0    0  505    0 -0.00000000000E+00 -0.00000000000E+00 -0.12004820330E+04  0.12004820330E+04  0.00000000000E+00 0.  1.
         21    1    1    2  503  502  0.62110151314E+02  0.63889272677E+02  0.13066243385E+03  0.15815240017E+03  0.00000000000E+00 0. -1.
         21    1    1    2  504  501 -0.99718587349E+02 -0.19373812035E+02  0.13767187283E+03  0.17109262352E+03  0.00000000000E+00 0.  1.
         21    1    1    2  505  503 -0.12952598456E+02 -0.33781469703E+02 -0.25809138493E+03  0.26061488920E+03  0.00000000000E+00 0. -1.
          1    1    1    2  501    0  0.50561034491E+02 -0.10733990940E+02 -0.90994011417E+03  0.91140696077E+03  0.00000000000E+00 0.  1.
<scales pt_clust_3="90.40199" pt_clust_4="14000.00000" pt_clust_5="36.17952" pt_clust_6="57.71994"></scales>
<clustering>
<clus scale="   36.180">  2  5  1 -1</clus>
<clus scale="   57.720">  2  6  1 -1</clus>
<clus scale="   90.402">  1  3  2 -1</clus>
<clus scale="   90.402">  1  3  2 -1</clus>
</clustering>
</event>
<event>
 6    0  0.2572175E+002  0.1409177E+03  0.7546771E-02  0.1212099E+00
         21   -1    0    0  504  502  0.00000000000E+00  0.00000000000E+00  0.31576406724E+02  0.31576406724E+02  0.00000000000E+00 0.  1.
         -2   -1    0    0    0  501 -0.00000000000E+00 -0.00000000000E+00 -0.23415711712E+04  0.23415711712E+04  0.00000000000E+00 0.  1.
         21    1    1    2  503  501  0.75870550554E+01  0.82647588169E+02 -0.12308077529E+03  0.14844886150E+03  0.00000000000E+00 0.  1.
         21    1    1    2  504  503 -0.40414677935E+02  0.30785870420E+02 -0.71896300584E+02  0.88035186418E+02  0.00000000000E+00 0.  1.
         21    1    1    2  505  502  0.83150754959E+02  0.58369194948E+01 -0.19224700168E+03  0.20954003754E+03  0.00000000000E+00 0. -1.
         -2    1    1    2    0  505 -0.50323132080E+02 -0.11927037808E+03 -0.19227706869E+04  0.19271234925E+04  0.00000000000E+00 0.  1.
<scales pt_clust_3="49.25880" pt_clust_4="49.25880" pt_clust_5="83.35537" pt_clust_6="126.07121"></scales>
<clustering>
<clus scale="   49.259">  3  4 -1 -1</clus>
<clus scale="   83.355">  1  5  2 -1</clus>
<clus scale="  126.071">  2  6  1 -1</clus>
<clus scale="   83.355">  1  3  2 -1</clus>
</clustering>
</event>
<event>
 6    0  0.2572175E+002  0.1457477E+03  0.7546771E-02  0.1205798E+00
          1   -1    0    0  503    0 -0.00000000000E+00  0.00000000000E+00  0.12031878333E+04  0.12031878333E+04  0.00000000000E+00 0. -1.
         21   -1    0    0  505  502  0.00000000000E+00 -0.00000000000E+00 -0.24532561894E+03  0.24532561894E+03  0.00000000000E+00 0.  1.
         21    1    1    2  503  504 -0.59193304364E+02  0.52928980789E+02  0.13112571946E+01  0.79416897978E+02  0.00000000000E+00 0.  1.
         21    1    1    2  504  502 -0.44137108740E+02  0.31372066286E+02  0.33997317990E+02  0.63938318256E+02  0.00000000000E+00 0.  1.
         21    1    1    2  505  501  0.86544432036E+02 -0.11442105418E+03 -0.16409294482E+03  0.21796470103E+03  0.00000000000E+00 0.  1.
          1    1    1    2  501    0  0.16785981068E+02  0.30120007110E+02  0.10866465839E+04  0.10871935349E+04  0.00000000000E+00 0. -1.
<scales pt_clust_3="32.19754" pt_clust_4="32.19754" pt_clust_5="140.43574" pt_clust_6="34.48165"></scales>
<clustering>
<clus scale="   32.198">  3  4 -1 -1</clus>
<clus scale="   34.482">  1  6  2 -1</clus>
<clus scale="  140.436">  2  5  1 -1</clus>
<clus scale="  140.436">  2  3  1 -1</clus>
</clustering>
</event>
<event>
 6    0  0.2572175E+002  0.1127620E+03  0.7546771E-02  0.1255539E+00
         21   -1    0    0  504  502  0.00000000000E+00  0.00000000000E+00  0.66070172908E+02  0.66070172908E+02  0.00000000000E+00 0. -1.
          1   -1    0    0  503    0 -0.00000000000E+00 -0.00000000000E+00 -0.11738835590E+04  0.11738835590E+04  0.00000000000E+00 0.  1.
         21    1    1    2  503  505  0.37107527401E+02 -0.47510725917E+02 -0.30610591255E+02  0.67610989964E+02  0.00000000000E+00 0. -1.
         21    1    1    2  504  501 -0.42129345047E+02  0.93951244567E+02 -0.13745936390E+03  0.17174630941E+03  0.00000000000E+00 0. -1.
         21    1    1    2  505  502  0.43753727605E+02 -0.22365950022E+02  0.96759450324E+01  0.50082415197E+02  0.00000000000E+00 0. -1.
          1    1    1    2  501    0 -0.38731909958E+02 -0.24074568629E+02 -0.94941937599E+03  0.95051401736E+03  0.00000000000E+00 0.  1.
<scales pt_clust_3="40.29712" pt_clust_4="103.55234" pt_clust_5="40.29712" pt_clust_6="45.60423"></scales>
<clustering>
<clus scale="   40.297">  3  5 -1 -1</clus>
<clus scale="   45.604">  2  6  1 -1</clus>
<clus scale="  103.552">  2  4  1 -1</clus>
<clus scale="  112.762">  1  3  2 -1</clus>
</clustering>
</event>
<event>
 6    0  0.2572175E+002  0.3061061E+03  0.7546771E-02  0.1082227E+00
         21   -1    0    0  504  502  0.00000000000E+00  0.00000000000E+00  0.54605925143E+02  0.54605925143E+02  0.00000000000E+00 0. -1.
          2   -1    0    0  505    0 -0.00000000000E+00 -0.00000000000E+00 -0.15503562619E+04  0.15503562619E+04  0.00000000000E+00 0. -1.
         21    1    1    2  503  501 -0.34347689849E+02 -0.86466481845E+02 -0.19057434608E+03  0.21207262357E+03  0.00000000000E+00 0. -1.
         21    1    1    2  504  503 -0.65175075367E+02 -0.17986936809E+02 -0.19421539355E+03  0.20564760984E+03  0.00000000000E+00 0. -1.
         21    1    1    2  505  502  0.11708438172E+03  0.22777810658E+03 -0.47948294485E+03  0.54359498956E+03  0.00000000000E+00 0. -1.
          2    1    1    2  501    0 -0.17561616504E+02 -0.12332468792E+03 -0.63147765229E+03  0.64364696408E+03  0.00000000000E+00 0. -1.
<scales pt_clust_3="120.98589" pt_clust_4="63.85981" pt_clust_5="256.10861" pt_clust_6="120.98589"></scales>
<clustering>
<clus scale="   63.860">  3  4 -1 -1</clus>
<clus scale="  120.986">  3  6 -1 -1</clus>
<clus scale="  256.109">  1  5  2 -1</clus>
<clus scale="  256.109">  1  3  2 -1</clus>
</clustering>
</event>
<event>
 6    0  0.2572175E+002  0.1567489E+03  0.7546771E-02  0.1192417E+00
          1   -1    0    0  505    0 -0.00000000000E+00  0.00000000000E+00  0.97445817133E+03  0.97445817133E+03  0.00000000000E+00 0. -1.
         21   -1    0    0  504  502  0.00000000000E+00 -0.00000000000E+00 -0.77542397213E+02  0.77542397213E+02  0.00000000000E+00 0. -1.
         21    1    1    2  503  501  0.11391577575E+03  0.90490961582E+01  0.40180985567E+02  0.12113299182E+03  0.00000000000E+00 0. -1.
         21    1    1    2  504  503  0.29306760003E+02 -0.34166967106E+02  0.11031563858E+02  0.46346124156E+02  0.00000000000E+00 0. -1.
         21    1    1    2  505  502 -0.11544537641E+03  0.91005493075E+02  0.29921801586E+03  0.33337824722E+03  0.00000000000E+00 0. -1.
          1    1    1    2  501    0 -0.27777159335E+02 -0.65887622127E+02  0.54648520884E+03  0.55114320535E+03  0.00000000000E+00 0. -1.
<scales pt_clust_3="41.07425" pt_clust_4="41.07425" pt_clust_5="142.43349" pt_clust_6="71.50349"></scales>
<clustering>
<clus scale="   41.074">  3  4 -1 -1</clus>
<clus scale="   71.503">  1  6  2 -1</clus>
<clus scale="  142.433">  1  5  2 -1</clus>
<clus scale="  156.749">  2  3  1 -1</clus>
</clustering>
</event>
<event>
 6    0  0.2572175E+002  0.3811115E+03  0.7546771E-02  0.1050524E+00
         21   -1    0    0  501  502  0.00000000000E+00  0.00000000000E+00  0.14656898757E+04  0.14656898757E+04  0.00000000000E+00 0.  1.
          1   -1    0    0  503    0 -0.00000000000E+00 -0.00000000000E+00 -0.79987138349E+03  0.79987138349E+03  0.00000000000E+00 0.  1.
         21    1    1    2  503  505  0.44249751872E+03 -0.10848927653E+03 -0.49711445222E+03  0.67431206114E+03  0.00000000000E+00 0.  1.
         21    1    1    2  504  502 -0.12108153635E+03  0.16312080299E+02  0.63275146016E+03  0.64443869587E+03  0.00000000000E+00 0. -1.
         21    1    1    2  505  504 -0.23340136093E+03  0.65884547996E+02  0.70706306485E+03  0.74749926195E+03  0.00000000000E+00 0.  1.
          1    1    1    2  501    0 -0.88014621433E+02  0.26292648235E+02 -0.17688158056E+03  0.19931124022E+03  0.00000000000E+00 0.  1.
<scales pt_clust_3="367.79353" pt_clust_4="70.88410" pt_clust_5="70.88410" pt_clust_6="91.85792"></scales>
<clustering>
<clus scale="   70.884">  4  5 -1 -1</clus>
<clus scale="   91.858">  2  6  1 -1</clus>
<clus scale="  367.794">  2  3  1 -1</clus>
<clus scale="  381.112">  1  3  2 -1</clus>
</clustering>
</event>
<event>
 6    0  0.2572175E+002  0.1683502E+03  0.7546771E-02  0.1179579E+00
         21   -1    0    0  504  502  0.00000000000E+00  0.00000000000E+00  0.25959774930E+03  0.25959774930E+03  0.00000000000E+00 0. -1.
          1   -1    0    0  505    0 -0.00000000000E+00 -0.00000000000E+00 -0.66388246554E+03  0.66388246554E+03  0.00000000000E+00 0. -1.
         21    1    1    2  503  501  0.76281626371E+02  0.20570150343E+02  0.42557897572E+02  0.89739580190E+02  0.00000000000E+00 0. -1.
         21    1    1    2  504  503  0.66558729654E+02  0.18090291563E+02  0.13372802279E+03  0.15046762849E+03  0.00000000000E+00 0. -1.
         21    1    1    2  505  502 -0.17662211138E+03 -0.48622527514E+02 -0.11483941518E+03  0.21621196010E+03  0.00000000000E+00 0. -1.
          1    1    1    2  501    0  0.33781755355E+02  0.99620856074E+01 -0.46573122143E+03  0.46706104607E+03  0.00000000000E+00 0. -1.
<scales pt_clust_3="63.25359" pt_clust_4="63.25359" pt_clust_5="153.67825" pt_clust_6="35.22002"></scales>
<clustering>
<clus scale="   35.220">  2  6  1 -1</clus>
<clus scale="   63.254">  3  4 -1 -1</clus>
<clus scale="  153.678">  2  5  1 -1</clus>
<clus scale="  168.350">  1  3  2 -1</clus>
</clustering>
</event>
<event>
 6    0  0.2572175E+002  0.1680709E+03  0.7546771E-02  0.1179875E+00
         21   -1    0    0  505  502  0.00000000000E+00  0.00000000000E+00  0.35759731939E+02  0.35759731939E+02  0.00000000000E+00 0. -1.
          2   -1    0    0  504    0 -0.00000000000E+00 -0.00000000000E+00 -0.37042809792E+04  0.37042809792E+04  0.00000000000E+00 0. -1.
         21    1    1    2  503  502  0.69813621066E+02 -0.18488484637E+03 -0.36409557944E+03  0.41427278340E+03  0.00000000000E+00 0. -1.
         21    1    1    2  504  503  0.16559304050E+02  0.13741593095E+03 -0.51974018149E+03  0.53785425990E+03  0.00000000000E+00 0. -1.
         21    1    1    2  505  501 -0.46884567025E+02  0.41669124678E+02 -0.68929496808E+03  0.69214307163E+03  0.00000000000E+00 0. -1.
          2    1    1    2  501    0 -0.39488358091E+02  0.57997907430E+01 -0.20953905183E+04  0.20957705963E+04  0.00000000000E+00 0. -1.
<scales pt_clust_3="168.07086" pt_clust_4="14000.00000" pt_clust_5="77.62426" pt_clust_6="39.91200"></scales>
<clustering>
<clus scale="   39.912">  2  6  1 -1</clus>
<clus scale="   77.624">  2  5  1 -1</clus>
<clus scale="  168.071">  1  3  2 -1</clus>
<clus scale="  168.071">  1  3  2 -1</clus>
</clustering>
</event>
<event>
 6    0  0.2572175E+002  0.1514664E+03  0.7546771E-02  0.1198683E+00
         -1   -1    0    0    0  501 -0.00000000000E+00  0.00000000000E+00  0.10657251116E+04  0.10657251116E+04  0.00000000000E+00 0. -1.
         21   -1    0    0  505  502  0.00000000000E+00 -0.00000000000E+00 -0.23683696050E+03  0.23683696050E+03  0.00000000000E+00 0. -1.
         21    1    1    2  503  502  0.56812156282E+01 -0.14255766881E+03 -0.46238022811E+02  0.14997639781E+03  0.00000000000E+00 0. -1.
         21    1    1    2  504  501 -0.24939711899E+02  0.27853257822E+02 -0.31856528738E+01  0.37522547690E+02  0.00000000000E+00 0. -1.
         21    1    1    2  505  504 -0.13819587437E+02  0.10535832534E+03 -0.94164228696E+02  0.14197978617E+03  0.00000000000E+00 0. -1.
         -1    1    1    2    0  503  0.33078083708E+02  0.93460856522E+01  0.97247605545E+03  0.97308334039E+03  0.00000000000E+00 0. -1.
<scales pt_clust_3="139.44748" pt_clust_4="33.70945" pt_clust_5="33.70945" pt_clust_6="34.37308"></scales>
<clustering>
<clus scale="   34.373">  1  6  2 -1</clus>
<clus scale="   33.709">  4  5 -1 -1</clus>
<clus scale="  139.447">  1  3  2 -1</clus>
<clus scale="  151.466">  2  3  1 -1</clus>
</clustering>
</event>
<event>
 6    0  0.2572175E+002  0.9162058E+02  0.7546771E-02  0.1298974E+00
         -1   -1    0    0    0  501 -0.00000000000E+00  0.00000000000E+00  0.87466430218E+03  0.87466430218E+03  0.00000000000E+00 0.  1.
         21   -1    0    0  504  502  0.00000000000E+00 -0.00000000000E+00 -0.13192845604E+03  0.13192845604E+03  0.00000000000E+00 0.  1.
         21    1    1    2  503  501  0.66390478338E+02 -0.21722764733E+02  0.13765303790E+03  0.15436299092E+03  0.00000000000E+00 0. -1.
         21    1    1    2  504  503 -0.10766746481E+03  0.34751483586E+01 -0.64930645298E+02  0.12577896618E+03  0.00000000000E+00 0.  1.
         21    1    1    2  505  502  0.13653181388E+02 -0.43982415851E+02 -0.65093184088E+01  0.46510573983E+02  0.00000000000E+00 0. -1.
         -1    1    1    2    0  505  0.27623805082E+02  0.62230032226E+02  0.67652277195E+03  0.67994022715E+03  0.00000000000E+00 0.  1.
<scales pt_clust_3="91.62058" pt_clust_4="14000.00000" pt_clust_5="46.05282" pt_clust_6="67.52560"></scales>
<clustering>
<clus scale="   46.053">  2  5  1 -1</clus>
<clus scale="   67.526">  1  6  2 -1</clus>
<clus scale="   91.621">  1  3  2 -1</clus>
<clus scale="   46.053">  2  3  1 -1</clus>
</clustering>
</event>
<event>
 6    0  0.2572175E+002  0.1842803E+03  0.7546771E-02  0.1163724E+00
          3   -1    0    0  503    0 -0.00000000000E+00  0.00000000000E+00  0.40243253021E+03  0.40243253021E+03  0.00000000000E+00 0.  1.
         21   -1    0    0  505  502  0.00000000000E+00 -0.00000000000E+00 -0.12253492411E+04  0.12253492411E+04  0.00000000000E+00 0.  1.
         21    1    1    2  503  504 -0.20048371079E+02 -0.40555250600E+02  0.35711967417E+02  0.57636881863E+02  0.00000000000E+00 0. -1.
         21    1    1    2  504  502 -0.22192363180E+03  0.16605316170E+03 -0.86489657903E+03  0.90822345449E+03  0.00000000000E+00 0.  1.
         21    1    1    2  505  501  0.75749292863E+02 -0.59223218939E+02 -0.29568494639E+03  0.31092592776E+03  0.00000000000E+00 0.  1.
          3    1    1    2  501    0  0.16622271001E+03 -0.66274692160E+02  0.30195284715E+03  0.35099550716E+03  0.00000000000E+00 0.  1.
<scales pt_clust_3="45.24009" pt_clust_4="184.28026" pt_clust_5="96.35414" pt_clust_6="14000.00000"></scales>
<clustering>
<clus scale="   45.240">  1  3  2 -1</clus>
<clus scale="   96.354">  2  5  1 -1</clus>
<clus scale="  184.280">  2  4  1 -1</clus>
<clus scale="   96.354">  2  3  1 -1</clus>
</clustering>
</event>
<event>
 6    0  0.2572175E+002  0.8688325E+02  0.7546771E-02  0.1310580E+00
         21   -1    0    0  504  502  0.00000000000E+00  0.00000000000E+00  0.75615242327E+02  0.75615242327E+02  0.00000000000E+00 0. -1.
          1   -1    0    0  505    0 -0.00000000000E+00 -0.00000000000E+00 -0.99869084430E+03  0.99869084430E+03  0.00000000000E+00 0. -1.
         21    1    1    2  503  501  0.19143543753E+02  0.10782259024E+03 -0.15701954023E+03  0.19143490342E+03  0.00000000000E+00 0. -1.
         21    1    1    2  504  503 -0.11828533038E+02 -0.65085307975E+02 -0.53936596108E+02  0.85353195064E+02  0.00000000000E+00 0. -1.
         21    1    1    2  505  502  0.31934441667E+02 -0.42293685855E+02  0.25530152863E+02  0.58824766323E+02  0.00000000000E+00 0. -1.
          1    1    1    2  501    0 -0.39249452382E+02 -0.44359641259E+00 -0.73764961850E+03  0.73869322182E+03  0.00000000000E+00 0. -1.
<scales pt_clust_3="86.88325" pt_clust_4="14000.00000" pt_clust_5="51.54674" pt_clust_6="39.25196"></scales>
<clustering>
<clus scale="   39.252">  2  6  1 -1</clus>
<clus scale="   51.547">  1  5  2 -1</clus>
<clus scale="   86.883">  2  3  1 -1</clus>
<clus scale="   51.547">  1  3  2 -1</clus>
</clustering>
</event>
<event>
 6    0  0.2572175E+002  0.1210840E+03  0.7546771E-02  0.1241319E+00
         21   -1    0    0  505  502  0.00000000000E+00  0.00000000000E+00  0.14505712541E+03  0.14505712541E+03  0.00000000000E+00 0. -1.
          1   -1    0    0  504    0 -0.00000000000E+00 -0.00000000000E+00 -0.21530966890E+04  0.21530966890E+04  0.00000000000E+00 0. -1.
         21    1    1    2  503  502  0.39342685250E+02 -0.48384609098E+02 -0.42914325515E+01  0.62508668788E+02  0.00000000000E+00 0. -1.
         21    1    1    2  504  503  0.91195748449E+02  0.70678978352E+02  0.75859452721E+02  0.13808272551E+03  0.00000000000E+00 0. -1.
         21    1    1    2  505  501 -0.96100900076E+02  0.21043154697E+02 -0.27432932923E+03  0.29143571887E+03  0.00000000000E+00 0. -1.
          1    1    1    2  501    0 -0.34437533623E+02 -0.43337523951E+02 -0.18052782546E+04  0.18061267013E+04  0.00000000000E+00 0. -1.
<scales pt_clust_3="63.71750" pt_clust_4="121.08400" pt_clust_5="14000.00000" pt_clust_6="55.35418"></scales>
<clustering>
<clus scale="   55.354">  2  6  1 -1</clus>
<clus scale="   63.718">  1  3  2 -1</clus>
<clus scale="  121.084">  1  4  2 -1</clus>
<clus scale="   63.718">  1  3  2 -1</clus>
</clustering>
</event>
<event>
 6    0  0.2572175E+002  0.8836294E+02  0.7546771E-02  0.1306865E+00
         21   -1    0    0  505  502  0.00000000000E+00  0.00000000000E+00  0.39440299950E+03  0.39440299950E+03  0.00000000000E+00 0. -1.
          1   -1    0    0  503    0 -0.00000000000E+00 -0.00000000000E+00 -0.67297368263E+03  0.67297368263E+03  0.00000000000E+00 0. -1.
         21    1    1    2  503  502 -0.12462098970E+03  0.60913374888E+02 -0.21324324153E+03  0.25438850283E+03  0.00000000000E+00 0. -1.
         21    1    1    2  504  501  0.55537396985E+02 -0.65994573727E+01  0.59163340960E+02  0.81414103294E+02  0.00000000000E+00 0. -1.
         21    1    1    2  505  504  0.22215449643E+02 -0.42165229555E+02  0.30028713947E+03  0.30404571847E+03  0.00000000000E+00 0. -1.
          1    1    1    2  501    0  0.46868143070E+02 -0.12148687961E+02 -0.42477792203E+03  0.42752835754E+03  0.00000000000E+00 0. -1.
<scales pt_clust_3="14000.00000" pt_clust_4="88.36294" pt_clust_5="47.65955" pt_clust_6="48.89827"></scales>
<clustering>
<clus scale="   47.660">  1  5  2 -1</clus>
<clus scale="   48.898">  2  6  1 -1</clus>
<clus scale="   88.363">  1  4  2 -1</clus>
<clus scale="   47.660">  1  3  2 -1</clus>
</clustering>
</event>
<event>
 6    0  0.2572175E+002  0.1130192E+03  0.7546771E-02  0.1255079E+00
         21   -1    0    0  505  502  0.00000000000E+00  0.00000000000E+00  0.23995320025E+02  0.23995320025E+02  0.00000000000E+00 0. -1.
          2   -1    0    0  504    0 -0.00000000000E+00 -0.00000000000E+00 -0.14456958593E+04  0.14456958593E+04  0.00000000000E+00 0. -1.
         21    1    1    2  503  501 -0.40522367055E+02  0.29410016578E+02 -0.90584872113E+02  0.10350183748E+03  0.00000000000E+00 0. -1.
         21    1    1    2  504  502  0.13700533945E+03 -0.32908453736E+02 -0.53945498291E+03  0.55755278490E+03  0.00000000000E+00 0. -1.
         21    1    1    2  505  503  0.60225076309E+01  0.30587250409E+02 -0.46576367998E+02  0.56046485543E+02  0.00000000000E+00 0. -1.
          2    1    1    2  501    0 -0.10250548002E+03 -0.27088813251E+02 -0.74508431623E+03  0.75259007137E+03  0.00000000000E+00 0. -1.
<scales pt_clust_3="55.28038" pt_clust_4="113.01922" pt_clust_5="31.17452" pt_clust_6="14000.00000"></scales>
<clustering>
<clus scale="   31.175">  1  5  2 -1</clus>
<clus scale="   55.280">  1  3  2 -1</clus>
<clus scale="  113.019">  1  4  2 -1</clus>
<clus scale="   31.175">  1  3  2 -1</clus>
</clustering>
</event>
<event>
 6    0  0.2572175E+002  0.9660074E+02  0.7546771E-02  0.1287611E+00
         21   -1    0    0  505  502  0.00000000000E+00  0.00000000000E+00  0.57898300802E+03  0.57898300802E+03  0.00000000000E+00 0.  1.
          1   -1    0    0  502    0 -0.00000000000E+00 -0.00000000000E+00 -0.66084848984E+03  0.66084848984E+03  0.00000000000E+00 0.  1.
         21    1    1    2  503  504  0.51837885528E+02  0.61051530338E+02  0.44895554123E+03  0.45604334633E+03  0.00000000000E+00 0.  1.
         21    1    1    2  504  501 -0.12065791784E+03 -0.72101060280E+02 -0.21935091145E+03  0.26052201133E+03  0.00000000000E+00 0.  1.
         21    1    1    2  505  503  0.29100938046E+02 -0.92365593213E+01  0.10247432363E+03  0.10692598200E+03  0.00000000000E+00 0.  1.
          1    1    1    2  501    0  0.39719094268E+02  0.20286089262E+02 -0.41394443523E+03  0.41634015820E+03  0.00000000000E+00 0.  1.
<scales pt_clust_3="14000.00000" pt_clust_4="96.60074" pt_clust_5="30.53160" pt_clust_6="44.65456"></scales>
<clustering>
<clus scale="   30.532">  1  5  2 -1</clus>
<clus scale="   44.655">  2  6  1 -1</clus>
<clus scale="   96.601">  2  4  1 -1</clus>
<clus scale="   30.532">  1  3  2 -1</clus>
</clustering>
</event>
<event>
 6    0  0.2572175E+002  0.1002680E+03  0.7546771E-02  0.1279733E+00
          2   -1    0    0  504    0 -0.00000000000E+00  0.00000000000E+00  0.50337123653E+02  0.50337123653E+02  0.00000000000E+00 0. -1.
         21   -1    0    0  505  502  0.00000000000E+00 -0.00000000000E+00 -0.98333497030E+03  0.98333497030E+03  0.00000000000E+00 0. -1.
         21    1    1    2  503  501 -0.30799319186E+02  0.24576160793E+02 -0.13729409445E+03  0.14283645932E+03  0.00000000000E+00 0. -1.
         21    1    1    2  504  502  0.54209229032E+02 -0.13614512033E+03 -0.21535622048E+03  0.26048500149E+03  0.00000000000E+00 0. -1.
         21    1    1    2  505  503 -0.25454244145E+02  0.24069477347E+02 -0.52634168626E+03  0.52750623596E+03  0.00000000000E+00 0. -1.
          2    1    1    2  501    0  0.20443342996E+01  0.87499482193E+02 -0.54005845461E+02  0.10284439718E+03  0.00000000000E+00 0. -1.
<scales pt_clust_3="50.12394" pt_clust_4="14000.00000" pt_clust_5="35.03225" pt_clust_6="100.26804"></scales>
<clustering>
<clus scale="   35.032">  2  5  1 -1</clus>
<clus scale="   50.124">  2  3  1 -1</clus>
<clus scale="  100.268">  1  6  2 -1</clus>
<clus scale="   35.032">  2  3  1 -1</clus>
</clustering>
</event>
<event>
 6    0  0.2572175E+002  0.2708311E+03  0.7546771E-02  0.1100805E+00
         -2   -1    0    0    0  501 -0.00000000000E+00  0.00000000000E+00  0.90149252801E+03  0.90149252801E+03  0.00000000000E+00 0.  1.
         21   -1    0    0  505  502  0.00000000000E+00 -0.00000000000E+00 -0.28392985153E+03  0.28392985153E+03  0.00000000000E+00 0.  1.
         21    1    1    2  503  504  0.98823444512E+02  0.15549972096E+03 -0.11088809383E+03  0.21504047470E+03  0.00000000000E+00 0.  1.
         21    1    1    2  504  501 -0.62316093859E+02 -0.23850946006E+03  0.67007520685E+02  0.25546049777E+03  0.00000000000E+00 0.  1.
         21    1    1    2  505  503  0.12029992559E+02  0.68292421326E+02  0.20973150314E+02  0.72446177026E+02  0.00000000000E+00 0. -1.
         -2    1    1    2    0  502 -0.48537343211E+02  0.14717317770E+02  0.64047009930E+03  0.64247523005E+03  0.00000000000E+00 0.  1.
<scales pt_clust_3="69.01451" pt_clust_4="247.29942" pt_clust_5="69.01451" pt_clust_6="50.71955"></scales>
<clustering>
<clus scale="   50.720">  1  6  2 -1</clus>
<clus scale="   69.015">  3  5 -1 -1</clus>
<clus scale="  247.299">  1  4  2 -1</clus>
<clus scale="  270.831">  2  3  1 -1</clus>
</clustering>
</event>
<event>
 6    0  0.2572175E+002  0.8038658E+02  0.7546771E-02  0.1327958E+00
         -2   -1    0    0    0  501 -0.00000000000E+00  0.00000000000E+00  0.54741748933E+03  0.54741748933E+03  0.00000000000E+00 0.  1.
         21   -1    0    0  503  502  0.00000000000E+00 -0.00000000000E+00 -0.28154858894E+03  0.28154858894E+03  0.00000000000E+00 0. -1.
         21    1    1    2  503  504  0.11432391267E+03  0.24380673098E+02 -0.19146976959E+03  0.22433244726E+03  0.00000000000E+00 0. -1.
         21    1    1    2  504  501 -0.27398271138E+02 -0.37536490368E+02  0.76409663074E+02  0.89432041135E+02  0.00000000000E+00 0.  1.
         21    1    1    2  505  502 -0.38700349257E+02  0.28337894079E+01 -0.60037400234E+02  0.71485920445E+02  0.00000000000E+00 0.  1.
         -2    1    1    2    0  505 -0.48225292270E+02  0.10322027862E+02  0.44096640714E+03  0.44371566943E+03  0.00000000000E+00 0.  1.
<scales pt_clust_3="14000.00000" pt_clust_4="47.10195" pt_clust_5="38.80396" pt_clust_6="80.38658"></scales>
<clustering>
<clus scale="   38.804">  2  5  1 -1</clus>
<clus scale="   47.102">  1  4  2 -1</clus>
<clus scale="   80.387">  1  6  2 -1</clus>
<clus scale="   38.804">  2  3  1 -1</clus>
</clustering>
</event>
<event>
 6    0  0.2572175E+002  0.1109969E+03  0.7546771E-02  0.1258735E+00
         21   -1    0    0  501  502  0.00000000000E+00  0.00000000000E+00  0.41497847850E+02  0.41497847850E+02  0.00000000000E+00 0. -1.
          2   -1    0    0  505    0 -0.00000000000E+00 -0.00000000000E+00 -0.24233254980E+04  0.24233254980E+04  0.00000000000E+00 0.  1.
         21    1    1    2  503  502  0.32160721991E+02  0.16631128569E+02  0.19453041345E+01  0.36258663581E+02  0.00000000000E+00 0. -1.
         21    1    1    2  504  503  0.27319848433E+02  0.50699331978E+02 -0.36517096921E+02  0.68193069655E+02  0.00000000000E+00 0. -1.
         21    1    1    2  505  504 -0.89662019993E+02  0.55076013503E+02 -0.65223512028E+03  0.66066882567E+03  0.00000000000E+00 0. -1.
          2    1    1    2  501    0  0.30181449568E+02 -0.12240647405E+03 -0.16950207371E+04  0.16997027870E+04  0.00000000000E+00 0.  1.
<scales pt_clust_3="32.14510" pt_clust_4="98.56447" pt_clust_5="110.99691" pt_clust_6="14000.00000"></scales>
<clustering>
<clus scale="   32.145">  3  4 -1 -1</clus>
<clus scale="   98.564">  1  3  2 -1</clus>
<clus scale="  110.997">  1  5  2 -1</clus>
<clus scale="   98.564">  1  3  2 -1</clus>
</clustering>
</event>
<event>
 6    0  0.2572175E+002  0.1009399E+03  0.7546771E-02  0.1278332E+00
         21   -1    0    0  503  502  0.00000000000E+00  0.00000000000E+00  0.86077087855E+03  0.86077087855E+03  0.00000000000E+00 0. -1.
          4   -1    0    0  504    0 -0.00000000000E+00 -0.00000000000E+00 -0.24550099781E+03  0.24550099781E+03  0.00000000000E+00 0.  1.
         21    1    1    2  503  505  0.51054101262E+02 -0.27536693896E+02  0.19195485910E+03  0.20052794992E+03  0.00000000000E+00 0. -1.
         21    1    1    2  504  502 -0.14982734017E+03  0.80031760590E+01  0.62925831576E+03  0.64689899570E+03  0.00000000000E+00 0. -1.
         21    1    1    2  505  501  0.78330964298E+02  0.44363743587E+02 -0.57183888924E+02  0.10664838895E+03  0.00000000000E+00 0.  1.
          4    1    1    2  501    0  0.20442274613E+02 -0.24830225750E+02 -0.14875940519E+03  0.15219654180E+03  0.00000000000E+00 0.  1.
<scales pt_clust_3="59.35271" pt_clust_4="100.93990" pt_clust_5="14000.00000" pt_clust_6="32.16250"></scales>
<clustering>
<clus scale="   32.163">  2  6  1 -1</clus>
<clus scale="   59.353">  1  3  2 -1</clus>
<clus scale="  100.940">  1  4  2 -1</clus>
<clus scale="   59.353">  1  3  2 -1</clus>
</clustering>
</event>
<event>
 6    0  0.2572175E+002  0.1293872E+03  0.7546771E-02  0.1228368E+00
          1   -1    0    0  504    0 -0.00000000000E+00  0.00000000000E+00  0.15675865618E+04  0.15675865618E+04  0.00000000000E+00 0.  1.
         21   -1    0    0  505  502  0.00000000000E+00 -0.00000000000E+00 -0.44038789968E+02  0.44038789968E+02  0.00000000000E+00 0.  1.
         21    1    1    2  503  502 -0.60205029432E+02 -0.22520299501E+02  0.42265891949E+02  0.76929936180E+02  0.00000000000E+00 0.  1.
         21    1    1    2  504  503 -0.15447986175E+01  0.14905879318E+03  0.78478813241E+03  0.79881995656E+03  0.00000000000E+00 0.  1.
         21    1    1    2  505  501  0.97045255416E+01 -0.10698672462E+03  0.13928299607E+03  0.17589795352E+03  0.00000000000E+00 0.  1.
          1    1    1    2  501    0  0.52045302507E+02 -0.19551769066E+02  0.55721075145E+03  0.55997750555E+03  0.00000000000E+00 0.  1.
<scales pt_clust_3="61.84214" pt_clust_4="129.38722" pt_clust_5="14000.00000" pt_clust_6="55.59663"></scales>
<clustering>
<clus scale="   55.597">  1  6  2 -1</clus>
<clus scale="   61.842">  2  3  1 -1</clus>
<clus scale="  129.387">  1  4  2 -1</clus>
<clus scale="   61.842">  2  3  1 -1</clus>
</clustering>
</event>
<event>
 6    0  0.2572175E+002  0.1572791E+03  0.7546771E-02  0.1191803E+00
         21   -1    0    0  505  502  0.00000000000E+00  0.00000000000E+00  0.48353749017E+03  0.48353749017E+03  0.00000000000E+00 0.  1.
         -1   -1    0    0    0  501 -0.00000000000E+00 -0.00000000000E+00 -0.83403199731E+03  0.83403199731E+03  0.00000000000E+00 0.  1.
         21    1    1    2  503  501  0.87296599149E+02  0.13359503901E+00 -0.11568641482E+03  0.14492777734E+03  0.00000000000E+00 0. -1.
         21    1    1    2  504  503  0.91745301075E+02 -0.45224517604E+02  0.18314109254E+02  0.10391277044E+03  0.00000000000E+00 0. -1.
         21    1    1    2  505  504 -0.16577728944E+03  0.79785871825E+02  0.38648696772E+03  0.42804213724E+03  0.00000000000E+00 0.  1.
         -1    1    1    2    0  502 -0.13264610783E+02 -0.34694949261E+02 -0.63960916929E+03  0.64068680246E+03  0.00000000000E+00 0.  1.
<scales pt_clust_3="81.73859" pt_clust_4="157.27909" pt_clust_5="14000.00000" pt_clust_6="37.14417"></scales>
<clustering>
<clus scale="   37.144">  2  6  1 -1</clus>
<clus scale="   81.739">  2  3  1 -1</clus>
<clus scale="  157.279">  2  4  1 -1</clus>
<clus scale="  157.279">  1  3  2 -1</clus>
</clustering>
</event>
<event>
 6    0  0.2572175E+002  0.8821988E+02  0.7546771E-02  0.1307221E+00
         21   -1    0    0  503  502  0.00000000000E+00  0.00000000000E+00  0.40382717555E+03  0.40382717555E+03  0.00000000000E+00 0.  1.
          1   -1    0    0  505    0 -0.00000000000E+00 -0.00000000000E+00 -0.21067596791E+03  0.21067596791E+03  0.00000000000E+00 0.  1.
         21    1    1    2  503  501  0.67142364448E+02 -0.11460652379E+03  0.14415426505E+03  0.19601837804E+03  0.00000000000E+00 0.  1.
         21    1    1    2  504  502  0.17936862874E+02  0.35653806980E+02  0.13330501659E+03  0.13915154490E+03  0.00000000000E+00 0.  1.
         21    1    1    2  505  504 -0.19520115356E+02  0.57267605379E+02  0.80466224859E+02  0.10067485720E+03  0.00000000000E+00 0.  1.
          1    1    1    2  501    0 -0.65559111967E+02  0.21685111430E+02 -0.16477429885E+03  0.17865836331E+03  0.00000000000E+00 0.  1.
<scales pt_clust_3="14000.00000" pt_clust_4="39.91146" pt_clust_5="88.21988" pt_clust_6="68.90875"></scales>
<clustering>
<clus scale="   39.911">  1  4  2 -1</clus>
<clus scale="   68.909">  2  6  1 -1</clus>
<clus scale="   88.220">  1  5  2 -1</clus>
<clus scale="   39.911">  1  3  2 -1</clus>
</clustering>
</event>
<event>
 6    0  0.2572175E+002  0.8736830E+02  0.7546771E-02  0.1309353E+00
         21   -1    0    0  503  502  0.00000000000E+00  0.00000000000E+00  0.15194316185E+03  0.15194316185E+03  0.00000000000E+00 0.  1.
          1   -1    0    0  505    0 -0.00000000000E+00 -0.00000000000E+00 -0.11228521992E+04  0.11228521992E+04  0.00000000000E+00 0. -1.
         21    1    1    2  503  501 -0.91775747266E+01  0.10236031350E+03 -0.18141449948E+02  0.10435982878E+03  0.00000000000E+00 0.  1.
         21    1    1    2  504  502 -0.44527909058E+02 -0.74953270402E+02  0.88953005874E+02  0.12455265827E+03  0.00000000000E+00 0.  1.
         21    1    1    2  505  504  0.23344385408E+02  0.18949170861E+02 -0.19027327328E+03  0.19263423873E+03  0.00000000000E+00 0. -1.
          1    1    1    2  501    0  0.30361098377E+02 -0.46356213958E+02 -0.85144731998E+03  0.85324863525E+03  0.00000000000E+00 0. -1.
<scales pt_clust_3="87.36830" pt_clust_4="14000.00000" pt_clust_5="30.06712" pt_clust_6="59.30665"></scales>
<clustering>
<clus scale="   30.067">  2  5  1 -1</clus>
<clus scale="   59.307">  2  6  1 -1</clus>
<clus scale="   87.368">  2  3  1 -1</clus>
<clus scale="   87.368">  1  3  2 -1</clus>
</clustering>
</event>
<event>
 6    0  0.2572175E+002  0.1607534E+03  0.7546771E-02  0.1187849E+00
          2   -1    0    0  505    0 -0.00000000000E+00  0.00000000000E+00  0.51252720640E+03  0.51252720640E+03  0.00000000000E+00 0.  1.
         21   -1    0    0  504  502  0.00000000000E+00 -0.00000000000E+00 -0.33811981152E+03  0.33811981152E+03  0.00000000000E+00 0.  1.
         21    1    1    2  503  501  0.37500519920E+02 -0.27084241991E+02  0.47128785191E+02  0.66037622248E+02  0.00000000000E+00 0. -1.
         21    1    1    2  504  503  0.63883946048E+02 -0.57026964950E+02  0.22031769923E+02  0.88423029692E+02  0.00000000000E+00 0. -1.
         21    1    1    2  505  502 -0.13418865287E+03  0.87206345734E+02 -0.27303075340E+03  0.31647643451E+03  0.00000000000E+00 0.  1.
          2    1    1    2  501    0  0.32804186905E+02 -0.30951387931E+01  0.37827759317E+03  0.37970993147E+03  0.00000000000E+00 0.  1.
<scales pt_clust_3="30.49392" pt_clust_4="30.49392" pt_clust_5="155.30699" pt_clust_6="32.94988"></scales>
<clustering>
<clus scale="   30.494">  3  4 -1 -1</clus>
<clus scale="   32.950">  1  6  2 -1</clus>
<clus scale="  155.307">  2  5  1 -1</clus>
<clus scale="  155.307">  2  3  1 -1</clus>
</clustering>
</event>
<event>
 6    0  0.2572175E+002  0.1860161E+03  0.7546771E-02  0.1162104E+00
         21   -1    0    0  505  502  0.00000000000E+00  0.00000000000E+00  0.75007290679E+02  0.75007290679E+02  0.00000000000E+00 0.  1.
          2   -1    0    0  503    0 -0.00000000000E+00 -0.00000000000E+00 -0.12679790719E+04  0.12679790719E+04  0.00000000000E+00 0. -1.
         21    1    1    2  503  504  0.52908795959E+02 -0.28708313529E+00 -0.50372096039E+02  0.73053207773E+02  0.00000000000E+00 0.  1.
         21    1    1    2  504  502  0.71024584075E+00 -0.49068917616E+02 -0.40747182142E+02  0.63785546778E+02  0.00000000000E+00 0.  1.
         21    1    1    2  505  501 -0.22085534499E+03  0.98231425387E+02 -0.29838170526E+03  0.38400278434E+03  0.00000000000E+00 0.  1.
          2    1    1    2  501    0  0.16723630319E+03 -0.48875424635E+02 -0.80347079773E+03  0.82214482364E+03  0.00000000000E+00 0. -1.
<scales pt_clust_3="53.80261" pt_clust_4="49.07406" pt_clust_5="14000.00000" pt_clust_6="186.01611"></scales>
<clustering>
<clus scale="   49.074">  1  4  2 -1</clus>
<clus scale="   53.803">  1  3  2 -1</clus>
<clus scale="  186.016">  2  6  1 -1</clus>
<clus scale="   49.074">  1  3  2 -1</clus>
</clustering>
</event>
<event>
 6    0  0.2572175E+002  0.7734920E+02  0.7546771E-02  0.1336747E+00
          2   -1    0    0  503    0 -0.00000000000E+00  0.00000000000E+00  0.10029133319E+03  0.10029133319E+03  0.00000000000E+00 0.  1.
         21   -1    0    0  505  502  0.00000000000E+00 -0.00000000000E+00 -0.97425574606E+03  0.97425574606E+03  0.00000000000E+00 0.  1.
         21    1    1    2  503  502  0.68801125958E+02  0.99090530568E+02 -0.46113747112E+03  0.47665532144E+03  0.00000000000E+00 0.  1.
         21    1    1    2  504  501 -0.46523706162E+02 -0.79914708472E+01 -0.12129448130E+03  0.13015632921E+03  0.00000000000E+00 0.  1.
         21    1    1    2  505  504  0.26049041500E+02 -0.32655348640E+02 -0.36188729940E+03  0.36429018903E+03  0.00000000000E+00 0. -1.
          2    1    1    2  501    0 -0.48326461296E+02 -0.58443711081E+02  0.70354838952E+02  0.10344523957E+03  0.00000000000E+00 0.  1.
<scales pt_clust_3="14000.00000" pt_clust_4="43.71408" pt_clust_5="41.77229" pt_clust_6="77.34920"></scales>
<clustering>
<clus scale="   41.772">  2  5  1 -1</clus>
<clus scale="   43.714">  2  4  1 -1</clus>
<clus scale="   77.349">  1  6  2 -1</clus>
<clus scale="   41.772">  2  3  1 -1</clus>
</clustering>
</event>
<event>
 6    0  0.2572175E+002  0.1629777E+03  0.7546771E-02  0.1185375E+00
         -1   -1    0    0    0  501 -0.00000000000E+00  0.00000000000E+00  0.62215583239E+02  0.62215583239E+02  0.00000000000E+00 0. -1.
         21   -1    0    0  503  502  0.00000000000E+00 -0.00000000000E+00 -0.19126555041E+04  0.19126555041E+04  0.00000000000E+00 0.  1.
         21    1    1    2  503  504  0.82409241778E+02  0.32274151338E+00 -0.72312163863E+03  0.72780237122E+03  0.00000000000E+00 0.  1.
         21    1    1    2  504  501  0.85365822370E+02  0.35817579265E+02 -0.90836671845E+03  0.91307191272E+03  0.00000000000E+00 0.  1.
         21    1    1    2  505  502 -0.11204402417E+03 -0.48823718884E+02 -0.24298654161E+03  0.27199279086E+03  0.00000000000E+00 0.  1.
         -1    1    1    2    0  505 -0.55731039978E+02  0.12683398106E+02  0.24034977870E+02  0.62004012497E+02  0.00000000000E+00 0. -1.
<scales pt_clust_3="33.48508" pt_clust_4="33.48508" pt_clust_5="159.06651" pt_clust_6="57.15608"></scales>
<clustering>
<clus scale="   33.485">  3  4 -1 -1</clus>
<clus scale="   57.156">  1  6  2 -1</clus>
<clus scale="  159.067">  1  5  2 -1</clus>
<clus scale="  162.978">  2  3  1 -1</clus>
</clustering>
</event>
<event>
 6    0  0.2572175E+002  0.6343794E+02  0.7546771E-02  0.1383946E+00
         -1   -1    0    0    0  501 -0.00000000000E+00  0.00000000000E+00  0.15762044900E+04  0.15762044900E+04  0.00000000000E+00 0.  1.
         21   -1    0    0  505  502  0.00000000000E+00 -0.00000000000E+00 -0.75003773588E+02  0.75003773588E+02  0.00000000000E+00 0.  1.
         21    1    1    2  503  501  0.84165148650E+02  0.30427693350E+02  0.11353031114E+03  0.14456399384E+03  0.00000000000E+00 0.  1.
         21    1    1    2  504  502 -0.54201492794E+02 -0.38653765325E+02  0.64343817070E+03  0.64687293567E+03  0.00000000000E+00 0.  1.
         21    1    1    2  505  503 -0.23074499491E+02 -0.45122011991E+02 -0.45560887561E+02  0.68148536068E+02  0.00000000000E+00 0.  1.
         -1    1    1    2    0  504 -0.68891563654E+01  0.53348083966E+02  0.78979312210E+03  0.79162279797E+03  0.00000000000E+00 0.  1.
<scales pt_clust_3="14000.00000" pt_clust_4="63.43794" pt_clust_5="50.67967" pt_clust_6="51.70449"></scales>
<clustering>
<clus scale="   50.680">  2  5  1 -1</clus>
<clus scale="   51.704">  1  6  2 -1</clus>
<clus scale="   63.438">  1  4  2 -1</clus>
<clus scale="   50.680">  2  3  1 -1</clus>
</clustering>
</event>
<event>
 6    0  0.2572175E+002  0.9320816E+02  0.7546771E-02  0.1295264E+00
          2   -1    0    0  505    0 -0.00000000000E+00  0.00000000000E+00  0.22622911068E+04  0.22622911068E+04  0.00000000000E+00 0. -1.
         21   -1    0    0  503  502  0.00000000000E+00 -0.00000000000E+00 -0.12281381405E+03  0.12281381405E+03  0.00000000000E+00 0.  1.
         21    1    1    2  503  501 -0.13608258167E+03  0.55253553943E+02  0.22555241777E+02  0.14859395408E+03  0.00000000000E+00 0.  1.
         21    1    1    2  504  502  0.73018022473E+02  0.64845176295E+01 -0.31871264754E+02  0.79934085920E+02  0.00000000000E+00 0.  1.
         21    1    1    2  505  504  0.93290188459E+02 -0.75056849564E+02  0.97580108529E+03  0.98311970176E+03  0.00000000000E+00 0.  1.
          2    1    1    2  501    0 -0.30225629264E+02  0.13318777992E+02  0.11729922304E+04  0.11734571791E+04  0.00000000000E+00 0. -1.
<scales pt_clust_3="93.20816" pt_clust_4="72.66790" pt_clust_5="14000.00000" pt_clust_6="33.02996"></scales>
<clustering>
<clus scale="   33.030">  1  6  2 -1</clus>
<clus scale="   72.668">  2  4  1 -1</clus>
<clus scale="   93.208">  2  3  1 -1</clus>
<clus scale="   72.668">  2  3  1 -1</clus>
</clustering>
</event>
<event>
 6    0  0.2572175E+002  0.1266395E+03  0.7546771E-02  0.1232529E+00
         21   -1    0    0  504  502  0.00000000000E+00  0.00000000000E+00  0.11772458963E+04  0.11772458963E+04  0.00000000000E+00 0.  1.
         -3   -1    0    0    0  501 -0.00000000000E+00 -0.00000000000E+00 -0.61167705015E+03  0.61167705015E+03  0.00000000000E+00 0. -1.
         21    1    1    2  503  501 -0.91045320688E+02 -0.16722797754E+01 -0.15372964491E+03  0.17867526595E+03  0.00000000000E+00 0. -1.
         21    1    1    2  504  505  0.58924115377E+02  0.19273808793E+02  0.47946917724E+03  0.48346067369E+03  0.00000000000E+00 0.  1.
         21    1    1    2  505  503  0.63480645689E+02 -0.46671242655E+01  0.68117354591E+03  0.68414104838E+03  0.00000000000E+00 0.  1.
         -3    1    1    2    0  502 -0.31359440378E+02 -0.12934404752E+02 -0.44134423209E+03  0.44264595844E+03  0.00000000000E+00 0. -1.
<scales pt_clust_3="122.60338" pt_clust_4="31.30179" pt_clust_5="31.30179" pt_clust_6="33.92217"></scales>
<clustering>
<clus scale="   31.302">  4  5 -1 -1</clus>
<clus scale="   33.922">  2  6  1 -1</clus>
<clus scale="  122.603">  2  3  1 -1</clus>
<clus scale="  126.639">  1  3  2 -1</clus>
</clustering>
</event>
<event>
 6    0  0.2572175E+002  0.6688700E+02  0.7546771E-02  0.1371011E+00
          1   -1    0    0  505    0 -0.00000000000E+00  0.00000000000E+00  0.22382028428E+04  0.22382028428E+04  0.00000000000E+00 0.  1.
         21   -1    0    0  504  502  0.00000000000E+00 -0.00000000000E+00 -0.20271851837E+02  0.20271851837E+02  0.00000000000E+00 0. -1.
         21    1    1    2  503  502  0.71815323570E+00 -0.55938711844E+02  0.89804474410E+02  0.10580405876E+03  0.00000000000E+00 0. -1.
         21    1    1    2  504  501  0.34754527819E+02 -0.15958352861E+01  0.28763405334E+02  0.45141526121E+02  0.00000000000E+00 0. -1.
         21    1    1    2  505  503  0.51189170335E+01 -0.56021635157E+02  0.40620057845E+03  0.41007747664E+03  0.00000000000E+00 0. -1.
          1    1    1    2  501    0 -0.40591598088E+02  0.11355618229E+03  0.16931625328E+04  0.16974516331E+04  0.00000000000E+00 0.  1.
<scales pt_clust_3="66.88700" pt_clust_4="34.79115" pt_clust_5="57.28481" pt_clust_6="14000.00000"></scales>
<clustering>
<clus scale="   34.791">  2  4  1 -1</clus>
<clus scale="   57.285">  1  5  2 -1</clus>
<clus scale="   66.887">  2  3  1 -1</clus>
<clus scale="   34.791">  2  3  1 -1</clus>
</clustering>
</event>
<event>
 6    0  0.3606806E+002  0.6903444E+02  0.7546771E-02  0.1363408E+00
         21   -1    0    0  503  502  0.00000000000E+00  0.00000000000E+00  0.54623709303E+03  0.54623709303E+03  0.00000000000E+00 0. -1.
          2   -1    0    0  505    0 -0.00000000000E+00 -0.00000000000E+00 -0.19123040009E+04  0.19123040009E+04  0.00000000000E+00 0.  1.
         21    1    1    2  503  504 -0.40836971046E+02  0.18820386132E+02  0.97164950774E+02  0.10706489993E+03  0.00000000000E+00 0. -1.
         21    1    1    2  504  501 -0.32097854525E+02  0.64417104045E+02  0.41864195956E+02  0.83261314317E+02  0.00000000000E+00 0. -1.
         21    1    1    2  505  502  0.10478983800E+03 -0.35042505931E+02  0.37310661877E+03  0.38912393442E+03  0.00000000000E+00 0. -1.
          2    1    1    2  501    0 -0.31855012425E+02 -0.48194984247E+02 -0.18782026734E+04  0.18790909453E+04  0.00000000000E+00 0.  1.
<scales pt_clust_3="44.96515" pt_clust_4="69.03444" pt_clust_5="14000.00000" pt_clust_6="57.77792"></scales>
<clustering>
<clus scale="   44.965">  1  3  2 -1</clus>
<clus scale="   57.778">  2  6  1 -1</clus>
<clus scale="   69.034">  2  4  1 -1</clus>
<clus scale="   44.965">  1  3  2 -1</clus>
</clustering>
</event>
<event>
 6    0  0.2572175E+002  0.1545623E+03  0.7546771E-02  0.1194976E+00
         21   -1    0    0  505  502  0.00000000000E+00  0.00000000000E+00  0.11329235805E+04  0.11329235805E+04  0.00000000000E+00 0. -1.
          1   -1    0    0  503    0 -0.00000000000E+00 -0.00000000000E+00 -0.25304971174E+03  0.25304971174E+03  0.00000000000E+00 0. -1.
         21    1    1    2  503  504  0.15905448701E+03 -0.61733401729E+02 -0.18165216526E+03  0.24921246331E+03  0.00000000000E+00 0. -1.
         21    1    1    2  504  502  0.75977383669E+02  0.10601497167E+03  0.33280740549E+03  0.35745280276E+03  0.00000000000E+00 0. -1.
         21    1    1    2  505  501 -0.20643944829E+03 -0.28831121652E+02  0.71368088776E+03  0.74349773971E+03  0.00000000000E+00 0. -1.
          1    1    1    2  501    0 -0.28592422392E+02 -0.15450448293E+02  0.15037740772E+02  0.35810286486E+02  0.00000000000E+00 0. -1.
<scales pt_clust_3="154.56234" pt_clust_4="128.94756" pt_clust_5="14000.00000" pt_clust_6="32.49989"></scales>
<clustering>
<clus scale="   32.500">  2  6  1 -1</clus>
<clus scale="  128.948">  1  4  2 -1</clus>
<clus scale="  154.562">  2  3  1 -1</clus>
<clus scale="  128.948">  1  3  2 -1</clus>
</clustering>
</event>
<event>
 6    0  0.2572175E+002  0.6326059E+02  0.7546771E-02  0.1384636E+00
          1   -1    0    0  504    0 -0.00000000000E+00  0.00000000000E+00  0.22107366276E+04  0.22107366276E+04  0.00000000000E+00 0. -1.
         21   -1    0    0  503  502  0.00000000000E+00 -0.00000000000E+00 -0.17283894021E+03  0.17283894021E+03  0.00000000000E+00 0.  1.
         21    1    1    2  503  501 -0.93294356598E+02  0.54889360319E+02 -0.14299782243E+03  0.17934619056E+03  0.00000000000E+00 0.  1.
         21    1    1    2  504  505  0.58560773717E+02  0.33324408508E+02  0.11819244644E+04  0.11838434524E+04  0.00000000000E+00 0. -1.
         21    1    1    2  505  502  0.33211555793E+02 -0.33431005136E+02  0.46042817147E+02  0.65883082452E+02  0.00000000000E+00 0.  1.
          1    1    1    2  501    0  0.15220270881E+01 -0.54782763692E+02  0.95292822836E+03  0.95450284241E+03  0.00000000000E+00 0. -1.
<scales pt_clust_3="63.26059" pt_clust_4="14000.00000" pt_clust_5="47.12366" pt_clust_6="54.97007"></scales>
<clustering>
<clus scale="   47.124">  2  5  1 -1</clus>
<clus scale="   54.970">  1  6  2 -1</clus>
<clus scale="   63.261">  2  3  1 -1</clus>
<clus scale="   47.124">  2  3  1 -1</clus>
</clustering>
</event>
<event>
 6    0  0.2572175E+002  0.1855163E+03  0.7546771E-02  0.1162569E+00
         21   -1    0    0  503  502  0.00000000000E+00  0.00000000000E+00  0.90338054315E+03  0.90338054315E+03  0.00000000000E+00 0. -1.
          2   -1    0    0  504    0 -0.00000000000E+00 -0.00000000000E+00 -0.15974263833E+04  0.15974263833E+04  0.00000000000E+00 0.  1.
         21    1    1    2  503  505  0.80453630170E+02  0.37350178530E+02  0.80341055925E+03  0.80829224242E+03  0.00000000000E+00 0. -1.
         21    1    1    2  504  502 -0.18409764212E+02 -0.24857843367E+02  0.38472167229E+02  0.49365366873E+02  0.00000000000E+00 0.  1.
         21    1    1    2  505  501 -0.58551894359E+02  0.17443054237E+03 -0.13107201499E+03  0.22590752878E+03  0.00000000000E+00 0.  1.
          2    1    1    2  501    0 -0.34919715994E+01 -0.18692287754E+03 -0.14048565516E+04  0.14172417884E+04  0.00000000000E+00 0.  1.
<scales pt_clust_3="64.73374" pt_clust_4="30.93270" pt_clust_5="14000.00000" pt_clust_6="185.51627"></scales>
<clustering>
<clus scale="   30.933">  1  4  2 -1</clus>
<clus scale="   64.734">  1  3  2 -1</clus>
<clus scale="  185.516">  2  6  1 -1</clus>
<clus scale="   30.933">  1  3  2 -1</clus>
</clustering>
</event>
<event>
 6    0  0.2572175E+002  0.1087034E+03  0.7546771E-02  0.1262990E+00
          2   -1    0    0  503    0 -0.00000000000E+00  0.00000000000E+00  0.57899364738E+03  0.57899364738E+03  0.00000000000E+00 0. -1.
         21   -1    0    0  505  502  0.00000000000E+00 -0.00000000000E+00 -0.14576692749E+03  0.14576692749E+03  0.00000000000E+00 0. -1.
         21    1    1    2  503  502 -0.14747119657E+02  0.51447817970E+02  0.42796893795E+02  0.68526853353E+02  0.00000000000E+00 0. -1.
         21    1    1    2  504  501 -0.33381828435E+02  0.63609739607E+01 -0.23053117665E+02  0.41064031627E+02  0.00000000000E+00 0. -1.
         21    1    1    2  505  504 -0.51603439545E+02 -0.53022002930E+02 -0.81582332918E+02  0.11013593788E+03  0.00000000000E+00 0. -1.
          2    1    1    2  501    0  0.99732387637E+02 -0.47867890009E+01  0.49506527668E+03  0.50503375201E+03  0.00000000000E+00 0. -1.
<scales pt_clust_3="53.51967" pt_clust_4="33.97440" pt_clust_5="33.97440" pt_clust_6="96.45378"></scales>
<clustering>
<clus scale="   33.974">  4  5 -1 -1</clus>
<clus scale="   53.520">  1  3  2 -1</clus>
<clus scale="   96.454">  1  6  2 -1</clus>
<clus scale="  108.703">  2  3  1 -1</clus>
</clustering>
</event>
<event>
 6    0  0.2572175E+002  0.1206619E+03  0.7546771E-02  0.1242009E+00
         21   -1    0    0  503  502  0.00000000000E+00  0.00000000000E+00  0.30241524909E+03  0.30241524909E+03  0.00000000000E+00 0.  1.
          1   -1    0    0  505    0 -0.00000000000E+00 -0.00000000000E+00 -0.17260550945E+04  0.17260550945E+04  0.00000000000E+00 0.  1.
         21    1    1    2  503  501 -0.25492623036E+02  0.10966772867E+03 -0.56595448652E+03  0.57704537547E+03  0.00000000000E+00 0. -1.
         21    1    1    2  504  502  0.12878715331E+02 -0.51767330091E+02  0.11114808700E+03  0.12328671873E+03  0.00000000000E+00 0.  1.
         21    1    1    2  505  504  0.58140990389E+02 -0.33163790527E+02  0.17280980629E+03  0.18531983411E+03  0.00000000000E+00 0.  1.
          1    1    1    2  501    0 -0.45527082684E+02 -0.24736608048E+02 -0.11416432521E+04  0.11428184152E+04  0.00000000000E+00 0.  1.
<scales pt_clust_3="110.50104" pt_clust_4="43.26619" pt_clust_5="43.26619" pt_clust_6="51.81327"></scales>
<clustering>
<clus scale="   43.266">  4  5 -1 -1</clus>
<clus scale="   51.813">  2  6  1 -1</clus>
<clus scale="  110.501">  2  3  1 -1</clus>
<clus scale="  120.662">  1  3  2 -1</clus>
</clustering>
</event>
<event>
 6    0  0.2572175E+002  0.8156073E+02  0.7546771E-02  0.1324680E+00
          1   -1    0    0  504    0 -0.00000000000E+00  0.00000000000E+00  0.28601333975E+04  0.28601333975E+04  0.00000000000E+00 0. -1.
         21   -1    0    0  503  502  0.00000000000E+00 -0.00000000000E+00 -0.31217873163E+02  0.31217873163E+02  0.00000000000E+00 0. -1.
         21    1    1    2  503  505 -0.92516663422E+02 -0.23796120402E+02  0.68879813694E+02  0.11777103673E+03  0.00000000000E+00 0. -1.
         21    1    1    2  504  502  0.22263579255E+02  0.69432798269E+02  0.23585005319E+03  0.24686398690E+03  0.00000000000E+00 0.  1.
         21    1    1    2  505  501  0.19584889877E+02 -0.48691453797E+02  0.76487025363E+03  0.76666872277E+03  0.00000000000E+00 0.  1.
          1    1    1    2  501    0  0.50668194290E+02  0.30547759301E+01  0.17593154039E+04  0.17600475243E+04  0.00000000000E+00 0. -1.
<scales pt_clust_3="81.56073" pt_clust_4="14000.00000" pt_clust_5="71.94548" pt_clust_6="50.76020"></scales>
<clustering>
<clus scale="   50.760">  1  6  2 -1</clus>
<clus scale="   71.945">  1  5  2 -1</clus>
<clus scale="   81.561">  2  3  1 -1</clus>
<clus scale="   81.561">  2  3  1 -1</clus>
</clustering>
</event>
<event>
 6    0  0.2572175E+002  0.1222244E+03  0.7546771E-02  0.1239472E+00
         21   -1    0    0  503  502  0.00000000000E+00  0.00000000000E+00  0.12810028731E+03  0.12810028731E+03  0.00000000000E+00 0. -1.
         -1   -1    0    0    0  501 -0.00000000000E+00 -0.00000000000E+00 -0.98123017703E+03  0.98123017703E+03  0.00000000000E+00 0. -1.
         21    1    1    2  503  501  0.42495112593E+02  0.68494065137E+01 -0.54840849825E+01  0.43391521660E+02  0.00000000000E+00 0. -1.
         21    1    1    2  504  502  0.28156756196E+02  0.94627465154E+02  0.76657609642E+02  0.12499419665E+03  0.00000000000E+00 0. -1.
         21    1    1    2  505  504 -0.44638423564E+02 -0.12942871402E+03 -0.67627919395E+03  0.68999849930E+03  0.00000000000E+00 0. -1.
         -1    1    1    2    0  505 -0.26013445224E+02  0.27951842352E+02 -0.24802422044E+03  0.25094624673E+03  0.00000000000E+00 0. -1.
<scales pt_clust_3="42.34769" pt_clust_4="14000.00000" pt_clust_5="122.22444" pt_clust_6="38.18383"></scales>
<clustering>
<clus scale="   38.184">  2  6  1 -1</clus>
<clus scale="   42.348">  1  3  2 -1</clus>
<clus scale="  122.224">  2  5  1 -1</clus>
<clus scale="   42.348">  1  3  2 -1</clus>
</clustering>
</event>
<event>
 6    0  0.2572175E+002  0.7031963E+02  0.7546771E-02  0.1359009E+00
         21   -1    0    0  503  502  0.00000000000E+00  0.00000000000E+00  0.23791639471E+02  0.23791639471E+02  0.00000000000E+00 0.  1.
          2   -1    0    0  504    0 -0.00000000000E+00 -0.00000000000E+00 -0.13871555297E+04  0.13871555297E+04  0.00000000000E+00 0.  1.
         21    1    1    2  503  501 -0.50770055466E+02 -0.22880629477E+02 -0.54321356304E+02  0.77794161015E+02  0.00000000000E+00 0.  1.
         21    1    1    2  504  505  0.55741020914E+02  0.57691331885E+02 -0.39880479591E+03  0.40679308798E+03  0.00000000000E+00 0.  1.
         21    1    1    2  505  502 -0.36221856442E+02  0.28704682775E+02 -0.74783556944E+02  0.87912240823E+02  0.00000000000E+00 0.  1.
          2    1    1    2  501    0  0.31250890994E+02 -0.63515385182E+02 -0.83545418107E+03  0.83844767935E+03  0.00000000000E+00 0.  1.
<scales pt_clust_3="14000.00000" pt_clust_4="70.31963" pt_clust_5="46.21668" pt_clust_6="67.18217"></scales>
<clustering>
<clus scale="   46.217">  1  5  2 -1</clus>
<clus scale="   67.182">  2  6  1 -1</clus>
<clus scale="   70.320">  2  4  1 -1</clus>
<clus scale="   46.217">  1  3  2 -1</clus>
</clustering>
</event>
<event>
 6    0  0.2572175E+002  0.7079122E+02  0.7546771E-02  0.1357423E+00
         -4   -1    0    0    0  501 -0.00000000000E+00  0.00000000000E+00  0.10250277948E+03  0.10250277948E+03  0.00000000000E+00 0.  1.
         21   -1    0    0  501  502  0.00000000000E+00 -0.00000000000E+00 -0.25347317582E+04  0.25347317582E+04  0.00000000000E+00 0.  1.
         21    1    1    2  503  502  0.29616329508E+02  0.60549975281E+02 -0.20632824271E+04  0.20643831525E+04  0.00000000000E+00 0.  1.
         21    1    1    2  504  503 -0.68396689677E+02 -0.12575807370E+03 -0.42460990245E+03  0.44809236717E+03  0.00000000000E+00 0.  1.
         21    1    1    2  505  504  0.35662188409E+02  0.34713208218E+02 -0.11369562551E+02  0.51049637212E+02  0.00000000000E+00 0.  1.
         -4    1    1    2    0  505  0.31181717607E+01  0.30494890205E+02  0.67032913424E+02  0.73709380718E+02  0.00000000000E+00 0.  1.
<scales pt_clust_3="70.79122" pt_clust_4="14000.00000" pt_clust_5="65.41892" pt_clust_6="30.65390"></scales>
<clustering>
<clus scale="   30.654">  1  6  2 -1</clus>
<clus scale="   65.419">  1  5  2 -1</clus>
<clus scale="   70.791">  2  3  1 -1</clus>
<clus scale="   70.791">  2  3  1 -1</clus>
</clustering>
</event>
<event>
 6    0  0.2572175E+002  0.8043812E+02  0.7546771E-02  0.1327813E+00
         21   -1    0    0  504  502  0.00000000000E+00  0.00000000000E+00  0.39317788613E+03  0.39317788613E+03  0.00000000000E+00 0.  1.
          2   -1    0    0  505    0 -0.00000000000E+00 -0.00000000000E+00 -0.14429952415E+04  0.14429952415E+04  0.00000000000E+00 0.  1.
         21    1    1    2  503  502 -0.48960546094E+02 -0.31319406542E+02  0.44628641528E+02  0.73278618604E+02  0.00000000000E+00 0. -1.
         21    1    1    2  504  501  0.61511557516E+02 -0.47699883109E+02  0.32579808677E+03  0.33496767590E+03  0.00000000000E+00 0.  1.
         21    1    1    2  505  503 -0.19305260667E+02  0.11174765264E+03 -0.10179916281E+04  0.10242886243E+04  0.00000000000E+00 0.  1.
          2    1    1    2  501    0  0.67542492440E+01 -0.32728362986E+02 -0.40225245559E+03  0.40363820887E+03  0.00000000000E+00 0.  1.
<scales pt_clust_3="58.28704" pt_clust_4="14000.00000" pt_clust_5="80.43812" pt_clust_6="33.41804"></scales>
<clustering>
<clus scale="   33.418">  2  6  1 -1</clus>
<clus scale="   58.287">  1  3  2 -1</clus>
<clus scale="   80.438">  2  5  1 -1</clus>
<clus scale="   58.287">  1  3  2 -1</clus>
</clustering>
</event>
<event>
 6    0  0.2572175E+002  0.1024029E+03  0.7546771E-02  0.1275323E+00
          3   -1    0    0  504    0 -0.00000000000E+00  0.00000000000E+00  0.17265694787E+03  0.17265694787E+03  0.00000000000E+00 0. -1.
         21   -1    0    0  503  502  0.00000000000E+00 -0.00000000000E+00 -0.35588703590E+03  0.35588703590E+03  0.00000000000E+00 0. -1.
         21    1    1    2  503  505  0.38391450465E+02 -0.36041080940E+02 -0.74196846365E+02  0.90983707303E+02  0.00000000000E+00 0. -1.
         21    1    1    2  504  502 -0.37626847652E+02 -0.49751042973E+02 -0.16352639183E+03  0.17501950396E+03  0.00000000000E+00 0. -1.
         21    1    1    2  505  501  0.94398980322E+02  0.10402778731E+03 -0.17870712074E+02  0.14160618055E+03  0.00000000000E+00 0. -1.
          3    1    1    2  501    0 -0.95163583134E+02 -0.18235663398E+02  0.72363862243E+02  0.12093459196E+03  0.00000000000E+00 0. -1.
<scales pt_clust_3="52.65798" pt_clust_4="73.39228" pt_clust_5="102.40288" pt_clust_6="14000.00000"></scales>
<clustering>
<clus scale="   52.658">  2  3  1 -1</clus>
<clus scale="   73.392">  2  4  1 -1</clus>
<clus scale="  102.403">  2  5  1 -1</clus>
<clus scale="   52.658">  2  3  1 -1</clus>
</clustering>
</event>
<event>
 6    0  0.2572175E+002  0.1697010E+03  0.7546771E-02  0.1178160E+00
         21   -1    0    0  504  502  0.00000000000E+00  0.00000000000E+00  0.85962407536E+02  0.85962407536E+02  0.00000000000E+00 0. -1.
          1   -1    0    0  502    0 -0.00000000000E+00 -0.00000000000E+00 -0.18478370386E+04  0.18478370386E+04  0.00000000000E+00 0.  1.
         21    1    1    2  503  505 -0.98961210516E+02  0.77894963563E+02 -0.74105538641E+02  0.14612521135E+03  0.00000000000E+00 0. -1.
         21    1    1    2  504  503 -0.78705795015E+02 -0.15692070296E+02  0.66034111576E+01  0.80526072039E+02  0.00000000000E+00 0. -1.
         21    1    1    2  505  501  0.13796964141E+03 -0.65037723236E+02 -0.99290563978E+03  0.10045532026E+04  0.00000000000E+00 0.  1.
          1    1    1    2  501    0  0.39697364121E+02  0.28348299695E+01 -0.70146686380E+03  0.70259496012E+03  0.00000000000E+00 0.  1.
<scales pt_clust_3="14000.00000" pt_clust_4="78.98131" pt_clust_5="169.70104" pt_clust_6="39.79845"></scales>
<clustering>
<clus scale="   39.798">  2  6  1 -1</clus>
<clus scale="   78.981">  1  4  2 -1</clus>
<clus scale="  169.701">  2  5  1 -1</clus>
<clus scale="   78.981">  1  3  2 -1</clus>
</clustering>
</event>
<event>
 6    0  0.2572175E+002  0.1768501E+03  0.7546771E-02  0.1170887E+00
         21   -1    0    0  503  502  0.00000000000E+00  0.00000000000E+00  0.39038174588E+03  0.39038174588E+03  0.00000000000E+00 0.  1.
          2   -1    0    0  504    0 -0.00000000000E+00 -0.00000000000E+00 -0.15913101198E+04  0.15913101198E+04  0.00000000000E+00 0.  1.
         21    1    1    2  503  501  0.82979992841E+02  0.10581362441E+03  0.32382625331E+03  0.35063605727E+03  0.00000000000E+00 0.  1.
         21    1    1    2  504  505  0.88463716546E+02  0.15203429626E+02 -0.33048591729E+02  0.95651360852E+02  0.00000000000E+00 0. -1.
         21    1    1    2  505  502 -0.37504251751E+02 -0.44637696785E+01 -0.49589936117E+01  0.38093119547E+02  0.00000000000E+00 0.  1.
          2    1    1    2  501    0 -0.13393945764E+03 -0.11655328436E+03 -0.14867470419E+04  0.14973113280E+04  0.00000000000E+00 0.  1.
<scales pt_clust_3="176.85011" pt_clust_4="86.60245" pt_clust_5="37.76896" pt_clust_6="14000.00000"></scales>
<clustering>
<clus scale="   37.769">  1  5  2 -1</clus>
<clus scale="   86.602">  1  4  2 -1</clus>
<clus scale="  176.850">  1  3  2 -1</clus>
<clus scale="   37.769">  1  3  2 -1</clus>
</clustering>
</event>
<event>
 6    0  0.2572175E+002  0.8977129E+02  0.7546771E-02  0.1303407E+00
          1   -1    0    0  503    0 -0.00000000000E+00  0.00000000000E+00  0.26381956554E+03  0.26381956554E+03  0.00000000000E+00 0. -1.
         21   -1    0    0  504  502  0.00000000000E+00 -0.00000000000E+00 -0.15180532615E+04  0.15180532615E+04  0.00000000000E+00 0.  1.
         21    1    1    2  503  502 -0.68926999675E+02  0.46370286037E+02 -0.74203032246E+03  0.74666601246E+03  0.00000000000E+00 0.  1.
         21    1    1    2  504  505  0.71615538109E+02 -0.13975572104E+03 -0.75223937350E+03  0.76845593362E+03  0.00000000000E+00 0.  1.
         21    1    1    2  505  501 -0.16710409465E+02  0.48107687626E+02  0.51811380788E+02  0.72649890380E+02  0.00000000000E+00 0. -1.
          1    1    1    2  501    0  0.14021871031E+02  0.45277747375E+02  0.18822461920E+03  0.19410099059E+03  0.00000000000E+00 0. -1.
<scales pt_clust_3="83.52073" pt_clust_4="89.77129" pt_clust_5="14000.00000" pt_clust_6="47.39923"></scales>
<clustering>
<clus scale="   47.399">  1  6  2 -1</clus>
<clus scale="   83.521">  2  3  1 -1</clus>
<clus scale="   89.771">  2  4  1 -1</clus>
<clus scale="   83.521">  2  3  1 -1</clus>
</clustering>
</event>
<event>
 6    0  0.2572175E+002  0.9813122E+02  0.7546771E-02  0.1284276E+00
         -3   -1    0    0    0  501 -0.00000000000E+00  0.00000000000E+00  0.20772924320E+04  0.20772924320E+04  0.00000000000E+00 0. -1.
         21   -1    0    0  504  502  0.00000000000E+00 -0.00000000000E+00 -0.72090284735E+02  0.72090284735E+02  0.00000000000E+00 0. -1.
         21    1    1    2  503  502 -0.37071106900E+02  0.20404918539E+02  0.24829766464E+02  0.49062663707E+02  0.00000000000E+00 0. -1.
         21    1    1    2  504  501  0.11402484614E+03  0.41262454825E+02  0.98026290927E+02  0.15592757751E+03  0.00000000000E+00 0. -1.
         21    1    1    2  505  503 -0.37266674976E+02 -0.85638350376E+02  0.40227712033E+02  0.10169071213E+03  0.00000000000E+00 0. -1.
         -3    1    1    2    0  505 -0.39687064259E+02  0.23970977012E+02  0.18421183779E+04  0.18427017634E+04  0.00000000000E+00 0. -1.
<scales pt_clust_3="42.31581" pt_clust_4="14000.00000" pt_clust_5="98.13122" pt_clust_6="46.57019"></scales>
<clustering>
<clus scale="   42.316">  2  3  1 -1</clus>
<clus scale="   46.570">  1  6  2 -1</clus>
<clus scale="   98.131">  2  5  1 -1</clus>
<clus scale="   42.316">  2  3  1 -1</clus>
</clustering>
</event>
<event>
 6    0  0.2572175E+002  0.9606166E+02  0.7546771E-02  0.1288803E+00
         21   -1    0    0  505  502  0.00000000000E+00  0.00000000000E+00  0.40425570989E+02  0.40425570989E+02  0.00000000000E+00 0.  1.
          2   -1    0    0  503    0 -0.00000000000E+00 -0.00000000000E+00 -0.17008738790E+04  0.17008738790E+04  0.00000000000E+00 0. -1.
         21    1    1    2  503  502 -0.61414756068E+02 -0.14555690660E+03 -0.20375985465E+03  0.25783068803E+03  0.00000000000E+00 0.  1.
         21    1    1    2  504  501  0.20621126896E+02  0.51345801864E+02 -0.27692388203E+03  0.28239769596E+03  0.00000000000E+00 0.  1.
         21    1    1    2  505  504  0.42680459630E+02  0.52419550719E+02 -0.10122641717E+03  0.12172188984E+03  0.00000000000E+00 0.  1.
          2    1    1    2  501    0 -0.18868304579E+01  0.41791554016E+02 -0.10785381542E+04  0.10793491762E+04  0.00000000000E+00 0. -1.
<scales pt_clust_3="96.06166" pt_clust_4="72.87183" pt_clust_5="14000.00000" pt_clust_6="41.83413"></scales>
<clustering>
<clus scale="   41.834">  2  6  1 -1</clus>
<clus scale="   72.872">  2  4  1 -1</clus>
<clus scale="   96.062">  2  3  1 -1</clus>
<clus scale="   96.062">  1  3  2 -1</clus>
</clustering>
</event>
<event>
 6    0  0.2572175E+002  0.1344893E+03  0.7546771E-02  0.1220942E+00
          3   -1    0    0  504    0 -0.00000000000E+00  0.00000000000E+00  0.78512897735E+02  0.78512897735E+02  0.00000000000E+00 0. -1.
         21   -1    0    0  505  502  0.00000000000E+00 -0.00000000000E+00 -0.23317383952E+04  0.23317383952E+04  0.00000000000E+00 0. -1.
         21    1    1    2  503  501  0.34611011609E+02  0.83302402990E+02 -0.22852626205E+03  0.24568570352E+03  0.00000000000E+00 0. -1.
         21    1    1    2  504  502 -0.56238104103E+02  0.34241039816E+02 -0.25956959111E+03  0.26779011519E+03  0.00000000000E+00 0. -1.
         21    1    1    2  505  503  0.18814170187E+02 -0.15409811585E+03 -0.18222775204E+04  0.18288782255E+04  0.00000000000E+00 0. -1.
          3    1    1    2  501    0  0.28129223073E+01  0.36554673041E+02  0.57147876062E+02  0.67897248776E+02  0.00000000000E+00 0. -1.
<scales pt_clust_3="14000.00000" pt_clust_4="70.61257" pt_clust_5="134.48934" pt_clust_6="36.66274"></scales>
<clustering>
<clus scale="   36.663">  1  6  2 -1</clus>
<clus scale="   70.613">  1  4  2 -1</clus>
<clus scale="  134.489">  2  5  1 -1</clus>
<clus scale="  134.489">  2  3  1 -1</clus>
</clustering>
</event>
<event>
 6    0  0.2572175E+002  0.1810812E+03  0.7546771E-02  0.1166761E+00
          2   -1    0    0  505    0 -0.00000000000E+00  0.00000000000E+00  0.17108155451E+04  0.17108155451E+04  0.00000000000E+00 0.  1.
         21   -1    0    0  504  502  0.00000000000E+00 -0.00000000000E+00 -0.29465008036E+03  0.29465008036E+03  0.00000000000E+00 0. -1.
         21    1    1    2  503  502 -0.37490269835E+02  0.74852759200E+02 -0.91565588682E+02  0.12406737252E+03  0.00000000000E+00 0. -1.
         21    1    1    2  504  501 -0.11543965578E+03 -0.10712066270E+03 -0.12787075162E+03  0.20285975358E+03  0.00000000000E+00 0. -1.
         21    1    1    2  505  503  0.23535482268E+02 -0.95532090117E+02  0.13550392658E+03  0.16745630262E+03  0.00000000000E+00 0.  1.
          2    1    1    2  501    0  0.12939444334E+03  0.12779999362E+03  0.15000978785E+04  0.15110821968E+04  0.00000000000E+00 0.  1.
<scales pt_clust_3="83.71652" pt_clust_4="14000.00000" pt_clust_5="91.42048" pt_clust_6="181.08123"></scales>
<clustering>
<clus scale="   83.717">  2  3  1 -1</clus>
<clus scale="   91.420">  2  5  1 -1</clus>
<clus scale="  181.081">  1  6  2 -1</clus>
<clus scale="   83.717">  2  3  1 -1</clus>
</clustering>
</event>
<event>
 6    0  0.2572175E+002  0.3312895E+03  0.7546771E-02  0.1070568E+00
         21   -1    0    0  503  502  0.00000000000E+00  0.00000000000E+00  0.11470011338E+04  0.11470011338E+04  0.00000000000E+00 0.  1.
          2   -1    0    0  502    0 -0.00000000000E+00 -0.00000000000E+00 -0.21499917116E+04  0.21499917116E+04  0.00000000000E+00 0. -1.
         21    1    1    2  503  505  0.13134947528E+03  0.30264531238E+03  0.98427411346E+03  0.10380955641E+04  0.00000000000E+00 0.  1.
         21    1    1    2  504  501  0.34045297675E+02 -0.16095696642E+03 -0.11322924732E+02  0.16490735568E+03  0.00000000000E+00 0. -1.
         21    1    1    2  505  504 -0.16715207338E+02 -0.15521913110E+03 -0.52418645961E+02  0.16468178788E+03  0.00000000000E+00 0. -1.
          2    1    1    2  501    0 -0.14867956561E+03  0.13530785142E+02 -0.19235231205E+04  0.19293081378E+04  0.00000000000E+00 0. -1.
<scales pt_clust_3="324.73738" pt_clust_4="63.86588" pt_clust_5="63.86588" pt_clust_6="149.29399"></scales>
<clustering>
<clus scale="   63.866">  4  5 -1 -1</clus>
<clus scale="  149.294">  2  6  1 -1</clus>
<clus scale="  324.737">  1  3  2 -1</clus>
<clus scale="  324.737">  1  3  2 -1</clus>
</clustering>
</event>
<event>
 6    0  0.2925275E+002  0.1108848E+03  0.7546771E-02  0.1258940E+00
          1   -1    0    0  503    0 -0.00000000000E+00  0.00000000000E+00  0.26767641948E+04  0.26767641948E+04  0.00000000000E+00 0.  1.
         21   -1    0    0  504  502  0.00000000000E+00 -0.00000000000E+00 -0.28897931908E+03  0.28897931908E+03  0.00000000000E+00 0.  1.
         21    1    1    2  503  502 -0.75221616999E+02  0.35725706190E+02 -0.17136562819E+03  0.19052767850E+03  0.00000000000E+00 0.  1.
         21    1    1    2  504  505  0.13005286273E+02 -0.28300332539E+02 -0.52744422817E+02  0.61253738100E+02  0.00000000000E+00 0. -1.
         21    1    1    2  505  501 -0.48586160867E+02 -0.15994692087E+02 -0.36751586498E+02  0.62985111835E+02  0.00000000000E+00 0.  1.
          1    1    1    2  501    0  0.11080249159E+03  0.85693184358E+01  0.26486465132E+04  0.26509769854E+04  0.00000000000E+00 0.  1.
<scales pt_clust_3="14000.00000" pt_clust_4="31.14557" pt_clust_5="50.83521" pt_clust_6="110.88485"></scales>
<clustering>
<clus scale="   31.146">  2  4  1 -1</clus>
<clus scale="   50.835">  2  5  1 -1</clus>
<clus scale="  110.885">  1  6  2 -1</clus>
<clus scale="   31.146">  2  3  1 -1</clus>
</clustering>
</event>
<event>
 6    0  0.2572175E+002  0.7098117E+02  0.7546771E-02  0.1356788E+00
          1   -1    0    0  505    0 -0.00000000000E+00  0.00000000000E+00  0.15146968050E+04  0.15146968050E+04  0.00000000000E+00 0. -1.
         21   -1    0    0  504  502  0.00000000000E+00 -0.00000000000E+00 -0.32105437866E+02  0.32105437866E+02  0.00000000000E+00 0. -1.
         21    1    1    2  503  501 -0.63825331119E+02 -0.81758402915E+02  0.53566800206E+03  0.54561737305E+03  0.00000000000E+00 0. -1.
         21    1    1    2  504  503  0.40118348139E+02 -0.25612071970E+02  0.11820939011E+02  0.49042784251E+02  0.00000000000E+00 0. -1.
         21    1    1    2  505  502  0.14371221807E+02  0.42652453730E+02  0.62105467301E+02  0.76699758110E+02  0.00000000000E+00 0. -1.
          1    1    1    2  501    0  0.93357611727E+01  0.64718021155E+02  0.87299695880E+03  0.87544232750E+03  0.00000000000E+00 0. -1.
<scales pt_clust_3="70.98117" pt_clust_4="51.29845" pt_clust_5="45.00849" pt_clust_6="14000.00000"></scales>
<clustering>
<clus scale="   45.008">  2  5  1 -1</clus>
<clus scale="   51.298">  2  4  1 -1</clus>
<clus scale="   70.981">  2  3  1 -1</clus>
<clus scale="   45.008">  2  3  1 -1</clus>
</clustering>
</event>
<event>
 6    0  0.2572175E+002  0.1070375E+03  0.7546771E-02  0.1266156E+00
         21   -1    0    0  505  502  0.00000000000E+00  0.00000000000E+00  0.30175743424E+03  0.30175743424E+03  0.00000000000E+00 0. -1.
          2   -1    0    0  504    0 -0.00000000000E+00 -0.00000000000E+00 -0.44499362847E+03  0.44499362847E+03  0.00000000000E+00 0. -1.
         21    1    1    2  503  502 -0.42474640213E+02  0.29640001634E+01  0.57623930384E+02  0.71647733468E+02  0.00000000000E+00 0. -1.
         21    1    1    2  504  503 -0.54143175615E+02 -0.50527954473E+02  0.20034092916E+03  0.21359083675E+03  0.00000000000E+00 0. -1.
         21    1    1    2  505  501  0.12760393614E+03  0.99857205143E+02 -0.24330839517E+03  0.29232379496E+03  0.00000000000E+00 0. -1.
          2    1    1    2  501    0 -0.30986120316E+02 -0.52293250833E+02 -0.15789265859E+03  0.16918869753E+03  0.00000000000E+00 0. -1.
<scales pt_clust_3="42.57793" pt_clust_4="107.03749" pt_clust_5="14000.00000" pt_clust_6="61.24595"></scales>
<clustering>
<clus scale="   42.578">  1  3  2 -1</clus>
<clus scale="   61.246">  2  6  1 -1</clus>
<clus scale="  107.037">  1  4  2 -1</clus>
<clus scale="   42.578">  1  3  2 -1</clus>
</clustering>
</event>
<event>
 6    0  0.2572175E+002  0.2463661E+03  0.7546771E-02  0.1115623E+00
         21   -1    0    0  503  502  0.00000000000E+00  0.00000000000E+00  0.15772574243E+03  0.15772574243E+03  0.00000000000E+00 0.  1.
          1   -1    0    0  504    0 -0.00000000000E+00 -0.00000000000E+00 -0.93945886755E+03  0.93945886755E+03  0.00000000000E+00 0. -1.
         21    1    1    2  503  505 -0.57831510880E+02 -0.14044299826E+02 -0.32289729507E+02  0.67707847699E+02  0.00000000000E+00 0. -1.
         21    1    1    2  504  502  0.15243742469E+02 -0.21007530700E+03  0.28493306281E+02  0.21254617098E+03  0.00000000000E+00 0.  1.
         21    1    1    2  505  501  0.87970812278E+01  0.16073051826E+03 -0.38200345926E+03  0.41453387199E+03  0.00000000000E+00 0. -1.
          1    1    1    2  501    0  0.33790687184E+02  0.63389088568E+02 -0.39593324264E+03  0.40239671931E+03  0.00000000000E+00 0. -1.
<scales pt_clust_3="59.51240" pt_clust_4="224.83214" pt_clust_5="67.25363" pt_clust_6="67.25363"></scales>
<clustering>
<clus scale="   59.512">  1  3  2 -1</clus>
<clus scale="   67.254">  5  6 -1 -1</clus>
<clus scale="  224.832">  1  4  2 -1</clus>
<clus scale="   59.512">  1  3  2 -1</clus>
</clustering>
</event>
<event>
 6    0  0.2572175E+002  0.8677731E+02  0.7546771E-02  0.1310849E+00
         -2   -1    0    0    0  501 -0.00000000000E+00  0.00000000000E+00  0.19586422662E+03  0.19586422662E+03  0.00000000000E+00 0.  1.
         21   -1    0    0  503  502  0.00000000000E+00 -0.00000000000E+00 -0.78131623298E+03  0.78131623298E+03  0.00000000000E+00 0.  1.
         21    1    1    2  503  504 -0.20978486456E+02  0.26599721585E+02 -0.54087246534E+03  0.54193234434E+03  0.00000000000E+00 0.  1.
         21    1    1    2  504  501  0.72065439771E+02 -0.83862031269E+02  0.11589388411E+03  0.16018008700E+03  0.00000000000E+00 0.  1.
         21    1    1    2  505  502 -0.54116203885E+02 -0.15469764181E+02 -0.18875821030E+03  0.19697090923E+03  0.00000000000E+00 0.  1.
         -2    1    1    2    0  505  0.30292505703E+01  0.72732073865E+02  0.28284785183E+02  0.78097119028E+02  0.00000000000E+00 0.  1.
<scales pt_clust_3="33.87687" pt_clust_4="86.77731" pt_clust_5="71.22653" pt_clust_6="14000.00000"></scales>
<clustering>
<clus scale="   33.877">  2  3  1 -1</clus>
<clus scale="   71.227">  2  5  1 -1</clus>
<clus scale="   86.777">  1  4  2 -1</clus>
<clus scale="   33.877">  2  3  1 -1</clus>
</clustering>
</event>
<event>
 6    0  0.2572175E+002  0.1036125E+03  0.7546771E-02  0.1272878E+00
         21   -1    0    0  505  502  0.00000000000E+00  0.00000000000E+00  0.94720367812E+03  0.94720367812E+03  0.00000000000E+00 0. -1.
          2   -1    0    0  503    0 -0.00000000000E+00 -0.00000000000E+00 -0.76263938511E+03  0.76263938511E+03  0.00000000000E+00 0. -1.
         21    1    1    2  503  502 -0.30807735569E+02 -0.28502744604E+02 -0.41933434105E+02  0.59329047832E+02  0.00000000000E+00 0. -1.
         21    1    1    2  504  501 -0.58968970322E+02 -0.35836637921E+02  0.97940188503E+02  0.11980769843E+03  0.00000000000E+00 0. -1.
         21    1    1    2  505  504  0.11129822807E+03  0.36978930297E+02  0.82505024077E+03  0.83334424858E+03  0.00000000000E+00 0. -1.
          2    1    1    2  501    0 -0.21521522182E+02  0.27360452227E+02 -0.69649270216E+03  0.69736206839E+03  0.00000000000E+00 0. -1.
<scales pt_clust_3="47.96771" pt_clust_4="14000.00000" pt_clust_5="103.61248" pt_clust_6="34.81049"></scales>
<clustering>
<clus scale="   34.810">  2  6  1 -1</clus>
<clus scale="   47.968">  2  3  1 -1</clus>
<clus scale="  103.612">  1  5  2 -1</clus>
<clus scale="  103.612">  1  3  2 -1</clus>
</clustering>
</event>
<event>
 6    0  0.2572175E+002  0.8072308E+02  0.7546771E-02  0.1327012E+00
          1   -1    0    0  504    0 -0.00000000000E+00  0.00000000000E+00  0.10027303831E+04  0.10027303831E+04  0.00000000000E+00 0. -1.
         21   -1    0    0  505  502  0.00000000000E+00 -0.00000000000E+00 -0.82449007533E+02  0.82449007533E+02  0.00000000000E+00 0. -1.
         21    1    1    2  503  501 -0.89796119478E+02 -0.44152398555E+02  0.30895333108E+03  0.32475365765E+03  0.00000000000E+00 0. -1.
         21    1    1    2  504  502  0.10520281115E+03  0.32078974373E+02  0.35339742695E+01  0.11004172411E+03  0.00000000000E+00 0. -1.
         21    1    1    2  505  503 -0.32686458970E+02 -0.25171095892E+02  0.50567071075E-01  0.41255196345E+02  0.00000000000E+00 0. -1.
          1    1    1    2  501    0  0.17279767295E+02  0.37244520074E+02  0.60774350312E+03  0.60912881250E+03  0.00000000000E+00 0. -1.
<scales pt_clust_3="80.72308" pt_clust_4="14000.00000" pt_clust_5="39.36032" pt_clust_6="41.05782"></scales>
<clustering>
<clus scale="   41.058">  1  6  2 -1</clus>
<clus scale="   39.360">  2  5  1 -1</clus>
<clus scale="   80.723">  1  3  2 -1</clus>
<clus scale="   39.360">  2  3  1 -1</clus>
</clustering>
</event>
<event>
 6    0  0.2572175E+002  0.1419061E+03  0.7546771E-02  0.1210787E+00
          2   -1    0    0  505    0 -0.00000000000E+00  0.00000000000E+00  0.21556204100E+04  0.21556204100E+04  0.00000000000E+00 0.  1.
         21   -1    0    0  503  502  0.00000000000E+00 -0.00000000000E+00 -0.27487566539E+02  0.27487566539E+02  0.00000000000E+00 0.  1.
         21    1    1    2  503  504 -0.48252681159E+02  0.48044870910E+02  0.86787631150E+02  0.11031193852E+03  0.00000000000E+00 0.  1.
         21    1    1    2  504  501 -0.72839218093E+02  0.11276278201E+02  0.10119260281E+03  0.12519045094E+03  0.00000000000E+00 0.  1.
         21    1    1    2  505  502  0.13469240993E+03 -0.31585325685E+02  0.16600180382E+04  0.16657729633E+04  0.00000000000E+00 0.  1.
          2    1    1    2  501    0 -0.13600510681E+02 -0.27735823427E+02  0.28013457127E+03  0.28183262375E+03  0.00000000000E+00 0.  1.
<scales pt_clust_3="42.04131" pt_clust_4="42.04131" pt_clust_5="134.88803" pt_clust_6="30.89093"></scales>
<clustering>
<clus scale="   30.891">  1  6  2 -1</clus>
<clus scale="   42.041">  3  4 -1 -1</clus>
<clus scale="  134.888">  1  5  2 -1</clus>
<clus scale="  141.906">  2  3  1 -1</clus>
</clustering>
</event>
<event>
 6    0  0.2572175E+002  0.8218572E+02  0.7546771E-02  0.1322961E+00
         21   -1    0    0  503  502  0.00000000000E+00  0.00000000000E+00  0.71274679597E+02  0.71274679597E+02  0.00000000000E+00 0. -1.
          2   -1    0    0  505    0 -0.00000000000E+00 -0.00000000000E+00 -0.12623696803E+04  0.12623696803E+04  0.00000000000E+00 0. -1.
         21    1    1    2  503  504 -0.16580678019E+02 -0.37413136019E+02  0.35107493783E+02  0.53918436087E+02  0.00000000000E+00 0. -1.
         21    1    1    2  504  501 -0.40963244973E+02 -0.88660134629E+01 -0.28274392539E+02  0.50557243861E+02  0.00000000000E+00 0. -1.
         21    1    1    2  505  502 -0.72608100255E+01  0.98909755007E+02 -0.16245220148E+03  0.19033280527E+03  0.00000000000E+00 0. -1.
          2    1    1    2  501    0  0.64804733017E+02 -0.52630605525E+02 -0.10354759004E+04  0.10388358747E+04  0.00000000000E+00 0. -1.
<scales pt_clust_3="40.92263" pt_clust_4="53.74539" pt_clust_5="14000.00000" pt_clust_6="82.18572"></scales>
<clustering>
<clus scale="   40.923">  1  3  2 -1</clus>
<clus scale="   53.745">  1  4  2 -1</clus>
<clus scale="   82.186">  2  6  1 -1</clus>
<clus scale="   40.923">  1  3  2 -1</clus>
</clustering>
</event>
<event>
 6    0  0.2572175E+002  0.1685175E+03  0.7546771E-02  0.1179403E+00
          4   -1    0    0  503    0 -0.00000000000E+00  0.00000000000E+00  0.15476830635E+04  0.15476830635E+04  0.00000000000E+00 0.  1.
         21   -1    0    0  505  502  0.00000000000E+00 -0.00000000000E+00 -0.27978221830E+03  0.27978221830E+03  0.00000000000E+00 0. -1.
         21    1    1    2  503  502  0.19023264570E+02  0.39107064489E+02 -0.28406628888E+01  0.43581147914E+02  0.00000000000E+00 0.  1.
         21    1    1    2  504  501 -0.99339081717E+01 -0.11654147267E+03  0.84367683147E+03  0.85174596761E+03  0.00000000000E+00 0.  1.
         21    1    1    2  505  504 -0.11563806413E+01  0.11978028789E+03 -0.23759547811E+03  0.26608319338E+03  0.00000000000E+00 0. -1.
          4    1    1    2  501    0 -0.79329757567E+01 -0.42345879711E+02  0.66466015473E+03  0.66605497289E+03  0.00000000000E+00 0.  1.
<scales pt_clust_3="43.48847" pt_clust_4="33.65378" pt_clust_5="159.13304" pt_clust_6="33.65378"></scales>
<clustering>
<clus scale="   33.654">  4  6 -1 -1</clus>
<clus scale="   43.488">  2  3  1 -1</clus>
<clus scale="  159.133">  2  5  1 -1</clus>
<clus scale="   43.488">  2  3  1 -1</clus>
</clustering>
</event>
<event>
 6    0  0.2572175E+002  0.1203016E+03  0.7546771E-02  0.1242600E+00
         21   -1    0    0  504  502  0.00000000000E+00  0.00000000000E+00  0.72602095741E+02  0.72602095741E+02  0.00000000000E+00 0. -1.
          1   -1    0    0  502    0 -0.00000000000E+00 -0.00000000000E+00 -0.33700067730E+04  0.33700067730E+04  0.00000000000E+00 0. -1.
         21    1    1    2  503  501  0.15327777320E+03 -0.48630305771E+02 -0.18968709221E+04  0.19036749401E+04  0.00000000000E+00 0. -1.
         21    1    1    2  504  505 -0.21283573769E+02  0.45297579815E+02  0.33282763484E+02  0.60104938188E+02  0.00000000000E+00 0. -1.
         21    1    1    2  505  503 -0.96087307065E+02 -0.15908058673E+02 -0.84629441122E+02  0.12902704838E+03  0.00000000000E+00 0. -1.
          1    1    1    2  501    0 -0.35906892363E+02  0.19240784630E+02 -0.13491870775E+04  0.13498019421E+04  0.00000000000E+00 0. -1.
<scales pt_clust_3="14000.00000" pt_clust_4="50.26579" pt_clust_5="120.30164" pt_clust_6="40.73712"></scales>
<clustering>
<clus scale="   40.737">  2  6  1 -1</clus>
<clus scale="   50.266">  1  4  2 -1</clus>
<clus scale="  120.302">  1  5  2 -1</clus>
<clus scale="   50.266">  1  3  2 -1</clus>
</clustering>
</event>
<event>
 6    0  0.2572175E+002  0.1352569E+03  0.7546771E-02  0.1219857E+00
         21   -1    0    0  503  502  0.00000000000E+00  0.00000000000E+00  0.86028571056E+03  0.86028571056E+03  0.00000000000E+00 0.  1.
         -1   -1    0    0    0  501 -0.00000000000E+00 -0.00000000000E+00 -0.63833656292E+02  0.63833656292E+02  0.00000000000E+00 0.  1.
         21    1    1    2  503  501 -0.76592647730E+02  0.13917793225E+03  0.52071995375E+03  0.54441363020E+03  0.00000000000E+00 0.  1.
         21    1    1    2  504  505  0.25267475180E+02 -0.26364838585E+02  0.53952221758E+02  0.65149000362E+02  0.00000000000E+00 0.  1.
         21    1    1    2  505  502  0.24133509584E+02 -0.61034214453E+02  0.24348409468E+03  0.25217475287E+03  0.00000000000E+00 0.  1.
         -1    1    1    2    0  504  0.27191662965E+02 -0.51778879209E+02 -0.21704215926E+02  0.62381983424E+02  0.00000000000E+00 0.  1.
<scales pt_clust_3="127.07275" pt_clust_4="34.56244" pt_clust_5="34.56244" pt_clust_6="58.48452"></scales>
<clustering>
<clus scale="   34.562">  4  5 -1 -1</clus>
<clus scale="   58.485">  2  6  1 -1</clus>
<clus scale="  127.073">  2  3  1 -1</clus>
<clus scale="  135.257">  1  3  2 -1</clus>
</clustering>
</event>
<event>
 6    0  0.2572175E+002  0.1410852E+03  0.7546771E-02  0.1211876E+00
          2   -1    0    0  504    0 -0.00000000000E+00  0.00000000000E+00  0.77004893094E+03  0.77004893094E+03  0.00000000000E+00 0.  1.
         21   -1    0    0  505  502  0.00000000000E+00 -0.00000000000E+00 -0.20209585200E+04  0.20209585200E+04  0.00000000000E+00 0. -1.
         21    1    1    2  503  502  0.68624897935E+02 -0.89787056173E+01 -0.10911303165E+04  0.10933230819E+04  0.00000000000E+00 0. -1.
         21    1    1    2  504  503  0.57330678436E+02  0.45084513501E+02 -0.90407907736E+03  0.90701620613E+03  0.00000000000E+00 0.  1.
         21    1    1    2  505  501 -0.63679250068E+02 -0.38956151509E+02  0.42093584480E+02  0.85700049498E+02  0.00000000000E+00 0. -1.
          2    1    1    2  501    0 -0.62276326303E+02  0.28503436249E+01  0.70220622027E+03  0.70496811350E+03  0.00000000000E+00 0.  1.
<scales pt_clust_3="56.19908" pt_clust_4="56.19908" pt_clust_5="128.75061" pt_clust_6="62.34152"></scales>
<clustering>
<clus scale="   56.199">  3  4 -1 -1</clus>
<clus scale="   62.342">  1  6  2 -1</clus>
<clus scale="  128.751">  1  5  2 -1</clus>
<clus scale="  141.085">  2  3  1 -1</clus>
</clustering>
</event>
<event>
 6    0  0.2572175E+002  0.1451780E+03  0.7546771E-02  0.1206527E+00
          1   -1    0    0  504    0 -0.00000000000E+00  0.00000000000E+00  0.13153325645E+04  0.13153325645E+04  0.00000000000E+00 0.  1.
         21   -1    0    0  505  502  0.00000000000E+00 -0.00000000000E+00 -0.76807836494E+02  0.76807836494E+02  0.00000000000E+00 0. -1.
         21    1    1    2  503  502  0.25905035103E+02  0.17054972037E+02 -0.42629136008E+00  0.31018134038E+02  0.00000000000E+00 0. -1.
         21    1    1    2  504  503  0.12265534883E+03 -0.91588162385E+02  0.66916666922E+02  0.16706455757E+03  0.00000000000E+00 0. -1.
         21    1    1    2  505  501 -0.45717895853E+01  0.50752317989E+02  0.10100683425E+03  0.11313301731E+03  0.00000000000E+00 0. -1.
          1    1    1    2  501    0 -0.14398859435E+03  0.23780872359E+02  0.10710275182E+04  0.10809246921E+04  0.00000000000E+00 0.  1.
<scales pt_clust_3="31.01520" pt_clust_4="14000.00000" pt_clust_5="52.48326" pt_clust_6="145.17796"></scales>
<clustering>
<clus scale="   31.015">  2  3  1 -1</clus>
<clus scale="   52.483">  2  5  1 -1</clus>
<clus scale="  145.178">  1  6  2 -1</clus>
<clus scale="   31.015">  2  3  1 -1</clus>
</clustering>
</event>
<event>
 6    0  0.2572175E+002  0.9807836E+02  0.7546771E-02  0.1284390E+00
         21   -1    0    0  503  502  0.00000000000E+00  0.00000000000E+00  0.72411848550E+03  0.72411848550E+03  0.00000000000E+00 0.  1.
         -2   -1    0    0    0  501 -0.00000000000E+00 -0.00000000000E+00 -0.55034729262E+03  0.55034729262E+03  0.00000000000E+00 0.  1.
         21    1    1    2  503  504  0.27492443237E+02  0.54775960571E+02  0.65864946546E+03  0.66149479109E+03  0.00000000000E+00 0.  1.
         21    1    1    2  504  501 -0.87521847363E+02 -0.12168949405E+03 -0.16677084527E+03  0.22423407761E+03  0.00000000000E+00 0.  1.
         21    1    1    2  505  502  0.67218653599E+02  0.94907840491E+01 -0.25673858538E+01  0.67933893188E+02  0.00000000000E+00 0.  1.
         -2    1    1    2    0  505 -0.71892494730E+01  0.57422749431E+02 -0.31554004145E+03  0.32080301623E+03  0.00000000000E+00 0.  1.
<scales pt_clust_3="61.58320" pt_clust_4="14000.00000" pt_clust_5="98.07836" pt_clust_6="57.87104"></scales>
<clustering>
<clus scale="   57.871">  2  6  1 -1</clus>
<clus scale="   61.583">  1  3  2 -1</clus>
<clus scale="   98.078">  1  5  2 -1</clus>
<clus scale="   61.583">  1  3  2 -1</clus>
</clustering>
</event>
<event>
 6    0  0.2572175E+002  0.1357562E+03  0.7546771E-02  0.1219156E+00
         21   -1    0    0  504  502  0.00000000000E+00  0.00000000000E+00  0.82271735838E+02  0.82271735838E+02  0.00000000000E+00 0. -1.
          2   -1    0    0  503    0 -0.00000000000E+00 -0.00000000000E+00 -0.12681781315E+04  0.12681781315E+04  0.00000000000E+00 0.  1.
         21    1    1    2  503  505 -0.33213285058E+02  0.26072363165E+02 -0.65904279274E+02  0.78270457083E+02  0.00000000000E+00 0. -1.
         21    1    1    2  504  501 -0.60999634825E+02  0.54101486215E+02  0.22731523959E+02  0.84644246355E+02  0.00000000000E+00 0. -1.
         21    1    1    2  505  502  0.11782531914E+02  0.33266693684E+02  0.93290481462E+00  0.35303983888E+02  0.00000000000E+00 0. -1.
          2    1    1    2  501    0  0.82430387969E+02 -0.11344054306E+03 -0.11436665451E+04  0.11522311800E+04  0.00000000000E+00 0.  1.
<scales pt_clust_3="43.43057" pt_clust_4="135.75616" pt_clust_5="35.29166" pt_clust_6="14000.00000"></scales>
<clustering>
<clus scale="   35.292">  1  5  2 -1</clus>
<clus scale="   43.431">  1  3  2 -1</clus>
<clus scale="  135.756">  1  4  2 -1</clus>
<clus scale="   35.292">  1  3  2 -1</clus>
</clustering>
</event>
<event>
 6    0  0.2572175E+002  0.2434158E+03  0.7546771E-02  0.1117538E+00
          2   -1    0    0  503    0 -0.00000000000E+00  0.00000000000E+00  0.13949612486E+04  0.13949612486E+04  0.00000000000E+00 0. -1.
         21   -1    0    0  505  502  0.00000000000E+00 -0.00000000000E+00 -0.16386039131E+03  0.16386039131E+03  0.00000000000E+00 0. -1.
         21    1    1    2  503  504 -0.17182899024E+03  0.23467402540E+01  0.29685094313E+03  0.34300319461E+03  0.00000000000E+00 0.  1.
         21    1    1    2  504  502  0.26463862837E+03  0.11568199626E+03  0.93497484889E+02  0.30357487967E+03  0.00000000000E+00 0. -1.
         21    1    1    2  505  501  0.34551985500E+02 -0.24442680773E+02 -0.12772570401E+02  0.44208855448E+02  0.00000000000E+00 0.  1.
          2    1    1    2  501    0 -0.12736162363E+03 -0.93586055745E+02  0.85352499963E+03  0.86803471013E+03  0.00000000000E+00 0. -1.
<scales pt_clust_3="243.41576" pt_clust_4="14000.00000" pt_clust_5="42.32357" pt_clust_6="157.34670"></scales>
<clustering>
<clus scale="   42.324">  2  5  1 -1</clus>
<clus scale="  157.347">  1  6  2 -1</clus>
<clus scale="  243.416">  1  3  2 -1</clus>
<clus scale="   42.324">  2  3  1 -1</clus>
</clustering>
</event>
<event>
 6    0  0.2572175E+002  0.1078819E+03  0.7546771E-02  0.1264543E+00
         21   -1    0    0  504  502  0.00000000000E+00  0.00000000000E+00  0.76332262775E+03  0.76332262775E+03  0.00000000000E+00 0. -1.
          1   -1    0    0  505    0 -0.00000000000E+00 -0.00000000000E+00 -0.39773787222E+03  0.39773787222E+03  0.00000000000E+00 0.  1.
         21    1    1    2  503  502  0.35979454831E+02  0.91559794357E+02  0.60170477516E+03  0.60969365550E+03  0.00000000000E+00 0. -1.
         21    1    1    2  504  501 -0.33060548060E+02 -0.26113908531E+01  0.70946290525E+02  0.78314719813E+02  0.00000000000E+00 0. -1.
         21    1    1    2  505  503 -0.99196709723E+02 -0.31360919062E+02  0.37573178773E+02  0.11061301111E+03  0.00000000000E+00 0.  1.
          1    1    1    2  501    0  0.96277802952E+02 -0.57587484441E+02 -0.34463948892E+03  0.36243911355E+03  0.00000000000E+00 0.  1.
<scales pt_clust_3="89.52961" pt_clust_4="33.16352" pt_clust_5="14000.00000" pt_clust_6="107.88186"></scales>
<clustering>
<clus scale="   33.164">  1  4  2 -1</clus>
<clus scale="   89.530">  1  3  2 -1</clus>
<clus scale="  107.882">  2  6  1 -1</clus>
<clus scale="   33.164">  1  3  2 -1</clus>
</clustering>
</event>
<event>
 6    0  0.2572175E+002  0.7604461E+02  0.7546771E-02  0.1340666E+00
          1   -1    0    0  504    0 -0.00000000000E+00  0.00000000000E+00  0.84853425223E+03  0.84853425223E+03  0.00000000000E+00 0. -1.
         21   -1    0    0  503  502  0.00000000000E+00 -0.00000000000E+00 -0.10490302880E+03  0.10490302880E+03  0.00000000000E+00 0. -1.
         21    1    1    2  503  501  0.33403914681E+02  0.12023891556E+02  0.61444252555E+01  0.36029841047E+02  0.00000000000E+00 0. -1.
         21    1    1    2  504  505  0.53785672016E+02 -0.21315105560E+02  0.19757445009E+03  0.20587106540E+03  0.00000000000E+00 0. -1.
         21    1    1    2  505  502 -0.20924731856E+02 -0.59106143884E+02 -0.70149146291E+02  0.94086573821E+02  0.00000000000E+00 0. -1.
          1    1    1    2  501    0 -0.66264854841E+02  0.68397357889E+02  0.61006149438E+03  0.61744980077E+03  0.00000000000E+00 0. -1.
<scales pt_clust_3="35.50205" pt_clust_4="14000.00000" pt_clust_5="49.07210" pt_clust_6="76.04461"></scales>
<clustering>
<clus scale="   35.502">  2  3  1 -1</clus>
<clus scale="   49.072">  2  5  1 -1</clus>
<clus scale="   76.045">  1  6  2 -1</clus>
<clus scale="   35.502">  2  3  1 -1</clus>
</clustering>
</event>
<event>
 6    0  0.2572175E+002  0.8417473E+02  0.7546771E-02  0.1317605E+00
          2   -1    0    0  504    0 -0.00000000000E+00  0.00000000000E+00  0.16187462877E+04  0.16187462877E+04  0.00000000000E+00 0.  1.
         21   -1    0    0  505  502  0.00000000000E+00 -0.00000000000E+00 -0.28507859672E+02  0.28507859672E+02  0.00000000000E+00 0. -1.
         21    1    1    2  503  501  0.33525784026E+02  0.52097721320E+02  0.12368847990E+03  0.13833651298E+03  0.00000000000E+00 0. -1.
         21    1    1    2  504  502  0.48241547085E+01 -0.38208578252E+02  0.51266041178E+02  0.64120003889E+02  0.00000000000E+00 0. -1.
         21    1    1    2  505  503  0.33199990737E+01  0.64319151995E+02  0.64636020269E+02  0.91245771538E+02  0.00000000000E+00 0. -1.
          2    1    1    2  501    0 -0.41669937809E+02 -0.78208295063E+02  0.13506478867E+04  0.13535518590E+04  0.00000000000E+00 0.  1.
<scales pt_clust_3="84.17473" pt_clust_4="38.51192" pt_clust_5="41.76331" pt_clust_6="14000.00000"></scales>
<clustering>
<clus scale="   38.512">  2  4  1 -1</clus>
<clus scale="   41.763">  2  5  1 -1</clus>
<clus scale="   84.175">  2  3  1 -1</clus>
<clus scale="   38.512">  2  3  1 -1</clus>
</clustering>
</event>
<event>
 6    0  0.2572175E+002  0.1085169E+03  0.7546771E-02  0.1263341E+00
          2   -1    0    0  503    0 -0.00000000000E+00  0.00000000000E+00  0.19311972936E+04  0.19311972936E+04  0.00000000000E+00 0.  1.
         21   -1    0    0  505  502  0.00000000000E+00 -0.00000000000E+00 -0.81330388196E+02  0.81330388196E+02  0.00000000000E+00 0. -1.
         21    1    1    2  503  504 -0.63951241953E+02 -0.55145658074E+02  0.44558956802E+02  0.95479346369E+02  0.00000000000E+00 0. -1.
         21    1    1    2  504  502 -0.33702837593E+02 -0.18573744480E+02 -0.37072248350E+02  0.53434229137E+02  0.00000000000E+00 0. -1.
         21    1    1    2  505  501 -0.60209625190E+01  0.35649159479E+02  0.27621895923E+02  0.45498172442E+02  0.00000000000E+00 0.  1.
          2    1    1    2  501    0  0.10367504207E+03  0.38070243075E+02  0.18147583010E+04  0.18181159338E+04  0.00000000000E+00 0.  1.
<scales pt_clust_3="14000.00000" pt_clust_4="37.64994" pt_clust_5="36.15404" pt_clust_6="108.51688"></scales>
<clustering>
<clus scale="   36.154">  2  5  1 -1</clus>
<clus scale="   37.650">  2  4  1 -1</clus>
<clus scale="  108.517">  1  6  2 -1</clus>
<clus scale="   36.154">  2  3  1 -1</clus>
</clustering>
</event>
<event>
 6    0  0.2572175E+002  0.8398189E+02  0.7546771E-02  0.1318117E+00
         21   -1    0    0  504  502  0.00000000000E+00  0.00000000000E+00  0.73925106614E+03  0.73925106614E+03  0.00000000000E+00 0. -1.
          1   -1    0    0  503    0 -0.00000000000E+00 -0.00000000000E+00 -0.66400142228E+03  0.66400142228E+03  0.00000000000E+00 0.  1.
         21    1    1    2  503  502  0.36730262817E+02  0.79590188196E+01  0.98109542811E+02  0.10506160373E+03  0.00000000000E+00 0. -1.
         21    1    1    2  504  505  0.28275008812E+02 -0.32298269892E+02  0.22405771282E+03  0.22813266543E+03  0.00000000000E+00 0. -1.
         21    1    1    2  505  501 -0.36385432542E+02  0.10328765817E+03  0.40153014939E+03  0.41619550803E+03  0.00000000000E+00 0. -1.
          1    1    1    2  501    0 -0.28619839087E+02 -0.78948407101E+02 -0.64844776117E+03  0.65386271123E+03  0.00000000000E+00 0.  1.
<scales pt_clust_3="37.58268" pt_clust_4="50.73858" pt_clust_5="14000.00000" pt_clust_6="83.98189"></scales>
<clustering>
<clus scale="   37.583">  1  3  2 -1</clus>
<clus scale="   50.739">  1  4  2 -1</clus>
<clus scale="   83.982">  2  6  1 -1</clus>
<clus scale="   37.583">  1  3  2 -1</clus>
</clustering>
</event>
<event>
 6    0  0.2572175E+002  0.7257874E+02  0.7546771E-02  0.1351537E+00
          1   -1    0    0  503    0 -0.00000000000E+00  0.00000000000E+00  0.11218353843E+04  0.11218353843E+04  0.00000000000E+00 0. -1.
         21   -1    0    0  504  502  0.00000000000E+00 -0.00000000000E+00 -0.30012554600E+03  0.30012554600E+03  0.00000000000E+00 0. -1.
         21    1    1    2  503  502 -0.96811707085E+02  0.85836858643E+01 -0.22591664184E+03  0.24593599849E+03  0.00000000000E+00 0. -1.
         21    1    1    2  504  505 -0.34485025074E+02  0.40294090670E+02  0.92939569249E+01  0.53844297122E+02  0.00000000000E+00 0. -1.
         21    1    1    2  505  501  0.73358593742E+02 -0.52531874079E+01 -0.74167512956E+01  0.73919465999E+02  0.00000000000E+00 0.  1.
          1    1    1    2  501    0  0.57938138418E+02 -0.43624589126E+02  0.10457492745E+04  0.10482611687E+04  0.00000000000E+00 0. -1.
<scales pt_clust_3="72.57874" pt_clust_4="53.03613" pt_clust_5="68.31417" pt_clust_6="14000.00000"></scales>
<clustering>
<clus scale="   53.036">  2  4  1 -1</clus>
<clus scale="   68.314">  2  5  1 -1</clus>
<clus scale="   72.579">  2  3  1 -1</clus>
<clus scale="   53.036">  2  3  1 -1</clus>
</clustering>
</event>
<event>
 6    0  0.2572175E+002  0.7488043E+02  0.7546771E-02  0.1344242E+00
          2   -1    0    0  503    0 -0.00000000000E+00  0.00000000000E+00  0.24362286445E+04  0.24362286445E+04  0.00000000000E+00 0. -1.
         21   -1    0    0  504  502  0.00000000000E+00 -0.00000000000E+00 -0.32377124986E+02  0.32377124986E+02  0.00000000000E+00 0.  1.
         21    1    1    2  503  505  0.24633267770E+02 -0.39415649418E+02  0.90230893065E+02  0.10149879489E+03  0.00000000000E+00 0.  1.
         21    1    1    2  504  501 -0.13865581112E+03  0.12836652330E+02  0.22907159106E+03  0.26807463034E+03  0.00000000000E+00 0.  1.
         21    1    1    2  505  502  0.44446214418E+02  0.43180393639E+01  0.69185302721E+02  0.82345112500E+02  0.00000000000E+00 0.  1.
          2    1    1    2  501    0  0.69576328935E+02  0.22260957724E+02  0.20153637327E+04  0.20166872317E+04  0.00000000000E+00 0. -1.
<scales pt_clust_3="51.56918" pt_clust_4="74.88043" pt_clust_5="44.65547" pt_clust_6="14000.00000"></scales>
<clustering>
<clus scale="   44.655">  2  5  1 -1</clus>
<clus scale="   51.569">  2  3  1 -1</clus>
<clus scale="   74.880">  2  4  1 -1</clus>
<clus scale="   44.655">  2  3  1 -1</clus>
</clustering>
</event>
<event>
 6    0  0.2572175E+002  0.1304226E+03  0.7546771E-02  0.1226830E+00
          1   -1    0    0  503    0 -0.00000000000E+00  0.00000000000E+00  0.33577613758E+03  0.33577613758E+03  0.00000000000E+00 0. -1.
         21   -1    0    0  504  502  0.00000000000E+00 -0.00000000000E+00 -0.10567640182E+04  0.10567640182E+04  0.00000000000E+00 0. -1.
         21    1    1    2  503  502  0.30353065316E+02  0.62361631356E+02 -0.79905432890E+03  0.80205866505E+03  0.00000000000E+00 0. -1.
         21    1    1    2  504  505 -0.47585620553E+02  0.46281405058E+02 -0.12344216400E+03  0.14015822341E+03  0.00000000000E+00 0.  1.
         21    1    1    2  505  501 -0.76430498579E+02 -0.18750585375E+03 -0.13457875218E+02  0.20293146801E+03  0.00000000000E+00 0. -1.
          1    1    1    2  501    0  0.93663053815E+02  0.78862817338E+02  0.21496648751E+03  0.24739179930E+03  0.00000000000E+00 0. -1.
<scales pt_clust_3="102.98945" pt_clust_4="66.38042" pt_clust_5="14000.00000" pt_clust_6="130.42258"></scales>
<clustering>
<clus scale="   66.380">  2  4  1 -1</clus>
<clus scale="  102.989">  2  3  1 -1</clus>
<clus scale="  130.423">  1  6  2 -1</clus>
<clus scale="   66.380">  2  3  1 -1</clus>
</clustering>
</event>
<event>
 6    0  0.2572175E+002  0.7798193E+02  0.7546771E-02  0.1334878E+00
         21   -1    0    0  505  502  0.00000000000E+00  0.00000000000E+00  0.68982421470E+02  0.68982421470E+02  0.00000000000E+00 0. -1.
         -3   -1    0    0    0  501 -0.00000000000E+00 -0.00000000000E+00 -0.58689604985E+03  0.58689604985E+03  0.00000000000E+00 0.  1.
         21    1    1    2  503  504 -0.35874372980E+02 -0.24928093550E+02  0.24169969615E+02  0.49925623841E+02  0.00000000000E+00 0. -1.
         21    1    1    2  504  501  0.66728396419E+02  0.11642016650E+03 -0.37971915127E+03  0.40273188090E+03  0.00000000000E+00 0. -1.
         21    1    1    2  505  503 -0.16205295561E+02 -0.38545294802E+02 -0.12556561748E+02  0.43657972909E+02  0.00000000000E+00 0.  1.
         -3    1    1    2    0  502 -0.14648727878E+02 -0.52946778152E+02 -0.14980788498E+03  0.15956299366E+03  0.00000000000E+00 0.  1.
<scales pt_clust_3="77.98193" pt_clust_4="14000.00000" pt_clust_5="41.81329" pt_clust_6="58.72356"></scales>
<clustering>
<clus scale="   41.813">  1  5  2 -1</clus>
<clus scale="   58.724">  2  6  1 -1</clus>
<clus scale="   77.982">  1  3  2 -1</clus>
<clus scale="   41.813">  1  3  2 -1</clus>
</clustering>
</event>
<event>
 6    0  0.2572175E+002  0.8019244E+02  0.7546771E-02  0.1328506E+00
          1   -1    0    0  503    0 -0.00000000000E+00  0.00000000000E+00  0.54732460712E+03  0.54732460712E+03  0.00000000000E+00 0. -1.
         21   -1    0    0  505  502  0.00000000000E+00 -0.00000000000E+00 -0.41522453061E+02  0.41522453061E+02  0.00000000000E+00 0. -1.
         21    1    1    2  503  502 -0.36287650114E+02 -0.37546017148E+02  0.98759254593E+02  0.11171341604E+03  0.00000000000E+00 0.  1.
         21    1    1    2  504  501 -0.31508818394E+02  0.64567514714E+02  0.99547920977E+02  0.12276627454E+03  0.00000000000E+00 0. -1.
         21    1    1    2  505  504  0.23747661266E+02  0.45329440468E+02  0.20488991157E+02  0.55122666367E+02  0.00000000000E+00 0. -1.
          1    1    1    2  501    0  0.44048807241E+02 -0.72350938034E+02  0.28700598733E+03  0.29924470324E+03  0.00000000000E+00 0. -1.
<scales pt_clust_3="39.26818" pt_clust_4="14000.00000" pt_clust_5="51.17333" pt_clust_6="80.19244"></scales>
<clustering>
<clus scale="   51.173">  2  5  1 -1</clus>
<clus scale="   39.268">  2  3  1 -1</clus>
<clus scale="   80.192">  1  6  2 -1</clus>
<clus scale="   51.173">  2  3  1 -1</clus>
</clustering>
</event>
<event>
 6    0  0.2572175E+002  0.8115817E+02  0.7546771E-02  0.1325796E+00
          1   -1    0    0  505    0 -0.00000000000E+00  0.00000000000E+00  0.22944024934E+04  0.22944024934E+04  0.00000000000E+00 0. -1.
         21   -1    0    0  501  502  0.00000000000E+00 -0.00000000000E+00 -0.57593284306E+02  0.57593284306E+02  0.00000000000E+00 0.  1.
         21    1    1    2  503  504 -0.39763237542E+01 -0.55522582070E+02  0.26574076247E+02  0.61682653953E+02  0.00000000000E+00 0. -1.
         21    1    1    2  504  502  0.12173194412E+02 -0.29183238937E+02 -0.28757128226E+02  0.42741321000E+02  0.00000000000E+00 0.  1.
         21    1    1    2  505  503  0.66795567928E+02 -0.15853328500E+02  0.95591285118E+03  0.95837485097E+03  0.00000000000E+00 0.  1.
          1    1    1    2  501    0 -0.74992438586E+02  0.10055914951E+03  0.12830794099E+04  0.12891969518E+04  0.00000000000E+00 0. -1.
<scales pt_clust_3="14000.00000" pt_clust_4="31.62037" pt_clust_5="69.71327" pt_clust_6="81.15817"></scales>
<clustering>
<clus scale="   31.620">  2  4  1 -1</clus>
<clus scale="   69.713">  1  5  2 -1</clus>
<clus scale="   81.158">  1  6  2 -1</clus>
<clus scale="   31.620">  2  3  1 -1</clus>
</clustering>
</event>
<event>
 6    0  0.2572175E+002  0.2607353E+03  0.7546771E-02  0.1106702E+00
          2   -1    0    0  504    0 -0.00000000000E+00  0.00000000000E+00  0.16557878151E+04  0.16557878151E+04  0.00000000000E+00 0. -1.
         21   -1    0    0  501  502  0.00000000000E+00 -0.00000000000E+00 -0.48677193001E+03  0.48677193001E+03  0.00000000000E+00 0. -1.
         21    1    1    2  503  505 -0.81641106375E+02  0.13395787906E+03 -0.20537741634E+03  0.25843735557E+03  0.00000000000E+00 0. -1.
         21    1    1    2  504  503 -0.98283503711E+01 -0.59945857999E+02  0.16626731009E+03  0.17701672454E+03  0.00000000000E+00 0. -1.
         21    1    1    2  505  502 -0.26431786372E+02  0.92934362516E+02 -0.23264478198E+03  0.25191075731E+03  0.00000000000E+00 0. -1.
          2    1    1    2  501    0  0.11790124312E+03 -0.16694638357E+03  0.14407707733E+04  0.14551949077E+04  0.00000000000E+00 0. -1.
<scales pt_clust_3="57.84051" pt_clust_4="60.74621" pt_clust_5="57.84051" pt_clust_6="250.10192"></scales>
<clustering>
<clus scale="   57.841">  3  5 -1 -1</clus>
<clus scale="   60.746">  1  4  2 -1</clus>
<clus scale="  250.102">  1  6  2 -1</clus>
<clus scale="  260.735">  2  3  1 -1</clus>
</clustering>
</event>
<event>
 6    0  0.2572175E+002  0.1408446E+03  0.7546771E-02  0.1212197E+00
          2   -1    0    0  502    0 -0.00000000000E+00  0.00000000000E+00  0.37392026212E+03  0.37392026212E+03  0.00000000000E+00 0. -1.
         21   -1    0    0  503  502  0.00000000000E+00 -0.00000000000E+00 -0.62512342573E+03  0.62512342573E+03  0.00000000000E+00 0.  1.
         21    1    1    2  503  504  0.17826374483E+02 -0.71546576612E+02 -0.28771225437E+03  0.29701015735E+03  0.00000000000E+00 0.  1.
         21    1    1    2  504  505  0.64397065078E+02 -0.22457261980E+02 -0.30600045623E+03  0.31350851635E+03  0.00000000000E+00 0.  1.
         21    1    1    2  505  501 -0.49035084296E+02  0.90017658422E+02  0.98248218193E+02  0.14198707933E+03  0.00000000000E+00 0. -1.
          2    1    1    2  501    0 -0.33188355266E+02  0.39861801699E+01  0.24426132880E+03  0.24653793482E+03  0.00000000000E+00 0. -1.
<scales pt_clust_3="65.24494" pt_clust_4="65.24494" pt_clust_5="123.27349" pt_clust_6="33.42688"></scales>
<clustering>
<clus scale="   33.427">  1  6  2 -1</clus>
<clus scale="   65.245">  3  4 -1 -1</clus>
<clus scale="  123.273">  1  5  2 -1</clus>
<clus scale="  140.845">  2  3  1 -1</clus>
</clustering>
</event>
<event>
 6    0  0.2572175E+002  0.8586416E+02  0.7546771E-02  0.1313188E+00
          1   -1    0    0  503    0 -0.00000000000E+00  0.00000000000E+00  0.42949180473E+03  0.42949180473E+03  0.00000000000E+00 0.  1.
         21   -1    0    0  505  502  0.00000000000E+00 -0.00000000000E+00 -0.32003643203E+03  0.32003643203E+03  0.00000000000E+00 0.  1.
         21    1    1    2  503  504  0.49544432370E+02  0.53978288713E+02 -0.21092426807E+03  0.22328760219E+03  0.00000000000E+00 0.  1.
         21    1    1    2  504  502  0.39162432845E+02 -0.16594844529E+02 -0.43370182171E+02  0.60745845231E+02  0.00000000000E+00 0.  1.
         21    1    1    2  505  501 -0.94804558252E+02  0.31249705156E+02  0.47421387394E+01  0.99934659741E+02  0.00000000000E+00 0. -1.
          1    1    1    2  501    0  0.60976930376E+01 -0.68633149340E+02  0.35900768419E+03  0.36556012960E+03  0.00000000000E+00 0.  1.
<scales pt_clust_3="14000.00000" pt_clust_4="42.53334" pt_clust_5="85.86416" pt_clust_6="69.14947"></scales>
<clustering>
<clus scale="   42.533">  2  4  1 -1</clus>
<clus scale="   69.149">  1  6  2 -1</clus>
<clus scale="   85.864">  1  5  2 -1</clus>
<clus scale="   42.533">  2  3  1 -1</clus>
</clustering>
</event>
<event>
 6    0  0.2572175E+002  0.1506816E+03  0.7546771E-02  0.1199638E+00
         21   -1    0    0  505  502  0.00000000000E+00  0.00000000000E+00  0.13278976210E+03  0.13278976210E+03  0.00000000000E+00 0. -1.
         -2   -1    0    0    0  501 -0.00000000000E+00 -0.00000000000E+00 -0.13675027287E+04  0.13675027287E+04  0.00000000000E+00 0.  1.
         21    1    1    2  503  501 -0.79096313422E+02  0.57123350388E+02 -0.10457087977E+03  0.14301878496E+03  0.00000000000E+00 0. -1.
         21    1    1    2  504  502  0.16795745698E+02 -0.28084989297E+02 -0.10251020077E+02  0.34292085239E+02  0.00000000000E+00 0.  1.
         21    1    1    2  505  503 -0.45143356827E+02  0.99887175316E+02  0.64216484104E+02  0.12703986496E+03  0.00000000000E+00 0. -1.
         -2    1    1    2    0  504  0.10744392455E+03 -0.12892553641E+03 -0.11841075508E+04  0.11959417556E+04  0.00000000000E+00 0.  1.
<scales pt_clust_3="150.68162" pt_clust_4="32.72405" pt_clust_5="83.92481" pt_clust_6="14000.00000"></scales>
<clustering>
<clus scale="   32.724">  1  4  2 -1</clus>
<clus scale="   83.925">  1  5  2 -1</clus>
<clus scale="  150.682">  1  3  2 -1</clus>
<clus scale="   32.724">  1  3  2 -1</clus>
</clustering>
</event>
<event>
 6    0  0.2572175E+002  0.1810335E+03  0.7546771E-02  0.1166807E+00
         21   -1    0    0  501  502  0.00000000000E+00  0.00000000000E+00  0.95748874610E+03  0.95748874610E+03  0.00000000000E+00 0.  1.
          2   -1    0    0  505    0 -0.00000000000E+00 -0.00000000000E+00 -0.24912371884E+04  0.24912371884E+04  0.00000000000E+00 0.  1.
         21    1    1    2  503  504 -0.83234768751E+02 -0.39456027175E+02  0.36422818342E+03  0.37569532124E+03  0.00000000000E+00 0.  1.
         21    1    1    2  504  502 -0.62917132925E+02 -0.52884635392E+02  0.56186805632E+03  0.56784774631E+03  0.00000000000E+00 0.  1.
         21    1    1    2  505  503  0.29817060226E+03  0.24968006604E+02 -0.18005915906E+04  0.18252833165E+04  0.00000000000E+00 0.  1.
          2    1    1    2  501    0 -0.15201870058E+03  0.67372655963E+02 -0.65925309141E+03  0.67989955039E+03  0.00000000000E+00 0.  1.
<scales pt_clust_3="49.37416" pt_clust_4="49.37416" pt_clust_5="173.32344" pt_clust_6="166.27916"></scales>
<clustering>
<clus scale="   49.374">  3  4 -1 -1</clus>
<clus scale="  166.279">  2  6  1 -1</clus>
<clus scale="  173.323">  2  5  1 -1</clus>
<clus scale="  181.033">  1  3  2 -1</clus>
</clustering>
</event>
<event>
 6    0  0.2572175E+002  0.2141906E+03  0.7546771E-02  0.1138290E+00
         21   -1    0    0  505  502  0.00000000000E+00  0.00000000000E+00  0.87791741829E+03  0.87791741829E+03  0.00000000000E+00 0. -1.
          2   -1    0    0  504    0 -0.00000000000E+00 -0.00000000000E+00 -0.73193464292E+03  0.73193464292E+03  0.00000000000E+00 0.  1.
         21    1    1    2  503  501  0.78656748079E+02  0.19737905050E+02  0.14250926504E+03  0.16396755635E+03  0.00000000000E+00 0. -1.
         21    1    1    2  504  502 -0.21380032310E+03 -0.47179596904E+02  0.45800430494E+03  0.50764597493E+03  0.00000000000E+00 0. -1.
         21    1    1    2  505  503  0.12158152632E+03 -0.32170960694E+02  0.22403641234E+03  0.25692285283E+03  0.00000000000E+00 0. -1.
          2    1    1    2  501    0  0.13562048703E+02  0.59612652548E+02 -0.67856720695E+03  0.68131567710E+03  0.00000000000E+00 0.  1.
<scales pt_clust_3="40.49439" pt_clust_4="208.16953" pt_clust_5="40.49439" pt_clust_6="61.13589"></scales>
<clustering>
<clus scale="   40.494">  3  5 -1 -1</clus>
<clus scale="   61.136">  2  6  1 -1</clus>
<clus scale="  208.170">  1  4  2 -1</clus>
<clus scale="  208.170">  1  3  2 -1</clus>
</clustering>
</event>
<event>
 6    0  0.2572175E+002  0.1256719E+03  0.7546771E-02  0.1234023E+00
          2   -1    0    0  504    0 -0.00000000000E+00  0.00000000000E+00  0.51897866986E+03  0.51897866986E+03  0.00000000000E+00 0.  1.
         21   -1    0    0  505  502  0.00000000000E+00 -0.00000000000E+00 -0.41969278935E+03  0.41969278935E+03  0.00000000000E+00 0.  1.
         21    1    1    2  503  502  0.16087198627E+00  0.36475189096E+02 -0.77718984688E+02  0.85852815215E+02  0.00000000000E+00 0.  1.
         21    1    1    2  504  503 -0.14229670442E+03 -0.53026588075E+01  0.19231942647E+03  0.23929737165E+03  0.00000000000E+00 0.  1.
         21    1    1    2  505  501  0.32129031441E+02  0.22333464865E+02 -0.30058892593E+03  0.30312499189E+03  0.00000000000E+00 0.  1.
          2    1    1    2  501    0  0.11000680100E+03 -0.53505995154E+02  0.28527436466E+03  0.31039628045E+03  0.00000000000E+00 0.  1.
<scales pt_clust_3="36.47554" pt_clust_4="125.67186" pt_clust_5="63.69800" pt_clust_6="14000.00000"></scales>
<clustering>
<clus scale="   36.476">  2  3  1 -1</clus>
<clus scale="   63.698">  2  5  1 -1</clus>
<clus scale="  125.672">  2  4  1 -1</clus>
<clus scale="   36.476">  2  3  1 -1</clus>
</clustering>
</event>
<event>
 6    0  0.2603623E+002  0.1061499E+03  0.7546771E-02  0.1267870E+00
         21   -1    0    0  504  502  0.00000000000E+00  0.00000000000E+00  0.13278092012E+04  0.13278092012E+04  0.00000000000E+00 0.  1.
          2   -1    0    0  505    0 -0.00000000000E+00 -0.00000000000E+00 -0.22301122807E+03  0.22301122807E+03  0.00000000000E+00 0.  1.
         21    1    1    2  503  501 -0.40010261579E+02  0.60913778382E+02  0.12599129874E+03  0.14555107965E+03  0.00000000000E+00 0.  1.
         21    1    1    2  504  503 -0.45186188049E+02  0.12087218894E+02  0.60631486814E+02  0.76577213610E+02  0.00000000000E+00 0.  1.
         21    1    1    2  505  502 -0.34903427719E+00 -0.99112014130E+02  0.11113789143E+04  0.11157895879E+04  0.00000000000E+00 0.  1.
          2    1    1    2  501    0  0.85545483905E+02  0.26111016854E+02 -0.19320372671E+03  0.21290254820E+03  0.00000000000E+00 0.  1.
<scales pt_clust_3="35.15274" pt_clust_4="35.15274" pt_clust_5="96.65646" pt_clust_6="89.44169"></scales>
<clustering>
<clus scale="   35.153">  3  4 -1 -1</clus>
<clus scale="   89.442">  2  6  1 -1</clus>
<clus scale="   96.656">  1  5  2 -1</clus>
<clus scale="   96.656">  1  3  2 -1</clus>
</clustering>
</event>
<event>
 6    0  0.2572175E+002  0.5641717E+02  0.7546771E-02  0.1413513E+00
          1   -1    0    0  505    0 -0.00000000000E+00  0.00000000000E+00  0.68579531104E+03  0.68579531104E+03  0.00000000000E+00 0.  1.
         21   -1    0    0  504  502  0.00000000000E+00 -0.00000000000E+00 -0.11598359906E+03  0.11598359906E+03  0.00000000000E+00 0.  1.
         21    1    1    2  503  502  0.54662835910E+02 -0.14335243316E+02 -0.67171149599E+02  0.87780910049E+02  0.00000000000E+00 0.  1.
         21    1    1    2  504  501  0.17845230583E+02 -0.77495358310E+02  0.76994324677E+02  0.11068924449E+03  0.00000000000E+00 0.  1.
         21    1    1    2  505  503 -0.33219098363E+02  0.51342652325E+02  0.26168770081E+02  0.66516020411E+02  0.00000000000E+00 0.  1.
          1    1    1    2  501    0 -0.39288968130E+02  0.40487949300E+02  0.53381976682E+03  0.53679273514E+03  0.00000000000E+00 0.  1.
<scales pt_clust_3="14000.00000" pt_clust_4="52.67000" pt_clust_5="54.96007" pt_clust_6="56.41717"></scales>
<clustering>
<clus scale="   56.417">  1  6  2 -1</clus>
<clus scale="   52.670">  1  4  2 -1</clus>
<clus scale="   54.960">  1  5  2 -1</clus>
<clus scale="   56.417">  2  3  1 -1</clus>
</clustering>
</event>
<event>
 6    0  0.2572175E+002  0.9245265E+02  0.7546771E-02  0.1297019E+00
          2   -1    0    0  503    0 -0.00000000000E+00  0.00000000000E+00  0.20546116001E+04  0.20546116001E+04  0.00000000000E+00 0.  1.
         21   -1    0    0  504  502  0.00000000000E+00 -0.00000000000E+00 -0.24918924305E+03  0.24918924305E+03  0.00000000000E+00 0.  1.
         21    1    1    2  503  505  0.11196843617E+03  0.36648958460E+02 -0.63436904046E+02  0.13380701645E+03  0.00000000000E+00 0. -1.
         21    1    1    2  504  501 -0.72069603524E+02  0.10581545355E+02 -0.12195307885E+03  0.14205122420E+03  0.00000000000E+00 0.  1.
         21    1    1    2  505  502 -0.25013255095E+02  0.18151942437E+02 -0.47373863614E+01  0.31266575991E+02  0.00000000000E+00 0.  1.
          2    1    1    2  501    0 -0.14885577555E+02 -0.65382446252E+02  0.19955497263E+04  0.19966760265E+04  0.00000000000E+00 0.  1.
<scales pt_clust_3="92.45265" pt_clust_4="14000.00000" pt_clust_5="30.90560" pt_clust_6="67.02598"></scales>
<clustering>
<clus scale="   30.906">  2  5  1 -1</clus>
<clus scale="   67.026">  1  6  2 -1</clus>
<clus scale="   92.453">  1  3  2 -1</clus>
<clus scale="   30.906">  2  3  1 -1</clus>
</clustering>
</event>
<event>
 6    0  0.2572175E+002  0.2049448E+03  0.7546771E-02  0.1145633E+00
         21   -1    0    0  504  502  0.00000000000E+00  0.00000000000E+00  0.10389755478E+03  0.10389755478E+03  0.00000000000E+00 0. -1.
          2   -1    0    0  503    0 -0.00000000000E+00 -0.00000000000E+00 -0.27448247020E+04  0.27448247020E+04  0.00000000000E+00 0.  1.
         21    1    1    2  503  505 -0.25381400618E+02  0.27279933315E+03 -0.57860875642E+03  0.64019667655E+03  0.00000000000E+00 0. -1.
         21    1    1    2  504  501 -0.97340485082E+02 -0.80227946220E+02 -0.31233752029E+01  0.12618022374E+03  0.00000000000E+00 0. -1.
         21    1    1    2  505  502  0.18194631984E+00 -0.34986196632E+02 -0.39327921709E+02  0.52637937699E+02  0.00000000000E+00 0. -1.
          2    1    1    2  501    0  0.12253993938E+03 -0.15758519029E+03 -0.20198670939E+04  0.20297074188E+04  0.00000000000E+00 0.  1.
<scales pt_clust_3="204.94476" pt_clust_4="141.17835" pt_clust_5="34.98667" pt_clust_6="14000.00000"></scales>
<clustering>
<clus scale="   34.987">  1  5  2 -1</clus>
<clus scale="  141.178">  1  4  2 -1</clus>
<clus scale="  204.945">  1  3  2 -1</clus>
<clus scale="   34.987">  1  3  2 -1</clus>
</clustering>
</event>
<event>
 6    0  0.2572175E+002  0.1146856E+03  0.7546771E-02  0.1252131E+00
          1   -1    0    0  505    0 -0.00000000000E+00  0.00000000000E+00  0.45096426225E+03  0.45096426225E+03  0.00000000000E+00 0. -1.
         21   -1    0    0  501  502  0.00000000000E+00 -0.00000000000E+00 -0.95951592816E+02  0.95951592816E+02  0.00000000000E+00 0. -1.
         21    1    1    2  503  502 -0.49292096743E+02  0.12063155234E+02 -0.29821967813E+02  0.58860685349E+02  0.00000000000E+00 0. -1.
         21    1    1    2  504  503 -0.61544413735E+02 -0.30429136474E+01  0.95627081978E+01  0.62357193438E+02  0.00000000000E+00 0.  1.
         21    1    1    2  505  504  0.21519947111E+02 -0.73517584522E+02  0.23599357094E+03  0.24811470912E+03  0.00000000000E+00 0. -1.
          1    1    1    2  501    0  0.89316563367E+02  0.64497342935E+02  0.13927835811E+03  0.17758326716E+03  0.00000000000E+00 0. -1.
<scales pt_clust_3="39.73588" pt_clust_4="39.73588" pt_clust_5="76.60250" pt_clust_6="105.99788"></scales>
<clustering>
<clus scale="   39.736">  3  4 -1 -1</clus>
<clus scale="   76.603">  1  5  2 -1</clus>
<clus scale="  105.998">  1  6  2 -1</clus>
<clus scale="  114.686">  2  3  1 -1</clus>
</clustering>
</event>
<event>
 6    0  0.2572175E+002  0.1381935E+03  0.7546771E-02  0.1215781E+00
         21   -1    0    0  504  502  0.00000000000E+00  0.00000000000E+00  0.37250260844E+03  0.37250260844E+03  0.00000000000E+00 0. -1.
          2   -1    0    0  503    0 -0.00000000000E+00 -0.00000000000E+00 -0.19719549954E+04  0.19719549954E+04  0.00000000000E+00 0.  1.
         21    1    1    2  503  505  0.17279254833E+03 -0.63031557536E+02 -0.14194552279E+03  0.23233332401E+03  0.00000000000E+00 0. -1.
         21    1    1    2  504  501 -0.13565413114E+03 -0.16317410357E+02  0.20556969110E+03  0.24683435554E+03  0.00000000000E+00 0. -1.
         21    1    1    2  505  502  0.48143616665E+01  0.39793185199E+02  0.96643113266E+02  0.10462584293E+03  0.00000000000E+00 0. -1.
          2    1    1    2  501    0 -0.41952778855E+02  0.39555782694E+02 -0.17597196685E+04  0.17606640814E+04  0.00000000000E+00 0.  1.
<scales pt_clust_3="14000.00000" pt_clust_4="138.19348" pt_clust_5="40.08336" pt_clust_6="57.70153"></scales>
<clustering>
<clus scale="   40.083">  1  5  2 -1</clus>
<clus scale="   57.702">  2  6  1 -1</clus>
<clus scale="  138.193">  1  4  2 -1</clus>
<clus scale="   40.083">  1  3  2 -1</clus>
</clustering>
</event>
<event>
 6    0  0.2572175E+002  0.1142214E+03  0.7546771E-02  0.1252946E+00
          2   -1    0    0  503    0 -0.00000000000E+00  0.00000000000E+00  0.35613643740E+04  0.35613643740E+04  0.00000000000E+00 0.  1.
         21   -1    0    0  505  502  0.00000000000E+00 -0.00000000000E+00 -0.12617043794E+02  0.12617043794E+02  0.00000000000E+00 0.  1.
         21    1    1    2  503  504 -0.24413272749E+02 -0.44642701460E+02  0.16255839917E+03  0.17033558589E+03  0.00000000000E+00 0.  1.
         21    1    1    2  504  502  0.11095600939E+02 -0.34795626152E+02  0.86463029189E+02  0.93860020115E+02  0.00000000000E+00 0.  1.
         21    1    1    2  505  501  0.95415753778E+02 -0.20708145238E+02  0.69287572415E+03  0.69972120338E+03  0.00000000000E+00 0.  1.
          2    1    1    2  501    0 -0.82098081968E+02  0.10014647285E+03  0.26068501777E+04  0.26100646084E+04  0.00000000000E+00 0.  1.
<scales pt_clust_3="88.24764" pt_clust_4="30.54493" pt_clust_5="114.22137" pt_clust_6="14000.00000"></scales>
<clustering>
<clus scale="   30.545">  3  4 -1 -1</clus>
<clus scale="   88.248">  2  3  1 -1</clus>
<clus scale="  114.221">  2  5  1 -1</clus>
<clus scale="   88.248">  2  3  1 -1</clus>
</clustering>
</event>
<event>
 6    0  0.2572175E+002  0.6909853E+02  0.7546771E-02  0.1363186E+00
         21   -1    0    0  503  502  0.00000000000E+00  0.00000000000E+00  0.81102807856E+03  0.81102807856E+03  0.00000000000E+00 0. -1.
          2   -1    0    0  504    0 -0.00000000000E+00 -0.00000000000E+00 -0.84771304476E+02  0.84771304476E+02  0.00000000000E+00 0.  1.
         21    1    1    2  503  505 -0.66258898904E+02  0.32113670563E+02  0.34826635657E+03  0.35596486433E+03  0.00000000000E+00 0. -1.
         21    1    1    2  504  502  0.73116357305E+02  0.56164744396E+02  0.36547863353E+03  0.37692852344E+03  0.00000000000E+00 0.  1.
         21    1    1    2  505  501  0.11913518057E+02 -0.53893873480E+02  0.72585771858E+02  0.91187585709E+02  0.00000000000E+00 0.  1.
          2    1    1    2  501    0 -0.18770976458E+02 -0.34384541478E+02 -0.60073987872E+02  0.71718409552E+02  0.00000000000E+00 0.  1.
<scales pt_clust_3="69.09853" pt_clust_4="14000.00000" pt_clust_5="70.88729" pt_clust_6="39.17456"></scales>
<clustering>
<clus scale="   39.175">  2  6  1 -1</clus>
<clus scale="   70.887">  2  5  1 -1</clus>
<clus scale="   69.099">  1  3  2 -1</clus>
<clus scale="   69.099">  1  3  2 -1</clus>
</clustering>
</event>
<event>
 6    0  0.2572175E+002  0.1105631E+03  0.7546771E-02  0.1259531E+00
         21   -1    0    0  503  502  0.00000000000E+00  0.00000000000E+00  0.29525189799E+03  0.29525189799E+03  0.00000000000E+00 0.  1.
         -1   -1    0    0    0  501 -0.00000000000E+00 -0.00000000000E+00 -0.41925009311E+03  0.41925009311E+03  0.00000000000E+00 0. -1.
         21    1    1    2  503  501 -0.11648000172E+03  0.44490486700E+02  0.18342388284E+03  0.22179115178E+03  0.00000000000E+00 0.  1.
         21    1    1    2  504  502  0.35881597114E+02 -0.37762024073E+02  0.52937009179E+02  0.74268340593E+02  0.00000000000E+00 0.  1.
         21    1    1    2  505  504  0.85729264665E+01 -0.38278513380E+02  0.94640199503E+01  0.40352290250E+02  0.00000000000E+00 0.  1.
         -1    1    1    2    0  505  0.72025478143E+02  0.31550050753E+02 -0.36982310709E+03  0.37809020847E+03  0.00000000000E+00 0. -1.
<scales pt_clust_3="103.62706" pt_clust_4="33.44769" pt_clust_5="33.44769" pt_clust_6="78.63253"></scales>
<clustering>
<clus scale="   33.448">  4  5 -1 -1</clus>
<clus scale="   78.633">  2  6  1 -1</clus>
<clus scale="  103.627">  1  3  2 -1</clus>
<clus scale="  103.627">  1  3  2 -1</clus>
</clustering>
</event>
<event>
 6    0  0.2572175E+002  0.1188599E+03  0.7546771E-02  0.1244990E+00
          2   -1    0    0  505    0 -0.00000000000E+00  0.00000000000E+00  0.16330193276E+04  0.16330193276E+04  0.00000000000E+00 0. -1.
         21   -1    0    0  504  502  0.00000000000E+00 -0.00000000000E+00 -0.12711902999E+02  0.12711902999E+02  0.00000000000E+00 0. -1.
         21    1    1    2  503  502  0.55227684968E+02 -0.14161659833E+02  0.22844312960E+03  0.23545044756E+03  0.00000000000E+00 0. -1.
         21    1    1    2  504  501 -0.96529125362E+02  0.28558192331E+02  0.77852060378E+03  0.78500176618E+03  0.00000000000E+00 0. -1.
         21    1    1    2  505  503  0.51149496605E+02 -0.48168620568E+02  0.23433763020E+03  0.24464384713E+03  0.00000000000E+00 0. -1.
          2    1    1    2  501    0 -0.98480562119E+01  0.33772088070E+02  0.37900606106E+03  0.38063516977E+03  0.00000000000E+00 0. -1.
<scales pt_clust_3="30.19201" pt_clust_4="114.03657" pt_clust_5="30.19201" pt_clust_6="35.17866"></scales>
<clustering>
<clus scale="   30.192">  3  5 -1 -1</clus>
<clus scale="   35.179">  1  6  2 -1</clus>
<clus scale="  114.037">  1  4  2 -1</clus>
<clus scale="  118.860">  2  3  1 -1</clus>
</clustering>
</event>
<event>
 6    0  0.2572175E+002  0.1678642E+03  0.7546771E-02  0.1180094E+00
          2   -1    0    0  502    0 -0.00000000000E+00  0.00000000000E+00  0.12685675571E+04  0.12685675571E+04  0.00000000000E+00 0. -1.
         21   -1    0    0  505  502  0.00000000000E+00 -0.00000000000E+00 -0.28139668742E+03  0.28139668742E+03  0.00000000000E+00 0.  1.
         21    1    1    2  503  504 -0.22446672534E+02  0.16399328008E+03 -0.17017700138E+03  0.23739810618E+03  0.00000000000E+00 0.  1.
         21    1    1    2  504  501 -0.63815948654E+02 -0.16057793639E+03  0.10084365879E+03  0.20006796964E+03  0.00000000000E+00 0. -1.
         21    1    1    2  505  503  0.37523014697E+02  0.63492454361E+01 -0.14215858124E+02  0.40624871345E+02  0.00000000000E+00 0. -1.
          2    1    1    2  501    0  0.48739606490E+02 -0.97645891264E+01  0.10707200704E+04  0.10718732974E+04  0.00000000000E+00 0. -1.
<scales pt_clust_3="14000.00000" pt_clust_4="167.86424" pt_clust_5="38.05640" pt_clust_6="49.78882"></scales>
<clustering>
<clus scale="   38.056">  2  5  1 -1</clus>
<clus scale="   49.789">  1  6  2 -1</clus>
<clus scale="  167.864">  1  4  2 -1</clus>
<clus scale="   38.056">  2  3  1 -1</clus>
</clustering>
</event>
<event>
 6    0  0.2572175E+002  0.9295820E+02  0.7546771E-02  0.1295842E+00
          3   -1    0    0  502    0 -0.00000000000E+00  0.00000000000E+00  0.45570071654E+03  0.45570071654E+03  0.00000000000E+00 0.  1.
         21   -1    0    0  504  502  0.00000000000E+00 -0.00000000000E+00 -0.12900321812E+03  0.12900321812E+03  0.00000000000E+00 0.  1.
         21    1    1    2  503  501  0.11196733781E+02  0.56418114707E+02  0.27757806476E+02  0.63866002966E+02  0.00000000000E+00 0.  1.
         21    1    1    2  504  505  0.14703153219E+02  0.35397561251E+02 -0.29558968906E+02  0.48403540158E+02  0.00000000000E+00 0.  1.
         21    1    1    2  505  503 -0.29946667999E+02 -0.14372872103E+03  0.72512444246E+01  0.14699431526E+03  0.00000000000E+00 0.  1.
          3    1    1    2  501    0  0.40467809985E+01  0.51913045070E+02  0.32124741643E+03  0.32544007628E+03  0.00000000000E+00 0.  1.
<scales pt_clust_3="92.95820" pt_clust_4="38.32975" pt_clust_5="14000.00000" pt_clust_6="52.91968"></scales>
<clustering>
<clus scale="   38.330">  2  4  1 -1</clus>
<clus scale="   52.920">  1  6  2 -1</clus>
<clus scale="   92.958">  1  3  2 -1</clus>
<clus scale="   38.330">  2  3  1 -1</clus>
</clustering>
</event>
<event>
 6    0  0.2572175E+002  0.1228186E+03  0.7546771E-02  0.1238518E+00
         21   -1    0    0  505  502  0.00000000000E+00  0.00000000000E+00  0.12027465302E+03  0.12027465302E+03  0.00000000000E+00 0.  1.
         -1   -1    0    0    0  501 -0.00000000000E+00 -0.00000000000E+00 -0.67062645479E+03  0.67062645479E+03  0.00000000000E+00 0.  1.
         21    1    1    2  503  501 -0.78225878748E+02  0.81420040087E+02  0.68705153647E+02  0.13217000103E+03  0.00000000000E+00 0.  1.
         21    1    1    2  504  502  0.80767964654E+02 -0.51386684215E+02 -0.35651509827E+03  0.36914369929E+03  0.00000000000E+00 0.  1.
         21    1    1    2  505  503  0.97949849168E+01  0.30784461014E+02 -0.17360179148E+02  0.36674249679E+02  0.00000000000E+00 0. -1.
         -1    1    1    2    0  504 -0.12337070823E+02 -0.60817816886E+02 -0.24518167800E+03  0.25291315781E+03  0.00000000000E+00 0.  1.
<scales pt_clust_3="122.81857" pt_clust_4="14000.00000" pt_clust_5="32.30518" pt_clust_6="60.93423"></scales>
<clustering>
<clus scale="   32.305">  1  5  2 -1</clus>
<clus scale="   60.934">  2  6  1 -1</clus>
<clus scale="  122.819">  1  3  2 -1</clus>
<clus scale="   32.305">  1  3  2 -1</clus>
</clustering>
</event>
<event>
 6    0  0.2572175E+002  0.7992403E+02  0.7546771E-02  0.1329267E+00
         21   -1    0    0  503  502  0.00000000000E+00  0.00000000000E+00  0.20892078254E+04  0.20892078254E+04  0.00000000000E+00 0.  1.
          3   -1    0    0  505    0 -0.00000000000E+00 -0.00000000000E+00 -0.47915548801E+02  0.47915548801E+02  0.00000000000E+00 0.  1.
         21    1    1    2  503  504  0.35173462108E+02  0.12292428103E+02  0.60115643128E+03  0.60230999585E+03  0.00000000000E+00 0. -1.
         21    1    1    2  504  501  0.13112243501E+02 -0.45185584329E+02  0.12951950685E+04  0.12960493561E+04  0.00000000000E+00 0.  1.
         21    1    1    2  505  502 -0.10723279266E+03 -0.10872567283E+02  0.11982725877E+03  0.16116965125E+03  0.00000000000E+00 0. -1.
          3    1    1    2  501    0  0.58947087048E+02  0.43765723508E+02  0.25113518064E+02  0.77594371028E+02  0.00000000000E+00 0.  1.
<scales pt_clust_3="37.25958" pt_clust_4="55.70240" pt_clust_5="14000.00000" pt_clust_6="79.92403"></scales>
<clustering>
<clus scale="   37.260">  1  3  2 -1</clus>
<clus scale="   55.702">  1  4  2 -1</clus>
<clus scale="   79.924">  2  6  1 -1</clus>
<clus scale="   37.260">  1  3  2 -1</clus>
</clustering>
</event>
<event>
 6    0  0.2572175E+002  0.1958832E+03  0.7546771E-02  0.1153260E+00
         21   -1    0    0  501  502  0.00000000000E+00  0.00000000000E+00  0.91341732298E+03  0.91341732298E+03  0.00000000000E+00 0.  1.
          1   -1    0    0  503    0 -0.00000000000E+00 -0.00000000000E+00 -0.79410111772E+03  0.79410111772E+03  0.00000000000E+00 0.  1.
         21    1    1    2  503  505  0.39752975264E+02  0.99906364044E+02 -0.16058724524E+03  0.19326107718E+03  0.00000000000E+00 0.  1.
         21    1    1    2  504  502 -0.11638883490E+02  0.10408066822E+03  0.49787668469E+03  0.50877248576E+03  0.00000000000E+00 0.  1.
         21    1    1    2  505  504  0.21310772787E+02  0.86057318355E+02  0.35256896745E+03  0.36354489115E+03  0.00000000000E+00 0.  1.
          1    1    1    2  501    0 -0.49424864561E+02 -0.29004435062E+03 -0.57054220163E+03  0.64193998661E+03  0.00000000000E+00 0.  1.
<scales pt_clust_3="107.52479" pt_clust_4="34.83900" pt_clust_5="34.83900" pt_clust_6="192.18856"></scales>
<clustering>
<clus scale="   34.839">  4  5 -1 -1</clus>
<clus scale="  107.525">  2  3  1 -1</clus>
<clus scale="  192.189">  2  6  1 -1</clus>
<clus scale="  195.883">  1  3  2 -1</clus>
</clustering>
</event>
<event>
 6    0  0.2572175E+002  0.7819294E+02  0.7546771E-02  0.1334259E+00
          1   -1    0    0  503    0 -0.00000000000E+00  0.00000000000E+00  0.13309702613E+04  0.13309702613E+04  0.00000000000E+00 0. -1.
         21   -1    0    0  504  502  0.00000000000E+00 -0.00000000000E+00 -0.32092538561E+03  0.32092538561E+03  0.00000000000E+00 0. -1.
         21    1    1    2  503  505 -0.49656513185E+02 -0.21902422825E+02  0.23094139565E+01  0.54321439783E+02  0.00000000000E+00 0. -1.
         21    1    1    2  504  501  0.14172307771E+03  0.27032329442E+02  0.60189808517E+02  0.15632974970E+03  0.00000000000E+00 0. -1.
         21    1    1    2  505  502 -0.31778944965E+02  0.42595789692E+02 -0.24273410208E+03  0.24848369556E+03  0.00000000000E+00 0. -1.
          1    1    1    2  501    0 -0.60287619562E+02 -0.47725696310E+02  0.11902797553E+04  0.11927607619E+04  0.00000000000E+00 0. -1.
<scales pt_clust_3="61.05483" pt_clust_4="14000.00000" pt_clust_5="53.14417" pt_clust_6="78.19294"></scales>
<clustering>
<clus scale="   53.144">  2  5  1 -1</clus>
<clus scale="   61.055">  2  3  1 -1</clus>
<clus scale="   78.193">  1  6  2 -1</clus>
<clus scale="   53.144">  2  3  1 -1</clus>
</clustering>
</event>
<event>
 6    0  0.2572175E+002  0.1471305E+03  0.7546771E-02  0.1204044E+00
          3   -1    0    0  504    0 -0.00000000000E+00  0.00000000000E+00  0.60277278819E+03  0.60277278819E+03  0.00000000000E+00 0.  1.
         21   -1    0    0  505  502  0.00000000000E+00 -0.00000000000E+00 -0.11417903332E+03  0.11417903332E+03  0.00000000000E+00 0. -1.
         21    1    1    2  503  502  0.87598137202E+02 -0.58753546294E+02  0.42225609622E+02  0.11361520563E+03  0.00000000000E+00 0. -1.
         21    1    1    2  504  503 -0.17078059591E+02 -0.13383751132E+03  0.55768930481E+02  0.14599422304E+03  0.00000000000E+00 0. -1.
         21    1    1    2  505  501 -0.48451057817E+02  0.41403096422E+02  0.40913361976E+02  0.75733906443E+02  0.00000000000E+00 0. -1.
          3    1    1    2  501    0 -0.22069019795E+02  0.15118796119E+03  0.34968585279E+03  0.38160848639E+03  0.00000000000E+00 0.  1.
<scales pt_clust_3="82.17274" pt_clust_4="147.13055" pt_clust_5="63.73164" pt_clust_6="14000.00000"></scales>
<clustering>
<clus scale="   63.732">  2  5  1 -1</clus>
<clus scale="   82.173">  2  3  1 -1</clus>
<clus scale="  147.131">  2  4  1 -1</clus>
<clus scale="   63.732">  2  3  1 -1</clus>
</clustering>
</event>
<event>
 6    0  0.2572175E+002  0.9206543E+02  0.7546771E-02  0.1297926E+00
         21   -1    0    0  505  502  0.00000000000E+00  0.00000000000E+00  0.50582121101E+02  0.50582121101E+02  0.00000000000E+00 0. -1.
          2   -1    0    0  503    0 -0.00000000000E+00 -0.00000000000E+00 -0.18089923633E+04  0.18089923633E+04  0.00000000000E+00 0. -1.
         21    1    1    2  503  502 -0.22112257354E+02 -0.22393667650E+02 -0.38675563860E+02  0.49862084954E+02  0.00000000000E+00 0. -1.
         21    1    1    2  504  501  0.60230627353E+02  0.73722483807E+02 -0.68012679092E+03  0.68675700565E+03  0.00000000000E+00 0.  1.
         21    1    1    2  505  504 -0.65537298785E+02  0.54964271635E+02 -0.84279082745E+01  0.85949044941E+02  0.00000000000E+00 0. -1.
          2    1    1    2  501    0  0.27418928786E+02 -0.10629308779E+03 -0.10311799791E+04  0.10370063489E+04  0.00000000000E+00 0. -1.
<scales pt_clust_3="31.47107" pt_clust_4="14000.00000" pt_clust_5="91.80190" pt_clust_6="92.06543"></scales>
<clustering>
<clus scale="   31.471">  1  3  2 -1</clus>
<clus scale="   91.802">  1  5  2 -1</clus>
<clus scale="   92.065">  2  6  1 -1</clus>
<clus scale="   31.471">  1  3  2 -1</clus>
</clustering>
</event>
<event>
 6    0  0.2572175E+002  0.8430752E+02  0.7546771E-02  0.1317253E+00
          1   -1    0    0  503    0 -0.00000000000E+00  0.00000000000E+00  0.18051978918E+04  0.18051978918E+04  0.00000000000E+00 0. -1.
         21   -1    0    0  501  502  0.00000000000E+00 -0.00000000000E+00 -0.36449040774E+02  0.36449040774E+02  0.00000000000E+00 0. -1.
         21    1    1    2  503  505  0.47041165397E+02 -0.51233803003E+01  0.20531276474E+03  0.21069516281E+03  0.00000000000E+00 0. -1.
         21    1    1    2  504  502  0.30491994398E+02 -0.10964280112E+03  0.10575290206E+03  0.15535437507E+03  0.00000000000E+00 0. -1.
         21    1    1    2  505  504  0.11884542593E+01  0.78933861223E+02  0.12219516410E+04  0.12244989913E+04  0.00000000000E+00 0. -1.
          1    1    1    2  501    0 -0.78721614054E+02  0.35832320192E+02  0.23573154321E+03  0.25109840333E+03  0.00000000000E+00 0. -1.
<scales pt_clust_3="47.31934" pt_clust_4="14000.00000" pt_clust_5="84.30752" pt_clust_6="79.67662"></scales>
<clustering>
<clus scale="   47.319">  1  3  2 -1</clus>
<clus scale="   79.677">  2  6  1 -1</clus>
<clus scale="   84.308">  1  5  2 -1</clus>
<clus scale="   79.677">  2  3  1 -1</clus>
</clustering>
</event>
<event>
 6    0  0.2572175E+002  0.1898827E+03  0.7546771E-02  0.1158567E+00
          2   -1    0    0  503    0 -0.00000000000E+00  0.00000000000E+00  0.47341696593E+04  0.47341696593E+04  0.00000000000E+00 0.  1.
         21   -1    0    0  504  502  0.00000000000E+00 -0.00000000000E+00 -0.75422151498E+01  0.75422151498E+01  0.00000000000E+00 0.  1.
         21    1    1    2  503  505 -0.19746459953E+02  0.80357967375E+02  0.11473900246E+04  0.11503700249E+04  0.00000000000E+00 0.  1.
         21    1    1    2  504  501  0.67529202500E+02 -0.76357053133E+02  0.12411299529E+04  0.12453088584E+04  0.00000000000E+00 0.  1.
         21    1    1    2  505  502 -0.71645975123E+02  0.76665730759E+02  0.10678918009E+04  0.10730347983E+04  0.00000000000E+00 0.  1.
          2    1    1    2  501    0  0.23863232576E+02 -0.80666645001E+02  0.12702156658E+04  0.12729981929E+04  0.00000000000E+00 0.  1.
<scales pt_clust_3="49.01407" pt_clust_4="40.67298" pt_clust_5="49.01407" pt_clust_6="187.11918"></scales>
<clustering>
<clus scale="   40.673">  4  6 -1 -1</clus>
<clus scale="   49.014">  3  5 -1 -1</clus>
<clus scale="  187.119">  1  4  2 -1</clus>
<clus scale="  189.883">  2  3  1 -1</clus>
</clustering>
</event>
<event>
 6    0  0.2572175E+002  0.8661998E+02  0.7546771E-02  0.1311250E+00
         -1   -1    0    0    0  501 -0.00000000000E+00  0.00000000000E+00  0.15846106597E+03  0.15846106597E+03  0.00000000000E+00 0. -1.
         21   -1    0    0  503  502  0.00000000000E+00 -0.00000000000E+00 -0.17016097978E+03  0.17016097978E+03  0.00000000000E+00 0. -1.
         21    1    1    2  503  504  0.20377161760E+02 -0.36612379415E+02 -0.37578516603E+02  0.56283567388E+02  0.00000000000E+00 0. -1.
         21    1    1    2  504  505  0.42544266250E+02 -0.61371300460E+01 -0.57088784989E+02  0.71461936214E+02  0.00000000000E+00 0. -1.
         21    1    1    2  505  501  0.41675500665E+02  0.57181530266E+02  0.76303914804E+01  0.71167391644E+02  0.00000000000E+00 0. -1.
         -1    1    1    2    0  502 -0.10459692868E+03 -0.14432020805E+02  0.75336996307E+02  0.12970915051E+03  0.00000000000E+00 0. -1.
<scales pt_clust_3="39.12544" pt_clust_4="39.12544" pt_clust_5="70.75715" pt_clust_6="77.02358"></scales>
<clustering>
<clus scale="   39.125">  3  4 -1 -1</clus>
<clus scale="   70.757">  1  5  2 -1</clus>
<clus scale="   77.024">  1  6  2 -1</clus>
<clus scale="   86.620">  2  3  1 -1</clus>
</clustering>
</event>
<event>
 6    0  0.2572175E+002  0.8707418E+02  0.7546771E-02  0.1310096E+00
         -2   -1    0    0    0  501 -0.00000000000E+00  0.00000000000E+00  0.37538621274E+03  0.37538621274E+03  0.00000000000E+00 0. -1.
         21   -1    0    0  504  502  0.00000000000E+00 -0.00000000000E+00 -0.19866622631E+03  0.19866622631E+03  0.00000000000E+00 0.  1.
         21    1    1    2  503  501  0.18061041721E+02  0.39624314911E+02  0.19997890578E+00  0.43546843189E+02  0.00000000000E+00 0.  1.
         21    1    1    2  504  503  0.35057302224E+02  0.14652526328E+02 -0.68991073180E+02  0.78762168237E+02  0.00000000000E+00 0.  1.
         21    1    1    2  505  502 -0.13706059630E+03 -0.53522048584E+02 -0.41359734459E+02  0.15284254767E+03  0.00000000000E+00 0.  1.
         -2    1    1    2    0  505  0.83942252358E+02 -0.75479265477E+00  0.28687081516E+03  0.29890087995E+03  0.00000000000E+00 0. -1.
<scales pt_clust_3="48.59476" pt_clust_4="37.99620" pt_clust_5="87.07418" pt_clust_6="14000.00000"></scales>
<clustering>
<clus scale="   37.996">  2  4  1 -1</clus>
<clus scale="   48.595">  2  3  1 -1</clus>
<clus scale="   87.074">  2  5  1 -1</clus>
<clus scale="   37.996">  2  3  1 -1</clus>
</clustering>
</event>
<event>
 6    0  0.2572175E+002  0.1266023E+03  0.7546771E-02  0.1232586E+00
         21   -1    0    0  503  502  0.00000000000E+00  0.00000000000E+00  0.76616670814E+03  0.76616670814E+03  0.00000000000E+00 0.  1.
         -2   -1    0    0    0  501 -0.00000000000E+00 -0.00000000000E+00 -0.17401395783E+03  0.17401395783E+03  0.00000000000E+00 0.  1.
         21    1    1    2  503  501  0.13381716821E+03 -0.53437827364E+02  0.90096660722E+02  0.16994129626E+03  0.00000000000E+00 0.  1.
         21    1    1    2  504  505 -0.47398902250E+02  0.72038499279E+02  0.51768436640E+03  0.52481740113E+03  0.00000000000E+00 0.  1.
         21    1    1    2  505  502 -0.18513240078E+02  0.62708443047E+02  0.79576172921E+02  0.10299250548E+03  0.00000000000E+00 0.  1.
         -2    1    1    2    0  504 -0.67905025881E+02 -0.81309114962E+02 -0.95204449730E+02  0.14242946312E+03  0.00000000000E+00 0.  1.
<scales pt_clust_3="126.60229" pt_clust_4="14000.00000" pt_clust_5="65.38416" pt_clust_6="104.68371"></scales>
<clustering>
<clus scale="   65.384">  1  5  2 -1</clus>
<clus scale="  104.684">  2  6  1 -1</clus>
<clus scale="  126.602">  2  3  1 -1</clus>
<clus scale="   65.384">  1  3  2 -1</clus>
</clustering>
</event>
<event>
 6    0  0.2572175E+002  0.1305016E+03  0.7546771E-02  0.1226713E+00
          3   -1    0    0  503    0 -0.00000000000E+00  0.00000000000E+00  0.13180676309E+03  0.13180676309E+03  0.00000000000E+00 0.  1.
         21   -1    0    0  504  502  0.00000000000E+00 -0.00000000000E+00 -0.14122231853E+04  0.14122231853E+04  0.00000000000E+00 0. -1.
         21    1    1    2  503  502  0.84637674433E+02 -0.62707487996E+01 -0.11961784489E+04  0.11991854484E+04  0.00000000000E+00 0. -1.
         21    1    1    2  504  505  0.49582849693E+02 -0.98430250739E+01 -0.16806175786E+03  0.17549956860E+03  0.00000000000E+00 0.  1.
         21    1    1    2  505  501 -0.10525132667E+03  0.53052692411E+01  0.34050167484E+02  0.11074927338E+03  0.00000000000E+00 0. -1.
          3    1    1    2  501    0 -0.28969197452E+02  0.10808504632E+02  0.49773617062E+02  0.58595657935E+02  0.00000000000E+00 0.  1.
<scales pt_clust_3="14000.00000" pt_clust_4="49.08880" pt_clust_5="130.50157" pt_clust_6="30.91987"></scales>
<clustering>
<clus scale="   30.920">  1  6  2 -1</clus>
<clus scale="   49.089">  2  4  1 -1</clus>
<clus scale="  130.502">  1  5  2 -1</clus>
<clus scale="   49.089">  2  3  1 -1</clus>
</clustering>
</event>
<event>
 6    0  0.2572175E+002  0.6564281E+02  0.7546771E-02  0.1375570E+00
         21   -1    0    0  505  502  0.00000000000E+00  0.00000000000E+00  0.35182440498E+03  0.35182440498E+03  0.00000000000E+00 0.  1.
          2   -1    0    0  504    0 -0.00000000000E+00 -0.00000000000E+00 -0.72957776190E+03  0.72957776190E+03  0.00000000000E+00 0. -1.
         21    1    1    2  503  501 -0.33548257167E+02  0.28429144659E+02  0.21051955790E+02  0.48753324682E+02  0.00000000000E+00 0.  1.
         21    1    1    2  504  502  0.52066887678E+01 -0.10268485818E+03  0.10484702811E+02  0.10334998162E+03  0.00000000000E+00 0.  1.
         21    1    1    2  505  503  0.40514646215E+02  0.10765458183E+02  0.25673945645E+03  0.26013934755E+03  0.00000000000E+00 0.  1.
          2    1    1    2  501    0 -0.12173077815E+02  0.63490255336E+02 -0.66602947197E+03  0.66915951303E+03  0.00000000000E+00 0. -1.
<scales pt_clust_3="37.30895" pt_clust_4="65.64281" pt_clust_5="41.92054" pt_clust_6="14000.00000"></scales>
<clustering>
<clus scale="   41.921">  1  5  2 -1</clus>
<clus scale="   37.309">  1  3  2 -1</clus>
<clus scale="   65.643">  1  4  2 -1</clus>
<clus scale="   41.921">  1  3  2 -1</clus>
</clustering>
</event>
<event>
 6    0  0.2572175E+002  0.1333914E+03  0.7546771E-02  0.1222509E+00
         21   -1    0    0  505  502  0.00000000000E+00  0.00000000000E+00  0.11282884215E+03  0.11282884215E+03  0.00000000000E+00 0. -1.
          1   -1    0    0  503    0 -0.00000000000E+00 -0.00000000000E+00 -0.50420549810E+03  0.50420549810E+03  0.00000000000E+00 0. -1.
         21    1    1    2  503  504 -0.56357859969E+02  0.18163774338E+02 -0.46201034787E+02  0.75104372002E+02  0.00000000000E+00 0. -1.
         21    1    1    2  504  502 -0.55050474183E+02 -0.36665686551E+02 -0.38204523361E+02  0.76383983159E+02  0.00000000000E+00 0. -1.
         21    1    1    2  505  501  0.99905886551E+02  0.14765781468E+03 -0.62686590656E+02  0.18898048855E+03  0.00000000000E+00 0. -1.
          1    1    1    2  501    0  0.11502447601E+02 -0.12915590247E+03 -0.24428450714E+03  0.27656549653E+03  0.00000000000E+00 0. -1.
<scales pt_clust_3="52.42685" pt_clust_4="125.79516" pt_clust_5="133.39141" pt_clust_6="14000.00000"></scales>
<clustering>
<clus scale="   52.427">  3  4 -1 -1</clus>
<clus scale="  125.795">  1  3  2 -1</clus>
<clus scale="  133.391">  1  5  2 -1</clus>
<clus scale="  125.795">  1  3  2 -1</clus>
</clustering>
</event>
<event>
 6    0  0.2572175E+002  0.1235432E+03  0.7546771E-02  0.1237364E+00
         21   -1    0    0  505  502  0.00000000000E+00  0.00000000000E+00  0.36928475401E+03  0.36928475401E+03  0.00000000000E+00 0. -1.
          2   -1    0    0  504    0 -0.00000000000E+00 -0.00000000000E+00 -0.65716048741E+03  0.65716048741E+03  0.00000000000E+00 0. -1.
         21    1    1    2  503  502 -0.61133700702E+02 -0.99821579390E+02  0.19869597695E+03  0.23061172635E+03  0.00000000000E+00 0. -1.
         21    1    1    2  504  503 -0.42903088343E+02 -0.39802243704E+02  0.71716202638E+01  0.58960374239E+02  0.00000000000E+00 0. -1.
         21    1    1    2  505  501  0.59877205246E+02  0.12747974276E+03  0.79549116518E+02  0.16175421621E+03  0.00000000000E+00 0. -1.
          2    1    1    2  501    0  0.44159583799E+02  0.12144080336E+02 -0.57329244713E+03  0.57511892463E+03  0.00000000000E+00 0. -1.
<scales pt_clust_3="123.54318" pt_clust_4="46.31114" pt_clust_5="14000.00000" pt_clust_6="45.79899"></scales>
<clustering>
<clus scale="   45.799">  2  6  1 -1</clus>
<clus scale="   46.311">  2  4  1 -1</clus>
<clus scale="  123.543">  1  3  2 -1</clus>
<clus scale="  123.543">  1  3  2 -1</clus>
</clustering>
</event>
<event>
 6    0  0.2572175E+002  0.1258379E+03  0.7546771E-02  0.1233766E+00
         21   -1    0    0  503  502  0.00000000000E+00  0.00000000000E+00  0.15511634053E+04  0.15511634053E+04  0.00000000000E+00 0. -1.
         -2   -1    0    0    0  501 -0.00000000000E+00 -0.00000000000E+00 -0.11480206961E+03  0.11480206961E+03  0.00000000000E+00 0.  1.
         21    1    1    2  503  501  0.51052024814E+02  0.37165254102E+02 -0.15182471490E+02  0.64946691915E+02  0.00000000000E+00 0.  1.
         21    1    1    2  504  505 -0.30932880133E+02 -0.67618072994E+02  0.96697909630E+03  0.96983381027E+03  0.00000000000E+00 0. -1.
         21    1    1    2  505  502  0.10513246447E+02 -0.51031736996E+02  0.53029750991E+03  0.53285102566E+03  0.00000000000E+00 0. -1.
         -2    1    1    2    0  504 -0.30632391129E+02  0.81484555887E+02 -0.45732799045E+02  0.98333947053E+02  0.00000000000E+00 0.  1.
<scales pt_clust_3="63.14717" pt_clust_4="34.81458" pt_clust_5="34.81458" pt_clust_6="118.76627"></scales>
<clustering>
<clus scale="   34.815">  4  5 -1 -1</clus>
<clus scale="   63.147">  2  3  1 -1</clus>
<clus scale="  118.766">  2  6  1 -1</clus>
<clus scale="  125.838">  1  3  2 -1</clus>
</clustering>
</event>
<event>
 6    0  0.2572175E+002  0.1362179E+03  0.7546771E-02  0.1218511E+00
         -2   -1    0    0    0  501 -0.00000000000E+00  0.00000000000E+00  0.10309933287E+04  0.10309933287E+04  0.00000000000E+00 0.  1.
         21   -1    0    0  504  502  0.00000000000E+00 -0.00000000000E+00 -0.10367030885E+03  0.10367030885E+03  0.00000000000E+00 0.  1.
         21    1    1    2  503  502  0.35666052652E+02  0.18923396070E+03  0.25286628136E+03  0.31784102228E+03  0.00000000000E+00 0.  1.
         21    1    1    2  504  505  0.36450229063E+02 -0.93424696463E+02 -0.65347199579E+01  0.10049624706E+03  0.00000000000E+00 0.  1.
         21    1    1    2  505  501 -0.14959112105E+02 -0.10492884936E+03  0.15870887966E+03  0.19084639621E+03  0.00000000000E+00 0.  1.
         -2    1    1    2    0  503 -0.57157169610E+02  0.91195851222E+01  0.52228257882E+03  0.52547997203E+03  0.00000000000E+00 0.  1.
<scales pt_clust_3="14000.00000" pt_clust_4="97.68140" pt_clust_5="136.21787" pt_clust_6="57.88013"></scales>
<clustering>
<clus scale="   57.880">  1  6  2 -1</clus>
<clus scale="   97.681">  2  4  1 -1</clus>
<clus scale="  136.218">  1  5  2 -1</clus>
<clus scale="   97.681">  2  3  1 -1</clus>
</clustering>
</event>
<event>
 6    0  0.2572175E+002  0.6183204E+02  0.7546771E-02  0.1390300E+00
          1   -1    0    0  505    0 -0.00000000000E+00  0.00000000000E+00  0.88089221428E+03  0.88089221428E+03  0.00000000000E+00 0.  1.
         21   -1    0    0  503  502  0.00000000000E+00 -0.00000000000E+00 -0.51442959543E+02  0.51442959543E+02  0.00000000000E+00 0. -1.
         21    1    1    2  503  501  0.41510533428E+02 -0.26609328305E+02  0.33653169269E+02  0.59696872114E+02  0.00000000000E+00 0.  1.
         21    1    1    2  504  502 -0.66925058414E+02  0.76681517332E+02  0.45597022192E+02  0.11152626138E+03  0.00000000000E+00 0. -1.
         21    1    1    2  505  504  0.44793034586E+02  0.20708532291E+02  0.41805277661E+03  0.42095532220E+03  0.00000000000E+00 0.  1.
          1    1    1    2  501    0 -0.19378509600E+02 -0.70780721319E+02  0.33214628667E+03  0.34015671813E+03  0.00000000000E+00 0.  1.
<scales pt_clust_3="49.30700" pt_clust_4="61.83204" pt_clust_5="50.37427" pt_clust_6="14000.00000"></scales>
<clustering>
<clus scale="   49.307">  2  3  1 -1</clus>
<clus scale="   50.374">  1  5  2 -1</clus>
<clus scale="   61.832">  2  4  1 -1</clus>
<clus scale="   49.307">  2  3  1 -1</clus>
</clustering>
</event>
<event>
 6    0  0.2572175E+002  0.1028242E+03  0.7546771E-02  0.1274467E+00
          2   -1    0    0  502    0 -0.00000000000E+00  0.00000000000E+00  0.26360782149E+04  0.26360782149E+04  0.00000000000E+00 0.  1.
         21   -1    0    0  504  502  0.00000000000E+00 -0.00000000000E+00 -0.27943530862E+02  0.27943530862E+02  0.00000000000E+00 0. -1.
         21    1    1    2  503  501 -0.10877156524E+03 -0.45331046056E+01  0.58450734531E+03  0.59455919736E+03  0.00000000000E+00 0.  1.
         21    1    1    2  504  505  0.56524413309E+02 -0.41331878855E+02  0.12517534912E+03  0.14343012772E+03  0.00000000000E+00 0. -1.
         21    1    1    2  505  503  0.55821670941E+02  0.84176471399E+02  0.17429390766E+03  0.20144503849E+03  0.00000000000E+00 0. -1.
          2    1    1    2  501    0 -0.35745190149E+01 -0.38311487938E+02  0.17241580820E+04  0.17245873822E+04  0.00000000000E+00 0.  1.
<scales pt_clust_3="14000.00000" pt_clust_4="73.09213" pt_clust_5="102.82419" pt_clust_6="38.47788"></scales>
<clustering>
<clus scale="   38.478">  1  6  2 -1</clus>
<clus scale="   73.092">  2  4  1 -1</clus>
<clus scale="  102.824">  2  5  1 -1</clus>
<clus scale="   73.092">  2  3  1 -1</clus>
</clustering>
</event>
<event>
 6    0  0.2572175E+002  0.1065956E+03  0.7546771E-02  0.1267007E+00
          3   -1    0    0  503    0 -0.00000000000E+00  0.00000000000E+00  0.54448124881E+03  0.54448124881E+03  0.00000000000E+00 0.  1.
         21   -1    0    0  504  502  0.00000000000E+00 -0.00000000000E+00 -0.16966954264E+03  0.16966954264E+03  0.00000000000E+00 0.  1.
         21    1    1    2  503  505 -0.30334758012E+02  0.31870138875E+02  0.38713773776E+03  0.38962999281E+03  0.00000000000E+00 0.  1.
         21    1    1    2  504  501 -0.42501982740E+02 -0.12883821173E+03 -0.37844693272E+02  0.14084716592E+03  0.00000000000E+00 0.  1.
         21    1    1    2  505  502  0.12005862364E+01  0.89921000736E+02 -0.27763332396E+02  0.94117110062E+02  0.00000000000E+00 0.  1.
          3    1    1    2  501    0  0.71636154515E+02  0.70470721204E+01  0.53281994077E+02  0.89556522666E+02  0.00000000000E+00 0.  1.
<scales pt_clust_3="43.99890" pt_clust_4="106.59559" pt_clust_5="14000.00000" pt_clust_6="61.67397"></scales>
<clustering>
<clus scale="   43.999">  1  3  2 -1</clus>
<clus scale="   61.674">  1  6  2 -1</clus>
<clus scale="  106.596">  1  4  2 -1</clus>
<clus scale="  106.596">  2  3  1 -1</clus>
</clustering>
</event>
<event>
 6    0  0.2572175E+002  0.1293606E+03  0.7546771E-02  0.1228408E+00
         21   -1    0    0  503  502  0.00000000000E+00  0.00000000000E+00  0.11872245099E+03  0.11872245099E+03  0.00000000000E+00 0. -1.
          2   -1    0    0  504    0 -0.00000000000E+00 -0.00000000000E+00 -0.10359654466E+04  0.10359654466E+04  0.00000000000E+00 0.  1.
         21    1    1    2  503  501  0.36108504086E+02  0.21223262791E+02  0.85258276946E+02  0.94990656060E+02  0.00000000000E+00 0. -1.
         21    1    1    2  504  505 -0.88033643213E+02  0.85682733078E+02 -0.58194136853E+03  0.59476651679E+03  0.00000000000E+00 0.  1.
         21    1    1    2  505  502 -0.10275867334E+02  0.28964878403E+02 -0.18200148684E+02  0.35718385217E+02  0.00000000000E+00 0.  1.
          2    1    1    2  501    0  0.62201006461E+02 -0.13587087427E+03 -0.40235975538E+03  0.42921233955E+03  0.00000000000E+00 0.  1.
<scales pt_clust_3="52.80312" pt_clust_4="14000.00000" pt_clust_5="30.73366" pt_clust_6="129.36057"></scales>
<clustering>
<clus scale="   30.734">  1  5  2 -1</clus>
<clus scale="   52.803">  1  3  2 -1</clus>
<clus scale="  129.361">  1  6  2 -1</clus>
<clus scale="   30.734">  1  3  2 -1</clus>
</clustering>
</event>
<event>
 6    0  0.2572175E+002  0.1484537E+03  0.7546771E-02  0.1202386E+00
          2   -1    0    0  504    0 -0.00000000000E+00  0.00000000000E+00  0.30587966831E+03  0.30587966831E+03  0.00000000000E+00 0.  1.
         21   -1    0    0  505  502  0.00000000000E+00 -0.00000000000E+00 -0.10221785410E+04  0.10221785410E+04  0.00000000000E+00 0.  1.
         21    1    1    2  503  502 -0.10136899284E+03 -0.25690546657E+02 -0.19577694720E+03  0.22195560356E+03  0.00000000000E+00 0.  1.
         21    1    1    2  504  503 -0.76066200130E+02  0.29211784265E+02 -0.42431530549E+02  0.91868546994E+02  0.00000000000E+00 0.  1.
         21    1    1    2  505  501  0.18730227738E+03  0.25611089690E+02 -0.73324984675E+03  0.75722744852E+03  0.00000000000E+00 0.  1.
          2    1    1    2  501    0 -0.98670844087E+01 -0.29132327299E+02  0.25515945181E+03  0.25700661022E+03  0.00000000000E+00 0.  1.
<scales pt_clust_3="148.45373" pt_clust_4="82.29687" pt_clust_5="14000.00000" pt_clust_6="30.75796"></scales>
<clustering>
<clus scale="   30.758">  1  6  2 -1</clus>
<clus scale="   82.297">  1  4  2 -1</clus>
<clus scale="  148.454">  1  3  2 -1</clus>
<clus scale="  148.454">  2  3  1 -1</clus>
</clustering>
</event>
<event>
 6    0  0.2572175E+002  0.1647827E+03  0.7546771E-02  0.1183400E+00
          2   -1    0    0  504    0 -0.00000000000E+00  0.00000000000E+00  0.26523170342E+04  0.26523170342E+04  0.00000000000E+00 0. -1.
         21   -1    0    0  501  502  0.00000000000E+00 -0.00000000000E+00 -0.36941750939E+02  0.36941750939E+02  0.00000000000E+00 0. -1.
         21    1    1    2  503  505 -0.60460551247E+02 -0.95688282782E+02  0.20649393900E+03  0.23548136351E+03  0.00000000000E+00 0. -1.
         21    1    1    2  504  503  0.51642148010E+02  0.11654689221E+03  0.53161512648E+03  0.54668522226E+03  0.00000000000E+00 0.  1.
         21    1    1    2  505  502 -0.18645491381E+02 -0.46766623146E+02  0.28328740711E+02  0.57769273317E+02  0.00000000000E+00 0. -1.
          2    1    1    2  501    0  0.27463894618E+02  0.25908013715E+02  0.18489374770E+04  0.18493229260E+04  0.00000000000E+00 0. -1.
<scales pt_clust_3="44.98757" pt_clust_4="151.16305" pt_clust_5="44.98757" pt_clust_6="37.75567"></scales>
<clustering>
<clus scale="   37.756">  1  6  2 -1</clus>
<clus scale="   44.988">  3  5 -1 -1</clus>
<clus scale="  151.163">  1  4  2 -1</clus>
<clus scale="  164.783">  2  3  1 -1</clus>
</clustering>
</event>
<event>
 6    0  0.2572175E+002  0.1418145E+03  0.7546771E-02  0.1210908E+00
          2   -1    0    0  503    0 -0.00000000000E+00  0.00000000000E+00  0.25614823137E+04  0.25614823137E+04  0.00000000000E+00 0.  1.
         21   -1    0    0  504  502  0.00000000000E+00 -0.00000000000E+00 -0.11568513339E+03  0.11568513339E+03  0.00000000000E+00 0.  1.
         21    1    1    2  503  502 -0.31463264818E+02 -0.14499658269E+02  0.26517784240E+02  0.43627628906E+02  0.00000000000E+00 0. -1.
         21    1    1    2  504  505 -0.47500695924E+02  0.12776116391E+03 -0.45565109553E+02  0.14371990233E+03  0.00000000000E+00 0.  1.
         21    1    1    2  505  501  0.10873278625E+03 -0.13759419968E+03  0.61341773543E+03  0.63799396606E+03  0.00000000000E+00 0.  1.
          2    1    1    2  501    0 -0.29768825511E+02  0.24332694034E+02  0.18514267702E+04  0.18518259498E+04  0.00000000000E+00 0.  1.
<scales pt_clust_3="34.64357" pt_clust_4="141.81446" pt_clust_5="14000.00000" pt_clust_6="38.47652"></scales>
<clustering>
<clus scale="   34.644">  2  3  1 -1</clus>
<clus scale="   38.477">  1  6  2 -1</clus>
<clus scale="  141.814">  2  4  1 -1</clus>
<clus scale="   34.644">  2  3  1 -1</clus>
</clustering>
</event>
<event>
 6    0  0.2572175E+002  0.1080670E+03  0.7546771E-02  0.1264192E+00
          1   -1    0    0  505    0 -0.00000000000E+00  0.00000000000E+00  0.14215780875E+04  0.14215780875E+04  0.00000000000E+00 0. -1.
         21   -1    0    0  501  502  0.00000000000E+00 -0.00000000000E+00 -0.64559545254E+02  0.64559545254E+02  0.00000000000E+00 0.  1.
         21    1    1    2  503  504 -0.10060213117E+03  0.15669563063E+02  0.84356841833E+02  0.13222102997E+03  0.00000000000E+00 0.  1.
         21    1    1    2  504  502  0.88661164551E+01  0.48758122207E+02 -0.14783892797E+02  0.51715819517E+02  0.00000000000E+00 0.  1.
         21    1    1    2  505  503  0.26180048358E+02  0.44060634985E+02  0.16914346495E+03  0.17673778945E+03  0.00000000000E+00 0.  1.
          1    1    1    2  501    0  0.65555966358E+02 -0.10848832025E+03  0.11183021283E+04  0.11254629938E+04  0.00000000000E+00 0. -1.
<scales pt_clust_3="108.06703" pt_clust_4="49.55767" pt_clust_5="56.92313" pt_clust_6="14000.00000"></scales>
<clustering>
<clus scale="   49.558">  2  4  1 -1</clus>
<clus scale="   56.923">  1  5  2 -1</clus>
<clus scale="  108.067">  2  3  1 -1</clus>
<clus scale="   49.558">  2  3  1 -1</clus>
</clustering>
</event>
<event>
 6    0  0.2572175E+002  0.8024135E+02  0.7546771E-02  0.1328368E+00
          1   -1    0    0  503    0 -0.00000000000E+00  0.00000000000E+00  0.89055615398E+03  0.89055615398E+03  0.00000000000E+00 0.  1.
         21   -1    0    0  505  502  0.00000000000E+00 -0.00000000000E+00 -0.40397192527E+02  0.40397192527E+02  0.00000000000E+00 0.  1.
         21    1    1    2  503  502  0.61286103851E+01  0.47570453982E+02  0.13224521590E+02  0.49753350928E+02  0.00000000000E+00 0.  1.
         21    1    1    2  504  501 -0.53706642435E+02 -0.74642590134E+02  0.25498809834E+03  0.27106244667E+03  0.00000000000E+00 0.  1.
         21    1    1    2  505  504 -0.30101901201E+02  0.39535403341E+01  0.92549606047E+01  0.31739710662E+02  0.00000000000E+00 0.  1.
          1    1    1    2  501    0  0.77679933251E+02  0.23118595818E+02  0.57269138092E+03  0.57839783824E+03  0.00000000000E+00 0.  1.
<scales pt_clust_3="51.64061" pt_clust_4="14000.00000" pt_clust_5="30.36042" pt_clust_6="80.24135"></scales>
<clustering>
<clus scale="   30.360">  2  5  1 -1</clus>
<clus scale="   51.641">  2  3  1 -1</clus>
<clus scale="   80.241">  1  6  2 -1</clus>
<clus scale="   30.360">  2  3  1 -1</clus>
</clustering>
</event>
<event>
 6    0  0.2572175E+002  0.1528222E+03  0.7546771E-02  0.1197047E+00
         21   -1    0    0  504  502  0.00000000000E+00  0.00000000000E+00  0.43831701204E+03  0.43831701204E+03  0.00000000000E+00 0.  1.
          2   -1    0    0  503    0 -0.00000000000E+00 -0.00000000000E+00 -0.69424439634E+03  0.69424439634E+03  0.00000000000E+00 0.  1.
         21    1    1    2  503  502  0.41360801731E+02 -0.83421804774E+01 -0.46426063161E+02  0.62735055875E+02  0.00000000000E+00 0. -1.
         21    1    1    2  504  505 -0.15193986968E+03 -0.41741153605E+02  0.30107492975E+03  0.33981489259E+03  0.00000000000E+00 0.  1.
         21    1    1    2  505  501  0.12174514398E+03  0.81052088632E+02  0.60290040818E+02  0.15819674515E+03  0.00000000000E+00 0. -1.
          2    1    1    2  501    0 -0.11166076034E+02 -0.30968754549E+02 -0.57086629171E+03  0.57181471477E+03  0.00000000000E+00 0.  1.
<scales pt_clust_3="42.58291" pt_clust_4="14000.00000" pt_clust_5="152.82217" pt_clust_6="32.92028"></scales>
<clustering>
<clus scale="   32.920">  2  6  1 -1</clus>
<clus scale="   42.583">  2  3  1 -1</clus>
<clus scale="  152.822">  2  5  1 -1</clus>
<clus scale="  152.822">  1  3  2 -1</clus>
</clustering>
</event>
<event>
 6    0  0.2572175E+002  0.1582302E+03  0.7546771E-02  0.1190709E+00
          2   -1    0    0  505    0 -0.00000000000E+00  0.00000000000E+00  0.12206572546E+04  0.12206572546E+04  0.00000000000E+00 0.  1.
         21   -1    0    0  504  502  0.00000000000E+00 -0.00000000000E+00 -0.44448054114E+03  0.44448054114E+03  0.00000000000E+00 0. -1.
         21    1    1    2  503  501 -0.84165463294E+02 -0.40853202335E+02 -0.21968809741E+03  0.23877954162E+03  0.00000000000E+00 0. -1.
         21    1    1    2  504  503 -0.39362904371E+02 -0.50442615318E+02 -0.19552879425E+03  0.20573139056E+03  0.00000000000E+00 0. -1.
         21    1    1    2  505  502  0.23866325194E+02  0.33438083600E+02  0.24039318604E+02  0.47598274675E+02  0.00000000000E+00 0.  1.
          2    1    1    2  501    0  0.99662042471E+02  0.57857734054E+02  0.11673542865E+04  0.11730285889E+04  0.00000000000E+00 0.  1.
<scales pt_clust_3="32.98328" pt_clust_4="32.98328" pt_clust_5="41.08171" pt_clust_6="153.12111"></scales>
<clustering>
<clus scale="   32.983">  3  4 -1 -1</clus>
<clus scale="   41.082">  1  5  2 -1</clus>
<clus scale="  153.121">  1  6  2 -1</clus>
<clus scale="  158.230">  2  3  1 -1</clus>
</clustering>
</event>
<event>
 6    0  0.2572175E+002  0.1011184E+03  0.7546771E-02  0.1277962E+00
          1   -1    0    0  502    0 -0.00000000000E+00  0.00000000000E+00  0.27129977260E+04  0.27129977260E+04  0.00000000000E+00 0.  1.
         21   -1    0    0  505  502  0.00000000000E+00 -0.00000000000E+00 -0.90220443498E+02  0.90220443498E+02  0.00000000000E+00 0. -1.
         21    1    1    2  503  504  0.61659689029E+02 -0.12037511407E+02  0.14351478185E+02  0.64442096941E+02  0.00000000000E+00 0. -1.
         21    1    1    2  504  501 -0.13777855447E+03  0.22111161309E+01  0.19514705290E+04  0.19563294827E+04  0.00000000000E+00 0.  1.
         21    1    1    2  505  503  0.39194692244E+02 -0.11945812027E+02 -0.55342531025E+02  0.68860163124E+02  0.00000000000E+00 0. -1.
          1    1    1    2  501    0  0.36924173198E+02  0.21772207303E+02  0.71229780631E+03  0.71358642676E+03  0.00000000000E+00 0.  1.
<scales pt_clust_3="101.11839" pt_clust_4="14000.00000" pt_clust_5="40.97470" pt_clust_6="43.50527"></scales>
<clustering>
<clus scale="   40.975">  2  5  1 -1</clus>
<clus scale="   43.505">  1  6  2 -1</clus>
<clus scale="  101.118">  2  3  1 -1</clus>
<clus scale="   40.975">  2  3  1 -1</clus>
</clustering>
</event>
<event>
 6    0  0.2572175E+002  0.1307912E+03  0.7546771E-02  0.1226286E+00
          4   -1    0    0  505    0 -0.00000000000E+00  0.00000000000E+00  0.25350983697E+03  0.25350983697E+03  0.00000000000E+00 0.  1.
         21   -1    0    0  504  502  0.00000000000E+00 -0.00000000000E+00 -0.24582400938E+03  0.24582400938E+03  0.00000000000E+00 0. -1.
         21    1    1    2  503  501  0.46840377682E+02  0.29709026782E+02 -0.46983170794E+02  0.72691578546E+02  0.00000000000E+00 0. -1.
         21    1    1    2  504  503  0.46193683164E+02  0.52725384295E+02 -0.14781302695E+03  0.16359252260E+03  0.00000000000E+00 0. -1.
         21    1    1    2  505  502 -0.51803408260E+02  0.80987460636E+01  0.21783533378E+02  0.56777681545E+02  0.00000000000E+00 0.  1.
          4    1    1    2  501    0 -0.41230652585E+02 -0.90533157141E+02  0.18069849196E+03  0.20627206367E+03  0.00000000000E+00 0.  1.
<scales pt_clust_3="43.88452" pt_clust_4="43.88452" pt_clust_5="52.43265" pt_clust_6="121.13005"></scales>
<clustering>
<clus scale="   43.885">  3  4 -1 -1</clus>
<clus scale="   52.433">  1  5  2 -1</clus>
<clus scale="  121.130">  1  6  2 -1</clus>
<clus scale="  130.791">  2  3  1 -1</clus>
</clustering>
</event>
<event>
 6    0  0.2572175E+002  0.1450981E+03  0.7546771E-02  0.1206629E+00
          2   -1    0    0  504    0 -0.00000000000E+00  0.00000000000E+00  0.11844763553E+04  0.11844763553E+04  0.00000000000E+00 0. -1.
         21   -1    0    0  505  502  0.00000000000E+00 -0.00000000000E+00 -0.22607557816E+04  0.22607557816E+04  0.00000000000E+00 0.  1.
         21    1    1    2  503  502 -0.16722576139E+02  0.67729457751E+02 -0.50292121302E+03  0.50773681224E+03  0.00000000000E+00 0. -1.
         21    1    1    2  504  503  0.85870365010E+02  0.18465416674E+02  0.46600377581E+02  0.99429806349E+02  0.00000000000E+00 0. -1.
         21    1    1    2  505  501 -0.13106357559E+03 -0.93622644516E+02 -0.17243794695E+04  0.17318855087E+04  0.00000000000E+00 0.  1.
          2    1    1    2  501    0  0.61915786714E+02  0.74277700913E+01  0.11044208786E+04  0.11061800096E+04  0.00000000000E+00 0. -1.
<scales pt_clust_3="69.55677" pt_clust_4="14000.00000" pt_clust_5="145.09808" pt_clust_6="62.35973"></scales>
<clustering>
<clus scale="   62.360">  1  6  2 -1</clus>
<clus scale="   69.557">  2  3  1 -1</clus>
<clus scale="  145.098">  2  5  1 -1</clus>
<clus scale="   69.557">  2  3  1 -1</clus>
</clustering>
</event>
<event>
 6    0  0.2572175E+002  0.1985388E+03  0.7546771E-02  0.1150978E+00
          2   -1    0    0  502    0 -0.00000000000E+00  0.00000000000E+00  0.17217076281E+04  0.17217076281E+04  0.00000000000E+00 0.  1.
         21   -1    0    0  503  502  0.00000000000E+00 -0.00000000000E+00 -0.98643838061E+02  0.98643838061E+02  0.00000000000E+00 0. -1.
         21    1    1    2  503  505  0.78163887016E+02 -0.18936782449E+03  0.71199258486E+02  0.21688499394E+03  0.00000000000E+00 0. -1.
         21    1    1    2  504  501 -0.41438569651E+02  0.65462041060E+02  0.19255771043E+03  0.20755940287E+03  0.00000000000E+00 0.  1.
         21    1    1    2  505  504 -0.38822383455E+02  0.60947043789E+02  0.56891810627E+02  0.91969547788E+02  0.00000000000E+00 0. -1.
          2    1    1    2  501    0  0.20970660904E+01  0.62958739640E+02  0.13024150105E+04  0.13039375216E+04  0.00000000000E+00 0.  1.
<scales pt_clust_3="185.32726" pt_clust_4="63.21134" pt_clust_5="63.21134" pt_clust_6="62.99366"></scales>
<clustering>
<clus scale="   62.994">  1  6  2 -1</clus>
<clus scale="   63.211">  4  5 -1 -1</clus>
<clus scale="  185.327">  2  3  1 -1</clus>
<clus scale="  185.327">  2  3  1 -1</clus>
</clustering>
</event>
<event>
 6    0  0.2572175E+002  0.1633866E+03  0.7546771E-02  0.1184926E+00
          2   -1    0    0  505    0 -0.00000000000E+00  0.00000000000E+00  0.14027686655E+04  0.14027686655E+04  0.00000000000E+00 0. -1.
         21   -1    0    0  504  502  0.00000000000E+00 -0.00000000000E+00 -0.18437404117E+03  0.18437404117E+03  0.00000000000E+00 0.  1.
         21    1    1    2  503  501  0.31461208286E+02 -0.68979542590E+01 -0.18358848123E+02  0.37073396178E+02  0.00000000000E+00 0.  1.
         21    1    1    2  504  503  0.59504611192E+02  0.26956545075E+02 -0.10199275987E+03  0.12111968107E+03  0.00000000000E+00 0.  1.
         21    1    1    2  505  502 -0.40494574802E+02  0.14116730304E+03  0.97545153541E+02  0.17630392796E+03  0.00000000000E+00 0.  1.
          2    1    1    2  501    0 -0.50471244676E+02 -0.16122589386E+03  0.12412010787E+04  0.12526457014E+04  0.00000000000E+00 0. -1.
<scales pt_clust_3="30.31083" pt_clust_4="102.66713" pt_clust_5="163.38659" pt_clust_6="14000.00000"></scales>
<clustering>
<clus scale="   30.311">  3  4 -1 -1</clus>
<clus scale="  102.667">  2  3  1 -1</clus>
<clus scale="  163.387">  2  5  1 -1</clus>
<clus scale="  102.667">  2  3  1 -1</clus>
</clustering>
</event>
<event>
 6    0  0.2572175E+002  0.1728970E+03  0.7546771E-02  0.1174860E+00
          2   -1    0    0  505    0 -0.00000000000E+00  0.00000000000E+00  0.16347496736E+04  0.16347496736E+04  0.00000000000E+00 0.  1.
         21   -1    0    0  503  502  0.00000000000E+00 -0.00000000000E+00 -0.11191586849E+03  0.11191586849E+03  0.00000000000E+00 0.  1.
         21    1    1    2  503  504  0.56125423540E+02 -0.59352173388E+02  0.19188193529E+02  0.83910252201E+02  0.00000000000E+00 0.  1.
         21    1    1    2  504  501  0.62627479215E+02 -0.77102641795E+02  0.79417525348E+02  0.12717767830E+03  0.00000000000E+00 0.  1.
         21    1    1    2  505  502 -0.17756420151E+03  0.16299950466E+02  0.99660472763E+02  0.20427174027E+03  0.00000000000E+00 0.  1.
          2    1    1    2  501    0  0.58811298753E+02  0.12015486472E+03  0.13245676135E+04  0.13313058713E+04  0.00000000000E+00 0.  1.
<scales pt_clust_3="41.68356" pt_clust_4="41.68356" pt_clust_5="166.67484" pt_clust_6="133.77578"></scales>
<clustering>
<clus scale="   41.684">  3  4 -1 -1</clus>
<clus scale="  133.776">  1  6  2 -1</clus>
<clus scale="  166.675">  1  5  2 -1</clus>
<clus scale="  172.897">  2  3  1 -1</clus>
</clustering>
</event>
<event>
 6    0  0.2572175E+002  0.1685955E+03  0.7546771E-02  0.1179321E+00
         -1   -1    0    0    0  501 -0.00000000000E+00  0.00000000000E+00  0.53731892619E+03  0.53731892619E+03  0.00000000000E+00 0.  1.
         21   -1    0    0  503  502  0.00000000000E+00 -0.00000000000E+00 -0.15298803739E+04  0.15298803739E+04  0.00000000000E+00 0. -1.
         21    1    1    2  503  504 -0.79160109256E+02 -0.16267232812E+02 -0.74598516995E+03  0.75034979813E+03  0.00000000000E+00 0. -1.
         21    1    1    2  504  505 -0.88575715097E+02  0.15819190402E+02 -0.58035515652E+03  0.58728869544E+03  0.00000000000E+00 0.  1.
         21    1    1    2  505  501  0.13992576276E+03  0.16657065236E+02 -0.17222919539E+03  0.22252993653E+03  0.00000000000E+00 0. -1.
         -1    1    1    2    0  502  0.27810061592E+02 -0.16209022826E+02  0.50600807419E+03  0.50703086996E+03  0.00000000000E+00 0.  1.
<scales pt_clust_3="42.35107" pt_clust_4="42.35107" pt_clust_5="162.67102" pt_clust_6="32.18900"></scales>
<clustering>
<clus scale="   32.189">  1  6  2 -1</clus>
<clus scale="   42.351">  3  4 -1 -1</clus>
<clus scale="  162.671">  1  5  2 -1</clus>
<clus scale="  168.595">  2  3  1 -1</clus>
</clustering>
</event>
<event>
 6    0  0.2572175E+002  0.1201852E+03  0.7546771E-02  0.1242792E+00
          2   -1    0    0  503    0 -0.00000000000E+00  0.00000000000E+00  0.15058812531E+04  0.15058812531E+04  0.00000000000E+00 0.  1.
         21   -1    0    0  504  502  0.00000000000E+00 -0.00000000000E+00 -0.35407936559E+03  0.35407936559E+03  0.00000000000E+00 0.  1.
         21    1    1    2  503  505  0.44803408204E+02 -0.40348830064E+02  0.62918714137E+02  0.87144351870E+02  0.00000000000E+00 0.  1.
         21    1    1    2  504  501  0.10570757741E+03 -0.17118532745E+02 -0.14836569697E+02  0.10810763102E+03  0.00000000000E+00 0.  1.
         21    1    1    2  505  502 -0.11985223206E+03  0.32528103133E+02 -0.26644960428E+03  0.29396943148E+03  0.00000000000E+00 0.  1.
          2    1    1    2  501    0 -0.30658753553E+02  0.24939259676E+02  0.13701693473E+04  0.13707392043E+04  0.00000000000E+00 0.  1.
<scales pt_clust_3="38.44122" pt_clust_4="120.18520" pt_clust_5="14000.00000" pt_clust_6="39.52121"></scales>
<clustering>
<clus scale="   39.521">  1  6  2 -1</clus>
<clus scale="   38.441">  1  3  2 -1</clus>
<clus scale="  120.185">  1  4  2 -1</clus>
<clus scale="  120.185">  2  3  1 -1</clus>
</clustering>
</event>
<event>
 6    0  0.2572175E+002  0.1295616E+03  0.7546771E-02  0.1228108E+00
          2   -1    0    0  505    0 -0.00000000000E+00  0.00000000000E+00  0.27678573363E+04  0.27678573363E+04  0.00000000000E+00 0. -1.
         21   -1    0    0  504  502  0.00000000000E+00 -0.00000000000E+00 -0.79086879145E+03  0.79086879145E+03  0.00000000000E+00 0. -1.
         21    1    1    2  503  502  0.51150990600E+02 -0.46147304707E+02 -0.43234896415E+03  0.43780317995E+03  0.00000000000E+00 0. -1.
         21    1    1    2  504  501 -0.12495665448E+02  0.65611697221E+02  0.15417161337E+03  0.16801762657E+03  0.00000000000E+00 0.  1.
         21    1    1    2  505  503  0.73574200277E+00 -0.62108405079E+02 -0.34577860805E+03  0.35131302436E+03  0.00000000000E+00 0. -1.
          2    1    1    2  501    0 -0.39391067155E+02  0.42644012565E+02  0.26009445037E+04  0.26015922969E+04  0.00000000000E+00 0. -1.
<scales pt_clust_3="50.33702" pt_clust_4="118.21956" pt_clust_5="50.33702" pt_clust_6="58.05315"></scales>
<clustering>
<clus scale="   50.337">  3  5 -1 -1</clus>
<clus scale="   58.053">  1  6  2 -1</clus>
<clus scale="  118.220">  1  4  2 -1</clus>
<clus scale="  129.562">  2  3  1 -1</clus>
</clustering>
</event>
<event>
 6    0  0.2572175E+002  0.2306161E+03  0.7546771E-02  0.1126207E+00
         -3   -1    0    0    0  501 -0.00000000000E+00  0.00000000000E+00  0.12156253302E+03  0.12156253302E+03  0.00000000000E+00 0.  1.
         21   -1    0    0  504  502  0.00000000000E+00 -0.00000000000E+00 -0.68129390975E+03  0.68129390975E+03  0.00000000000E+00 0.  1.
         21    1    1    2  503  505 -0.29423737230E+02 -0.64984872449E+02 -0.11130204711E+03  0.13220036176E+03  0.00000000000E+00 0.  1.
         21    1    1    2  504  501 -0.85514821670E+01  0.25312669544E+03 -0.25679324739E+03  0.36067856007E+03  0.00000000000E+00 0.  1.
         21    1    1    2  505  502  0.38091691786E+02 -0.13484161479E+03 -0.21098455355E+03  0.25327400162E+03  0.00000000000E+00 0.  1.
         -3    1    1    2    0  503 -0.11647238931E+00 -0.53300208195E+02  0.19348471323E+02  0.56703519309E+02  0.00000000000E+00 0.  1.
<scales pt_clust_3="48.99998" pt_clust_4="220.15383" pt_clust_5="48.99998" pt_clust_6="53.30034"></scales>
<clustering>
<clus scale="   49.000">  3  5 -1 -1</clus>
<clus scale="   53.300">  1  6  2 -1</clus>
<clus scale="  220.154">  1  4  2 -1</clus>
<clus scale="  230.616">  2  3  1 -1</clus>
</clustering>
</event>
<event>
 6    0  0.2572175E+002  0.1111665E+03  0.7546771E-02  0.1258425E+00
         21   -1    0    0  503  502  0.00000000000E+00  0.00000000000E+00  0.37586027117E+02  0.37586027117E+02  0.00000000000E+00 0. -1.
          1   -1    0    0  504    0 -0.00000000000E+00 -0.00000000000E+00 -0.18156233142E+04  0.18156233142E+04  0.00000000000E+00 0. -1.
         21    1    1    2  503  505 -0.33426801704E+02 -0.38029803254E+02 -0.37394461201E+02  0.62944123921E+02  0.00000000000E+00 0. -1.
         21    1    1    2  504  502  0.10961329962E+03  0.17399884999E+03 -0.58940570112E+03  0.62425135624E+03  0.00000000000E+00 0. -1.
         21    1    1    2  505  501 -0.22903283367E+02 -0.53749270457E+02 -0.16725355844E+03  0.17716460503E+03  0.00000000000E+00 0. -1.
          1    1    1    2  501    0 -0.53283214544E+02 -0.82219776275E+02 -0.98398356631E+03  0.98884925612E+03  0.00000000000E+00 0. -1.
<scales pt_clust_3="50.63217" pt_clust_4="111.16647" pt_clust_5="68.10399" pt_clust_6="14000.00000"></scales>
<clustering>
<clus scale="   50.632">  1  3  2 -1</clus>
<clus scale="   68.104">  1  5  2 -1</clus>
<clus scale="  111.166">  1  4  2 -1</clus>
<clus scale="   50.632">  1  3  2 -1</clus>
</clustering>
</event>
<event>
 6    0  0.2572175E+002  0.6594567E+02  0.7546771E-02  0.1374449E+00
          2   -1    0    0  505    0 -0.00000000000E+00  0.00000000000E+00  0.44143862909E+03  0.44143862909E+03  0.00000000000E+00 0. -1.
         21   -1    0    0  504  502  0.00000000000E+00 -0.00000000000E+00 -0.90579409546E+02  0.90579409546E+02  0.00000000000E+00 0. -1.
         21    1    1    2  503  501 -0.67024477632E+02  0.39078530181E+02  0.17309216040E+03  0.18968475984E+03  0.00000000000E+00 0. -1.
         21    1    1    2  504  503  0.29948222045E+02  0.64519408106E+02  0.10354280279E+02  0.71880881646E+02  0.00000000000E+00 0. -1.
         21    1    1    2  505  502  0.15464739832E+02 -0.66755921262E+02 -0.25313394094E+02  0.73049839988E+02  0.00000000000E+00 0. -1.
          2    1    1    2  501    0  0.21611515754E+02 -0.36842017025E+02  0.19272617296E+03  0.19740255716E+03  0.00000000000E+00 0. -1.
<scales pt_clust_3="52.49271" pt_clust_4="14000.00000" pt_clust_5="65.94567" pt_clust_6="42.71290"></scales>
<clustering>
<clus scale="   42.713">  1  6  2 -1</clus>
<clus scale="   52.493">  1  3  2 -1</clus>
<clus scale="   65.946">  2  5  1 -1</clus>
<clus scale="   65.946">  2  3  1 -1</clus>
</clustering>
</event>
<event>
 6    0  0.2572175E+002  0.1137025E+03  0.7546771E-02  0.1253863E+00
          2   -1    0    0  505    0 -0.00000000000E+00  0.00000000000E+00  0.16702478078E+04  0.16702478078E+04  0.00000000000E+00 0. -1.
         21   -1    0    0  504  502  0.00000000000E+00 -0.00000000000E+00 -0.61085833767E+03  0.61085833767E+03  0.00000000000E+00 0.  1.
         21    1    1    2  503  501  0.11366341270E+03  0.46032924751E+02  0.24123373641E+03  0.27061433283E+03  0.00000000000E+00 0. -1.
         21    1    1    2  504  503  0.34020341737E+02  0.36622392073E+01  0.40084849457E+01  0.34450886774E+02  0.00000000000E+00 0.  1.
         21    1    1    2  505  502 -0.33977503557E+02 -0.56191432659E+02 -0.57675624573E+03  0.58048231225E+03  0.00000000000E+00 0.  1.
          2    1    1    2  501    0 -0.11370625088E+03  0.64962687001E+01  0.13909034945E+04  0.13955586136E+04  0.00000000000E+00 0. -1.
<scales pt_clust_3="113.70247" pt_clust_4="34.21689" pt_clust_5="52.64203" pt_clust_6="14000.00000"></scales>
<clustering>
<clus scale="   34.217">  2  4  1 -1</clus>
<clus scale="   52.642">  2  5  1 -1</clus>
<clus scale="  113.702">  2  3  1 -1</clus>
<clus scale="   34.217">  2  3  1 -1</clus>
</clustering>
</event>
<event>
 6    0  0.2572175E+002  0.9020904E+02  0.7546771E-02  0.1302346E+00
          2   -1    0    0  503    0 -0.00000000000E+00  0.00000000000E+00  0.23814358156E+03  0.23814358156E+03  0.00000000000E+00 0.  1.
         21   -1    0    0  505  502  0.00000000000E+00 -0.00000000000E+00 -0.19373847338E+03  0.19373847338E+03  0.00000000000E+00 0.  1.
         21    1    1    2  503  502  0.22553025503E+02 -0.56293628040E+02  0.47417486703E+02  0.76980709028E+02  0.00000000000E+00 0.  1.
         21    1    1    2  504  501 -0.91931349389E+02  0.95166456566E+02 -0.10547649858E+03  0.16921382688E+03  0.00000000000E+00 0.  1.
         21    1    1    2  505  504  0.48496440129E+02 -0.45961967821E+01 -0.23064737622E+02  0.53898161858E+02  0.00000000000E+00 0.  1.
          2    1    1    2  501    0  0.20881883757E+02 -0.34276631743E+02  0.12552885768E+03  0.13178935717E+03  0.00000000000E+00 0.  1.
<scales pt_clust_3="14000.00000" pt_clust_4="90.20904" pt_clust_5="52.29282" pt_clust_6="40.13652"></scales>
<clustering>
<clus scale="   40.137">  1  6  2 -1</clus>
<clus scale="   52.293">  2  5  1 -1</clus>
<clus scale="   90.209">  2  4  1 -1</clus>
<clus scale="   52.293">  2  3  1 -1</clus>
</clustering>
</event>
<event>
 6    0  0.2572175E+002  0.1228584E+03  0.7546771E-02  0.1238455E+00
         21   -1    0    0  503  502  0.00000000000E+00  0.00000000000E+00  0.73618866526E+03  0.73618866526E+03  0.00000000000E+00 0. -1.
          4   -1    0    0  505    0 -0.00000000000E+00 -0.00000000000E+00 -0.80733267931E+03  0.80733267931E+03  0.00000000000E+00 0.  1.
         21    1    1    2  503  504  0.40769182481E+02 -0.11231065222E+02  0.19147442513E+03  0.19608854772E+03  0.00000000000E+00 0. -1.
         21    1    1    2  504  501  0.21580073443E+02 -0.59945937050E+02  0.19730960754E+03  0.20734101419E+03  0.00000000000E+00 0.  1.
         21    1    1    2  505  502 -0.10441286929E+03  0.10779128234E+03  0.32248538865E+03  0.35569345470E+03  0.00000000000E+00 0. -1.
          4    1    1    2  501    0  0.42063613363E+02 -0.36614280071E+02 -0.78241343537E+03  0.78439832796E+03  0.00000000000E+00 0.  1.
<scales pt_clust_3="41.92965" pt_clust_4="41.92965" pt_clust_5="111.55888" pt_clust_6="55.76695"></scales>
<clustering>
<clus scale="   41.930">  3  4 -1 -1</clus>
<clus scale="   55.767">  2  6  1 -1</clus>
<clus scale="  111.559">  2  5  1 -1</clus>
<clus scale="  122.858">  1  3  2 -1</clus>
</clustering>
</event>
<event>
 6    0  0.2572175E+002  0.1112418E+03  0.7546771E-02  0.1258287E+00
         21   -1    0    0  503  502  0.00000000000E+00  0.00000000000E+00  0.79185590064E+02  0.79185590064E+02  0.00000000000E+00 0. -1.
          2   -1    0    0  505    0 -0.00000000000E+00 -0.00000000000E+00 -0.76257866086E+03  0.76257866086E+03  0.00000000000E+00 0. -1.
         21    1    1    2  503  501  0.64945115256E+02 -0.12324624704E+02 -0.51606665168E+02  0.83863056584E+02  0.00000000000E+00 0. -1.
         21    1    1    2  504  502 -0.57817980147E+02 -0.64540046911E+02 -0.46572996160E+01  0.86775727731E+02  0.00000000000E+00 0. -1.
         21    1    1    2  505  504 -0.10559054234E+03  0.91136608389E+02 -0.36171540009E+03  0.38767676572E+03  0.00000000000E+00 0. -1.
          2    1    1    2  501    0  0.98463407231E+02 -0.14271936774E+02 -0.26541370593E+03  0.28344870089E+03  0.00000000000E+00 0. -1.
<scales pt_clust_3="66.10419" pt_clust_4="74.20824" pt_clust_5="111.24184" pt_clust_6="14000.00000"></scales>
<clustering>
<clus scale="   66.104">  1  3  2 -1</clus>
<clus scale="   74.208">  1  4  2 -1</clus>
<clus scale="  111.242">  1  5  2 -1</clus>
<clus scale="   66.104">  1  3  2 -1</clus>
</clustering>
</event>
<event>
 6    0  0.2572175E+002  0.1553600E+03  0.7546771E-02  0.1194037E+00
         21   -1    0    0  503  502  0.00000000000E+00  0.00000000000E+00  0.57903648950E+03  0.57903648950E+03  0.00000000000E+00 0. -1.
          1   -1    0    0  504    0 -0.00000000000E+00 -0.00000000000E+00 -0.83542386227E+03  0.83542386227E+03  0.00000000000E+00 0. -1.
         21    1    1    2  503  501 -0.21009812852E+02  0.15532987803E+03  0.45420772256E+03  0.48049291199E+03  0.00000000000E+00 0. -1.
         21    1    1    2  504  505  0.24366074927E+02 -0.15300593689E+03 -0.12353182429E+03  0.19815305686E+03  0.00000000000E+00 0. -1.
         21    1    1    2  505  502  0.31026285699E+02  0.21351094005E+00  0.70668462996E+02  0.77179710115E+02  0.00000000000E+00 0.  1.
          1    1    1    2  501    0 -0.34382547774E+02 -0.25374520798E+01 -0.65773173403E+03  0.65863467279E+03  0.00000000000E+00 0. -1.
<scales pt_clust_3="14000.00000" pt_clust_4="155.36005" pt_clust_5="31.02702" pt_clust_6="34.44838"></scales>
<clustering>
<clus scale="   31.027">  1  5  2 -1</clus>
<clus scale="   34.448">  2  6  1 -1</clus>
<clus scale="  155.360">  2  4  1 -1</clus>
<clus scale="   31.027">  1  3  2 -1</clus>
</clustering>
</event>
<event>
 6    0  0.2574104E+002  0.1109598E+03  0.7546771E-02  0.1258803E+00
          2   -1    0    0  503    0 -0.00000000000E+00  0.00000000000E+00  0.19979352707E+04  0.19979352707E+04  0.00000000000E+00 0.  1.
         21   -1    0    0  504  502  0.00000000000E+00 -0.00000000000E+00 -0.25188156739E+03  0.25188156739E+03  0.00000000000E+00 0.  1.
         21    1    1    2  503  502  0.22465639473E+02  0.29683250279E+02 -0.96934886600E+02  0.10383724064E+03  0.00000000000E+00 0.  1.
         21    1    1    2  504  505 -0.60272739661E+02  0.17385737354E+02 -0.89075000055E+02  0.10894687992E+03  0.00000000000E+00 0.  1.
         21    1    1    2  505  501  0.83724187501E+01  0.61676451611E+02 -0.31831183037E+02  0.69909271864E+02  0.00000000000E+00 0.  1.
          2    1    1    2  501    0  0.29434681438E+02 -0.10874543924E+03  0.19638947730E+04  0.19671234457E+04  0.00000000000E+00 0.  1.
<scales pt_clust_3="37.22634" pt_clust_4="58.58013" pt_clust_5="14000.00000" pt_clust_6="110.95984"></scales>
<clustering>
<clus scale="   37.226">  2  3  1 -1</clus>
<clus scale="   58.580">  2  4  1 -1</clus>
<clus scale="  110.960">  1  6  2 -1</clus>
<clus scale="   37.226">  2  3  1 -1</clus>
</clustering>
</event>
<event>
 6    0  0.2572175E+002  0.2597064E+03  0.7546771E-02  0.1107320E+00
          2   -1    0    0  504    0 -0.00000000000E+00  0.00000000000E+00  0.49964240452E+03  0.49964240452E+03  0.00000000000E+00 0.  1.
         21   -1    0    0  503  502  0.00000000000E+00 -0.00000000000E+00 -0.83069956993E+03  0.83069956993E+03  0.00000000000E+00 0.  1.
         21    1    1    2  503  501 -0.20093193016E+02  0.60381228084E+02 -0.37954021471E+00  0.63637828068E+02  0.00000000000E+00 0.  1.
         21    1    1    2  504  505 -0.16768305825E+03  0.68574111583E+02  0.14972699449E+03  0.23502806148E+03  0.00000000000E+00 0.  1.
         21    1    1    2  505  502  0.21581559616E+03 -0.16272904432E+03 -0.72990515389E+03  0.77834352768E+03  0.00000000000E+00 0.  1.
          2    1    1    2  501    0 -0.28039344896E+02  0.33773704649E+02  0.24950053420E+03  0.25333255723E+03  0.00000000000E+00 0.  1.
<scales pt_clust_3="68.87808" pt_clust_4="14000.00000" pt_clust_5="259.70638" pt_clust_6="43.89610"></scales>
<clustering>
<clus scale="   43.896">  1  6  2 -1</clus>
<clus scale="   68.878">  1  3  2 -1</clus>
<clus scale="  259.706">  2  5  1 -1</clus>
<clus scale="  259.706">  2  3  1 -1</clus>
</clustering>
</event>
<event>
 6    0  0.2572175E+002  0.7253618E+02  0.7546771E-02  0.1351675E+00
         21   -1    0    0  503  502  0.00000000000E+00  0.00000000000E+00  0.13434052694E+03  0.13434052694E+03  0.00000000000E+00 0.  1.
         -2   -1    0    0    0  501 -0.00000000000E+00 -0.00000000000E+00 -0.22159372268E+03  0.22159372268E+03  0.00000000000E+00 0.  1.
         21    1    1    2  503  504 -0.11718954083E+02 -0.30720212069E+02  0.53243217964E+01  0.33307862690E+02  0.00000000000E+00 0. -1.
         21    1    1    2  504  501  0.66733905947E+02 -0.57927567944E+02 -0.34142558686E+02  0.94735060271E+02  0.00000000000E+00 0.  1.
         21    1    1    2  505  502 -0.57750212124E+02  0.13179553509E+02  0.61993499760E+02  0.85743697398E+02  0.00000000000E+00 0.  1.
         -2    1    1    2    0  505  0.27352602593E+01  0.75468226505E+02 -0.12042845861E+03  0.14214762926E+03  0.00000000000E+00 0.  1.
<scales pt_clust_3="32.87956" pt_clust_4="72.53618" pt_clust_5="65.60381" pt_clust_6="14000.00000"></scales>
<clustering>
<clus scale="   32.880">  1  3  2 -1</clus>
<clus scale="   65.604">  1  5  2 -1</clus>
<clus scale="   72.536">  1  4  2 -1</clus>
<clus scale="   32.880">  1  3  2 -1</clus>
</clustering>
</event>
<event>
 6    0  0.2572175E+002  0.2058504E+03  0.7546771E-02  0.1144895E+00
         21   -1    0    0  504  502  0.00000000000E+00  0.00000000000E+00  0.49253934791E+03  0.49253934791E+03  0.00000000000E+00 0.  1.
         -2   -1    0    0    0  501 -0.00000000000E+00 -0.00000000000E+00 -0.27262046012E+03  0.27262046012E+03  0.00000000000E+00 0. -1.
         21    1    1    2  503  505 -0.83552040187E+02 -0.58399848207E+02  0.95167732516E+02  0.13945745947E+03  0.00000000000E+00 0.  1.
         21    1    1    2  504  501  0.10859571832E+03  0.16931088133E+03  0.27846685705E+03  0.34351564018E+03  0.00000000000E+00 0.  1.
         21    1    1    2  505  502 -0.73951196121E+02 -0.56643242297E+02  0.18630568553E+02  0.94996496726E+02  0.00000000000E+00 0.  1.
         -2    1    1    2    0  503  0.48907517992E+02 -0.54267790828E+02 -0.17234627034E+03  0.18719021165E+03  0.00000000000E+00 0. -1.
<scales pt_clust_3="60.27985" pt_clust_4="195.95398" pt_clust_5="60.27985" pt_clust_6="73.05435"></scales>
<clustering>
<clus scale="   60.280">  3  5 -1 -1</clus>
<clus scale="   73.054">  2  6  1 -1</clus>
<clus scale="  195.954">  1  4  2 -1</clus>
<clus scale="  195.954">  1  3  2 -1</clus>
</clustering>
</event>
<event>
 6    0  0.2572175E+002  0.1807691E+03  0.7546771E-02  0.1167061E+00
          1   -1    0    0  505    0 -0.00000000000E+00  0.00000000000E+00  0.11545366978E+04  0.11545366978E+04  0.00000000000E+00 0.  1.
         21   -1    0    0  504  502  0.00000000000E+00 -0.00000000000E+00 -0.77227455714E+03  0.77227455714E+03  0.00000000000E+00 0.  1.
         21    1    1    2  503  502  0.61708827152E+02 -0.13792768860E+02 -0.33469232437E+03  0.34061293547E+03  0.00000000000E+00 0.  1.
         21    1    1    2  504  501 -0.55093771014E+02 -0.26868635362E+02 -0.23550603859E+03  0.24335229891E+03  0.00000000000E+00 0.  1.
         21    1    1    2  505  503  0.87179050292E+02  0.19380131433E+03 -0.12765676411E+03  0.24790196786E+03  0.00000000000E+00 0.  1.
          1    1    1    2  501    0 -0.93794106430E+02 -0.15313991011E+03  0.10801172678E+04  0.10949440527E+04  0.00000000000E+00 0.  1.
<scales pt_clust_3="40.83975" pt_clust_4="61.29639" pt_clust_5="180.76913" pt_clust_6="14000.00000"></scales>
<clustering>
<clus scale="   61.296">  2  4  1 -1</clus>
<clus scale="   40.840">  2  3  1 -1</clus>
<clus scale="  180.769">  2  5  1 -1</clus>
<clus scale="   61.296">  2  3  1 -1</clus>
</clustering>
</event>
<event>
 6    0  0.2572175E+002  0.6648355E+02  0.7546771E-02  0.1372476E+00
          2   -1    0    0  505    0 -0.00000000000E+00  0.00000000000E+00  0.20188094186E+04  0.20188094186E+04  0.00000000000E+00 0. -1.
         21   -1    0    0  503  502  0.00000000000E+00 -0.00000000000E+00 -0.28528351645E+02  0.28528351645E+02  0.00000000000E+00 0.  1.
         21    1    1    2  503  501 -0.15087778861E+02 -0.42377165165E+02  0.11402339535E+03  0.12257569043E+03  0.00000000000E+00 0.  1.
         21    1    1    2  504  502  0.72343236341E+02  0.62413299060E+02  0.10697510972E+03  0.14343164868E+03  0.00000000000E+00 0.  1.
         21    1    1    2  505  504 -0.55582441204E+02  0.48800255183E+02  0.25571315279E+03  0.26619558446E+03  0.00000000000E+00 0.  1.
          2    1    1    2  501    0 -0.16730162756E+01 -0.68836389079E+02  0.15135694091E+04  0.15151348467E+04  0.00000000000E+00 0. -1.
<scales pt_clust_3="44.98294" pt_clust_4="68.23060" pt_clust_5="14000.00000" pt_clust_6="66.48355"></scales>
<clustering>
<clus scale="   44.983">  2  3  1 -1</clus>
<clus scale="   68.231">  2  4  1 -1</clus>
<clus scale="   66.484">  1  6  2 -1</clus>
<clus scale="   44.983">  2  3  1 -1</clus>
</clustering>
</event>
<event>
 6    0  0.2572175E+002  0.1051950E+03  0.7546771E-02  0.1269736E+00
         21   -1    0    0  501  502  0.00000000000E+00  0.00000000000E+00  0.14437256659E+03  0.14437256659E+03  0.00000000000E+00 0. -1.
          2   -1    0    0  503    0 -0.00000000000E+00 -0.00000000000E+00 -0.37394028290E+04  0.37394028290E+04  0.00000000000E+00 0. -1.
         21    1    1    2  503  504  0.47769312724E+02 -0.13965107907E+03 -0.10288021791E+03  0.17991295218E+03  0.00000000000E+00 0. -1.
         21    1    1    2  504  505  0.95776933129E+01  0.46371721809E+02  0.24333298987E+02  0.53237000595E+02  0.00000000000E+00 0. -1.
         21    1    1    2  505  502  0.31046439456E+02  0.36660056586E+02  0.57598240159E+02  0.75002656095E+02  0.00000000000E+00 0. -1.
          2    1    1    2  501    0 -0.88393445493E+02  0.56619300679E+02 -0.35740815836E+04  0.35756227867E+04  0.00000000000E+00 0. -1.
<scales pt_clust_3="14000.00000" pt_clust_4="34.21965" pt_clust_5="98.65411" pt_clust_6="105.19501"></scales>
<clustering>
<clus scale="   34.220">  4  5 -1 -1</clus>
<clus scale="   98.654">  1  4  2 -1</clus>
<clus scale="  105.195">  2  6  1 -1</clus>
<clus scale="   98.654">  1  3  2 -1</clus>
</clustering>
</event>
<event>
 6    0  0.2572175E+002  0.1034989E+03  0.7546771E-02  0.1273106E+00
          1   -1    0    0  504    0 -0.00000000000E+00  0.00000000000E+00  0.13438500405E+04  0.13438500405E+04  0.00000000000E+00 0.  1.
         21   -1    0    0  505  502  0.00000000000E+00 -0.00000000000E+00 -0.19774950357E+03  0.19774950357E+03  0.00000000000E+00 0.  1.
         21    1    1    2  503  502 -0.28246936896E+02 -0.16563755025E+02 -0.53724362868E+02  0.62917045307E+02  0.00000000000E+00 0.  1.
         21    1    1    2  504  503  0.49195440436E+02  0.83190575958E+01  0.43844169782E+03  0.44127148159E+03  0.00000000000E+00 0. -1.
         21    1    1    2  505  501  0.40724196010E+01  0.11692425546E+03 -0.10900567762E+03  0.15990654730E+03  0.00000000000E+00 0.  1.
          1    1    1    2  501    0 -0.25020923141E+02 -0.10867955803E+03  0.87038887962E+03  0.87750446990E+03  0.00000000000E+00 0.  1.
<scales pt_clust_3="32.74519" pt_clust_4="49.58335" pt_clust_5="103.49888" pt_clust_6="14000.00000"></scales>
<clustering>
<clus scale="   32.745">  2  3  1 -1</clus>
<clus scale="   49.583">  1  4  2 -1</clus>
<clus scale="  103.499">  2  5  1 -1</clus>
<clus scale="   32.745">  2  3  1 -1</clus>
</clustering>
</event>
<event>
 6    0  0.2572175E+002  0.1195331E+03  0.7546771E-02  0.1243869E+00
         21   -1    0    0  504  502  0.00000000000E+00  0.00000000000E+00  0.67072512296E+02  0.67072512296E+02  0.00000000000E+00 0. -1.
          3   -1    0    0  503    0 -0.00000000000E+00 -0.00000000000E+00 -0.69581825710E+03  0.69581825710E+03  0.00000000000E+00 0. -1.
         21    1    1    2  503  505  0.24797265749E+02 -0.69701234664E+02 -0.31831992746E+02  0.80538452086E+02  0.00000000000E+00 0. -1.
         21    1    1    2  504  501  0.91474490620E+01  0.95570793010E+02 -0.22025990324E+03  0.24027458725E+03  0.00000000000E+00 0. -1.
         21    1    1    2  505  502  0.14905610394E+02 -0.41087748861E+02  0.15669625051E+02  0.46431858427E+02  0.00000000000E+00 0. -1.
          3    1    1    2  501    0 -0.48850325205E+02  0.15218190514E+02 -0.39232347387E+03  0.39564587164E+03  0.00000000000E+00 0. -1.
<scales pt_clust_3="34.45784" pt_clust_4="110.80813" pt_clust_5="34.45784" pt_clust_6="51.16588"></scales>
<clustering>
<clus scale="   34.458">  3  5 -1 -1</clus>
<clus scale="   51.166">  2  6  1 -1</clus>
<clus scale="  110.808">  2  4  1 -1</clus>
<clus scale="  119.533">  1  3  2 -1</clus>
</clustering>
</event>
<event>
 6    0  0.2572175E+002  0.7760647E+02  0.7546771E-02  0.1335984E+00
         -2   -1    0    0    0  501 -0.00000000000E+00  0.00000000000E+00  0.81819847623E+03  0.81819847623E+03  0.00000000000E+00 0.  1.
         21   -1    0    0  503  502  0.00000000000E+00 -0.00000000000E+00 -0.31613518830E+03  0.31613518830E+03  0.00000000000E+00 0. -1.
         21    1    1    2  503  501  0.72602584164E+02  0.62620818850E+01  0.16330050468E+02  0.74679444596E+02  0.00000000000E+00 0. -1.
         21    1    1    2  504  505 -0.10232026790E+03  0.76470037539E+02 -0.11655696579E+03  0.17292376973E+03  0.00000000000E+00 0. -1.
         21    1    1    2  505  502  0.37096749555E+02 -0.51830017774E+02 -0.13471940940E+03  0.14903636751E+03  0.00000000000E+00 0. -1.
         -2    1    1    2    0  504 -0.73790658234E+01 -0.30902101650E+02  0.73700961265E+03  0.73769408269E+03  0.00000000000E+00 0.  1.
<scales pt_clust_3="14000.00000" pt_clust_4="77.60647" pt_clust_5="65.61700" pt_clust_6="31.77091"></scales>
<clustering>
<clus scale="   31.771">  1  6  2 -1</clus>
<clus scale="   65.617">  2  5  1 -1</clus>
<clus scale="   77.606">  2  4  1 -1</clus>
<clus scale="   65.617">  2  3  1 -1</clus>
</clustering>
</event>
<event>
 6    0  0.2572175E+002  0.9768507E+02  0.7546771E-02  0.1285241E+00
         21   -1    0    0  501  502  0.00000000000E+00  0.00000000000E+00  0.30837197896E+02  0.30837197896E+02  0.00000000000E+00 0. -1.
          1   -1    0    0  503    0 -0.00000000000E+00 -0.00000000000E+00 -0.14708200218E+04  0.14708200218E+04  0.00000000000E+00 0. -1.
         21    1    1    2  503  505 -0.81737404826E+02  0.65563660303E+02 -0.50199135838E+03  0.51281080409E+03  0.00000000000E+00 0. -1.
         21    1    1    2  504  502 -0.40551280809E+01 -0.32099710575E+02 -0.52219291528E+02  0.61430366192E+02  0.00000000000E+00 0.  1.
         21    1    1    2  505  504 -0.17046637652E+02 -0.36567553765E+02 -0.49992143912E+01  0.40654224727E+02  0.00000000000E+00 0. -1.
          1    1    1    2  501    0  0.10283917056E+03  0.31036040362E+01 -0.88077295959E+03  0.88676182468E+03  0.00000000000E+00 0. -1.
<scales pt_clust_3="97.68507" pt_clust_4="32.35484" pt_clust_5="61.65004" pt_clust_6="14000.00000"></scales>
<clustering>
<clus scale="   32.355">  1  4  2 -1</clus>
<clus scale="   61.650">  1  5  2 -1</clus>
<clus scale="   97.685">  1  3  2 -1</clus>
<clus scale="   32.355">  1  3  2 -1</clus>
</clustering>
</event>
<event>
 6    0  0.2572175E+002  0.1334100E+03  0.7546771E-02  0.1222482E+00
         21   -1    0    0  504  502  0.00000000000E+00  0.00000000000E+00  0.51387921752E+02  0.51387921752E+02  0.00000000000E+00 0. -1.
          2   -1    0    0  503    0 -0.00000000000E+00 -0.00000000000E+00 -0.22053564372E+04  0.22053564372E+04  0.00000000000E+00 0.  1.
         21    1    1    2  503  505  0.65006972608E+02 -0.94729796141E+02 -0.46288672171E+03  0.47693160715E+03  0.00000000000E+00 0. -1.
         21    1    1    2  504  501 -0.67775977138E+02  0.11616482085E+03 -0.73787432405E+02  0.15340284828E+03  0.00000000000E+00 0. -1.
         21    1    1    2  505  502 -0.28145516097E+02 -0.11100766032E+02 -0.47758339181E+02  0.56535440604E+02  0.00000000000E+00 0.  1.
          2    1    1    2  501    0  0.30914520627E+02 -0.10334258676E+02 -0.15695360221E+04  0.15698744629E+04  0.00000000000E+00 0.  1.
<scales pt_clust_3="133.40998" pt_clust_4="14000.00000" pt_clust_5="30.25553" pt_clust_6="32.51272"></scales>
<clustering>
<clus scale="   30.256">  1  5  2 -1</clus>
<clus scale="   32.513">  2  6  1 -1</clus>
<clus scale="  133.410">  2  3  1 -1</clus>
<clus scale="   30.256">  1  3  2 -1</clus>
</clustering>
</event>
<event>
 6    0  0.2572175E+002  0.1278049E+03  0.7546771E-02  0.1230750E+00
          2   -1    0    0  504    0 -0.00000000000E+00  0.00000000000E+00  0.12765426494E+04  0.12765426494E+04  0.00000000000E+00 0. -1.
         21   -1    0    0  503  502  0.00000000000E+00 -0.00000000000E+00 -0.70203727988E+02  0.70203727988E+02  0.00000000000E+00 0. -1.
         21    1    1    2  503  505 -0.66271821065E+02  0.68279104773E+01 -0.17138471804E+02  0.68791728024E+02  0.00000000000E+00 0.  1.
         21    1    1    2  504  502  0.11500369774E+03 -0.20791367262E+02  0.31306833706E+03  0.33417048810E+03  0.00000000000E+00 0. -1.
         21    1    1    2  505  501 -0.51004256087E+02 -0.16291724585E+02  0.27202993284E+02  0.60057116752E+02  0.00000000000E+00 0. -1.
          2    1    1    2  501    0  0.22723794078E+01  0.30255181370E+02  0.88320606284E+03  0.88372704448E+03  0.00000000000E+00 0. -1.
<scales pt_clust_3="45.67790" pt_clust_4="116.94706" pt_clust_5="45.67790" pt_clust_6="30.34040"></scales>
<clustering>
<clus scale="   30.340">  1  6  2 -1</clus>
<clus scale="   45.678">  3  5 -1 -1</clus>
<clus scale="  116.947">  1  4  2 -1</clus>
<clus scale="  127.805">  2  3  1 -1</clus>
</clustering>
</event>
<event>
 6    0  0.2572175E+002  0.5281811E+02  0.7546771E-02  0.1430708E+00
          1   -1    0    0  504    0 -0.00000000000E+00  0.00000000000E+00  0.19320595724E+04  0.19320595724E+04  0.00000000000E+00 0.  1.
         21   -1    0    0  505  502  0.00000000000E+00 -0.00000000000E+00 -0.30605518311E+03  0.30605518311E+03  0.00000000000E+00 0.  1.
         21    1    1    2  503  502  0.60463352205E+02 -0.54227904171E+02 -0.47387348412E+02  0.94032139932E+02  0.00000000000E+00 0.  1.
         21    1    1    2  504  503 -0.36778694525E+02  0.80854442142E+02  0.75909667136E+03  0.76427604284E+03  0.00000000000E+00 0.  1.
         21    1    1    2  505  501 -0.49524053016E+02  0.41304685503E+01 -0.22974654835E+03  0.23505992656E+03  0.00000000000E+00 0.  1.
          1    1    1    2  501    0  0.25839395336E+02 -0.30757006521E+02  0.11440416147E+04  0.11447466462E+04  0.00000000000E+00 0.  1.
<scales pt_clust_3="52.81811" pt_clust_4="14000.00000" pt_clust_5="49.60062" pt_clust_6="40.17048"></scales>
<clustering>
<clus scale="   40.170">  1  6  2 -1</clus>
<clus scale="   49.601">  2  5  1 -1</clus>
<clus scale="   52.818">  2  3  1 -1</clus>
<clus scale="   49.601">  2  3  1 -1</clus>
</clustering>
</event>
<event>
 6    0  0.2572175E+002  0.7203435E+02  0.7546771E-02  0.1353309E+00
          2   -1    0    0  502    0 -0.00000000000E+00  0.00000000000E+00  0.91328323481E+02  0.91328323481E+02  0.00000000000E+00 0. -1.
         21   -1    0    0  504  502  0.00000000000E+00 -0.00000000000E+00 -0.45748003321E+03  0.45748003321E+03  0.00000000000E+00 0.  1.
         21    1    1    2  503  501  0.54924791509E+02  0.12899892727E+02 -0.11029052267E+02  0.57487215523E+02  0.00000000000E+00 0. -1.
         21    1    1    2  504  505 -0.63701111512E+02 -0.46777504728E+02 -0.28455118274E+03  0.29532243761E+03  0.00000000000E+00 0.  1.
         21    1    1    2  505  503 -0.89412688594E+01  0.84029013731E+02 -0.10336648830E+03  0.13351199325E+03  0.00000000000E+00 0.  1.
          2    1    1    2  501    0  0.17717588862E+02 -0.50151401729E+02  0.32795013576E+02  0.62486710315E+02  0.00000000000E+00 0. -1.
<scales pt_clust_3="65.80152" pt_clust_4="72.03435" pt_clust_5="14000.00000" pt_clust_6="53.18906"></scales>
<clustering>
<clus scale="   53.189">  1  6  2 -1</clus>
<clus scale="   65.802">  1  3  2 -1</clus>
<clus scale="   72.034">  2  4  1 -1</clus>
<clus scale="   72.034">  2  3  1 -1</clus>
</clustering>
</event>
<event>
 6    0  0.2572175E+002  0.8324618E+02  0.7546771E-02  0.1320084E+00
         21   -1    0    0  505  502  0.00000000000E+00  0.00000000000E+00  0.11381371354E+03  0.11381371354E+03  0.00000000000E+00 0. -1.
          1   -1    0    0  502    0 -0.00000000000E+00 -0.00000000000E+00 -0.17622708780E+04  0.17622708780E+04  0.00000000000E+00 0. -1.
         21    1    1    2  503  504 -0.63239225044E+02 -0.34489683644E+02 -0.13783605060E+03  0.15552335743E+03  0.00000000000E+00 0. -1.
         21    1    1    2  504  501  0.14239982740E+03  0.31340029388E+02 -0.29803659147E+03  0.33179167883E+03  0.00000000000E+00 0. -1.
         21    1    1    2  505  503 -0.23093579587E+02  0.60479401220E+02  0.74780207450E+02  0.98909811527E+02  0.00000000000E+00 0. -1.
          1    1    1    2  501    0 -0.56067022768E+02 -0.57329746963E+02 -0.12873647298E+04  0.12898597437E+04  0.00000000000E+00 0. -1.
<scales pt_clust_3="72.31314" pt_clust_4="83.24618" pt_clust_5="64.73848" pt_clust_6="14000.00000"></scales>
<clustering>
<clus scale="   64.738">  1  5  2 -1</clus>
<clus scale="   72.313">  1  3  2 -1</clus>
<clus scale="   83.246">  1  4  2 -1</clus>
<clus scale="   64.738">  1  3  2 -1</clus>
</clustering>
</event>
<event>
 6    0  0.2572175E+002  0.3211782E+03  0.7546771E-02  0.1075108E+00
         -2   -1    0    0    0  501 -0.00000000000E+00  0.00000000000E+00  0.22552147082E+04  0.22552147082E+04  0.00000000000E+00 0. -1.
         21   -1    0    0  505  502  0.00000000000E+00 -0.00000000000E+00 -0.43831863253E+03  0.43831863253E+03  0.00000000000E+00 0.  1.
         21    1    1    2  503  504 -0.24071900693E+03 -0.62461098771E+01  0.29728378123E+03  0.38257326196E+03  0.00000000000E+00 0.  1.
         21    1    1    2  504  501 -0.12825744600E+03  0.12381628024E+03  0.25614718002E+03  0.31207662767E+03  0.00000000000E+00 0.  1.
         21    1    1    2  505  503  0.25988256003E+03  0.85587415289E+02 -0.30719895309E+03  0.41138224007E+03  0.00000000000E+00 0.  1.
         -2    1    1    2    0  502  0.10909389289E+03 -0.20315758565E+03  0.15706640675E+04  0.15875012110E+04  0.00000000000E+00 0. -1.
<scales pt_clust_3="139.50065" pt_clust_4="139.50065" pt_clust_5="277.25290" pt_clust_6="230.59593"></scales>
<clustering>
<clus scale="  139.501">  3  4 -1 -1</clus>
<clus scale="  230.596">  1  6  2 -1</clus>
<clus scale="  277.253">  2  5  1 -1</clus>
<clus scale="  277.253">  2  3  1 -1</clus>
</clustering>
</event>
<event>
 6    0  0.2572175E+002  0.1072360E+03  0.7546771E-02  0.1265776E+00
         -4   -1    0    0    0  501 -0.00000000000E+00  0.00000000000E+00  0.95920492836E+03  0.95920492836E+03  0.00000000000E+00 0.  1.
         21   -1    0    0  504  502  0.00000000000E+00 -0.00000000000E+00 -0.54848251676E+02  0.54848251676E+02  0.00000000000E+00 0. -1.
         21    1    1    2  503  501 -0.69715025594E+02 -0.98778470436E+02  0.24038051561E+03  0.26907278439E+03  0.00000000000E+00 0.  1.
         21    1    1    2  504  503  0.33608827505E+02  0.98621434163E+02  0.42380342940E+02  0.11248037176E+03  0.00000000000E+00 0. -1.
         21    1    1    2  505  502  0.22093109615E+02  0.28810379388E+02  0.60923827072E+02  0.70921478820E+02  0.00000000000E+00 0. -1.
         -4    1    1    2    0  505  0.14013088473E+02 -0.28653343115E+02  0.56067199106E+03  0.56157854507E+03  0.00000000000E+00 0.  1.
<scales pt_clust_3="107.23603" pt_clust_4="14000.00000" pt_clust_5="34.28074" pt_clust_6="31.89641"></scales>
<clustering>
<clus scale="   31.896">  1  6  2 -1</clus>
<clus scale="   34.281">  1  5  2 -1</clus>
<clus scale="  107.236">  1  3  2 -1</clus>
<clus scale="  107.236">  2  3  1 -1</clus>
</clustering>
</event>
<event>
 6    0  0.2572175E+002  0.9892947E+02  0.7546771E-02  0.1282563E+00
          2   -1    0    0  505    0 -0.00000000000E+00  0.00000000000E+00  0.29111171591E+04  0.29111171591E+04  0.00000000000E+00 0. -1.
         21   -1    0    0  503  502  0.00000000000E+00 -0.00000000000E+00 -0.30012819124E+02  0.30012819124E+02  0.00000000000E+00 0. -1.
         21    1    1    2  503  501 -0.12494205871E+02 -0.29138174841E+02  0.28644712321E+02  0.42727718841E+02  0.00000000000E+00 0.  1.
         21    1    1    2  504  502  0.49969366860E+02 -0.23100825095E+02  0.20476657666E+02  0.58735672752E+02  0.00000000000E+00 0. -1.
         21    1    1    2  505  504 -0.76382040333E+02 -0.53154595928E+02  0.10349065449E+04  0.10390818946E+04  0.00000000000E+00 0. -1.
          2    1    1    2  501    0  0.38906879344E+02  0.10539359586E+03  0.17970764252E+04  0.18005846920E+04  0.00000000000E+00 0. -1.
<scales pt_clust_3="31.70392" pt_clust_4="61.71620" pt_clust_5="14000.00000" pt_clust_6="98.92947"></scales>
<clustering>
<clus scale="   31.704">  2  3  1 -1</clus>
<clus scale="   61.716">  2  4  1 -1</clus>
<clus scale="   98.929">  1  6  2 -1</clus>
<clus scale="   31.704">  2  3  1 -1</clus>
</clustering>
</event>
<event>
 6    0  0.2572175E+002  0.1022119E+03  0.7546771E-02  0.1275712E+00
          2   -1    0    0  505    0 -0.00000000000E+00  0.00000000000E+00  0.96326549192E+03  0.96326549192E+03  0.00000000000E+00 0.  1.
         21   -1    0    0  501  502  0.00000000000E+00 -0.00000000000E+00 -0.59940065122E+02  0.59940065122E+02  0.00000000000E+00 0.  1.
         21    1    1    2  503  502  0.44470792449E+02 -0.10902444855E+02 -0.65329156459E+01  0.46251418050E+02  0.00000000000E+00 0.  1.
         21    1    1    2  504  503 -0.81152053408E+01 -0.55360404501E+02  0.18150719254E+02  0.58822440902E+02  0.00000000000E+00 0.  1.
         21    1    1    2  505  504 -0.11841162640E+03  0.21324121051E+02  0.59427761100E+03  0.60633481703E+03  0.00000000000E+00 0.  1.
          2    1    1    2  501    0  0.82056039297E+02  0.44938728305E+02  0.29743001219E+03  0.31179688106E+03  0.00000000000E+00 0.  1.
<scales pt_clust_3="45.78771" pt_clust_4="64.77032" pt_clust_5="14000.00000" pt_clust_6="102.21192"></scales>
<clustering>
<clus scale="   45.788">  2  3  1 -1</clus>
<clus scale="   64.770">  2  4  1 -1</clus>
<clus scale="  102.212">  2  6  1 -1</clus>
<clus scale="   45.788">  2  3  1 -1</clus>
</clustering>
</event>
<event>
 6    0  0.2572175E+002  0.1180427E+03  0.7546771E-02  0.1246361E+00
          2   -1    0    0  504    0 -0.00000000000E+00  0.00000000000E+00  0.32441010969E+04  0.32441010969E+04  0.00000000000E+00 0. -1.
         21   -1    0    0  505  502  0.00000000000E+00 -0.00000000000E+00 -0.15424637541E+02  0.15424637541E+02  0.00000000000E+00 0. -1.
         21    1    1    2  503  501 -0.59582108829E+02 -0.64211304994E+02  0.41770174827E+03  0.42678785115E+03  0.00000000000E+00 0. -1.
         21    1    1    2  504  502  0.87056840897E+02  0.40935783909E+02  0.52420059237E+03  0.53295486956E+03  0.00000000000E+00 0. -1.
         21    1    1    2  505  503 -0.19836760948E+01 -0.70937103661E+02  0.23010431627E+03  0.24079867942E+03  0.00000000000E+00 0. -1.
          2    1    1    2  501    0 -0.25491055973E+02  0.94212624746E+02  0.20566698025E+04  0.20589843343E+04  0.00000000000E+00 0. -1.
<scales pt_clust_3="56.66641" pt_clust_4="96.20100" pt_clust_5="56.66641" pt_clust_6="99.85206"></scales>
<clustering>
<clus scale="   56.666">  3  5 -1 -1</clus>
<clus scale="   96.201">  2  4  1 -1</clus>
<clus scale="   99.852">  1  6  2 -1</clus>
<clus scale="   96.201">  2  3  1 -1</clus>
</clustering>
</event>
<event>
 6    0  0.2572175E+002  0.1498641E+03  0.7546771E-02  0.1200640E+00
         21   -1    0    0  504  502  0.00000000000E+00  0.00000000000E+00  0.13052834796E+03  0.13052834796E+03  0.00000000000E+00 0.  1.
          2   -1    0    0  502    0 -0.00000000000E+00 -0.00000000000E+00 -0.51810559285E+03  0.51810559285E+03  0.00000000000E+00 0. -1.
         21    1    1    2  503  501 -0.64867512261E+02  0.10562444209E+02 -0.52310214723E+02  0.83998321048E+02  0.00000000000E+00 0.  1.
         21    1    1    2  504  505  0.11559133359E+03 -0.90662421729E+02  0.84105758437E+01  0.14714540054E+03  0.00000000000E+00 0.  1.
         21    1    1    2  505  503 -0.76839854217E+02  0.25022447333E+02 -0.13742515397E+02  0.81971597496E+02  0.00000000000E+00 0.  1.
          2    1    1    2  501    0  0.26116032886E+02  0.55077530187E+02 -0.32993509061E+03  0.33551862172E+03  0.00000000000E+00 0. -1.
<scales pt_clust_3="38.63935" pt_clust_4="143.60874" pt_clust_5="38.63935" pt_clust_6="60.95557"></scales>
<clustering>
<clus scale="   38.639">  3  5 -1 -1</clus>
<clus scale="   60.956">  2  6  1 -1</clus>
<clus scale="  143.609">  1  4  2 -1</clus>
<clus scale="  143.609">  1  3  2 -1</clus>
</clustering>
</event>
<event>
 6    0  0.2572175E+002  0.2999502E+03  0.7546771E-02  0.1085266E+00
         21   -1    0    0  501  502  0.00000000000E+00  0.00000000000E+00  0.12595192123E+04  0.12595192123E+04  0.00000000000E+00 0.  1.
         -1   -1    0    0    0  501 -0.00000000000E+00 -0.00000000000E+00 -0.86412206557E+03  0.86412206557E+03  0.00000000000E+00 0.  1.
         21    1    1    2  503  502  0.98188280588E+02 -0.99791258033E+02  0.73117884410E+03  0.74446070123E+03  0.00000000000E+00 0.  1.
         21    1    1    2  504  503  0.14321891597E+03 -0.49807820766E+02  0.46708876891E+03  0.49108491623E+03  0.00000000000E+00 0.  1.
         21    1    1    2  505  504 -0.19149243330E+03  0.17213411177E+03 -0.36424787740E+03  0.44606728263E+03  0.00000000000E+00 0. -1.
         -1    1    1    2    0  505 -0.49914763261E+02 -0.22535032973E+02 -0.43862258887E+03  0.44202837779E+03  0.00000000000E+00 0.  1.
<scales pt_clust_3="96.68092" pt_clust_4="96.68092" pt_clust_5="282.66541" pt_clust_6="54.76597"></scales>
<clustering>
<clus scale="   54.766">  2  6  1 -1</clus>
<clus scale="   96.681">  3  4 -1 -1</clus>
<clus scale="  282.665">  2  5  1 -1</clus>
<clus scale="  299.950">  1  3  2 -1</clus>
</clustering>
</event>
<event>
 6    0  0.2572175E+002  0.1382764E+03  0.7546771E-02  0.1215667E+00
          2   -1    0    0  505    0 -0.00000000000E+00  0.00000000000E+00  0.28932429619E+04  0.28932429619E+04  0.00000000000E+00 0.  1.
         21   -1    0    0  503  502  0.00000000000E+00 -0.00000000000E+00 -0.32776543052E+03  0.32776543052E+03  0.00000000000E+00 0. -1.
         21    1    1    2  503  501 -0.45470264570E+02  0.12439321842E+03 -0.23785995124E+03  0.27224726657E+03  0.00000000000E+00 0. -1.
         21    1    1    2  504  502  0.43410995056E+01 -0.19132269481E+03  0.61362570778E+02  0.20096911152E+03  0.00000000000E+00 0. -1.
         21    1    1    2  505  504  0.74488666286E+02  0.12295457717E+02  0.58295532556E+03  0.58782365662E+03  0.00000000000E+00 0.  1.
          2    1    1    2  501    0 -0.33359501222E+02  0.54634018671E+02  0.21590195863E+04  0.21599683577E+04  0.00000000000E+00 0.  1.
<scales pt_clust_3="14000.00000" pt_clust_4="138.27640" pt_clust_5="73.58555" pt_clust_6="64.01353"></scales>
<clustering>
<clus scale="   64.014">  1  6  2 -1</clus>
<clus scale="   73.586">  1  5  2 -1</clus>
<clus scale="  138.276">  1  4  2 -1</clus>
<clus scale="  138.276">  2  3  1 -1</clus>
</clustering>
</event>
<event>
 6    0  0.2572175E+002  0.1014076E+03  0.7546771E-02  0.1277363E+00
          2   -1    0    0  503    0 -0.00000000000E+00  0.00000000000E+00  0.99253183625E+03  0.99253183625E+03  0.00000000000E+00 0.  1.
         21   -1    0    0  505  502  0.00000000000E+00 -0.00000000000E+00 -0.58335867618E+03  0.58335867618E+03  0.00000000000E+00 0.  1.
         21    1    1    2  503  504 -0.10613260005E+03 -0.34591690733E+02  0.22819869066E+03  0.25403810005E+03  0.00000000000E+00 0.  1.
         21    1    1    2  504  502  0.58658733147E+02  0.10861312165E+03 -0.47521033132E+03  0.49098117699E+03  0.00000000000E+00 0.  1.
         21    1    1    2  505  501  0.13650741078E+02 -0.38138115749E+02 -0.81779127299E+02  0.91261625378E+02  0.00000000000E+00 0.  1.
          2    1    1    2  501    0  0.33823125826E+02 -0.35883315172E+02  0.73796392803E+03  0.73960961001E+03  0.00000000000E+00 0.  1.
<scales pt_clust_3="14000.00000" pt_clust_4="101.40761" pt_clust_5="40.50751" pt_clust_6="49.37290"></scales>
<clustering>
<clus scale="   40.508">  2  5  1 -1</clus>
<clus scale="   49.373">  1  6  2 -1</clus>
<clus scale="  101.408">  2  4  1 -1</clus>
<clus scale="   40.508">  2  3  1 -1</clus>
</clustering>
</event>
<event>
 6    0  0.2572175E+002  0.1127154E+03  0.7546771E-02  0.1255622E+00
         -4   -1    0    0    0  501 -0.00000000000E+00  0.00000000000E+00  0.66161066599E+03  0.66161066599E+03  0.00000000000E+00 0.  1.
         21   -1    0    0  503  502  0.00000000000E+00 -0.00000000000E+00 -0.30694713256E+03  0.30694713256E+03  0.00000000000E+00 0.  1.
         21    1    1    2  503  505  0.43868478011E+02  0.24328552362E+02 -0.12449102222E+03  0.13421749676E+03  0.00000000000E+00 0.  1.
         21    1    1    2  504  502 -0.27817518700E+02 -0.10634258912E+03 -0.51108063953E+02  0.12122126384E+03  0.00000000000E+00 0.  1.
         21    1    1    2  505  501  0.48530231351E+02 -0.13291241112E+02 -0.78677593652E+02  0.93391670871E+02  0.00000000000E+00 0. -1.
         -4    1    1    2    0  504 -0.64581190662E+02  0.95305277869E+02  0.60894021326E+03  0.61972736708E+03  0.00000000000E+00 0.  1.
<scales pt_clust_3="43.16672" pt_clust_4="112.71543" pt_clust_5="102.60822" pt_clust_6="14000.00000"></scales>
<clustering>
<clus scale="   43.167">  3  5 -1 -1</clus>
<clus scale="  102.608">  2  3  1 -1</clus>
<clus scale="  112.715">  2  4  1 -1</clus>
<clus scale="  102.608">  2  3  1 -1</clus>
</clustering>
</event>
<event>
 6    0  0.2572175E+002  0.2149200E+03  0.7546771E-02  0.1137728E+00
          2   -1    0    0  505    0 -0.00000000000E+00  0.00000000000E+00  0.15429469027E+04  0.15429469027E+04  0.00000000000E+00 0. -1.
         21   -1    0    0  504  502  0.00000000000E+00 -0.00000000000E+00 -0.38681785584E+03  0.38681785584E+03  0.00000000000E+00 0. -1.
         21    1    1    2  503  501 -0.11962129179E+03 -0.11362422293E+03  0.27397452601E+03  0.31981519412E+03  0.00000000000E+00 0. -1.
         21    1    1    2  504  503  0.15138841146E+03  0.14967526457E+03 -0.29149516941E+03  0.36095785036E+03  0.00000000000E+00 0. -1.
         21    1    1    2  505  502 -0.41070980654E+02  0.52103132286E+02 -0.54471191129E+01  0.66567506732E+02  0.00000000000E+00 0.  1.
          2    1    1    2  501    0  0.93038609855E+01 -0.88154173925E+02  0.11790968094E+04  0.11824242074E+04  0.00000000000E+00 0. -1.
<scales pt_clust_3="214.91998" pt_clust_4="14000.00000" pt_clust_5="66.34427" pt_clust_6="88.37777"></scales>
<clustering>
<clus scale="   66.344">  2  5  1 -1</clus>
<clus scale="   88.378">  1  6  2 -1</clus>
<clus scale="  214.920">  1  3  2 -1</clus>
<clus scale="   66.344">  2  3  1 -1</clus>
</clustering>
</event>
<event>
 6    0  0.2572175E+002  0.6748786E+02  0.7546771E-02  0.1368850E+00
          1   -1    0    0  505    0 -0.00000000000E+00  0.00000000000E+00  0.11275612505E+04  0.11275612505E+04  0.00000000000E+00 0. -1.
         21   -1    0    0  503  502  0.00000000000E+00 -0.00000000000E+00 -0.12869687717E+03  0.12869687717E+03  0.00000000000E+00 0. -1.
         21    1    1    2  503  504 -0.26391166418E+02 -0.28055499468E+02 -0.66500921564E+02  0.76850356435E+02  0.00000000000E+00 0. -1.
         21    1    1    2  504  501  0.39018048965E+02 -0.37199587860E+02  0.52136393531E+02  0.74996139983E+02  0.00000000000E+00 0. -1.
         21    1    1    2  505  502 -0.54842368247E+02  0.11604192344E+03  0.48161729879E+02  0.13708743770E+03  0.00000000000E+00 0. -1.
          1    1    1    2  501    0  0.42215485700E+02 -0.50786836108E+02  0.96506717153E+03  0.96732419360E+03  0.00000000000E+00 0. -1.
<scales pt_clust_3="38.51759" pt_clust_4="54.51064" pt_clust_5="14000.00000" pt_clust_6="67.48786"></scales>
<clustering>
<clus scale="   38.518">  2  3  1 -1</clus>
<clus scale="   54.511">  2  4  1 -1</clus>
<clus scale="   67.488">  1  6  2 -1</clus>
<clus scale="   38.518">  2  3  1 -1</clus>
</clustering>
</event>
<event>
 6    0  0.2572175E+002  0.7887713E+02  0.7546771E-02  0.1332268E+00
         21   -1    0    0  503  502  0.00000000000E+00  0.00000000000E+00  0.19014393361E+03  0.19014393361E+03  0.00000000000E+00 0. -1.
          3   -1    0    0  504    0 -0.00000000000E+00 -0.00000000000E+00 -0.26497265507E+03  0.26497265507E+03  0.00000000000E+00 0.  1.
         21    1    1    2  503  505  0.71536947092E+02 -0.17131500021E+02  0.87922419934E+02  0.11463583654E+03  0.00000000000E+00 0. -1.
         21    1    1    2  504  502  0.25504588940E+02 -0.17708852507E+02 -0.22819464690E+01  0.31133499543E+02  0.00000000000E+00 0. -1.
         21    1    1    2  505  501 -0.81584647360E+02 -0.24235592329E+02  0.44102308059E+02  0.95856310154E+02  0.00000000000E+00 0. -1.
          3    1    1    2  501    0 -0.15456888672E+02  0.59075944857E+02 -0.20457150298E+03  0.21349094243E+03  0.00000000000E+00 0.  1.
<scales pt_clust_3="14000.00000" pt_clust_4="31.04976" pt_clust_5="78.87713" pt_clust_6="60.46809"></scales>
<clustering>
<clus scale="   31.050">  1  4  2 -1</clus>
<clus scale="   60.468">  2  6  1 -1</clus>
<clus scale="   78.877">  2  5  1 -1</clus>
<clus scale="   31.050">  1  3  2 -1</clus>
</clustering>
</event>
<event>
 6    0  0.2572175E+002  0.1765180E+03  0.7546771E-02  0.1171216E+00
         21   -1    0    0  503  502  0.00000000000E+00  0.00000000000E+00  0.59728566589E+02  0.59728566589E+02  0.00000000000E+00 0.  1.
          2   -1    0    0  505    0 -0.00000000000E+00 -0.00000000000E+00 -0.20300325853E+04  0.20300325853E+04  0.00000000000E+00 0.  1.
         21    1    1    2  503  501 -0.48407068918E+02  0.81209113011E+01 -0.88682664330E+02  0.10135979713E+03  0.00000000000E+00 0.  1.
         21    1    1    2  504  502 -0.12774202923E+02  0.17080675959E+03 -0.14740147088E+03  0.22597637709E+03  0.00000000000E+00 0.  1.
         21    1    1    2  505  504  0.12815104289E+03 -0.13184249528E+03 -0.66122522648E+03  0.68631183400E+03  0.00000000000E+00 0.  1.
          2    1    1    2  501    0 -0.66969771048E+02 -0.47085175613E+02 -0.10729946571E+04  0.10761131437E+04  0.00000000000E+00 0.  1.
<scales pt_clust_3="49.08354" pt_clust_4="176.51797" pt_clust_5="14000.00000" pt_clust_6="82.89172"></scales>
<clustering>
<clus scale="   49.084">  1  3  2 -1</clus>
<clus scale="   82.892">  2  6  1 -1</clus>
<clus scale="  176.518">  1  4  2 -1</clus>
<clus scale="   49.084">  1  3  2 -1</clus>
</clustering>
</event>
<event>
 6    0  0.2572175E+002  0.1320335E+03  0.7546771E-02  0.1224469E+00
          2   -1    0    0  504    0 -0.00000000000E+00  0.00000000000E+00  0.40536050221E+03  0.40536050221E+03  0.00000000000E+00 0. -1.
         21   -1    0    0  503  502  0.00000000000E+00 -0.00000000000E+00 -0.13995223466E+04  0.13995223466E+04  0.00000000000E+00 0. -1.
         21    1    1    2  503  501  0.71005619670E+02 -0.13204538965E+03 -0.35236018890E+03  0.38293013158E+03  0.00000000000E+00 0. -1.
         21    1    1    2  504  505 -0.37807042253E+02  0.27243813967E+02 -0.26940701038E+03  0.27340763538E+03  0.00000000000E+00 0. -1.
         21    1    1    2  505  502 -0.29768053777E+02  0.68904788405E+02 -0.75777395231E+03  0.76148235022E+03  0.00000000000E+00 0. -1.
          2    1    1    2  501    0 -0.34305236387E+01  0.35896787282E+02  0.38537930718E+03  0.38706273165E+03  0.00000000000E+00 0. -1.
<scales pt_clust_3="123.88393" pt_clust_4="35.98376" pt_clust_5="35.98376" pt_clust_6="36.06034"></scales>
<clustering>
<clus scale="   35.984">  4  5 -1 -1</clus>
<clus scale="   36.060">  1  6  2 -1</clus>
<clus scale="  123.884">  1  3  2 -1</clus>
<clus scale="  132.033">  2  3  1 -1</clus>
</clustering>
</event>
<event>
 6    0  0.2572175E+002  0.5392327E+03  0.7546771E-02  0.1004017E+00
         21   -1    0    0  504  502  0.00000000000E+00  0.00000000000E+00  0.54671458238E+03  0.54671458238E+03  0.00000000000E+00 0.  1.
          1   -1    0    0  503    0 -0.00000000000E+00 -0.00000000000E+00 -0.27393445987E+04  0.27393445987E+04  0.00000000000E+00 0.  1.
         21    1    1    2  503  505  0.51773104808E+03  0.23017848508E+03 -0.96301390117E+03  0.11173286656E+04  0.00000000000E+00 0.  1.
         21    1    1    2  504  501 -0.17036044778E+03 -0.49281664017E+02  0.97619726297E+02  0.20243758430E+03  0.00000000000E+00 0. -1.
         21    1    1    2  505  502  0.14294936166E+02  0.22181826042E+03  0.22868402666E+03  0.31891075539E+03  0.00000000000E+00 0.  1.
          1    1    1    2  501    0 -0.36166553646E+03 -0.40271508148E+03 -0.15559198681E+04  0.16473821758E+04  0.00000000000E+00 0.  1.
<scales pt_clust_3="14000.00000" pt_clust_4="177.34533" pt_clust_5="214.33372" pt_clust_6="539.23275"></scales>
<clustering>
<clus scale="  177.345">  1  4  2 -1</clus>
<clus scale="  214.334">  1  5  2 -1</clus>
<clus scale="  539.233">  2  6  1 -1</clus>
<clus scale="  177.345">  1  3  2 -1</clus>
</clustering>
</event>
<event>
 6    0  0.2572175E+002  0.2346568E+03  0.7546771E-02  0.1123404E+00
         21   -1    0    0  505  502  0.00000000000E+00  0.00000000000E+00  0.14609286172E+03  0.14609286172E+03  0.00000000000E+00 0.  1.
          2   -1    0    0  502    0 -0.00000000000E+00 -0.00000000000E+00 -0.17701233291E+04  0.17701233291E+04  0.00000000000E+00 0.  1.
         21    1    1    2  503  504 -0.22975187871E+03 -0.67490052607E+02 -0.25894287214E+03  0.35269284655E+03  0.00000000000E+00 0.  1.
         21    1    1    2  504  501 -0.40668710868E+02  0.12715813965E+03 -0.11301223116E+03  0.17491398147E+03  0.00000000000E+00 0.  1.
         21    1    1    2  505  503  0.23792101791E+03 -0.65732930357E+02 -0.15592085550E+03  0.29195640441E+03  0.00000000000E+00 0.  1.
          2    1    1    2  501    0  0.32499571667E+02  0.60648433124E+01 -0.10961545086E+04  0.10966529584E+04  0.00000000000E+00 0.  1.
<scales pt_clust_3="14000.00000" pt_clust_4="132.80726" pt_clust_5="234.65679" pt_clust_6="33.06062"></scales>
<clustering>
<clus scale="   33.061">  2  6  1 -1</clus>
<clus scale="  132.807">  2  4  1 -1</clus>
<clus scale="  234.657">  1  5  2 -1</clus>
<clus scale="  234.657">  1  3  2 -1</clus>
</clustering>
</event>
<event>
 6    0  0.2572175E+002  0.1032324E+03  0.7546771E-02  0.1273642E+00
         21   -1    0    0  505  502  0.00000000000E+00  0.00000000000E+00  0.15184838411E+03  0.15184838411E+03  0.00000000000E+00 0.  1.
          2   -1    0    0  503    0 -0.00000000000E+00 -0.00000000000E+00 -0.91011461968E+03  0.91011461968E+03  0.00000000000E+00 0.  1.
         21    1    1    2  503  504 -0.40635063257E+02 -0.62140922458E+02 -0.62771895558E+02  0.97226608918E+02  0.00000000000E+00 0.  1.
         21    1    1    2  504  502 -0.21758958471E+02 -0.69234153461E+02 -0.15277950766E+02  0.74163576362E+02  0.00000000000E+00 0.  1.
         21    1    1    2  505  501  0.36651490609E+02  0.45665330511E+02  0.94247203769E+02  0.11095580018E+03  0.00000000000E+00 0.  1.
          2    1    1    2  501    0  0.25742531119E+02  0.85709745407E+02 -0.77446359302E+03  0.77961701834E+03  0.00000000000E+00 0.  1.
<scales pt_clust_3="45.63266" pt_clust_4="45.63266" pt_clust_5="58.55471" pt_clust_6="92.33923"></scales>
<clustering>
<clus scale="   45.633">  3  4 -1 -1</clus>
<clus scale="   58.555">  1  5  2 -1</clus>
<clus scale="   92.339">  2  6  1 -1</clus>
<clus scale="   58.555">  1  3  2 -1</clus>
</clustering>
</event>
<event>
 6    0  0.2572175E+002  0.1778680E+03  0.7546771E-02  0.1169882E+00
          2   -1    0    0  504    0 -0.00000000000E+00  0.00000000000E+00  0.14067424680E+04  0.14067424680E+04  0.00000000000E+00 0. -1.
         21   -1    0    0  505  502  0.00000000000E+00 -0.00000000000E+00 -0.95379740088E+02  0.95379740088E+02  0.00000000000E+00 0.  1.
         21    1    1    2  503  502 -0.48027337007E+02 -0.27387577161E+02 -0.32526439082E+02  0.64145722555E+02  0.00000000000E+00 0.  1.
         21    1    1    2  504  503 -0.82809933312E+02  0.13354854898E+02  0.18368178620E+02  0.85867497869E+02  0.00000000000E+00 0.  1.
         21    1    1    2  505  501 -0.33232539959E+02  0.36354514754E+02  0.69290940047E+02  0.85013450864E+02  0.00000000000E+00 0.  1.
          2    1    1    2  501    0  0.16406981028E+03 -0.22321792491E+02  0.12562300484E+04  0.12670955368E+04  0.00000000000E+00 0. -1.
<scales pt_clust_3="57.87165" pt_clust_4="57.87165" pt_clust_5="49.25497" pt_clust_6="163.24472"></scales>
<clustering>
<clus scale="   49.255">  2  5  1 -1</clus>
<clus scale="   57.872">  3  4 -1 -1</clus>
<clus scale="  163.245">  1  6  2 -1</clus>
<clus scale="   49.255">  2  3  1 -1</clus>
</clustering>
</event>
<event>
 6    0  0.2572175E+002  0.9062441E+02  0.7546771E-02  0.1301347E+00
          4   -1    0    0  503    0 -0.00000000000E+00  0.00000000000E+00  0.30815492025E+04  0.30815492025E+04  0.00000000000E+00 0. -1.
         21   -1    0    0  505  502  0.00000000000E+00 -0.00000000000E+00 -0.20642413849E+03  0.20642413849E+03  0.00000000000E+00 0. -1.
         21    1    1    2  503  504  0.11071819831E+03  0.35889552301E+02  0.25640570723E+04  0.25666973428E+04  0.00000000000E+00 0. -1.
         21    1    1    2  504  502 -0.33479176866E+02  0.39968042022E+02 -0.17727159882E+03  0.18477965098E+03  0.00000000000E+00 0. -1.
         21    1    1    2  505  501 -0.24296579989E+02 -0.54514439257E+02  0.17482154855E+02  0.62191427263E+02  0.00000000000E+00 0. -1.
          4    1    1    2  501    0 -0.52942441455E+02 -0.21343155066E+02  0.47085743563E+03  0.47430491993E+03  0.00000000000E+00 0. -1.
<scales pt_clust_3="90.62441" pt_clust_4="52.13732" pt_clust_5="57.13496" pt_clust_6="14000.00000"></scales>
<clustering>
<clus scale="   52.137">  2  4  1 -1</clus>
<clus scale="   57.135">  2  5  1 -1</clus>
<clus scale="   90.624">  1  3  2 -1</clus>
<clus scale="   52.137">  2  3  1 -1</clus>
</clustering>
</event>
<event>
 6    0  0.2572175E+002  0.9533964E+02  0.7546771E-02  0.1290413E+00
          1   -1    0    0  505    0 -0.00000000000E+00  0.00000000000E+00  0.59623570349E+03  0.59623570349E+03  0.00000000000E+00 0. -1.
         21   -1    0    0  504  502  0.00000000000E+00 -0.00000000000E+00 -0.36835048800E+03  0.36835048800E+03  0.00000000000E+00 0. -1.
         21    1    1    2  503  501  0.61627192586E+02 -0.13699716648E+03  0.80122071733E+02  0.17025181605E+03  0.00000000000E+00 0. -1.
         21    1    1    2  504  503 -0.27818913627E+02  0.93513330613E+02 -0.20256744904E+03  0.22483817818E+03  0.00000000000E+00 0. -1.
         21    1    1    2  505  502 -0.23904304518E+02 -0.20718040681E+02 -0.10494528578E+03  0.10960915104E+03  0.00000000000E+00 0. -1.
          1    1    1    2  501    0 -0.99039744399E+01  0.64201876550E+02  0.45527587857E+03  0.45988704621E+03  0.00000000000E+00 0. -1.
<scales pt_clust_3="95.33964" pt_clust_4="14000.00000" pt_clust_5="31.63310" pt_clust_6="64.81308"></scales>
<clustering>
<clus scale="   31.633">  2  5  1 -1</clus>
<clus scale="   64.813">  1  6  2 -1</clus>
<clus scale="   95.340">  1  3  2 -1</clus>
<clus scale="   31.633">  2  3  1 -1</clus>
</clustering>
</event>
<event>
 6    0  0.2572175E+002  0.1936157E+03  0.7546771E-02  0.1155240E+00
         21   -1    0    0  505  502  0.00000000000E+00  0.00000000000E+00  0.10173307496E+04  0.10173307496E+04  0.00000000000E+00 0. -1.
         -4   -1    0    0    0  501 -0.00000000000E+00 -0.00000000000E+00 -0.27968722091E+03  0.27968722091E+03  0.00000000000E+00 0. -1.
         21    1    1    2  503  502 -0.61293022837E+02 -0.16921110798E+03  0.81427634387E+03  0.83392757353E+03  0.00000000000E+00 0. -1.
         21    1    1    2  504  501 -0.67221227747E+02  0.14069802340E+03 -0.20345230560E+02  0.15725315786E+03  0.00000000000E+00 0. -1.
         21    1    1    2  505  504  0.53801708278E+02 -0.44127614025E+02  0.97674720649E+02  0.11992589873E+03  0.00000000000E+00 0. -1.
         -4    1    1    2    0  503  0.74712542307E+02  0.72640698605E+02 -0.15396230522E+03  0.18591134043E+03  0.00000000000E+00 0. -1.
<scales pt_clust_3="14000.00000" pt_clust_4="193.61569" pt_clust_5="69.58355" pt_clust_6="104.34924"></scales>
<clustering>
<clus scale="   69.584">  1  5  2 -1</clus>
<clus scale="  104.349">  2  6  1 -1</clus>
<clus scale="  193.616">  2  4  1 -1</clus>
<clus scale="   69.584">  1  3  2 -1</clus>
</clustering>
</event>
<event>
 6    0  0.2572175E+002  0.1230138E+03  0.7546771E-02  0.1238206E+00
         21   -1    0    0  504  502  0.00000000000E+00  0.00000000000E+00  0.46271247139E+03  0.46271247139E+03  0.00000000000E+00 0. -1.
          1   -1    0    0  505    0 -0.00000000000E+00 -0.00000000000E+00 -0.42253351963E+03  0.42253351963E+03  0.00000000000E+00 0.  1.
         21    1    1    2  503  501  0.52135406104E+01  0.92597032983E+02 -0.18823033041E+03  0.20983814908E+03  0.00000000000E+00 0.  1.
         21    1    1    2  504  503  0.80082948941E+00 -0.12804557566E+03  0.36450734759E+03  0.38634429881E+03  0.00000000000E+00 0. -1.
         21    1    1    2  505  502 -0.42652194370E+02  0.90171468924E+01  0.67587796116E+02  0.80427786284E+02  0.00000000000E+00 0. -1.
          1    1    1    2  501    0  0.36637824270E+02  0.26431395788E+02 -0.20368586153E+03  0.20863575685E+03  0.00000000000E+00 0.  1.
<scales pt_clust_3="14000.00000" pt_clust_4="123.01384" pt_clust_5="43.59494" pt_clust_6="44.99068"></scales>
<clustering>
<clus scale="   43.595">  1  5  2 -1</clus>
<clus scale="   44.991">  2  6  1 -1</clus>
<clus scale="  123.014">  1  4  2 -1</clus>
<clus scale="   43.595">  1  3  2 -1</clus>
</clustering>
</event>
<event>
 6    0  0.2572175E+002  0.1364036E+03  0.7546771E-02  0.1218252E+00
          3   -1    0    0  503    0 -0.00000000000E+00  0.00000000000E+00  0.42608318758E+02  0.42608318758E+02  0.00000000000E+00 0. -1.
         21   -1    0    0  505  502  0.00000000000E+00 -0.00000000000E+00 -0.77106595826E+03  0.77106595826E+03  0.00000000000E+00 0. -1.
         21    1    1    2  503  502  0.10988360497E+03  0.20518183240E+01 -0.32024882142E+03  0.33858222667E+03  0.00000000000E+00 0. -1.
         21    1    1    2  504  501 -0.32603966803E+02  0.45919319630E+01 -0.40218419065E+02  0.51977165396E+02  0.00000000000E+00 0.  1.
         21    1    1    2  505  504 -0.11438043656E+03 -0.16836335676E+02 -0.36683487502E+03  0.38462211584E+03  0.00000000000E+00 0. -1.
          3    1    1    2  501    0  0.37100798385E+02  0.10192585389E+02 -0.11555240023E+01  0.38492769106E+02  0.00000000000E+00 0. -1.
<scales pt_clust_3="124.23259" pt_clust_4="30.05699" pt_clust_5="30.05699" pt_clust_6="38.47542"></scales>
<clustering>
<clus scale="   30.057">  4  5 -1 -1</clus>
<clus scale="   38.475">  1  6  2 -1</clus>
<clus scale="  124.233">  2  3  1 -1</clus>
<clus scale="  124.233">  2  3  1 -1</clus>
</clustering>
</event>
<event>
 6    0  0.2572175E+002  0.1890560E+03  0.7546771E-02  0.1159316E+00
          1   -1    0    0  505    0 -0.00000000000E+00  0.00000000000E+00  0.46315349282E+03  0.46315349282E+03  0.00000000000E+00 0.  1.
         21   -1    0    0  503  502  0.00000000000E+00 -0.00000000000E+00 -0.15606982245E+03  0.15606982245E+03  0.00000000000E+00 0. -1.
         21    1    1    2  503  501  0.22217080294E+02 -0.75200693437E+02  0.25275151799E+03  0.26463573606E+03  0.00000000000E+00 0.  1.
         21    1    1    2  504  502 -0.54589660663E+02  0.96060633375E+02 -0.24491206194E+02  0.11317020596E+03  0.00000000000E+00 0. -1.
         21    1    1    2  505  504 -0.32383606003E+01  0.68695837294E+02 -0.46724704102E+02  0.83143268003E+02  0.00000000000E+00 0.  1.
          1    1    1    2  501    0  0.35610940970E+02 -0.89555777231E+02  0.12554806267E+03  0.15827410525E+03  0.00000000000E+00 0.  1.
<scales pt_clust_3="65.37795" pt_clust_4="182.94063" pt_clust_5="43.05729" pt_clust_6="65.37795"></scales>
<clustering>
<clus scale="   43.057">  4  5 -1 -1</clus>
<clus scale="   65.378">  3  6 -1 -1</clus>
<clus scale="  182.941">  2  4  1 -1</clus>
<clus scale="  182.941">  2  3  1 -1</clus>
</clustering>
</event>
<event>
 6    0  0.2572175E+002  0.9811884E+02  0.7546771E-02  0.1284302E+00
          2   -1    0    0  502    0 -0.00000000000E+00  0.00000000000E+00  0.23261117460E+04  0.23261117460E+04  0.00000000000E+00 0. -1.
         21   -1    0    0  503  502  0.00000000000E+00 -0.00000000000E+00 -0.10581511826E+03  0.10581511826E+03  0.00000000000E+00 0. -1.
         21    1    1    2  503  504 -0.33259428592E+02 -0.91841010248E+02  0.15700397819E+02  0.98931608930E+02  0.00000000000E+00 0. -1.
         21    1    1    2  504  505 -0.52804077824E+02  0.14405719108E+03  0.33409483573E+02  0.15702527990E+03  0.00000000000E+00 0. -1.
         21    1    1    2  505  501  0.40075072568E+02 -0.71634750696E+02  0.88035906378E+03  0.88417737481E+03  0.00000000000E+00 0. -1.
          2    1    1    2  501    0  0.45988433849E+02  0.19418569868E+02  0.12908276825E+04  0.12917926006E+04  0.00000000000E+00 0. -1.
<scales pt_clust_3="95.82070" pt_clust_4="98.11884" pt_clust_5="14000.00000" pt_clust_6="49.92011"></scales>
<clustering>
<clus scale="   49.920">  1  6  2 -1</clus>
<clus scale="   95.821">  2  3  1 -1</clus>
<clus scale="   98.119">  2  4  1 -1</clus>
<clus scale="   95.821">  2  3  1 -1</clus>
</clustering>
</event>
<event>
 6    0  0.2572175E+002  0.1685708E+03  0.7546771E-02  0.1179347E+00
          2   -1    0    0  503    0 -0.00000000000E+00  0.00000000000E+00  0.73898929059E+03  0.73898929059E+03  0.00000000000E+00 0.  1.
         21   -1    0    0  501  502  0.00000000000E+00 -0.00000000000E+00 -0.55643461142E+03  0.55643461142E+03  0.00000000000E+00 0.  1.
         21    1    1    2  503  504  0.70739545340E+02 -0.30537137133E+02  0.29045262447E+02  0.82342135567E+02  0.00000000000E+00 0.  1.
         21    1    1    2  504  505 -0.31919922900E+02  0.75453074804E+02 -0.25138897730E+03  0.26440209129E+03  0.00000000000E+00 0.  1.
         21    1    1    2  505  502  0.14449203166E+02  0.86134251770E+02 -0.25720692770E+03  0.27163080175E+03  0.00000000000E+00 0.  1.
          2    1    1    2  501    0 -0.53268825606E+02 -0.13105018944E+03  0.66210532172E+03  0.67704887341E+03  0.00000000000E+00 0.  1.
<scales pt_clust_3="77.04933" pt_clust_4="45.89824" pt_clust_5="45.89824" pt_clust_6="161.77244"></scales>
<clustering>
<clus scale="   45.898">  4  5 -1 -1</clus>
<clus scale="   77.049">  1  3  2 -1</clus>
<clus scale="  161.772">  1  6  2 -1</clus>
<clus scale="  168.571">  2  3  1 -1</clus>
</clustering>
</event>
<event>
 6    0  0.2572175E+002  0.1369194E+03  0.7546771E-02  0.1217535E+00
          1   -1    0    0  503    0 -0.00000000000E+00  0.00000000000E+00  0.14573381351E+04  0.14573381351E+04  0.00000000000E+00 0.  1.
         21   -1    0    0  504  502  0.00000000000E+00 -0.00000000000E+00 -0.20001043801E+03  0.20001043801E+03  0.00000000000E+00 0.  1.
         21    1    1    2  503  502  0.74524470380E+02  0.42103056362E+02 -0.15341666441E+03  0.17567935837E+03  0.00000000000E+00 0.  1.
         21    1    1    2  504  505  0.79941343414E+01  0.50428481283E+02  0.47294964619E+02  0.69597065935E+02  0.00000000000E+00 0.  1.
         21    1    1    2  505  501  0.41626206369E+02 -0.32220202386E+02  0.12516105112E+02  0.54106703703E+02  0.00000000000E+00 0. -1.
          1    1    1    2  501    0 -0.12414481109E+03 -0.60311335259E+02  0.13509332918E+04  0.13579654451E+04  0.00000000000E+00 0.  1.
<scales pt_clust_3="136.91937" pt_clust_4="51.05818" pt_clust_5="50.17922" pt_clust_6="14000.00000"></scales>
<clustering>
<clus scale="   51.058">  2  4  1 -1</clus>
<clus scale="   50.179">  2  5  1 -1</clus>
<clus scale="  136.919">  2  3  1 -1</clus>
<clus scale="   51.058">  2  3  1 -1</clus>
</clustering>
</event>
<event>
 6    0  0.2572175E+002  0.8342304E+02  0.7546771E-02  0.1319609E+00
         21   -1    0    0  504  502  0.00000000000E+00  0.00000000000E+00  0.17540318068E+03  0.17540318068E+03  0.00000000000E+00 0.  1.
          1   -1    0    0  505    0 -0.00000000000E+00 -0.00000000000E+00 -0.11740153667E+04  0.11740153667E+04  0.00000000000E+00 0. -1.
         21    1    1    2  503  502  0.43940280312E+01  0.56681102486E+02  0.11164612431E+03  0.12528731753E+03  0.00000000000E+00 0.  1.
         21    1    1    2  504  501 -0.80609038668E+02 -0.88458894302E+02 -0.18752527518E+02  0.12113814587E+03  0.00000000000E+00 0.  1.
         21    1    1    2  505  503  0.83786489601E+01  0.56775203206E+02 -0.18713902036E+03  0.19574125370E+03  0.00000000000E+00 0. -1.
          1    1    1    2  501    0  0.67836361677E+02 -0.24997411390E+02 -0.90436676246E+03  0.90725183030E+03  0.00000000000E+00 0. -1.
<scales pt_clust_3="56.85116" pt_clust_4="83.42304" pt_clust_5="61.67524" pt_clust_6="14000.00000"></scales>
<clustering>
<clus scale="   56.851">  1  3  2 -1</clus>
<clus scale="   61.675">  2  5  1 -1</clus>
<clus scale="   83.423">  1  4  2 -1</clus>
<clus scale="   56.851">  1  3  2 -1</clus>
</clustering>
</event>
<event>
 6    0  0.2572175E+002  0.5985937E+02  0.7546771E-02  0.1398423E+00
         21   -1    0    0  505  502  0.00000000000E+00  0.00000000000E+00  0.27813726735E+03  0.27813726735E+03  0.00000000000E+00 0. -1.
          2   -1    0    0  504    0 -0.00000000000E+00 -0.00000000000E+00 -0.32317029745E+03  0.32317029745E+03  0.00000000000E+00 0. -1.
         21    1    1    2  503  502 -0.38586041493E+02 -0.27328109111E+02  0.15460915572E+02  0.49746839659E+02  0.00000000000E+00 0. -1.
         21    1    1    2  504  503 -0.32176879460E+02  0.10416461636E+03 -0.12700028802E+02  0.10975841473E+03  0.00000000000E+00 0. -1.
         21    1    1    2  505  501  0.67015384175E+02 -0.20326675910E+02  0.18731007897E+03  0.19997325110E+03  0.00000000000E+00 0. -1.
          2    1    1    2  501    0  0.37475367783E+01 -0.56509831339E+02 -0.23510399584E+03  0.24182905931E+03  0.00000000000E+00 0. -1.
<scales pt_clust_3="47.28328" pt_clust_4="59.85937" pt_clust_5="55.60820" pt_clust_6="14000.00000"></scales>
<clustering>
<clus scale="   47.283">  1  3  2 -1</clus>
<clus scale="   55.608">  1  5  2 -1</clus>
<clus scale="   59.859">  1  4  2 -1</clus>
<clus scale="   47.283">  1  3  2 -1</clus>
</clustering>
</event>
<event>
 6    0  0.2572175E+002  0.1451813E+03  0.7546771E-02  0.1206522E+00
          1   -1    0    0  503    0 -0.00000000000E+00  0.00000000000E+00  0.70610275230E+03  0.70610275230E+03  0.00000000000E+00 0.  1.
         21   -1    0    0  505  502  0.00000000000E+00 -0.00000000000E+00 -0.24265628253E+04  0.24265628253E+04  0.00000000000E+00 0. -1.
         21    1    1    2  503  504 -0.11014596067E+03 -0.46536063610E+02 -0.24696212432E+03  0.27438664092E+03  0.00000000000E+00 0. -1.
         21    1    1    2  504  502  0.11714030851E+03  0.85211872726E+02 -0.20698647632E+04  0.20749272404E+04  0.00000000000E+00 0. -1.
         21    1    1    2  505  501  0.33301081800E+02 -0.25791359471E+02 -0.88061841579E+02  0.97616823420E+02  0.00000000000E+00 0. -1.
          1    1    1    2  501    0 -0.40295429641E+02 -0.12884449646E+02  0.68442865603E+03  0.68573487289E+03  0.00000000000E+00 0.  1.
<scales pt_clust_3="14000.00000" pt_clust_4="145.18132" pt_clust_5="42.12073" pt_clust_6="42.29853"></scales>
<clustering>
<clus scale="   42.121">  2  5  1 -1</clus>
<clus scale="   42.299">  1  6  2 -1</clus>
<clus scale="  145.181">  2  4  1 -1</clus>
<clus scale="   42.121">  2  3  1 -1</clus>
</clustering>
</event>
<event>
 6    0  0.2572175E+002  0.1634992E+03  0.7546771E-02  0.1184802E+00
         -3   -1    0    0    0  501 -0.00000000000E+00  0.00000000000E+00  0.25776243501E+03  0.25776243501E+03  0.00000000000E+00 0.  1.
         21   -1    0    0  505  502  0.00000000000E+00 -0.00000000000E+00 -0.19134525708E+03  0.19134525708E+03  0.00000000000E+00 0.  1.
         21    1    1    2  503  504  0.22620457851E+02  0.16275328805E+03  0.32295858630E+02  0.16746145936E+03  0.00000000000E+00 0.  1.
         21    1    1    2  504  502  0.31134997340E+02  0.25479844461E+02 -0.12464927917E+02  0.42118700848E+02  0.00000000000E+00 0. -1.
         21    1    1    2  505  501  0.22078295666E+02 -0.82574016930E+02 -0.27575286786E+02  0.89812670892E+02  0.00000000000E+00 0.  1.
         -3    1    1    2    0  503 -0.75833750858E+02 -0.10565911558E+03  0.74161534011E+02  0.14971486099E+03  0.00000000000E+00 0.  1.
<scales pt_clust_3="35.71327" pt_clust_4="35.71327" pt_clust_5="85.47467" pt_clust_6="146.70645"></scales>
<clustering>
<clus scale="   35.713">  3  4 -1 -1</clus>
<clus scale="   85.475">  2  5  1 -1</clus>
<clus scale="  146.706">  1  6  2 -1</clus>
<clus scale="   85.475">  2  3  1 -1</clus>
</clustering>
</event>
<event>
 6    0  0.2572175E+002  0.9269067E+02  0.7546771E-02  0.1296464E+00
         21   -1    0    0  505  502  0.00000000000E+00  0.00000000000E+00  0.14205430679E+03  0.14205430679E+03  0.00000000000E+00 0.  1.
          1   -1    0    0  503    0 -0.00000000000E+00 -0.00000000000E+00 -0.11831019401E+04  0.11831019401E+04  0.00000000000E+00 0. -1.
         21    1    1    2  503  502 -0.11161804940E+03  0.89230105036E+02 -0.12222453164E+03  0.18804105066E+03  0.00000000000E+00 0. -1.
         21    1    1    2  504  501 -0.11417269385E+02 -0.78836466065E+02 -0.46874400744E+02  0.92427008319E+02  0.00000000000E+00 0. -1.
         21    1    1    2  505  504  0.50764538844E+02 -0.42729682195E+02  0.71718294462E+02  0.97705567421E+02  0.00000000000E+00 0.  1.
          1    1    1    2  501    0  0.72270779942E+02  0.32336043224E+02 -0.94366699538E+03  0.94698262048E+03  0.00000000000E+00 0. -1.
<scales pt_clust_3="14000.00000" pt_clust_4="92.69067" pt_clust_5="66.35408" pt_clust_6="80.02880"></scales>
<clustering>
<clus scale="   66.354">  1  5  2 -1</clus>
<clus scale="   80.029">  2  6  1 -1</clus>
<clus scale="   92.691">  2  4  1 -1</clus>
<clus scale="   66.354">  1  3  2 -1</clus>
</clustering>
</event>
<event>
 6    0  0.2572175E+002  0.1060653E+03  0.7546771E-02  0.1268035E+00
         21   -1    0    0  503  502  0.00000000000E+00  0.00000000000E+00  0.27944084412E+02  0.27944084412E+02  0.00000000000E+00 0.  1.
          1   -1    0    0  502    0 -0.00000000000E+00 -0.00000000000E+00 -0.27046593406E+04  0.27046593406E+04  0.00000000000E+00 0.  1.
         21    1    1    2  503  505  0.88129089831E+01  0.47055212788E+02 -0.25843716687E+02  0.54403658953E+02  0.00000000000E+00 0.  1.
         21    1    1    2  504  501  0.56751681008E+02 -0.10362963802E+03 -0.78900634846E+03  0.79780378107E+03  0.00000000000E+00 0.  1.
         21    1    1    2  505  504 -0.21336983159E+02  0.47937675513E+02 -0.67646763237E+02  0.85611752466E+02  0.00000000000E+00 0.  1.
          1    1    1    2  501    0 -0.44227606832E+02  0.86367497217E+01 -0.17942184278E+04  0.17947842325E+04  0.00000000000E+00 0.  1.
<scales pt_clust_3="39.18958" pt_clust_4="97.80854" pt_clust_5="39.18958" pt_clust_6="45.06301"></scales>
<clustering>
<clus scale="   39.190">  3  5 -1 -1</clus>
<clus scale="   45.063">  2  6  1 -1</clus>
<clus scale="   97.809">  2  4  1 -1</clus>
<clus scale="  106.065">  1  3  2 -1</clus>
</clustering>
</event>
<event>
 6    0  0.2572175E+002  0.8823943E+02  0.7546771E-02  0.1307172E+00
          2   -1    0    0  505    0 -0.00000000000E+00  0.00000000000E+00  0.18545342898E+03  0.18545342898E+03  0.00000000000E+00 0.  1.
         21   -1    0    0  503  502  0.00000000000E+00 -0.00000000000E+00 -0.14787376675E+03  0.14787376675E+03  0.00000000000E+00 0.  1.
         21    1    1    2  503  501 -0.67269931576E+02  0.10105663890E+01 -0.20131213225E+02  0.70224858025E+02  0.00000000000E+00 0.  1.
         21    1    1    2  504  502  0.78707045674E+02  0.23539439705E+02 -0.38412453484E+02  0.90688592684E+02  0.00000000000E+00 0.  1.
         21    1    1    2  505  504  0.23094460129E+02  0.38098674418E+02 -0.88119729895E+01  0.45414908885E+02  0.00000000000E+00 0.  1.
          2    1    1    2  501    0 -0.34531574226E+02 -0.62648680512E+02  0.10493530193E+03  0.12699883614E+03  0.00000000000E+00 0.  1.
<scales pt_clust_3="67.27752" pt_clust_4="33.99678" pt_clust_5="33.99678" pt_clust_6="75.19963"></scales>
<clustering>
<clus scale="   33.997">  4  5 -1 -1</clus>
<clus scale="   67.278">  2  3  1 -1</clus>
<clus scale="   75.200">  1  6  2 -1</clus>
<clus scale="   67.278">  2  3  1 -1</clus>
</clustering>
</event>
<event>
 6    0  0.2572175E+002  0.1496857E+03  0.7546771E-02  0.1200860E+00
         -2   -1    0    0    0  501 -0.00000000000E+00  0.00000000000E+00  0.16406861627E+03  0.16406861627E+03  0.00000000000E+00 0. -1.
         21   -1    0    0  503  502  0.00000000000E+00 -0.00000000000E+00 -0.44505769015E+03  0.44505769015E+03  0.00000000000E+00 0. -1.
         21    1    1    2  503  505 -0.51544605834E+01  0.40085127020E+02 -0.18552411869E+03  0.18987518134E+03  0.00000000000E+00 0. -1.
         21    1    1    2  504  502  0.41829192989E+02 -0.20410189461E+02 -0.10294569873E+03  0.11297820191E+03  0.00000000000E+00 0. -1.
         21    1    1    2  505  501 -0.10622119688E+03  0.11071859670E+03  0.31278215821E+02  0.15658824064E+03  0.00000000000E+00 0. -1.
         -2    1    1    2    0  504  0.69546464477E+02 -0.13039353426E+03 -0.23797472275E+02  0.14968468253E+03  0.00000000000E+00 0. -1.
<scales pt_clust_3="40.41517" pt_clust_4="39.82941" pt_clust_5="14000.00000" pt_clust_6="149.68573"></scales>
<clustering>
<clus scale="   40.415">  2  3  1 -1</clus>
<clus scale="   39.829">  2  4  1 -1</clus>
<clus scale="  149.686">  2  6  1 -1</clus>
<clus scale="   40.415">  2  3  1 -1</clus>
</clustering>
</event>
<event>
 6    0  0.2572175E+002  0.1212070E+03  0.7546771E-02  0.1241119E+00
         21   -1    0    0  503  502  0.00000000000E+00  0.00000000000E+00  0.20202025744E+03  0.20202025744E+03  0.00000000000E+00 0.  1.
          2   -1    0    0  505    0 -0.00000000000E+00 -0.00000000000E+00 -0.22280014392E+03  0.22280014392E+03  0.00000000000E+00 0. -1.
         21    1    1    2  503  501 -0.81177740247E+02 -0.47605742539E+02 -0.88641237452E+02  0.12928032028E+03  0.00000000000E+00 0. -1.
         21    1    1    2  504  502  0.37182651770E+02  0.98522982821E+02  0.12226132133E+03  0.16136033723E+03  0.00000000000E+00 0.  1.
         21    1    1    2  505  504  0.59578526221E+02  0.39843400984E+01 -0.72469027054E+01  0.60149757701E+02  0.00000000000E+00 0. -1.
          2    1    1    2  501    0 -0.15583437743E+02 -0.54901580381E+02 -0.47153067658E+02  0.74029986153E+02  0.00000000000E+00 0. -1.
<scales pt_clust_3="42.82742" pt_clust_4="108.01220" pt_clust_5="59.71160" pt_clust_6="42.82742"></scales>
<clustering>
<clus scale="   42.827">  3  6 -1 -1</clus>
<clus scale="   59.712">  2  5  1 -1</clus>
<clus scale="  108.012">  1  4  2 -1</clus>
<clus scale="  108.012">  1  3  2 -1</clus>
</clustering>
</event>
<event>
 6    0  0.2572175E+002  0.8687470E+02  0.7546771E-02  0.1310602E+00
         21   -1    0    0  503  502  0.00000000000E+00  0.00000000000E+00  0.39392399655E+02  0.39392399655E+02  0.00000000000E+00 0.  1.
          2   -1    0    0  505    0 -0.00000000000E+00 -0.00000000000E+00 -0.16500019444E+04  0.16500019444E+04  0.00000000000E+00 0. -1.
         21    1    1    2  503  501  0.97917636178E+02  0.15301023213E+02 -0.51139688901E+02  0.11152243078E+03  0.00000000000E+00 0.  1.
         21    1    1    2  504  502 -0.16187114767E+02 -0.43559738221E+02 -0.79982072123E+02  0.92501920734E+02  0.00000000000E+00 0. -1.
         21    1    1    2  505  504 -0.93252166063E+02 -0.79029317628E+01 -0.11099244369E+04  0.11138629532E+04  0.00000000000E+00 0. -1.
          2    1    1    2  501    0  0.11521644653E+02  0.36161646771E+02 -0.36956334677E+03  0.37150703932E+03  0.00000000000E+00 0. -1.
<scales pt_clust_3="14000.00000" pt_clust_4="43.91498" pt_clust_5="86.87470" pt_clust_6="37.95277"></scales>
<clustering>
<clus scale="   37.953">  2  6  1 -1</clus>
<clus scale="   43.915">  1  4  2 -1</clus>
<clus scale="   86.875">  2  5  1 -1</clus>
<clus scale="   43.915">  1  3  2 -1</clus>
</clustering>
</event>
<event>
 6    0  0.2572175E+002  0.9321205E+02  0.7546771E-02  0.1295255E+00
          2   -1    0    0  502    0 -0.00000000000E+00  0.00000000000E+00  0.15319527089E+04  0.15319527089E+04  0.00000000000E+00 0. -1.
         21   -1    0    0  505  502  0.00000000000E+00 -0.00000000000E+00 -0.40047137217E+02  0.40047137217E+02  0.00000000000E+00 0.  1.
         21    1    1    2  503  504 -0.99887880543E+02 -0.20087367339E+02  0.97449803259E+02  0.14098778373E+03  0.00000000000E+00 0.  1.
         21    1    1    2  504  501  0.95105588239E+02 -0.11755987470E+01  0.92166894967E+03  0.92656360156E+03  0.00000000000E+00 0. -1.
         21    1    1    2  505  503  0.19657695984E+02 -0.28549319022E+02  0.64926211085E+01  0.35265319464E+02  0.00000000000E+00 0.  1.
          2    1    1    2  501    0 -0.14875403680E+02  0.49812285109E+02  0.46629419766E+03  0.46918314138E+03  0.00000000000E+00 0. -1.
<scales pt_clust_3="14000.00000" pt_clust_4="93.21205" pt_clust_5="34.66250" pt_clust_6="50.13306"></scales>
<clustering>
<clus scale="   34.662">  2  5  1 -1</clus>
<clus scale="   50.133">  1  6  2 -1</clus>
<clus scale="   93.212">  1  4  2 -1</clus>
<clus scale="   34.662">  2  3  1 -1</clus>
</clustering>
</event>
<event>
 6    0  0.2572175E+002  0.9891575E+02  0.7546771E-02  0.1282593E+00
         21   -1    0    0  504  502  0.00000000000E+00  0.00000000000E+00  0.14910374659E+03  0.14910374659E+03  0.00000000000E+00 0.  1.
         -1   -1    0    0    0  501 -0.00000000000E+00 -0.00000000000E+00 -0.66669767531E+03  0.66669767531E+03  0.00000000000E+00 0.  1.
         21    1    1    2  503  501 -0.26211778026E+02 -0.70479828641E+02 -0.14918411857E+03  0.16706395418E+03  0.00000000000E+00 0.  1.
         21    1    1    2  504  503  0.28071439271E+02 -0.11025718037E+02 -0.21330578446E+02  0.36940028936E+02  0.00000000000E+00 0. -1.
         21    1    1    2  505  502 -0.90396974401E+02  0.89189447480E+02  0.96442245761E+02  0.15945995513E+03  0.00000000000E+00 0.  1.
         -1    1    1    2    0  505  0.88537313156E+02 -0.76839008011E+01 -0.44352147746E+03  0.45233748365E+03  0.00000000000E+00 0.  1.
<scales pt_clust_3="75.25509" pt_clust_4="30.15911" pt_clust_5="98.91575" pt_clust_6="14000.00000"></scales>
<clustering>
<clus scale="   30.159">  1  4  2 -1</clus>
<clus scale="   75.255">  2  3  1 -1</clus>
<clus scale="   98.916">  1  5  2 -1</clus>
<clus scale="   30.159">  1  3  2 -1</clus>
</clustering>
</event>
<event>
 6    0  0.2572175E+002  0.1175589E+03  0.7546771E-02  0.1247179E+00
         -3   -1    0    0    0  501 -0.00000000000E+00  0.00000000000E+00  0.86127066969E+02  0.86127066969E+02  0.00000000000E+00 0.  1.
         21   -1    0    0  503  502  0.00000000000E+00 -0.00000000000E+00 -0.10193729538E+04  0.10193729538E+04  0.00000000000E+00 0.  1.
         21    1    1    2  503  505 -0.65089194209E+02 -0.42354141967E+01 -0.37254774690E+03  0.37821470841E+03  0.00000000000E+00 0.  1.
         21    1    1    2  504  502  0.59900189846E+02  0.73063142303E+02 -0.10734715535E+03  0.14300233309E+03  0.00000000000E+00 0.  1.
         21    1    1    2  505  501 -0.40241768351E+02 -0.35742134516E+02 -0.50505570755E+03  0.50791551249E+03  0.00000000000E+00 0.  1.
         -3    1    1    2    0  504  0.45430772714E+02 -0.33085593591E+02  0.51704722942E+02  0.76367466811E+02  0.00000000000E+00 0.  1.
<scales pt_clust_3="43.99934" pt_clust_4="107.11656" pt_clust_5="43.99934" pt_clust_6="56.20153"></scales>
<clustering>
<clus scale="   43.999">  3  5 -1 -1</clus>
<clus scale="   56.202">  1  6  2 -1</clus>
<clus scale="  107.117">  1  4  2 -1</clus>
<clus scale="  117.559">  2  3  1 -1</clus>
</clustering>
</event>
<event>
 6    0  0.2572175E+002  0.1403650E+03  0.7546771E-02  0.1212839E+00
         21   -1    0    0  505  502  0.00000000000E+00  0.00000000000E+00  0.95122136030E+03  0.95122136030E+03  0.00000000000E+00 0. -1.
          4   -1    0    0  504    0 -0.00000000000E+00 -0.00000000000E+00 -0.64022603012E+02  0.64022603012E+02  0.00000000000E+00 0. -1.
         21    1    1    2  503  502  0.26209733995E+02 -0.20673825739E+02  0.31625916978E+03  0.31801606830E+03  0.00000000000E+00 0. -1.
         21    1    1    2  504  503  0.66551975254E+02 -0.10726008485E+03  0.45229258120E+03  0.46957690554E+03  0.00000000000E+00 0. -1.
         21    1    1    2  505  501  0.11372718527E+02  0.28174761107E+02  0.68563012586E+02  0.74993616962E+02  0.00000000000E+00 0. -1.
          4    1    1    2  501    0 -0.10413442778E+03  0.99759149481E+02  0.50083993720E+02  0.15265737251E+03  0.00000000000E+00 0. -1.
<scales pt_clust_3="32.08249" pt_clust_4="140.36497" pt_clust_5="30.38348" pt_clust_6="14000.00000"></scales>
<clustering>
<clus scale="   30.383">  1  5  2 -1</clus>
<clus scale="   32.082">  1  3  2 -1</clus>
<clus scale="  140.365">  1  4  2 -1</clus>
<clus scale="   30.383">  1  3  2 -1</clus>
</clustering>
</event>
<event>
 6    0  0.2572175E+002  0.1027631E+03  0.7546771E-02  0.1274590E+00
         21   -1    0    0  503  502  0.00000000000E+00  0.00000000000E+00  0.59779101519E+03  0.59779101519E+03  0.00000000000E+00 0.  1.
         -2   -1    0    0    0  501 -0.00000000000E+00 -0.00000000000E+00 -0.22779970312E+03  0.22779970312E+03  0.00000000000E+00 0. -1.
         21    1    1    2  503  501  0.11959193857E+02 -0.37477057124E+02  0.50860049473E+02  0.64298497345E+02  0.00000000000E+00 0.  1.
         21    1    1    2  504  505 -0.75592841869E+02  0.13648522699E+02 -0.21698391111E+02  0.79820925142E+02  0.00000000000E+00 0. -1.
         21    1    1    2  505  502  0.99833145913E+02  0.37800174519E+02  0.50326691212E+03  0.51446389091E+03  0.00000000000E+00 0.  1.
         -2    1    1    2    0  504 -0.36199497901E+02 -0.13971640094E+02 -0.16243725841E+03  0.16700740491E+03  0.00000000000E+00 0. -1.
<scales pt_clust_3="39.79899" pt_clust_4="14000.00000" pt_clust_5="102.76312" pt_clust_6="38.80220"></scales>
<clustering>
<clus scale="   38.802">  2  6  1 -1</clus>
<clus scale="   39.799">  2  3  1 -1</clus>
<clus scale="  102.763">  1  5  2 -1</clus>
<clus scale="  102.763">  1  3  2 -1</clus>
</clustering>
</event>
<event>
 6    0  0.2572175E+002  0.8075311E+02  0.7546771E-02  0.1326928E+00
          2   -1    0    0  503    0 -0.00000000000E+00  0.00000000000E+00  0.19109563573E+04  0.19109563573E+04  0.00000000000E+00 0.  1.
         21   -1    0    0  505  502  0.00000000000E+00 -0.00000000000E+00 -0.12015950524E+03  0.12015950524E+03  0.00000000000E+00 0. -1.
         21    1    1    2  503  504  0.77320767031E+02 -0.27129372293E+02  0.28813338213E+03  0.29955859152E+03  0.00000000000E+00 0.  1.
         21    1    1    2  504  502 -0.38356745085E+02  0.46054986609E+02 -0.85360358542E+02  0.10430097073E+03  0.00000000000E+00 0. -1.
         21    1    1    2  505  501 -0.24528713164E+02  0.61941397695E+02  0.41366908264E+02  0.78419484933E+02  0.00000000000E+00 0. -1.
          2    1    1    2  501    0 -0.14435308783E+02 -0.80867012010E+02  0.15466569202E+04  0.15488368153E+04  0.00000000000E+00 0.  1.
<scales pt_clust_3="70.68136" pt_clust_4="59.93581" pt_clust_5="14000.00000" pt_clust_6="80.75311"></scales>
<clustering>
<clus scale="   59.936">  2  4  1 -1</clus>
<clus scale="   70.681">  2  3  1 -1</clus>
<clus scale="   80.753">  1  6  2 -1</clus>
<clus scale="   59.936">  2  3  1 -1</clus>
</clustering>
</event>
<event>
 6    0  0.2572175E+002  0.1242831E+03  0.7546771E-02  0.1236194E+00
         -2   -1    0    0    0  501 -0.00000000000E+00  0.00000000000E+00  0.43387150526E+03  0.43387150526E+03  0.00000000000E+00 0. -1.
         21   -1    0    0  504  502  0.00000000000E+00 -0.00000000000E+00 -0.14646182657E+03  0.14646182657E+03  0.00000000000E+00 0. -1.
         21    1    1    2  503  505  0.16607189485E+03  0.43747085588E+02  0.94396688786E+02  0.19597044831E+03  0.00000000000E+00 0. -1.
         21    1    1    2  504  501 -0.21792110982E+02  0.25883613043E+02  0.11063011589E+02  0.35598423428E+02  0.00000000000E+00 0. -1.
         21    1    1    2  505  502 -0.50088830016E+02 -0.49969473157E+01 -0.61721249678E+02  0.79645295131E+02  0.00000000000E+00 0. -1.
         -2    1    1    2    0  503 -0.94190953852E+02 -0.64633751315E+02  0.24367122800E+03  0.26911916496E+03  0.00000000000E+00 0. -1.
<scales pt_clust_3="14000.00000" pt_clust_4="33.83574" pt_clust_5="62.17007" pt_clust_6="124.28312"></scales>
<clustering>
<clus scale="   33.836">  2  4  1 -1</clus>
<clus scale="   62.170">  2  5  1 -1</clus>
<clus scale="  124.283">  1  6  2 -1</clus>
<clus scale="   33.836">  2  3  1 -1</clus>
</clustering>
</event>
<event>
 6    0  0.2572175E+002  0.9485789E+02  0.7546771E-02  0.1291496E+00
         21   -1    0    0  505  502  0.00000000000E+00  0.00000000000E+00  0.53715343948E+03  0.53715343948E+03  0.00000000000E+00 0.  1.
          4   -1    0    0  503    0 -0.00000000000E+00 -0.00000000000E+00 -0.80440178494E+02  0.80440178494E+02  0.00000000000E+00 0.  1.
         21    1    1    2  503  504 -0.11337869876E+03  0.10234435433E+03  0.11215290422E+03  0.18949240122E+03  0.00000000000E+00 0.  1.
         21    1    1    2  504  502  0.59684072854E+02 -0.11885575011E+01  0.26861836785E+03  0.27517163511E+03  0.00000000000E+00 0.  1.
         21    1    1    2  505  501  0.22553406249E+02 -0.49216333637E+02  0.74829093369E+02  0.92359606130E+02  0.00000000000E+00 0. -1.
          4    1    1    2  501    0  0.31141219657E+02 -0.51939463190E+02  0.11128955528E+01  0.60569975522E+02  0.00000000000E+00 0.  1.
<scales pt_clust_3="94.85789" pt_clust_4="14000.00000" pt_clust_5="54.13782" pt_clust_6="64.21992"></scales>
<clustering>
<clus scale="   54.138">  1  5  2 -1</clus>
<clus scale="   64.220">  2  6  1 -1</clus>
<clus scale="   94.858">  2  3  1 -1</clus>
<clus scale="   54.138">  1  3  2 -1</clus>
</clustering>
</event>
<event>
 6    0  0.2572175E+002  0.8261107E+02  0.7546771E-02  0.1321801E+00
         21   -1    0    0  505  502  0.00000000000E+00  0.00000000000E+00  0.53804771530E+03  0.53804771530E+03  0.00000000000E+00 0.  1.
          2   -1    0    0  504    0 -0.00000000000E+00 -0.00000000000E+00 -0.25089157531E+04  0.25089157531E+04  0.00000000000E+00 0.  1.
         21    1    1    2  503  502  0.73211607965E+01 -0.29397438701E+02  0.22022517689E+02  0.37453972859E+02  0.00000000000E+00 0.  1.
         21    1    1    2  504  503 -0.13689030712E+03 -0.17288615314E+02 -0.35504544738E+03  0.38091353626E+03  0.00000000000E+00 0.  1.
         21    1    1    2  505  501  0.73718754008E+02  0.24110164863E+02  0.49191096060E+03  0.49798810016E+03  0.00000000000E+00 0.  1.
          2    1    1    2  501    0  0.55850392315E+02  0.22575889152E+02 -0.21297560687E+04  0.21306078591E+04  0.00000000000E+00 0.  1.
<scales pt_clust_3="30.29536" pt_clust_4="82.61107" pt_clust_5="14000.00000" pt_clust_6="60.23712"></scales>
<clustering>
<clus scale="   30.295">  1  3  2 -1</clus>
<clus scale="   60.237">  2  6  1 -1</clus>
<clus scale="   82.611">  2  4  1 -1</clus>
<clus scale="   30.295">  1  3  2 -1</clus>
</clustering>
</event>
<event>
 6    0  0.2704171E+002  0.9412224E+02  0.7546771E-02  0.1293165E+00
         21   -1    0    0  505  502  0.00000000000E+00  0.00000000000E+00  0.17774173688E+04  0.17774173688E+04  0.00000000000E+00 0.  1.
          3   -1    0    0  504    0 -0.00000000000E+00 -0.00000000000E+00 -0.91847349042E+03  0.91847349042E+03  0.00000000000E+00 0.  1.
         21    1    1    2  503  502  0.36364696764E+02 -0.89483232242E+02 -0.13157548414E+02  0.97482106581E+02  0.00000000000E+00 0. -1.
         21    1    1    2  504  503 -0.33216799914E+02  0.18883471903E+02 -0.14010678416E+03  0.14522345636E+03  0.00000000000E+00 0.  1.
         21    1    1    2  505  501  0.22131804725E+02  0.91848865862E+02  0.17310294932E+04  0.17336058194E+04  0.00000000000E+00 0.  1.
          3    1    1    2  501    0 -0.25279701575E+02 -0.21249105522E+02 -0.71882128220E+03  0.71957947687E+03  0.00000000000E+00 0.  1.
<scales pt_clust_3="94.12224" pt_clust_4="51.44635" pt_clust_5="14000.00000" pt_clust_6="33.02405"></scales>
<clustering>
<clus scale="   33.024">  2  6  1 -1</clus>
<clus scale="   51.446">  2  4  1 -1</clus>
<clus scale="   94.122">  2  3  1 -1</clus>
<clus scale="   94.122">  1  3  2 -1</clus>
</clustering>
</event>
<event>
 6    0  0.2572175E+002  0.9553217E+02  0.7546771E-02  0.1289982E+00
          2   -1    0    0  502    0 -0.00000000000E+00  0.00000000000E+00  0.70788897386E+03  0.70788897386E+03  0.00000000000E+00 0. -1.
         21   -1    0    0  504  502  0.00000000000E+00 -0.00000000000E+00 -0.33323467242E+03  0.33323467242E+03  0.00000000000E+00 0. -1.
         21    1    1    2  503  505 -0.13154930646E+02 -0.86873998443E+02  0.75887204056E+01  0.88191453573E+02  0.00000000000E+00 0. -1.
         21    1    1    2  504  503  0.58056956668E+02  0.79868329933E+02 -0.24597092940E+03  0.26504953962E+03  0.00000000000E+00 0. -1.
         21    1    1    2  505  501 -0.40377145468E+02 -0.32753311588E+02 -0.18421237683E+02  0.55158274936E+02  0.00000000000E+00 0. -1.
          2    1    1    2  501    0 -0.45248805538E+01  0.39758980099E+02  0.63145774812E+03  0.63272437815E+03  0.00000000000E+00 0. -1.
<scales pt_clust_3="95.53217" pt_clust_4="14000.00000" pt_clust_5="47.48181" pt_clust_6="40.01563"></scales>
<clustering>
<clus scale="   40.016">  1  6  2 -1</clus>
<clus scale="   47.482">  1  5  2 -1</clus>
<clus scale="   95.532">  1  3  2 -1</clus>
<clus scale="   95.532">  2  3  1 -1</clus>
</clustering>
</event>
<event>
 6    0  0.2572175E+002  0.1506106E+03  0.7546771E-02  0.1199725E+00
         21   -1    0    0  505  502  0.00000000000E+00  0.00000000000E+00  0.15227005474E+03  0.15227005474E+03  0.00000000000E+00 0.  1.
          2   -1    0    0  503    0 -0.00000000000E+00 -0.00000000000E+00 -0.20262274116E+04  0.20262274116E+04  0.00000000000E+00 0. -1.
         21    1    1    2  503  504 -0.56822238835E+02  0.49550455627E+02 -0.34803581547E+03  0.35610805007E+03  0.00000000000E+00 0. -1.
         21    1    1    2  504  502  0.16275086386E+03 -0.57305518177E+02  0.87923946674E+02  0.19365532913E+03  0.00000000000E+00 0.  1.
         21    1    1    2  505  501 -0.31215946033E+02 -0.24149115412E+02 -0.54582798521E+02  0.67356491568E+02  0.00000000000E+00 0. -1.
          2    1    1    2  501    0 -0.74712678990E+02  0.31904177962E+02 -0.15592626896E+04  0.15613775956E+04  0.00000000000E+00 0. -1.
<scales pt_clust_3="75.61179" pt_clust_4="14000.00000" pt_clust_5="39.46663" pt_clust_6="150.61057"></scales>
<clustering>
<clus scale="   39.467">  1  5  2 -1</clus>
<clus scale="   75.612">  2  3  1 -1</clus>
<clus scale="  150.611">  2  6  1 -1</clus>
<clus scale="   39.467">  1  3  2 -1</clus>
</clustering>
</event>
<event>
 6    0  0.2572175E+002  0.6983948E+02  0.7546771E-02  0.1360640E+00
         -1   -1    0    0    0  501 -0.00000000000E+00  0.00000000000E+00  0.11065036231E+03  0.11065036231E+03  0.00000000000E+00 0. -1.
         21   -1    0    0  505  502  0.00000000000E+00 -0.00000000000E+00 -0.12419741301E+04  0.12419741301E+04  0.00000000000E+00 0.  1.
         21    1    1    2  503  501  0.18812352724E+02 -0.30442330875E+02 -0.38966222640E+02  0.52905638933E+02  0.00000000000E+00 0.  1.
         21    1    1    2  504  502  0.93273281286E+02  0.29417271519E+02 -0.34506727183E+03  0.35865959203E+03  0.00000000000E+00 0.  1.
         21    1    1    2  505  503 -0.63646643911E+02  0.21791830794E+02 -0.83555411773E+03  0.83825799300E+03  0.00000000000E+00 0.  1.
         -1    1    1    2    0  504 -0.48438990099E+02 -0.20766771438E+02  0.88263844426E+02  0.10280126843E+03  0.00000000000E+00 0. -1.
<scales pt_clust_3="35.78603" pt_clust_4="69.83948" pt_clust_5="14000.00000" pt_clust_6="57.88432"></scales>
<clustering>
<clus scale="   35.786">  1  3  2 -1</clus>
<clus scale="   57.884">  1  6  2 -1</clus>
<clus scale="   69.839">  1  4  2 -1</clus>
<clus scale="   69.839">  2  3  1 -1</clus>
</clustering>
</event>
<event>
 6    0  0.2572175E+002  0.1256952E+03  0.7546771E-02  0.1233987E+00
         21   -1    0    0  505  502  0.00000000000E+00  0.00000000000E+00  0.50179986563E+02  0.50179986563E+02  0.00000000000E+00 0. -1.
          1   -1    0    0  503    0 -0.00000000000E+00 -0.00000000000E+00 -0.39018618673E+04  0.39018618673E+04  0.00000000000E+00 0.  1.
         21    1    1    2  503  504 -0.12923332496E+03  0.94248121783E+02 -0.18393166257E+03  0.24375154817E+03  0.00000000000E+00 0. -1.
         21    1    1    2  504  502  0.82636240293E+02  0.74559356929E+01 -0.11105549062E+03  0.13862777926E+03  0.00000000000E+00 0. -1.
         21    1    1    2  505  501  0.47109621477E+02 -0.14625003130E+03 -0.93130021281E+03  0.94389007542E+03  0.00000000000E+00 0. -1.
          1    1    1    2  501    0 -0.51253681469E+00  0.44545973828E+02 -0.26253945148E+04  0.26257724511E+04  0.00000000000E+00 0.  1.
<scales pt_clust_3="125.69516" pt_clust_4="83.42673" pt_clust_5="14000.00000" pt_clust_6="44.54892"></scales>
<clustering>
<clus scale="   44.549">  2  6  1 -1</clus>
<clus scale="   83.427">  1  4  2 -1</clus>
<clus scale="  125.695">  1  3  2 -1</clus>
<clus scale="   83.427">  1  3  2 -1</clus>
</clustering>
</event>
<event>
 6    0  0.2572175E+002  0.9034303E+02  0.7546771E-02  0.1302023E+00
         -3   -1    0    0    0  501 -0.00000000000E+00  0.00000000000E+00  0.78800161598E+03  0.78800161598E+03  0.00000000000E+00 0. -1.
         21   -1    0    0  505  502  0.00000000000E+00 -0.00000000000E+00 -0.11850480441E+03  0.11850480441E+03  0.00000000000E+00 0. -1.
         21    1    1    2  503  504 -0.87311108521E+02  0.62822347764E+02 -0.17862048790E+02  0.10903636933E+03  0.00000000000E+00 0. -1.
         21    1    1    2  504  502  0.60784606916E-01 -0.33744802036E+02 -0.42627260266E+02  0.54367257398E+02  0.00000000000E+00 0.  1.
         21    1    1    2  505  501  0.48063589607E+02  0.37757092912E+02  0.29393662391E+03  0.30022399235E+03  0.00000000000E+00 0. -1.
         -3    1    1    2    0  503  0.39186734307E+02 -0.66834638639E+02  0.43604949672E+03  0.44287880131E+03  0.00000000000E+00 0. -1.
<scales pt_clust_3="90.34303" pt_clust_4="33.74486" pt_clust_5="60.19832" pt_clust_6="14000.00000"></scales>
<clustering>
<clus scale="   33.745">  2  4  1 -1</clus>
<clus scale="   60.198">  1  5  2 -1</clus>
<clus scale="   90.343">  2  3  1 -1</clus>
<clus scale="   33.745">  2  3  1 -1</clus>
</clustering>
</event>
<event>
 6    0  0.2572175E+002  0.9260995E+02  0.7546771E-02  0.1296652E+00
          1   -1    0    0  503    0 -0.00000000000E+00  0.00000000000E+00  0.22981987799E+04  0.22981987799E+04  0.00000000000E+00 0. -1.
         21   -1    0    0  501  502  0.00000000000E+00 -0.00000000000E+00 -0.22715608557E+02  0.22715608557E+02  0.00000000000E+00 0. -1.
         21    1    1    2  503  505  0.65146488039E+02 -0.70304695000E+02  0.15508815327E+04  0.15538405142E+04  0.00000000000E+00 0. -1.
         21    1    1    2  504  502 -0.79443319639E+02  0.34380986762E+02  0.18610327331E+03  0.20525038763E+03  0.00000000000E+00 0. -1.
         21    1    1    2  505  504 -0.27658478577E+02  0.83824918281E+02  0.39641330918E+03  0.40612205069E+03  0.00000000000E+00 0. -1.
          1    1    1    2  501    0  0.41955310177E+02 -0.47901210042E+02  0.14208505613E+03  0.15570143594E+03  0.00000000000E+00 0. -1.
<scales pt_clust_3="92.60995" pt_clust_4="54.47708" pt_clust_5="14000.00000" pt_clust_6="63.67711"></scales>
<clustering>
<clus scale="   63.677">  2  6  1 -1</clus>
<clus scale="   54.477">  2  4  1 -1</clus>
<clus scale="   92.610">  1  3  2 -1</clus>
<clus scale="   63.677">  2  3  1 -1</clus>
</clustering>
</event>
<event>
 6    0  0.2572175E+002  0.9028646E+02  0.7546771E-02  0.1302159E+00
          2   -1    0    0  504    0 -0.00000000000E+00  0.00000000000E+00  0.16470472268E+04  0.16470472268E+04  0.00000000000E+00 0.  1.
         21   -1    0    0  505  502  0.00000000000E+00 -0.00000000000E+00 -0.37022866215E+03  0.37022866215E+03  0.00000000000E+00 0.  1.
         21    1    1    2  503  502  0.13905408555E+02  0.54626655608E+02 -0.12494915331E+03  0.13707560981E+03  0.00000000000E+00 0.  1.
         21    1    1    2  504  503 -0.49392358161E+02  0.30429179020E+02 -0.23197023900E+03  0.23911447418E+03  0.00000000000E+00 0.  1.
         21    1    1    2  505  501 -0.36100118133E+02 -0.68064530830E+02  0.63843281414E+03  0.64306489335E+03  0.00000000000E+00 0.  1.
          2    1    1    2  501    0  0.71587067739E+02 -0.16991303798E+02  0.99530514281E+03  0.99802091159E+03  0.00000000000E+00 0.  1.
<scales pt_clust_3="56.36871" pt_clust_4="14000.00000" pt_clust_5="90.28646" pt_clust_6="73.58178"></scales>
<clustering>
<clus scale="   56.369">  2  3  1 -1</clus>
<clus scale="   73.582">  1  6  2 -1</clus>
<clus scale="   90.286">  1  5  2 -1</clus>
<clus scale="   56.369">  2  3  1 -1</clus>
</clustering>
</event>
<event>
 6    0  0.2572175E+002  0.1211199E+03  0.7546771E-02  0.1241261E+00
          1   -1    0    0  504    0 -0.00000000000E+00  0.00000000000E+00  0.78131974234E+03  0.78131974234E+03  0.00000000000E+00 0. -1.
         21   -1    0    0  505  502  0.00000000000E+00 -0.00000000000E+00 -0.15033112165E+03  0.15033112165E+03  0.00000000000E+00 0. -1.
         21    1    1    2  503  502 -0.69543459202E+02  0.20655501617E+02 -0.10330030035E+03  0.12622953108E+03  0.00000000000E+00 0. -1.
         21    1    1    2  504  503 -0.41676366954E+02 -0.50509950173E+01 -0.12696617698E+02  0.43859277401E+02  0.00000000000E+00 0. -1.
         21    1    1    2  505  501  0.71127169426E+02  0.34272872783E+02  0.30905985771E+03  0.31898542237E+03  0.00000000000E+00 0. -1.
          1    1    1    2  501    0  0.40092656731E+02 -0.49877379382E+02  0.43792568103E+03  0.44257663314E+03  0.00000000000E+00 0. -1.
<scales pt_clust_3="40.69330" pt_clust_4="40.69330" pt_clust_5="108.66680" pt_clust_6="63.99355"></scales>
<clustering>
<clus scale="   40.693">  3  4 -1 -1</clus>
<clus scale="   63.994">  1  6  2 -1</clus>
<clus scale="  108.667">  1  5  2 -1</clus>
<clus scale="  121.120">  2  3  1 -1</clus>
</clustering>
</event>
<event>
 6    0  0.2572175E+002  0.1015801E+03  0.7546771E-02  0.1277008E+00
          2   -1    0    0  503    0 -0.00000000000E+00  0.00000000000E+00  0.19593005351E+04  0.19593005351E+04  0.00000000000E+00 0. -1.
         21   -1    0    0  505  502  0.00000000000E+00 -0.00000000000E+00 -0.48492616484E+02  0.48492616484E+02  0.00000000000E+00 0. -1.
         21    1    1    2  503  502  0.27861418052E+02  0.62370306598E+02  0.71112540352E+02  0.98606831185E+02  0.00000000000E+00 0. -1.
         21    1    1    2  504  501 -0.43407662942E+02  0.16137302109E+01  0.82022854209E+02  0.92814750659E+02  0.00000000000E+00 0. -1.
         21    1    1    2  505  504 -0.19821397744E+02  0.37645452845E+02 -0.11386936084E+02  0.44042368713E+02  0.00000000000E+00 0. -1.
          2    1    1    2  501    0  0.35367642634E+02 -0.10162948965E+03  0.17690594602E+04  0.17723292011E+04  0.00000000000E+00 0. -1.
<scales pt_clust_3="14000.00000" pt_clust_4="49.87325" pt_clust_5="42.54489" pt_clust_6="101.58006"></scales>
<clustering>
<clus scale="   42.545">  2  5  1 -1</clus>
<clus scale="   49.873">  2  4  1 -1</clus>
<clus scale="  101.580">  1  6  2 -1</clus>
<clus scale="   42.545">  2  3  1 -1</clus>
</clustering>
</event>
<event>
 6    0  0.2572175E+002  0.9654167E+02  0.7546771E-02  0.1287741E+00
         21   -1    0    0  503  502  0.00000000000E+00  0.00000000000E+00  0.36264091423E+03  0.36264091423E+03  0.00000000000E+00 0.  1.
          1   -1    0    0  504    0 -0.00000000000E+00 -0.00000000000E+00 -0.14372094221E+04  0.14372094221E+04  0.00000000000E+00 0. -1.
         21    1    1    2  503  505 -0.92338792697E+02 -0.55426433111E+02  0.31158235883E+03  0.32966969600E+03  0.00000000000E+00 0.  1.
         21    1    1    2  504  502  0.43008432694E+02  0.48078663495E+02  0.92973005462E+01  0.65174557641E+02  0.00000000000E+00 0.  1.
         21    1    1    2  505  501  0.38117392524E+02  0.35724296750E+02 -0.14395649829E+03  0.15314252967E+03  0.00000000000E+00 0. -1.
          1    1    1    2  501    0  0.11212967479E+02 -0.28376527134E+02 -0.12514916690E+04  0.12518635531E+04  0.00000000000E+00 0. -1.
<scales pt_clust_3="96.54167" pt_clust_4="14000.00000" pt_clust_5="48.85766" pt_clust_6="30.51160"></scales>
<clustering>
<clus scale="   30.512">  2  6  1 -1</clus>
<clus scale="   48.858">  2  5  1 -1</clus>
<clus scale="   96.542">  1  3  2 -1</clus>
<clus scale="   96.542">  1  3  2 -1</clus>
</clustering>
</event>
<event>
 6    0  0.2572175E+002  0.7150674E+02  0.7546771E-02  0.1355043E+00
         21   -1    0    0  505  502  0.00000000000E+00  0.00000000000E+00  0.54417697972E+02  0.54417697972E+02  0.00000000000E+00 0. -1.
          2   -1    0    0  504    0 -0.00000000000E+00 -0.00000000000E+00 -0.16110378063E+04  0.16110378063E+04  0.00000000000E+00 0.  1.
         21    1    1    2  503  501  0.28468688008E+02 -0.48164582044E+02 -0.57597165374E+03  0.57868267563E+03  0.00000000000E+00 0.  1.
         21    1    1    2  504  502 -0.22320311873E+02  0.98886406424E+02 -0.24046851398E+02  0.10418718136E+03  0.00000000000E+00 0. -1.
         21    1    1    2  505  503  0.39089452938E+02 -0.26069170137E+02 -0.32688929210E+02  0.57237689117E+02  0.00000000000E+00 0. -1.
          2    1    1    2  501    0 -0.45237829072E+02 -0.24652654244E+02 -0.92391267394E+03  0.92534795813E+03  0.00000000000E+00 0.  1.
<scales pt_clust_3="14000.00000" pt_clust_4="71.50674" pt_clust_5="46.98497" pt_clust_6="51.15191"></scales>
<clustering>
<clus scale="   46.985">  1  5  2 -1</clus>
<clus scale="   51.152">  2  6  1 -1</clus>
<clus scale="   71.507">  1  4  2 -1</clus>
<clus scale="   46.985">  1  3  2 -1</clus>
</clustering>
</event>
<event>
 6    0  0.2572175E+002  0.8421956E+02  0.7546771E-02  0.1317486E+00
          2   -1    0    0  504    0 -0.00000000000E+00  0.00000000000E+00  0.72162347208E+03  0.72162347208E+03  0.00000000000E+00 0.  1.
         21   -1    0    0  503  502  0.00000000000E+00 -0.00000000000E+00 -0.31019417597E+03  0.31019417597E+03  0.00000000000E+00 0. -1.
         21    1    1    2  503  505  0.52347507999E+01  0.52535961630E+02 -0.14871473661E+03  0.15780843693E+03  0.00000000000E+00 0. -1.
         21    1    1    2  504  502  0.33415490278E+02 -0.79289853711E+01 -0.16143752795E+02  0.37948446000E+02  0.00000000000E+00 0. -1.
         21    1    1    2  505  501 -0.11634702322E+03 -0.74311881727E+02 -0.89870749108E+02  0.16472898082E+03  0.00000000000E+00 0. -1.
          2    1    1    2  501    0  0.77696782138E+02  0.29704905468E+02  0.66615853462E+03  0.67133178430E+03  0.00000000000E+00 0.  1.
<scales pt_clust_3="53.58551" pt_clust_4="34.34332" pt_clust_5="84.21956" pt_clust_6="14000.00000"></scales>
<clustering>
<clus scale="   34.343">  2  4  1 -1</clus>
<clus scale="   53.586">  2  3  1 -1</clus>
<clus scale="   84.220">  2  5  1 -1</clus>
<clus scale="   34.343">  2  3  1 -1</clus>
</clustering>
</event>
<event>
 6    0  0.2572175E+002  0.1377693E+03  0.7546771E-02  0.1216362E+00
          2   -1    0    0  503    0 -0.00000000000E+00  0.00000000000E+00  0.26831218727E+04  0.26831218727E+04  0.00000000000E+00 0.  1.
         21   -1    0    0  504  502  0.00000000000E+00 -0.00000000000E+00 -0.56633746106E+03  0.56633746106E+03  0.00000000000E+00 0.  1.
         21    1    1    2  503  505 -0.57884925338E+02  0.37123090371E+02  0.56060915123E+03  0.56481094967E+03  0.00000000000E+00 0.  1.
         21    1    1    2  504  501 -0.27222084572E+02 -0.11845606445E+03 -0.13645826792E+03  0.18273954136E+03  0.00000000000E+00 0.  1.
         21    1    1    2  505  502  0.59553645590E+02  0.13563549349E+03 -0.39063345382E+03  0.41777759519E+03  0.00000000000E+00 0.  1.
          2    1    1    2  501    0  0.25553364319E+02 -0.54302519414E+02  0.20832669821E+04  0.20841312475E+04  0.00000000000E+00 0.  1.
<scales pt_clust_3="36.61834" pt_clust_4="14000.00000" pt_clust_5="137.76926" pt_clust_6="60.01448"></scales>
<clustering>
<clus scale="   60.014">  1  6  2 -1</clus>
<clus scale="   36.618">  1  3  2 -1</clus>
<clus scale="  137.769">  2  5  1 -1</clus>
<clus scale="  137.769">  2  3  1 -1</clus>
</clustering>
</event>
<event>
 6    0  0.2572175E+002  0.2037979E+03  0.7546771E-02  0.1146574E+00
         21   -1    0    0  504  502  0.00000000000E+00  0.00000000000E+00  0.42311144308E+02  0.42311144308E+02  0.00000000000E+00 0.  1.
          2   -1    0    0  505    0 -0.00000000000E+00 -0.00000000000E+00 -0.39402253587E+04  0.39402253587E+04  0.00000000000E+00 0. -1.
         21    1    1    2  503  501  0.52113682286E+02  0.17526431625E+02 -0.13583877386E+03  0.14654413728E+03  0.00000000000E+00 0.  1.
         21    1    1    2  504  503  0.12508158056E+03  0.63185153764E+02 -0.12928298806E+03  0.19066162817E+03  0.00000000000E+00 0.  1.
         21    1    1    2  505  502 -0.83717846822E+02  0.47030218988E+02 -0.53864897395E+03  0.54714096585E+03  0.00000000000E+00 0.  1.
          2    1    1    2  501    0 -0.93477416026E+02 -0.12774180438E+03 -0.30941434785E+04  0.30981897717E+04  0.00000000000E+00 0. -1.
<scales pt_clust_3="46.47737" pt_clust_4="46.47737" pt_clust_5="96.02354" pt_clust_6="189.81020"></scales>
<clustering>
<clus scale="   46.477">  3  4 -1 -1</clus>
<clus scale="   96.024">  2  5  1 -1</clus>
<clus scale="  189.810">  2  6  1 -1</clus>
<clus scale="  203.798">  1  3  2 -1</clus>
</clustering>
</event>
<event>
 6    0  0.2572175E+002  0.9825359E+02  0.7546771E-02  0.1284012E+00
         21   -1    0    0  504  502  0.00000000000E+00  0.00000000000E+00  0.39575713864E+03  0.39575713864E+03  0.00000000000E+00 0. -1.
          3   -1    0    0  505    0 -0.00000000000E+00 -0.00000000000E+00 -0.19650871778E+03  0.19650871778E+03  0.00000000000E+00 0. -1.
         21    1    1    2  503  501  0.83542984635E+02 -0.90302125717E+02  0.23315371997E+03  0.26361821129E+03  0.00000000000E+00 0. -1.
         21    1    1    2  504  503 -0.67509350467E+01  0.36328454038E+02  0.10713405977E+03  0.11332713029E+03  0.00000000000E+00 0. -1.
         21    1    1    2  505  502 -0.11150078799E+03  0.21914153383E+02 -0.84330468648E+02  0.14150718633E+03  0.00000000000E+00 0. -1.
          3    1    1    2  501    0  0.34708738406E+02  0.32059518297E+02 -0.56708890221E+02  0.73813328507E+02  0.00000000000E+00 0. -1.
<scales pt_clust_3="98.25359" pt_clust_4="36.95040" pt_clust_5="14000.00000" pt_clust_6="47.84838"></scales>
<clustering>
<clus scale="   36.950">  1  4  2 -1</clus>
<clus scale="   47.848">  2  6  1 -1</clus>
<clus scale="   98.254">  1  3  2 -1</clus>
<clus scale="   36.950">  1  3  2 -1</clus>
</clustering>
</event>
<event>
 6    0  0.2572175E+002  0.1291499E+03  0.7546771E-02  0.1228723E+00
         21   -1    0    0  503  502  0.00000000000E+00  0.00000000000E+00  0.37155546561E+03  0.37155546561E+03  0.00000000000E+00 0. -1.
          1   -1    0    0  504    0 -0.00000000000E+00 -0.00000000000E+00 -0.97892552302E+03  0.97892552302E+03  0.00000000000E+00 0. -1.
         21    1    1    2  503  505 -0.14888045713E+02  0.86495055093E+02  0.30272366849E+03  0.31518989185E+03  0.00000000000E+00 0. -1.
         21    1    1    2  504  502 -0.41947631438E+01  0.39038106547E+02  0.11927059713E+02  0.41034431323E+02  0.00000000000E+00 0. -1.
         21    1    1    2  505  501  0.29184743478E+02 -0.19325021235E+03 -0.24323520292E+03  0.31202685423E+03  0.00000000000E+00 0. -1.
          1    1    1    2  501    0 -0.10101934622E+02  0.67717050707E+02 -0.67878558270E+03  0.68222981122E+03  0.00000000000E+00 0. -1.
<scales pt_clust_3="14000.00000" pt_clust_4="39.26283" pt_clust_5="129.14988" pt_clust_6="68.66218"></scales>
<clustering>
<clus scale="   39.263">  1  4  2 -1</clus>
<clus scale="   68.662">  2  6  1 -1</clus>
<clus scale="  129.150">  2  5  1 -1</clus>
<clus scale="   39.263">  1  3  2 -1</clus>
</clustering>
</event>
<event>
 6    0  0.2572175E+002  0.1156162E+03  0.7546771E-02  0.1250509E+00
         -3   -1    0    0    0  501 -0.00000000000E+00  0.00000000000E+00  0.14368655964E+04  0.14368655964E+04  0.00000000000E+00 0. -1.
         21   -1    0    0  504  502  0.00000000000E+00 -0.00000000000E+00 -0.57777011976E+02  0.57777011976E+02  0.00000000000E+00 0. -1.
         21    1    1    2  503  502 -0.12542693144E+03  0.26836454172E+02  0.32575092318E+02  0.13233762519E+03  0.00000000000E+00 0. -1.
         21    1    1    2  504  505  0.80497157474E+02  0.18324810694E+02  0.25062554410E+03  0.26387261018E+03  0.00000000000E+00 0. -1.
         21    1    1    2  505  501  0.29458810482E+02 -0.13599182795E+02  0.29610177208E+03  0.29787416591E+03  0.00000000000E+00 0. -1.
         -3    1    1    2    0  503  0.15470963482E+02 -0.31562082071E+02  0.79978617595E+03  0.80055820711E+03  0.00000000000E+00 0. -1.
<scales pt_clust_3="14000.00000" pt_clust_4="115.61617" pt_clust_5="32.44625" pt_clust_6="54.74269"></scales>
<clustering>
<clus scale="   32.446">  1  5  2 -1</clus>
<clus scale="   54.743">  1  6  2 -1</clus>
<clus scale="  115.616">  1  4  2 -1</clus>
<clus scale="  115.616">  2  3  1 -1</clus>
</clustering>
</event>
<event>
 6    0  0.2572175E+002  0.2594943E+03  0.7546771E-02  0.1107447E+00
          2   -1    0    0  503    0 -0.00000000000E+00  0.00000000000E+00  0.18429013390E+04  0.18429013390E+04  0.00000000000E+00 0. -1.
         21   -1    0    0  501  502  0.00000000000E+00 -0.00000000000E+00 -0.51810071306E+03  0.51810071306E+03  0.00000000000E+00 0. -1.
         21    1    1    2  503  504  0.29892670577E+02 -0.13631247131E+03 -0.25938752451E+02  0.14194182072E+03  0.00000000000E+00 0. -1.
         21    1    1    2  504  505 -0.30944669754E+02 -0.52034579067E+02 -0.11433827838E+02  0.61610895334E+02  0.00000000000E+00 0. -1.
         21    1    1    2  505  502  0.12980443514E+02  0.29019579289E+03 -0.34283921890E+03  0.44935600602E+03  0.00000000000E+00 0. -1.
          2    1    1    2  501    0 -0.11928444337E+02 -0.10184874251E+03  0.17050124252E+04  0.17080933300E+04  0.00000000000E+00 0. -1.
<scales pt_clust_3="44.48355" pt_clust_4="44.48355" pt_clust_5="250.55138" pt_clust_6="102.54489"></scales>
<clustering>
<clus scale="   44.484">  3  4 -1 -1</clus>
<clus scale="  102.545">  1  6  2 -1</clus>
<clus scale="  250.551">  2  5  1 -1</clus>
<clus scale="  250.551">  2  3  1 -1</clus>
</clustering>
</event>
<event>
 6    0  0.2572175E+002  0.6253783E+02  0.7546771E-02  0.1387480E+00
         21   -1    0    0  504  502  0.00000000000E+00  0.00000000000E+00  0.15081240714E+04  0.15081240714E+04  0.00000000000E+00 0.  1.
          4   -1    0    0  505    0 -0.00000000000E+00 -0.00000000000E+00 -0.12548471132E+03  0.12548471132E+03  0.00000000000E+00 0. -1.
         21    1    1    2  503  502 -0.59688441287E+02 -0.79942785929E+02  0.20982301762E+03  0.23233436631E+03  0.00000000000E+00 0.  1.
         21    1    1    2  504  501  0.45625565450E+02  0.39397453154E+02  0.12551444171E+04  0.12565911663E+04  0.00000000000E+00 0.  1.
         21    1    1    2  505  503 -0.42415788885E+02  0.84469694807E+01 -0.47667388768E+01  0.43510599165E+02  0.00000000000E+00 0.  1.
          4    1    1    2  501    0  0.56478664722E+02  0.32098363294E+02 -0.77561335739E+02  0.10117265093E+03  0.00000000000E+00 0. -1.
<scales pt_clust_3="14000.00000" pt_clust_4="62.53783" pt_clust_5="43.24870" pt_clust_6="43.90748"></scales>
<clustering>
<clus scale="   43.249">  2  5  1 -1</clus>
<clus scale="   43.907">  2  6  1 -1</clus>
<clus scale="   62.538">  1  4  2 -1</clus>
<clus scale="   62.538">  1  3  2 -1</clus>
</clustering>
</event>
<event>
 6    0  0.2572175E+002  0.2192911E+03  0.7546771E-02  0.1134413E+00
         21   -1    0    0  504  502  0.00000000000E+00  0.00000000000E+00  0.29219256822E+03  0.29219256822E+03  0.00000000000E+00 0.  1.
          2   -1    0    0  505    0 -0.00000000000E+00 -0.00000000000E+00 -0.25754332519E+03  0.25754332519E+03  0.00000000000E+00 0.  1.
         21    1    1    2  503  501  0.27194665468E+02  0.33148623763E+02  0.31858670359E+02  0.53416813499E+02  0.00000000000E+00 0.  1.
         21    1    1    2  504  503 -0.48919654542E+02  0.14980013302E+03  0.11764213465E+03  0.19665422522E+03  0.00000000000E+00 0.  1.
         21    1    1    2  505  502 -0.44757085710E+02  0.17749518060E+02  0.16340744565E+02  0.50845472223E+02  0.00000000000E+00 0.  1.
          2    1    1    2  501    0  0.66482074784E+02 -0.20069827484E+03 -0.13119230654E+03  0.24881938246E+03  0.00000000000E+00 0.  1.
<scales pt_clust_3="41.21362" pt_clust_4="41.21362" pt_clust_5="48.14813" pt_clust_6="204.56236"></scales>
<clustering>
<clus scale="   41.214">  3  4 -1 -1</clus>
<clus scale="   48.148">  1  5  2 -1</clus>
<clus scale="  204.562">  2  6  1 -1</clus>
<clus scale="   48.148">  1  3  2 -1</clus>
</clustering>
</event>
<event>
 6    0  0.2572175E+002  0.1036901E+03  0.7546771E-02  0.1272722E+00
          1   -1    0    0  503    0 -0.00000000000E+00  0.00000000000E+00  0.11813731640E+03  0.11813731640E+03  0.00000000000E+00 0.  1.
         21   -1    0    0  501  502  0.00000000000E+00 -0.00000000000E+00 -0.81007726328E+03  0.81007726328E+03  0.00000000000E+00 0. -1.
         21    1    1    2  503  504 -0.45334850670E+02 -0.90672011307E+02  0.71939637972E+02  0.12430596861E+03  0.00000000000E+00 0.  1.
         21    1    1    2  504  505  0.17270430144E+02  0.47664510916E+02 -0.31302515686E+03  0.31710396117E+03  0.00000000000E+00 0. -1.
         21    1    1    2  505  502 -0.22172602518E+02  0.47225757673E+02 -0.42848726925E+03  0.43165175361E+03  0.00000000000E+00 0. -1.
          1    1    1    2  501    0  0.50237023044E+02 -0.42182572830E+01 -0.22367158739E+02  0.55152896288E+02  0.00000000000E+00 0.  1.
<scales pt_clust_3="94.79128" pt_clust_4="41.42844" pt_clust_5="41.42844" pt_clust_6="50.41381"></scales>
<clustering>
<clus scale="   41.428">  4  5 -1 -1</clus>
<clus scale="   50.414">  1  6  2 -1</clus>
<clus scale="   94.791">  1  3  2 -1</clus>
<clus scale="  103.690">  2  3  1 -1</clus>
</clustering>
</event>
<event>
 6    0  0.2572175E+002  0.6948558E+02  0.7546771E-02  0.1361851E+00
          1   -1    0    0  503    0 -0.00000000000E+00  0.00000000000E+00  0.29509725608E+03  0.29509725608E+03  0.00000000000E+00 0.  1.
         21   -1    0    0  505  502  0.00000000000E+00 -0.00000000000E+00 -0.12375975116E+04  0.12375975116E+04  0.00000000000E+00 0. -1.
         21    1    1    2  503  504 -0.36150741377E+02  0.70247799214E+02 -0.11367816149E+03  0.13843537769E+03  0.00000000000E+00 0.  1.
         21    1    1    2  504  502  0.63359448186E+02 -0.30483375110E+01 -0.87668681387E+03  0.87897865824E+03  0.00000000000E+00 0. -1.
         21    1    1    2  505  501 -0.67340298929E+02 -0.66631084670E+02 -0.22256568945E+03  0.24188820440E+03  0.00000000000E+00 0.  1.
          1    1    1    2  501    0  0.40131592120E+02 -0.56837703209E+00  0.27043040930E+03  0.27339252735E+03  0.00000000000E+00 0.  1.
<scales pt_clust_3="14000.00000" pt_clust_4="65.41527" pt_clust_5="69.48558" pt_clust_6="40.13562"></scales>
<clustering>
<clus scale="   40.136">  1  6  2 -1</clus>
<clus scale="   65.415">  2  4  1 -1</clus>
<clus scale="   69.486">  2  5  1 -1</clus>
<clus scale="   65.415">  2  3  1 -1</clus>
</clustering>
</event>
<event>
 6    0  0.2572175E+002  0.7778575E+02  0.7546771E-02  0.1335455E+00
         21   -1    0    0  504  502  0.00000000000E+00  0.00000000000E+00  0.19521935829E+02  0.19521935829E+02  0.00000000000E+00 0. -1.
          2   -1    0    0  503    0 -0.00000000000E+00 -0.00000000000E+00 -0.37093306728E+04  0.37093306728E+04  0.00000000000E+00 0.  1.
         21    1    1    2  503  502 -0.48161125369E+02  0.61976212717E+01 -0.75581246082E+02  0.89835567931E+02  0.00000000000E+00 0. -1.
         21    1    1    2  504  505  0.49176962826E+02 -0.35277251689E+02 -0.78170754843E+02  0.98861140355E+02  0.00000000000E+00 0. -1.
         21    1    1    2  505  501  0.67697670476E+02 -0.17058276407E+02 -0.86340438061E+03  0.86622230624E+03  0.00000000000E+00 0. -1.
          2    1    1    2  501    0 -0.68713507932E+02  0.46137906825E+02 -0.26726523555E+04  0.26739335941E+04  0.00000000000E+00 0.  1.
<scales pt_clust_3="48.55826" pt_clust_4="31.41518" pt_clust_5="14000.00000" pt_clust_6="77.78575"></scales>
<clustering>
<clus scale="   48.558">  1  3  2 -1</clus>
<clus scale="   31.415">  1  4  2 -1</clus>
<clus scale="   77.786">  2  6  1 -1</clus>
<clus scale="   48.558">  1  3  2 -1</clus>
</clustering>
</event>
<event>
 6    0  0.2572175E+002  0.8205431E+02  0.7546771E-02  0.1323321E+00
         21   -1    0    0  504  502  0.00000000000E+00  0.00000000000E+00  0.32935436315E+03  0.32935436315E+03  0.00000000000E+00 0. -1.
          2   -1    0    0  503    0 -0.00000000000E+00 -0.00000000000E+00 -0.14386890696E+04  0.14386890696E+04  0.00000000000E+00 0. -1.
         21    1    1    2  503  505 -0.63363049833E+02 -0.34856937152E+01 -0.66635163477E+02  0.92017776307E+02  0.00000000000E+00 0. -1.
         21    1    1    2  504  501  0.16391774161E+02  0.85344609123E+02  0.24105659098E+03  0.25624338552E+03  0.00000000000E+00 0. -1.
         21    1    1    2  505  502  0.12760022853E+02 -0.71998981379E+02  0.48053067287E+02  0.87497250120E+02  0.00000000000E+00 0. -1.
          2    1    1    2  501    0  0.34211252819E+02 -0.98599340290E+01 -0.13318092012E+04  0.13322850208E+04  0.00000000000E+00 0. -1.
<scales pt_clust_3="39.42844" pt_clust_4="82.05431" pt_clust_5="14000.00000" pt_clust_6="35.60377"></scales>
<clustering>
<clus scale="   35.604">  2  6  1 -1</clus>
<clus scale="   39.428">  2  3  1 -1</clus>
<clus scale="   82.054">  1  4  2 -1</clus>
<clus scale="   82.054">  1  3  2 -1</clus>
</clustering>
</event>
<event>
 6    0  0.2572175E+002  0.6570925E+02  0.7546771E-02  0.1375323E+00
         21   -1    0    0  504  502  0.00000000000E+00  0.00000000000E+00  0.11951313873E+03  0.11951313873E+03  0.00000000000E+00 0.  1.
          1   -1    0    0  503    0 -0.00000000000E+00 -0.00000000000E+00 -0.20622446107E+04  0.20622446107E+04  0.00000000000E+00 0. -1.
         21    1    1    2  503  502 -0.30270329907E+02  0.28146804838E+02  0.89853938664E+00  0.41344199936E+02  0.00000000000E+00 0.  1.
         21    1    1    2  504  505  0.78068399839E+02  0.10784396259E+02  0.75838876428E+02  0.10937327568E+03  0.00000000000E+00 0.  1.
         21    1    1    2  505  501 -0.98386031140E+02 -0.13927256218E+00 -0.46643183801E+03  0.47669538495E+03  0.00000000000E+00 0.  1.
          1    1    1    2  501    0  0.50587961208E+02 -0.38791928535E+02 -0.15530370498E+04  0.15543448889E+04  0.00000000000E+00 0. -1.
<scales pt_clust_3="41.33443" pt_clust_4="62.02814" pt_clust_5="65.70925" pt_clust_6="14000.00000"></scales>
<clustering>
<clus scale="   41.334">  1  3  2 -1</clus>
<clus scale="   62.028">  1  4  2 -1</clus>
<clus scale="   65.709">  1  5  2 -1</clus>
<clus scale="   41.334">  1  3  2 -1</clus>
</clustering>
</event>
<event>
 6    0  0.2572175E+002  0.7976067E+02  0.7546771E-02  0.1329732E+00
          1   -1    0    0  505    0 -0.00000000000E+00  0.00000000000E+00  0.35180044636E+03  0.35180044636E+03  0.00000000000E+00 0.  1.
         21   -1    0    0  504  502  0.00000000000E+00 -0.00000000000E+00 -0.77977329951E+03  0.77977329951E+03  0.00000000000E+00 0.  1.
         21    1    1    2  503  502  0.45063135589E+02  0.13100283777E+02 -0.38920855406E+02  0.60968324642E+02  0.00000000000E+00 0.  1.
         21    1    1    2  504  501  0.45559200018E+02  0.17066973911E+02 -0.14187183787E+03  0.14998180118E+03  0.00000000000E+00 0.  1.
         21    1    1    2  505  503 -0.13644276729E+03 -0.53477403031E+02 -0.57265727816E+03  0.59111151199E+03  0.00000000000E+00 0.  1.
          1    1    1    2  501    0  0.45820431687E+02  0.23310145342E+02  0.32547711828E+03  0.32951210806E+03  0.00000000000E+00 0.  1.
<scales pt_clust_3="46.92871" pt_clust_4="14000.00000" pt_clust_5="79.76067" pt_clust_6="51.53635"></scales>
<clustering>
<clus scale="   46.929">  2  3  1 -1</clus>
<clus scale="   51.536">  1  6  2 -1</clus>
<clus scale="   79.761">  2  5  1 -1</clus>
<clus scale="   46.929">  2  3  1 -1</clus>
</clustering>
</event>
<event>
 6    0  0.2572175E+002  0.9436951E+02  0.7546771E-02  0.1292602E+00
         21   -1    0    0  505  502  0.00000000000E+00  0.00000000000E+00  0.91476773183E+02  0.91476773183E+02  0.00000000000E+00 0.  1.
          2   -1    0    0  504    0 -0.00000000000E+00 -0.00000000000E+00 -0.71354652325E+03  0.71354652325E+03  0.00000000000E+00 0. -1.
         21    1    1    2  503  502 -0.16202763972E+02 -0.50657505021E+02 -0.20802251832E+02  0.57109071579E+02  0.00000000000E+00 0. -1.
         21    1    1    2  504  503 -0.41042361394E+02  0.41518179987E+02 -0.15309622666E+03  0.16384959358E+03  0.00000000000E+00 0. -1.
         21    1    1    2  505  501 -0.46707354295E+02 -0.29755484430E+02  0.49432414894E+02  0.74232940404E+02  0.00000000000E+00 0.  1.
          2    1    1    2  501    0  0.10395247966E+03  0.38894809464E+02 -0.49760368646E+03  0.50983169087E+03  0.00000000000E+00 0. -1.
<scales pt_clust_3="53.18564" pt_clust_4="56.67911" pt_clust_5="14000.00000" pt_clust_6="94.36951"></scales>
<clustering>
<clus scale="   53.186">  1  3  2 -1</clus>
<clus scale="   56.679">  2  4  1 -1</clus>
<clus scale="   94.370">  2  6  1 -1</clus>
<clus scale="   53.186">  1  3  2 -1</clus>
</clustering>
</event>
<event>
 6    0  0.2572175E+002  0.1194962E+03  0.7546771E-02  0.1243930E+00
         21   -1    0    0  504  502  0.00000000000E+00  0.00000000000E+00  0.37630261700E+03  0.37630261700E+03  0.00000000000E+00 0. -1.
         -3   -1    0    0    0  501 -0.00000000000E+00 -0.00000000000E+00 -0.17706595327E+03  0.17706595327E+03  0.00000000000E+00 0.  1.
         21    1    1    2  503  505 -0.74481823145E+02 -0.51580706892E+02 -0.48601623857E+02  0.10281161969E+03  0.00000000000E+00 0.  1.
         21    1    1    2  504  501  0.55303102970E+02  0.10772429917E+02  0.28907893261E+03  0.29451843359E+03  0.00000000000E+00 0. -1.
         21    1    1    2  505  502  0.36777915464E+02  0.75985406530E+02  0.16654921190E+02  0.86045240840E+02  0.00000000000E+00 0. -1.
         -3    1    1    2    0  503 -0.17599195289E+02 -0.35177129554E+02 -0.57895566210E+02  0.69993276143E+02  0.00000000000E+00 0.  1.
<scales pt_clust_3="33.03769" pt_clust_4="56.34251" pt_clust_5="108.46796" pt_clust_6="33.03769"></scales>
<clustering>
<clus scale="   33.038">  3  6 -1 -1</clus>
<clus scale="   56.343">  1  4  2 -1</clus>
<clus scale="  108.468">  1  5  2 -1</clus>
<clus scale="   56.343">  1  3  2 -1</clus>
</clustering>
</event>
<event>
 6    0  0.2572175E+002  0.1192167E+03  0.7546771E-02  0.1244395E+00
          4   -1    0    0  505    0 -0.00000000000E+00  0.00000000000E+00  0.12947769567E+03  0.12947769567E+03  0.00000000000E+00 0.  1.
         21   -1    0    0  504  502  0.00000000000E+00 -0.00000000000E+00 -0.76116975231E+03  0.76116975231E+03  0.00000000000E+00 0.  1.
         21    1    1    2  503  501 -0.69785277825E+02 -0.54882043494E+02 -0.59588288496E+03  0.60246031926E+03  0.00000000000E+00 0.  1.
         21    1    1    2  504  503 -0.86888536711E+00 -0.43591009898E+02 -0.94657841995E+02  0.10421630466E+03  0.00000000000E+00 0.  1.
         21    1    1    2  505  502 -0.35253249445E+02  0.11084151291E+02  0.10818433042E+02  0.38505694381E+02  0.00000000000E+00 0.  1.
          4    1    1    2  501    0  0.10590741264E+03  0.87388902101E+02  0.48030237267E+02  0.14546512968E+03  0.00000000000E+00 0.  1.
<scales pt_clust_3="14000.00000" pt_clust_4="43.15671" pt_clust_5="36.95470" pt_clust_6="119.21672"></scales>
<clustering>
<clus scale="   36.955">  1  5  2 -1</clus>
<clus scale="   43.157">  2  4  1 -1</clus>
<clus scale="  119.217">  1  6  2 -1</clus>
<clus scale="   43.157">  2  3  1 -1</clus>
</clustering>
</event>
<event>
 6    0  0.2572175E+002  0.1563721E+03  0.7546771E-02  0.1192855E+00
         21   -1    0    0  504  502  0.00000000000E+00  0.00000000000E+00  0.10146799149E+03  0.10146799149E+03  0.00000000000E+00 0. -1.
         -1   -1    0    0    0  501 -0.00000000000E+00 -0.00000000000E+00 -0.77506969041E+03  0.77506969041E+03  0.00000000000E+00 0. -1.
         21    1    1    2  503  505 -0.54821307659E+02 -0.82538496188E+01 -0.28009313626E+02  0.62112989437E+02  0.00000000000E+00 0. -1.
         21    1    1    2  504  503 -0.81996209249E+02 -0.15955067769E+02  0.38003790349E+02  0.91772711629E+02  0.00000000000E+00 0. -1.
         21    1    1    2  505  501 -0.23060059441E+02  0.30991967793E+02 -0.35570600490E+03  0.35779747110E+03  0.00000000000E+00 0. -1.
         -1    1    1    2    0  502  0.15987757635E+03 -0.67830504047E+01 -0.32789017075E+03  0.36485450973E+03  0.00000000000E+00 0. -1.
<scales pt_clust_3="53.90390" pt_clust_4="53.90390" pt_clust_5="38.62989" pt_clust_6="142.04372"></scales>
<clustering>
<clus scale="   38.630">  2  5  1 -1</clus>
<clus scale="   53.904">  3  4 -1 -1</clus>
<clus scale="  142.044">  2  6  1 -1</clus>
<clus scale="  156.372">  1  3  2 -1</clus>
</clustering>
</event>
<event>
 6    0  0.2572175E+002  0.8897436E+02  0.7546771E-02  0.1305355E+00
          2   -1    0    0  505    0 -0.00000000000E+00  0.00000000000E+00  0.74945058766E+03  0.74945058766E+03  0.00000000000E+00 0. -1.
         21   -1    0    0  503  502  0.00000000000E+00 -0.00000000000E+00 -0.88352532280E+03  0.88352532280E+03  0.00000000000E+00 0.  1.
         21    1    1    2  503  501 -0.62056763478E+02 -0.13909204693E+02 -0.22053730936E+03  0.22952388261E+03  0.00000000000E+00 0.  1.
         21    1    1    2  504  502  0.22958803944E+02  0.39435663282E+02 -0.64155564680E+03  0.64317643470E+03  0.00000000000E+00 0.  1.
         21    1    1    2  505  504 -0.58427909190E+02 -0.24667089846E+02  0.67594607094E+02  0.92689356465E+02  0.00000000000E+00 0.  1.
          2    1    1    2  501    0  0.97525868723E+02 -0.85936874306E+00  0.66042361393E+03  0.66758623669E+03  0.00000000000E+00 0. -1.
<scales pt_clust_3="46.63671" pt_clust_4="45.63199" pt_clust_5="14000.00000" pt_clust_6="88.97436"></scales>
<clustering>
<clus scale="   45.632">  2  4  1 -1</clus>
<clus scale="   46.637">  2  3  1 -1</clus>
<clus scale="   88.974">  1  6  2 -1</clus>
<clus scale="   45.632">  2  3  1 -1</clus>
</clustering>
</event>
<event>
 6    0  0.2572175E+002  0.1286181E+03  0.7546771E-02  0.1229521E+00
          2   -1    0    0  504    0 -0.00000000000E+00  0.00000000000E+00  0.25330148900E+04  0.25330148900E+04  0.00000000000E+00 0. -1.
         21   -1    0    0  503  502  0.00000000000E+00 -0.00000000000E+00 -0.97780644973E+03  0.97780644973E+03  0.00000000000E+00 0.  1.
         21    1    1    2  503  501  0.93379490529E+02 -0.70800564215E+02  0.42539503010E+03  0.44124072883E+03  0.00000000000E+00 0.  1.
         21    1    1    2  504  505 -0.70868232162E+02  0.53289396652E+02 -0.46776736195E+03  0.47609701851E+03  0.00000000000E+00 0.  1.
         21    1    1    2  505  502 -0.51741877479E+02 -0.10501370503E+02 -0.49635569422E+03  0.49915576311E+03  0.00000000000E+00 0.  1.
          2    1    1    2  501    0  0.29230619112E+02  0.28012538066E+02  0.20939364663E+04  0.20943278292E+04  0.00000000000E+00 0. -1.
<scales pt_clust_3="14000.00000" pt_clust_4="128.61808" pt_clust_5="52.68768" pt_clust_6="40.48619"></scales>
<clustering>
<clus scale="   40.486">  1  6  2 -1</clus>
<clus scale="   52.688">  2  5  1 -1</clus>
<clus scale="  128.618">  2  4  1 -1</clus>
<clus scale="   52.688">  2  3  1 -1</clus>
</clustering>
</event>
<event>
 6    0  0.2572175E+002  0.9926996E+02  0.7546771E-02  0.1281839E+00
         21   -1    0    0  505  502  0.00000000000E+00  0.00000000000E+00  0.79794050621E+03  0.79794050621E+03  0.00000000000E+00 0.  1.
          2   -1    0    0  504    0 -0.00000000000E+00 -0.00000000000E+00 -0.56935783223E+03  0.56935783223E+03  0.00000000000E+00 0.  1.
         21    1    1    2  503  501 -0.99191119405E+02 -0.91530650630E+02  0.63107432919E+02  0.14899424909E+03  0.00000000000E+00 0.  1.
         21    1    1    2  504  502 -0.66449009485E+01  0.48505213065E+02  0.14132322797E+03  0.14956324805E+03  0.00000000000E+00 0.  1.
         21    1    1    2  505  503  0.68065418656E+02  0.28250197897E+02  0.54316702140E+03  0.54814358341E+03  0.00000000000E+00 0.  1.
          2    1    1    2  501    0  0.37770601698E+02  0.14775239669E+02 -0.51901500832E+03  0.52059725789E+03  0.00000000000E+00 0.  1.
<scales pt_clust_3="99.26996" pt_clust_4="49.85703" pt_clust_5="14000.00000" pt_clust_6="40.55769"></scales>
<clustering>
<clus scale="   40.558">  2  6  1 -1</clus>
<clus scale="   49.857">  1  4  2 -1</clus>
<clus scale="   99.270">  2  3  1 -1</clus>
<clus scale="   49.857">  1  3  2 -1</clus>
</clustering>
</event>
<event>
 6    0  0.2572175E+002  0.9595992E+02  0.7546771E-02  0.1289029E+00
         -3   -1    0    0    0  501 -0.00000000000E+00  0.00000000000E+00  0.38892602528E+03  0.38892602528E+03  0.00000000000E+00 0.  1.
         21   -1    0    0  505  502  0.00000000000E+00 -0.00000000000E+00 -0.16320014721E+03  0.16320014721E+03  0.00000000000E+00 0.  1.
         21    1    1    2  503  504  0.56611598286E+02  0.48316792658E+02  0.31647330528E+01  0.74494302122E+02  0.00000000000E+00 0.  1.
         21    1    1    2  504  501 -0.48729104326E+02 -0.12221053733E+03  0.13234775072E+02  0.13223123804E+03  0.00000000000E+00 0.  1.
         21    1    1    2  505  503  0.36815901565E+02  0.80519631657E+01 -0.56501345346E+02  0.67916468878E+02  0.00000000000E+00 0.  1.
         -3    1    1    2    0  502 -0.44698395526E+02  0.65841781503E+02  0.26582771529E+03  0.27748416346E+03  0.00000000000E+00 0.  1.
<scales pt_clust_3="95.95992" pt_clust_4="14000.00000" pt_clust_5="37.68613" pt_clust_6="78.79766"></scales>
<clustering>
<clus scale="   37.686">  2  5  1 -1</clus>
<clus scale="   78.798">  1  6  2 -1</clus>
<clus scale="   95.960">  2  3  1 -1</clus>
<clus scale="   37.686">  2  3  1 -1</clus>
</clustering>
</event>
<event>
 6    0  0.2572175E+002  0.2002636E+03  0.7546771E-02  0.1149517E+00
          1   -1    0    0  505    0 -0.00000000000E+00  0.00000000000E+00  0.12439788730E+03  0.12439788730E+03  0.00000000000E+00 0.  1.
         21   -1    0    0  504  502  0.00000000000E+00 -0.00000000000E+00 -0.13860489738E+04  0.13860489738E+04  0.00000000000E+00 0.  1.
         21    1    1    2  503  502 -0.40007988849E+01 -0.14639660928E+03 -0.14119955073E+03  0.20343374038E+03  0.00000000000E+00 0.  1.
         21    1    1    2  504  501  0.13149673542E+03  0.18584244394E+03 -0.11128419440E+04  0.11358899584E+04  0.00000000000E+00 0.  1.
         21    1    1    2  505  503 -0.98675541256E+02 -0.26114912892E+02 -0.53557472831E+02  0.11527035184E+03  0.00000000000E+00 0.  1.
          1    1    1    2  501    0 -0.28820395282E+02 -0.13330921766E+02  0.45947881050E+02  0.55852810425E+02  0.00000000000E+00 0.  1.
<scales pt_clust_3="14000.00000" pt_clust_4="200.26365" pt_clust_5="115.22487" pt_clust_6="31.75419"></scales>
<clustering>
<clus scale="   31.754">  1  6  2 -1</clus>
<clus scale="  115.225">  1  5  2 -1</clus>
<clus scale="  200.264">  2  4  1 -1</clus>
<clus scale="  200.264">  2  3  1 -1</clus>
</clustering>
</event>
<event>
 6    0  0.2572175E+002  0.7683519E+02  0.7546771E-02  0.1338280E+00
          2   -1    0    0  505    0 -0.00000000000E+00  0.00000000000E+00  0.13462135733E+04  0.13462135733E+04  0.00000000000E+00 0. -1.
         21   -1    0    0  504  502  0.00000000000E+00 -0.00000000000E+00 -0.96321211019E+02  0.96321211019E+02  0.00000000000E+00 0. -1.
         21    1    1    2  503  501 -0.66074896623E+02  0.60957846898E+02  0.69698352229E+00  0.89901261661E+02  0.00000000000E+00 0. -1.
         21    1    1    2  504  503  0.11100298217E+02  0.55616162042E+02 -0.71893802608E+01  0.57166959770E+02  0.00000000000E+00 0. -1.
         21    1    1    2  505  502  0.25532969343E+02 -0.45749045823E+02  0.19036191644E+02  0.55743020276E+02  0.00000000000E+00 0. -1.
          2    1    1    2  501    0  0.29441629063E+02 -0.70824963117E+02  0.12373485674E+04  0.12397235426E+04  0.00000000000E+00 0. -1.
<scales pt_clust_3="14000.00000" pt_clust_4="42.63410" pt_clust_5="52.39187" pt_clust_6="76.83519"></scales>
<clustering>
<clus scale="   52.392">  2  5  1 -1</clus>
<clus scale="   42.634">  2  4  1 -1</clus>
<clus scale="   76.835">  1  6  2 -1</clus>
<clus scale="   52.392">  2  3  1 -1</clus>
</clustering>
</event>
<event>
 6    0  0.2572175E+002  0.1928450E+03  0.7546771E-02  0.1155920E+00
         21   -1    0    0  505  502  0.00000000000E+00  0.00000000000E+00  0.92567435498E+03  0.92567435498E+03  0.00000000000E+00 0.  1.
          1   -1    0    0  503    0 -0.00000000000E+00 -0.00000000000E+00 -0.29020197182E+03  0.29020197182E+03  0.00000000000E+00 0.  1.
         21    1    1    2  503  502  0.56577852466E+02 -0.15750385963E+03  0.23148597664E+03  0.28564711895E+03  0.00000000000E+00 0. -1.
         21    1    1    2  504  501 -0.51688060613E+02  0.99321145620E+02  0.35178220169E+03  0.36917077756E+03  0.00000000000E+00 0.  1.
         21    1    1    2  505  504 -0.13611140248E+02  0.92884407074E+02  0.29812098319E+03  0.31255223057E+03  0.00000000000E+00 0.  1.
          1    1    1    2  501    0  0.87213483956E+01 -0.34701693067E+02 -0.24591677836E+03  0.24850619972E+03  0.00000000000E+00 0.  1.
<scales pt_clust_3="189.79996" pt_clust_4="31.25549" pt_clust_5="31.25549" pt_clust_6="35.78085"></scales>
<clustering>
<clus scale="   31.255">  4  5 -1 -1</clus>
<clus scale="   35.781">  2  6  1 -1</clus>
<clus scale="  189.800">  2  3  1 -1</clus>
<clus scale="  192.845">  1  3  2 -1</clus>
</clustering>
</event>
<event>
 6    0  0.2572175E+002  0.1624857E+03  0.7546771E-02  0.1185919E+00
         21   -1    0    0  505  502  0.00000000000E+00  0.00000000000E+00  0.62616250875E+03  0.62616250875E+03  0.00000000000E+00 0. -1.
          1   -1    0    0  503    0 -0.00000000000E+00 -0.00000000000E+00 -0.33143646817E+03  0.33143646817E+03  0.00000000000E+00 0. -1.
         21    1    1    2  503  504  0.61420961252E+02 -0.56620555898E+02  0.45925937134E+02  0.95328975306E+02  0.00000000000E+00 0. -1.
         21    1    1    2  504  502 -0.66235571445E+02  0.37249513163E+02  0.13153144759E+03  0.15190522986E+03  0.00000000000E+00 0. -1.
         21    1    1    2  505  501  0.84972537011E+02 -0.12291618688E+03  0.37588629437E+03  0.40449873589E+03  0.00000000000E+00 0. -1.
          1    1    1    2  501    0 -0.80157926818E+02  0.14228722962E+03 -0.25861763851E+03  0.30586603586E+03  0.00000000000E+00 0. -1.
<scales pt_clust_3="72.80086" pt_clust_4="75.99130" pt_clust_5="162.48572" pt_clust_6="14000.00000"></scales>
<clustering>
<clus scale="   75.991">  1  4  2 -1</clus>
<clus scale="   72.801">  1  3  2 -1</clus>
<clus scale="  162.486">  1  5  2 -1</clus>
<clus scale="   75.991">  1  3  2 -1</clus>
</clustering>
</event>
<event>
 6    0  0.2572175E+002  0.1853539E+03  0.7546771E-02  0.1162720E+00
          2   -1    0    0  503    0 -0.00000000000E+00  0.00000000000E+00  0.12331202716E+04  0.12331202716E+04  0.00000000000E+00 0. -1.
         21   -1    0    0  504  502  0.00000000000E+00 -0.00000000000E+00 -0.30738574094E+03  0.30738574094E+03  0.00000000000E+00 0.  1.
         21    1    1    2  503  502  0.10797024633E+03  0.10313759701E+03 -0.14098231600E+03  0.20535567057E+03  0.00000000000E+00 0.  1.
         21    1    1    2  504  505 -0.24241683785E+02 -0.61109847976E+02 -0.89433380532E+02  0.11099730765E+03  0.00000000000E+00 0.  1.
         21    1    1    2  505  501  0.19828983727E+01  0.14855827936E+03  0.22348695650E+03  0.26836526224E+03  0.00000000000E+00 0.  1.
          2    1    1    2  501    0 -0.85711460918E+02 -0.19058602839E+03  0.93266327069E+03  0.95578777207E+03  0.00000000000E+00 0. -1.
<scales pt_clust_3="101.99269" pt_clust_4="65.74247" pt_clust_5="185.35389" pt_clust_6="14000.00000"></scales>
<clustering>
<clus scale="   65.742">  2  4  1 -1</clus>
<clus scale="  101.993">  2  3  1 -1</clus>
<clus scale="  185.354">  2  5  1 -1</clus>
<clus scale="   65.742">  2  3  1 -1</clus>
</clustering>
</event>
<event>
 6    0  0.2572175E+002  0.9152570E+02  0.7546771E-02  0.1299199E+00
         21   -1    0    0  504  502  0.00000000000E+00  0.00000000000E+00  0.17434865516E+03  0.17434865516E+03  0.00000000000E+00 0. -1.
         -1   -1    0    0    0  501 -0.00000000000E+00 -0.00000000000E+00 -0.41267148281E+03  0.41267148281E+03  0.00000000000E+00 0.  1.
         21    1    1    2  503  505 -0.45669346261E+02 -0.54866381388E+02 -0.24120757410E+02  0.75351310092E+02  0.00000000000E+00 0. -1.
         21    1    1    2  504  501  0.11174367929E+03  0.34959333104E+02  0.98795308940E+02  0.15319699051E+03  0.00000000000E+00 0. -1.
         21    1    1    2  505  502 -0.26683628152E+02  0.23222384854E+02  0.69852362390E+01  0.36056742712E+02  0.00000000000E+00 0.  1.
         -1    1    1    2    0  503 -0.39390704881E+02 -0.33153365696E+01 -0.31998261542E+03  0.32241509465E+03  0.00000000000E+00 0.  1.
<scales pt_clust_3="91.52570" pt_clust_4="14000.00000" pt_clust_5="35.37365" pt_clust_6="39.72660"></scales>
<clustering>
<clus scale="   35.374">  1  5  2 -1</clus>
<clus scale="   39.727">  2  6  1 -1</clus>
<clus scale="   91.526">  2  3  1 -1</clus>
<clus scale="   35.374">  1  3  2 -1</clus>
</clustering>
</event>
<event>
 6    0  0.3120795E+002  0.1227490E+03  0.7546771E-02  0.1238630E+00
          1   -1    0    0  502    0 -0.00000000000E+00  0.00000000000E+00  0.24408223558E+04  0.24408223558E+04  0.00000000000E+00 0.  1.
         21   -1    0    0  505  502  0.00000000000E+00 -0.00000000000E+00 -0.13531858574E+03  0.13531858574E+03  0.00000000000E+00 0.  1.
         21    1    1    2  503  501 -0.85163171408E+02  0.78449806511E+02  0.11031179237E+03  0.15992444917E+03  0.00000000000E+00 0.  1.
         21    1    1    2  504  503  0.15496081678E+03  0.14905690836E+02 -0.45180924640E+02  0.16209981588E+03  0.00000000000E+00 0.  1.
         21    1    1    2  505  504 -0.24397558848E+02 -0.19598342778E+02  0.34634485595E+02  0.46678512292E+02  0.00000000000E+00 0.  1.
          1    1    1    2  501    0 -0.45400086529E+02 -0.73757154568E+02  0.22057384167E+04  0.22074381642E+04  0.00000000000E+00 0.  1.
<scales pt_clust_3="122.74898" pt_clust_4="14000.00000" pt_clust_5="31.29434" pt_clust_6="86.80376"></scales>
<clustering>
<clus scale="   31.294">  2  5  1 -1</clus>
<clus scale="   86.804">  1  6  2 -1</clus>
<clus scale="  122.749">  1  3  2 -1</clus>
<clus scale="   31.294">  2  3  1 -1</clus>
</clustering>
</event>
<event>
 6    0  0.2572175E+002  0.9287972E+02  0.7546771E-02  0.1296024E+00
         21   -1    0    0  504  502  0.00000000000E+00  0.00000000000E+00  0.26541729069E+03  0.26541729069E+03  0.00000000000E+00 0.  1.
          1   -1    0    0  503    0 -0.00000000000E+00 -0.00000000000E+00 -0.14578512546E+04  0.14578512546E+04  0.00000000000E+00 0. -1.
         21    1    1    2  503  502 -0.53114451124E+02  0.19119163649E+01  0.11239453944E+02  0.54324264076E+02  0.00000000000E+00 0.  1.
         21    1    1    2  504  505  0.72868125446E+02  0.11986965710E+02  0.15227803090E+03  0.16923962227E+03  0.00000000000E+00 0.  1.
         21    1    1    2  505  501  0.50351825330E+02  0.47810525432E+02  0.53193335482E+02  0.87468186193E+02  0.00000000000E+00 0.  1.
          1    1    1    2  501    0 -0.70105499652E+02 -0.61709407506E+02 -0.14091447843E+04  0.14122364728E+04  0.00000000000E+00 0. -1.
<scales pt_clust_3="53.14885" pt_clust_4="38.53520" pt_clust_5="14000.00000" pt_clust_6="92.87972"></scales>
<clustering>
<clus scale="   53.149">  1  3  2 -1</clus>
<clus scale="   38.535">  1  4  2 -1</clus>
<clus scale="   92.880">  2  6  1 -1</clus>
<clus scale="   53.149">  1  3  2 -1</clus>
</clustering>
</event>
<event>
 6    0  0.2572175E+002  0.1417705E+03  0.7546771E-02  0.1210966E+00
          4   -1    0    0  504    0 -0.00000000000E+00  0.00000000000E+00  0.18761714629E+03  0.18761714629E+03  0.00000000000E+00 0.  1.
         21   -1    0    0  505  502  0.00000000000E+00 -0.00000000000E+00 -0.48713053728E+03  0.48713053728E+03  0.00000000000E+00 0. -1.
         21    1    1    2  503  501  0.67572327137E+02  0.13578438336E+03 -0.30275860457E+03  0.33862396666E+03  0.00000000000E+00 0. -1.
         21    1    1    2  504  502 -0.14938675583E+03 -0.69949764086E+02  0.26631859270E+02  0.16708868377E+03  0.00000000000E+00 0.  1.
         21    1    1    2  505  503  0.36800062832E+02 -0.47891562680E+02 -0.76282544052E+02  0.97297856746E+02  0.00000000000E+00 0. -1.
          4    1    1    2  501    0  0.45014365865E+02 -0.17943056596E+02  0.52895898358E+02  0.71737176396E+02  0.00000000000E+00 0.  1.
<scales pt_clust_3="141.77054" pt_clust_4="14000.00000" pt_clust_5="63.92431" pt_clust_6="48.45871"></scales>
<clustering>
<clus scale="   48.459">  1  6  2 -1</clus>
<clus scale="   63.924">  2  5  1 -1</clus>
<clus scale="  141.771">  2  3  1 -1</clus>
<clus scale="   63.924">  2  3  1 -1</clus>
</clustering>
</event>
<event>
 6    0  0.2572175E+002  0.1915749E+03  0.7546771E-02  0.1157049E+00
          2   -1    0    0  505    0 -0.00000000000E+00  0.00000000000E+00  0.18930755209E+04  0.18930755209E+04  0.00000000000E+00 0. -1.
         21   -1    0    0  504  502  0.00000000000E+00 -0.00000000000E+00 -0.44022416090E+02  0.44022416090E+02  0.00000000000E+00 0. -1.
         21    1    1    2  503  501  0.67932851922E+01  0.59117549028E+02  0.34568361071E+03  0.35076800316E+03  0.00000000000E+00 0. -1.
         21    1    1    2  504  503  0.35083475250E+02  0.84292337645E+02  0.18410369964E+03  0.20549992857E+03  0.00000000000E+00 0. -1.
         21    1    1    2  505  502 -0.49783550546E+02 -0.18019067747E+03  0.25647938961E+03  0.31737794417E+03  0.00000000000E+00 0. -1.
          2    1    1    2  501    0  0.79067901037E+01  0.36780790797E+02  0.10627864048E+04  0.10634520610E+04  0.00000000000E+00 0. -1.
<scales pt_clust_3="69.60291" pt_clust_4="69.60291" pt_clust_5="173.95856" pt_clust_6="37.62106"></scales>
<clustering>
<clus scale="   37.621">  1  6  2 -1</clus>
<clus scale="   69.603">  3  4 -1 -1</clus>
<clus scale="  173.959">  2  5  1 -1</clus>
<clus scale="  173.959">  2  3  1 -1</clus>
</clustering>
</event>
<event>
 6    0  0.2572175E+002  0.1411806E+03  0.7546771E-02  0.1211749E+00
          2   -1    0    0  504    0 -0.00000000000E+00  0.00000000000E+00  0.18187809401E+03  0.18187809401E+03  0.00000000000E+00 0.  1.
         21   -1    0    0  505  502  0.00000000000E+00 -0.00000000000E+00 -0.34631911193E+03  0.34631911193E+03  0.00000000000E+00 0.  1.
         21    1    1    2  503  501 -0.54333557329E+02 -0.18045528302E+02 -0.10155875483E+03  0.11658454969E+03  0.00000000000E+00 0.  1.
         21    1    1    2  504  502  0.16447365950E+03 -0.99824967275E+01  0.78723779346E+02  0.18261617766E+03  0.00000000000E+00 0.  1.
         21    1    1    2  505  503 -0.78643914753E+02  0.15493323953E+02 -0.16792870024E+03  0.18607782453E+03  0.00000000000E+00 0.  1.
          2    1    1    2  501    0 -0.31496187415E+02  0.12534701077E+02  0.26322657804E+02  0.42918654064E+02  0.00000000000E+00 0.  1.
<scales pt_clust_3="30.37216" pt_clust_4="136.53005" pt_clust_5="30.37216" pt_clust_6="33.89880"></scales>
<clustering>
<clus scale="   30.372">  3  5 -1 -1</clus>
<clus scale="   33.899">  1  6  2 -1</clus>
<clus scale="  136.530">  1  4  2 -1</clus>
<clus scale="  141.181">  2  3  1 -1</clus>
</clustering>
</event>
<event>
 6    0  0.2572175E+002  0.9612628E+02  0.7546771E-02  0.1288659E+00
         21   -1    0    0  504  502  0.00000000000E+00  0.00000000000E+00  0.47702747931E+03  0.47702747931E+03  0.00000000000E+00 0.  1.
          2   -1    0    0  505    0 -0.00000000000E+00 -0.00000000000E+00 -0.17731618491E+04  0.17731618491E+04  0.00000000000E+00 0.  1.
         21    1    1    2  503  501  0.47553466650E+02  0.94163818854E+01 -0.32763090618E+02  0.58510003803E+02  0.00000000000E+00 0. -1.
         21    1    1    2  504  503 -0.15256194993E+03  0.19481324144E+01  0.29717518637E+03  0.33405394053E+03  0.00000000000E+00 0.  1.
         21    1    1    2  505  502  0.70440519211E+02 -0.28940078086E+01  0.13997757127E+03  0.15672894591E+03  0.00000000000E+00 0.  1.
          2    1    1    2  501    0  0.34567964072E+02 -0.84705064912E+01 -0.17005240368E+04  0.17008964382E+04  0.00000000000E+00 0.  1.
<scales pt_clust_3="69.44749" pt_clust_4="14000.00000" pt_clust_5="96.12628" pt_clust_6="35.59064"></scales>
<clustering>
<clus scale="   35.591">  2  6  1 -1</clus>
<clus scale="   69.447">  2  3  1 -1</clus>
<clus scale="   96.126">  1  5  2 -1</clus>
<clus scale="   96.126">  1  3  2 -1</clus>
</clustering>
</event>
<event>
 6    0  0.2572175E+002  0.9232987E+02  0.7546771E-02  0.1297306E+00
          2   -1    0    0  504    0 -0.00000000000E+00  0.00000000000E+00  0.16015178696E+04  0.16015178696E+04  0.00000000000E+00 0.  1.
         21   -1    0    0  503  502  0.00000000000E+00 -0.00000000000E+00 -0.53495634884E+02  0.53495634884E+02  0.00000000000E+00 0. -1.
         21    1    1    2  503  501  0.39023653547E+02  0.24277041273E+02  0.12591572436E+01  0.45976143228E+02  0.00000000000E+00 0. -1.
         21    1    1    2  504  505  0.80822906910E+02 -0.64123356062E+02  0.96474406993E+03  0.97024495234E+03  0.00000000000E+00 0.  1.
         21    1    1    2  505  502 -0.53238253771E+02  0.71057573985E+02  0.50375339151E+02  0.10208410885E+03  0.00000000000E+00 0. -1.
          2    1    1    2  501    0 -0.66608306686E+02 -0.31211259196E+02  0.53164366836E+03  0.53670830004E+03  0.00000000000E+00 0.  1.
<scales pt_clust_3="45.95890" pt_clust_4="92.32987" pt_clust_5="14000.00000" pt_clust_6="69.84799"></scales>
<clustering>
<clus scale="   45.959">  2  3  1 -1</clus>
<clus scale="   69.848">  1  6  2 -1</clus>
<clus scale="   92.330">  1  4  2 -1</clus>
<clus scale="   45.959">  2  3  1 -1</clus>
</clustering>
</event>
<event>
 6    0  0.2572175E+002  0.9883005E+02  0.7546771E-02  0.1282776E+00
         21   -1    0    0  504  502  0.00000000000E+00  0.00000000000E+00  0.13309627280E+02  0.13309627280E+02  0.00000000000E+00 0.  1.
          1   -1    0    0  503    0 -0.00000000000E+00 -0.00000000000E+00 -0.35650782888E+04  0.35650782888E+04  0.00000000000E+00 0. -1.
         21    1    1    2  503  502  0.13274410122E+03 -0.68777504734E+01 -0.12725074985E+04  0.12794309804E+04  0.00000000000E+00 0.  1.
         21    1    1    2  504  505 -0.32163828598E+02 -0.52786594486E+01 -0.57119778837E+02  0.65765076219E+02  0.00000000000E+00 0.  1.
         21    1    1    2  505  501 -0.42168272926E+02  0.40361703277E+02 -0.16486944431E+03  0.17489758145E+03  0.00000000000E+00 0.  1.
          1    1    1    2  501    0 -0.58411999695E+02 -0.28205293355E+02 -0.20572719399E+04  0.20582942781E+04  0.00000000000E+00 0. -1.
<scales pt_clust_3="88.79280" pt_clust_4="32.42795" pt_clust_5="32.42795" pt_clust_6="64.86525"></scales>
<clustering>
<clus scale="   32.428">  4  5 -1 -1</clus>
<clus scale="   64.865">  2  6  1 -1</clus>
<clus scale="   88.793">  2  3  1 -1</clus>
<clus scale="   98.830">  1  3  2 -1</clus>
</clustering>
</event>
<event>
 6    0  0.3354369E+002  0.1142150E+03  0.7546771E-02  0.1252958E+00
         21   -1    0    0  505  502  0.00000000000E+00  0.00000000000E+00  0.22256350946E+03  0.22256350946E+03  0.00000000000E+00 0. -1.
          2   -1    0    0  503    0 -0.00000000000E+00 -0.00000000000E+00 -0.15691989802E+04  0.15691989802E+04  0.00000000000E+00 0.  1.
         21    1    1    2  503  502  0.38053309741E+01 -0.71254636156E+02 -0.74030452254E+01  0.71739171978E+02  0.00000000000E+00 0. -1.
         21    1    1    2  504  501 -0.64149124877E+01 -0.39771077091E+02  0.64470380266E+02  0.76021836382E+02  0.00000000000E+00 0. -1.
         21    1    1    2  505  504 -0.39072963016E+02  0.99647465147E+00  0.11463319324E+03  0.12111341129E+03  0.00000000000E+00 0. -1.
          2    1    1    2  501    0  0.41682544529E+02  0.11002923860E+03 -0.15183359990E+04  0.15228880700E+04  0.00000000000E+00 0.  1.
<scales pt_clust_3="14000.00000" pt_clust_4="50.93016" pt_clust_5="39.08567" pt_clust_6="114.21496"></scales>
<clustering>
<clus scale="   39.086">  1  5  2 -1</clus>
<clus scale="   50.930">  1  4  2 -1</clus>
<clus scale="  114.215">  2  6  1 -1</clus>
<clus scale="   39.086">  1  3  2 -1</clus>
</clustering>
</event>
<event>
 6    0  0.2572175E+002  0.1696550E+03  0.7546771E-02  0.1178208E+00
          2   -1    0    0  502    0 -0.00000000000E+00  0.00000000000E+00  0.72352227690E+02  0.72352227690E+02  0.00000000000E+00 0.  1.
         21   -1    0    0  505  502  0.00000000000E+00 -0.00000000000E+00 -0.18991132993E+04  0.18991132993E+04  0.00000000000E+00 0. -1.
         21    1    1    2  503  501  0.41762553619E+02 -0.13216442243E+02 -0.28852941523E+02  0.52452621144E+02  0.00000000000E+00 0.  1.
         21    1    1    2  504  503  0.25981876193E+02 -0.93963910521E+02 -0.12972396511E+03  0.16227316936E+03  0.00000000000E+00 0.  1.
         21    1    1    2  505  504 -0.87133194243E+02  0.13207623408E+03 -0.17026639192E+04  0.17100002184E+04  0.00000000000E+00 0. -1.
          2    1    1    2  501    0  0.19388764432E+02 -0.24895881317E+02  0.34479754270E+02  0.46739518047E+02  0.00000000000E+00 0.  1.
<scales pt_clust_3="48.33825" pt_clust_4="48.33825" pt_clust_5="154.59371" pt_clust_6="31.55518"></scales>
<clustering>
<clus scale="   31.555">  1  6  2 -1</clus>
<clus scale="   48.338">  3  4 -1 -1</clus>
<clus scale="  154.594">  2  5  1 -1</clus>
<clus scale="  154.594">  2  3  1 -1</clus>
</clustering>
</event>
<event>
 6    0  0.2572175E+002  0.1328284E+03  0.7546771E-02  0.1223318E+00
         -3   -1    0    0    0  501 -0.00000000000E+00  0.00000000000E+00  0.11885126676E+04  0.11885126676E+04  0.00000000000E+00 0. -1.
         21   -1    0    0  504  502  0.00000000000E+00 -0.00000000000E+00 -0.18571803209E+03  0.18571803209E+03  0.00000000000E+00 0. -1.
         21    1    1    2  503  502 -0.59329004390E+02  0.25884938762E+02 -0.71141361879E+02  0.96182400607E+02  0.00000000000E+00 0. -1.
         21    1    1    2  504  505 -0.30507506650E+02 -0.14655194055E+02 -0.81782063234E+02  0.88508691898E+02  0.00000000000E+00 0. -1.
         21    1    1    2  505  501 -0.23746773424E+02  0.10511402810E+03  0.30640580252E+03  0.32480360831E+03  0.00000000000E+00 0.  1.
         -3    1    1    2    0  503  0.11358328446E+03 -0.11634377281E+03  0.84931225813E+03  0.86473599890E+03  0.00000000000E+00 0. -1.
<scales pt_clust_3="85.80659" pt_clust_4="33.84498" pt_clust_5="14000.00000" pt_clust_6="132.82844"></scales>
<clustering>
<clus scale="   33.845">  2  4  1 -1</clus>
<clus scale="   85.807">  2  3  1 -1</clus>
<clus scale="  132.828">  1  6  2 -1</clus>
<clus scale="   33.845">  2  3  1 -1</clus>
</clustering>
</event>
<event>
 6    0  0.2572175E+002  0.1520795E+03  0.7546771E-02  0.1197941E+00
          1   -1    0    0  505    0 -0.00000000000E+00  0.00000000000E+00  0.76102559069E+03  0.76102559069E+03  0.00000000000E+00 0. -1.
         21   -1    0    0  503  502  0.00000000000E+00 -0.00000000000E+00 -0.29966736010E+03  0.29966736010E+03  0.00000000000E+00 0. -1.
         21    1    1    2  503  504 -0.12352608616E+03  0.73887056877E+02 -0.55530411856E+02  0.15427772936E+03  0.00000000000E+00 0. -1.
         21    1    1    2  504  501  0.11130209542E+02 -0.69956406380E+02  0.25557465018E+02  0.75305805727E+02  0.00000000000E+00 0. -1.
         21    1    1    2  505  502  0.16308506271E+03 -0.20996526402E+02 -0.12867920426E+03  0.20879638265E+03  0.00000000000E+00 0. -1.
          1    1    1    2  501    0 -0.50689186096E+02  0.17065875906E+02  0.62001038169E+03  0.62231303306E+03  0.00000000000E+00 0. -1.
<scales pt_clust_3="14000.00000" pt_clust_4="64.20191" pt_clust_5="152.07946" pt_clust_6="53.48493"></scales>
<clustering>
<clus scale="   53.485">  1  6  2 -1</clus>
<clus scale="   64.202">  1  4  2 -1</clus>
<clus scale="  152.079">  2  5  1 -1</clus>
<clus scale="  152.079">  2  3  1 -1</clus>
</clustering>
</event>
<event>
 6    0  0.2572175E+002  0.1447483E+03  0.7546771E-02  0.1207079E+00
         -2   -1    0    0    0  501 -0.00000000000E+00  0.00000000000E+00  0.57090383868E+03  0.57090383868E+03  0.00000000000E+00 0.  1.
         21   -1    0    0  501  502  0.00000000000E+00 -0.00000000000E+00 -0.99713274244E+03  0.99713274244E+03  0.00000000000E+00 0.  1.
         21    1    1    2  503  502 -0.77019641438E+02 -0.52405574608E+01 -0.58257834863E+03  0.58767084401E+03  0.00000000000E+00 0.  1.
         21    1    1    2  504  503 -0.51268689748E+02 -0.40571002482E+02 -0.37604956156E+03  0.38169065686E+03  0.00000000000E+00 0. -1.
         21    1    1    2  505  504  0.17531933181E+03  0.64749589648E+02  0.25206505441E+03  0.31379319483E+03  0.00000000000E+00 0.  1.
         -2    1    1    2    0  505 -0.47031000623E+02 -0.18938029705E+02  0.28033395201E+03  0.28488188542E+03  0.00000000000E+00 0.  1.
<scales pt_clust_3="42.54881" pt_clust_4="42.54881" pt_clust_5="137.16567" pt_clust_6="50.70073"></scales>
<clustering>
<clus scale="   42.549">  3  4 -1 -1</clus>
<clus scale="   50.701">  1  6  2 -1</clus>
<clus scale="  137.166">  1  5  2 -1</clus>
<clus scale="  144.748">  2  3  1 -1</clus>
</clustering>
</event>
<event>
 6    0  0.2572175E+002  0.1178974E+03  0.7546771E-02  0.1246607E+00
         21   -1    0    0  504  502  0.00000000000E+00  0.00000000000E+00  0.78876391989E+02  0.78876391989E+02  0.00000000000E+00 0. -1.
          2   -1    0    0  505    0 -0.00000000000E+00 -0.00000000000E+00 -0.14832821463E+04  0.14832821463E+04  0.00000000000E+00 0.  1.
         21    1    1    2  503  502 -0.62100878758E+02 -0.25141695229E+02  0.37698501908E+02  0.76875230261E+02  0.00000000000E+00 0. -1.
         21    1    1    2  504  501 -0.29249425648E+02 -0.54204890017E+02 -0.53943434733E+02  0.81875473454E+02  0.00000000000E+00 0. -1.
         21    1    1    2  505  503  0.13959267032E+03  0.61990404318E+02 -0.94065537052E+03  0.95297505209E+03  0.00000000000E+00 0.  1.
          2    1    1    2  501    0 -0.48242365911E+02  0.17356180927E+02 -0.44750545102E+03  0.45043278253E+03  0.00000000000E+00 0.  1.
<scales pt_clust_3="117.89740" pt_clust_4="62.18346" pt_clust_5="14000.00000" pt_clust_6="51.26951"></scales>
<clustering>
<clus scale="   51.270">  2  6  1 -1</clus>
<clus scale="   62.183">  1  4  2 -1</clus>
<clus scale="  117.897">  1  3  2 -1</clus>
<clus scale="   62.183">  1  3  2 -1</clus>
</clustering>
</event>
<event>
 6    0  0.2572175E+002  0.1407149E+03  0.7546771E-02  0.1212370E+00
          2   -1    0    0  505    0 -0.00000000000E+00  0.00000000000E+00  0.22007696385E+04  0.22007696385E+04  0.00000000000E+00 0. -1.
         21   -1    0    0  501  502  0.00000000000E+00 -0.00000000000E+00 -0.14342310174E+02  0.14342310174E+02  0.00000000000E+00 0.  1.
         21    1    1    2  503  502  0.22788083270E+02 -0.63603055687E+02  0.41050948052E+03  0.41603206491E+03  0.00000000000E+00 0.  1.
         21    1    1    2  504  503  0.48976904474E+02 -0.11260326224E+01  0.15563165997E+03  0.16316010145E+03  0.00000000000E+00 0.  1.
         21    1    1    2  505  504  0.58168877466E+02 -0.25550422226E+02  0.33903146836E+03  0.34493300642E+03  0.00000000000E+00 0.  1.
          2    1    1    2  501    0 -0.12993386521E+03  0.90279510535E+02  0.12812547195E+04  0.12909867759E+04  0.00000000000E+00 0. -1.
<scales pt_clust_3="67.56216" pt_clust_4="31.35689" pt_clust_5="31.35689" pt_clust_6="136.10856"></scales>
<clustering>
<clus scale="   31.357">  4  5 -1 -1</clus>
<clus scale="   67.562">  2  3  1 -1</clus>
<clus scale="  136.109">  1  6  2 -1</clus>
<clus scale="   67.562">  2  3  1 -1</clus>
</clustering>
</event>
<event>
 6    0  0.2572175E+002  0.1434262E+03  0.7546771E-02  0.1208792E+00
          2   -1    0    0  504    0 -0.00000000000E+00  0.00000000000E+00  0.25159548069E+04  0.25159548069E+04  0.00000000000E+00 0. -1.
         21   -1    0    0  505  502  0.00000000000E+00 -0.00000000000E+00 -0.10411763285E+03  0.10411763285E+03  0.00000000000E+00 0.  1.
         21    1    1    2  503  501  0.12081896428E+03 -0.14996753084E+03  0.26201458847E+03  0.32517553261E+03  0.00000000000E+00 0.  1.
         21    1    1    2  504  502 -0.41921102923E+02  0.29266179482E+02  0.73156279624E+02  0.89250934898E+02  0.00000000000E+00 0.  1.
         21    1    1    2  505  503 -0.35815763419E+02  0.91098681957E+02 -0.26832802704E+02  0.10149747812E+03  0.00000000000E+00 0.  1.
          2    1    1    2  501    0 -0.43082097937E+02  0.29602669398E+02  0.21034991086E+04  0.21041484941E+04  0.00000000000E+00 0. -1.
<scales pt_clust_3="143.42616" pt_clust_4="51.12620" pt_clust_5="14000.00000" pt_clust_6="52.44501"></scales>
<clustering>
<clus scale="   51.126">  2  4  1 -1</clus>
<clus scale="   52.445">  1  6  2 -1</clus>
<clus scale="  143.426">  1  3  2 -1</clus>
<clus scale="   51.126">  2  3  1 -1</clus>
</clustering>
</event>
<event>
 6    0  0.2572175E+002  0.5877576E+02  0.7546771E-02  0.1403042E+00
         21   -1    0    0  504  502  0.00000000000E+00  0.00000000000E+00  0.40802854968E+02  0.40802854968E+02  0.00000000000E+00 0.  1.
          2   -1    0    0  503    0 -0.00000000000E+00 -0.00000000000E+00 -0.16674806030E+04  0.16674806030E+04  0.00000000000E+00 0. -1.
         21    1    1    2  503  505  0.18762053460E+02 -0.59805666909E+02 -0.40570645662E+02  0.74663978824E+02  0.00000000000E+00 0.  1.
         21    1    1    2  504  501  0.58903089288E+02  0.50808565128E+02 -0.43993594303E+03  0.44676024687E+03  0.00000000000E+00 0. -1.
         21    1    1    2  505  502 -0.36718753840E+02  0.44628469193E+02 -0.22720667427E+02  0.62098275938E+02  0.00000000000E+00 0. -1.
          2    1    1    2  501    0 -0.40946388907E+02 -0.35631367412E+02 -0.11234504919E+04  0.11247609563E+04  0.00000000000E+00 0. -1.
<scales pt_clust_3="58.77576" pt_clust_4="33.50267" pt_clust_5="14000.00000" pt_clust_6="54.27892"></scales>
<clustering>
<clus scale="   54.279">  2  6  1 -1</clus>
<clus scale="   33.503">  2  4  1 -1</clus>
<clus scale="   58.776">  2  3  1 -1</clus>
<clus scale="   58.776">  1  3  2 -1</clus>
</clustering>
</event>
<event>
 6    0  0.2572175E+002  0.7795208E+02  0.7546771E-02  0.1334966E+00
          2   -1    0    0  503    0 -0.00000000000E+00  0.00000000000E+00  0.38266741768E+03  0.38266741768E+03  0.00000000000E+00 0. -1.
         21   -1    0    0  505  502  0.00000000000E+00 -0.00000000000E+00 -0.89036202453E+03  0.89036202453E+03  0.00000000000E+00 0.  1.
         21    1    1    2  503  502  0.43131355347E+02  0.30532419758E+02 -0.18248526281E+03  0.18998266661E+03  0.00000000000E+00 0.  1.
         21    1    1    2  504  501  0.79944550111E+02 -0.42098628832E+02  0.31032852493E+02  0.95532526272E+02  0.00000000000E+00 0.  1.
         21    1    1    2  505  504 -0.88043504027E+02  0.32471157693E+02 -0.66726300945E+03  0.67382932444E+03  0.00000000000E+00 0.  1.
          2    1    1    2  501    0 -0.35032401432E+02 -0.20904948619E+02  0.31102081293E+03  0.31368492489E+03  0.00000000000E+00 0. -1.
<scales pt_clust_3="50.67645" pt_clust_4="77.95208" pt_clust_5="14000.00000" pt_clust_6="40.79566"></scales>
<clustering>
<clus scale="   40.796">  1  6  2 -1</clus>
<clus scale="   50.676">  2  3  1 -1</clus>
<clus scale="   77.952">  1  4  2 -1</clus>
<clus scale="   50.676">  2  3  1 -1</clus>
</clustering>
</event>
<event>
 6    0  0.2572175E+002  0.1391917E+03  0.7546771E-02  0.1214421E+00
          2   -1    0    0  505    0 -0.00000000000E+00  0.00000000000E+00  0.11399025852E+04  0.11399025852E+04  0.00000000000E+00 0.  1.
         21   -1    0    0  503  502  0.00000000000E+00 -0.00000000000E+00 -0.33556383859E+02  0.33556383859E+02  0.00000000000E+00 0.  1.
         21    1    1    2  503  501 -0.12574432019E+03 -0.14825109799E+01  0.16076044972E+03  0.20410231281E+03  0.00000000000E+00 0.  1.
         21    1    1    2  504  502  0.11238577894E+03 -0.21135167664E+02  0.49001326704E+03  0.50318014716E+03  0.00000000000E+00 0.  1.
         21    1    1    2  505  504  0.21860930132E+02 -0.33382274809E+02  0.14065403524E+03  0.14620476793E+03  0.00000000000E+00 0.  1.
          2    1    1    2  501    0 -0.85023888766E+01  0.55999953453E+02  0.31491844935E+03  0.31997174116E+03  0.00000000000E+00 0.  1.
<scales pt_clust_3="128.09818" pt_clust_4="32.16635" pt_clust_5="32.16635" pt_clust_6="56.64173"></scales>
<clustering>
<clus scale="   32.166">  4  5 -1 -1</clus>
<clus scale="   56.642">  1  6  2 -1</clus>
<clus scale="  128.098">  2  3  1 -1</clus>
<clus scale="  128.098">  2  3  1 -1</clus>
</clustering>
</event>
<event>
 6    0  0.2572175E+002  0.1012641E+03  0.7546771E-02  0.1277660E+00
         21   -1    0    0  504  502  0.00000000000E+00  0.00000000000E+00  0.13065805976E+03  0.13065805976E+03  0.00000000000E+00 0. -1.
          1   -1    0    0  503    0 -0.00000000000E+00 -0.00000000000E+00 -0.57586709433E+03  0.57586709433E+03  0.00000000000E+00 0. -1.
         21    1    1    2  503  505  0.12098197737E+03  0.50433549173E+02 -0.18119924340E+03  0.22363664176E+03  0.00000000000E+00 0.  1.
         21    1    1    2  504  501 -0.90015033292E+02 -0.69681557230E+01  0.16640639184E+02  0.91805077666E+02  0.00000000000E+00 0. -1.
         21    1    1    2  505  502  0.58911159567E+02 -0.92758802837E+02 -0.20923258719E+02  0.11185929993E+03  0.00000000000E+00 0. -1.
          1    1    1    2  501    0 -0.89878103648E+02  0.49293409387E+02 -0.25972717164E+03  0.27922413472E+03  0.00000000000E+00 0. -1.
<scales pt_clust_3="101.26410" pt_clust_4="90.28434" pt_clust_5="97.05226" pt_clust_6="14000.00000"></scales>
<clustering>
<clus scale="   90.284">  1  4  2 -1</clus>
<clus scale="   97.052">  1  5  2 -1</clus>
<clus scale="  101.264">  1  3  2 -1</clus>
<clus scale="   90.284">  1  3  2 -1</clus>
</clustering>
</event>
<event>
 6    0  0.2572175E+002  0.9512879E+02  0.7546771E-02  0.1290886E+00
         21   -1    0    0  501  502  0.00000000000E+00  0.00000000000E+00  0.25447253099E+02  0.25447253099E+02  0.00000000000E+00 0. -1.
          1   -1    0    0  504    0 -0.00000000000E+00 -0.00000000000E+00 -0.22474814703E+04  0.22474814703E+04  0.00000000000E+00 0. -1.
         21    1    1    2  503  502  0.15555057646E+02 -0.34302716254E+02 -0.68847347326E+02  0.78476706063E+02  0.00000000000E+00 0. -1.
         21    1    1    2  504  505 -0.69745411625E+02 -0.25725209452E+02 -0.40850803821E+03  0.41521684230E+03  0.00000000000E+00 0.  1.
         21    1    1    2  505  503  0.79065560674E+02  0.81895958563E+02 -0.17230339534E+03  0.20651094634E+03  0.00000000000E+00 0. -1.
          1    1    1    2  501    0 -0.24875206695E+02 -0.21868032858E+02 -0.15723754363E+04  0.15727242287E+04  0.00000000000E+00 0. -1.
<scales pt_clust_3="38.87135" pt_clust_4="14000.00000" pt_clust_5="95.12879" pt_clust_6="33.12079"></scales>
<clustering>
<clus scale="   33.121">  2  6  1 -1</clus>
<clus scale="   38.871">  1  3  2 -1</clus>
<clus scale="   95.129">  1  5  2 -1</clus>
<clus scale="   38.871">  1  3  2 -1</clus>
</clustering>
</event>
<event>
 6    0  0.2572175E+002  0.1023141E+03  0.7546771E-02  0.1275504E+00
          2   -1    0    0  505    0 -0.00000000000E+00  0.00000000000E+00  0.16195040543E+04  0.16195040543E+04  0.00000000000E+00 0.  1.
         21   -1    0    0  503  502  0.00000000000E+00 -0.00000000000E+00 -0.37863557498E+02  0.37863557498E+02  0.00000000000E+00 0.  1.
         21    1    1    2  503  504 -0.10031264421E+02  0.57981892068E+02  0.72833025373E+02  0.93633197418E+02  0.00000000000E+00 0.  1.
         21    1    1    2  504  501 -0.48007734203E+02  0.39052641458E+02  0.52886225209E+02  0.81405185123E+02  0.00000000000E+00 0.  1.
         21    1    1    2  505  502  0.86124542150E+02 -0.14720741743E+02  0.15057669939E+03  0.17409043454E+03  0.00000000000E+00 0.  1.
          2    1    1    2  501    0 -0.28085543526E+02 -0.82313791783E+02  0.13053445468E+04  0.13082387947E+04  0.00000000000E+00 0.  1.
<scales pt_clust_3="44.13783" pt_clust_4="44.13783" pt_clust_5="91.75673" pt_clust_6="86.97332"></scales>
<clustering>
<clus scale="   44.138">  3  4 -1 -1</clus>
<clus scale="   86.973">  1  6  2 -1</clus>
<clus scale="   91.757">  1  5  2 -1</clus>
<clus scale="  102.314">  2  3  1 -1</clus>
</clustering>
</event>
<event>
 6    0  0.2572175E+002  0.1496251E+03  0.7546771E-02  0.1200934E+00
         21   -1    0    0  505  502  0.00000000000E+00  0.00000000000E+00  0.51261237134E+02  0.51261237134E+02  0.00000000000E+00 0.  1.
          1   -1    0    0  504    0 -0.00000000000E+00 -0.00000000000E+00 -0.11317639196E+04  0.11317639196E+04  0.00000000000E+00 0. -1.
         21    1    1    2  503  502 -0.73932471620E+01  0.46544324947E+02 -0.22919943967E+02  0.52405706940E+02  0.00000000000E+00 0.  1.
         21    1    1    2  504  503 -0.82595714066E+02 -0.13985049764E+03 -0.28758645460E+03  0.33028197429E+03  0.00000000000E+00 0.  1.
         21    1    1    2  505  501 -0.41868908332E+02  0.20002602227E+02 -0.68065238601E+02  0.82377098071E+02  0.00000000000E+00 0.  1.
          1    1    1    2  501    0  0.13185786956E+03  0.73303570466E+02 -0.70193104527E+03  0.71796037741E+03  0.00000000000E+00 0. -1.
<scales pt_clust_3="57.36687" pt_clust_4="149.62507" pt_clust_5="46.40161" pt_clust_6="14000.00000"></scales>
<clustering>
<clus scale="   46.402">  1  5  2 -1</clus>
<clus scale="   57.367">  1  3  2 -1</clus>
<clus scale="  149.625">  1  4  2 -1</clus>
<clus scale="   46.402">  1  3  2 -1</clus>
</clustering>
</event>
<event>
 6    0  0.2572175E+002  0.5592914E+02  0.7546771E-02  0.1415755E+00
         21   -1    0    0  503  502  0.00000000000E+00  0.00000000000E+00  0.15920128662E+03  0.15920128662E+03  0.00000000000E+00 0. -1.
          4   -1    0    0  505    0 -0.00000000000E+00 -0.00000000000E+00 -0.48780838874E+03  0.48780838874E+03  0.00000000000E+00 0.  1.
         21    1    1    2  503  501  0.38972800016E+02 -0.27395945288E+02 -0.93772493365E+01  0.48552546426E+02  0.00000000000E+00 0. -1.
         21    1    1    2  504  502 -0.22002050657E+02  0.59521558743E+02  0.88421494896E+02  0.10883596349E+03  0.00000000000E+00 0. -1.
         21    1    1    2  505  504 -0.45487381513E+02 -0.78316596631E+02 -0.13286306853E+02  0.91537517634E+02  0.00000000000E+00 0. -1.
          4    1    1    2  501    0  0.28516632154E+02  0.46190983176E+02 -0.39436504082E+03  0.39808364782E+03  0.00000000000E+00 0.  1.
<scales pt_clust_3="47.63840" pt_clust_4="40.54682" pt_clust_5="55.92914" pt_clust_6="14000.00000"></scales>
<clustering>
<clus scale="   47.638">  1  3  2 -1</clus>
<clus scale="   40.547">  1  4  2 -1</clus>
<clus scale="   55.929">  1  5  2 -1</clus>
<clus scale="   47.638">  1  3  2 -1</clus>
</clustering>
</event>
<event>
 6    0  0.2572175E+002  0.7156800E+02  0.7546771E-02  0.1354841E+00
          1   -1    0    0  504    0 -0.00000000000E+00  0.00000000000E+00  0.55149912246E+03  0.55149912246E+03  0.00000000000E+00 0. -1.
         21   -1    0    0  505  502  0.00000000000E+00 -0.00000000000E+00 -0.78671849304E+02  0.78671849304E+02  0.00000000000E+00 0.  1.
         21    1    1    2  503  502 -0.24832689643E+02  0.61399487525E+02  0.76937920928E+02  0.10151848708E+03  0.00000000000E+00 0.  1.
         21    1    1    2  504  503  0.36842770034E+02 -0.64323038130E+02  0.29268947475E+03  0.30193040848E+03  0.00000000000E+00 0. -1.
         21    1    1    2  505  501 -0.66064789225E+02 -0.30809677942E+02 -0.30186392292E+02  0.78898738328E+02  0.00000000000E+00 0.  1.
          1    1    1    2  501    0  0.54054708833E+02  0.33733228548E+02  0.13338626977E+03  0.14782333787E+03  0.00000000000E+00 0. -1.
<scales pt_clust_3="14000.00000" pt_clust_4="71.56800" pt_clust_5="69.14827" pt_clust_6="63.71689"></scales>
<clustering>
<clus scale="   63.717">  1  6  2 -1</clus>
<clus scale="   69.148">  2  5  1 -1</clus>
<clus scale="   71.568">  1  4  2 -1</clus>
<clus scale="   69.148">  2  3  1 -1</clus>
</clustering>
</event>
<event>
 6    0  0.2572175E+002  0.1120837E+03  0.7546771E-02  0.1256759E+00
          2   -1    0    0  505    0 -0.00000000000E+00  0.00000000000E+00  0.64157740056E+03  0.64157740056E+03  0.00000000000E+00 0. -1.
         21   -1    0    0  503  502  0.00000000000E+00 -0.00000000000E+00 -0.27824506629E+03  0.27824506629E+03  0.00000000000E+00 0.  1.
         21    1    1    2  503  504  0.60175313130E+02  0.25084071414E+01 -0.19230601905E+03  0.20151666279E+03  0.00000000000E+00 0.  1.
         21    1    1    2  504  501  0.22029351387E+02 -0.94348359487E+02 -0.30333140734E+02  0.10152341940E+03  0.00000000000E+00 0.  1.
         21    1    1    2  505  502 -0.59158259662E+02  0.11233644564E+02  0.63056600637E+02  0.87189617158E+02  0.00000000000E+00 0.  1.
          2    1    1    2  501    0 -0.23046404856E+02  0.80606307782E+02  0.52291489342E+03  0.52959276750E+03  0.00000000000E+00 0. -1.
<scales pt_clust_3="59.75093" pt_clust_4="112.08366" pt_clust_5="60.21540" pt_clust_6="14000.00000"></scales>
<clustering>
<clus scale="   60.215">  1  5  2 -1</clus>
<clus scale="   59.751">  2  3  1 -1</clus>
<clus scale="  112.084">  2  4  1 -1</clus>
<clus scale="   59.751">  2  3  1 -1</clus>
</clustering>
</event>
<event>
 6    0  0.2572175E+002  0.7217638E+02  0.7546771E-02  0.1352845E+00
          4   -1    0    0  505    0 -0.00000000000E+00  0.00000000000E+00  0.19385323802E+03  0.19385323802E+03  0.00000000000E+00 0. -1.
         21   -1    0    0  504  502  0.00000000000E+00 -0.00000000000E+00 -0.38325959579E+03  0.38325959579E+03  0.00000000000E+00 0. -1.
         21    1    1    2  503  502 -0.13694705486E+03  0.40307678875E+02 -0.12327708306E+03  0.18861718909E+03  0.00000000000E+00 0. -1.
         21    1    1    2  504  501  0.60340231698E+02 -0.15019186408E+02 -0.20401342150E+03  0.21327914964E+03  0.00000000000E+00 0. -1.
         21    1    1    2  505  503  0.39235373363E+02 -0.27594149928E+02  0.20784944081E+02  0.52276816406E+02  0.00000000000E+00 0. -1.
          4    1    1    2  501    0  0.37371449803E+02  0.23056574610E+01  0.11709920271E+03  0.12293967867E+03  0.00000000000E+00 0. -1.
<scales pt_clust_3="72.17638" pt_clust_4="14000.00000" pt_clust_5="63.49834" pt_clust_6="37.44251"></scales>
<clustering>
<clus scale="   37.443">  1  6  2 -1</clus>
<clus scale="   63.498">  1  5  2 -1</clus>
<clus scale="   72.176">  1  3  2 -1</clus>
<clus scale="   72.176">  2  3  1 -1</clus>
</clustering>
</event>
<event>
 6    0  0.2572175E+002  0.6236047E+02  0.7546771E-02  0.1388185E+00
         21   -1    0    0  503  502  0.00000000000E+00  0.00000000000E+00  0.48951648046E+03  0.48951648046E+03  0.00000000000E+00 0. -1.
          2   -1    0    0  505    0 -0.00000000000E+00 -0.00000000000E+00 -0.78148685383E+03  0.78148685383E+03  0.00000000000E+00 0.  1.
         21    1    1    2  503  504  0.17841378144E+02 -0.31941472512E+02  0.26549564206E+01  0.36682710285E+02  0.00000000000E+00 0.  1.
         21    1    1    2  504  501 -0.63541960347E+02  0.11133365233E+02  0.44289684899E+03  0.44757027537E+03  0.00000000000E+00 0. -1.
         21    1    1    2  505  502  0.45674916386E+02  0.81932318960E+02 -0.71544124817E+02  0.11797315234E+03  0.00000000000E+00 0.  1.
          2    1    1    2  501    0  0.25665816073E-01 -0.61124211681E+02 -0.66597805397E+03  0.66877719630E+03  0.00000000000E+00 0.  1.
<scales pt_clust_3="36.58651" pt_clust_4="50.40819" pt_clust_5="14000.00000" pt_clust_6="62.36047"></scales>
<clustering>
<clus scale="   36.587">  1  3  2 -1</clus>
<clus scale="   50.408">  1  4  2 -1</clus>
<clus scale="   62.360">  2  6  1 -1</clus>
<clus scale="   36.587">  1  3  2 -1</clus>
</clustering>
</event>
<event>
 6    0  0.2572175E+002  0.1075552E+03  0.7546771E-02  0.1265165E+00
         21   -1    0    0  501  502  0.00000000000E+00  0.00000000000E+00  0.28126467552E+02  0.28126467552E+02  0.00000000000E+00 0. -1.
          2   -1    0    0  504    0 -0.00000000000E+00 -0.00000000000E+00 -0.23297276731E+04  0.23297276731E+04  0.00000000000E+00 0. -1.
         21    1    1    2  503  502  0.47656921957E+02 -0.57308240501E+01 -0.28279983813E+02  0.55711596990E+02  0.00000000000E+00 0. -1.
         21    1    1    2  504  505  0.36600104955E+02  0.75309255187E+02 -0.10495221549E+04  0.10528569728E+04  0.00000000000E+00 0. -1.
         21    1    1    2  505  503  0.51098386381E+02 -0.10277513462E+02 -0.76863053717E+02  0.92868732093E+02  0.00000000000E+00 0.  1.
          2    1    1    2  501    0 -0.13535541329E+03 -0.59300917675E+02 -0.11469360132E+04  0.11564168388E+04  0.00000000000E+00 0. -1.
<scales pt_clust_3="30.53099" pt_clust_4="83.73202" pt_clust_5="30.53099" pt_clust_6="102.74211"></scales>
<clustering>
<clus scale="   30.531">  3  5 -1 -1</clus>
<clus scale="   83.732">  2  4  1 -1</clus>
<clus scale="  102.742">  2  6  1 -1</clus>
<clus scale="  107.555">  1  3  2 -1</clus>
</clustering>
</event>
<event>
 6    0  0.2572175E+002  0.8792280E+02  0.7546771E-02  0.1307961E+00
         -3   -1    0    0    0  501 -0.00000000000E+00  0.00000000000E+00  0.13022518471E+04  0.13022518471E+04  0.00000000000E+00 0.  1.
         21   -1    0    0  505  502  0.00000000000E+00 -0.00000000000E+00 -0.49660929696E+02  0.49660929696E+02  0.00000000000E+00 0. -1.
         21    1    1    2  503  502  0.50794090597E+02  0.11392477688E+03  0.22401384216E+03  0.25640026503E+03  0.00000000000E+00 0. -1.
         21    1    1    2  504  501 -0.55960695955E+02 -0.35201665505E+02  0.74872970785E+02  0.99883524669E+02  0.00000000000E+00 0. -1.
         21    1    1    2  505  504 -0.42059758717E+02 -0.28671283513E+01  0.46899942582E+01  0.42417446581E+02  0.00000000000E+00 0. -1.
         -3    1    1    2    0  503  0.47226364075E+02 -0.75855983019E+02  0.94901411020E+03  0.95321154052E+03  0.00000000000E+00 0.  1.
<scales pt_clust_3="14000.00000" pt_clust_4="81.59164" pt_clust_5="42.15737" pt_clust_6="87.92280"></scales>
<clustering>
<clus scale="   42.157">  2  5  1 -1</clus>
<clus scale="   81.592">  2  4  1 -1</clus>
<clus scale="   87.923">  1  6  2 -1</clus>
<clus scale="   42.157">  2  3  1 -1</clus>
</clustering>
</event>
<event>
 6    0  0.2572175E+002  0.6391392E+02  0.7546771E-02  0.1382104E+00
          2   -1    0    0  504    0 -0.00000000000E+00  0.00000000000E+00  0.46671667419E+03  0.46671667419E+03  0.00000000000E+00 0. -1.
         21   -1    0    0  505  502  0.00000000000E+00 -0.00000000000E+00 -0.23337501738E+03  0.23337501738E+03  0.00000000000E+00 0. -1.
         21    1    1    2  503  501 -0.19191923241E+02  0.88966158280E+02  0.14390659316E+03  0.17027159127E+03  0.00000000000E+00 0. -1.
         21    1    1    2  504  502 -0.33523990384E+02 -0.10279834604E+03 -0.15723540806E+03  0.19082539513E+03  0.00000000000E+00 0. -1.
         21    1    1    2  505  503  0.32531688489E+02  0.47003508006E+02 -0.26550506380E+02  0.63028326249E+02  0.00000000000E+00 0.  1.
          2    1    1    2  501    0  0.20184225136E+02 -0.33171320242E+02  0.27322097808E+03  0.27596637892E+03  0.00000000000E+00 0. -1.
<scales pt_clust_3="63.91392" pt_clust_4="14000.00000" pt_clust_5="55.76617" pt_clust_6="38.82962"></scales>
<clustering>
<clus scale="   38.830">  1  6  2 -1</clus>
<clus scale="   55.766">  2  5  1 -1</clus>
<clus scale="   63.914">  1  3  2 -1</clus>
<clus scale="   55.766">  2  3  1 -1</clus>
</clustering>
</event>
<event>
 6    0  0.2572175E+002  0.1005863E+03  0.7546771E-02  0.1279068E+00
          2   -1    0    0  503    0 -0.00000000000E+00  0.00000000000E+00  0.31860806470E+04  0.31860806470E+04  0.00000000000E+00 0. -1.
         21   -1    0    0  504  502  0.00000000000E+00 -0.00000000000E+00 -0.74735567805E+02  0.74735567805E+02  0.00000000000E+00 0.  1.
         21    1    1    2  503  502  0.22314802300E+00 -0.85495212156E+02  0.49726411609E+03  0.50456028604E+03  0.00000000000E+00 0.  1.
         21    1    1    2  504  505 -0.31280994244E+02  0.48834113067E+02 -0.35843518098E+02  0.68176454804E+02  0.00000000000E+00 0.  1.
         21    1    1    2  505  501 -0.61345288203E+02 -0.86558341465E+01  0.35050197950E+02  0.71180645022E+02  0.00000000000E+00 0.  1.
          2    1    1    2  501    0  0.92403134424E+02  0.45316933236E+02  0.26148742832E+04  0.26168988289E+04  0.00000000000E+00 0. -1.
<scales pt_clust_3="77.80409" pt_clust_4="57.99372" pt_clust_5="100.58629" pt_clust_6="14000.00000"></scales>
<clustering>
<clus scale="   57.994">  2  4  1 -1</clus>
<clus scale="   77.804">  2  3  1 -1</clus>
<clus scale="  100.586">  2  5  1 -1</clus>
<clus scale="   57.994">  2  3  1 -1</clus>
</clustering>
</event>
<event>
 6    0  0.2572175E+002  0.1055051E+03  0.7546771E-02  0.1269128E+00
          2   -1    0    0  503    0 -0.00000000000E+00  0.00000000000E+00  0.32494865332E+03  0.32494865332E+03  0.00000000000E+00 0.  1.
         21   -1    0    0  505  502  0.00000000000E+00 -0.00000000000E+00 -0.32786520257E+03  0.32786520257E+03  0.00000000000E+00 0. -1.
         21    1    1    2  503  502 -0.23103090325E+01  0.31756722417E+02 -0.61531072400E+01  0.32429734430E+02  0.00000000000E+00 0.  1.
         21    1    1    2  504  501  0.57410541650E+02 -0.80663814738E+02 -0.11414483407E+03  0.15110150378E+03  0.00000000000E+00 0. -1.
         21    1    1    2  505  504  0.32026613953E+02 -0.12116913788E+02 -0.16448556521E+03  0.16801197803E+03  0.00000000000E+00 0. -1.
          2    1    1    2  501    0 -0.87126846570E+02  0.61024006109E+02  0.28186695726E+03  0.30127063965E+03  0.00000000000E+00 0.  1.
<scales pt_clust_3="31.84065" pt_clust_4="105.50511" pt_clust_5="31.18414" pt_clust_6="14000.00000"></scales>
<clustering>
<clus scale="   31.841">  2  3  1 -1</clus>
<clus scale="   31.184">  2  5  1 -1</clus>
<clus scale="  105.505">  2  4  1 -1</clus>
<clus scale="   31.841">  2  3  1 -1</clus>
</clustering>
</event>
<event>
 6    0  0.2572175E+002  0.1194301E+03  0.7546771E-02  0.1244040E+00
         -1   -1    0    0    0  501 -0.00000000000E+00  0.00000000000E+00  0.36683780542E+03  0.36683780542E+03  0.00000000000E+00 0. -1.
         21   -1    0    0  503  502  0.00000000000E+00 -0.00000000000E+00 -0.47273353751E+03  0.47273353751E+03  0.00000000000E+00 0. -1.
         21    1    1    2  503  501 -0.33169633274E+02  0.18151846177E+02 -0.44411447334E+02  0.58327444188E+02  0.00000000000E+00 0.  1.
         21    1    1    2  504  505  0.95473789372E+02 -0.18169351352E+01  0.17011647595E+03  0.19508500993E+03  0.00000000000E+00 0. -1.
         21    1    1    2  505  502 -0.82699375224E+02  0.24803657550E+02 -0.40123545465E+03  0.41041966103E+03  0.00000000000E+00 0. -1.
         -1    1    1    2    0  504  0.20395219127E+02 -0.41138568592E+02  0.16963469394E+03  0.17573922777E+03  0.00000000000E+00 0. -1.
<scales pt_clust_3="37.81156" pt_clust_4="14000.00000" pt_clust_5="119.43009" pt_clust_6="45.69248"></scales>
<clustering>
<clus scale="   37.812">  2  3  1 -1</clus>
<clus scale="   45.692">  1  6  2 -1</clus>
<clus scale="  119.430">  2  5  1 -1</clus>
<clus scale="   37.812">  2  3  1 -1</clus>
</clustering>
</event>
<event>
 6    0  0.2572175E+002  0.9784160E+02  0.7546771E-02  0.1284901E+00
          1   -1    0    0  503    0 -0.00000000000E+00  0.00000000000E+00  0.18922997605E+03  0.18922997605E+03  0.00000000000E+00 0.  1.
         21   -1    0    0  504  502  0.00000000000E+00 -0.00000000000E+00 -0.33385431419E+03  0.33385431419E+03  0.00000000000E+00 0. -1.
         21    1    1    2  503  505 -0.10508396118E+03 -0.19336569667E+02  0.41568641944E+02  0.11464943880E+03  0.00000000000E+00 0. -1.
         21    1    1    2  504  501  0.54309589732E+02  0.20341951858E+02 -0.94360725575E+02  0.11075772241E+03  0.00000000000E+00 0. -1.
         21    1    1    2  505  502  0.20507461516E+01  0.82776883550E+02 -0.15933562795E+03  0.17956631183E+03  0.00000000000E+00 0. -1.
          1    1    1    2  501    0  0.48723625295E+02 -0.83782265741E+02  0.67503373436E+02  0.11811081720E+03  0.00000000000E+00 0.  1.
<scales pt_clust_3="97.84160" pt_clust_4="57.99419" pt_clust_5="14000.00000" pt_clust_6="97.05187"></scales>
<clustering>
<clus scale="   57.994">  2  4  1 -1</clus>
<clus scale="   97.842">  1  3  2 -1</clus>
<clus scale="   97.052">  1  6  2 -1</clus>
<clus scale="   57.994">  2  3  1 -1</clus>
</clustering>
</event>
<event>
 6    0  0.2572175E+002  0.1230652E+03  0.7546771E-02  0.1238124E+00
          2   -1    0    0  505    0 -0.00000000000E+00  0.00000000000E+00  0.32136228971E+04  0.32136228971E+04  0.00000000000E+00 0. -1.
         21   -1    0    0  503  502  0.00000000000E+00 -0.00000000000E+00 -0.99945326501E+02  0.99945326501E+02  0.00000000000E+00 0.  1.
         21    1    1    2  503  504  0.48139515649E+02 -0.24906924966E+02 -0.30328929361E+02  0.62109675852E+02  0.00000000000E+00 0.  1.
         21    1    1    2  504  501 -0.65730517802E+02 -0.14809396950E+02  0.19610382757E+03  0.20735604740E+03  0.00000000000E+00 0.  1.
         21    1    1    2  505  502 -0.71019175178E+01 -0.82018877318E+02 -0.10589342220E+02  0.83004021816E+02  0.00000000000E+00 0.  1.
          2    1    1    2  501    0  0.24692919671E+02  0.12173519923E+03  0.29584920147E+04  0.29610984786E+04  0.00000000000E+00 0. -1.
<scales pt_clust_3="54.20118" pt_clust_4="63.13936" pt_clust_5="123.06523" pt_clust_6="14000.00000"></scales>
<clustering>
<clus scale="   54.201">  2  3  1 -1</clus>
<clus scale="   63.139">  2  4  1 -1</clus>
<clus scale="  123.065">  2  5  1 -1</clus>
<clus scale="   54.201">  2  3  1 -1</clus>
</clustering>
</event>
<event>
 6    0  0.2572175E+002  0.6862281E+02  0.7546771E-02  0.1364840E+00
          2   -1    0    0  503    0 -0.00000000000E+00  0.00000000000E+00  0.36560041674E+04  0.36560041674E+04  0.00000000000E+00 0.  1.
         21   -1    0    0  505  502  0.00000000000E+00 -0.00000000000E+00 -0.68143581755E+02  0.68143581755E+02  0.00000000000E+00 0.  1.
         21    1    1    2  503  504 -0.25700265889E+02 -0.81143852852E+02  0.50538663956E+03  0.51250413069E+03  0.00000000000E+00 0.  1.
         21    1    1    2  504  502 -0.30227774924E+02  0.76787257672E+01 -0.11583376196E+02  0.33269442592E+02  0.00000000000E+00 0.  1.
         21    1    1    2  505  501  0.83054019595E+02  0.10199214883E+02  0.12682336508E+00  0.83678015269E+02  0.00000000000E+00 0.  1.
          2    1    1    2  501    0 -0.27125978782E+02  0.63265912202E+02  0.30939304989E+04  0.30946961606E+04  0.00000000000E+00 0.  1.
<scales pt_clust_3="68.62281" pt_clust_4="31.18784" pt_clust_5="58.04426" pt_clust_6="14000.00000"></scales>
<clustering>
<clus scale="   31.188">  2  4  1 -1</clus>
<clus scale="   58.044">  2  5  1 -1</clus>
<clus scale="   68.623">  2  3  1 -1</clus>
<clus scale="   31.188">  2  3  1 -1</clus>
</clustering>
</event>
<event>
 6    0  0.2572175E+002  0.1647501E+03  0.7546771E-02  0.1183436E+00
         21   -1    0    0  505  502  0.00000000000E+00  0.00000000000E+00  0.29927194020E+02  0.29927194020E+02  0.00000000000E+00 0. -1.
          2   -1    0    0  502    0 -0.00000000000E+00 -0.00000000000E+00 -0.19568992001E+04  0.19568992001E+04  0.00000000000E+00 0.  1.
         21    1    1    2  503  501  0.61932059733E+02 -0.69944512755E+02 -0.78204678412E+03  0.78760712760E+03  0.00000000000E+00 0.  1.
         21    1    1    2  504  503 -0.61424114624E+02  0.79033028875E+02 -0.17415024858E+03  0.20086674834E+03  0.00000000000E+00 0. -1.
         21    1    1    2  505  504 -0.22531516212E+02  0.53696121219E+02 -0.54794172037E+02  0.79958388841E+02  0.00000000000E+00 0. -1.
          2    1    1    2  501    0  0.22023571104E+02 -0.62784637340E+02 -0.91598080130E+03  0.91839412930E+03  0.00000000000E+00 0.  1.
<scales pt_clust_3="42.00158" pt_clust_4="162.62598" pt_clust_5="32.19451" pt_clust_6="42.00158"></scales>
<clustering>
<clus scale="   32.195">  4  5 -1 -1</clus>
<clus scale="   42.002">  3  6 -1 -1</clus>
<clus scale="  162.626">  1  4  2 -1</clus>
<clus scale="  162.626">  1  3  2 -1</clus>
</clustering>
</event>
<event>
 6    0  0.2572175E+002  0.7431856E+02  0.7546771E-02  0.1345994E+00
         21   -1    0    0  504  502  0.00000000000E+00  0.00000000000E+00  0.14228274017E+04  0.14228274017E+04  0.00000000000E+00 0. -1.
          2   -1    0    0  503    0 -0.00000000000E+00 -0.00000000000E+00 -0.44598627053E+03  0.44598627053E+03  0.00000000000E+00 0.  1.
         21    1    1    2  503  505  0.64172400320E+02 -0.54734415653E+02  0.29436313927E+02  0.89333363293E+02  0.00000000000E+00 0. -1.
         21    1    1    2  504  501 -0.97300387859E+02 -0.31159630631E+02  0.10300645752E+04  0.10351189869E+04  0.00000000000E+00 0. -1.
         21    1    1    2  505  502  0.27280769804E+02  0.52342538945E+02  0.32750681071E+03  0.33278325205E+03  0.00000000000E+00 0. -1.
          2    1    1    2  501    0  0.58472177354E+01  0.33551507339E+02 -0.41016656867E+03  0.41157806994E+03  0.00000000000E+00 0.  1.
<scales pt_clust_3="74.31856" pt_clust_4="14000.00000" pt_clust_5="61.46863" pt_clust_6="34.05721"></scales>
<clustering>
<clus scale="   34.057">  2  6  1 -1</clus>
<clus scale="   61.469">  1  5  2 -1</clus>
<clus scale="   74.319">  2  3  1 -1</clus>
<clus scale="   61.469">  1  3  2 -1</clus>
</clustering>
</event>
<event>
 6    0  0.2572175E+002  0.1078191E+03  0.7546771E-02  0.1264663E+00
          2   -1    0    0  504    0 -0.00000000000E+00  0.00000000000E+00  0.11651749177E+04  0.11651749177E+04  0.00000000000E+00 0. -1.
         21   -1    0    0  503  502  0.00000000000E+00 -0.00000000000E+00 -0.19329243679E+03  0.19329243679E+03  0.00000000000E+00 0. -1.
         21    1    1    2  503  501  0.41472735555E+01 -0.70205962176E+02 -0.14424601740E+03  0.16047738327E+03  0.00000000000E+00 0. -1.
         21    1    1    2  504  505 -0.10939778982E+03 -0.26825787860E+02  0.93921425554E+03  0.94594445774E+03  0.00000000000E+00 0. -1.
         21    1    1    2  505  502  0.24293163577E+02  0.49346523637E+02  0.38692733561E+01  0.55138085458E+02  0.00000000000E+00 0. -1.
          2    1    1    2  501    0  0.80957352692E+02  0.47685226399E+02  0.17304496941E+03  0.19690742802E+03  0.00000000000E+00 0. -1.
<scales pt_clust_3="36.48164" pt_clust_4="14000.00000" pt_clust_5="55.00216" pt_clust_6="107.81913"></scales>
<clustering>
<clus scale="   55.002">  2  5  1 -1</clus>
<clus scale="   36.482">  2  3  1 -1</clus>
<clus scale="  107.819">  2  6  1 -1</clus>
<clus scale="   55.002">  2  3  1 -1</clus>
</clustering>
</event>
<event>
 6    0  0.2572175E+002  0.9343253E+02  0.7546771E-02  0.1294746E+00
          2   -1    0    0  503    0 -0.00000000000E+00  0.00000000000E+00  0.19558562713E+04  0.19558562713E+04  0.00000000000E+00 0. -1.
         21   -1    0    0  501  502  0.00000000000E+00 -0.00000000000E+00 -0.24977217696E+03  0.24977217696E+03  0.00000000000E+00 0. -1.
         21    1    1    2  503  504 -0.33735255789E+02 -0.62182580848E+02  0.37424541258E+03  0.38087316745E+03  0.00000000000E+00 0. -1.
         21    1    1    2  504  505 -0.56452142802E+02 -0.34628157097E+02  0.35337570706E+02  0.75064622788E+02  0.00000000000E+00 0. -1.
         21    1    1    2  505  502  0.56388864734E+02 -0.43951475221E+01 -0.22116280410E+03  0.22828054517E+03  0.00000000000E+00 0. -1.
          2    1    1    2  501    0  0.33798533857E+02  0.10120588547E+03  0.15176639152E+04  0.15214101129E+04  0.00000000000E+00 0. -1.
<scales pt_clust_3="14000.00000" pt_clust_4="39.88017" pt_clust_5="56.55989" pt_clust_6="93.43253"></scales>
<clustering>
<clus scale="   56.560">  2  5  1 -1</clus>
<clus scale="   39.880">  2  4  1 -1</clus>
<clus scale="   93.433">  1  6  2 -1</clus>
<clus scale="   56.560">  2  3  1 -1</clus>
</clustering>
</event>
<event>
 6    0  0.2572175E+002  0.7834515E+02  0.7546771E-02  0.1333814E+00
         -1   -1    0    0    0  501 -0.00000000000E+00  0.00000000000E+00  0.22744321162E+03  0.22744321162E+03  0.00000000000E+00 0. -1.
         21   -1    0    0  503  502  0.00000000000E+00 -0.00000000000E+00 -0.10825710942E+04  0.10825710942E+04  0.00000000000E+00 0. -1.
         21    1    1    2  503  505 -0.27323553807E+02  0.31718604547E+02 -0.32077658713E+03  0.32349693247E+03  0.00000000000E+00 0. -1.
         21    1    1    2  504  501  0.26962665535E+02  0.68005568370E+02  0.85082314057E+02  0.11220847930E+03  0.00000000000E+00 0. -1.
         21    1    1    2  505  504 -0.51466364382E+02 -0.17029493663E+02 -0.72702838652E+03  0.72904668240E+03  0.00000000000E+00 0. -1.
         -1    1    1    2    0  502  0.51827252654E+02 -0.82694679254E+02  0.10759477700E+03  0.14526221165E+03  0.00000000000E+00 0. -1.
<scales pt_clust_3="41.86462" pt_clust_4="73.50487" pt_clust_5="78.34515" pt_clust_6="14000.00000"></scales>
<clustering>
<clus scale="   41.865">  2  3  1 -1</clus>
<clus scale="   73.505">  1  4  2 -1</clus>
<clus scale="   78.345">  2  5  1 -1</clus>
<clus scale="   41.865">  2  3  1 -1</clus>
</clustering>
</event>
<event>
 6    0  0.2572175E+002  0.1377921E+03  0.7546771E-02  0.1216331E+00
          1   -1    0    0  504    0 -0.00000000000E+00  0.00000000000E+00  0.18509094968E+04  0.18509094968E+04  0.00000000000E+00 0.  1.
         21   -1    0    0  505  502  0.00000000000E+00 -0.00000000000E+00 -0.16200706824E+03  0.16200706824E+03  0.00000000000E+00 0.  1.
         21    1    1    2  503  502  0.16900275091E+02  0.14102116676E+03 -0.11199747715E+03  0.18087571329E+03  0.00000000000E+00 0.  1.
         21    1    1    2  504  503  0.79018062481E+02 -0.54433419364E+02  0.20293196460E+03  0.22447323582E+03  0.00000000000E+00 0.  1.
         21    1    1    2  505  501 -0.66809590589E+02 -0.67891453186E+02  0.49636627105E+03  0.50542283866E+03  0.00000000000E+00 0.  1.
          1    1    1    2  501    0 -0.29108746983E+02 -0.18696294207E+02  0.11016016700E+04  0.11021447772E+04  0.00000000000E+00 0.  1.
<scales pt_clust_3="14000.00000" pt_clust_4="92.58791" pt_clust_5="137.79211" pt_clust_6="34.59582"></scales>
<clustering>
<clus scale="   34.596">  1  6  2 -1</clus>
<clus scale="   92.588">  1  4  2 -1</clus>
<clus scale="  137.792">  1  5  2 -1</clus>
<clus scale="  137.792">  2  3  1 -1</clus>
</clustering>
</event>
<event>
 6    0  0.2572175E+002  0.3938836E+03  0.7546771E-02  0.1045918E+00
          2   -1    0    0  503    0 -0.00000000000E+00  0.00000000000E+00  0.85174032795E+03  0.85174032795E+03  0.00000000000E+00 0. -1.
         21   -1    0    0  504  502  0.00000000000E+00 -0.00000000000E+00 -0.53657253005E+03  0.53657253005E+03  0.00000000000E+00 0.  1.
         21    1    1    2  503  502  0.94774201545E+02  0.42781648431E+03  0.12790452713E+03  0.45647416311E+03  0.00000000000E+00 0. -1.
         21    1    1    2  504  505  0.19684366133E+02 -0.18976200466E+03 -0.11088199325E+03  0.22066243248E+03  0.00000000000E+00 0.  1.
         21    1    1    2  505  501 -0.14229438191E+02 -0.18749190317E+03 -0.15540502744E+03  0.24393936382E+03  0.00000000000E+00 0.  1.
          2    1    1    2  501    0 -0.10022912949E+03 -0.50562576478E+02  0.45355029145E+03  0.46723689860E+03  0.00000000000E+00 0. -1.
<scales pt_clust_3="390.57455" pt_clust_4="50.58043" pt_clust_5="50.58043" pt_clust_6="112.26065"></scales>
<clustering>
<clus scale="   50.580">  4  5 -1 -1</clus>
<clus scale="  112.261">  1  6  2 -1</clus>
<clus scale="  390.575">  1  3  2 -1</clus>
<clus scale="  393.884">  2  3  1 -1</clus>
</clustering>
</event>
<event>
 6    0  0.2572175E+002  0.8165634E+02  0.7546771E-02  0.1324416E+00
         21   -1    0    0  505  502  0.00000000000E+00  0.00000000000E+00  0.29922997980E+02  0.29922997980E+02  0.00000000000E+00 0.  1.
          1   -1    0    0  504    0 -0.00000000000E+00 -0.00000000000E+00 -0.18830482707E+04  0.18830482707E+04  0.00000000000E+00 0.  1.
         21    1    1    2  503  502  0.16629227028E+02  0.60188545538E+02 -0.43534507817E+02  0.76121255746E+02  0.00000000000E+00 0.  1.
         21    1    1    2  504  503 -0.11128760400E+03 -0.33412556859E+02 -0.42509036158E+03  0.44068485936E+03  0.00000000000E+00 0.  1.
         21    1    1    2  505  501  0.45269167142E+02  0.16496304361E+01 -0.93376811672E+02  0.10378462185E+03  0.00000000000E+00 0.  1.
          1    1    1    2  501    0  0.49389209826E+02 -0.28425619116E+02 -0.12911235916E+04  0.12923805317E+04  0.00000000000E+00 0.  1.
<scales pt_clust_3="14000.00000" pt_clust_4="81.65634" pt_clust_5="45.29921" pt_clust_6="57.96499"></scales>
<clustering>
<clus scale="   45.299">  1  5  2 -1</clus>
<clus scale="   57.965">  2  6  1 -1</clus>
<clus scale="   81.656">  2  4  1 -1</clus>
<clus scale="   45.299">  1  3  2 -1</clus>
</clustering>
</event>
<event>
 6    0  0.2572175E+002  0.1223732E+03  0.7546771E-02  0.1239233E+00
         21   -1    0    0  505  502  0.00000000000E+00  0.00000000000E+00  0.81231948399E+02  0.81231948399E+02  0.00000000000E+00 0. -1.
          2   -1    0    0  503    0 -0.00000000000E+00 -0.00000000000E+00 -0.24352093175E+04  0.24352093175E+04  0.00000000000E+00 0. -1.
         21    1    1    2  503  504 -0.12288421394E+02 -0.43208843352E+02 -0.12250525558E+02  0.46562697737E+02  0.00000000000E+00 0.  1.
         21    1    1    2  504  502 -0.22876254620E+02 -0.64862442689E+02  0.42217653015E+02  0.80701856999E+02  0.00000000000E+00 0. -1.
         21    1    1    2  505  501  0.61074693820E+02  0.68581925286E+02 -0.94366335368E+03  0.94812136553E+03  0.00000000000E+00 0.  1.
          2    1    1    2  501    0 -0.25910017806E+02  0.39489360755E+02 -0.14402811429E+04  0.14410553456E+04  0.00000000000E+00 0. -1.
<scales pt_clust_3="39.44586" pt_clust_4="39.44586" pt_clust_5="112.21817" pt_clust_6="47.23070"></scales>
<clustering>
<clus scale="   39.446">  3  4 -1 -1</clus>
<clus scale="   47.231">  2  6  1 -1</clus>
<clus scale="  112.218">  2  5  1 -1</clus>
<clus scale="  122.373">  1  3  2 -1</clus>
</clustering>
</event>
<event>
 6    0  0.2572175E+002  0.1291298E+03  0.7546771E-02  0.1228753E+00
          1   -1    0    0  503    0 -0.00000000000E+00  0.00000000000E+00  0.14551772815E+04  0.14551772815E+04  0.00000000000E+00 0.  1.
         21   -1    0    0  504  502  0.00000000000E+00 -0.00000000000E+00 -0.81725535945E+03  0.81725535945E+03  0.00000000000E+00 0.  1.
         21    1    1    2  503  502  0.45447867035E+02 -0.11157166905E+03 -0.16459407763E+03  0.20397293042E+03  0.00000000000E+00 0.  1.
         21    1    1    2  504  505  0.92352352734E+02  0.95599988787E+00 -0.52685334979E+03  0.53488720604E+03  0.00000000000E+00 0.  1.
         21    1    1    2  505  501 -0.12830568238E+03  0.53598123012E+02 -0.53873615763E+02  0.14912234372E+03  0.00000000000E+00 0.  1.
          1    1    1    2  501    0 -0.94945373868E+01  0.57017546149E+02  0.13832429652E+04  0.13844501607E+04  0.00000000000E+00 0.  1.
<scales pt_clust_3="14000.00000" pt_clust_4="91.91218" pt_clust_5="129.12977" pt_clust_6="57.80265"></scales>
<clustering>
<clus scale="   57.803">  1  6  2 -1</clus>
<clus scale="   91.912">  2  4  1 -1</clus>
<clus scale="  129.130">  1  5  2 -1</clus>
<clus scale="   91.912">  2  3  1 -1</clus>
</clustering>
</event>
<event>
 6    0  0.2572175E+002  0.8758566E+02  0.7546771E-02  0.1308806E+00
         21   -1    0    0  504  502  0.00000000000E+00  0.00000000000E+00  0.77344671394E+03  0.77344671394E+03  0.00000000000E+00 0.  1.
         -4   -1    0    0    0  501 -0.00000000000E+00 -0.00000000000E+00 -0.11471526064E+03  0.11471526064E+03  0.00000000000E+00 0.  1.
         21    1    1    2  503  502  0.21190661433E+02  0.30165131852E+02  0.31923681378E+03  0.32135824648E+03  0.00000000000E+00 0.  1.
         21    1    1    2  504  505 -0.25487289583E+02 -0.12217749907E+03  0.38423184861E+03  0.40399388200E+03  0.00000000000E+00 0.  1.
         21    1    1    2  505  501 -0.90930424153E+01  0.61145832884E+02  0.38639342157E+02  0.72900583412E+02  0.00000000000E+00 0.  1.
         -4    1    1    2    0  503  0.13389670566E+02  0.30866534330E+02 -0.83376551241E+02  0.89909262683E+02  0.00000000000E+00 0.  1.
<scales pt_clust_3="38.11037" pt_clust_4="87.58566" pt_clust_5="14000.00000" pt_clust_6="33.64560"></scales>
<clustering>
<clus scale="   33.646">  2  6  1 -1</clus>
<clus scale="   38.110">  1  3  2 -1</clus>
<clus scale="   87.586">  1  4  2 -1</clus>
<clus scale="   38.110">  1  3  2 -1</clus>
</clustering>
</event>
<event>
 6    0  0.2572175E+002  0.1036608E+03  0.7546771E-02  0.1272781E+00
         21   -1    0    0  504  502  0.00000000000E+00  0.00000000000E+00  0.50383260166E+02  0.50383260166E+02  0.00000000000E+00 0.  1.
          4   -1    0    0  503    0 -0.00000000000E+00 -0.00000000000E+00 -0.11867596987E+04  0.11867596987E+04  0.00000000000E+00 0.  1.
         21    1    1    2  503  505  0.33163247681E+02 -0.13743389976E+02 -0.87687996452E+02  0.94751604137E+02  0.00000000000E+00 0. -1.
         21    1    1    2  504  501 -0.15036517893E+03 -0.32388842373E+02 -0.25327401841E+03  0.29632153574E+03  0.00000000000E+00 0.  1.
         21    1    1    2  505  502  0.80447207269E+02  0.39877755038E+02 -0.56222939676E+02  0.10593869666E+03  0.00000000000E+00 0.  1.
          4    1    1    2  501    0  0.36754723977E+02  0.62544773106E+01 -0.73919148397E+03  0.74013112229E+03  0.00000000000E+00 0.  1.
<scales pt_clust_3="35.89821" pt_clust_4="103.66078" pt_clust_5="14000.00000" pt_clust_6="59.22240"></scales>
<clustering>
<clus scale="   35.898">  2  3  1 -1</clus>
<clus scale="   59.222">  2  6  1 -1</clus>
<clus scale="  103.661">  2  4  1 -1</clus>
<clus scale="  103.661">  1  3  2 -1</clus>
</clustering>
</event>
<event>
 6    0  0.2572175E+002  0.6496283E+02  0.7546771E-02  0.1378111E+00
          2   -1    0    0  505    0 -0.00000000000E+00  0.00000000000E+00  0.11364978397E+04  0.11364978397E+04  0.00000000000E+00 0. -1.
         21   -1    0    0  503  502  0.00000000000E+00 -0.00000000000E+00 -0.21778701919E+02  0.21778701919E+02  0.00000000000E+00 0. -1.
         21    1    1    2  503  501 -0.10526263139E+03  0.50647516479E+02  0.23601814339E+03  0.26334379906E+03  0.00000000000E+00 0. -1.
         21    1    1    2  504  502  0.45224028487E+01 -0.30646375756E+02  0.67657032765E+02  0.74411871076E+02  0.00000000000E+00 0.  1.
         21    1    1    2  505  504  0.41378485877E+02 -0.95349973859E+01  0.12879556195E+03  0.13561486661E+03  0.00000000000E+00 0. -1.
          2    1    1    2  501    0  0.59361742664E+02 -0.10466143337E+02  0.68224839967E+03  0.68490600486E+03  0.00000000000E+00 0. -1.
<scales pt_clust_3="14000.00000" pt_clust_4="30.97826" pt_clust_5="44.87408" pt_clust_6="64.96283"></scales>
<clustering>
<clus scale="   30.978">  2  4  1 -1</clus>
<clus scale="   44.874">  2  5  1 -1</clus>
<clus scale="   64.963">  1  6  2 -1</clus>
<clus scale="   30.978">  2  3  1 -1</clus>
</clustering>
</event>
<event>
 6    0  0.2572175E+002  0.7464749E+02  0.7546771E-02  0.1344966E+00
          1   -1    0    0  505    0 -0.00000000000E+00  0.00000000000E+00  0.35215508124E+03  0.35215508124E+03  0.00000000000E+00 0.  1.
         21   -1    0    0  503  502  0.00000000000E+00 -0.00000000000E+00 -0.19240236478E+03  0.19240236478E+03  0.00000000000E+00 0. -1.
         21    1    1    2  503  504 -0.47234099489E+02  0.18739198737E+02 -0.91754583198E+02  0.10488623009E+03  0.00000000000E+00 0. -1.
         21    1    1    2  504  501 -0.48875467985E+02  0.25310369749E+02 -0.72876871873E+01  0.55520595927E+02  0.00000000000E+00 0. -1.
         21    1    1    2  505  502  0.11781114309E+03  0.28110561885E+02  0.69980939429E+01  0.12132041232E+03  0.00000000000E+00 0. -1.
          1    1    1    2  501    0 -0.21701575619E+02 -0.72160130371E+02  0.25179689290E+03  0.26283020769E+03  0.00000000000E+00 0.  1.
<scales pt_clust_3="50.81553" pt_clust_4="71.93723" pt_clust_5="74.64749" pt_clust_6="14000.00000"></scales>
<clustering>
<clus scale="   50.816">  2  3  1 -1</clus>
<clus scale="   71.937">  2  4  1 -1</clus>
<clus scale="   74.647">  2  5  1 -1</clus>
<clus scale="   50.816">  2  3  1 -1</clus>
</clustering>
</event>
<event>
 6    0  0.2572175E+002  0.8005410E+02  0.7546771E-02  0.1328898E+00
         21   -1    0    0  504  502  0.00000000000E+00  0.00000000000E+00  0.33700559098E+03  0.33700559098E+03  0.00000000000E+00 0.  1.
          2   -1    0    0  505    0 -0.00000000000E+00 -0.00000000000E+00 -0.10024374710E+04  0.10024374710E+04  0.00000000000E+00 0.  1.
         21    1    1    2  503  501 -0.94533925075E+02 -0.76968513642E+02 -0.23754033052E+03  0.26699480089E+03  0.00000000000E+00 0.  1.
         21    1    1    2  504  503  0.16850919441E+01  0.50171580457E+02  0.24492092309E+03  0.25001257086E+03  0.00000000000E+00 0.  1.
         21    1    1    2  505  502  0.40470867158E+02  0.18152095768E+02  0.67201642644E+02  0.80519876077E+02  0.00000000000E+00 0.  1.
          2    1    1    2  501    0  0.52377965973E+02  0.86448374169E+01 -0.74001411529E+03  0.74191581420E+03  0.00000000000E+00 0.  1.
<scales pt_clust_3="80.05410" pt_clust_4="14000.00000" pt_clust_5="44.35527" pt_clust_6="53.24156"></scales>
<clustering>
<clus scale="   44.355">  1  5  2 -1</clus>
<clus scale="   53.242">  2  6  1 -1</clus>
<clus scale="   80.054">  2  3  1 -1</clus>
<clus scale="   44.355">  1  3  2 -1</clus>
</clustering>
</event>
<event>
 6    0  0.2572175E+002  0.2020669E+03  0.7546771E-02  0.1148007E+00
         21   -1    0    0  501  502  0.00000000000E+00  0.00000000000E+00  0.23741904462E+02  0.23741904462E+02  0.00000000000E+00 0. -1.
          2   -1    0    0  503    0 -0.00000000000E+00 -0.00000000000E+00 -0.23195500353E+04  0.23195500353E+04  0.00000000000E+00 0.  1.
         21    1    1    2  503  505 -0.25160551268E+02 -0.28857486179E+02 -0.80857307877E+02  0.89463467883E+02  0.00000000000E+00 0. -1.
         21    1    1    2  504  502 -0.84548087272E+02  0.89208314878E+01 -0.31652942654E+03  0.32774813220E+03  0.00000000000E+00 0. -1.
         21    1    1    2  505  504 -0.67571170402E+02  0.30501980500E+00 -0.11220395108E+03  0.13097970356E+03  0.00000000000E+00 0. -1.
          2    1    1    2  501    0  0.17727980894E+03  0.19631634886E+02 -0.17862174454E+04  0.17951006361E+04  0.00000000000E+00 0.  1.
<scales pt_clust_3="32.88061" pt_clust_4="72.58189" pt_clust_5="72.58189" pt_clust_6="178.36348"></scales>
<clustering>
<clus scale="   32.881">  3  5 -1 -1</clus>
<clus scale="   72.582">  3  4 -1 -1</clus>
<clus scale="  178.363">  2  6  1 -1</clus>
<clus scale="  202.067">  1  3  2 -1</clus>
</clustering>
</event>
<event>
 6    0  0.2572175E+002  0.1757621E+03  0.7546771E-02  0.1171969E+00
         21   -1    0    0  503  502  0.00000000000E+00  0.00000000000E+00  0.24910735827E+04  0.24910735827E+04  0.00000000000E+00 0.  1.
          2   -1    0    0  505    0 -0.00000000000E+00 -0.00000000000E+00 -0.12159735689E+04  0.12159735689E+04  0.00000000000E+00 0. -1.
         21    1    1    2  503  501 -0.18399102666E+02 -0.26205755035E+02  0.17882001616E+03  0.18166415925E+03  0.00000000000E+00 0. -1.
         21    1    1    2  504  502  0.28315448030E+02 -0.74625678902E+02  0.84618283310E+03  0.84993890579E+03  0.00000000000E+00 0.  1.
         21    1    1    2  505  504  0.15834399675E+03  0.49444980753E+02  0.14516410232E+04  0.14610883914E+04  0.00000000000E+00 0.  1.
          2    1    1    2  501    0 -0.16826034212E+03  0.51386453183E+02 -0.12015438586E+04  0.12143556952E+04  0.00000000000E+00 0. -1.
<scales pt_clust_3="32.01982" pt_clust_4="86.95893" pt_clust_5="14000.00000" pt_clust_6="175.76209"></scales>
<clustering>
<clus scale="   32.020">  1  3  2 -1</clus>
<clus scale="   86.959">  1  4  2 -1</clus>
<clus scale="  175.762">  2  6  1 -1</clus>
<clus scale="   32.020">  1  3  2 -1</clus>
</clustering>
</event>
<event>
 6    0  0.2572175E+002  0.1042181E+03  0.7546771E-02  0.1271668E+00
         21   -1    0    0  504  502  0.00000000000E+00  0.00000000000E+00  0.23250062576E+04  0.23250062576E+04  0.00000000000E+00 0. -1.
          2   -1    0    0  505    0 -0.00000000000E+00 -0.00000000000E+00 -0.58260653917E+03  0.58260653917E+03  0.00000000000E+00 0.  1.
         21    1    1    2  503  502 -0.26598133871E+02  0.11088379085E+03  0.19980721436E+04  0.20013233039E+04  0.00000000000E+00 0. -1.
         21    1    1    2  504  501 -0.35572029853E+02 -0.27428576758E+02  0.26752439972E+03  0.27126924001E+03  0.00000000000E+00 0. -1.
         21    1    1    2  505  503  0.35769615801E+02  0.51134762631E+02  0.26993806961E+02  0.67991874354E+02  0.00000000000E+00 0.  1.
          2    1    1    2  501    0  0.26400547923E+02 -0.13458997672E+03 -0.55019063179E+03  0.56702837855E+03  0.00000000000E+00 0.  1.
<scales pt_clust_3="104.21812" pt_clust_4="44.91877" pt_clust_5="61.41419" pt_clust_6="14000.00000"></scales>
<clustering>
<clus scale="   44.919">  1  4  2 -1</clus>
<clus scale="   61.414">  2  5  1 -1</clus>
<clus scale="  104.218">  1  3  2 -1</clus>
<clus scale="   44.919">  1  3  2 -1</clus>
</clustering>
</event>
<event>
 6    0  0.2572175E+002  0.7795519E+02  0.7546771E-02  0.1334957E+00
          2   -1    0    0  505    0 -0.00000000000E+00  0.00000000000E+00  0.99778183809E+03  0.99778183809E+03  0.00000000000E+00 0. -1.
         21   -1    0    0  503  502  0.00000000000E+00 -0.00000000000E+00 -0.37133847847E+03  0.37133847847E+03  0.00000000000E+00 0. -1.
         21    1    1    2  503  501 -0.87420981631E+02 -0.44502324642E+02 -0.32410844836E+03  0.33862836743E+03  0.00000000000E+00 0. -1.
         21    1    1    2  504  502  0.29626677492E+02 -0.78346782351E+01 -0.27039153775E+02  0.40868545841E+02  0.00000000000E+00 0. -1.
         21    1    1    2  505  504  0.79564357708E+02  0.14804677318E+02  0.30247718794E+03  0.31311677488E+03  0.00000000000E+00 0.  1.
          2    1    1    2  501    0 -0.21770053568E+02  0.37532325559E+02  0.67511377381E+03  0.67650662841E+03  0.00000000000E+00 0. -1.
<scales pt_clust_3="77.95519" pt_clust_4="30.64510" pt_clust_5="14000.00000" pt_clust_6="43.34441"></scales>
<clustering>
<clus scale="   30.645">  2  4  1 -1</clus>
<clus scale="   43.344">  1  6  2 -1</clus>
<clus scale="   77.955">  2  3  1 -1</clus>
<clus scale="   30.645">  2  3  1 -1</clus>
</clustering>
</event>
<event>
 6    0  0.2572175E+002  0.1559506E+03  0.7546771E-02  0.1193346E+00
         21   -1    0    0  503  502  0.00000000000E+00  0.00000000000E+00  0.11354815686E+04  0.11354815686E+04  0.00000000000E+00 0. -1.
          1   -1    0    0  505    0 -0.00000000000E+00 -0.00000000000E+00 -0.31720535829E+03  0.31720535829E+03  0.00000000000E+00 0. -1.
         21    1    1    2  503  501  0.87442043840E+02 -0.12860454703E+03  0.88026614187E+03  0.89389804847E+03  0.00000000000E+00 0. -1.
         21    1    1    2  504  502 -0.15308554654E+03  0.82470225395E+02  0.20879578261E+03  0.27172081531E+03  0.00000000000E+00 0. -1.
         21    1    1    2  505  504  0.27778804716E+02  0.23299088066E+02 -0.49212830682E+02  0.61126198965E+02  0.00000000000E+00 0. -1.
          1    1    1    2  501    0  0.37864697987E+02  0.22835233569E+02 -0.22157288352E+03  0.22594186410E+03  0.00000000000E+00 0. -1.
<scales pt_clust_3="155.95059" pt_clust_4="14000.00000" pt_clust_5="36.25616" pt_clust_6="74.95797"></scales>
<clustering>
<clus scale="   36.256">  2  5  1 -1</clus>
<clus scale="   74.958">  2  6  1 -1</clus>
<clus scale="  155.951">  1  3  2 -1</clus>
<clus scale="  155.951">  1  3  2 -1</clus>
</clustering>
</event>
<event>
 6    0  0.2572175E+002  0.1008387E+03  0.7546771E-02  0.1278542E+00
         21   -1    0    0  503  502  0.00000000000E+00  0.00000000000E+00  0.15887362673E+03  0.15887362673E+03  0.00000000000E+00 0.  1.
         -2   -1    0    0    0  501 -0.00000000000E+00 -0.00000000000E+00 -0.20260717040E+03  0.20260717040E+03  0.00000000000E+00 0.  1.
         21    1    1    2  503  505  0.25785217120E+02  0.68490602940E+02  0.84663058175E+02  0.11190922005E+03  0.00000000000E+00 0.  1.
         21    1    1    2  504  502  0.25937646628E+02  0.19173119345E+02  0.38227395445E+01  0.32480507318E+02  0.00000000000E+00 0.  1.
         21    1    1    2  505  501 -0.74620850608E+02 -0.11152953007E+03 -0.82978614025E+02  0.15777375513E+03  0.00000000000E+00 0.  1.
         -2    1    1    2    0  504  0.22897986860E+02  0.23865807784E+02 -0.49240727366E+02  0.59317314630E+02  0.00000000000E+00 0.  1.
<scales pt_clust_3="100.83866" pt_clust_4="32.25477" pt_clust_5="14000.00000" pt_clust_6="34.21290"></scales>
<clustering>
<clus scale="   32.255">  1  4  2 -1</clus>
<clus scale="   34.213">  2  6  1 -1</clus>
<clus scale="  100.839">  1  3  2 -1</clus>
<clus scale="   32.255">  1  3  2 -1</clus>
</clustering>
</event>
<event>
 6    0  0.2572175E+002  0.1243357E+03  0.7546771E-02  0.1236111E+00
         21   -1    0    0  503  502  0.00000000000E+00  0.00000000000E+00  0.24887086961E+02  0.24887086961E+02  0.00000000000E+00 0. -1.
          2   -1    0    0  505    0 -0.00000000000E+00 -0.00000000000E+00 -0.18896151995E+04  0.18896151995E+04  0.00000000000E+00 0. -1.
         21    1    1    2  503  501 -0.54370787612E+02  0.52104147139E+02 -0.25835908089E+03  0.26911045943E+03  0.00000000000E+00 0. -1.
         21    1    1    2  504  502 -0.60409456951E+02 -0.14990774388E+03 -0.73680238851E+03  0.75432048486E+03  0.00000000000E+00 0. -1.
         21    1    1    2  505  504  0.22001543545E+02  0.99309499945E+02 -0.46692699644E+03  0.47787787635E+03  0.00000000000E+00 0. -1.
          2    1    1    2  501    0  0.92778701018E+02 -0.15059032018E+01 -0.40263964667E+03  0.41319346580E+03  0.00000000000E+00 0. -1.
<scales pt_clust_3="75.30621" pt_clust_4="14000.00000" pt_clust_5="124.33574" pt_clust_6="79.08191"></scales>
<clustering>
<clus scale="   75.306">  1  3  2 -1</clus>
<clus scale="   79.082">  1  6  2 -1</clus>
<clus scale="  124.336">  2  5  1 -1</clus>
<clus scale="   75.306">  1  3  2 -1</clus>
</clustering>
</event>
<event>
 6    0  0.2572175E+002  0.1478257E+03  0.7546771E-02  0.1203170E+00
         21   -1    0    0  505  502  0.00000000000E+00  0.00000000000E+00  0.43942219298E+03  0.43942219298E+03  0.00000000000E+00 0. -1.
          3   -1    0    0  504    0 -0.00000000000E+00 -0.00000000000E+00 -0.25116292797E+03  0.25116292797E+03  0.00000000000E+00 0. -1.
         21    1    1    2  503  502  0.89960053751E+02 -0.28014135059E+02  0.13402375111E+03  0.16382908440E+03  0.00000000000E+00 0. -1.
         21    1    1    2  504  503  0.27663674680E+02 -0.10338979881E+03  0.18943473563E+03  0.21757814334E+03  0.00000000000E+00 0. -1.
         21    1    1    2  505  501 -0.69041236894E+02  0.14602363580E+03  0.34273107995E+01  0.16155909465E+03  0.00000000000E+00 0. -1.
          3    1    1    2  501    0 -0.48582491538E+02 -0.14619701930E+02 -0.13862653253E+03  0.14761879856E+03  0.00000000000E+00 0. -1.
<scales pt_clust_3="88.50913" pt_clust_4="14000.00000" pt_clust_5="147.82571" pt_clust_6="50.73455"></scales>
<clustering>
<clus scale="   50.735">  2  6  1 -1</clus>
<clus scale="   88.509">  1  3  2 -1</clus>
<clus scale="  147.826">  2  5  1 -1</clus>
<clus scale="   88.509">  1  3  2 -1</clus>
</clustering>
</event>
<event>
 6    0  0.2572175E+002  0.1071917E+03  0.7546771E-02  0.1265861E+00
         21   -1    0    0  503  502  0.00000000000E+00  0.00000000000E+00  0.50372298621E+03  0.50372298621E+03  0.00000000000E+00 0.  1.
         -1   -1    0    0    0  501 -0.00000000000E+00 -0.00000000000E+00 -0.24075786947E+03  0.24075786947E+03  0.00000000000E+00 0.  1.
         21    1    1    2  503  504 -0.40607873374E+02  0.24617089204E+02  0.57648927025E+02  0.74688682195E+02  0.00000000000E+00 0. -1.
         21    1    1    2  504  501  0.49546024701E+02  0.93390004385E+02  0.40489613794E+03  0.41847029047E+03  0.00000000000E+00 0.  1.
         21    1    1    2  505  502 -0.10241195113E+02 -0.72848610938E+02 -0.36542789458E+02  0.82141205581E+02  0.00000000000E+00 0.  1.
         -1    1    1    2    0  505  0.13030437853E+01 -0.45158482650E+02 -0.16303715877E+03  0.16918067744E+03  0.00000000000E+00 0.  1.
<scales pt_clust_3="44.89714" pt_clust_4="107.19172" pt_clust_5="14000.00000" pt_clust_6="45.17728"></scales>
<clustering>
<clus scale="   45.177">  2  6  1 -1</clus>
<clus scale="   44.897">  1  3  2 -1</clus>
<clus scale="  107.192">  1  4  2 -1</clus>
<clus scale="   44.897">  1  3  2 -1</clus>
</clustering>
</event>
<event>
 6    0  0.2572175E+002  0.6692795E+02  0.7546771E-02  0.1370863E+00
          1   -1    0    0  503    0 -0.00000000000E+00  0.00000000000E+00  0.51289895664E+03  0.51289895664E+03  0.00000000000E+00 0.  1.
         21   -1    0    0  504  502  0.00000000000E+00 -0.00000000000E+00 -0.30020176415E+03  0.30020176415E+03  0.00000000000E+00 0.  1.
         21    1    1    2  503  502 -0.25417259431E+02  0.37733756505E+02 -0.10618731798E+02  0.46718635703E+02  0.00000000000E+00 0.  1.
         21    1    1    2  504  505  0.60383280552E+02 -0.29166991800E+02 -0.83996862495E+02  0.10748175143E+03  0.00000000000E+00 0.  1.
         21    1    1    2  505  501 -0.32419721235E+02 -0.75347542540E+02 -0.16373669832E+03  0.18313382229E+03  0.00000000000E+00 0.  1.
          1    1    1    2  501    0 -0.25462998859E+01  0.66780777835E+02  0.47104948509E+03  0.47576651137E+03  0.00000000000E+00 0.  1.
<scales pt_clust_3="45.49586" pt_clust_4="53.81251" pt_clust_5="66.92795" pt_clust_6="14000.00000"></scales>
<clustering>
<clus scale="   45.496">  2  3  1 -1</clus>
<clus scale="   53.813">  2  4  1 -1</clus>
<clus scale="   66.928">  2  5  1 -1</clus>
<clus scale="   45.496">  2  3  1 -1</clus>
</clustering>
</event>
<event>
 6    0  0.2572175E+002  0.8549547E+02  0.7546771E-02  0.1314142E+00
         21   -1    0    0  503  502  0.00000000000E+00  0.00000000000E+00  0.31471723445E+03  0.31471723445E+03  0.00000000000E+00 0. -1.
          1   -1    0    0  505    0 -0.00000000000E+00 -0.00000000000E+00 -0.15387953492E+04  0.15387953492E+04  0.00000000000E+00 0. -1.
         21    1    1    2  503  504  0.24606721624E+02  0.81292696269E+02  0.62890267429E+01  0.85167746672E+02  0.00000000000E+00 0.  1.
         21    1    1    2  504  501 -0.36212693658E+02  0.79310792478E+02 -0.26111036299E+03  0.27528200567E+03  0.00000000000E+00 0. -1.
         21    1    1    2  505  502  0.38226345171E+02 -0.13843124817E+03  0.24194958300E+03  0.28136109299E+03  0.00000000000E+00 0. -1.
          1    1    1    2  501    0 -0.26620373137E+02 -0.22172240582E+02 -0.12112063615E+04  0.12117017383E+04  0.00000000000E+00 0. -1.
<scales pt_clust_3="81.48155" pt_clust_4="85.49547" pt_clust_5="14000.00000" pt_clust_6="34.64466"></scales>
<clustering>
<clus scale="   34.645">  2  6  1 -1</clus>
<clus scale="   81.482">  1  3  2 -1</clus>
<clus scale="   85.495">  2  4  1 -1</clus>
<clus scale="   81.482">  1  3  2 -1</clus>
</clustering>
</event>
<event>
 6    0  0.2572175E+002  0.1572229E+03  0.7546771E-02  0.1191868E+00
         -2   -1    0    0    0  501 -0.00000000000E+00  0.00000000000E+00  0.11129870997E+03  0.11129870997E+03  0.00000000000E+00 0. -1.
         21   -1    0    0  504  502  0.00000000000E+00 -0.00000000000E+00 -0.14551747913E+04  0.14551747913E+04  0.00000000000E+00 0.  1.
         21    1    1    2  503  501  0.11792869900E+03  0.23029121581E+02 -0.76124597951E+03  0.77067046123E+03  0.00000000000E+00 0.  1.
         21    1    1    2  504  503  0.67891841014E+02 -0.65804246991E+02 -0.33742115526E+03  0.35041766083E+03  0.00000000000E+00 0.  1.
         21    1    1    2  505  502 -0.41399707679E+02  0.11452028363E+03 -0.25628631261E+03  0.28374549369E+03  0.00000000000E+00 0.  1.
         -2    1    1    2    0  505 -0.14442083234E+03 -0.71745158219E+02  0.11077366085E+02  0.16163988549E+03  0.00000000000E+00 0. -1.
<scales pt_clust_3="14000.00000" pt_clust_4="94.54893" pt_clust_5="101.62934" pt_clust_6="157.22294"></scales>
<clustering>
<clus scale="   94.549">  2  4  1 -1</clus>
<clus scale="  101.629">  2  5  1 -1</clus>
<clus scale="  157.223">  1  6  2 -1</clus>
<clus scale="   94.549">  2  3  1 -1</clus>
</clustering>
</event>
<event>
 6    0  0.2572175E+002  0.9142456E+02  0.7546771E-02  0.1299438E+00
         21   -1    0    0  505  502  0.00000000000E+00  0.00000000000E+00  0.45370784247E+03  0.45370784247E+03  0.00000000000E+00 0. -1.
          2   -1    0    0  503    0 -0.00000000000E+00 -0.00000000000E+00 -0.11501812650E+04  0.11501812650E+04  0.00000000000E+00 0.  1.
         21    1    1    2  503  504  0.21725708171E+02  0.13524726449E+03 -0.44827341583E+03  0.46873540968E+03  0.00000000000E+00 0.  1.
         21    1    1    2  504  502  0.34962510313E+01 -0.30137834554E+02  0.18686889464E+02  0.35633027948E+02  0.00000000000E+00 0. -1.
         21    1    1    2  505  501 -0.45866638639E+02 -0.25384094748E+02  0.41216886321E+03  0.41548919674E+03  0.00000000000E+00 0. -1.
          2    1    1    2  501    0  0.20644679437E+02 -0.79725335191E+02 -0.67905575933E+03  0.68403147306E+03  0.00000000000E+00 0.  1.
<scales pt_clust_3="14000.00000" pt_clust_4="30.33995" pt_clust_5="69.19391" pt_clust_6="91.42456"></scales>
<clustering>
<clus scale="   30.340">  1  4  2 -1</clus>
<clus scale="   69.194">  1  5  2 -1</clus>
<clus scale="   91.425">  2  6  1 -1</clus>
<clus scale="   30.340">  1  3  2 -1</clus>
</clustering>
</event>
<event>
 6    0  0.2572175E+002  0.1072823E+03  0.7546771E-02  0.1265687E+00
         21   -1    0    0  504  502  0.00000000000E+00  0.00000000000E+00  0.48835114414E+03  0.48835114414E+03  0.00000000000E+00 0. -1.
         -1   -1    0    0    0  501 -0.00000000000E+00 -0.00000000000E+00 -0.62041102622E+03  0.62041102622E+03  0.00000000000E+00 0.  1.
         21    1    1    2  503  502 -0.44022696077E+02  0.14137013879E+02  0.11990653049E+03  0.12851236899E+03  0.00000000000E+00 0.  1.
         21    1    1    2  504  505 -0.14687443857E+02  0.78188229970E+02  0.35238838537E+03  0.36125710299E+03  0.00000000000E+00 0. -1.
         21    1    1    2  505  501  0.69478150594E+02 -0.39534704841E+02 -0.36251506915E+03  0.37122416632E+03  0.00000000000E+00 0.  1.
         -1    1    1    2    0  503 -0.10768010660E+02 -0.52790539009E+02 -0.24183972879E+03  0.24776853207E+03  0.00000000000E+00 0.  1.
<scales pt_clust_3="46.23692" pt_clust_4="14000.00000" pt_clust_5="107.28235" pt_clust_6="53.83772"></scales>
<clustering>
<clus scale="   46.237">  1  3  2 -1</clus>
<clus scale="   53.838">  2  6  1 -1</clus>
<clus scale="  107.282">  2  5  1 -1</clus>
<clus scale="   46.237">  1  3  2 -1</clus>
</clustering>
</event>
<event>
 6    0  0.2572175E+002  0.2571365E+03  0.7546771E-02  0.1108876E+00
         21   -1    0    0  505  502  0.00000000000E+00  0.00000000000E+00  0.24468451085E+03  0.24468451085E+03  0.00000000000E+00 0.  1.
          1   -1    0    0  504    0 -0.00000000000E+00 -0.00000000000E+00 -0.18180595695E+04  0.18180595695E+04  0.00000000000E+00 0. -1.
         21    1    1    2  503  502 -0.36557660078E+02  0.58834124437E+02 -0.78340564871E+02  0.10457131927E+03  0.00000000000E+00 0. -1.
         21    1    1    2  504  503 -0.36721352014E+01  0.78933971593E+02 -0.18069729810E+03  0.19721959839E+03  0.00000000000E+00 0. -1.
         21    1    1    2  505  501 -0.88585884038E+02 -0.24772344626E+03  0.13915891079E+03  0.29762319656E+03  0.00000000000E+00 0.  1.
          1    1    1    2  501    0  0.12881567932E+03  0.10995535023E+03 -0.14534961064E+04  0.14633299661E+04  0.00000000000E+00 0. -1.
<scales pt_clust_3="54.42127" pt_clust_4="154.84555" pt_clust_5="257.13650" pt_clust_6="14000.00000"></scales>
<clustering>
<clus scale="   54.421">  3  4 -1 -1</clus>
<clus scale="  154.846">  2  3  1 -1</clus>
<clus scale="  257.136">  1  5  2 -1</clus>
<clus scale="  257.136">  1  3  2 -1</clus>
</clustering>
</event>
<event>
 6    0  0.2572175E+002  0.6635167E+02  0.7546771E-02  0.1372958E+00
         21   -1    0    0  503  502  0.00000000000E+00  0.00000000000E+00  0.45336331352E+03  0.45336331352E+03  0.00000000000E+00 0.  1.
          2   -1    0    0  504    0 -0.00000000000E+00 -0.00000000000E+00 -0.25586609051E+03  0.25586609051E+03  0.00000000000E+00 0.  1.
         21    1    1    2  503  501 -0.21079183371E+02  0.61175693422E+02  0.34809432923E+03  0.35405714155E+03  0.00000000000E+00 0.  1.
         21    1    1    2  504  505 -0.55350706194E+02 -0.14615210997E+02  0.26811950672E+02  0.63215391856E+02  0.00000000000E+00 0.  1.
         21    1    1    2  505  502  0.10309260079E+03 -0.77576177620E+02 -0.21533513121E+02  0.13080458654E+03  0.00000000000E+00 0. -1.
          2    1    1    2  501    0 -0.26662711223E+02  0.31015695195E+02 -0.15587554378E+03  0.16115228409E+03  0.00000000000E+00 0.  1.
<scales pt_clust_3="66.35167" pt_clust_4="60.97649" pt_clust_5="14000.00000" pt_clust_6="40.90078"></scales>
<clustering>
<clus scale="   40.901">  2  6  1 -1</clus>
<clus scale="   60.976">  2  4  1 -1</clus>
<clus scale="   66.352">  1  3  2 -1</clus>
<clus scale="   66.352">  1  3  2 -1</clus>
</clustering>
</event>
<event>
 6    0  0.2572175E+002  0.1380277E+03  0.7546771E-02  0.1216008E+00
          2   -1    0    0  505    0 -0.00000000000E+00  0.00000000000E+00  0.14145756848E+04  0.14145756848E+04  0.00000000000E+00 0.  1.
         21   -1    0    0  504  502  0.00000000000E+00 -0.00000000000E+00 -0.51559869073E+02  0.51559869073E+02  0.00000000000E+00 0.  1.
         21    1    1    2  503  502  0.34561392800E+02 -0.16028404461E+02  0.75339584841E+02  0.84424242169E+02  0.00000000000E+00 0.  1.
         21    1    1    2  504  501 -0.12509677096E+03 -0.64491587702E+02  0.90076157460E+02  0.16709901595E+03  0.00000000000E+00 0.  1.
         21    1    1    2  505  503 -0.36432830589E+02  0.27066372071E+02  0.12096520029E+03  0.12919953298E+03  0.00000000000E+00 0. -1.
          2    1    1    2  501    0  0.12696820875E+03  0.53453620093E+02  0.10766348731E+04  0.10854127628E+04  0.00000000000E+00 0.  1.
<scales pt_clust_3="38.09724" pt_clust_4="14000.00000" pt_clust_5="42.12563" pt_clust_6="138.02766"></scales>
<clustering>
<clus scale="   38.097">  2  3  1 -1</clus>
<clus scale="   42.126">  2  5  1 -1</clus>
<clus scale="  138.028">  1  6  2 -1</clus>
<clus scale="   38.097">  2  3  1 -1</clus>
</clustering>
</event>
<event>
 6    0  0.2572175E+002  0.1931947E+03  0.7546771E-02  0.1155611E+00
          2   -1    0    0  504    0 -0.00000000000E+00  0.00000000000E+00  0.23066466809E+04  0.23066466809E+04  0.00000000000E+00 0.  1.
         21   -1    0    0  503  502  0.00000000000E+00 -0.00000000000E+00 -0.26027005809E+03  0.26027005809E+03  0.00000000000E+00 0.  1.
         21    1    1    2  503  501 -0.17916658039E+03 -0.75735584493E+02  0.33183519867E+01  0.19454447756E+03  0.00000000000E+00 0.  1.
         21    1    1    2  504  505  0.13967488391E+03  0.10862643140E+02 -0.65536959868E+02  0.15466791303E+03  0.00000000000E+00 0.  1.
         21    1    1    2  505  502  0.25228186189E+02  0.33173234895E+02 -0.46434313509E+02  0.62394473816E+02  0.00000000000E+00 0.  1.
          2    1    1    2  501    0  0.14263510291E+02  0.31699706457E+02  0.21550295442E+04  0.21553098746E+04  0.00000000000E+00 0.  1.
<scales pt_clust_3="178.54374" pt_clust_4="40.36503" pt_clust_5="40.36503" pt_clust_6="34.76088"></scales>
<clustering>
<clus scale="   34.761">  1  6  2 -1</clus>
<clus scale="   40.365">  4  5 -1 -1</clus>
<clus scale="  178.544">  1  3  2 -1</clus>
<clus scale="  193.195">  2  3  1 -1</clus>
</clustering>
</event>
<event>
 6    0  0.2572175E+002  0.1529275E+03  0.7546771E-02  0.1196921E+00
         21   -1    0    0  503  502  0.00000000000E+00  0.00000000000E+00  0.13669216289E+02  0.13669216289E+02  0.00000000000E+00 0.  1.
          4   -1    0    0  505    0 -0.00000000000E+00 -0.00000000000E+00 -0.40928471796E+04  0.40928471796E+04  0.00000000000E+00 0.  1.
         21    1    1    2  503  501 -0.74012977929E+02 -0.85790688788E+02 -0.17541483498E+04  0.17578038561E+04  0.00000000000E+00 0.  1.
         21    1    1    2  504  502  0.95616514781E+02  0.56328040797E+01 -0.52928071898E+03  0.53787761235E+03  0.00000000000E+00 0.  1.
         21    1    1    2  505  504 -0.12242403460E+02  0.12511271034E+03 -0.54770090121E+03  0.56194247385E+03  0.00000000000E+00 0.  1.
          4    1    1    2  501    0 -0.93611333916E+01 -0.44954825632E+02 -0.12480479933E+04  0.12488924536E+04  0.00000000000E+00 0.  1.
<scales pt_clust_3="34.83470" pt_clust_4="95.78229" pt_clust_5="142.80283" pt_clust_6="34.83470"></scales>
<clustering>
<clus scale="   34.835">  3  6 -1 -1</clus>
<clus scale="   95.782">  1  4  2 -1</clus>
<clus scale="  142.803">  1  5  2 -1</clus>
<clus scale="   95.782">  1  3  2 -1</clus>
</clustering>
</event>
<event>
 6    0  0.2572175E+002  0.1162888E+03  0.7546771E-02  0.1249348E+00
          1   -1    0    0  504    0 -0.00000000000E+00  0.00000000000E+00  0.77138313619E+03  0.77138313619E+03  0.00000000000E+00 0. -1.
         21   -1    0    0  503  502  0.00000000000E+00 -0.00000000000E+00 -0.11669792491E+03  0.11669792491E+03  0.00000000000E+00 0.  1.
         21    1    1    2  503  501  0.32221133532E+02  0.24590368643E+02  0.38826634906E+02  0.56128381896E+02  0.00000000000E+00 0.  1.
         21    1    1    2  504  505 -0.10311907231E+03 -0.10546988733E+03  0.51977054026E+02  0.15639390766E+03  0.00000000000E+00 0.  1.
         21    1    1    2  505  502  0.95750909405E+01  0.98458724681E+02 -0.88196788589E+01  0.99315605861E+02  0.00000000000E+00 0.  1.
          1    1    1    2  501    0  0.61322847833E+02 -0.17579205994E+02  0.57270120120E+03  0.57624316569E+03  0.00000000000E+00 0. -1.
<scales pt_clust_3="40.53255" pt_clust_4="116.28879" pt_clust_5="14000.00000" pt_clust_6="64.19162"></scales>
<clustering>
<clus scale="   40.533">  2  3  1 -1</clus>
<clus scale="   64.192">  1  6  2 -1</clus>
<clus scale="  116.289">  1  4  2 -1</clus>
<clus scale="   40.533">  2  3  1 -1</clus>
</clustering>
</event>
<event>
 6    0  0.2572175E+002  0.5649334E+02  0.7546771E-02  0.1413166E+00
          2   -1    0    0  503    0 -0.00000000000E+00  0.00000000000E+00  0.57578319161E+03  0.57578319161E+03  0.00000000000E+00 0.  1.
         21   -1    0    0  501  502  0.00000000000E+00 -0.00000000000E+00 -0.92030266091E+02  0.92030266091E+02  0.00000000000E+00 0. -1.
         21    1    1    2  503  504 -0.48874479965E+02  0.24700087236E+02  0.11480963920E+03  0.12720087403E+03  0.00000000000E+00 0. -1.
         21    1    1    2  504  505  0.26653667308E+02  0.88233622585E+02  0.47635523944E+02  0.10375323261E+03  0.00000000000E+00 0. -1.
         21    1    1    2  505  502 -0.67893682163E+00 -0.49874442824E+02 -0.43348302117E+02  0.66083252785E+02  0.00000000000E+00 0. -1.
          2    1    1    2  501    0  0.22899749479E+02 -0.63059266997E+02  0.36465606450E+03  0.37077609828E+03  0.00000000000E+00 0.  1.
<scales pt_clust_3="51.66557" pt_clust_4="56.49334" pt_clust_5="49.87906" pt_clust_6="14000.00000"></scales>
<clustering>
<clus scale="   49.879">  2  5  1 -1</clus>
<clus scale="   51.666">  1  3  2 -1</clus>
<clus scale="   56.493">  2  4  1 -1</clus>
<clus scale="   49.879">  2  3  1 -1</clus>
</clustering>
</event>
<event>
 6    0  0.2572175E+002  0.1110266E+03  0.7546771E-02  0.1258681E+00
          1   -1    0    0  503    0 -0.00000000000E+00  0.00000000000E+00  0.13370866102E+04  0.13370866102E+04  0.00000000000E+00 0. -1.
         21   -1    0    0  504  502  0.00000000000E+00 -0.00000000000E+00 -0.23941507296E+04  0.23941507296E+04  0.00000000000E+00 0. -1.
         21    1    1    2  503  502  0.34587830781E+02 -0.51098471400E+01 -0.49003866906E+02  0.60198069302E+02  0.00000000000E+00 0. -1.
         21    1    1    2  504  505 -0.64611676729E+02 -0.31522929007E+02 -0.11435192069E+04  0.11457768284E+04  0.00000000000E+00 0. -1.
         21    1    1    2  505  501 -0.18759068224E+02 -0.49479343768E+02 -0.11924735032E+04  0.11936470014E+04  0.00000000000E+00 0. -1.
          1    1    1    2  501    0  0.48782914171E+02  0.86112119915E+02  0.13279324576E+04  0.13316154407E+04  0.00000000000E+00 0. -1.
<scales pt_clust_3="34.96325" pt_clust_4="47.43233" pt_clust_5="47.43233" pt_clust_6="98.97997"></scales>
<clustering>
<clus scale="   34.963">  2  3  1 -1</clus>
<clus scale="   47.432">  4  5 -1 -1</clus>
<clus scale="   98.980">  1  6  2 -1</clus>
<clus scale="   34.963">  2  3  1 -1</clus>
</clustering>
</event>
<event>
 6    0  0.2572175E+002  0.8103729E+02  0.7546771E-02  0.1326133E+00
          2   -1    0    0  504    0 -0.00000000000E+00  0.00000000000E+00  0.37545086980E+03  0.37545086980E+03  0.00000000000E+00 0.  1.
         21   -1    0    0  505  502  0.00000000000E+00 -0.00000000000E+00 -0.25279512322E+03  0.25279512322E+03  0.00000000000E+00 0.  1.
         21    1    1    2  503  502  0.21760840803E+02  0.31259886879E+02 -0.62525921796E+01  0.38598052142E+02  0.00000000000E+00 0.  1.
         21    1    1    2  504  503 -0.10767466437E+02 -0.77583097182E+02 -0.99740959504E+02  0.12682008636E+03  0.00000000000E+00 0.  1.
         21    1    1    2  505  501 -0.71753603197E+02 -0.86517078229E+01 -0.10041241209E+03  0.12371775993E+03  0.00000000000E+00 0. -1.
          2    1    1    2  501    0  0.60760228831E+02  0.54974918126E+02  0.32906171036E+03  0.33911009459E+03  0.00000000000E+00 0.  1.
<scales pt_clust_3="38.08825" pt_clust_4="81.03729" pt_clust_5="61.51810" pt_clust_6="14000.00000"></scales>
<clustering>
<clus scale="   38.088">  2  3  1 -1</clus>
<clus scale="   61.518">  2  5  1 -1</clus>
<clus scale="   81.037">  2  4  1 -1</clus>
<clus scale="   38.088">  2  3  1 -1</clus>
</clustering>
</event>
<event>
 6    0  0.2572175E+002  0.1036757E+03  0.7546771E-02  0.1272751E+00
         21   -1    0    0  505  502  0.00000000000E+00  0.00000000000E+00  0.45695327196E+02  0.45695327196E+02  0.00000000000E+00 0. -1.
          2   -1    0    0  503    0 -0.00000000000E+00 -0.00000000000E+00 -0.20902634034E+04  0.20902634034E+04  0.00000000000E+00 0. -1.
         21    1    1    2  503  504 -0.61001247899E+02  0.59024673092E+00 -0.50912184480E+03  0.51276364291E+03  0.00000000000E+00 0. -1.
         21    1    1    2  504  502  0.45433042817E+02  0.27521103346E+02 -0.82899565562E+02  0.98457658307E+02  0.00000000000E+00 0.  1.
         21    1    1    2  505  501  0.32779830019E+02  0.52666767939E+02  0.73838340426E+01  0.62472607648E+02  0.00000000000E+00 0. -1.
          2    1    1    2  501    0 -0.17211624937E+02 -0.80778118016E+02 -0.14599304999E+04  0.14622648217E+04  0.00000000000E+00 0. -1.
<scales pt_clust_3="58.85043" pt_clust_4="53.11848" pt_clust_5="103.67568" pt_clust_6="14000.00000"></scales>
<clustering>
<clus scale="   53.118">  1  4  2 -1</clus>
<clus scale="   58.850">  2  3  1 -1</clus>
<clus scale="  103.676">  1  5  2 -1</clus>
<clus scale="   53.118">  1  3  2 -1</clus>
</clustering>
</event>
<event>
 6    0  0.2572175E+002  0.2046409E+03  0.7546771E-02  0.1145882E+00
          3   -1    0    0  504    0 -0.00000000000E+00  0.00000000000E+00  0.42986329114E+03  0.42986329114E+03  0.00000000000E+00 0.  1.
         21   -1    0    0  505  502  0.00000000000E+00 -0.00000000000E+00 -0.92898858767E+03  0.92898858767E+03  0.00000000000E+00 0.  1.
         21    1    1    2  503  501 -0.16371286255E+03 -0.69353503611E+02 -0.16019654525E+03  0.23932142181E+03  0.00000000000E+00 0.  1.
         21    1    1    2  504  502 -0.14631770399E+02  0.32431159644E+02  0.22381604770E+03  0.22662632687E+03  0.00000000000E+00 0.  1.
         21    1    1    2  505  503  0.21456679636E+03  0.34242643547E+02 -0.70934205354E+03  0.74187439479E+03  0.00000000000E+00 0.  1.
          3    1    1    2  501    0 -0.36222163408E+02  0.26797004199E+01  0.14659725455E+03  0.15102973535E+03  0.00000000000E+00 0.  1.
<scales pt_clust_3="14000.00000" pt_clust_4="35.57905" pt_clust_5="204.64086" pt_clust_6="53.71991"></scales>
<clustering>
<clus scale="   35.579">  1  4  2 -1</clus>
<clus scale="   53.720">  1  6  2 -1</clus>
<clus scale="  204.641">  2  5  1 -1</clus>
<clus scale="  204.641">  2  3  1 -1</clus>
</clustering>
</event>
<event>
 6    0  0.2572175E+002  0.1163565E+03  0.7546771E-02  0.1249232E+00
         21   -1    0    0  503  502  0.00000000000E+00  0.00000000000E+00  0.12567017012E+02  0.12567017012E+02  0.00000000000E+00 0.  1.
          2   -1    0    0  504    0 -0.00000000000E+00 -0.00000000000E+00 -0.25483361803E+04  0.25483361803E+04  0.00000000000E+00 0.  1.
         21    1    1    2  503  505  0.61716117710E+01 -0.30818453436E+02 -0.18930032389E+03  0.19189184060E+03  0.00000000000E+00 0.  1.
         21    1    1    2  504  502 -0.66173254698E+02 -0.83281661767E+02 -0.36300796274E+03  0.37827174867E+03  0.00000000000E+00 0.  1.
         21    1    1    2  505  501  0.92067937767E+02  0.70599015689E+02 -0.13661594621E+04  0.13710770956E+04  0.00000000000E+00 0.  1.
          2    1    1    2  501    0 -0.32066294839E+02  0.43501099514E+02 -0.61730141451E+03  0.61966251241E+03  0.00000000000E+00 0.  1.
<scales pt_clust_3="31.43033" pt_clust_4="14000.00000" pt_clust_5="116.35654" pt_clust_6="51.07972"></scales>
<clustering>
<clus scale="   31.430">  1  3  2 -1</clus>
<clus scale="   51.080">  2  6  1 -1</clus>
<clus scale="  116.357">  2  5  1 -1</clus>
<clus scale="   31.430">  1  3  2 -1</clus>
</clustering>
</event>
<event>
 6    0  0.2572175E+002  0.8826027E+02  0.7546771E-02  0.1307120E+00
          2   -1    0    0  505    0 -0.00000000000E+00  0.00000000000E+00  0.57803302039E+03  0.57803302039E+03  0.00000000000E+00 0. -1.
         21   -1    0    0  503  502  0.00000000000E+00 -0.00000000000E+00 -0.33836513362E+03  0.33836513362E+03  0.00000000000E+00 0. -1.
         21    1    1    2  503  501 -0.11676208086E+03 -0.69346152967E+02  0.87063513746E+02  0.16131437593E+03  0.00000000000E+00 0. -1.
         21    1    1    2  504  502  0.39295604706E+02 -0.29903123555E+02 -0.19140770984E+03  0.19767461328E+03  0.00000000000E+00 0. -1.
         21    1    1    2  505  504  0.21682791753E+02  0.85199289739E+02 -0.86344334921E+02  0.12322502426E+03  0.00000000000E+00 0. -1.
          2    1    1    2  501    0  0.55783684397E+02  0.14049986783E+02  0.43035641778E+03  0.43418414054E+03  0.00000000000E+00 0. -1.
<scales pt_clust_3="14000.00000" pt_clust_4="49.37956" pt_clust_5="88.26027" pt_clust_6="57.93799"></scales>
<clustering>
<clus scale="   49.380">  2  4  1 -1</clus>
<clus scale="   57.938">  1  6  2 -1</clus>
<clus scale="   88.260">  2  5  1 -1</clus>
<clus scale="   49.380">  2  3  1 -1</clus>
</clustering>
</event>
<event>
 6    0  0.2572175E+002  0.8252488E+02  0.7546771E-02  0.1322035E+00
          1   -1    0    0  503    0 -0.00000000000E+00  0.00000000000E+00  0.15276882169E+04  0.15276882169E+04  0.00000000000E+00 0. -1.
         21   -1    0    0  505  502  0.00000000000E+00 -0.00000000000E+00 -0.81933730249E+03  0.81933730249E+03  0.00000000000E+00 0. -1.
         21    1    1    2  503  504 -0.17565638112E+02 -0.11757863779E+03  0.90632947989E+02  0.14949120031E+03  0.00000000000E+00 0. -1.
         21    1    1    2  504  502 -0.40657100895E+01  0.38948002781E+02 -0.12212195190E+03  0.12824682474E+03  0.00000000000E+00 0. -1.
         21    1    1    2  505  501  0.41621601950E+02  0.34461761646E+02 -0.66320621049E+03  0.66540397384E+03  0.00000000000E+00 0. -1.
          1    1    1    2  501    0 -0.19990253748E+02  0.44168873366E+02  0.14030461288E+04  0.14038835205E+04  0.00000000000E+00 0. -1.
<scales pt_clust_3="82.52488" pt_clust_4="39.15963" pt_clust_5="14000.00000" pt_clust_6="48.50437"></scales>
<clustering>
<clus scale="   39.160">  2  4  1 -1</clus>
<clus scale="   48.504">  1  6  2 -1</clus>
<clus scale="   82.525">  1  3  2 -1</clus>
<clus scale="   39.160">  2  3  1 -1</clus>
</clustering>
</event>
<event>
 6    0  0.2572175E+002  0.1390132E+03  0.7546771E-02  0.1214663E+00
         21   -1    0    0  504  502  0.00000000000E+00  0.00000000000E+00  0.10240235366E+04  0.10240235366E+04  0.00000000000E+00 0. -1.
          3   -1    0    0  502    0 -0.00000000000E+00 -0.00000000000E+00 -0.37645357110E+02  0.37645357110E+02  0.00000000000E+00 0. -1.
         21    1    1    2  503  501  0.11143014182E+00 -0.66416577611E+02  0.10490844433E+03  0.12416503489E+03  0.00000000000E+00 0. -1.
         21    1    1    2  504  505  0.52607556234E+02  0.11377410807E+02  0.25808572742E+03  0.26363847054E+03  0.00000000000E+00 0. -1.
         21    1    1    2  505  503 -0.71885736968E+02  0.12038164456E+03  0.57097036101E+03  0.58793405470E+03  0.00000000000E+00 0. -1.
          3    1    1    2  501    0  0.19166750593E+02 -0.65342477757E+02  0.52413646744E+02  0.85931333591E+02  0.00000000000E+00 0. -1.
<scales pt_clust_3="40.21524" pt_clust_4="53.82379" pt_clust_5="132.91545" pt_clust_6="40.21524"></scales>
<clustering>
<clus scale="   40.215">  3  6 -1 -1</clus>
<clus scale="   53.824">  1  4  2 -1</clus>
<clus scale="  132.915">  1  5  2 -1</clus>
<clus scale="   53.824">  1  3  2 -1</clus>
</clustering>
</event>
<event>
 6    0  0.2572175E+002  0.1131300E+03  0.7546771E-02  0.1254881E+00
          2   -1    0    0  504    0 -0.00000000000E+00  0.00000000000E+00  0.14265378354E+04  0.14265378354E+04  0.00000000000E+00 0.  1.
         21   -1    0    0  505  502  0.00000000000E+00 -0.00000000000E+00 -0.12149444516E+03  0.12149444516E+03  0.00000000000E+00 0.  1.
         21    1    1    2  503  502  0.45425953237E+02 -0.58858773225E+02 -0.28242078153E+02  0.79532932748E+02  0.00000000000E+00 0.  1.
         21    1    1    2  504  503 -0.12621116133E+03  0.11942555436E+03  0.60794107089E+02  0.18408596833E+03  0.00000000000E+00 0.  1.
         21    1    1    2  505  501  0.30946157852E+02 -0.81431837943E+01  0.47411167584E+02  0.57199606115E+02  0.00000000000E+00 0.  1.
          2    1    1    2  501    0  0.49839050242E+02 -0.52423597346E+02  0.12250801938E+04  0.12272137734E+04  0.00000000000E+00 0.  1.
<scales pt_clust_3="113.12996" pt_clust_4="14000.00000" pt_clust_5="31.99963" pt_clust_6="72.58294"></scales>
<clustering>
<clus scale="   32.000">  2  5  1 -1</clus>
<clus scale="   72.583">  1  6  2 -1</clus>
<clus scale="  113.130">  2  3  1 -1</clus>
<clus scale="   32.000">  2  3  1 -1</clus>
</clustering>
</event>
<event>
 6    0  0.2572175E+002  0.9167085E+02  0.7546771E-02  0.1298855E+00
          1   -1    0    0  505    0 -0.00000000000E+00  0.00000000000E+00  0.20144026091E+03  0.20144026091E+03  0.00000000000E+00 0. -1.
         21   -1    0    0  503  502  0.00000000000E+00 -0.00000000000E+00 -0.67709936695E+03  0.67709936695E+03  0.00000000000E+00 0. -1.
         21    1    1    2  503  501  0.41521926551E+02  0.11657137948E+01 -0.39248226143E+03  0.39467423885E+03  0.00000000000E+00 0. -1.
         21    1    1    2  504  502  0.34067364520E+02 -0.70122771313E+02 -0.15780400206E+03  0.17601105490E+03  0.00000000000E+00 0. -1.
         21    1    1    2  505  504 -0.24315323244E+02  0.10510526272E+03 -0.84352600247E+02  0.13694419434E+03  0.00000000000E+00 0. -1.
          1    1    1    2  501    0 -0.51273967828E+02 -0.36148205199E+02  0.15897975770E+03  0.17091013976E+03  0.00000000000E+00 0. -1.
<scales pt_clust_3="41.53829" pt_clust_4="14000.00000" pt_clust_5="91.67085" pt_clust_6="62.00900"></scales>
<clustering>
<clus scale="   41.538">  2  3  1 -1</clus>
<clus scale="   62.009">  1  6  2 -1</clus>
<clus scale="   91.671">  1  5  2 -1</clus>
<clus scale="   41.538">  2  3  1 -1</clus>
</clustering>
</event>
<event>
 6    0  0.2572175E+002  0.1100922E+03  0.7546771E-02  0.1260399E+00
          1   -1    0    0  503    0 -0.00000000000E+00  0.00000000000E+00  0.25119075177E+04  0.25119075177E+04  0.00000000000E+00 0.  1.
         21   -1    0    0  501  502  0.00000000000E+00 -0.00000000000E+00 -0.15115212355E+03  0.15115212355E+03  0.00000000000E+00 0. -1.
         21    1    1    2  503  504 -0.63582314477E+02  0.82130094140E+02  0.37891680940E+02  0.11056148770E+03  0.00000000000E+00 0. -1.
         21    1    1    2  504  505 -0.13328387437E+02 -0.44775662795E+02 -0.23190095705E+02  0.52156365184E+02  0.00000000000E+00 0. -1.
         21    1    1    2  505  502  0.28633580417E+02 -0.56095273040E+02 -0.63964890585E+02  0.89766746696E+02  0.00000000000E+00 0. -1.
          1    1    1    2  501    0  0.48277121496E+02  0.18740841695E+02  0.24100186995E+04  0.24105750417E+04  0.00000000000E+00 0.  1.
<scales pt_clust_3="99.91654" pt_clust_4="39.81401" pt_clust_5="39.81401" pt_clust_6="51.78706"></scales>
<clustering>
<clus scale="   39.814">  4  5 -1 -1</clus>
<clus scale="   51.787">  1  6  2 -1</clus>
<clus scale="   99.917">  1  3  2 -1</clus>
<clus scale="  110.092">  2  3  1 -1</clus>
</clustering>
</event>
<event>
 6    0  0.2572175E+002  0.2560962E+03  0.7546771E-02  0.1109512E+00
          2   -1    0    0  505    0 -0.00000000000E+00  0.00000000000E+00  0.24309540051E+04  0.24309540051E+04  0.00000000000E+00 0. -1.
         21   -1    0    0  504  502  0.00000000000E+00 -0.00000000000E+00 -0.94803686239E+03  0.94803686239E+03  0.00000000000E+00 0. -1.
         21    1    1    2  503  502 -0.15915855924E+03  0.15760262892E+03 -0.19490755375E+03  0.29691579637E+03  0.00000000000E+00 0. -1.
         21    1    1    2  504  501  0.34283776679E+02  0.70246728273E+02 -0.68798740349E+03  0.69241363904E+03  0.00000000000E+00 0. -1.
         21    1    1    2  505  503  0.34563907385E+02 -0.23791676639E+03  0.15071612080E+04  0.15262155675E+04  0.00000000000E+00 0. -1.
          2    1    1    2  501    0  0.90310875179E+02  0.10067409197E+02  0.85865089198E+03  0.86344586466E+03  0.00000000000E+00 0. -1.
<scales pt_clust_3="14000.00000" pt_clust_4="78.16636" pt_clust_5="256.09618" pt_clust_6="91.26153"></scales>
<clustering>
<clus scale="   78.166">  2  4  1 -1</clus>
<clus scale="   91.262">  1  6  2 -1</clus>
<clus scale="  256.096">  1  5  2 -1</clus>
<clus scale="   78.166">  2  3  1 -1</clus>
</clustering>
</event>
<event>
 6    0  0.2572175E+002  0.9296424E+02  0.7546771E-02  0.1295828E+00
          1   -1    0    0  503    0 -0.00000000000E+00  0.00000000000E+00  0.14348571155E+04  0.14348571155E+04  0.00000000000E+00 0.  1.
         21   -1    0    0  501  502  0.00000000000E+00 -0.00000000000E+00 -0.79530888060E+02  0.79530888060E+02  0.00000000000E+00 0. -1.
         21    1    1    2  503  504  0.62612162407E+02  0.10539769905E+03  0.63008659037E+03  0.64190191557E+03  0.00000000000E+00 0.  1.
         21    1    1    2  504  505 -0.29158104721E+02 -0.44456135820E+02  0.16124281366E+02  0.55556597561E+02  0.00000000000E+00 0. -1.
         21    1    1    2  505  502 -0.43163822445E+02 -0.25979049828E+02 -0.41602011693E+02  0.65335702146E+02  0.00000000000E+00 0. -1.
          1    1    1    2  501    0  0.97097647594E+01 -0.34962513403E+02  0.75071736738E+03  0.75159378827E+03  0.00000000000E+00 0.  1.
<scales pt_clust_3="92.96424" pt_clust_4="14000.00000" pt_clust_5="50.55101" pt_clust_6="36.28577"></scales>
<clustering>
<clus scale="   36.286">  1  6  2 -1</clus>
<clus scale="   50.551">  2  5  1 -1</clus>
<clus scale="   92.964">  1  3  2 -1</clus>
<clus scale="   50.551">  2  3  1 -1</clus>
</clustering>
</event>
<event>
 6    0  0.2572175E+002  0.1859667E+03  0.7546771E-02  0.1162150E+00
         21   -1    0    0  505  502  0.00000000000E+00  0.00000000000E+00  0.98619936208E+03  0.98619936208E+03  0.00000000000E+00 0. -1.
          1   -1    0    0  504    0 -0.00000000000E+00 -0.00000000000E+00 -0.21486610066E+04  0.21486610066E+04  0.00000000000E+00 0.  1.
         21    1    1    2  503  502 -0.76506620878E+02  0.65966388908E+02  0.37145902857E+03  0.38495017523E+03  0.00000000000E+00 0.  1.
         21    1    1    2  504  503 -0.16716767769E+03 -0.57278777201E+02 -0.34959100263E+01  0.17674306823E+03  0.00000000000E+00 0. -1.
         21    1    1    2  505  501  0.22609298217E+03  0.41180865847E+02  0.49568496182E+03  0.54636753351E+03  0.00000000000E+00 0. -1.
          1    1    1    2  501    0  0.17581316393E+02 -0.49868477554E+02 -0.20261097249E+04  0.20267995918E+04  0.00000000000E+00 0.  1.
<scales pt_clust_3="98.49715" pt_clust_4="185.96668" pt_clust_5="14000.00000" pt_clust_6="52.87691"></scales>
<clustering>
<clus scale="   52.877">  2  6  1 -1</clus>
<clus scale="   98.497">  1  3  2 -1</clus>
<clus scale="  185.967">  2  4  1 -1</clus>
<clus scale="   98.497">  1  3  2 -1</clus>
</clustering>
</event>
<event>
 6    0  0.2572175E+002  0.9662505E+02  0.7546771E-02  0.1287557E+00
         21   -1    0    0  505  502  0.00000000000E+00  0.00000000000E+00  0.10358888602E+03  0.10358888602E+03  0.00000000000E+00 0.  1.
          2   -1    0    0  503    0 -0.00000000000E+00 -0.00000000000E+00 -0.86596679077E+03  0.86596679077E+03  0.00000000000E+00 0.  1.
         21    1    1    2  503  502  0.64817839472E+02 -0.17355003181E+02  0.43385099018E+02  0.79905039053E+02  0.00000000000E+00 0.  1.
         21    1    1    2  504  501  0.57719357378E+02  0.88616982006E+02 -0.92803660451E+02  0.14070185894E+03  0.00000000000E+00 0. -1.
         21    1    1    2  505  504 -0.27816199650E+02 -0.43856830665E+02 -0.32246168897E+02  0.61130826655E+02  0.00000000000E+00 0. -1.
          2    1    1    2  501    0 -0.94720997200E+02 -0.27405148160E+02 -0.68071317442E+03  0.68781795214E+03  0.00000000000E+00 0.  1.
<scales pt_clust_3="65.96500" pt_clust_4="96.62505" pt_clust_5="51.93421" pt_clust_6="14000.00000"></scales>
<clustering>
<clus scale="   51.934">  1  5  2 -1</clus>
<clus scale="   65.965">  1  3  2 -1</clus>
<clus scale="   96.625">  1  4  2 -1</clus>
<clus scale="   51.934">  1  3  2 -1</clus>
</clustering>
</event>
<event>
 6    0  0.2572175E+002  0.2458104E+03  0.7546771E-02  0.1115982E+00
          2   -1    0    0  505    0 -0.00000000000E+00  0.00000000000E+00  0.77339632280E+03  0.77339632280E+03  0.00000000000E+00 0.  1.
         21   -1    0    0  503  502  0.00000000000E+00 -0.00000000000E+00 -0.22212263200E+03  0.22212263200E+03  0.00000000000E+00 0. -1.
         21    1    1    2  503  501 -0.18823318811E+03 -0.71898297297E+02  0.21367178259E+03  0.29369495899E+03  0.00000000000E+00 0.  1.
         21    1    1    2  504  502  0.16858133824E+03  0.82290433649E+02 -0.10584969793E+03  0.21539624329E+03  0.00000000000E+00 0. -1.
         21    1    1    2  505  504  0.30980743740E+02  0.42650608371E+02  0.15350875712E+02  0.54904738067E+02  0.00000000000E+00 0.  1.
          2    1    1    2  501    0 -0.11328893873E+02 -0.53042744723E+02  0.42810073044E+03  0.43152301445E+03  0.00000000000E+00 0.  1.
<scales pt_clust_3="225.79964" pt_clust_4="51.49703" pt_clust_5="51.49703" pt_clust_6="54.23907"></scales>
<clustering>
<clus scale="   51.497">  4  5 -1 -1</clus>
<clus scale="   54.239">  1  6  2 -1</clus>
<clus scale="  225.800">  1  3  2 -1</clus>
<clus scale="  245.810">  2  3  1 -1</clus>
</clustering>
</event>
<event>
 6    0  0.2572175E+002  0.8777538E+02  0.7546771E-02  0.1308330E+00
          2   -1    0    0  503    0 -0.00000000000E+00  0.00000000000E+00  0.32108297381E+04  0.32108297381E+04  0.00000000000E+00 0. -1.
         21   -1    0    0  501  502  0.00000000000E+00 -0.00000000000E+00 -0.10884464931E+03  0.10884464931E+03  0.00000000000E+00 0.  1.
         21    1    1    2  503  505 -0.29775143370E+02  0.77569407494E+02  0.33891010957E+02  0.89733899756E+02  0.00000000000E+00 0.  1.
         21    1    1    2  504  502 -0.73948576556E+02  0.33137330198E+02 -0.54444180816E+00  0.81035615899E+02  0.00000000000E+00 0.  1.
         21    1    1    2  505  504  0.80311896305E+02 -0.58458486991E+02  0.22017072817E+02  0.10174550056E+03  0.00000000000E+00 0.  1.
          2    1    1    2  501    0  0.23411823621E+02 -0.52248250700E+02  0.30466214468E+04  0.30471593711E+04  0.00000000000E+00 0. -1.
<scales pt_clust_3="61.54420" pt_clust_4="14000.00000" pt_clust_5="87.77538" pt_clust_6="57.25376"></scales>
<clustering>
<clus scale="   57.254">  1  6  2 -1</clus>
<clus scale="   61.544">  1  3  2 -1</clus>
<clus scale="   87.775">  1  5  2 -1</clus>
<clus scale="   87.775">  2  3  1 -1</clus>
</clustering>
</event>
<event>
 6    0  0.2572175E+002  0.1171441E+03  0.7546771E-02  0.1247884E+00
         21   -1    0    0  501  502  0.00000000000E+00  0.00000000000E+00  0.45735946850E+02  0.45735946850E+02  0.00000000000E+00 0.  1.
          1   -1    0    0  504    0 -0.00000000000E+00 -0.00000000000E+00 -0.21344859034E+04  0.21344859034E+04  0.00000000000E+00 0.  1.
         21    1    1    2  503  505 -0.11792766676E+03  0.59697507489E+02 -0.59058302440E+03  0.60519338702E+03  0.00000000000E+00 0.  1.
         21    1    1    2  504  503  0.26494240728E+02  0.35217594717E+02 -0.11142826758E+03  0.11982688590E+03  0.00000000000E+00 0.  1.
         21    1    1    2  505  502  0.54935470235E+02 -0.10458545496E+03 -0.68774293032E+02  0.13669647641E+03  0.00000000000E+00 0.  1.
          1    1    1    2  501    0  0.36497955793E+02  0.96703527572E+01 -0.13179643715E+04  0.13185051009E+04  0.00000000000E+00 0.  1.
<scales pt_clust_3="14000.00000" pt_clust_4="48.38676" pt_clust_5="117.14409" pt_clust_6="37.75734"></scales>
<clustering>
<clus scale="   37.757">  2  6  1 -1</clus>
<clus scale="   48.387">  2  4  1 -1</clus>
<clus scale="  117.144">  1  5  2 -1</clus>
<clus scale="  117.144">  1  3  2 -1</clus>
</clustering>
</event>
<event>
 6    0  0.2572175E+002  0.1048257E+03  0.7546771E-02  0.1270463E+00
          2   -1    0    0  504    0 -0.00000000000E+00  0.00000000000E+00  0.15454266008E+04  0.15454266008E+04  0.00000000000E+00 0. -1.
         21   -1    0    0  505  502  0.00000000000E+00 -0.00000000000E+00 -0.74464840717E+02  0.74464840717E+02  0.00000000000E+00 0. -1.
         21    1    1    2  503  502  0.37682386659E+02 -0.17216390121E+01 -0.30559030331E+02  0.48546685160E+02  0.00000000000E+00 0. -1.
         21    1    1    2  504  503  0.79011011925E+02 -0.58935398213E+02  0.66288746098E+03  0.67017602694E+03  0.00000000000E+00 0. -1.
         21    1    1    2  505  501 -0.47131846391E+01  0.31796891313E+02 -0.17948904716E+02  0.36816023510E+02  0.00000000000E+00 0. -1.
          2    1    1    2  501    0 -0.11198021394E+03  0.28860145912E+02  0.85658223411E+03  0.86435270586E+03  0.00000000000E+00 0. -1.
<scales pt_clust_3="41.97318" pt_clust_4="14000.00000" pt_clust_5="32.14431" pt_clust_6="104.82573"></scales>
<clustering>
<clus scale="   32.144">  2  5  1 -1</clus>
<clus scale="   41.973">  2  3  1 -1</clus>
<clus scale="  104.826">  2  6  1 -1</clus>
<clus scale="   32.144">  2  3  1 -1</clus>
</clustering>
</event>
<event>
 6    0  0.2572175E+002  0.9603203E+02  0.7546771E-02  0.1288868E+00
         21   -1    0    0  505  502  0.00000000000E+00  0.00000000000E+00  0.11953892272E+03  0.11953892272E+03  0.00000000000E+00 0.  1.
          1   -1    0    0  504    0 -0.00000000000E+00 -0.00000000000E+00 -0.26041593413E+04  0.26041593413E+04  0.00000000000E+00 0. -1.
         21    1    1    2  503  501 -0.43249019856E+02  0.49852529437E+02 -0.24045010170E+03  0.24934314472E+03  0.00000000000E+00 0.  1.
         21    1    1    2  504  502  0.82210263902E+02 -0.63860904390E+02  0.72022354394E+02  0.12658578962E+03  0.00000000000E+00 0.  1.
         21    1    1    2  505  503 -0.53047005598E+02  0.48421547319E+02 -0.66852414354E+02  0.98121742507E+02  0.00000000000E+00 0. -1.
          1    1    1    2  501    0  0.14085761552E+02 -0.34413172366E+02 -0.22493402569E+04  0.22496475871E+04  0.00000000000E+00 0. -1.
<scales pt_clust_3="42.47914" pt_clust_4="14000.00000" pt_clust_5="96.03203" pt_clust_6="37.18434"></scales>
<clustering>
<clus scale="   37.184">  2  6  1 -1</clus>
<clus scale="   42.479">  2  3  1 -1</clus>
<clus scale="   96.032">  2  5  1 -1</clus>
<clus scale="   96.032">  1  3  2 -1</clus>
</clustering>
</event>
<event>
 6    0  0.2572175E+002  0.8668656E+02  0.7546771E-02  0.1311080E+00
         21   -1    0    0  505  502  0.00000000000E+00  0.00000000000E+00  0.96857132478E+03  0.96857132478E+03  0.00000000000E+00 0.  1.
         -4   -1    0    0    0  501 -0.00000000000E+00 -0.00000000000E+00 -0.14245769685E+04  0.14245769685E+04  0.00000000000E+00 0.  1.
         21    1    1    2  503  502 -0.87870130544E+02  0.52650286519E+02  0.22662579670E+03  0.24870155657E+03  0.00000000000E+00 0.  1.
         21    1    1    2  504  503  0.52848557250E+02 -0.55687243248E+02  0.27550984738E+02  0.81566511658E+02  0.00000000000E+00 0.  1.
         21    1    1    2  505  501  0.56554005065E+02  0.35771498205E+02  0.67441589100E+03  0.67772763674E+03  0.00000000000E+00 0.  1.
         -4    1    1    2    0  504 -0.21532431771E+02 -0.32734541476E+02 -0.13845983162E+04  0.13851525883E+04  0.00000000000E+00 0.  1.
<scales pt_clust_3="86.68656" pt_clust_4="14000.00000" pt_clust_5="65.43217" pt_clust_6="39.18158"></scales>
<clustering>
<clus scale="   39.182">  2  6  1 -1</clus>
<clus scale="   65.432">  1  5  2 -1</clus>
<clus scale="   86.687">  1  3  2 -1</clus>
<clus scale="   65.432">  1  3  2 -1</clus>
</clustering>
</event>
<event>
 6    0  0.2572175E+002  0.8477924E+02  0.7546771E-02  0.1316011E+00
         21   -1    0    0  503  502  0.00000000000E+00  0.00000000000E+00  0.13950744722E+03  0.13950744722E+03  0.00000000000E+00 0. -1.
         -1   -1    0    0    0  501 -0.00000000000E+00 -0.00000000000E+00 -0.71857569723E+03  0.71857569723E+03  0.00000000000E+00 0.  1.
         21    1    1    2  503  504 -0.24799760687E+01 -0.11906574236E+03 -0.97531604901E+02  0.15393250222E+03  0.00000000000E+00 0. -1.
         21    1    1    2  504  501 -0.47448837232E+02  0.55565706577E+02 -0.31573909144E+02  0.79598063046E+02  0.00000000000E+00 0. -1.
         21    1    1    2  505  502  0.81018798575E+02  0.36674527536E+02  0.63610340459E+02  0.10934048704E+03  0.00000000000E+00 0. -1.
         -1    1    1    2    0  505 -0.31089985275E+02  0.26825508243E+02 -0.51357307642E+03  0.51521209215E+03  0.00000000000E+00 0.  1.
<scales pt_clust_3="14000.00000" pt_clust_4="84.13490" pt_clust_5="84.77924" pt_clust_6="41.06331"></scales>
<clustering>
<clus scale="   41.063">  2  6  1 -1</clus>
<clus scale="   84.135">  2  4  1 -1</clus>
<clus scale="   84.779">  1  5  2 -1</clus>
<clus scale="   84.779">  1  3  2 -1</clus>
</clustering>
</event>
<event>
 6    0  0.2572175E+002  0.1164517E+03  0.7546771E-02  0.1249068E+00
          4   -1    0    0  504    0 -0.00000000000E+00  0.00000000000E+00  0.95005632834E+03  0.95005632834E+03  0.00000000000E+00 0.  1.
         21   -1    0    0  503  502  0.00000000000E+00 -0.00000000000E+00 -0.16766127302E+03  0.16766127302E+03  0.00000000000E+00 0. -1.
         21    1    1    2  503  501 -0.11710860259E+03  0.10034009031E+02 -0.99908381616E+02  0.15426208495E+03  0.00000000000E+00 0. -1.
         21    1    1    2  504  505 -0.36487956356E+01  0.72570242727E+02  0.19911565438E+03  0.21195942456E+03  0.00000000000E+00 0.  1.
         21    1    1    2  505  502  0.10638424631E+03 -0.53284849672E+02  0.71243707152E+02  0.13868146551E+03  0.00000000000E+00 0.  1.
          4    1    1    2  501    0  0.14373151910E+02 -0.29319402085E+02  0.61194407540E+03  0.61281462633E+03  0.00000000000E+00 0.  1.
<scales pt_clust_3="116.45173" pt_clust_4="54.96120" pt_clust_5="14000.00000" pt_clust_6="32.65295"></scales>
<clustering>
<clus scale="   32.653">  1  6  2 -1</clus>
<clus scale="   54.961">  1  4  2 -1</clus>
<clus scale="  116.452">  2  3  1 -1</clus>
<clus scale="  116.452">  2  3  1 -1</clus>
</clustering>
</event>
<event>
 6    0  0.2572175E+002  0.1065171E+03  0.7546771E-02  0.1267159E+00
          1   -1    0    0  505    0 -0.00000000000E+00  0.00000000000E+00  0.25323735803E+04  0.25323735803E+04  0.00000000000E+00 0. -1.
         21   -1    0    0  501  502  0.00000000000E+00 -0.00000000000E+00 -0.46431789113E+02  0.46431789113E+02  0.00000000000E+00 0. -1.
         21    1    1    2  503  504  0.70697862237E+02  0.34316905101E+02  0.12352881065E+02  0.79551438523E+02  0.00000000000E+00 0. -1.
         21    1    1    2  504  502 -0.15986177540E+02  0.71546099965E+02  0.11513825112E+03  0.13649622399E+03  0.00000000000E+00 0. -1.
         21    1    1    2  505  503 -0.15149624342E+02 -0.37154517783E+02  0.15290033590E+04  0.15295297451E+04  0.00000000000E+00 0. -1.
          1    1    1    2  501    0 -0.39562060355E+02 -0.68708487283E+02  0.82944729996E+03  0.83322796176E+03  0.00000000000E+00 0. -1.
<scales pt_clust_3="106.51712" pt_clust_4="69.23616" pt_clust_5="40.12442" pt_clust_6="14000.00000"></scales>
<clustering>
<clus scale="   40.124">  1  5  2 -1</clus>
<clus scale="   69.236">  2  4  1 -1</clus>
<clus scale="  106.517">  2  3  1 -1</clus>
<clus scale="   69.236">  2  3  1 -1</clus>
</clustering>
</event>
<event>
 6    0  0.2572175E+002  0.1483615E+03  0.7546771E-02  0.1202501E+00
          2   -1    0    0  504    0 -0.00000000000E+00  0.00000000000E+00  0.97156100368E+03  0.97156100368E+03  0.00000000000E+00 0.  1.
         21   -1    0    0  503  502  0.00000000000E+00 -0.00000000000E+00 -0.43084482067E+03  0.43084482067E+03  0.00000000000E+00 0.  1.
         21    1    1    2  503  505  0.10441098735E+03  0.47895001395E+02 -0.26769991631E+03  0.29130539067E+03  0.00000000000E+00 0.  1.
         21    1    1    2  504  502 -0.36520505535E+02  0.40566435639E+02 -0.10183045110E+03  0.11553711004E+03  0.00000000000E+00 0.  1.
         21    1    1    2  505  501 -0.19642288833E+03 -0.25454563234E+02  0.24478535268E+03  0.31488054042E+03  0.00000000000E+00 0.  1.
          2    1    1    2  501    0  0.12853240652E+03 -0.63006873801E+02  0.66546119775E+03  0.68068278323E+03  0.00000000000E+00 0.  1.
<scales pt_clust_3="110.42212" pt_clust_4="54.58372" pt_clust_5="148.36146" pt_clust_6="14000.00000"></scales>
<clustering>
<clus scale="   54.584">  2  4  1 -1</clus>
<clus scale="  110.422">  2  3  1 -1</clus>
<clus scale="  148.361">  2  5  1 -1</clus>
<clus scale="   54.584">  2  3  1 -1</clus>
</clustering>
</event>
<event>
 6    0  0.2572175E+002  0.1298108E+03  0.7546771E-02  0.1227737E+00
          2   -1    0    0  504    0 -0.00000000000E+00  0.00000000000E+00  0.78944757261E+03  0.78944757261E+03  0.00000000000E+00 0. -1.
         21   -1    0    0  505  502  0.00000000000E+00 -0.00000000000E+00 -0.61789048356E+03  0.61789048356E+03  0.00000000000E+00 0. -1.
         21    1    1    2  503  502 -0.14169503133E+03 -0.29737051486E+02 -0.52058521236E+03  0.54034316638E+03  0.00000000000E+00 0. -1.
         21    1    1    2  504  503  0.58708753340E+02 -0.71723202980E+01  0.72494856698E+03  0.72735726068E+03  0.00000000000E+00 0. -1.
         21    1    1    2  505  501 -0.61136058360E+01  0.40049671967E+02 -0.30046863930E+02  0.50439730700E+02  0.00000000000E+00 0.  1.
          2    1    1    2  501    0  0.89099883824E+02 -0.31403001830E+01 -0.27594016468E+01  0.89197898407E+02  0.00000000000E+00 0. -1.
<scales pt_clust_3="14000.00000" pt_clust_4="59.12252" pt_clust_5="40.51361" pt_clust_6="129.81076"></scales>
<clustering>
<clus scale="   40.514">  2  5  1 -1</clus>
<clus scale="   59.123">  1  4  2 -1</clus>
<clus scale="  129.811">  1  6  2 -1</clus>
<clus scale="   40.514">  2  3  1 -1</clus>
</clustering>
</event>
<event>
 6    0  0.2572175E+002  0.1036423E+03  0.7546771E-02  0.1272818E+00
         21   -1    0    0  505  502  0.00000000000E+00  0.00000000000E+00  0.19709027764E+03  0.19709027764E+03  0.00000000000E+00 0. -1.
          2   -1    0    0  503    0 -0.00000000000E+00 -0.00000000000E+00 -0.19094160070E+04  0.19094160070E+04  0.00000000000E+00 0. -1.
         21    1    1    2  503  504 -0.15203843659E+02  0.32100381038E+02 -0.77838576051E+02  0.85559542112E+02  0.00000000000E+00 0.  1.
         21    1    1    2  504  502  0.15456613112E+03  0.65477315427E+02 -0.77886348578E+03  0.79674732331E+03  0.00000000000E+00 0. -1.
         21    1    1    2  505  501 -0.10172589172E+03 -0.13172966795E+02  0.16776921168E+03  0.19664229578E+03  0.00000000000E+00 0. -1.
          2    1    1    2  501    0 -0.37636395740E+02 -0.84404729669E+02 -0.10233928792E+04  0.10275571234E+04  0.00000000000E+00 0. -1.
<scales pt_clust_3="35.51889" pt_clust_4="14000.00000" pt_clust_5="103.64231" pt_clust_6="80.86757"></scales>
<clustering>
<clus scale="   35.519">  2  3  1 -1</clus>
<clus scale="   80.868">  2  6  1 -1</clus>
<clus scale="  103.642">  1  5  2 -1</clus>
<clus scale="  103.642">  1  3  2 -1</clus>
</clustering>
</event>
<event>
 6    0  0.2572175E+002  0.9966236E+02  0.7546771E-02  0.1281008E+00
         21   -1    0    0  504  502  0.00000000000E+00  0.00000000000E+00  0.15928822712E+02  0.15928822712E+02  0.00000000000E+00 0.  1.
          2   -1    0    0  503    0 -0.00000000000E+00 -0.00000000000E+00 -0.15714331820E+04  0.15714331820E+04  0.00000000000E+00 0.  1.
         21    1    1    2  503  505  0.11733274947E+03  0.14846879443E+02 -0.85045727072E+03  0.85864135309E+03  0.00000000000E+00 0.  1.
         21    1    1    2  504  501 -0.23728517541E+02  0.46091184624E+02 -0.21840709882E+03  0.22447516713E+03  0.00000000000E+00 0.  1.
         21    1    1    2  505  502 -0.71952979154E+02 -0.94235798147E+01 -0.21496397841E+03  0.22688223174E+03  0.00000000000E+00 0.  1.
          2    1    1    2  501    0 -0.21651252774E+02 -0.51514484252E+02 -0.27167601137E+03  0.27736325277E+03  0.00000000000E+00 0.  1.
<scales pt_clust_3="99.66236" pt_clust_4="51.84052" pt_clust_5="14000.00000" pt_clust_6="49.32130"></scales>
<clustering>
<clus scale="   51.841">  1  4  2 -1</clus>
<clus scale="   49.321">  1  6  2 -1</clus>
<clus scale="   99.662">  2  3  1 -1</clus>
<clus scale="   51.841">  1  3  2 -1</clus>
</clustering>
</event>
<event>
 6    0  0.2572175E+002  0.9853439E+02  0.7546771E-02  0.1283408E+00
          1   -1    0    0  504    0 -0.00000000000E+00  0.00000000000E+00  0.22852961958E+04  0.22852961958E+04  0.00000000000E+00 0. -1.
         21   -1    0    0  505  502  0.00000000000E+00 -0.00000000000E+00 -0.76201839071E+02  0.76201839071E+02  0.00000000000E+00 0.  1.
         21    1    1    2  503  502 -0.24519945369E+02  0.48944000075E+02  0.14705348392E+02  0.56683243870E+02  0.00000000000E+00 0.  1.
         21    1    1    2  504  503  0.70399805684E+02  0.16060431046E+02  0.37405779675E+03  0.38096365364E+03  0.00000000000E+00 0. -1.
         21    1    1    2  505  501 -0.82345885357E+02 -0.55978103649E+02 -0.35005188056E+01  0.99632557707E+02  0.00000000000E+00 0.  1.
          1    1    1    2  501    0  0.36466025041E+02 -0.90263274720E+01  0.18238317304E+04  0.18242185797E+04  0.00000000000E+00 0. -1.
<scales pt_clust_3="52.90027" pt_clust_4="14000.00000" pt_clust_5="98.53439" pt_clust_6="37.56655"></scales>
<clustering>
<clus scale="   37.567">  1  6  2 -1</clus>
<clus scale="   52.900">  2  3  1 -1</clus>
<clus scale="   98.534">  2  5  1 -1</clus>
<clus scale="   52.900">  2  3  1 -1</clus>
</clustering>
</event>
<event>
 6    0  0.2572175E+002  0.1035496E+03  0.7546771E-02  0.1273004E+00
         21   -1    0    0  504  502  0.00000000000E+00  0.00000000000E+00  0.11325792526E+04  0.11325792526E+04  0.00000000000E+00 0. -1.
         -2   -1    0    0    0  501 -0.00000000000E+00 -0.00000000000E+00 -0.13272274989E+04  0.13272274989E+04  0.00000000000E+00 0. -1.
         21    1    1    2  503  505 -0.10147956630E+03 -0.57949921845E+02 -0.19514798975E+03  0.22746215888E+03  0.00000000000E+00 0.  1.
         21    1    1    2  504  501  0.20685868849E+02  0.69858312477E+02  0.26472072267E+03  0.27456356277E+03  0.00000000000E+00 0. -1.
         21    1    1    2  505  502  0.54592641559E+02  0.40217935288E+01  0.84568337044E+03  0.84745318122E+03  0.00000000000E+00 0. -1.
         -2    1    1    2    0  503  0.26201055889E+02 -0.15930184162E+02 -0.11099043496E+04  0.11103278486E+04  0.00000000000E+00 0. -1.
<scales pt_clust_3="14000.00000" pt_clust_4="103.54965" pt_clust_5="54.84236" pt_clust_6="30.66376"></scales>
<clustering>
<clus scale="   30.664">  2  6  1 -1</clus>
<clus scale="   54.842">  1  5  2 -1</clus>
<clus scale="  103.550">  1  4  2 -1</clus>
<clus scale="   54.842">  1  3  2 -1</clus>
</clustering>
</event>
<event>
 6    0  0.2572175E+002  0.9066092E+02  0.7546771E-02  0.1301259E+00
          2   -1    0    0  503    0 -0.00000000000E+00  0.00000000000E+00  0.89838027166E+03  0.89838027166E+03  0.00000000000E+00 0. -1.
         21   -1    0    0  501  502  0.00000000000E+00 -0.00000000000E+00 -0.58410847227E+02  0.58410847227E+02  0.00000000000E+00 0. -1.
         21    1    1    2  503  504  0.69877374153E+02  0.87681033264E+02  0.18152151067E+03  0.21335620415E+03  0.00000000000E+00 0. -1.
         21    1    1    2  504  505 -0.50566291610E+02 -0.34862761875E+02  0.37712864016E+02  0.72073727009E+02  0.00000000000E+00 0. -1.
         21    1    1    2  505  502 -0.11118399014E+02  0.36164718442E+02 -0.59823470426E+01  0.38305275521E+02  0.00000000000E+00 0. -1.
          2    1    1    2  501    0 -0.81926835286E+01 -0.88982989831E+02  0.62671739679E+03  0.63305591221E+03  0.00000000000E+00 0. -1.
<scales pt_clust_3="14000.00000" pt_clust_4="58.58105" pt_clust_5="37.83524" pt_clust_6="90.66092"></scales>
<clustering>
<clus scale="   37.835">  2  5  1 -1</clus>
<clus scale="   58.581">  2  4  1 -1</clus>
<clus scale="   90.661">  1  6  2 -1</clus>
<clus scale="   37.835">  2  3  1 -1</clus>
</clustering>
</event>
<event>
 6    0  0.2572175E+002  0.1814488E+03  0.7546771E-02  0.1166408E+00
          2   -1    0    0  504    0 -0.00000000000E+00  0.00000000000E+00  0.32163759289E+04  0.32163759289E+04  0.00000000000E+00 0.  1.
         21   -1    0    0  503  502  0.00000000000E+00 -0.00000000000E+00 -0.47128837180E+02  0.47128837180E+02  0.00000000000E+00 0. -1.
         21    1    1    2  503  505  0.44916160059E+02  0.17835711066E+03  0.20727313747E+03  0.27711166319E+03  0.00000000000E+00 0. -1.
         21    1    1    2  504  502 -0.48574615621E+02 -0.72936521110E+00  0.16663663210E+03  0.17357359366E+03  0.00000000000E+00 0. -1.
         21    1    1    2  505  501  0.77429160276E+02 -0.19365646718E+03  0.14008764897E+04  0.14163167165E+04  0.00000000000E+00 0. -1.
          2    1    1    2  501    0 -0.73770704714E+02  0.16028721738E+02  0.13944608325E+04  0.13965027927E+04  0.00000000000E+00 0.  1.
<scales pt_clust_3="181.44877" pt_clust_4="48.58009" pt_clust_5="14000.00000" pt_clust_6="76.59878"></scales>
<clustering>
<clus scale="   48.580">  2  4  1 -1</clus>
<clus scale="   76.599">  1  6  2 -1</clus>
<clus scale="  181.449">  2  3  1 -1</clus>
<clus scale="   48.580">  2  3  1 -1</clus>
</clustering>
</event>
<event>
 6    0  0.2572175E+002  0.1110833E+03  0.7546771E-02  0.1258577E+00
         -1   -1    0    0    0  501 -0.00000000000E+00  0.00000000000E+00  0.11526745487E+04  0.11526745487E+04  0.00000000000E+00 0.  1.
         21   -1    0    0  505  502  0.00000000000E+00 -0.00000000000E+00 -0.17039463685E+03  0.17039463685E+03  0.00000000000E+00 0.  1.
         21    1    1    2  503  504 -0.79593012421E+02 -0.10050832578E+03  0.38619635117E+03  0.40692086802E+03  0.00000000000E+00 0.  1.
         21    1    1    2  504  502 -0.85089309688E+01  0.77672041965E+02 -0.11548991964E+03  0.13943912488E+03  0.00000000000E+00 0.  1.
         21    1    1    2  505  501  0.32498815823E+02  0.33986001808E+02 -0.13890304661E+02  0.49032253797E+02  0.00000000000E+00 0. -1.
         -1    1    1    2    0  503  0.55603127566E+02 -0.11149717993E+02  0.72546378501E+03  0.72767693888E+03  0.00000000000E+00 0.  1.
<scales pt_clust_3="14000.00000" pt_clust_4="111.08327" pt_clust_5="47.02363" pt_clust_6="56.91145"></scales>
<clustering>
<clus scale="   47.024">  2  5  1 -1</clus>
<clus scale="   56.911">  1  6  2 -1</clus>
<clus scale="  111.083">  2  4  1 -1</clus>
<clus scale="   47.024">  2  3  1 -1</clus>
</clustering>
</event>
<event>
 6    0  0.2572175E+002  0.1109306E+03  0.7546771E-02  0.1258856E+00
          1   -1    0    0  503    0 -0.00000000000E+00  0.00000000000E+00  0.17029538960E+04  0.17029538960E+04  0.00000000000E+00 0.  1.
         21   -1    0    0  504  502  0.00000000000E+00 -0.00000000000E+00 -0.13588185486E+03  0.13588185486E+03  0.00000000000E+00 0.  1.
         21    1    1    2  503  505 -0.21428550561E+01 -0.12457757394E+03  0.97245559443E+03  0.98040504227E+03  0.00000000000E+00 0.  1.
         21    1    1    2  504  501  0.10632413763E+02  0.36249157169E+02 -0.12287821216E+02  0.39724553719E+02  0.00000000000E+00 0. -1.
         21    1    1    2  505  502 -0.44206989348E+02  0.70531445766E+02 -0.88883315880E+02  0.12177514767E+03  0.00000000000E+00 0.  1.
          1    1    1    2  501    0  0.35717430641E+02  0.17796971000E+02  0.69578758382E+03  0.69693100722E+03  0.00000000000E+00 0.  1.
<scales pt_clust_3="110.93062" pt_clust_4="37.77631" pt_clust_5="14000.00000" pt_clust_6="40.03962"></scales>
<clustering>
<clus scale="   37.776">  2  4  1 -1</clus>
<clus scale="   40.040">  1  6  2 -1</clus>
<clus scale="  110.931">  1  3  2 -1</clus>
<clus scale="   37.776">  2  3  1 -1</clus>
</clustering>
</event>
<event>
 6    0  0.2572175E+002  0.9052263E+02  0.7546771E-02  0.1301591E+00
          1   -1    0    0  503    0 -0.00000000000E+00  0.00000000000E+00  0.23275561376E+04  0.23275561376E+04  0.00000000000E+00 0.  1.
         21   -1    0    0  504  502  0.00000000000E+00 -0.00000000000E+00 -0.30950878752E+03  0.30950878752E+03  0.00000000000E+00 0.  1.
         21    1    1    2  503  502 -0.41013537652E+02  0.11056448351E+03 -0.27723724357E+03  0.30127579475E+03  0.00000000000E+00 0.  1.
         21    1    1    2  504  505 -0.14933012823E+02 -0.54451651736E+02  0.21828791657E+02  0.60534894019E+02  0.00000000000E+00 0.  1.
         21    1    1    2  505  501  0.38447008802E+02 -0.82479754537E+01  0.10579925288E+04  0.10587230009E+04  0.00000000000E+00 0.  1.
          1    1    1    2  501    0  0.17499541673E+02 -0.47864856321E+02  0.12154632732E+04  0.12165312355E+04  0.00000000000E+00 0.  1.
<scales pt_clust_3="79.32501" pt_clust_4="56.46218" pt_clust_5="38.30713" pt_clust_6="38.30713"></scales>
<clustering>
<clus scale="   38.307">  5  6 -1 -1</clus>
<clus scale="   56.462">  2  4  1 -1</clus>
<clus scale="   79.325">  2  3  1 -1</clus>
<clus scale="   56.462">  2  3  1 -1</clus>
</clustering>
</event>
<event>
 6    0  0.2572175E+002  0.1637219E+03  0.7546771E-02  0.1184558E+00
          2   -1    0    0  503    0 -0.00000000000E+00  0.00000000000E+00  0.17011005811E+04  0.17011005811E+04  0.00000000000E+00 0.  1.
         21   -1    0    0  504  502  0.00000000000E+00 -0.00000000000E+00 -0.72116854278E+02  0.72116854278E+02  0.00000000000E+00 0.  1.
         21    1    1    2  503  505  0.10210796235E+03  0.55745858742E+02  0.67834870091E+03  0.68825184110E+03  0.00000000000E+00 0.  1.
         21    1    1    2  504  501 -0.55437733147E+02 -0.14646797137E+03  0.80283200374E+02  0.17598750284E+03  0.00000000000E+00 0.  1.
         21    1    1    2  505  502 -0.59979132980E+02 -0.62739046191E+01  0.38860321186E+02  0.71742475807E+02  0.00000000000E+00 0.  1.
          2    1    1    2  501    0  0.13308903774E+02  0.96996017247E+02  0.83149150431E+03  0.83723561560E+03  0.00000000000E+00 0.  1.
<scales pt_clust_3="163.72193" pt_clust_4="14000.00000" pt_clust_5="60.30637" pt_clust_6="97.21055"></scales>
<clustering>
<clus scale="   60.306">  2  5  1 -1</clus>
<clus scale="   97.211">  1  6  2 -1</clus>
<clus scale="  163.722">  1  3  2 -1</clus>
<clus scale="   60.306">  2  3  1 -1</clus>
</clustering>
</event>
<event>
 6    0  0.2572175E+002  0.7283960E+02  0.7546771E-02  0.1350695E+00
         21   -1    0    0  504  502  0.00000000000E+00  0.00000000000E+00  0.43873944379E+03  0.43873944379E+03  0.00000000000E+00 0. -1.
          4   -1    0    0  503    0 -0.00000000000E+00 -0.00000000000E+00 -0.65112924866E+03  0.65112924866E+03  0.00000000000E+00 0. -1.
         21    1    1    2  503  505  0.97338071366E+02  0.86148999116E+01  0.28392021318E+03  0.30026588898E+03  0.00000000000E+00 0. -1.
         21    1    1    2  504  501 -0.15007374318E+02 -0.33512027204E+02  0.68013088849E+01  0.37343474046E+02  0.00000000000E+00 0. -1.
         21    1    1    2  505  502 -0.42620994117E+02 -0.36400904365E+02  0.11601229163E+03  0.12884264352E+03  0.00000000000E+00 0. -1.
          4    1    1    2  501    0 -0.39709702932E+02  0.61298031658E+02 -0.61912361857E+03  0.62341668590E+03  0.00000000000E+00 0. -1.
<scales pt_clust_3="14000.00000" pt_clust_4="36.71890" pt_clust_5="65.95993" pt_clust_6="72.83960"></scales>
<clustering>
<clus scale="   36.719">  1  4  2 -1</clus>
<clus scale="   65.960">  1  5  2 -1</clus>
<clus scale="   72.840">  2  6  1 -1</clus>
<clus scale="   36.719">  1  3  2 -1</clus>
</clustering>
</event>
<event>
 6    0  0.2572175E+002  0.1003714E+03  0.7546771E-02  0.1279517E+00
         21   -1    0    0  503  502  0.00000000000E+00  0.00000000000E+00  0.10023205911E+03  0.10023205911E+03  0.00000000000E+00 0. -1.
          1   -1    0    0  504    0 -0.00000000000E+00 -0.00000000000E+00 -0.80524861748E+03  0.80524861748E+03  0.00000000000E+00 0. -1.
         21    1    1    2  503  501 -0.10474669897E+03  0.40486959645E+02  0.21070832171E+02  0.11425867501E+03  0.00000000000E+00 0. -1.
         21    1    1    2  504  505  0.44847609495E+01  0.49179457607E+02 -0.11207130270E+03  0.12246921662E+03  0.00000000000E+00 0. -1.
         21    1    1    2  505  502  0.62367689204E+02 -0.60211626694E+02 -0.44921020296E+02  0.97637424742E+02  0.00000000000E+00 0. -1.
          1    1    1    2  501    0  0.37894248813E+02 -0.29454790558E+02 -0.56909506754E+03  0.57111536022E+03  0.00000000000E+00 0. -1.
<scales pt_clust_3="14000.00000" pt_clust_4="41.66926" pt_clust_5="100.37137" pt_clust_6="47.99540"></scales>
<clustering>
<clus scale="   47.995">  2  6  1 -1</clus>
<clus scale="   41.669">  2  4  1 -1</clus>
<clus scale="  100.371">  2  5  1 -1</clus>
<clus scale="  100.371">  1  3  2 -1</clus>
</clustering>
</event>
<event>
 6    0  0.2572175E+002  0.1171781E+03  0.7546771E-02  0.1247826E+00
          4   -1    0    0  504    0 -0.00000000000E+00  0.00000000000E+00  0.23438960134E+03  0.23438960134E+03  0.00000000000E+00 0. -1.
         21   -1    0    0  503  502  0.00000000000E+00 -0.00000000000E+00 -0.18676367541E+03  0.18676367541E+03  0.00000000000E+00 0.  1.
         21    1    1    2  503  501  0.92420386745E+02 -0.55680333569E+01  0.75293893539E+01  0.92893608960E+02  0.00000000000E+00 0.  1.
         21    1    1    2  504  505 -0.55994712831E+02  0.54978234547E+02 -0.83914557536E+02  0.11488980418E+03  0.00000000000E+00 0.  1.
         21    1    1    2  505  502 -0.40592606127E+02  0.31699518040E+02 -0.13877492778E+02  0.53340452960E+02  0.00000000000E+00 0. -1.
          4    1    1    2  501    0  0.41669322137E+01 -0.81109719231E+02  0.13788858689E+03  0.16002941064E+03  0.00000000000E+00 0. -1.
<scales pt_clust_3="108.78746" pt_clust_4="35.27579" pt_clust_5="35.27579" pt_clust_6="81.21668"></scales>
<clustering>
<clus scale="   35.276">  4  5 -1 -1</clus>
<clus scale="   81.217">  1  6  2 -1</clus>
<clus scale="  108.787">  1  3  2 -1</clus>
<clus scale="  117.178">  2  3  1 -1</clus>
</clustering>
</event>
<event>
 6    0  0.2572175E+002  0.9907563E+02  0.7546771E-02  0.1282252E+00
         -3   -1    0    0    0  501 -0.00000000000E+00  0.00000000000E+00  0.11307964543E+04  0.11307964543E+04  0.00000000000E+00 0. -1.
         21   -1    0    0  504  502  0.00000000000E+00 -0.00000000000E+00 -0.73636079767E+03  0.73636079767E+03  0.00000000000E+00 0.  1.
         21    1    1    2  503  501  0.39837453293E+02 -0.69350152530E+02  0.47514661362E+02  0.93027465756E+02  0.00000000000E+00 0.  1.
         21    1    1    2  504  505 -0.46636380029E+02 -0.39451313443E+01 -0.45681301782E+03  0.45920436545E+03  0.00000000000E+00 0.  1.
         21    1    1    2  505  503 -0.45730855806E+02 -0.14060463691E+02 -0.25087771276E+03  0.25539897136E+03  0.00000000000E+00 0.  1.
         -3    1    1    2    0  502  0.52529782543E+02  0.87355747564E+02  0.10546117258E+04  0.10595264494E+04  0.00000000000E+00 0. -1.
<scales pt_clust_3="79.97791" pt_clust_4="30.89702" pt_clust_5="30.89702" pt_clust_6="94.02197"></scales>
<clustering>
<clus scale="   30.897">  4  5 -1 -1</clus>
<clus scale="   79.978">  1  3  2 -1</clus>
<clus scale="   94.022">  1  6  2 -1</clus>
<clus scale="   99.076">  2  3  1 -1</clus>
</clustering>
</event>
<event>
 6    0  0.2572175E+002  0.1088909E+03  0.7546771E-02  0.1262638E+00
          2   -1    0    0  505    0 -0.00000000000E+00  0.00000000000E+00  0.75187713873E+03  0.75187713873E+03  0.00000000000E+00 0. -1.
         21   -1    0    0  504  502  0.00000000000E+00 -0.00000000000E+00 -0.84995504111E+02  0.84995504111E+02  0.00000000000E+00 0. -1.
         21    1    1    2  503  501  0.72607443415E+01  0.11543900679E+03  0.14458757726E+03  0.18516060649E+03  0.00000000000E+00 0. -1.
         21    1    1    2  504  503 -0.37129402084E+02 -0.35436655714E+02 -0.34158829651E+02  0.61653667453E+02  0.00000000000E+00 0. -1.
         21    1    1    2  505  502 -0.29101505536E+02  0.14895859683E+02  0.12906490693E+02  0.35147713470E+02  0.00000000000E+00 0. -1.
          2    1    1    2  501    0  0.58970163278E+02 -0.94898210757E+02  0.54354639632E+03  0.55491065543E+03  0.00000000000E+00 0. -1.
<scales pt_clust_3="14000.00000" pt_clust_4="61.64882" pt_clust_5="32.69227" pt_clust_6="108.89091"></scales>
<clustering>
<clus scale="   32.692">  2  5  1 -1</clus>
<clus scale="   61.649">  2  4  1 -1</clus>
<clus scale="  108.891">  1  6  2 -1</clus>
<clus scale="   32.692">  2  3  1 -1</clus>
</clustering>
</event>
<event>
 6    0  0.2572175E+002  0.1017064E+03  0.7546771E-02  0.1276748E+00
          1   -1    0    0  505    0 -0.00000000000E+00  0.00000000000E+00  0.14592130719E+03  0.14592130719E+03  0.00000000000E+00 0.  1.
         21   -1    0    0  504  502  0.00000000000E+00 -0.00000000000E+00 -0.10028490338E+04  0.10028490338E+04  0.00000000000E+00 0. -1.
         21    1    1    2  503  501 -0.10036839553E+02  0.84151411511E+02 -0.49941264939E+03  0.50655226047E+03  0.00000000000E+00 0. -1.
         21    1    1    2  504  503 -0.47938951351E+02  0.83459057619E+01 -0.39949172799E+03  0.40244432898E+03  0.00000000000E+00 0. -1.
         21    1    1    2  505  502  0.22734424059E+02 -0.98618001134E+02 -0.69452957227E+02  0.12274395078E+03  0.00000000000E+00 0.  1.
          1    1    1    2  501    0  0.35241366844E+02  0.61206838609E+01  0.11142960804E+03  0.11702980072E+03  0.00000000000E+00 0.  1.
<scales pt_clust_3="101.70639" pt_clust_4="47.09494" pt_clust_5="14000.00000" pt_clust_6="35.76893"></scales>
<clustering>
<clus scale="   35.769">  1  6  2 -1</clus>
<clus scale="   47.095">  2  4  1 -1</clus>
<clus scale="  101.706">  2  3  1 -1</clus>
<clus scale="   47.095">  2  3  1 -1</clus>
</clustering>
</event>
<event>
 6    0  0.2572175E+002  0.1565188E+03  0.7546771E-02  0.1192684E+00
         21   -1    0    0  503  502  0.00000000000E+00  0.00000000000E+00  0.28066180893E+03  0.28066180893E+03  0.00000000000E+00 0.  1.
          2   -1    0    0  505    0 -0.00000000000E+00 -0.00000000000E+00 -0.63337184256E+03  0.63337184256E+03  0.00000000000E+00 0. -1.
         21    1    1    2  503  501 -0.10520980056E+03  0.76056597162E+02  0.48277069262E+02  0.13850770203E+03  0.00000000000E+00 0.  1.
         21    1    1    2  504  502 -0.30807761421E+02 -0.63082695281E+01  0.38377953913E+02  0.49616325688E+02  0.00000000000E+00 0.  1.
         21    1    1    2  505  504  0.14006272495E+03 -0.12756914354E+03  0.78311767096E+02  0.20499801504E+03  0.00000000000E+00 0.  1.
          2    1    1    2  501    0 -0.40451629735E+01  0.57820815910E+02 -0.51767682391E+03  0.52091160873E+03  0.00000000000E+00 0. -1.
<scales pt_clust_3="156.51884" pt_clust_4="31.44698" pt_clust_5="14000.00000" pt_clust_6="57.93422"></scales>
<clustering>
<clus scale="   31.447">  1  4  2 -1</clus>
<clus scale="   57.934">  2  6  1 -1</clus>
<clus scale="  156.519">  1  3  2 -1</clus>
<clus scale="   31.447">  1  3  2 -1</clus>
</clustering>
</event>
<event>
 6    0  0.2572175E+002  0.5956096E+02  0.7546771E-02  0.1399683E+00
         21   -1    0    0  504  502  0.00000000000E+00  0.00000000000E+00  0.46324546254E+03  0.46324546254E+03  0.00000000000E+00 0.  1.
          2   -1    0    0  503    0 -0.00000000000E+00 -0.00000000000E+00 -0.10383376929E+04  0.10383376929E+04  0.00000000000E+00 0. -1.
         21    1    1    2  503  502 -0.40389572015E+02 -0.21770000741E+02  0.36851309929E+03  0.37135852597E+03  0.00000000000E+00 0.  1.
         21    1    1    2  504  505  0.59526914762E+02 -0.33999777833E+02  0.60210142568E+02  0.91239792535E+02  0.00000000000E+00 0.  1.
         21    1    1    2  505  501  0.26726090926E+02  0.91942096843E+02 -0.12128780139E+03  0.15452625626E+03  0.00000000000E+00 0.  1.
          2    1    1    2  501    0 -0.45863433673E+02 -0.36172318269E+02 -0.88252767082E+03  0.88445858067E+03  0.00000000000E+00 0. -1.
<scales pt_clust_3="45.88301" pt_clust_4="58.18073" pt_clust_5="59.56096" pt_clust_6="14000.00000"></scales>
<clustering>
<clus scale="   45.883">  1  3  2 -1</clus>
<clus scale="   58.181">  1  4  2 -1</clus>
<clus scale="   59.561">  1  5  2 -1</clus>
<clus scale="   45.883">  1  3  2 -1</clus>
</clustering>
</event>
<event>
 6    0  0.2572175E+002  0.1311092E+03  0.7546771E-02  0.1225819E+00
         21   -1    0    0  503  502  0.00000000000E+00  0.00000000000E+00  0.17171657572E+03  0.17171657572E+03  0.00000000000E+00 0. -1.
          1   -1    0    0  504    0 -0.00000000000E+00 -0.00000000000E+00 -0.96526977198E+03  0.96526977198E+03  0.00000000000E+00 0. -1.
         21    1    1    2  503  501  0.81076471818E+02 -0.13208947630E+02 -0.12246277369E+00  0.82145514649E+02  0.00000000000E+00 0.  1.
         21    1    1    2  504  505 -0.69027435169E+02 -0.99732791109E+02 -0.92638305256E+02  0.15262133543E+03  0.00000000000E+00 0. -1.
         21    1    1    2  505  502 -0.18996082437E+02  0.14699581702E+03  0.45556843254E+02  0.15506143084E+03  0.00000000000E+00 0. -1.
          1    1    1    2  501    0  0.69470457877E+01 -0.34054078276E+02 -0.74634927149E+03  0.74715806678E+03  0.00000000000E+00 0. -1.
<scales pt_clust_3="84.68811" pt_clust_4="131.10923" pt_clust_5="14000.00000" pt_clust_6="34.75546"></scales>
<clustering>
<clus scale="   34.755">  2  6  1 -1</clus>
<clus scale="   84.688">  1  3  2 -1</clus>
<clus scale="  131.109">  2  4  1 -1</clus>
<clus scale="   84.688">  1  3  2 -1</clus>
</clustering>
</event>
<event>
 6    0  0.2572175E+002  0.1453002E+03  0.7546771E-02  0.1206370E+00
          2   -1    0    0  505    0 -0.00000000000E+00  0.00000000000E+00  0.16638363635E+03  0.16638363635E+03  0.00000000000E+00 0. -1.
         21   -1    0    0  503  502  0.00000000000E+00 -0.00000000000E+00 -0.41970803379E+03  0.41970803379E+03  0.00000000000E+00 0. -1.
         21    1    1    2  503  501  0.21974295976E+03 -0.47190921517E+02 -0.76565465154E+02  0.23743677452E+03  0.00000000000E+00 0. -1.
         21    1    1    2  504  502 -0.12570118027E+03 -0.20963960989E+02 -0.17279690907E+03  0.21470688430E+03  0.00000000000E+00 0. -1.
         21    1    1    2  505  504 -0.63250833519E+02  0.51957430024E+02 -0.33367257181E+02  0.88394662324E+02  0.00000000000E+00 0. -1.
          2    1    1    2  501    0 -0.30790945973E+02  0.16197452483E+02  0.29405233956E+02  0.45553348998E+02  0.00000000000E+00 0. -1.
<scales pt_clust_3="145.30022" pt_clust_4="14000.00000" pt_clust_5="89.14049" pt_clust_6="34.79138"></scales>
<clustering>
<clus scale="   34.791">  1  6  2 -1</clus>
<clus scale="   89.140">  1  5  2 -1</clus>
<clus scale="  145.300">  1  3  2 -1</clus>
<clus scale="  145.300">  2  3  1 -1</clus>
</clustering>
</event>
<event>
 6    0  0.2572175E+002  0.1078967E+03  0.7546771E-02  0.1264515E+00
         21   -1    0    0  503  502  0.00000000000E+00  0.00000000000E+00  0.39728249512E+02  0.39728249512E+02  0.00000000000E+00 0.  1.
          2   -1    0    0  505    0 -0.00000000000E+00 -0.00000000000E+00 -0.12139960060E+04  0.12139960060E+04  0.00000000000E+00 0. -1.
         21    1    1    2  503  504 -0.20323383926E+02 -0.23903680717E+02 -0.29820926233E+01  0.31516959918E+02  0.00000000000E+00 0.  1.
         21    1    1    2  504  501  0.59821175163E+02 -0.10770065608E+02 -0.98689139901E+02  0.11590562387E+03  0.00000000000E+00 0.  1.
         21    1    1    2  505  502 -0.10441561465E+03  0.10679386958E+03 -0.40446414867E+03  0.43115982967E+03  0.00000000000E+00 0.  1.
          2    1    1    2  501    0  0.64917823411E+02 -0.72120123250E+02 -0.66813237532E+03  0.67514184208E+03  0.00000000000E+00 0. -1.
<scales pt_clust_3="31.37556" pt_clust_4="56.20572" pt_clust_5="14000.00000" pt_clust_6="107.89668"></scales>
<clustering>
<clus scale="   31.376">  1  3  2 -1</clus>
<clus scale="   56.206">  1  4  2 -1</clus>
<clus scale="  107.897">  2  6  1 -1</clus>
<clus scale="   31.376">  1  3  2 -1</clus>
</clustering>
</event>
<event>
 6    0  0.2572175E+002  0.1820489E+03  0.7546771E-02  0.1165835E+00
          2   -1    0    0  504    0 -0.00000000000E+00  0.00000000000E+00  0.15372498082E+04  0.15372498082E+04  0.00000000000E+00 0.  1.
         21   -1    0    0  505  502  0.00000000000E+00 -0.00000000000E+00 -0.18064672219E+03  0.18064672219E+03  0.00000000000E+00 0.  1.
         21    1    1    2  503  501  0.87475615557E+02  0.15250054511E+03  0.70896976362E+03  0.73044269132E+03  0.00000000000E+00 0.  1.
         21    1    1    2  504  502 -0.80548427111E+02 -0.59590316795E+02  0.17345575983E+02  0.10168541671E+03  0.00000000000E+00 0.  1.
         21    1    1    2  505  503  0.11980747674E+02 -0.11961968998E+03 -0.99007201996E+02  0.15573963719E+03  0.00000000000E+00 0.  1.
          2    1    1    2  501    0 -0.18907936120E+02  0.26709461664E+02  0.72929494844E+03  0.73002878519E+03  0.00000000000E+00 0.  1.
<scales pt_clust_3="182.04886" pt_clust_4="100.17363" pt_clust_5="14000.00000" pt_clust_6="32.72469"></scales>
<clustering>
<clus scale="   32.725">  1  6  2 -1</clus>
<clus scale="  100.174">  2  4  1 -1</clus>
<clus scale="  182.049">  1  3  2 -1</clus>
<clus scale="  100.174">  2  3  1 -1</clus>
</clustering>
</event>
<event>
 6    0  0.2572175E+002  0.8622531E+02  0.7546771E-02  0.1312259E+00
          2   -1    0    0  504    0 -0.00000000000E+00  0.00000000000E+00  0.11858883735E+04  0.11858883735E+04  0.00000000000E+00 0.  1.
         21   -1    0    0  505  502  0.00000000000E+00 -0.00000000000E+00 -0.16216798561E+03  0.16216798561E+03  0.00000000000E+00 0.  1.
         21    1    1    2  503  501  0.88403023013E+02 -0.14311482153E+02  0.25251463890E+03  0.26792453389E+03  0.00000000000E+00 0.  1.
         21    1    1    2  504  502 -0.10775424783E+03 -0.52990739830E+02 -0.10968207498E+03  0.16263195875E+03  0.00000000000E+00 0.  1.
         21    1    1    2  505  503  0.27739753680E+02  0.24602052321E+02  0.15752237315E+01  0.37111133672E+02  0.00000000000E+00 0.  1.
          2    1    1    2  501    0 -0.83885288638E+01  0.42700169662E+02  0.87931260022E+03  0.88038873279E+03  0.00000000000E+00 0.  1.
<scales pt_clust_3="14000.00000" pt_clust_4="86.22531" pt_clust_5="37.07769" pt_clust_6="43.58653"></scales>
<clustering>
<clus scale="   37.078">  2  5  1 -1</clus>
<clus scale="   43.587">  1  6  2 -1</clus>
<clus scale="   86.225">  2  4  1 -1</clus>
<clus scale="   37.078">  2  3  1 -1</clus>
</clustering>
</event>
<event>
 6    0  0.2572175E+002  0.8047496E+02  0.7546771E-02  0.1327709E+00
         21   -1    0    0  504  502  0.00000000000E+00  0.00000000000E+00  0.70138378332E+03  0.70138378332E+03  0.00000000000E+00 0.  1.
          2   -1    0    0  502    0 -0.00000000000E+00 -0.00000000000E+00 -0.19151186647E+04  0.19151186647E+04  0.00000000000E+00 0. -1.
         21    1    1    2  503  505  0.38766071460E+02  0.13195974712E+02  0.33549184760E+03  0.33798183657E+03  0.00000000000E+00 0. -1.
         21    1    1    2  504  503  0.15641349363E+02  0.36017419289E+02  0.35269130628E+03  0.35487048881E+03  0.00000000000E+00 0.  1.
         21    1    1    2  505  501 -0.12713287569E+03 -0.19906220053E+02 -0.41104951722E+03  0.43072117581E+03  0.00000000000E+00 0. -1.
          2    1    1    2  501    0  0.72725454867E+02 -0.29307173948E+02 -0.14908685181E+04  0.14929289469E+04  0.00000000000E+00 0. -1.
<scales pt_clust_3="31.97403" pt_clust_4="31.97403" pt_clust_5="73.55307" pt_clust_6="78.40856"></scales>
<clustering>
<clus scale="   31.974">  3  4 -1 -1</clus>
<clus scale="   78.409">  2  6  1 -1</clus>
<clus scale="   73.553">  2  5  1 -1</clus>
<clus scale="   80.475">  1  3  2 -1</clus>
</clustering>
</event>
<event>
 6    0  0.2572175E+002  0.1307935E+03  0.7546771E-02  0.1226283E+00
         21   -1    0    0  504  502  0.00000000000E+00  0.00000000000E+00  0.28102058074E+03  0.28102058074E+03  0.00000000000E+00 0. -1.
          2   -1    0    0  503    0 -0.00000000000E+00 -0.00000000000E+00 -0.18834140545E+04  0.18834140545E+04  0.00000000000E+00 0. -1.
         21    1    1    2  503  505 -0.12952746689E+03 -0.66182466464E+01 -0.12680800826E+04  0.12746953603E+04  0.00000000000E+00 0. -1.
         21    1    1    2  504  501  0.13301810070E+03 -0.15394741690E+02  0.16999115399E+03  0.21639733274E+03  0.00000000000E+00 0. -1.
         21    1    1    2  505  502 -0.12235110515E+03 -0.85422700256E+02 -0.53743054079E+01  0.14931749332E+03  0.00000000000E+00 0. -1.
          2    1    1    2  501    0  0.11886047134E+03  0.10743568859E+03 -0.49893023977E+03  0.52402444885E+03  0.00000000000E+00 0. -1.
<scales pt_clust_3="129.69644" pt_clust_4="130.79355" pt_clust_5="14000.00000" pt_clust_6="102.45590"></scales>
<clustering>
<clus scale="  129.696">  2  3  1 -1</clus>
<clus scale="  102.456">  2  6  1 -1</clus>
<clus scale="  130.794">  1  4  2 -1</clus>
<clus scale="  130.794">  1  3  2 -1</clus>
</clustering>
</event>
<event>
 6    0  0.2572175E+002  0.7199184E+02  0.7546771E-02  0.1353448E+00
         21   -1    0    0  503  502  0.00000000000E+00  0.00000000000E+00  0.58263662950E+03  0.58263662950E+03  0.00000000000E+00 0.  1.
          2   -1    0    0  504    0 -0.00000000000E+00 -0.00000000000E+00 -0.61325843181E+03  0.61325843181E+03  0.00000000000E+00 0.  1.
         21    1    1    2  503  501 -0.19876625586E+02  0.47536608540E+02  0.50407218924E+03  0.50669870867E+03  0.00000000000E+00 0.  1.
         21    1    1    2  504  505  0.79524559105E+02 -0.92974042630E+02 -0.11254670108E+03  0.16623804627E+03  0.00000000000E+00 0.  1.
         21    1    1    2  505  502 -0.33200093927E+02 -0.13909751230E+01  0.43206708513E+02  0.54506886804E+02  0.00000000000E+00 0.  1.
          2    1    1    2  501    0 -0.26447839592E+02  0.46828409214E+02 -0.46535399898E+03  0.46845141957E+03  0.00000000000E+00 0.  1.
<scales pt_clust_3="14000.00000" pt_clust_4="71.99184" pt_clust_5="33.22922" pt_clust_6="53.82485"></scales>
<clustering>
<clus scale="   33.229">  1  5  2 -1</clus>
<clus scale="   53.825">  2  6  1 -1</clus>
<clus scale="   71.992">  2  4  1 -1</clus>
<clus scale="   33.229">  1  3  2 -1</clus>
</clustering>
</event>
<event>
 6    0  0.2572175E+002  0.1003193E+03  0.7546771E-02  0.1279626E+00
         21   -1    0    0  503  502  0.00000000000E+00  0.00000000000E+00  0.33058604798E+03  0.33058604798E+03  0.00000000000E+00 0.  1.
          1   -1    0    0  504    0 -0.00000000000E+00 -0.00000000000E+00 -0.40184770394E+03  0.40184770394E+03  0.00000000000E+00 0. -1.
         21    1    1    2  503  501  0.11021725775E+02  0.86104841387E+02  0.24267227460E+03  0.25773116809E+03  0.00000000000E+00 0.  1.
         21    1    1    2  504  505  0.49874078801E+02 -0.11073949716E+03 -0.87527342667E+01  0.12176727937E+03  0.00000000000E+00 0.  1.
         21    1    1    2  505  502 -0.28152309623E+02  0.11463666201E+02  0.12814138556E+02  0.32987426799E+02  0.00000000000E+00 0.  1.
          1    1    1    2  501    0 -0.32743494953E+02  0.13170989577E+02 -0.31799533485E+03  0.31994787765E+03  0.00000000000E+00 0. -1.
<scales pt_clust_3="100.31928" pt_clust_4="14000.00000" pt_clust_5="30.39684" pt_clust_6="35.38967"></scales>
<clustering>
<clus scale="   30.397">  1  5  2 -1</clus>
<clus scale="   35.390">  2  6  1 -1</clus>
<clus scale="  100.319">  1  3  2 -1</clus>
<clus scale="   30.397">  1  3  2 -1</clus>
</clustering>
</event>
<event>
 6    0  0.2572175E+002  0.2839487E+03  0.7546771E-02  0.1093552E+00
          2   -1    0    0  505    0 -0.00000000000E+00  0.00000000000E+00  0.24824689562E+04  0.24824689562E+04  0.00000000000E+00 0. -1.
         21   -1    0    0  503  502  0.00000000000E+00 -0.00000000000E+00 -0.90345527527E+02  0.90345527527E+02  0.00000000000E+00 0. -1.
         21    1    1    2  503  501  0.19065430062E+03 -0.23839078539E+03  0.24941745467E+03  0.39419322115E+03  0.00000000000E+00 0. -1.
         21    1    1    2  504  502 -0.73716637828E+01  0.30650601834E+02  0.62544812156E+02  0.70040376550E+02  0.00000000000E+00 0. -1.
         21    1    1    2  505  504  0.42499882833E+02  0.15132831779E+02  0.19130507474E+03  0.19655247203E+03  0.00000000000E+00 0. -1.
          2    1    1    2  501    0 -0.22578251967E+03  0.19260735178E+03  0.18888560871E+04  0.19120284140E+04  0.00000000000E+00 0. -1.
<scales pt_clust_3="283.94865" pt_clust_4="31.52461" pt_clust_5="45.22473" pt_clust_6="14000.00000"></scales>
<clustering>
<clus scale="   31.525">  2  4  1 -1</clus>
<clus scale="   45.225">  1  5  2 -1</clus>
<clus scale="  283.949">  2  3  1 -1</clus>
<clus scale="   31.525">  2  3  1 -1</clus>
</clustering>
</event>
<event>
 6    0  0.2572175E+002  0.9734301E+02  0.7546771E-02  0.1285985E+00
          1   -1    0    0  503    0 -0.00000000000E+00  0.00000000000E+00  0.91532222736E+03  0.91532222736E+03  0.00000000000E+00 0. -1.
         21   -1    0    0  505  502  0.00000000000E+00 -0.00000000000E+00 -0.58404025993E+02  0.58404025993E+02  0.00000000000E+00 0. -1.
         21    1    1    2  503  502 -0.10914366896E+02  0.28082951687E+02  0.65163662205E+02  0.71791910771E+02  0.00000000000E+00 0. -1.
         21    1    1    2  504  501  0.95403310002E+02  0.70311230969E+02  0.21033707281E+03  0.24142730781E+03  0.00000000000E+00 0. -1.
         21    1    1    2  505  504 -0.97708943289E+02  0.14439360936E+02  0.38788808721E+02  0.10611363920E+03  0.00000000000E+00 0. -1.
          1    1    1    2  501    0  0.13220000183E+02 -0.11283354359E+03  0.54262865763E+03  0.55439339556E+03  0.00000000000E+00 0. -1.
<scales pt_clust_3="30.12931" pt_clust_4="14000.00000" pt_clust_5="97.34301" pt_clust_6="94.84353"></scales>
<clustering>
<clus scale="   30.129">  1  3  2 -1</clus>
<clus scale="   94.844">  1  6  2 -1</clus>
<clus scale="   97.343">  2  5  1 -1</clus>
<clus scale="   97.343">  2  3  1 -1</clus>
</clustering>
</event>
<event>
 6    0  0.2572175E+002  0.9118738E+02  0.7546771E-02  0.1300001E+00
          2   -1    0    0  504    0 -0.00000000000E+00  0.00000000000E+00  0.28173808307E+04  0.28173808307E+04  0.00000000000E+00 0. -1.
         21   -1    0    0  501  502  0.00000000000E+00 -0.00000000000E+00 -0.42673474268E+02  0.42673474268E+02  0.00000000000E+00 0. -1.
         21    1    1    2  503  505 -0.94984614739E+02  0.33319376490E+02  0.12034245638E+03  0.15689029509E+03  0.00000000000E+00 0. -1.
         21    1    1    2  504  503  0.44743160911E+02  0.44355050335E+02  0.13439229797E+04  0.13453989358E+04  0.00000000000E+00 0. -1.
         21    1    1    2  505  502 -0.10088145390E+01 -0.41295982235E+02 -0.42912162741E+01  0.41530595862E+02  0.00000000000E+00 0. -1.
          2    1    1    2  501    0  0.51250268367E+02 -0.36378444590E+02  0.13147331366E+04  0.13162344783E+04  0.00000000000E+00 0. -1.
<scales pt_clust_3="91.18738" pt_clust_4="61.89936" pt_clust_5="41.30830" pt_clust_6="14000.00000"></scales>
<clustering>
<clus scale="   41.308">  2  5  1 -1</clus>
<clus scale="   61.899">  1  4  2 -1</clus>
<clus scale="   91.187">  2  3  1 -1</clus>
<clus scale="   41.308">  2  3  1 -1</clus>
</clustering>
</event>
<event>
 6    0  0.2572175E+002  0.1150238E+03  0.7546771E-02  0.1251540E+00
          2   -1    0    0  503    0 -0.00000000000E+00  0.00000000000E+00  0.10762544292E+04  0.10762544292E+04  0.00000000000E+00 0.  1.
         21   -1    0    0  505  502  0.00000000000E+00 -0.00000000000E+00 -0.43137245676E+03  0.43137245676E+03  0.00000000000E+00 0.  1.
         21    1    1    2  503  502 -0.17825267457E+01  0.48660888997E+02 -0.30869775844E+03  0.31251458459E+03  0.00000000000E+00 0.  1.
         21    1    1    2  504  501 -0.15129472559E+03 -0.79563150874E+02  0.91906357395E+02  0.19408031198E+03  0.00000000000E+00 0. -1.
         21    1    1    2  505  504  0.42648493163E+02  0.13094953971E+02 -0.58787669810E+02  0.73799470935E+02  0.00000000000E+00 0.  1.
          2    1    1    2  501    0  0.11042875917E+03  0.17807307907E+02  0.92046104329E+03  0.92723251846E+03  0.00000000000E+00 0.  1.
<scales pt_clust_3="69.04126" pt_clust_4="115.02383" pt_clust_5="44.61358" pt_clust_6="14000.00000"></scales>
<clustering>
<clus scale="   44.614">  2  5  1 -1</clus>
<clus scale="   69.041">  2  3  1 -1</clus>
<clus scale="  115.024">  2  4  1 -1</clus>
<clus scale="   44.614">  2  3  1 -1</clus>
</clustering>
</event>
<event>
 6    0  0.2572175E+002  0.1656217E+03  0.7546771E-02  0.1182492E+00
         21   -1    0    0  501  502  0.00000000000E+00  0.00000000000E+00  0.47838752916E+03  0.47838752916E+03  0.00000000000E+00 0.  1.
          2   -1    0    0  504    0 -0.00000000000E+00 -0.00000000000E+00 -0.18448921904E+04  0.18448921904E+04  0.00000000000E+00 0. -1.
         21    1    1    2  503  502 -0.89287453694E+02 -0.40998615348E+02  0.27283958917E+03  0.28999065031E+03  0.00000000000E+00 0.  1.
         21    1    1    2  504  505  0.20073582525E+03  0.80619286257E+02 -0.43910147897E+03  0.48949407523E+03  0.00000000000E+00 0. -1.
         21    1    1    2  505  503 -0.65463423427E+02  0.32933822345E+01  0.16477267633E+03  0.17733116206E+03  0.00000000000E+00 0. -1.
          2    1    1    2  501    0 -0.45984948128E+02 -0.42914053143E+02 -0.13650154478E+04  0.13664638319E+04  0.00000000000E+00 0. -1.
<scales pt_clust_3="31.79860" pt_clust_4="160.98101" pt_clust_5="31.79860" pt_clust_6="62.89858"></scales>
<clustering>
<clus scale="   31.799">  3  5 -1 -1</clus>
<clus scale="   62.899">  2  6  1 -1</clus>
<clus scale="  160.981">  2  4  1 -1</clus>
<clus scale="  165.622">  1  3  2 -1</clus>
</clustering>
</event>
<event>
 6    0  0.2572175E+002  0.1816939E+03  0.7546771E-02  0.1166174E+00
          1   -1    0    0  504    0 -0.00000000000E+00  0.00000000000E+00  0.28225486173E+04  0.28225486173E+04  0.00000000000E+00 0.  1.
         21   -1    0    0  503  502  0.00000000000E+00 -0.00000000000E+00 -0.14154964595E+03  0.14154964595E+03  0.00000000000E+00 0.  1.
         21    1    1    2  503  505 -0.71902525123E+02  0.28341907150E+02  0.52459338446E+02  0.93408880788E+02  0.00000000000E+00 0.  1.
         21    1    1    2  504  502  0.17076016344E+03  0.86038729772E+02 -0.16288068547E+02  0.19190361544E+03  0.00000000000E+00 0.  1.
         21    1    1    2  505  501 -0.87834484207E+02 -0.49494020356E+01  0.10676327776E+03  0.13833940391E+03  0.00000000000E+00 0.  1.
          1    1    1    2  501    0 -0.11023154115E+02 -0.10943123489E+03  0.25380644237E+04  0.25404463632E+04  0.00000000000E+00 0.  1.
<scales pt_clust_3="44.87576" pt_clust_4="175.27222" pt_clust_5="44.87576" pt_clust_6="109.98502"></scales>
<clustering>
<clus scale="   44.876">  3  5 -1 -1</clus>
<clus scale="  109.985">  1  6  2 -1</clus>
<clus scale="  175.272">  2  4  1 -1</clus>
<clus scale="  175.272">  2  3  1 -1</clus>
</clustering>
</event>
<event>
 6    0  0.2572175E+002  0.1293137E+03  0.7546771E-02  0.1228478E+00
          1   -1    0    0  504    0 -0.00000000000E+00  0.00000000000E+00  0.26850252851E+04  0.26850252851E+04  0.00000000000E+00 0. -1.
         21   -1    0    0  501  502  0.00000000000E+00 -0.00000000000E+00 -0.31927123468E+03  0.31927123468E+03  0.00000000000E+00 0.  1.
         21    1    1    2  503  505  0.44256253622E+02 -0.22288367191E+02 -0.12821252216E+03  0.13745485854E+03  0.00000000000E+00 0. -1.
         21    1    1    2  504  503 -0.38576933111E+02  0.67472126673E+01  0.13020379035E+03  0.13596592098E+03  0.00000000000E+00 0.  1.
         21    1    1    2  505  502  0.25446972039E+02 -0.75350023636E+02 -0.17398990653E+03  0.19130515420E+03  0.00000000000E+00 0.  1.
          1    1    1    2  501    0 -0.31126292551E+02  0.90891178160E+02  0.25377526888E+04  0.25395705861E+04  0.00000000000E+00 0. -1.
<scales pt_clust_3="38.38675" pt_clust_4="39.16254" pt_clust_5="38.38675" pt_clust_6="119.82069"></scales>
<clustering>
<clus scale="   38.387">  3  5 -1 -1</clus>
<clus scale="   39.163">  1  4  2 -1</clus>
<clus scale="  119.821">  1  6  2 -1</clus>
<clus scale="  129.314">  2  3  1 -1</clus>
</clustering>
</event>
<event>
 6    0  0.2572175E+002  0.1006218E+03  0.7546771E-02  0.1278994E+00
          2   -1    0    0  503    0 -0.00000000000E+00  0.00000000000E+00  0.61722689987E+03  0.61722689987E+03  0.00000000000E+00 0.  1.
         21   -1    0    0  505  502  0.00000000000E+00 -0.00000000000E+00 -0.79574217794E+02  0.79574217794E+02  0.00000000000E+00 0. -1.
         21    1    1    2  503  504  0.87408885880E+01  0.11733788485E+03  0.11380681754E+03  0.16369659152E+03  0.00000000000E+00 0. -1.
         21    1    1    2  504  502 -0.36947819455E+02  0.13959331398E+01  0.14948903295E+02  0.39881821693E+02  0.00000000000E+00 0. -1.
         21    1    1    2  505  501 -0.16718399661E+02 -0.88080863873E+02  0.95175938284E+01  0.90157240753E+02  0.00000000000E+00 0. -1.
          2    1    1    2  501    0  0.44925330528E+02 -0.30652954116E+02  0.39937936741E+03  0.40306546371E+03  0.00000000000E+00 0.  1.
<scales pt_clust_3="100.62176" pt_clust_4="36.97418" pt_clust_5="14000.00000" pt_clust_6="53.52939"></scales>
<clustering>
<clus scale="   36.974">  2  4  1 -1</clus>
<clus scale="   53.529">  1  6  2 -1</clus>
<clus scale="  100.622">  1  3  2 -1</clus>
<clus scale="   36.974">  2  3  1 -1</clus>
</clustering>
</event>
<event>
 6    0  0.2572175E+002  0.1980151E+03  0.7546771E-02  0.1151425E+00
         21   -1    0    0  503  502  0.00000000000E+00  0.00000000000E+00  0.15867538908E+04  0.15867538908E+04  0.00000000000E+00 0.  1.
          2   -1    0    0  505    0 -0.00000000000E+00 -0.00000000000E+00 -0.45486224804E+03  0.45486224804E+03  0.00000000000E+00 0.  1.
         21    1    1    2  503  504 -0.56473405204E+02  0.86235216112E+02  0.16333396946E+03  0.19314177066E+03  0.00000000000E+00 0.  1.
         21    1    1    2  504  501  0.90539688069E+02 -0.13832877592E+03  0.82519672634E+03  0.84159486841E+03  0.00000000000E+00 0.  1.
         21    1    1    2  505  502 -0.42853344034E+02 -0.14781242125E+03  0.54060522812E+03  0.56208445419E+03  0.00000000000E+00 0.  1.
          2    1    1    2  501    0  0.87870611687E+01  0.19990598106E+03 -0.39724428113E+03  0.44479504561E+03  0.00000000000E+00 0.  1.
<scales pt_clust_3="103.08132" pt_clust_4="104.33327" pt_clust_5="198.01508" pt_clust_6="14000.00000"></scales>
<clustering>
<clus scale="  103.081">  1  3  2 -1</clus>
<clus scale="  104.333">  1  4  2 -1</clus>
<clus scale="  198.015">  1  5  2 -1</clus>
<clus scale="  103.081">  1  3  2 -1</clus>
</clustering>
</event>
<event>
 6    0  0.2572175E+002  0.1097200E+03  0.7546771E-02  0.1261089E+00
         -3   -1    0    0    0  501 -0.00000000000E+00  0.00000000000E+00  0.18515757735E+03  0.18515757735E+03  0.00000000000E+00 0.  1.
         21   -1    0    0  504  502  0.00000000000E+00 -0.00000000000E+00 -0.32227695262E+03  0.32227695262E+03  0.00000000000E+00 0.  1.
         21    1    1    2  503  502  0.71406848247E+01 -0.36310060612E+02 -0.35489816382E+02  0.51273160116E+02  0.00000000000E+00 0.  1.
         21    1    1    2  504  505 -0.68507456594E+02 -0.56787335595E+02 -0.17640139297E+03  0.19757409885E+03  0.00000000000E+00 0.  1.
         21    1    1    2  505  501 -0.76346003167E+02  0.77817462047E+01 -0.71111864137E+01  0.77070336354E+02  0.00000000000E+00 0.  1.
         -3    1    1    2    0  503  0.13771277494E+03  0.85315650003E+02  0.81883020501E+02  0.18151693464E+03  0.00000000000E+00 0.  1.
<scales pt_clust_3="37.00554" pt_clust_4="109.71995" pt_clust_5="75.30352" pt_clust_6="14000.00000"></scales>
<clustering>
<clus scale="   37.006">  2  3  1 -1</clus>
<clus scale="   75.304">  1  5  2 -1</clus>
<clus scale="  109.720">  2  4  1 -1</clus>
<clus scale="   37.006">  2  3  1 -1</clus>
</clustering>
</event>
<event>
 6    0  0.2572175E+002  0.1052856E+03  0.7546771E-02  0.1269558E+00
          2   -1    0    0  502    0 -0.00000000000E+00  0.00000000000E+00  0.78208572978E+03  0.78208572978E+03  0.00000000000E+00 0. -1.
         21   -1    0    0  504  502  0.00000000000E+00 -0.00000000000E+00 -0.16972085443E+04  0.16972085443E+04  0.00000000000E+00 0.  1.
         21    1    1    2  503  501 -0.77207666758E+02 -0.22249545179E+02 -0.15386061223E+03  0.17357751601E+03  0.00000000000E+00 0.  1.
         21    1    1    2  504  505  0.45458786999E+02  0.66469131987E+02 -0.59772922658E+03  0.60312923584E+03  0.00000000000E+00 0.  1.
         21    1    1    2  505  503  0.95336866178E+02 -0.58424475812E+02 -0.92832019338E+03  0.93502990266E+03  0.00000000000E+00 0.  1.
          2    1    1    2  501    0 -0.63587986419E+02  0.14204889004E+02  0.76478721772E+03  0.76755761952E+03  0.00000000000E+00 0. -1.
<scales pt_clust_3="105.28557" pt_clust_4="77.11259" pt_clust_5="14000.00000" pt_clust_6="65.15528"></scales>
<clustering>
<clus scale="   65.155">  1  6  2 -1</clus>
<clus scale="   77.113">  2  4  1 -1</clus>
<clus scale="  105.286">  1  3  2 -1</clus>
<clus scale="   77.113">  2  3  1 -1</clus>
</clustering>
</event>
<event>
 6    0  0.2572175E+002  0.8312942E+02  0.7546771E-02  0.1320398E+00
         21   -1    0    0  504  502  0.00000000000E+00  0.00000000000E+00  0.10336150262E+03  0.10336150262E+03  0.00000000000E+00 0.  1.
          1   -1    0    0  505    0 -0.00000000000E+00 -0.00000000000E+00 -0.65187429187E+03  0.65187429187E+03  0.00000000000E+00 0. -1.
         21    1    1    2  503  502  0.29820556205E+02  0.35512293552E+01 -0.10287733345E+02  0.31744515426E+02  0.00000000000E+00 0. -1.
         21    1    1    2  504  501 -0.10263634594E+03 -0.19755386725E+01 -0.48384878699E+01  0.10276932045E+03  0.00000000000E+00 0.  1.
         21    1    1    2  505  503  0.49223768660E+02 -0.78719628019E+02 -0.12564102031E+02  0.93688931557E+02  0.00000000000E+00 0.  1.
          1    1    1    2  501    0  0.23592021073E+02  0.77143937336E+02 -0.52082246600E+03  0.52703302707E+03  0.00000000000E+00 0. -1.
<scales pt_clust_3="30.03126" pt_clust_4="83.12942" pt_clust_5="14000.00000" pt_clust_6="81.08217"></scales>
<clustering>
<clus scale="   30.031">  1  3  2 -1</clus>
<clus scale="   81.082">  2  6  1 -1</clus>
<clus scale="   83.129">  1  4  2 -1</clus>
<clus scale="   30.031">  1  3  2 -1</clus>
</clustering>
</event>
<event>
 6    0  0.2572175E+002  0.2284348E+03  0.7546771E-02  0.1127746E+00
         21   -1    0    0  503  502  0.00000000000E+00  0.00000000000E+00  0.10875284188E+03  0.10875284188E+03  0.00000000000E+00 0.  1.
          2   -1    0    0  504    0 -0.00000000000E+00 -0.00000000000E+00 -0.23205154299E+04  0.23205154299E+04  0.00000000000E+00 0. -1.
         21    1    1    2  503  505  0.13813200458E+03 -0.18123591932E+03 -0.56040471677E+02  0.23466453419E+03  0.00000000000E+00 0.  1.
         21    1    1    2  504  502  0.25724537328E+02  0.25829175673E+02 -0.33369357690E+02  0.49420766580E+02  0.00000000000E+00 0.  1.
         21    1    1    2  505  501 -0.20524202565E+03  0.14758920994E+03 -0.14786834630E+04  0.15001372096E+04  0.00000000000E+00 0. -1.
          2    1    1    2  501    0  0.41385483745E+02  0.78175337024E+01 -0.64366929566E+03  0.64504576138E+03  0.00000000000E+00 0. -1.
<scales pt_clust_3="14000.00000" pt_clust_4="36.45406" pt_clust_5="228.43483" pt_clust_6="42.32306"></scales>
<clustering>
<clus scale="   36.454">  1  4  2 -1</clus>
<clus scale="   42.323">  2  6  1 -1</clus>
<clus scale="  228.435">  2  5  1 -1</clus>
<clus scale="   36.454">  1  3  2 -1</clus>
</clustering>
</event>
<event>
 6    0  0.2572175E+002  0.8994219E+02  0.7546771E-02  0.1302992E+00
          1   -1    0    0  504    0 -0.00000000000E+00  0.00000000000E+00  0.31038272249E+04  0.31038272249E+04  0.00000000000E+00 0. -1.
         21   -1    0    0  503  502  0.00000000000E+00 -0.00000000000E+00 -0.14959867999E+03  0.14959867999E+03  0.00000000000E+00 0. -1.
         21    1    1    2  503  501 -0.81015600413E+02  0.51960010671E+02 -0.76495703596E+02  0.12294292533E+03  0.00000000000E+00 0. -1.
         21    1    1    2  504  505  0.72494047320E+02 -0.38677738014E+02  0.62421405569E+02  0.10318811069E+03  0.00000000000E+00 0. -1.
         21    1    1    2  505  502  0.31754126697E+02  0.33381288676E+02 -0.11137028545E+02  0.47399033753E+02  0.00000000000E+00 0. -1.
          1    1    1    2  501    0 -0.23232573604E+02 -0.46663561333E+02  0.29794398715E+04  0.29798958351E+04  0.00000000000E+00 0. -1.
<scales pt_clust_3="89.94219" pt_clust_4="14000.00000" pt_clust_5="46.07206" pt_clust_6="52.04373"></scales>
<clustering>
<clus scale="   46.072">  2  5  1 -1</clus>
<clus scale="   52.044">  1  6  2 -1</clus>
<clus scale="   89.942">  2  3  1 -1</clus>
<clus scale="   46.072">  2  3  1 -1</clus>
</clustering>
</event>
<event>
 6    0  0.2572175E+002  0.1742689E+03  0.7546771E-02  0.1173468E+00
          2   -1    0    0  505    0 -0.00000000000E+00  0.00000000000E+00  0.15015523007E+04  0.15015523007E+04  0.00000000000E+00 0.  1.
         21   -1    0    0  504  502  0.00000000000E+00 -0.00000000000E+00 -0.10773553458E+03  0.10773553458E+03  0.00000000000E+00 0. -1.
         21    1    1    2  503  502  0.28795624239E+02  0.46568291496E+02 -0.24086712921E+02  0.59816080510E+02  0.00000000000E+00 0. -1.
         21    1    1    2  504  501 -0.47507079138E+02  0.64169408581E+02 -0.46699147925E+01  0.79977769849E+02  0.00000000000E+00 0. -1.
         21    1    1    2  505  503  0.17390948739E+03 -0.12204461364E+03  0.85034571433E+03  0.87648572800E+03  0.00000000000E+00 0. -1.
          2    1    1    2  501    0 -0.15519803249E+03  0.11306913558E+02  0.57222767952E+03  0.59300825693E+03  0.00000000000E+00 0.  1.
<scales pt_clust_3="54.75211" pt_clust_4="98.49055" pt_clust_5="174.26895" pt_clust_6="14000.00000"></scales>
<clustering>
<clus scale="   54.752">  2  3  1 -1</clus>
<clus scale="   98.491">  2  4  1 -1</clus>
<clus scale="  174.269">  2  5  1 -1</clus>
<clus scale="   54.752">  2  3  1 -1</clus>
</clustering>
</event>
<event>
 6    0  0.2572175E+002  0.1219675E+03  0.7546771E-02  0.1239886E+00
         21   -1    0    0  503  502  0.00000000000E+00  0.00000000000E+00  0.93966684592E+03  0.93966684592E+03  0.00000000000E+00 0.  1.
          2   -1    0    0  504    0 -0.00000000000E+00 -0.00000000000E+00 -0.68423284660E+03  0.68423284660E+03  0.00000000000E+00 0. -1.
         21    1    1    2  503  501  0.93937941909E+01 -0.45288584093E+02  0.53322578091E+03  0.53522801930E+03  0.00000000000E+00 0.  1.
         21    1    1    2  504  505 -0.24017078860E+02 -0.64379516610E+02  0.54786413528E+02  0.87881131895E+02  0.00000000000E+00 0.  1.
         21    1    1    2  505  502 -0.79966048554E+02  0.24662315762E+02  0.32265484273E+03  0.33333008607E+03  0.00000000000E+00 0.  1.
          2    1    1    2  501    0  0.94589333223E+02  0.85005784940E+02 -0.65523303785E+03  0.66746045525E+03  0.00000000000E+00 0. -1.
<scales pt_clust_3="46.25256" pt_clust_4="14000.00000" pt_clust_5="73.35080" pt_clust_6="121.96755"></scales>
<clustering>
<clus scale="   46.253">  1  3  2 -1</clus>
<clus scale="   73.351">  1  5  2 -1</clus>
<clus scale="  121.968">  2  6  1 -1</clus>
<clus scale="   46.253">  1  3  2 -1</clus>
</clustering>
</event>
<event>
 6    0  0.2572175E+002  0.2392083E+03  0.7546771E-02  0.1120321E+00
         21   -1    0    0  504  502  0.00000000000E+00  0.00000000000E+00  0.40050835941E+03  0.40050835941E+03  0.00000000000E+00 0. -1.
          2   -1    0    0  505    0 -0.00000000000E+00 -0.00000000000E+00 -0.13847831720E+04  0.13847831720E+04  0.00000000000E+00 0.  1.
         21    1    1    2  503  502  0.21225799390E+02 -0.42032975222E+02  0.51699476668E+02  0.69929546355E+02  0.00000000000E+00 0. -1.
         21    1    1    2  504  501 -0.29080117293E+03  0.81300466777E+02  0.77215331202E+02  0.31166856666E+03  0.00000000000E+00 0. -1.
         21    1    1    2  505  503  0.19009391092E+03 -0.35467502504E+02  0.78972513201E+02  0.20887866465E+03  0.00000000000E+00 0. -1.
          2    1    1    2  501    0  0.79481462611E+02 -0.37999890519E+01 -0.11921621336E+04  0.11948147537E+04  0.00000000000E+00 0.  1.
<scales pt_clust_3="47.08827" pt_clust_4="239.20829" pt_clust_5="14000.00000" pt_clust_6="79.66303"></scales>
<clustering>
<clus scale="   47.088">  1  3  2 -1</clus>
<clus scale="   79.663">  2  6  1 -1</clus>
<clus scale="  239.208">  2  4  1 -1</clus>
<clus scale="   47.088">  1  3  2 -1</clus>
</clustering>
</event>
<event>
 6    0  0.2572175E+002  0.1195028E+03  0.7546771E-02  0.1243919E+00
         -4   -1    0    0    0  501 -0.00000000000E+00  0.00000000000E+00  0.18828789847E+03  0.18828789847E+03  0.00000000000E+00 0.  1.
         21   -1    0    0  503  502  0.00000000000E+00 -0.00000000000E+00 -0.22313033578E+03  0.22313033578E+03  0.00000000000E+00 0.  1.
         21    1    1    2  503  505 -0.22946836195E+02 -0.42597472409E+02 -0.21843152306E+02  0.53086959319E+02  0.00000000000E+00 0.  1.
         21    1    1    2  504  502 -0.46855608223E+02  0.92540233305E+01 -0.67461218620E+02  0.82656524167E+02  0.00000000000E+00 0. -1.
         21    1    1    2  505  501  0.15833468108E+03 -0.23598841202E+02  0.70833108920E+01  0.16024028779E+03  0.00000000000E+00 0.  1.
         -4    1    1    2    0  504 -0.88532236661E+02  0.56942290281E+02  0.47378622728E+02  0.11543446298E+03  0.00000000000E+00 0.  1.
<scales pt_clust_3="53.21413" pt_clust_4="47.76071" pt_clust_5="119.50284" pt_clust_6="14000.00000"></scales>
<clustering>
<clus scale="   47.761">  2  4  1 -1</clus>
<clus scale="   53.214">  2  3  1 -1</clus>
<clus scale="  119.503">  2  5  1 -1</clus>
<clus scale="   47.761">  2  3  1 -1</clus>
</clustering>
</event>
<event>
 6    0  0.2572175E+002  0.1357074E+03  0.7546771E-02  0.1219225E+00
         21   -1    0    0  505  502  0.00000000000E+00  0.00000000000E+00  0.10012077678E+03  0.10012077678E+03  0.00000000000E+00 0.  1.
          1   -1    0    0  503    0 -0.00000000000E+00 -0.00000000000E+00 -0.77450098791E+03  0.77450098791E+03  0.00000000000E+00 0.  1.
         21    1    1    2  503  504  0.31735780800E+02 -0.12153921318E+03 -0.82678308257E+02  0.15038165706E+03  0.00000000000E+00 0.  1.
         21    1    1    2  504  502 -0.46133684327E+02  0.11156255856E+01 -0.31667883946E+02  0.55967993743E+02  0.00000000000E+00 0.  1.
         21    1    1    2  505  501 -0.62817274453E+02  0.13110977163E+03 -0.52167037697E+02  0.15445770298E+03  0.00000000000E+00 0.  1.
          1    1    1    2  501    0  0.77215177980E+02 -0.10686184039E+02 -0.50786698123E+03  0.51381441091E+03  0.00000000000E+00 0.  1.
<scales pt_clust_3="135.70740" pt_clust_4="46.14717" pt_clust_5="14000.00000" pt_clust_6="76.40141"></scales>
<clustering>
<clus scale="   46.147">  1  4  2 -1</clus>
<clus scale="   76.401">  2  6  1 -1</clus>
<clus scale="  135.707">  1  3  2 -1</clus>
<clus scale="   46.147">  1  3  2 -1</clus>
</clustering>
</event>
<event>
 6    0  0.2572175E+002  0.1296144E+03  0.7546771E-02  0.1228029E+00
          2   -1    0    0  503    0 -0.00000000000E+00  0.00000000000E+00  0.12035687592E+04  0.12035687592E+04  0.00000000000E+00 0.  1.
         21   -1    0    0  504  502  0.00000000000E+00 -0.00000000000E+00 -0.78727008002E+03  0.78727008002E+03  0.00000000000E+00 0.  1.
         21    1    1    2  503  502 -0.67228613727E+02  0.15652738690E+02 -0.45934602561E+03  0.46450346174E+03  0.00000000000E+00 0.  1.
         21    1    1    2  504  505  0.26344924032E+02 -0.14737016743E+03 -0.26131943707E+03  0.30116419020E+03  0.00000000000E+00 0.  1.
         21    1    1    2  505  501 -0.58419635300E+01  0.10671147598E+03  0.22205839853E+02  0.10915386831E+03  0.00000000000E+00 0. -1.
          2    1    1    2  501    0  0.46725653224E+02  0.25005952758E+02  0.11147583020E+04  0.11160173190E+04  0.00000000000E+00 0.  1.
<scales pt_clust_3="67.86946" pt_clust_4="129.61436" pt_clust_5="14000.00000" pt_clust_6="52.99608"></scales>
<clustering>
<clus scale="   52.996">  1  6  2 -1</clus>
<clus scale="   67.869">  2  3  1 -1</clus>
<clus scale="  129.614">  2  4  1 -1</clus>
<clus scale="   67.869">  2  3  1 -1</clus>
</clustering>
</event>
<event>
 6    0  0.2572175E+002  0.7047523E+02  0.7546771E-02  0.1358484E+00
         21   -1    0    0  504  502  0.00000000000E+00  0.00000000000E+00  0.69439387105E+03  0.69439387105E+03  0.00000000000E+00 0.  1.
          3   -1    0    0  505    0 -0.00000000000E+00 -0.00000000000E+00 -0.13268163942E+03  0.13268163942E+03  0.00000000000E+00 0.  1.
         21    1    1    2  503  501  0.77085951950E+02 -0.11676663908E+03  0.27152730969E+03  0.30545666125E+03  0.00000000000E+00 0.  1.
         21    1    1    2  504  503 -0.48288264360E+02  0.20870659325E+02  0.35574128498E+03  0.35960979232E+03  0.00000000000E+00 0.  1.
         21    1    1    2  505  502 -0.58133255132E+01  0.31891041408E+02  0.30370898159E+02  0.44420994255E+02  0.00000000000E+00 0.  1.
          3    1    1    2  501    0 -0.22984362077E+02  0.64004938351E+02 -0.95927261206E+02  0.11758806264E+03  0.00000000000E+00 0.  1.
<scales pt_clust_3="70.47523" pt_clust_4="64.10257" pt_clust_5="32.41656" pt_clust_6="14000.00000"></scales>
<clustering>
<clus scale="   32.417">  1  5  2 -1</clus>
<clus scale="   64.103">  1  4  2 -1</clus>
<clus scale="   70.475">  1  3  2 -1</clus>
<clus scale="   32.417">  1  3  2 -1</clus>
</clustering>
</event>
<event>
 6    0  0.2572175E+002  0.8501307E+02  0.7546771E-02  0.1315398E+00
         -1   -1    0    0    0  501 -0.00000000000E+00  0.00000000000E+00  0.19052033737E+03  0.19052033737E+03  0.00000000000E+00 0. -1.
         21   -1    0    0  505  502  0.00000000000E+00 -0.00000000000E+00 -0.29973438918E+03  0.29973438918E+03  0.00000000000E+00 0. -1.
         21    1    1    2  503  504 -0.11603620358E+03  0.91220921645E+01 -0.10306976661E+03  0.15547022189E+03  0.00000000000E+00 0. -1.
         21    1    1    2  504  502  0.20656788023E+02  0.35127146541E+02 -0.69528113241E+02  0.80590184553E+02  0.00000000000E+00 0. -1.
         21    1    1    2  505  501  0.61900102915E+02 -0.14594021412E+02 -0.81033637864E+02  0.10300999305E+03  0.00000000000E+00 0. -1.
         -1    1    1    2    0  503  0.33479312642E+02 -0.29655217294E+02  0.14441746591E+03  0.15118432706E+03  0.00000000000E+00 0. -1.
<scales pt_clust_3="14000.00000" pt_clust_4="40.75070" pt_clust_5="85.01307" pt_clust_6="44.61085"></scales>
<clustering>
<clus scale="   40.751">  2  4  1 -1</clus>
<clus scale="   44.611">  1  6  2 -1</clus>
<clus scale="   85.013">  2  5  1 -1</clus>
<clus scale="   40.751">  2  3  1 -1</clus>
</clustering>
</event>
<event>
 6    0  0.2572175E+002  0.6355029E+02  0.7546771E-02  0.1383509E+00
          2   -1    0    0  504    0 -0.00000000000E+00  0.00000000000E+00  0.23363866402E+04  0.23363866402E+04  0.00000000000E+00 0. -1.
         21   -1    0    0  505  502  0.00000000000E+00 -0.00000000000E+00 -0.52761009065E+02  0.52761009065E+02  0.00000000000E+00 0. -1.
         21    1    1    2  503  501  0.58153102421E+02 -0.63860678678E+02  0.28134311531E+03  0.29430242632E+03  0.00000000000E+00 0. -1.
         21    1    1    2  504  502 -0.55810579037E+02 -0.13337099378E+02  0.34192581720E+03  0.34670731665E+03  0.00000000000E+00 0. -1.
         21    1    1    2  505  503  0.38905121906E+02  0.31480303128E+02 -0.28878729148E+02  0.57780610872E+02  0.00000000000E+00 0. -1.
          2    1    1    2  501    0 -0.41247645290E+02  0.45717474929E+02  0.16892354278E+04  0.16903572954E+04  0.00000000000E+00 0. -1.
<scales pt_clust_3="14000.00000" pt_clust_4="46.25976" pt_clust_5="50.04616" pt_clust_6="63.55029"></scales>
<clustering>
<clus scale="   50.046">  2  5  1 -1</clus>
<clus scale="   46.260">  2  4  1 -1</clus>
<clus scale="   63.550">  1  6  2 -1</clus>
<clus scale="   50.046">  2  3  1 -1</clus>
</clustering>
</event>
<event>
 6    0  0.2572175E+002  0.1437700E+03  0.7546771E-02  0.1208344E+00
         21   -1    0    0  505  502  0.00000000000E+00  0.00000000000E+00  0.21276561331E+02  0.21276561331E+02  0.00000000000E+00 0.  1.
          2   -1    0    0  502    0 -0.00000000000E+00 -0.00000000000E+00 -0.54875238085E+04  0.54875238085E+04  0.00000000000E+00 0. -1.
         21    1    1    2  503  501  0.58524495268E+02 -0.69961450824E+02 -0.15054430524E+04  0.15082037346E+04  0.00000000000E+00 0.  1.
         21    1    1    2  504  503 -0.61962350673E+02  0.66893117958E+02 -0.20508635634E+03  0.22444249974E+03  0.00000000000E+00 0.  1.
         21    1    1    2  505  504 -0.25497071736E+02  0.50736917686E+02 -0.70543078731E+02  0.90557503500E+02  0.00000000000E+00 0.  1.
          2    1    1    2  501    0  0.28934927140E+02 -0.47668584820E+02 -0.36851747598E+04  0.36855966320E+04  0.00000000000E+00 0. -1.
<scales pt_clust_3="137.48592" pt_clust_4="33.17643" pt_clust_5="33.17643" pt_clust_6="55.76311"></scales>
<clustering>
<clus scale="   33.176">  4  5 -1 -1</clus>
<clus scale="   55.763">  2  6  1 -1</clus>
<clus scale="  137.486">  2  3  1 -1</clus>
<clus scale="  143.770">  1  3  2 -1</clus>
</clustering>
</event>
<event>
 6    0  0.2572175E+002  0.1172392E+03  0.7546771E-02  0.1247722E+00
         21   -1    0    0  505  502  0.00000000000E+00  0.00000000000E+00  0.89757736523E+02  0.89757736523E+02  0.00000000000E+00 0. -1.
          1   -1    0    0  503    0 -0.00000000000E+00 -0.00000000000E+00 -0.10635466712E+04  0.10635466712E+04  0.00000000000E+00 0.  1.
         21    1    1    2  503  504 -0.58987451723E+02  0.16131955967E+02 -0.20431549816E+01  0.61187694403E+02  0.00000000000E+00 0. -1.
         21    1    1    2  504  502 -0.49380505082E+02  0.92959052966E+01  0.41628583522E+02  0.65251721077E+02  0.00000000000E+00 0. -1.
         21    1    1    2  505  501  0.89066521020E+02  0.19905884310E+02 -0.35134650878E+03  0.36300614131E+03  0.00000000000E+00 0.  1.
          1    1    1    2  501    0  0.19301435784E+02 -0.45333745574E+02 -0.66202785442E+03  0.66385885092E+03  0.00000000000E+00 0.  1.
<scales pt_clust_3="40.83824" pt_clust_4="40.83824" pt_clust_5="108.23728" pt_clust_6="49.27163"></scales>
<clustering>
<clus scale="   40.838">  3  4 -1 -1</clus>
<clus scale="   49.272">  2  6  1 -1</clus>
<clus scale="  108.237">  2  5  1 -1</clus>
<clus scale="  117.239">  1  3  2 -1</clus>
</clustering>
</event>
<event>
 6    0  0.2572175E+002  0.8148171E+02  0.7546771E-02  0.1324898E+00
         21   -1    0    0  503  502  0.00000000000E+00  0.00000000000E+00  0.16213377923E+03  0.16213377923E+03  0.00000000000E+00 0. -1.
          2   -1    0    0  502    0 -0.00000000000E+00 -0.00000000000E+00 -0.15476912917E+04  0.15476912917E+04  0.00000000000E+00 0.  1.
         21    1    1    2  503  505  0.31034229447E+02  0.45409031872E+01  0.67387433104E+02  0.74329061204E+02  0.00000000000E+00 0. -1.
         21    1    1    2  504  501 -0.12227844665E+03  0.56663281063E+02  0.19709886282E+02  0.13620288379E+03  0.00000000000E+00 0. -1.
         21    1    1    2  505  504  0.32047929968E+02 -0.61915169829E+01 -0.96207304245E+01  0.34028857631E+02  0.00000000000E+00 0. -1.
          2    1    1    2  501    0  0.59196287239E+02 -0.55012667267E+02 -0.14630341014E+04  0.14652642682E+04  0.00000000000E+00 0.  1.
<scales pt_clust_3="31.36468" pt_clust_4="81.48171" pt_clust_5="36.62562" pt_clust_6="14000.00000"></scales>
<clustering>
<clus scale="   31.365">  1  3  2 -1</clus>
<clus scale="   36.626">  1  5  2 -1</clus>
<clus scale="   81.482">  1  4  2 -1</clus>
<clus scale="   31.365">  1  3  2 -1</clus>
</clustering>
</event>
<event>
 6    0  0.6623317E+002  0.1390583E+03  0.7546771E-02  0.1214602E+00
          1   -1    0    0  502    0 -0.00000000000E+00  0.00000000000E+00  0.26084880151E+04  0.26084880151E+04  0.00000000000E+00 0. -1.
         21   -1    0    0  503  502  0.00000000000E+00 -0.00000000000E+00 -0.10292916255E+03  0.10292916255E+03  0.00000000000E+00 0. -1.
         21    1    1    2  503  505 -0.12605697779E+03  0.62058718951E+02 -0.38862036819E+02  0.14578032842E+03  0.00000000000E+00 0. -1.
         21    1    1    2  504  501  0.52764988910E+02 -0.33611950255E+02  0.13565150483E+03  0.14938285717E+03  0.00000000000E+00 0. -1.
         21    1    1    2  505  504  0.36656843612E+02  0.13104777353E+02  0.10772925381E+03  0.11454715840E+03  0.00000000000E+00 0. -1.
          1    1    1    2  501    0  0.36635145271E+02 -0.41551546049E+02  0.23010401308E+04  0.23017068337E+04  0.00000000000E+00 0. -1.
<scales pt_clust_3="131.64028" pt_clust_4="35.34849" pt_clust_5="35.34849" pt_clust_6="55.39553"></scales>
<clustering>
<clus scale="   35.348">  4  5 -1 -1</clus>
<clus scale="   55.396">  1  6  2 -1</clus>
<clus scale="  131.640">  2  3  1 -1</clus>
<clus scale="  131.640">  2  3  1 -1</clus>
</clustering>
</event>
<event>
 6    0  0.2572175E+002  0.1754206E+03  0.7546771E-02  0.1172310E+00
         21   -1    0    0  501  502  0.00000000000E+00  0.00000000000E+00  0.15557546938E+04  0.15557546938E+04  0.00000000000E+00 0.  1.
          2   -1    0    0  505    0 -0.00000000000E+00 -0.00000000000E+00 -0.11570262619E+03  0.11570262619E+03  0.00000000000E+00 0.  1.
         21    1    1    2  503  504 -0.66376987313E+01  0.75971200595E+02  0.12093269396E+03  0.14296992282E+03  0.00000000000E+00 0.  1.
         21    1    1    2  504  502  0.97992072831E+02 -0.13889689372E+03  0.13058790796E+04  0.13168959579E+04  0.00000000000E+00 0.  1.
         21    1    1    2  505  503 -0.59263752095E+02  0.47533706247E+02  0.95458804613E+02  0.12200011852E+03  0.00000000000E+00 0.  1.
          2    1    1    2  501    0 -0.32090622005E+02  0.15391986877E+02 -0.82218510534E+02  0.89591320758E+02  0.00000000000E+00 0.  1.
<scales pt_clust_3="58.87831" pt_clust_4="164.27116" pt_clust_5="58.87831" pt_clust_6="35.59103"></scales>
<clustering>
<clus scale="   35.591">  2  6  1 -1</clus>
<clus scale="   58.878">  3  5 -1 -1</clus>
<clus scale="  164.271">  1  4  2 -1</clus>
<clus scale="  164.271">  1  3  2 -1</clus>
</clustering>
</event>
<event>
 6    0  0.2572175E+002  0.1469326E+03  0.7546771E-02  0.1204294E+00
          2   -1    0    0  504    0 -0.00000000000E+00  0.00000000000E+00  0.11561959607E+03  0.11561959607E+03  0.00000000000E+00 0.  1.
         21   -1    0    0  505  502  0.00000000000E+00 -0.00000000000E+00 -0.56384689711E+03  0.56384689711E+03  0.00000000000E+00 0. -1.
         21    1    1    2  503  502 -0.64676943996E+02 -0.13053963597E+03 -0.24757669290E+03  0.28725932972E+03  0.00000000000E+00 0. -1.
         21    1    1    2  504  503  0.17057410250E+02 -0.31890706278E+02 -0.73792801068E+02  0.82178767822E+02  0.00000000000E+00 0. -1.
         21    1    1    2  505  501  0.82120136392E+01  0.10810857445E+03 -0.18943649775E+03  0.21826838460E+03  0.00000000000E+00 0.  1.
          2    1    1    2  501    0  0.39407520106E+02  0.54321767798E+02  0.62578690687E+02  0.91760011038E+02  0.00000000000E+00 0.  1.
<scales pt_clust_3="33.62674" pt_clust_4="33.62674" pt_clust_5="130.51536" pt_clust_6="67.11041"></scales>
<clustering>
<clus scale="   33.627">  3  4 -1 -1</clus>
<clus scale="   67.110">  1  6  2 -1</clus>
<clus scale="  130.515">  2  5  1 -1</clus>
<clus scale="  130.515">  2  3  1 -1</clus>
</clustering>
</event>
<event>
 6    0  0.2572175E+002  0.1696431E+03  0.7546771E-02  0.1178221E+00
         21   -1    0    0  504  502  0.00000000000E+00  0.00000000000E+00  0.11993864862E+03  0.11993864862E+03  0.00000000000E+00 0. -1.
          2   -1    0    0  505    0 -0.00000000000E+00 -0.00000000000E+00 -0.97027120812E+03  0.97027120812E+03  0.00000000000E+00 0.  1.
         21    1    1    2  503  501  0.86115414603E+02  0.59426527037E+02 -0.10552125155E+02  0.10516046830E+03  0.00000000000E+00 0. -1.
         21    1    1    2  504  503  0.72301838546E+02 -0.13426830785E+02 -0.72010876094E+01  0.73889723946E+02  0.00000000000E+00 0. -1.
         21    1    1    2  505  502 -0.14916190302E+03  0.83798910791E+02 -0.19060029288E+03  0.25612497420E+03  0.00000000000E+00 0.  1.
          2    1    1    2  501    0 -0.92553501320E+01 -0.12979860704E+03 -0.64197905385E+03  0.65503469029E+03  0.00000000000E+00 0.  1.
<scales pt_clust_3="56.43695" pt_clust_4="56.43695" pt_clust_5="155.71448" pt_clust_6="130.12817"></scales>
<clustering>
<clus scale="   56.437">  3  4 -1 -1</clus>
<clus scale="  130.128">  2  6  1 -1</clus>
<clus scale="  155.714">  2  5  1 -1</clus>
<clus scale="  169.643">  1  3  2 -1</clus>
</clustering>
</event>
<event>
 6    0  0.2572175E+002  0.1182385E+03  0.7546771E-02  0.1246032E+00
          2   -1    0    0  505    0 -0.00000000000E+00  0.00000000000E+00  0.46863660192E+03  0.46863660192E+03  0.00000000000E+00 0. -1.
         21   -1    0    0  501  502  0.00000000000E+00 -0.00000000000E+00 -0.19260871036E+03  0.19260871036E+03  0.00000000000E+00 0. -1.
         21    1    1    2  503  504  0.49671077081E+02  0.15034427039E+01 -0.78948342883E+02  0.93286210568E+02  0.00000000000E+00 0.  1.
         21    1    1    2  504  502  0.49008095014E+02  0.43636732453E+02 -0.64454358069E+02  0.91980009079E+02  0.00000000000E+00 0. -1.
         21    1    1    2  505  503 -0.89152435627E+02 -0.82106869586E+02  0.10836940561E+03  0.16258420244E+03  0.00000000000E+00 0.  1.
          2    1    1    2  501    0 -0.95267364678E+01  0.36966694429E+02  0.31106118690E+03  0.31339489019E+03  0.00000000000E+00 0. -1.
<scales pt_clust_3="38.15973" pt_clust_4="38.15973" pt_clust_5="109.52774" pt_clust_6="38.17454"></scales>
<clustering>
<clus scale="   38.175">  1  6  2 -1</clus>
<clus scale="   38.160">  3  4 -1 -1</clus>
<clus scale="  109.528">  1  5  2 -1</clus>
<clus scale="  118.239">  2  3  1 -1</clus>
</clustering>
</event>
<event>
 6    0  0.2572175E+002  0.1230227E+03  0.7546771E-02  0.1238192E+00
         -2   -1    0    0    0  501 -0.00000000000E+00  0.00000000000E+00  0.27392665647E+03  0.27392665647E+03  0.00000000000E+00 0.  1.
         21   -1    0    0  505  502  0.00000000000E+00 -0.00000000000E+00 -0.48371727027E+03  0.48371727027E+03  0.00000000000E+00 0.  1.
         21    1    1    2  503  504  0.59548406469E+02 -0.15075968620E+03 -0.88716924824E+02  0.18478416719E+03  0.00000000000E+00 0.  1.
         21    1    1    2  504  502 -0.86222378845E+02  0.79312597599E+02 -0.31248527535E+03  0.33372418861E+03  0.00000000000E+00 0.  1.
         21    1    1    2  505  501 -0.73628577704E+00  0.38032783785E+02 -0.46900795289E+01  0.38327948095E+02  0.00000000000E+00 0.  1.
         -2    1    1    2    0  503  0.27410258153E+02  0.33414304813E+02  0.19610166591E+03  0.20080762284E+03  0.00000000000E+00 0.  1.
<scales pt_clust_3="14000.00000" pt_clust_4="123.02271" pt_clust_5="38.03991" pt_clust_6="68.26905"></scales>
<clustering>
<clus scale="   38.040">  1  5  2 -1</clus>
<clus scale="   68.269">  1  6  2 -1</clus>
<clus scale="  123.023">  2  4  1 -1</clus>
<clus scale="  123.023">  2  3  1 -1</clus>
</clustering>
</event>
<event>
 6    0  0.2572175E+002  0.1044754E+03  0.7546771E-02  0.1271157E+00
         21   -1    0    0  504  502  0.00000000000E+00  0.00000000000E+00  0.73376665783E+03  0.73376665783E+03  0.00000000000E+00 0. -1.
          1   -1    0    0  505    0 -0.00000000000E+00 -0.00000000000E+00 -0.10798936816E+04  0.10798936816E+04  0.00000000000E+00 0.  1.
         21    1    1    2  503  501 -0.17435022454E+02  0.64780976929E+02  0.53297739200E+02  0.85680826232E+02  0.00000000000E+00 0. -1.
         21    1    1    2  504  503  0.96534506039E+02 -0.50140852040E+02  0.62662996664E+03  0.63600167530E+03  0.00000000000E+00 0. -1.
         21    1    1    2  505  502 -0.68212108227E+02  0.18745338577E+02 -0.56468999062E+01  0.70965955963E+02  0.00000000000E+00 0.  1.
          1    1    1    2  501    0 -0.10887375358E+02 -0.33385463466E+02 -0.10204078297E+04  0.10210118819E+04  0.00000000000E+00 0.  1.
<scales pt_clust_3="59.27347" pt_clust_4="104.47540" pt_clust_5="14000.00000" pt_clust_6="35.11587"></scales>
<clustering>
<clus scale="   35.116">  2  6  1 -1</clus>
<clus scale="   59.273">  2  3  1 -1</clus>
<clus scale="  104.475">  1  4  2 -1</clus>
<clus scale="  104.475">  1  3  2 -1</clus>
</clustering>
</event>
<event>
 6    0  0.2572175E+002  0.1147580E+03  0.7546771E-02  0.1252004E+00
          2   -1    0    0  503    0 -0.00000000000E+00  0.00000000000E+00  0.38360439042E+03  0.38360439042E+03  0.00000000000E+00 0. -1.
         21   -1    0    0  501  502  0.00000000000E+00 -0.00000000000E+00 -0.62054012912E+03  0.62054012912E+03  0.00000000000E+00 0. -1.
         21    1    1    2  503  505 -0.48528081341E+02  0.27282324962E+02 -0.11246637747E+02  0.56796010376E+02  0.00000000000E+00 0. -1.
         21    1    1    2  504  502 -0.17129133660E+02 -0.10351403976E+03 -0.51254034596E+03  0.52316935106E+03  0.00000000000E+00 0. -1.
         21    1    1    2  505  504 -0.32749510053E+02  0.23905409627E+02 -0.52878559486E+02  0.66634383552E+02  0.00000000000E+00 0.  1.
          2    1    1    2  501    0  0.98406725054E+02  0.52326305170E+02  0.33972980449E+03  0.35754477455E+03  0.00000000000E+00 0. -1.
<scales pt_clust_3="37.16800" pt_clust_4="104.92170" pt_clust_5="37.16800" pt_clust_6="106.17254"></scales>
<clustering>
<clus scale="   37.168">  3  5 -1 -1</clus>
<clus scale="  104.922">  2  4  1 -1</clus>
<clus scale="  106.173">  1  6  2 -1</clus>
<clus scale="  104.922">  2  3  1 -1</clus>
</clustering>
</event>
<event>
 6    0  0.2572175E+002  0.6929180E+02  0.7546771E-02  0.1362518E+00
         21   -1    0    0  503  502  0.00000000000E+00  0.00000000000E+00  0.18534503844E+04  0.18534503844E+04  0.00000000000E+00 0. -1.
          3   -1    0    0  504    0 -0.00000000000E+00 -0.00000000000E+00 -0.99925749290E+01  0.99925749290E+01  0.00000000000E+00 0. -1.
         21    1    1    2  503  501  0.55351161691E+02  0.12541781264E+02  0.52590423735E+03  0.52895776225E+03  0.00000000000E+00 0. -1.
         21    1    1    2  504  505  0.40894385821E+02 -0.49992977309E+02  0.44173408761E+03  0.44643101677E+03  0.00000000000E+00 0. -1.
         21    1    1    2  505  502 -0.94256171860E+02 -0.14983297715E+01  0.76045845185E+03  0.76627901441E+03  0.00000000000E+00 0. -1.
          3    1    1    2  501    0 -0.19893756524E+01  0.38949525817E+02  0.11536103264E+03  0.12177516590E+03  0.00000000000E+00 0. -1.
<scales pt_clust_3="69.29180" pt_clust_4="54.31093" pt_clust_5="14000.00000" pt_clust_6="39.00030"></scales>
<clustering>
<clus scale="   39.000">  2  6  1 -1</clus>
<clus scale="   54.311">  2  4  1 -1</clus>
<clus scale="   69.292">  1  3  2 -1</clus>
<clus scale="   69.292">  1  3  2 -1</clus>
</clustering>
</event>
<event>
 6    0  0.2572175E+002  0.9112569E+02  0.7546771E-02  0.1300148E+00
          2   -1    0    0  504    0 -0.00000000000E+00  0.00000000000E+00  0.22349443704E+04  0.22349443704E+04  0.00000000000E+00 0. -1.
         21   -1    0    0  503  502  0.00000000000E+00 -0.00000000000E+00 -0.23072668248E+03  0.23072668248E+03  0.00000000000E+00 0.  1.
         21    1    1    2  503  501  0.38126081197E+02  0.46437570958E+02 -0.20043497779E+03  0.20924680735E+03  0.00000000000E+00 0.  1.
         21    1    1    2  504  505 -0.10875562309E+03 -0.26037849658E+02  0.33298293778E+03  0.35125972160E+03  0.00000000000E+00 0. -1.
         21    1    1    2  505  502  0.25110456949E+02  0.20927972476E+02  0.20360885177E+00  0.32688783041E+02  0.00000000000E+00 0. -1.
          2    1    1    2  501    0  0.45519084949E+02 -0.41327693776E+02  0.18714661191E+04  0.18724757409E+04  0.00000000000E+00 0. -1.
<scales pt_clust_3="14000.00000" pt_clust_4="91.12569" pt_clust_5="32.68815" pt_clust_6="61.49212"></scales>
<clustering>
<clus scale="   32.688">  2  5  1 -1</clus>
<clus scale="   61.492">  1  6  2 -1</clus>
<clus scale="   91.126">  1  4  2 -1</clus>
<clus scale="   32.688">  2  3  1 -1</clus>
</clustering>
</event>
<event>
 6    0  0.5545974E+002  0.1193751E+03  0.7546771E-02  0.1244132E+00
          1   -1    0    0  503    0 -0.00000000000E+00  0.00000000000E+00  0.95300292734E+02  0.95300292734E+02  0.00000000000E+00 0. -1.
         21   -1    0    0  504  502  0.00000000000E+00 -0.00000000000E+00 -0.17578195659E+04  0.17578195659E+04  0.00000000000E+00 0.  1.
         21    1    1    2  503  502 -0.50958804252E+01 -0.32713483188E+02 -0.14075063539E+03  0.14459212060E+03  0.00000000000E+00 0.  1.
         21    1    1    2  504  505 -0.49807236765E+02  0.51734642683E+01 -0.12183871507E+04  0.12194157513E+04  0.00000000000E+00 0.  1.
         21    1    1    2  505  501 -0.62537040289E+02 -0.18706638239E+02 -0.34888761071E+03  0.35494138196E+03  0.00000000000E+00 0.  1.
          1    1    1    2  501    0  0.11744015748E+03  0.46246657159E+02  0.45506123641E+02  0.13417060474E+03  0.00000000000E+00 0. -1.
<scales pt_clust_3="33.10800" pt_clust_4="57.09158" pt_clust_5="119.37507" pt_clust_6="14000.00000"></scales>
<clustering>
<clus scale="   33.108">  2  3  1 -1</clus>
<clus scale="   57.092">  2  4  1 -1</clus>
<clus scale="  119.375">  2  5  1 -1</clus>
<clus scale="   33.108">  2  3  1 -1</clus>
</clustering>
</event>
<event>
 6    0  0.2572175E+002  0.1830897E+03  0.7546771E-02  0.1164846E+00
          2   -1    0    0  504    0 -0.00000000000E+00  0.00000000000E+00  0.21775512066E+04  0.21775512066E+04  0.00000000000E+00 0. -1.
         21   -1    0    0  503  502  0.00000000000E+00 -0.00000000000E+00 -0.52433491055E+03  0.52433491055E+03  0.00000000000E+00 0. -1.
         21    1    1    2  503  505  0.53596119937E+02  0.10461389652E+03 -0.38548000490E+03  0.40300303423E+03  0.00000000000E+00 0. -1.
         21    1    1    2  504  502 -0.70964608511E+02 -0.36261728862E+02  0.36222248476E+03  0.37088545011E+03  0.00000000000E+00 0. -1.
         21    1    1    2  505  501  0.26889137036E+02  0.54736914578E+02 -0.11611858765E+03  0.13115899476E+03  0.00000000000E+00 0.  1.
          2    1    1    2  501    0 -0.95206484617E+01 -0.12308908223E+03  0.17925924038E+04  0.17968386380E+04  0.00000000000E+00 0. -1.
<scales pt_clust_3="31.04271" pt_clust_4="79.69246" pt_clust_5="31.04271" pt_clust_6="177.94513"></scales>
<clustering>
<clus scale="   31.043">  3  5 -1 -1</clus>
<clus scale="   79.692">  1  4  2 -1</clus>
<clus scale="  177.945">  1  6  2 -1</clus>
<clus scale="  183.090">  2  3  1 -1</clus>
</clustering>
</event>
<event>
 6    0  0.2572175E+002  0.1436672E+03  0.7546771E-02  0.1208478E+00
          2   -1    0    0  503    0 -0.00000000000E+00  0.00000000000E+00  0.71254942671E+03  0.71254942671E+03  0.00000000000E+00 0.  1.
         21   -1    0    0  505  502  0.00000000000E+00 -0.00000000000E+00 -0.96124966302E+02  0.96124966302E+02  0.00000000000E+00 0. -1.
         21    1    1    2  503  504 -0.13880264168E+02 -0.60603194345E+02  0.82633366774E+01  0.62719148840E+02  0.00000000000E+00 0. -1.
         21    1    1    2  504  502 -0.45601558413E+02 -0.57602862856E+02 -0.15661627642E+02  0.75119095570E+02  0.00000000000E+00 0. -1.
         21    1    1    2  505  501  0.57106241443E+02  0.16239085017E+03  0.31595462067E+03  0.35980443765E+03  0.00000000000E+00 0.  1.
          2    1    1    2  501    0  0.23755811379E+01 -0.44184792969E+02  0.30786813070E+03  0.31103171095E+03  0.00000000000E+00 0.  1.
<scales pt_clust_3="34.83425" pt_clust_4="34.83425" pt_clust_5="138.58710" pt_clust_6="44.24861"></scales>
<clustering>
<clus scale="   34.834">  3  4 -1 -1</clus>
<clus scale="   44.249">  1  6  2 -1</clus>
<clus scale="  138.587">  1  5  2 -1</clus>
<clus scale="  143.667">  2  3  1 -1</clus>
</clustering>
</event>
<event>
 6    0  0.2572175E+002  0.1900317E+03  0.7546771E-02  0.1158433E+00
         21   -1    0    0  504  502  0.00000000000E+00  0.00000000000E+00  0.14613265398E+03  0.14613265398E+03  0.00000000000E+00 0. -1.
          2   -1    0    0  503    0 -0.00000000000E+00 -0.00000000000E+00 -0.18881960477E+04  0.18881960477E+04  0.00000000000E+00 0.  1.
         21    1    1    2  503  502  0.28016872377E+02 -0.67019943848E+02 -0.32532462122E+02  0.79592581959E+02  0.00000000000E+00 0. -1.
         21    1    1    2  504  505  0.10881974980E+03  0.29463253954E+02 -0.57686970634E+02  0.12663967727E+03  0.00000000000E+00 0. -1.
         21    1    1    2  505  501  0.30519249495E+02 -0.69803191598E+02  0.64776326416E+02  0.99999413053E+02  0.00000000000E+00 0. -1.
          2    1    1    2  501    0 -0.16735587167E+03  0.10735988149E+03 -0.17166202874E+04  0.17280970294E+04  0.00000000000E+00 0.  1.
<scales pt_clust_3="72.64033" pt_clust_4="117.18017" pt_clust_5="190.03175" pt_clust_6="14000.00000"></scales>
<clustering>
<clus scale="   72.640">  1  3  2 -1</clus>
<clus scale="  117.180">  1  4  2 -1</clus>
<clus scale="  190.032">  1  5  2 -1</clus>
<clus scale="   72.640">  1  3  2 -1</clus>
</clustering>
</event>
<event>
 6    0  0.2572175E+002  0.1298791E+03  0.7546771E-02  0.1227635E+00
          2   -1    0    0  503    0 -0.00000000000E+00  0.00000000000E+00  0.44095083503E+03  0.44095083503E+03  0.00000000000E+00 0.  1.
         21   -1    0    0  504  502  0.00000000000E+00 -0.00000000000E+00 -0.17696596090E+03  0.17696596090E+03  0.00000000000E+00 0. -1.
         21    1    1    2  503  505 -0.33495463350E+02 -0.70194857177E+02  0.73706319175E+02  0.10715356049E+03  0.00000000000E+00 0.  1.
         21    1    1    2  504  501 -0.13021987279E+02  0.28405954977E+02  0.92366810091E+01  0.32585068773E+02  0.00000000000E+00 0. -1.
         21    1    1    2  505  502 -0.69252913184E+02  0.84499447000E+02 -0.11428681937E+03  0.15810629213E+03  0.00000000000E+00 0. -1.
          2    1    1    2  501    0  0.11577036381E+03 -0.42710544800E+02  0.29532869331E+03  0.32007187454E+03  0.00000000000E+00 0.  1.
<scales pt_clust_3="75.78944" pt_clust_4="31.24853" pt_clust_5="14000.00000" pt_clust_6="129.87908"></scales>
<clustering>
<clus scale="   31.249">  2  4  1 -1</clus>
<clus scale="   75.789">  1  3  2 -1</clus>
<clus scale="  129.879">  1  6  2 -1</clus>
<clus scale="   31.249">  2  3  1 -1</clus>
</clustering>
</event>
<event>
 6    0  0.2572175E+002  0.9352268E+02  0.7546771E-02  0.1294538E+00
         21   -1    0    0  503  502  0.00000000000E+00  0.00000000000E+00  0.61647566905E+03  0.61647566905E+03  0.00000000000E+00 0. -1.
         -2   -1    0    0    0  501 -0.00000000000E+00 -0.00000000000E+00 -0.64736137467E+03  0.64736137467E+03  0.00000000000E+00 0.  1.
         21    1    1    2  503  504  0.36041494763E+02  0.81646456833E+01  0.33751989726E+02  0.50048452467E+02  0.00000000000E+00 0. -1.
         21    1    1    2  504  501 -0.58111570682E+01  0.84069615247E+02  0.16401245288E+03  0.18439510421E+03  0.00000000000E+00 0. -1.
         21    1    1    2  505  502  0.18994463405E+02 -0.10094531469E+03  0.39276328326E+03  0.40597258882E+03  0.00000000000E+00 0. -1.
         -2    1    1    2    0  505 -0.49224801099E+02  0.87110537567E+01 -0.62141343150E+03  0.62342089823E+03  0.00000000000E+00 0.  1.
<scales pt_clust_3="36.95471" pt_clust_4="14000.00000" pt_clust_5="93.52268" pt_clust_6="49.93013"></scales>
<clustering>
<clus scale="   36.955">  1  3  2 -1</clus>
<clus scale="   49.930">  2  6  1 -1</clus>
<clus scale="   93.523">  1  5  2 -1</clus>
<clus scale="   36.955">  1  3  2 -1</clus>
</clustering>
</event>
<event>
 6    0  0.2572175E+002  0.1183104E+03  0.7546771E-02  0.1245911E+00
         21   -1    0    0  501  502  0.00000000000E+00  0.00000000000E+00  0.24161839881E+03  0.24161839881E+03  0.00000000000E+00 0.  1.
         -3   -1    0    0    0  501 -0.00000000000E+00 -0.00000000000E+00 -0.32559284840E+03  0.32559284840E+03  0.00000000000E+00 0. -1.
         21    1    1    2  503  505 -0.29140023869E+01 -0.42687475431E+02  0.20442245438E+02  0.47419377549E+02  0.00000000000E+00 0. -1.
         21    1    1    2  504  503  0.18834996637E+02 -0.54685884547E+02 -0.97721502944E+01  0.58658315595E+02  0.00000000000E+00 0.  1.
         21    1    1    2  505  502  0.10791416939E+02  0.11817897302E+03  0.16280607425E+03  0.20146598262E+03  0.00000000000E+00 0.  1.
         -3    1    1    2    0  504 -0.26712411189E+02 -0.20805613037E+02 -0.25745061898E+03  0.25966757144E+03  0.00000000000E+00 0. -1.
<scales pt_clust_3="32.22287" pt_clust_4="32.22287" pt_clust_5="112.22195" pt_clust_6="33.85892"></scales>
<clustering>
<clus scale="   32.223">  3  4 -1 -1</clus>
<clus scale="   33.859">  2  6  1 -1</clus>
<clus scale="  112.222">  1  5  2 -1</clus>
<clus scale="  112.222">  1  3  2 -1</clus>
</clustering>
</event>
<event>
 6    0  0.2572175E+002  0.1348383E+03  0.7546771E-02  0.1220448E+00
         21   -1    0    0  503  502  0.00000000000E+00  0.00000000000E+00  0.14705179069E+04  0.14705179069E+04  0.00000000000E+00 0. -1.
          2   -1    0    0  504    0 -0.00000000000E+00 -0.00000000000E+00 -0.12740500854E+03  0.12740500854E+03  0.00000000000E+00 0.  1.
         21    1    1    2  503  501  0.19403923999E+02  0.24045208519E+02  0.11857168438E+04  0.11861193523E+04  0.00000000000E+00 0. -1.
         21    1    1    2  504  505  0.47090674154E+02  0.39140039722E+02  0.94146455988E+02  0.11230774451E+03  0.00000000000E+00 0.  1.
         21    1    1    2  505  502  0.83503659935E+01  0.42079413736E+02  0.14192032501E+03  0.14826255199E+03  0.00000000000E+00 0.  1.
          2    1    1    2  501    0 -0.74844964146E+02 -0.10526466198E+03 -0.78670726464E+02  0.15123326658E+03  0.00000000000E+00 0.  1.
<scales pt_clust_3="30.89797" pt_clust_4="44.52494" pt_clust_5="44.52494" pt_clust_6="125.22904"></scales>
<clustering>
<clus scale="   30.898">  1  3  2 -1</clus>
<clus scale="   44.525">  4  5 -1 -1</clus>
<clus scale="  125.229">  2  6  1 -1</clus>
<clus scale="   30.898">  1  3  2 -1</clus>
</clustering>
</event>
<event>
 6    0  0.2572175E+002  0.8746658E+02  0.7546771E-02  0.1309105E+00
          2   -1    0    0  504    0 -0.00000000000E+00  0.00000000000E+00  0.82328842782E+03  0.82328842782E+03  0.00000000000E+00 0. -1.
         21   -1    0    0  503  502  0.00000000000E+00 -0.00000000000E+00 -0.14119311490E+04  0.14119311490E+04  0.00000000000E+00 0.  1.
         21    1    1    2  503  501 -0.59957915612E+02 -0.16552905853E+02 -0.13154365622E+04  0.13169063367E+04  0.00000000000E+00 0.  1.
         21    1    1    2  504  505 -0.41861571664E+02  0.57596205513E+02  0.12213101225E+03  0.14137078278E+03  0.00000000000E+00 0. -1.
         21    1    1    2  505  502 -0.27144120213E+02  0.24283474728E+02 -0.74307037077E+02  0.82752801561E+02  0.00000000000E+00 0. -1.
          2    1    1    2  501    0  0.12896360749E+03 -0.65326774388E+02  0.67896986585E+03  0.69418965582E+03  0.00000000000E+00 0. -1.
<scales pt_clust_3="87.46658" pt_clust_4="71.45880" pt_clust_5="36.42102" pt_clust_6="14000.00000"></scales>
<clustering>
<clus scale="   36.421">  2  5  1 -1</clus>
<clus scale="   71.459">  1  4  2 -1</clus>
<clus scale="   87.467">  2  3  1 -1</clus>
<clus scale="   36.421">  2  3  1 -1</clus>
</clustering>
</event>
<event>
 6    0  0.2572175E+002  0.1770525E+03  0.7546771E-02  0.1170687E+00
         21   -1    0    0  503  502  0.00000000000E+00  0.00000000000E+00  0.18251618107E+03  0.18251618107E+03  0.00000000000E+00 0.  1.
         -1   -1    0    0    0  501 -0.00000000000E+00 -0.00000000000E+00 -0.83828223139E+03  0.83828223139E+03  0.00000000000E+00 0.  1.
         21    1    1    2  503  505 -0.29490243977E+01 -0.14394976988E+03  0.34291598668E+02  0.14800725229E+03  0.00000000000E+00 0.  1.
         21    1    1    2  504  502 -0.29302657196E+02 -0.59458271458E+02 -0.48961086682E+02  0.82408250634E+02  0.00000000000E+00 0. -1.
         21    1    1    2  505  501 -0.75976007093E+02  0.19736947449E+03 -0.91901080926E+02  0.23059243654E+03  0.00000000000E+00 0.  1.
         -1    1    1    2    0  504  0.10822768869E+03  0.60385668441E+01 -0.54919548137E+03  0.55979047299E+03  0.00000000000E+00 0.  1.
<scales pt_clust_3="14000.00000" pt_clust_4="66.28674" pt_clust_5="177.05249" pt_clust_6="107.37119"></scales>
<clustering>
<clus scale="   66.287">  1  4  2 -1</clus>
<clus scale="  107.371">  2  6  1 -1</clus>
<clus scale="  177.052">  2  5  1 -1</clus>
<clus scale="   66.287">  1  3  2 -1</clus>
</clustering>
</event>
<event>
 6    0  0.2572175E+002  0.2069695E+03  0.7546771E-02  0.1143989E+00
         -1   -1    0    0    0  501 -0.00000000000E+00  0.00000000000E+00  0.85464530473E+03  0.85464530473E+03  0.00000000000E+00 0. -1.
         21   -1    0    0  505  502  0.00000000000E+00 -0.00000000000E+00 -0.46991196524E+03  0.46991196524E+03  0.00000000000E+00 0. -1.
         21    1    1    2  503  502  0.16239864546E+03  0.87803436105E+02 -0.25287596074E+03  0.31309585586E+03  0.00000000000E+00 0. -1.
         21    1    1    2  504  501  0.10207104831E+03  0.27527206662E+01  0.42521089656E+03  0.43729896287E+03  0.00000000000E+00 0. -1.
         21    1    1    2  505  504 -0.12738436912E+02  0.49565881611E+02 -0.12228178405E+03  0.13255896464E+03  0.00000000000E+00 0.  1.
         -1    1    1    2    0  503 -0.25173125686E+03 -0.14012203838E+03  0.33468018772E+03  0.44160348659E+03  0.00000000000E+00 0. -1.
<scales pt_clust_3="206.96946" pt_clust_4="101.91083" pt_clust_5="51.17660" pt_clust_6="14000.00000"></scales>
<clustering>
<clus scale="   51.177">  2  5  1 -1</clus>
<clus scale="  101.911">  1  4  2 -1</clus>
<clus scale="  206.969">  2  3  1 -1</clus>
<clus scale="   51.177">  2  3  1 -1</clus>
</clustering>
</event>
<event>
 6    0  0.2572175E+002  0.9221835E+02  0.7546771E-02  0.1297567E+00
          2   -1    0    0  505    0 -0.00000000000E+00  0.00000000000E+00  0.29381501717E+04  0.29381501717E+04  0.00000000000E+00 0.  1.
         21   -1    0    0  504  502  0.00000000000E+00 -0.00000000000E+00 -0.20610416120E+03  0.20610416120E+03  0.00000000000E+00 0.  1.
         21    1    1    2  503  502 -0.45407577223E+02 -0.51953142629E+02 -0.33443306185E+02  0.76677453185E+02  0.00000000000E+00 0.  1.
         21    1    1    2  504  501  0.84827316933E+02 -0.33913536278E+02 -0.12693458334E+03  0.15639114453E+03  0.00000000000E+00 0.  1.
         21    1    1    2  505  503 -0.80816627684E+02  0.33084337563E+01  0.18170973119E+03  0.19889871657E+03  0.00000000000E+00 0.  1.
          2    1    1    2  501    0  0.41396887974E+02  0.82558245151E+02  0.27107141689E+04  0.27122870187E+04  0.00000000000E+00 0.  1.
<scales pt_clust_3="68.99983" pt_clust_4="92.21835" pt_clust_5="83.40109" pt_clust_6="14000.00000"></scales>
<clustering>
<clus scale="   69.000">  2  3  1 -1</clus>
<clus scale="   83.401">  1  5  2 -1</clus>
<clus scale="   92.218">  2  4  1 -1</clus>
<clus scale="   69.000">  2  3  1 -1</clus>
</clustering>
</event>
<event>
 6    0  0.2572175E+002  0.7094788E+02  0.7546771E-02  0.1356899E+00
         21   -1    0    0  505  502  0.00000000000E+00  0.00000000000E+00  0.57775448650E+03  0.57775448650E+03  0.00000000000E+00 0.  1.
          2   -1    0    0  504    0 -0.00000000000E+00 -0.00000000000E+00 -0.78715323363E+03  0.78715323363E+03  0.00000000000E+00 0. -1.
         21    1    1    2  503  501 -0.39564366861E+02  0.83870227459E+02 -0.10169726778E+02  0.93289750358E+02  0.00000000000E+00 0.  1.
         21    1    1    2  504  502  0.29927785682E+02 -0.43980040742E+02  0.10929530227E+03  0.12155401860E+03  0.00000000000E+00 0.  1.
         21    1    1    2  505  503 -0.43829144968E+02  0.58679781569E+01  0.41790289841E+03  0.42023595708E+03  0.00000000000E+00 0.  1.
          2    1    1    2  501    0  0.53465726147E+02 -0.45758164873E+02 -0.72642722103E+03  0.72982799411E+03  0.00000000000E+00 0. -1.
<scales pt_clust_3="14000.00000" pt_clust_4="39.75976" pt_clust_5="44.22021" pt_clust_6="70.94788"></scales>
<clustering>
<clus scale="   44.220">  1  5  2 -1</clus>
<clus scale="   39.760">  1  4  2 -1</clus>
<clus scale="   70.948">  2  6  1 -1</clus>
<clus scale="   44.220">  1  3  2 -1</clus>
</clustering>
</event>
<event>
 6    0  0.2572175E+002  0.9311542E+02  0.7546771E-02  0.1295478E+00
          2   -1    0    0  505    0 -0.00000000000E+00  0.00000000000E+00  0.96471850280E+03  0.96471850280E+03  0.00000000000E+00 0.  1.
         21   -1    0    0  504  502  0.00000000000E+00 -0.00000000000E+00 -0.54362971279E+02  0.54362971279E+02  0.00000000000E+00 0.  1.
         21    1    1    2  503  502  0.33115243283E+02 -0.94563968124E+01  0.11961215288E+01  0.34459737159E+02  0.00000000000E+00 0.  1.
         21    1    1    2  504  501  0.63550052366E+01  0.73627398837E+02  0.89494093467E+02  0.11606279644E+03  0.00000000000E+00 0.  1.
         21    1    1    2  505  503 -0.75954006468E+01 -0.12930477019E+03  0.16441197875E+03  0.20930530921E+03  0.00000000000E+00 0.  1.
          2    1    1    2  501    0 -0.31874847873E+02  0.65133768170E+02  0.65525333778E+03  0.65925363128E+03  0.00000000000E+00 0.  1.
<scales pt_clust_3="34.43897" pt_clust_4="14000.00000" pt_clust_5="93.11542" pt_clust_6="71.30593"></scales>
<clustering>
<clus scale="   34.439">  2  3  1 -1</clus>
<clus scale="   71.306">  1  6  2 -1</clus>
<clus scale="   93.115">  1  5  2 -1</clus>
<clus scale="   34.439">  2  3  1 -1</clus>
</clustering>
</event>
<event>
 6    0  0.2572175E+002  0.1283979E+03  0.7546771E-02  0.1229853E+00
         21   -1    0    0  503  502  0.00000000000E+00  0.00000000000E+00  0.10742596043E+04  0.10742596043E+04  0.00000000000E+00 0.  1.
          1   -1    0    0  505    0 -0.00000000000E+00 -0.00000000000E+00 -0.18185832576E+03  0.18185832576E+03  0.00000000000E+00 0.  1.
         21    1    1    2  503  504 -0.11512637718E+03  0.87725975147E+02  0.95573241685E+03  0.96663042682E+03  0.00000000000E+00 0.  1.
         21    1    1    2  504  501  0.45444388509E+02  0.13161682578E+01 -0.22422314325E+02  0.50692059788E+02  0.00000000000E+00 0. -1.
         21    1    1    2  505  502  0.43749052759E+01 -0.55514316203E+02  0.79923941762E+02  0.97410551617E+02  0.00000000000E+00 0. -1.
          1    1    1    2  501    0  0.65307083393E+02 -0.33527827202E+02 -0.12083276579E+03  0.14138489179E+03  0.00000000000E+00 0.  1.
<scales pt_clust_3="115.83593" pt_clust_4="43.58964" pt_clust_5="55.68644" pt_clust_6="43.58964"></scales>
<clustering>
<clus scale="   43.590">  4  6 -1 -1</clus>
<clus scale="   55.686">  1  5  2 -1</clus>
<clus scale="  115.836">  1  3  2 -1</clus>
<clus scale="   55.686">  1  3  2 -1</clus>
</clustering>
</event>
<event>
 6    0  0.2572175E+002  0.1803481E+03  0.7546771E-02  0.1167467E+00
         21   -1    0    0  505  502  0.00000000000E+00  0.00000000000E+00  0.32295555578E+03  0.32295555578E+03  0.00000000000E+00 0.  1.
         -2   -1    0    0    0  501 -0.00000000000E+00 -0.00000000000E+00 -0.32885819965E+03  0.32885819965E+03  0.00000000000E+00 0.  1.
         21    1    1    2  503  504 -0.36515344043E+02  0.86153256493E+02  0.10181099630E+03  0.13827954629E+03  0.00000000000E+00 0.  1.
         21    1    1    2  504  502  0.71877898813E+01  0.92363718976E+02  0.15095950358E+03  0.17711999499E+03  0.00000000000E+00 0.  1.
         21    1    1    2  505  501 -0.22561952691E+02 -0.13500853065E+03 -0.11976326199E+03  0.18187793703E+03  0.00000000000E+00 0.  1.
         -2    1    1    2    0  503  0.51889506853E+02 -0.43508444817E+02 -0.13890988176E+03  0.15453627711E+03  0.00000000000E+00 0.  1.
<scales pt_clust_3="53.17116" pt_clust_4="53.17116" pt_clust_5="172.24958" pt_clust_6="67.71636"></scales>
<clustering>
<clus scale="   53.171">  3  4 -1 -1</clus>
<clus scale="   67.716">  2  6  1 -1</clus>
<clus scale="  172.250">  2  5  1 -1</clus>
<clus scale="  180.348">  1  3  2 -1</clus>
</clustering>
</event>
<event>
 6    0  0.2572175E+002  0.6672058E+02  0.7546771E-02  0.1371614E+00
         21   -1    0    0  505  502  0.00000000000E+00  0.00000000000E+00  0.80094247204E+03  0.80094247204E+03  0.00000000000E+00 0. -1.
          4   -1    0    0  503    0 -0.00000000000E+00 -0.00000000000E+00 -0.65728362262E+02  0.65728362262E+02  0.00000000000E+00 0. -1.
         21    1    1    2  503  502  0.58816020787E+02 -0.15564239308E+02  0.16651720545E+03  0.17728381076E+03  0.00000000000E+00 0. -1.
         21    1    1    2  504  501 -0.34609474880E+02 -0.75711523647E+02  0.89343599552E+02  0.12211604868E+03  0.00000000000E+00 0. -1.
         21    1    1    2  505  504  0.14309787770E+02  0.63233905576E+02  0.50770666089E+03  0.51182941529E+03  0.00000000000E+00 0. -1.
          4    1    1    2  501    0 -0.38516333677E+02  0.28041857378E+02 -0.28353356115E+02  0.55441559575E+02  0.00000000000E+00 0. -1.
<scales pt_clust_3="50.95817" pt_clust_4="66.72058" pt_clust_5="14000.00000" pt_clust_6="47.64298"></scales>
<clustering>
<clus scale="   47.643">  2  6  1 -1</clus>
<clus scale="   50.958">  2  3  1 -1</clus>
<clus scale="   66.721">  2  4  1 -1</clus>
<clus scale="   66.721">  1  3  2 -1</clus>
</clustering>
</event>
<event>
 6    0  0.2572175E+002  0.3898625E+03  0.7546771E-02  0.1047348E+00
         21   -1    0    0  501  502  0.00000000000E+00  0.00000000000E+00  0.19791917864E+04  0.19791917864E+04  0.00000000000E+00 0.  1.
          4   -1    0    0  505    0 -0.00000000000E+00 -0.00000000000E+00 -0.37243937870E+03  0.37243937870E+03  0.00000000000E+00 0. -1.
         21    1    1    2  503  504  0.16046186217E+02  0.64709661556E+02  0.11651770119E+02  0.67680012838E+02  0.00000000000E+00 0.  1.
         21    1    1    2  504  502  0.79830572357E+02 -0.36679759447E+03  0.18044823573E+04  0.18431142052E+04  0.00000000000E+00 0.  1.
         21    1    1    2  505  503 -0.67974318418E+02  0.31651505966E+03 -0.11859722301E+03  0.34477179737E+03  0.00000000000E+00 0. -1.
          4    1    1    2  501    0 -0.27902440155E+02 -0.14427126747E+02 -0.90784496684E+02  0.96065149721E+02  0.00000000000E+00 0. -1.
<scales pt_clust_3="46.53453" pt_clust_4="375.95533" pt_clust_5="46.53453" pt_clust_6="31.41159"></scales>
<clustering>
<clus scale="   31.412">  2  6  1 -1</clus>
<clus scale="   46.535">  3  5 -1 -1</clus>
<clus scale="  375.955">  1  4  2 -1</clus>
<clus scale="  375.955">  1  3  2 -1</clus>
</clustering>
</event>
<event>
 6    0  0.2572175E+002  0.1372487E+03  0.7546771E-02  0.1217080E+00
          2   -1    0    0  503    0 -0.00000000000E+00  0.00000000000E+00  0.12999605138E+04  0.12999605138E+04  0.00000000000E+00 0.  1.
         21   -1    0    0  504  502  0.00000000000E+00 -0.00000000000E+00 -0.64587062944E+02  0.64587062944E+02  0.00000000000E+00 0.  1.
         21    1    1    2  503  505  0.12353206871E+03  0.74806494338E+01  0.86818309219E+02  0.15117390956E+03  0.00000000000E+00 0.  1.
         21    1    1    2  504  501 -0.89859786691E+02 -0.99064671965E+01  0.16390400241E+03  0.18718290884E+03  0.00000000000E+00 0.  1.
         21    1    1    2  505  502  0.34344052676E+02  0.67650212504E+02  0.59938042354E+02  0.96688335012E+02  0.00000000000E+00 0.  1.
          2    1    1    2  501    0 -0.68016334693E+02 -0.65224394742E+02  0.92471309688E+03  0.92950242334E+03  0.00000000000E+00 0.  1.
<scales pt_clust_3="75.62334" pt_clust_4="90.40420" pt_clust_5="75.62334" pt_clust_6="97.51131"></scales>
<clustering>
<clus scale="   75.623">  3  5 -1 -1</clus>
<clus scale="   90.404">  2  4  1 -1</clus>
<clus scale="   97.511">  1  6  2 -1</clus>
<clus scale="   90.404">  2  3  1 -1</clus>
</clustering>
</event>
<event>
 6    0  0.2572175E+002  0.1559641E+03  0.7546771E-02  0.1193330E+00
         21   -1    0    0  504  502  0.00000000000E+00  0.00000000000E+00  0.11754897767E+04  0.11754897767E+04  0.00000000000E+00 0.  1.
          1   -1    0    0  505    0 -0.00000000000E+00 -0.00000000000E+00 -0.57560299834E+03  0.57560299834E+03  0.00000000000E+00 0.  1.
         21    1    1    2  503  501  0.19165510769E+02 -0.27098737161E+02  0.76905582982E+02  0.83762324780E+02  0.00000000000E+00 0. -1.
         21    1    1    2  504  503  0.85293485250E+02 -0.60349288430E+02  0.61039891284E+03  0.61927687510E+03  0.00000000000E+00 0. -1.
         21    1    1    2  505  502 -0.15539064102E+03  0.59535488772E+02  0.46433517647E+03  0.49325235108E+03  0.00000000000E+00 0.  1.
          1    1    1    2  501    0  0.50931644998E+02  0.27912536820E+02 -0.55175289398E+03  0.55480122403E+03  0.00000000000E+00 0.  1.
<scales pt_clust_3="32.46470" pt_clust_4="32.46470" pt_clust_5="144.93793" pt_clust_6="58.07876"></scales>
<clustering>
<clus scale="   32.465">  3  4 -1 -1</clus>
<clus scale="   58.079">  2  6  1 -1</clus>
<clus scale="  144.938">  2  5  1 -1</clus>
<clus scale="  155.964">  1  3  2 -1</clus>
</clustering>
</event>
<event>
 6    0  0.2572175E+002  0.1398165E+03  0.7546771E-02  0.1213576E+00
         21   -1    0    0  503  502  0.00000000000E+00  0.00000000000E+00  0.45016073421E+03  0.45016073421E+03  0.00000000000E+00 0. -1.
         -2   -1    0    0    0  501 -0.00000000000E+00 -0.00000000000E+00 -0.99136246263E+03  0.99136246263E+03  0.00000000000E+00 0.  1.
         21    1    1    2  503  501  0.15051778459E+02 -0.29476186406E+02 -0.17080931105E+02  0.37244594336E+02  0.00000000000E+00 0.  1.
         21    1    1    2  504  505 -0.16635313459E+03  0.35194051244E+02 -0.23380935998E+02  0.17163523764E+03  0.00000000000E+00 0.  1.
         21    1    1    2  505  502  0.13118290790E+03  0.44483243845E+02  0.35195621885E+03  0.37823391479E+03  0.00000000000E+00 0. -1.
         -2    1    1    2    0  504  0.20118448230E+02 -0.50201108682E+02 -0.85269608016E+03  0.85440945008E+03  0.00000000000E+00 0.  1.
<scales pt_clust_3="33.09685" pt_clust_4="14000.00000" pt_clust_5="139.81650" pt_clust_6="83.30258"></scales>
<clustering>
<clus scale="   33.097">  2  3  1 -1</clus>
<clus scale="   83.303">  2  6  1 -1</clus>
<clus scale="  139.816">  1  5  2 -1</clus>
<clus scale="  139.816">  1  3  2 -1</clus>
</clustering>
</event>
<event>
 6    0  0.2572175E+002  0.1028684E+03  0.7546771E-02  0.1274377E+00
         21   -1    0    0  503  502  0.00000000000E+00  0.00000000000E+00  0.18056175271E+03  0.18056175271E+03  0.00000000000E+00 0.  1.
          2   -1    0    0  505    0 -0.00000000000E+00 -0.00000000000E+00 -0.28858700094E+04  0.28858700094E+04  0.00000000000E+00 0. -1.
         21    1    1    2  503  501  0.15583972564E+01  0.72321892303E+02 -0.47236221897E+01  0.72492739739E+02  0.00000000000E+00 0. -1.
         21    1    1    2  504  502  0.93840448504E+02 -0.11393755930E+03  0.10776098649E+03  0.18275729098E+03  0.00000000000E+00 0.  1.
         21    1    1    2  505  504 -0.47447308295E+02  0.19836395560E+02 -0.59755020986E+03  0.59975910410E+03  0.00000000000E+00 0.  1.
          2    1    1    2  501    0 -0.47951537465E+02  0.21779271441E+02 -0.22107954112E+04  0.22114226273E+04  0.00000000000E+00 0. -1.
<scales pt_clust_3="72.66068" pt_clust_4="102.86840" pt_clust_5="51.42694" pt_clust_6="14000.00000"></scales>
<clustering>
<clus scale="   51.427">  2  5  1 -1</clus>
<clus scale="   72.661">  1  3  2 -1</clus>
<clus scale="  102.868">  1  4  2 -1</clus>
<clus scale="   72.661">  1  3  2 -1</clus>
</clustering>
</event>
<event>
 6    0  0.2572175E+002  0.1690289E+03  0.7546771E-02  0.1178864E+00
          2   -1    0    0  504    0 -0.00000000000E+00  0.00000000000E+00  0.45137248867E+03  0.45137248867E+03  0.00000000000E+00 0.  1.
         21   -1    0    0  501  502  0.00000000000E+00 -0.00000000000E+00 -0.36055520247E+03  0.36055520247E+03  0.00000000000E+00 0. -1.
         21    1    1    2  503  505  0.81196279674E+02  0.30041388625E+02 -0.13069375774E+03  0.15676791500E+03  0.00000000000E+00 0. -1.
         21    1    1    2  504  503  0.72892413094E+02 -0.56373346097E+02  0.34286289126E+02  0.98319925035E+02  0.00000000000E+00 0.  1.
         21    1    1    2  505  502  0.76791626462E+02 -0.14599226091E+02 -0.13639237829E+03  0.15720360095E+03  0.00000000000E+00 0. -1.
          2    1    1    2  501    0 -0.23088031923E+03  0.40931183563E+02  0.32361713310E+03  0.39963625014E+03  0.00000000000E+00 0.  1.
<scales pt_clust_3="42.96400" pt_clust_4="92.14802" pt_clust_5="42.96400" pt_clust_6="162.86896"></scales>
<clustering>
<clus scale="   42.964">  3  5 -1 -1</clus>
<clus scale="   92.148">  1  4  2 -1</clus>
<clus scale="  162.869">  1  6  2 -1</clus>
<clus scale="  169.029">  2  3  1 -1</clus>
</clustering>
</event>
<event>
 6    0  0.2572175E+002  0.1097887E+03  0.7546771E-02  0.1260962E+00
         21   -1    0    0  501  502  0.00000000000E+00  0.00000000000E+00  0.70454667036E+03  0.70454667036E+03  0.00000000000E+00 0.  1.
          2   -1    0    0  503    0 -0.00000000000E+00 -0.00000000000E+00 -0.11509607074E+04  0.11509607074E+04  0.00000000000E+00 0. -1.
         21    1    1    2  503  505 -0.12215602943E+03 -0.33405776163E+02 -0.38799261545E+03  0.40813761289E+03  0.00000000000E+00 0. -1.
         21    1    1    2  504  502  0.48783263272E+02 -0.15952867191E+02  0.27241290787E+03  0.27720586777E+03  0.00000000000E+00 0.  1.
         21    1    1    2  505  504  0.53732579301E+02  0.18646546932E+02  0.41729184331E+03  0.42115005198E+03  0.00000000000E+00 0.  1.
          2    1    1    2  501    0  0.19640186853E+02  0.30712096422E+02 -0.74812617272E+03  0.74901384508E+03  0.00000000000E+00 0. -1.
<scales pt_clust_3="102.77146" pt_clust_4="36.66356" pt_clust_5="36.66356" pt_clust_6="36.45504"></scales>
<clustering>
<clus scale="   36.455">  2  6  1 -1</clus>
<clus scale="   36.664">  4  5 -1 -1</clus>
<clus scale="  102.771">  2  3  1 -1</clus>
<clus scale="  109.789">  1  3  2 -1</clus>
</clustering>
</event>
<event>
 6    0  0.2572175E+002  0.1027653E+03  0.7546771E-02  0.1274586E+00
          1   -1    0    0  505    0 -0.00000000000E+00  0.00000000000E+00  0.14222295361E+04  0.14222295361E+04  0.00000000000E+00 0.  1.
         21   -1    0    0  504  502  0.00000000000E+00 -0.00000000000E+00 -0.36039093845E+03  0.36039093845E+03  0.00000000000E+00 0.  1.
         21    1    1    2  503  502 -0.29409537311E+02 -0.48855896215E+02 -0.12030183276E+03  0.13313283008E+03  0.00000000000E+00 0.  1.
         21    1    1    2  504  501  0.83482256420E+02  0.66647429931E+02  0.18129959457E+03  0.21042982214E+03  0.00000000000E+00 0. -1.
         21    1    1    2  505  503 -0.72536232831E+02  0.19141143974E+02 -0.21232559816E+03  0.22518891647E+03  0.00000000000E+00 0.  1.
          1    1    1    2  501    0  0.18463513721E+02 -0.36932677690E+02  0.12131664341E+04  0.12138689059E+04  0.00000000000E+00 0.  1.
<scales pt_clust_3="57.71461" pt_clust_4="14000.00000" pt_clust_5="102.76534" pt_clust_6="41.29073"></scales>
<clustering>
<clus scale="   41.291">  1  6  2 -1</clus>
<clus scale="   57.715">  2  3  1 -1</clus>
<clus scale="  102.765">  2  5  1 -1</clus>
<clus scale="   57.715">  2  3  1 -1</clus>
</clustering>
</event>
<event>
 6    0  0.2572175E+002  0.1716996E+03  0.7546771E-02  0.1176087E+00
         21   -1    0    0  503  502  0.00000000000E+00  0.00000000000E+00  0.87333213228E+03  0.87333213228E+03  0.00000000000E+00 0. -1.
          1   -1    0    0  504    0 -0.00000000000E+00 -0.00000000000E+00 -0.50680855422E+02  0.50680855422E+02  0.00000000000E+00 0. -1.
         21    1    1    2  503  501 -0.45973526936E+02 -0.27151704016E+02  0.14499630454E+03  0.15451442826E+03  0.00000000000E+00 0. -1.
         21    1    1    2  504  505 -0.20317126336E+02  0.28362040926E+02  0.53514129216E+02  0.63882337260E+02  0.00000000000E+00 0.  1.
         21    1    1    2  505  502  0.17819623457E+03 -0.91557383418E+01  0.20526454858E+03  0.27197658072E+03  0.00000000000E+00 0. -1.
          1    1    1    2  501    0 -0.11190558130E+03  0.79454014327E+01  0.41887629453E+03  0.43363964146E+03  0.00000000000E+00 0. -1.
<scales pt_clust_3="35.27374" pt_clust_4="34.88826" pt_clust_5="163.71488" pt_clust_6="35.27374"></scales>
<clustering>
<clus scale="   34.888">  2  4  1 -1</clus>
<clus scale="   35.274">  3  6 -1 -1</clus>
<clus scale="  163.715">  2  5  1 -1</clus>
<clus scale="  171.700">  1  3  2 -1</clus>
</clustering>
</event>
<event>
 6    0  0.2572175E+002  0.1018941E+03  0.7546771E-02  0.1276363E+00
         21   -1    0    0  501  502  0.00000000000E+00  0.00000000000E+00  0.21043858922E+04  0.21043858922E+04  0.00000000000E+00 0. -1.
          3   -1    0    0  505    0 -0.00000000000E+00 -0.00000000000E+00 -0.30677351640E+02  0.30677351640E+02  0.00000000000E+00 0. -1.
         21    1    1    2  503  502 -0.43510209971E+02 -0.73785325484E+01  0.10936430241E+04  0.10945330718E+04  0.00000000000E+00 0. -1.
         21    1    1    2  504  503 -0.56926975547E+02 -0.49684379708E+02  0.50899267132E+03  0.51457045931E+03  0.00000000000E+00 0. -1.
         21    1    1    2  505  504  0.38775988670E+02 -0.73870069841E+02  0.11928971541E+03  0.14556922999E+03  0.00000000000E+00 0. -1.
          3    1    1    2  501    0  0.61661196848E+02  0.13093298210E+03  0.35178312968E+03  0.38039048270E+03  0.00000000000E+00 0. -1.
<scales pt_clust_3="44.13141" pt_clust_4="14000.00000" pt_clust_5="81.81941" pt_clust_6="101.89414"></scales>
<clustering>
<clus scale="   44.131">  1  3  2 -1</clus>
<clus scale="   81.819">  2  5  1 -1</clus>
<clus scale="  101.894">  2  6  1 -1</clus>
<clus scale="   44.131">  1  3  2 -1</clus>
</clustering>
</event>
<event>
 6    0  0.2572175E+002  0.1815570E+03  0.7546771E-02  0.1166305E+00
         -4   -1    0    0    0  501 -0.00000000000E+00  0.00000000000E+00  0.72239970767E+03  0.72239970767E+03  0.00000000000E+00 0.  1.
         21   -1    0    0  504  502  0.00000000000E+00 -0.00000000000E+00 -0.20569180875E+03  0.20569180875E+03  0.00000000000E+00 0.  1.
         21    1    1    2  503  502  0.17475821636E+03 -0.39053024769E+02 -0.40968121728E+02  0.18369529097E+03  0.00000000000E+00 0.  1.
         21    1    1    2  504  501  0.10323648522E+03  0.10149098296E+03  0.10628133998E+03  0.17959374914E+03  0.00000000000E+00 0.  1.
         21    1    1    2  505  503 -0.21542310520E+03 -0.12588669114E+03  0.34973420829E+03  0.42961446637E+03  0.00000000000E+00 0.  1.
         -4    1    1    2    0  505 -0.62571596376E+02  0.63448732953E+02  0.10166047238E+03  0.13518800994E+03  0.00000000000E+00 0.  1.
<scales pt_clust_3="14000.00000" pt_clust_4="146.26480" pt_clust_5="181.55695" pt_clust_6="89.11199"></scales>
<clustering>
<clus scale="   89.112">  1  6  2 -1</clus>
<clus scale="  146.265">  1  4  2 -1</clus>
<clus scale="  181.557">  1  5  2 -1</clus>
<clus scale="  181.557">  2  3  1 -1</clus>
</clustering>
</event>
<event>
 6    0  0.2572175E+002  0.8800473E+02  0.7546771E-02  0.1307757E+00
         21   -1    0    0  503  502  0.00000000000E+00  0.00000000000E+00  0.10421619519E+03  0.10421619519E+03  0.00000000000E+00 0. -1.
         -4   -1    0    0    0  501 -0.00000000000E+00 -0.00000000000E+00 -0.29273983148E+03  0.29273983148E+03  0.00000000000E+00 0.  1.
         21    1    1    2  503  504  0.33927589337E+02  0.78145130569E+02  0.23305332422E+02  0.88322597727E+02  0.00000000000E+00 0. -1.
         21    1    1    2  504  501 -0.20990464517E+02  0.26224226916E+02 -0.19311229574E+02  0.38745751582E+02  0.00000000000E+00 0.  1.
         21    1    1    2  505  502 -0.60681331503E+02 -0.74710012632E+02 -0.34622188233E+02  0.10228639156E+03  0.00000000000E+00 0. -1.
         -4    1    1    2    0  505  0.47744206683E+02 -0.29659344853E+02 -0.15789555090E+03  0.16760128580E+03  0.00000000000E+00 0.  1.
<scales pt_clust_3="88.00473" pt_clust_4="33.59032" pt_clust_5="14000.00000" pt_clust_6="37.30852"></scales>
<clustering>
<clus scale="   33.590">  2  4  1 -1</clus>
<clus scale="   37.309">  2  6  1 -1</clus>
<clus scale="   88.005">  1  3  2 -1</clus>
<clus scale="   88.005">  1  3  2 -1</clus>
</clustering>
</event>
<event>
 6    0  0.2572175E+002  0.3450724E+03  0.7546771E-02  0.1064656E+00
         21   -1    0    0  503  502  0.00000000000E+00  0.00000000000E+00  0.17751143998E+04  0.17751143998E+04  0.00000000000E+00 0. -1.
         -4   -1    0    0    0  501 -0.00000000000E+00 -0.00000000000E+00 -0.20793371958E+03  0.20793371958E+03  0.00000000000E+00 0.  1.
         21    1    1    2  503  504  0.97484836922E+02 -0.10982130282E+03  0.60201432678E+03  0.61966544331E+03  0.00000000000E+00 0. -1.
         21    1    1    2  504  505  0.19146563896E+03  0.33153837272E+02  0.90692279358E+03  0.92750591445E+03  0.00000000000E+00 0. -1.
         21    1    1    2  505  501 -0.32015874074E+03  0.54775869560E+02  0.13376750623E+03  0.35127732759E+03  0.00000000000E+00 0.  1.
         -4    1    1    2    0  502  0.31208264856E+02  0.21891595989E+02 -0.75523946341E+02  0.84599434048E+02  0.00000000000E+00 0.  1.
<scales pt_clust_3="143.23937" pt_clust_4="143.23937" pt_clust_5="302.65034" pt_clust_6="38.12083"></scales>
<clustering>
<clus scale="   38.121">  2  6  1 -1</clus>
<clus scale="  143.239">  3  4 -1 -1</clus>
<clus scale="  302.650">  2  5  1 -1</clus>
<clus scale="  345.072">  1  3  2 -1</clus>
</clustering>
</event>
<event>
 6    0  0.2572175E+002  0.1370877E+03  0.7546771E-02  0.1217302E+00
         21   -1    0    0  504  502  0.00000000000E+00  0.00000000000E+00  0.10484429912E+04  0.10484429912E+04  0.00000000000E+00 0.  1.
          2   -1    0    0  505    0 -0.00000000000E+00 -0.00000000000E+00 -0.27140804252E+04  0.27140804252E+04  0.00000000000E+00 0.  1.
         21    1    1    2  503  502 -0.37816881525E+02  0.63454476737E+02  0.92409073457E+03  0.92703844196E+03  0.00000000000E+00 0.  1.
         21    1    1    2  504  501 -0.22647202512E+02 -0.21374830271E+03 -0.10324163151E+04  0.10545542567E+04  0.00000000000E+00 0.  1.
         21    1    1    2  505  503  0.81714088142E+02  0.67621356160E+02  0.85295364956E+02  0.13610708759E+03  0.00000000000E+00 0. -1.
          2    1    1    2  501    0 -0.21250004106E+02  0.82672469813E+02 -0.16426072184E+04  0.16448236301E+04  0.00000000000E+00 0.  1.
<scales pt_clust_3="73.86872" pt_clust_4="137.08775" pt_clust_5="14000.00000" pt_clust_6="85.99920"></scales>
<clustering>
<clus scale="   73.869">  1  3  2 -1</clus>
<clus scale="   85.999">  2  6  1 -1</clus>
<clus scale="  137.088">  2  4  1 -1</clus>
<clus scale="   73.869">  1  3  2 -1</clus>
</clustering>
</event>
<event>
 6    0  0.2572175E+002  0.6347238E+02  0.7546771E-02  0.1383812E+00
          1   -1    0    0  505    0 -0.00000000000E+00  0.00000000000E+00  0.12932898979E+04  0.12932898979E+04  0.00000000000E+00 0.  1.
         21   -1    0    0  503  502  0.00000000000E+00 -0.00000000000E+00 -0.48523472079E+02  0.48523472079E+02  0.00000000000E+00 0.  1.
         21    1    1    2  503  504  0.11184666910E+03  0.33709574128E+02  0.87884913411E+02  0.14618403053E+03  0.00000000000E+00 0.  1.
         21    1    1    2  504  501 -0.57567818930E+02  0.48389460767E+02  0.63473651729E+03  0.63917606343E+03  0.00000000000E+00 0.  1.
         21    1    1    2  505  502 -0.55559422502E+02 -0.20025317771E+02  0.42387424498E+02  0.72694955369E+02  0.00000000000E+00 0.  1.
          1    1    1    2  501    0  0.12805723340E+01 -0.62073717124E+02  0.47975757064E+03  0.48375832066E+03  0.00000000000E+00 0.  1.
<scales pt_clust_3="63.47238" pt_clust_4="14000.00000" pt_clust_5="59.05813" pt_clust_6="63.30735"></scales>
<clustering>
<clus scale="   59.058">  2  5  1 -1</clus>
<clus scale="   63.307">  1  6  2 -1</clus>
<clus scale="   63.472">  2  3  1 -1</clus>
<clus scale="   59.058">  2  3  1 -1</clus>
</clustering>
</event>
<event>
 6    0  0.2572175E+002  0.1296296E+03  0.7546771E-02  0.1228006E+00
         -3   -1    0    0    0  501 -0.00000000000E+00  0.00000000000E+00  0.46174255860E+03  0.46174255860E+03  0.00000000000E+00 0.  1.
         21   -1    0    0  503  502  0.00000000000E+00 -0.00000000000E+00 -0.19971331891E+04  0.19971331891E+04  0.00000000000E+00 0.  1.
         21    1    1    2  503  501  0.11507634965E+03  0.94761399439E+02  0.85352690967E+02  0.17177709664E+03  0.00000000000E+00 0.  1.
         21    1    1    2  504  502 -0.65006857036E+02 -0.22462178917E+02 -0.10108405466E+04  0.10131776999E+04  0.00000000000E+00 0.  1.
         21    1    1    2  505  504 -0.22987206954E+02 -0.55780502917E+02 -0.94018503351E+03  0.94211876822E+03  0.00000000000E+00 0.  1.
         -3    1    1    2    0  505 -0.27082285663E+02 -0.16518717604E+02  0.33028225864E+03  0.33180218294E+03  0.00000000000E+00 0.  1.
<scales pt_clust_3="118.25924" pt_clust_4="49.70156" pt_clust_5="49.70156" pt_clust_6="31.72252"></scales>
<clustering>
<clus scale="   31.723">  1  6  2 -1</clus>
<clus scale="   49.702">  4  5 -1 -1</clus>
<clus scale="  118.259">  1  3  2 -1</clus>
<clus scale="  129.630">  2  3  1 -1</clus>
</clustering>
</event>
<event>
 6    0  0.2572175E+002  0.1870501E+03  0.7546771E-02  0.1161149E+00
         21   -1    0    0  505  502  0.00000000000E+00  0.00000000000E+00  0.20176597792E+03  0.20176597792E+03  0.00000000000E+00 0. -1.
          2   -1    0    0  504    0 -0.00000000000E+00 -0.00000000000E+00 -0.39087733155E+04  0.39087733155E+04  0.00000000000E+00 0.  1.
         21    1    1    2  503  501  0.54456388520E+02 -0.98759924921E+02  0.81684004439E+01  0.11307406328E+03  0.00000000000E+00 0. -1.
         21    1    1    2  504  502  0.11211888001E+02  0.28840790582E+03 -0.17516474681E+04  0.17752672134E+04  0.00000000000E+00 0. -1.
         21    1    1    2  505  503 -0.23280377142E+02 -0.33779260721E+02  0.12287946780E+03  0.12954681787E+03  0.00000000000E+00 0. -1.
          2    1    1    2  501    0 -0.42387899379E+02 -0.15586872018E+03 -0.20864077378E+04  0.20926511989E+04  0.00000000000E+00 0.  1.
<scales pt_clust_3="130.84942" pt_clust_4="187.05006" pt_clust_5="41.02456" pt_clust_6="14000.00000"></scales>
<clustering>
<clus scale="   41.025">  1  5  2 -1</clus>
<clus scale="  130.849">  1  3  2 -1</clus>
<clus scale="  187.050">  1  4  2 -1</clus>
<clus scale="   41.025">  1  3  2 -1</clus>
</clustering>
</event>
<event>
 6    0  0.2572175E+002  0.1309931E+03  0.7546771E-02  0.1225989E+00
         21   -1    0    0  503  502  0.00000000000E+00  0.00000000000E+00  0.31980362543E+04  0.31980362543E+04  0.00000000000E+00 0.  1.
         -4   -1    0    0    0  501 -0.00000000000E+00 -0.00000000000E+00 -0.68485303095E+02  0.68485303095E+02  0.00000000000E+00 0. -1.
         21    1    1    2  503  504  0.48189338801E+02  0.12356038817E+03  0.29265100645E+04  0.29295137036E+04  0.00000000000E+00 0.  1.
         21    1    1    2  504  501 -0.48524612197E+02 -0.88341218722E+02  0.60390755908E+02  0.11749830770E+03  0.00000000000E+00 0. -1.
         21    1    1    2  505  502  0.29814861933E+02 -0.23163084305E+02  0.17206279091E+03  0.17615634670E+03  0.00000000000E+00 0.  1.
         -4    1    1    2    0  505 -0.29479588537E+02 -0.12056085142E+02 -0.29412660074E+02  0.43353199442E+02  0.00000000000E+00 0. -1.
<scales pt_clust_3="14000.00000" pt_clust_4="130.99314" pt_clust_5="36.78465" pt_clust_6="31.84957"></scales>
<clustering>
<clus scale="   31.850">  2  6  1 -1</clus>
<clus scale="   36.785">  2  5  1 -1</clus>
<clus scale="  130.993">  2  4  1 -1</clus>
<clus scale="  130.993">  1  3  2 -1</clus>
</clustering>
</event>
<event>
 6    0  0.2572175E+002  0.1267414E+03  0.7546771E-02  0.1232373E+00
         21   -1    0    0  505  502  0.00000000000E+00  0.00000000000E+00  0.34724999746E+03  0.34724999746E+03  0.00000000000E+00 0.  1.
          2   -1    0    0  504    0 -0.00000000000E+00 -0.00000000000E+00 -0.15175070763E+04  0.15175070763E+04  0.00000000000E+00 0.  1.
         21    1    1    2  503  501 -0.75719647567E+02 -0.20956763940E+01  0.12314557619E+03  0.14457762559E+03  0.00000000000E+00 0. -1.
         21    1    1    2  504  502  0.22057565651E+03  0.35127129789E+02 -0.25422863393E+03  0.33840764442E+03  0.00000000000E+00 0. -1.
         21    1    1    2  505  503 -0.27687679205E+02 -0.63005579128E+02  0.16122315075E+03  0.17529750403E+03  0.00000000000E+00 0.  1.
          2    1    1    2  501    0 -0.11716832974E+03  0.29974125733E+02 -0.12003971719E+04  0.12064742998E+04  0.00000000000E+00 0.  1.
<scales pt_clust_3="108.26023" pt_clust_4="126.74139" pt_clust_5="68.82086" pt_clust_6="14000.00000"></scales>
<clustering>
<clus scale="   68.821">  1  5  2 -1</clus>
<clus scale="  108.260">  1  3  2 -1</clus>
<clus scale="  126.741">  1  4  2 -1</clus>
<clus scale="   68.821">  1  3  2 -1</clus>
</clustering>
</event>
<event>
 6    0  0.2572175E+002  0.9314152E+02  0.7546771E-02  0.1295418E+00
          1   -1    0    0  504    0 -0.00000000000E+00  0.00000000000E+00  0.11140636683E+04  0.11140636683E+04  0.00000000000E+00 0. -1.
         21   -1    0    0  505  502  0.00000000000E+00 -0.00000000000E+00 -0.10891407786E+03  0.10891407786E+03  0.00000000000E+00 0.  1.
         21    1    1    2  503  502 -0.10978245464E+03 -0.52112231092E+02  0.38590341242E+01  0.12158439094E+03  0.00000000000E+00 0.  1.
         21    1    1    2  504  503  0.30158060543E+02 -0.27675377725E+02  0.16484331194E+02  0.44126730253E+02  0.00000000000E+00 0.  1.
         21    1    1    2  505  501  0.51943164793E+02  0.57266401219E+02  0.57151646192E+01  0.77525455071E+02  0.00000000000E+00 0.  1.
          1    1    1    2  501    0  0.27681229303E+02  0.22521207597E+02  0.97909106046E+03  0.97974116986E+03  0.00000000000E+00 0. -1.
<scales pt_clust_3="14000.00000" pt_clust_4="42.83882" pt_clust_5="93.14152" pt_clust_6="35.68550"></scales>
<clustering>
<clus scale="   35.686">  1  6  2 -1</clus>
<clus scale="   42.839">  1  4  2 -1</clus>
<clus scale="   93.142">  2  5  1 -1</clus>
<clus scale="   93.142">  2  3  1 -1</clus>
</clustering>
</event>
<event>
 6    0  0.2572175E+002  0.7741027E+02  0.7546771E-02  0.1336566E+00
         21   -1    0    0  504  502  0.00000000000E+00  0.00000000000E+00  0.16074637200E+03  0.16074637200E+03  0.00000000000E+00 0.  1.
          2   -1    0    0  503    0 -0.00000000000E+00 -0.00000000000E+00 -0.17009430222E+04  0.17009430222E+04  0.00000000000E+00 0. -1.
         21    1    1    2  503  505  0.88134539887E+02  0.65397956043E+02 -0.12150324473E+03  0.16373035227E+03  0.00000000000E+00 0.  1.
         21    1    1    2  504  501  0.14249519553E+02 -0.39919549595E+02  0.10210733448E+02  0.43599063349E+02  0.00000000000E+00 0. -1.
         21    1    1    2  505  502 -0.48943735010E+02  0.28590434958E+02  0.10460096012E+03  0.11897169002E+03  0.00000000000E+00 0.  1.
          2    1    1    2  501    0 -0.53440324430E+02 -0.54068841406E+02 -0.15335050990E+04  0.15353882885E+04  0.00000000000E+00 0. -1.
<scales pt_clust_3="77.41027" pt_clust_4="42.38655" pt_clust_5="37.34576" pt_clust_6="14000.00000"></scales>
<clustering>
<clus scale="   42.387">  1  4  2 -1</clus>
<clus scale="   37.346">  1  5  2 -1</clus>
<clus scale="   77.410">  1  3  2 -1</clus>
<clus scale="   42.387">  1  3  2 -1</clus>
</clustering>
</event>
<event>
 6    0  0.2572175E+002  0.9429085E+02  0.7546771E-02  0.1292781E+00
          1   -1    0    0  503    0 -0.00000000000E+00  0.00000000000E+00  0.59995577683E+03  0.59995577683E+03  0.00000000000E+00 0. -1.
         21   -1    0    0  504  502  0.00000000000E+00 -0.00000000000E+00 -0.50643940459E+02  0.50643940459E+02  0.00000000000E+00 0. -1.
         21    1    1    2  503  502 -0.10208594836E+02 -0.52967614978E+02  0.13581872779E+03  0.14613866861E+03  0.00000000000E+00 0. -1.
         21    1    1    2  504  505  0.64827474575E+01  0.38126807709E+02  0.90259880422E+01  0.39713321956E+02  0.00000000000E+00 0. -1.
         21    1    1    2  505  501 -0.71570714633E+02  0.48675266624E+02  0.48257481044E+02  0.99098099127E+02  0.00000000000E+00 0. -1.
          1    1    1    2  501    0  0.75296562011E+02 -0.33834459355E+02  0.35620963949E+03  0.36564962759E+03  0.00000000000E+00 0. -1.
<scales pt_clust_3="48.29081" pt_clust_4="38.67402" pt_clust_5="94.29085" pt_clust_6="14000.00000"></scales>
<clustering>
<clus scale="   38.674">  2  4  1 -1</clus>
<clus scale="   48.291">  1  3  2 -1</clus>
<clus scale="   94.291">  2  5  1 -1</clus>
<clus scale="   38.674">  2  3  1 -1</clus>
</clustering>
</event>
<event>
 6    0  0.2572175E+002  0.8209329E+02  0.7546771E-02  0.1323214E+00
          1   -1    0    0  503    0 -0.00000000000E+00  0.00000000000E+00  0.15468685580E+04  0.15468685580E+04  0.00000000000E+00 0. -1.
         21   -1    0    0  504  502  0.00000000000E+00 -0.00000000000E+00 -0.61048730276E+02  0.61048730276E+02  0.00000000000E+00 0.  1.
         21    1    1    2  503  502 -0.81726690321E+02  0.12443235523E+02 -0.10733553096E+02  0.83362432685E+02  0.00000000000E+00 0.  1.
         21    1    1    2  504  505  0.23337351561E+02  0.45499653900E+02  0.47636778364E+02  0.69886430269E+02  0.00000000000E+00 0.  1.
         21    1    1    2  505  501  0.86426900376E+02 -0.37310704103E+02  0.10134391803E+04  0.10178018815E+04  0.00000000000E+00 0. -1.
          1    1    1    2  501    0 -0.28037561616E+02 -0.20632185320E+02  0.43547742213E+03  0.43686654383E+03  0.00000000000E+00 0. -1.
<scales pt_clust_3="82.09329" pt_clust_4="49.49422" pt_clust_5="14000.00000" pt_clust_6="34.81080"></scales>
<clustering>
<clus scale="   34.811">  1  6  2 -1</clus>
<clus scale="   49.494">  2  4  1 -1</clus>
<clus scale="   82.093">  2  3  1 -1</clus>
<clus scale="   49.494">  2  3  1 -1</clus>
</clustering>
</event>
<event>
 6    0  0.2572175E+002  0.1356479E+03  0.7546771E-02  0.1219308E+00
          1   -1    0    0  503    0 -0.00000000000E+00  0.00000000000E+00  0.98356062970E+03  0.98356062970E+03  0.00000000000E+00 0. -1.
         21   -1    0    0  505  502  0.00000000000E+00 -0.00000000000E+00 -0.11978377617E+03  0.11978377617E+03  0.00000000000E+00 0.  1.
         21    1    1    2  503  502  0.54530579851E+02 -0.27414121880E+02  0.53774715789E+02  0.81343950455E+02  0.00000000000E+00 0.  1.
         21    1    1    2  504  501 -0.57276128561E+01 -0.86061788323E+02  0.30787780803E+03  0.31973142110E+03  0.00000000000E+00 0.  1.
         21    1    1    2  505  504 -0.20007634588E+02  0.14276396130E+03 -0.46987337070E+02  0.15162342805E+03  0.00000000000E+00 0.  1.
          1    1    1    2  501    0 -0.28795332407E+02 -0.29288051100E+02  0.54911166678E+03  0.55064560627E+03  0.00000000000E+00 0. -1.
<scales pt_clust_3="59.38846" pt_clust_4="135.64791" pt_clust_5="14000.00000" pt_clust_6="41.07263"></scales>
<clustering>
<clus scale="   41.073">  1  6  2 -1</clus>
<clus scale="   59.388">  1  3  2 -1</clus>
<clus scale="  135.648">  1  4  2 -1</clus>
<clus scale="  135.648">  2  3  1 -1</clus>
</clustering>
</event>
<event>
 6    0  0.2572175E+002  0.1487468E+03  0.7546771E-02  0.1202021E+00
          2   -1    0    0  504    0 -0.00000000000E+00  0.00000000000E+00  0.19191606688E+04  0.19191606688E+04  0.00000000000E+00 0. -1.
         21   -1    0    0  505  502  0.00000000000E+00 -0.00000000000E+00 -0.31893799063E+02  0.31893799063E+02  0.00000000000E+00 0. -1.
         21    1    1    2  503  501  0.48817924376E+02 -0.23952340310E+02  0.41702825308E+03  0.42055851936E+03  0.00000000000E+00 0. -1.
         21    1    1    2  504  502 -0.27281423960E+02 -0.12930106137E+02  0.11494889611E+03  0.11884743353E+03  0.00000000000E+00 0. -1.
         21    1    1    2  505  503 -0.11074342602E+03  0.56301476920E+02  0.11912919635E+03  0.17212125997E+03  0.00000000000E+00 0. -1.
          2    1    1    2  501    0  0.89206925601E+02 -0.19419030473E+02  0.12361605242E+04  0.12395272550E+04  0.00000000000E+00 0. -1.
<scales pt_clust_3="33.72181" pt_clust_4="30.19046" pt_clust_5="142.14744" pt_clust_6="33.72181"></scales>
<clustering>
<clus scale="   30.190">  2  4  1 -1</clus>
<clus scale="   33.722">  3  6 -1 -1</clus>
<clus scale="  142.147">  2  5  1 -1</clus>
<clus scale="   30.190">  2  3  1 -1</clus>
</clustering>
</event>
<event>
 6    0  0.2572175E+002  0.9402464E+02  0.7546771E-02  0.1293388E+00
         21   -1    0    0  504  502  0.00000000000E+00  0.00000000000E+00  0.16842808867E+02  0.16842808867E+02  0.00000000000E+00 0.  1.
          2   -1    0    0  503    0 -0.00000000000E+00 -0.00000000000E+00 -0.28026789204E+04  0.28026789204E+04  0.00000000000E+00 0. -1.
         21    1    1    2  503  505 -0.39833476774E+02  0.18775128923E+02 -0.47128184147E+02  0.64500209914E+02  0.00000000000E+00 0.  1.
         21    1    1    2  504  501  0.76640750743E+02 -0.79182004675E+02 -0.97404152092E+03  0.98025531317E+03  0.00000000000E+00 0. -1.
         21    1    1    2  505  502 -0.43893570802E+02 -0.20503237588E+01 -0.10388924590E+03  0.11279993262E+03  0.00000000000E+00 0.  1.
          2    1    1    2  501    0  0.70862968335E+01  0.62457199511E+02 -0.16607771606E+04  0.16619662736E+04  0.00000000000E+00 0. -1.
<scales pt_clust_3="36.55473" pt_clust_4="86.61117" pt_clust_5="36.55473" pt_clust_6="62.85791"></scales>
<clustering>
<clus scale="   36.555">  3  5 -1 -1</clus>
<clus scale="   62.858">  2  6  1 -1</clus>
<clus scale="   86.611">  2  4  1 -1</clus>
<clus scale="   94.025">  1  3  2 -1</clus>
</clustering>
</event>
<event>
 6    0  0.2572175E+002  0.1469816E+03  0.7546771E-02  0.1204232E+00
          1   -1    0    0  505    0 -0.00000000000E+00  0.00000000000E+00  0.58801499397E+03  0.58801499397E+03  0.00000000000E+00 0. -1.
         21   -1    0    0  504  502  0.00000000000E+00 -0.00000000000E+00 -0.28278649431E+03  0.28278649431E+03  0.00000000000E+00 0.  1.
         21    1    1    2  503  501 -0.11090321066E+03  0.14811158239E+03  0.14485754970E+03  0.23498994166E+03  0.00000000000E+00 0.  1.
         21    1    1    2  504  503  0.16157449977E+02 -0.11470294427E+03 -0.71294820510E+02  0.13601757257E+03  0.00000000000E+00 0.  1.
         21    1    1    2  505  502  0.53862080456E+02 -0.20873900191E+02 -0.12651022055E+03  0.13907436617E+03  0.00000000000E+00 0.  1.
          1    1    1    2  501    0  0.40883680228E+02 -0.12534737928E+02  0.35817599103E+03  0.36071960789E+03  0.00000000000E+00 0. -1.
<scales pt_clust_3="14000.00000" pt_clust_4="146.98161" pt_clust_5="58.93771" pt_clust_6="42.76207"></scales>
<clustering>
<clus scale="   42.762">  1  6  2 -1</clus>
<clus scale="   58.938">  2  5  1 -1</clus>
<clus scale="  146.982">  2  4  1 -1</clus>
<clus scale="   58.938">  2  3  1 -1</clus>
</clustering>
</event>
<event>
 6    0  0.2572175E+002  0.1595460E+03  0.7546771E-02  0.1189210E+00
         21   -1    0    0  503  502  0.00000000000E+00  0.00000000000E+00  0.17278950409E+03  0.17278950409E+03  0.00000000000E+00 0. -1.
          1   -1    0    0  504    0 -0.00000000000E+00 -0.00000000000E+00 -0.18495959676E+04  0.18495959676E+04  0.00000000000E+00 0. -1.
         21    1    1    2  503  505  0.15650943930E+02 -0.84653317929E+02  0.19069574538E+02  0.88174741028E+02  0.00000000000E+00 0. -1.
         21    1    1    2  504  502  0.54059808897E+02  0.22830361309E+03 -0.70007239991E+02  0.24483875579E+03  0.00000000000E+00 0. -1.
         21    1    1    2  505  501 -0.84210552843E+02 -0.88169132111E+02 -0.87829158149E+02  0.15026368187E+03  0.00000000000E+00 0. -1.
          1    1    1    2  501    0  0.14499800017E+02 -0.55481163049E+02 -0.15380396399E+04  0.15391082930E+04  0.00000000000E+00 0. -1.
<scales pt_clust_3="92.44286" pt_clust_4="14000.00000" pt_clust_5="159.54596" pt_clust_6="57.34460"></scales>
<clustering>
<clus scale="   57.345">  2  6  1 -1</clus>
<clus scale="   92.443">  1  3  2 -1</clus>
<clus scale="  159.546">  2  5  1 -1</clus>
<clus scale="   92.443">  1  3  2 -1</clus>
</clustering>
</event>
<event>
 6    0  0.2572175E+002  0.3069227E+03  0.7546771E-02  0.1081830E+00
         21   -1    0    0  504  502  0.00000000000E+00  0.00000000000E+00  0.66171579549E+03  0.66171579549E+03  0.00000000000E+00 0. -1.
          1   -1    0    0  503    0 -0.00000000000E+00 -0.00000000000E+00 -0.66271093217E+03  0.66271093217E+03  0.00000000000E+00 0.  1.
         21    1    1    2  503  505  0.33788544195E+02 -0.95600032259E+02 -0.16758991925E+02  0.10277108395E+03  0.00000000000E+00 0.  1.
         21    1    1    2  504  501 -0.12640096074E+03  0.29663270662E+03  0.53449461128E+03  0.62422163933E+03  0.00000000000E+00 0. -1.
         21    1    1    2  505  502  0.53990474339E+02 -0.11242354127E+03 -0.79971402685E+02  0.14815346502E+03  0.00000000000E+00 0.  1.
          1    1    1    2  501    0  0.38621942211E+02 -0.88609133093E+02 -0.43875935335E+03  0.44928053935E+03  0.00000000000E+00 0.  1.
<scales pt_clust_3="46.21802" pt_clust_4="302.61220" pt_clust_5="46.21802" pt_clust_6="96.66040"></scales>
<clustering>
<clus scale="   46.218">  3  5 -1 -1</clus>
<clus scale="   96.660">  2  6  1 -1</clus>
<clus scale="  302.612">  1  4  2 -1</clus>
<clus scale="  302.612">  1  3  2 -1</clus>
</clustering>
</event>
<event>
 6    0  0.2572175E+002  0.1064136E+03  0.7546771E-02  0.1267359E+00
          2   -1    0    0  504    0 -0.00000000000E+00  0.00000000000E+00  0.18245418717E+04  0.18245418717E+04  0.00000000000E+00 0.  1.
         21   -1    0    0  505  502  0.00000000000E+00 -0.00000000000E+00 -0.37599501538E+03  0.37599501538E+03  0.00000000000E+00 0. -1.
         21    1    1    2  503  501  0.33856134735E+01 -0.72658351927E+02  0.38005336220E+00  0.72738180648E+02  0.00000000000E+00 0. -1.
         21    1    1    2  504  502 -0.36415779920E+02 -0.17425916371E+02 -0.47595892210E+01  0.40650034171E+02  0.00000000000E+00 0. -1.
         21    1    1    2  505  503  0.58378116064E+01  0.11618515470E+03 -0.30623344160E+03  0.32758508967E+03  0.00000000000E+00 0. -1.
          2    1    1    2  501    0  0.27192354840E+02 -0.26100886398E+02  0.17591598338E+04  0.17595635826E+04  0.00000000000E+00 0.  1.
<scales pt_clust_3="106.41363" pt_clust_4="37.98223" pt_clust_5="14000.00000" pt_clust_6="37.69191"></scales>
<clustering>
<clus scale="   37.692">  1  6  2 -1</clus>
<clus scale="   37.982">  1  4  2 -1</clus>
<clus scale="  106.414">  1  3  2 -1</clus>
<clus scale="  106.414">  2  3  1 -1</clus>
</clustering>
</event>
<event>
 6    0  0.2572175E+002  0.2150383E+03  0.7546771E-02  0.1137637E+00
         -2   -1    0    0    0  501 -0.00000000000E+00  0.00000000000E+00  0.16609058888E+03  0.16609058888E+03  0.00000000000E+00 0. -1.
         21   -1    0    0  501  502  0.00000000000E+00 -0.00000000000E+00 -0.11908405564E+04  0.11908405564E+04  0.00000000000E+00 0. -1.
         21    1    1    2  503  505 -0.11653482815E+03  0.28977053687E+02 -0.22660577605E+01  0.12010483267E+03  0.00000000000E+00 0. -1.
         21    1    1    2  504  502  0.21201361453E+03 -0.18798806977E+02 -0.10840653317E+04  0.11047627851E+04  0.00000000000E+00 0. -1.
         21    1    1    2  505  504 -0.64595885622E+02 -0.18558975685E+02  0.54224844012E+01  0.67427497023E+02  0.00000000000E+00 0. -1.
         -2    1    1    2    0  503 -0.30882900764E+02  0.83807289751E+01  0.56158937525E+02  0.64636030523E+02  0.00000000000E+00 0. -1.
<scales pt_clust_3="35.34226" pt_clust_4="209.76164" pt_clust_5="35.34226" pt_clust_6="31.99985"></scales>
<clustering>
<clus scale="   32.000">  1  6  2 -1</clus>
<clus scale="   35.342">  3  5 -1 -1</clus>
<clus scale="  209.762">  2  4  1 -1</clus>
<clus scale="  209.762">  2  3  1 -1</clus>
</clustering>
</event>
<event>
 6    0  0.2572175E+002  0.9491900E+02  0.7546771E-02  0.1291359E+00
          1   -1    0    0  504    0 -0.00000000000E+00  0.00000000000E+00  0.24320766315E+04  0.24320766315E+04  0.00000000000E+00 0.  1.
         21   -1    0    0  501  502  0.00000000000E+00 -0.00000000000E+00 -0.19260245938E+04  0.19260245938E+04  0.00000000000E+00 0. -1.
         21    1    1    2  503  505  0.26354538405E+02  0.27451348020E+02 -0.10871452448E+04  0.10878110688E+04  0.00000000000E+00 0. -1.
         21    1    1    2  504  503 -0.95893852447E+02 -0.31428191881E+02  0.93731300265E+02  0.13772769813E+03  0.00000000000E+00 0.  1.
         21    1    1    2  505  502  0.56963922360E+01  0.52523921799E+02 -0.81499830177E+03  0.81670890966E+03  0.00000000000E+00 0. -1.
          1    1    1    2  501    0  0.63842921806E+02 -0.48547077937E+02  0.23144642840E+04  0.23158535487E+04  0.00000000000E+00 0.  1.
<scales pt_clust_3="34.19083" pt_clust_4="85.94560" pt_clust_5="34.19083" pt_clust_6="80.20435"></scales>
<clustering>
<clus scale="   34.191">  3  5 -1 -1</clus>
<clus scale="   80.204">  1  6  2 -1</clus>
<clus scale="   85.946">  1  4  2 -1</clus>
<clus scale="   94.919">  2  3  1 -1</clus>
</clustering>
</event>
<event>
 6    0  0.2572175E+002  0.1046513E+03  0.7546771E-02  0.1270808E+00
         21   -1    0    0  503  502  0.00000000000E+00  0.00000000000E+00  0.49830891344E+03  0.49830891344E+03  0.00000000000E+00 0. -1.
          2   -1    0    0  505    0 -0.00000000000E+00 -0.00000000000E+00 -0.28752259881E+03  0.28752259881E+03  0.00000000000E+00 0.  1.
         21    1    1    2  503  501  0.33693999339E+01 -0.10627103293E+03  0.24913835155E+03  0.27087783872E+03  0.00000000000E+00 0. -1.
         21    1    1    2  504  502 -0.59262498422E+02  0.93949031809E+02  0.20824814436E+03  0.23602066420E+03  0.00000000000E+00 0. -1.
         21    1    1    2  505  504  0.17757211031E+02 -0.27809608248E+02 -0.79417882529E+01  0.33937661310E+02  0.00000000000E+00 0.  1.
          2    1    1    2  501    0  0.38135887457E+02  0.40131609372E+02 -0.23865839304E+03  0.24499534802E+03  0.00000000000E+00 0.  1.
<scales pt_clust_3="14000.00000" pt_clust_4="104.65131" pt_clust_5="32.99535" pt_clust_6="56.25447"></scales>
<clustering>
<clus scale="   32.995">  2  5  1 -1</clus>
<clus scale="   56.254">  2  6  1 -1</clus>
<clus scale="  104.651">  2  4  1 -1</clus>
<clus scale="  104.651">  1  3  2 -1</clus>
</clustering>
</event>
<event>
 6    0  0.2572175E+002  0.1100619E+03  0.7546771E-02  0.1260455E+00
         21   -1    0    0  504  502  0.00000000000E+00  0.00000000000E+00  0.89869239923E+03  0.89869239923E+03  0.00000000000E+00 0.  1.
          3   -1    0    0  505    0 -0.00000000000E+00 -0.00000000000E+00 -0.59593959954E+03  0.59593959954E+03  0.00000000000E+00 0.  1.
         21    1    1    2  503  501 -0.24870668298E+02 -0.92251488958E+02 -0.39339444550E+01  0.95626164179E+02  0.00000000000E+00 0.  1.
         21    1    1    2  504  503  0.24700200242E+02  0.10975399228E+03  0.54844176587E+03  0.55986106247E+03  0.00000000000E+00 0.  1.
         21    1    1    2  505  502 -0.36073384340E+02  0.30325241869E+01  0.29679072115E+03  0.29899032998E+03  0.00000000000E+00 0. -1.
          3    1    1    2  501    0  0.36243852396E+02 -0.20535027507E+02 -0.53854574288E+03  0.54015444214E+03  0.00000000000E+00 0.  1.
<scales pt_clust_3="14000.00000" pt_clust_4="110.06194" pt_clust_5="36.20063" pt_clust_6="41.61297"></scales>
<clustering>
<clus scale="   36.201">  1  5  2 -1</clus>
<clus scale="   41.613">  2  6  1 -1</clus>
<clus scale="  110.062">  1  4  2 -1</clus>
<clus scale="   36.201">  1  3  2 -1</clus>
</clustering>
</event>
<event>
 6    0  0.2572175E+002  0.3030401E+03  0.7546771E-02  0.1083731E+00
         21   -1    0    0  505  502  0.00000000000E+00  0.00000000000E+00  0.26400534456E+03  0.26400534456E+03  0.00000000000E+00 0.  1.
          2   -1    0    0  504    0 -0.00000000000E+00 -0.00000000000E+00 -0.35996754226E+04  0.35996754226E+04  0.00000000000E+00 0.  1.
         21    1    1    2  503  501 -0.34540049358E+03  0.12755767748E+03 -0.41727411128E+03  0.55649810961E+03  0.00000000000E+00 0.  1.
         21    1    1    2  504  502  0.14143257311E+03  0.58603594991E+02  0.12478786991E+03  0.19750839618E+03  0.00000000000E+00 0.  1.
         21    1    1    2  505  503 -0.35376182467E+02 -0.92628740448E+01  0.13166762276E+02  0.38866936467E+02  0.00000000000E+00 0.  1.
          2    1    1    2  501    0  0.23934410293E+03 -0.17689839843E+03 -0.30563505989E+04  0.30708073249E+04  0.00000000000E+00 0.  1.
<scales pt_clust_3="14000.00000" pt_clust_4="128.60703" pt_clust_5="36.56877" pt_clust_6="303.04012"></scales>
<clustering>
<clus scale="   36.569">  1  5  2 -1</clus>
<clus scale="  128.607">  1  4  2 -1</clus>
<clus scale="  303.040">  2  6  1 -1</clus>
<clus scale="   36.569">  1  3  2 -1</clus>
</clustering>
</event>
<event>
 6    0  0.2572175E+002  0.8839877E+02  0.7546771E-02  0.1306776E+00
          2   -1    0    0  505    0 -0.00000000000E+00  0.00000000000E+00  0.49491707668E+03  0.49491707668E+03  0.00000000000E+00 0.  1.
         21   -1    0    0  501  502  0.00000000000E+00 -0.00000000000E+00 -0.46276286830E+02  0.46276286830E+02  0.00000000000E+00 0.  1.
         21    1    1    2  503  502  0.33686559569E+02 -0.24046247376E+00 -0.63622611059E+01  0.34282947426E+02  0.00000000000E+00 0.  1.
         21    1    1    2  504  503 -0.72877613309E+02  0.70224528757E+02  0.16708966683E+03  0.19534991098E+03  0.00000000000E+00 0.  1.
         21    1    1    2  505  504  0.67051405176E+02 -0.47249711925E+02  0.21842458477E+03  0.23331893503E+03  0.00000000000E+00 0.  1.
          2    1    1    2  501    0 -0.27860351436E+02 -0.22734354358E+02  0.69488799355E+02  0.78241570064E+02  0.00000000000E+00 0.  1.
<scales pt_clust_3="33.68742" pt_clust_4="88.39877" pt_clust_5="14000.00000" pt_clust_6="31.79072"></scales>
<clustering>
<clus scale="   33.687">  2  3  1 -1</clus>
<clus scale="   31.791">  2  6  1 -1</clus>
<clus scale="   88.399">  2  4  1 -1</clus>
<clus scale="   33.687">  2  3  1 -1</clus>
</clustering>
</event>
<event>
 6    0  0.2572175E+002  0.1579759E+03  0.7546771E-02  0.1191001E+00
         21   -1    0    0  504  502  0.00000000000E+00  0.00000000000E+00  0.14265334326E+03  0.14265334326E+03  0.00000000000E+00 0. -1.
         -1   -1    0    0    0  501 -0.00000000000E+00 -0.00000000000E+00 -0.23639767443E+03  0.23639767443E+03  0.00000000000E+00 0. -1.
         21    1    1    2  503  501 -0.55531886517E+01  0.67266129549E+02 -0.25521707672E+02  0.72159044140E+02  0.00000000000E+00 0. -1.
         21    1    1    2  504  503  0.63133220911E+02  0.52244973798E+02 -0.65380042092E+01  0.82207580969E+02  0.00000000000E+00 0. -1.
         21    1    1    2  505  502  0.36610085974E+02 -0.61605641268E+01  0.32867728139E+02  0.49583651523E+02  0.00000000000E+00 0. -1.
         -1    1    1    2    0  505 -0.94190118233E+02 -0.11335053922E+03 -0.94552347426E+02  0.17510074105E+03  0.00000000000E+00 0. -1.
<scales pt_clust_3="61.18512" pt_clust_4="61.18512" pt_clust_5="37.12480" pt_clust_6="140.54722"></scales>
<clustering>
<clus scale="   37.125">  1  5  2 -1</clus>
<clus scale="   61.185">  3  4 -1 -1</clus>
<clus scale="  140.547">  2  6  1 -1</clus>
<clus scale="   37.125">  1  3  2 -1</clus>
</clustering>
</event>
<event>
 6    0  0.2572175E+002  0.9424136E+02  0.7546771E-02  0.1292894E+00
          1   -1    0    0  503    0 -0.00000000000E+00  0.00000000000E+00  0.23522139549E+04  0.23522139549E+04  0.00000000000E+00 0.  1.
         21   -1    0    0  504  502  0.00000000000E+00 -0.00000000000E+00 -0.14563189311E+03  0.14563189311E+03  0.00000000000E+00 0.  1.
         21    1    1    2  503  505 -0.15099048834E+03  0.47150933314E+02 -0.12629856025E+02  0.15868475461E+03  0.00000000000E+00 0.  1.
         21    1    1    2  504  501  0.31258410870E+02 -0.23254713254E+02 -0.35222824081E+02  0.52521588655E+02  0.00000000000E+00 0.  1.
         21    1    1    2  505  502  0.26135811111E+02 -0.24321069433E+02  0.59336625662E+01  0.36191206008E+02  0.00000000000E+00 0.  1.
          1    1    1    2  501    0  0.93596266359E+02  0.42484937300E+00  0.22485010793E+04  0.22504482988E+04  0.00000000000E+00 0.  1.
<scales pt_clust_3="94.24136" pt_clust_4="50.90657" pt_clust_5="35.70147" pt_clust_6="14000.00000"></scales>
<clustering>
<clus scale="   35.701">  2  5  1 -1</clus>
<clus scale="   50.907">  2  4  1 -1</clus>
<clus scale="   94.241">  2  3  1 -1</clus>
<clus scale="   35.701">  2  3  1 -1</clus>
</clustering>
</event>
<event>
 6    0  0.2572175E+002  0.1123591E+03  0.7546771E-02  0.1256263E+00
          2   -1    0    0  504    0 -0.00000000000E+00  0.00000000000E+00  0.29468541773E+04  0.29468541773E+04  0.00000000000E+00 0. -1.
         21   -1    0    0  503  502  0.00000000000E+00 -0.00000000000E+00 -0.18840869902E+03  0.18840869902E+03  0.00000000000E+00 0. -1.
         21    1    1    2  503  501  0.70436488952E+02 -0.57655336990E+01 -0.24803321439E+02  0.74898231682E+02  0.00000000000E+00 0. -1.
         21    1    1    2  504  505 -0.35288315913E+02 -0.52465232060E+02 -0.91535204825E+02  0.11124998669E+03  0.00000000000E+00 0. -1.
         21    1    1    2  505  502 -0.15365233523E+01 -0.40870255780E+02 -0.24676198544E+02  0.47766656635E+02  0.00000000000E+00 0. -1.
          2    1    1    2  501    0 -0.33611649686E+02  0.99101021539E+02  0.28994602031E+04  0.29013480013E+04  0.00000000000E+00 0. -1.
<scales pt_clust_3="70.67206" pt_clust_4="33.29333" pt_clust_5="33.29333" pt_clust_6="104.45548"></scales>
<clustering>
<clus scale="   33.293">  4  5 -1 -1</clus>
<clus scale="   70.672">  2  3  1 -1</clus>
<clus scale="  104.455">  1  6  2 -1</clus>
<clus scale="   70.672">  2  3  1 -1</clus>
</clustering>
</event>
<event>
 6    0  0.2572175E+002  0.2371008E+03  0.7546771E-02  0.1121739E+00
         21   -1    0    0  503  502  0.00000000000E+00  0.00000000000E+00  0.10902865921E+04  0.10902865921E+04  0.00000000000E+00 0.  1.
          2   -1    0    0  504    0 -0.00000000000E+00 -0.00000000000E+00 -0.21251408533E+04  0.21251408533E+04  0.00000000000E+00 0. -1.
         21    1    1    2  503  501 -0.11654166195E+03  0.15900670985E+03  0.10012614224E+03  0.22111159424E+03  0.00000000000E+00 0. -1.
         21    1    1    2  504  505 -0.39171395169E+02 -0.32810074448E+02 -0.68631335674E+03  0.68821284703E+03  0.00000000000E+00 0. -1.
         21    1    1    2  505  502  0.19206135300E+03 -0.15930176969E+03  0.91150492647E+03  0.94504277582E+03  0.00000000000E+00 0.  1.
          2    1    1    2  501    0 -0.36348295883E+02  0.33105134288E+02 -0.13601719732E+04  0.13610602283E+04  0.00000000000E+00 0. -1.
<scales pt_clust_3="14000.00000" pt_clust_4="71.91112" pt_clust_5="237.10078" pt_clust_6="49.16450"></scales>
<clustering>
<clus scale="   49.165">  2  6  1 -1</clus>
<clus scale="   71.911">  2  4  1 -1</clus>
<clus scale="  237.101">  1  5  2 -1</clus>
<clus scale="  237.101">  1  3  2 -1</clus>
</clustering>
</event>
<event>
 6    0  0.2572175E+002  0.1044470E+03  0.7546771E-02  0.1271213E+00
         21   -1    0    0  505  502  0.00000000000E+00  0.00000000000E+00  0.43628423633E+03  0.43628423633E+03  0.00000000000E+00 0. -1.
          2   -1    0    0  504    0 -0.00000000000E+00 -0.00000000000E+00 -0.24810659097E+03  0.24810659097E+03  0.00000000000E+00 0.  1.
         21    1    1    2  503  502  0.61963287533E+02  0.84017194553E+02  0.36844263863E+03  0.38294688397E+03  0.00000000000E+00 0. -1.
         21    1    1    2  504  503  0.10636223140E+02  0.31569011012E+02  0.22015890480E+02  0.39930328481E+02  0.00000000000E+00 0. -1.
         21    1    1    2  505  501 -0.51033501916E+02 -0.92964914492E+02 -0.73592361240E+02  0.12908419453E+03  0.00000000000E+00 0. -1.
          2    1    1    2  501    0 -0.21566008756E+02 -0.22621291073E+02 -0.12868852251E+03  0.13242942033E+03  0.00000000000E+00 0.  1.
<scales pt_clust_3="14000.00000" pt_clust_4="31.17067" pt_clust_5="104.44702" pt_clust_6="31.25405"></scales>
<clustering>
<clus scale="   31.254">  2  6  1 -1</clus>
<clus scale="   31.171">  2  4  1 -1</clus>
<clus scale="  104.447">  2  5  1 -1</clus>
<clus scale="  104.447">  1  3  2 -1</clus>
</clustering>
</event>
<event>
 6    0  0.2572175E+002  0.1932045E+03  0.7546771E-02  0.1155602E+00
         21   -1    0    0  503  502  0.00000000000E+00  0.00000000000E+00  0.13823702391E+03  0.13823702391E+03  0.00000000000E+00 0.  1.
         -1   -1    0    0    0  501 -0.00000000000E+00 -0.00000000000E+00 -0.40885195235E+03  0.40885195235E+03  0.00000000000E+00 0.  1.
         21    1    1    2  503  504 -0.51561553253E+02 -0.55848389859E+02 -0.28322530446E+02  0.81115979650E+02  0.00000000000E+00 0.  1.
         21    1    1    2  504  505 -0.36769818877E+02 -0.94785171433E+02  0.26025097646E+02  0.10494548114E+03  0.00000000000E+00 0.  1.
         21    1    1    2  505  501  0.61871272668E+01 -0.36490684483E+02 -0.46284473043E+02  0.59262998934E+02  0.00000000000E+00 0. -1.
         -1    1    1    2    0  502  0.82144244863E+02  0.18712424577E+03 -0.22203302259E+03  0.30176451654E+03  0.00000000000E+00 0.  1.
<scales pt_clust_3="55.84038" pt_clust_4="55.84038" pt_clust_5="37.01149" pt_clust_6="182.22870"></scales>
<clustering>
<clus scale="   37.011">  2  5  1 -1</clus>
<clus scale="   55.840">  3  4 -1 -1</clus>
<clus scale="  182.229">  2  6  1 -1</clus>
<clus scale="  193.205">  1  3  2 -1</clus>
</clustering>
</event>
<event>
 6    0  0.2804012E+002  0.2023138E+03  0.7546771E-02  0.1147801E+00
         21   -1    0    0  501  502  0.00000000000E+00  0.00000000000E+00  0.49905100367E+03  0.49905100367E+03  0.00000000000E+00 0. -1.
          2   -1    0    0  505    0 -0.00000000000E+00 -0.00000000000E+00 -0.87820342006E+03  0.87820342006E+03  0.00000000000E+00 0. -1.
         21    1    1    2  503  504 -0.35935566093E+02  0.18721132245E+02  0.36435695800E+02  0.54492252949E+02  0.00000000000E+00 0.  1.
         21    1    1    2  504  502 -0.48885151087E+02 -0.25767904191E+02  0.19285790053E+03  0.20061882434E+03  0.00000000000E+00 0. -1.
         21    1    1    2  505  503 -0.84513907471E+02  0.27488481571E+02  0.24041527636E+03  0.25631566921E+03  0.00000000000E+00 0. -1.
          2    1    1    2  501    0  0.16933462465E+03 -0.20441709625E+02 -0.84886128906E+03  0.86582767724E+03  0.00000000000E+00 0. -1.
<scales pt_clust_3="38.85763" pt_clust_4="52.13283" pt_clust_5="52.13283" pt_clust_6="170.56400"></scales>
<clustering>
<clus scale="   38.858">  3  5 -1 -1</clus>
<clus scale="   52.133">  3  4 -1 -1</clus>
<clus scale="  170.564">  2  6  1 -1</clus>
<clus scale="  202.314">  1  3  2 -1</clus>
</clustering>
</event>
<event>
 6    0  0.2572175E+002  0.7709940E+02  0.7546771E-02  0.1337490E+00
         21   -1    0    0  503  502  0.00000000000E+00  0.00000000000E+00  0.70726107072E+02  0.70726107072E+02  0.00000000000E+00 0.  1.
          2   -1    0    0  505    0 -0.00000000000E+00 -0.00000000000E+00 -0.10872132394E+04  0.10872132394E+04  0.00000000000E+00 0.  1.
         21    1    1    2  503  504 -0.42818230266E+02 -0.49325290665E+02 -0.25145267096E+02  0.69990496495E+02  0.00000000000E+00 0.  1.
         21    1    1    2  504  501  0.80642127347E+02  0.84511614918E+02 -0.50574171645E+02  0.12729144746E+03  0.00000000000E+00 0.  1.
         21    1    1    2  505  502 -0.16213005181E+02  0.37621071158E+02 -0.41942002815E+02  0.58628816569E+02  0.00000000000E+00 0.  1.
          2    1    1    2  501    0 -0.21610891900E+02 -0.72807395411E+02 -0.89882569078E+03  0.90202858595E+03  0.00000000000E+00 0.  1.
<scales pt_clust_3="60.40082" pt_clust_4="77.09940" pt_clust_5="40.96592" pt_clust_6="14000.00000"></scales>
<clustering>
<clus scale="   40.966">  1  5  2 -1</clus>
<clus scale="   60.401">  1  3  2 -1</clus>
<clus scale="   77.099">  1  4  2 -1</clus>
<clus scale="   40.966">  1  3  2 -1</clus>
</clustering>
</event>
<event>
 6    0  0.2572175E+002  0.1517431E+03  0.7546771E-02  0.1198347E+00
          2   -1    0    0  504    0 -0.00000000000E+00  0.00000000000E+00  0.10725026800E+04  0.10725026800E+04  0.00000000000E+00 0. -1.
         21   -1    0    0  505  502  0.00000000000E+00 -0.00000000000E+00 -0.84202236352E+02  0.84202236352E+02  0.00000000000E+00 0. -1.
         21    1    1    2  503  501  0.13475439735E+03 -0.55859372511E+02  0.20115302187E+02  0.14725366713E+03  0.00000000000E+00 0. -1.
         21    1    1    2  504  502 -0.67614855717E+02 -0.10467209419E+02  0.12794085021E+03  0.14508684413E+03  0.00000000000E+00 0.  1.
         21    1    1    2  505  503  0.25484682841E+02  0.24150721153E+02  0.25761211344E+02  0.43547289257E+02  0.00000000000E+00 0. -1.
          2    1    1    2  501    0 -0.92624224473E+02  0.42175860776E+02  0.81448307992E+03  0.82081711585E+03  0.00000000000E+00 0. -1.
<scales pt_clust_3="151.74311" pt_clust_4="65.17236" pt_clust_5="35.11020" pt_clust_6="14000.00000"></scales>
<clustering>
<clus scale="   35.110">  2  5  1 -1</clus>
<clus scale="   65.172">  1  4  2 -1</clus>
<clus scale="  151.743">  2  3  1 -1</clus>
<clus scale="   35.110">  2  3  1 -1</clus>
</clustering>
</event>
<event>
 6    0  0.2572175E+002  0.8181683E+02  0.7546771E-02  0.1323973E+00
          2   -1    0    0  504    0 -0.00000000000E+00  0.00000000000E+00  0.39533928216E+04  0.39533928216E+04  0.00000000000E+00 0. -1.
         21   -1    0    0  505  502  0.00000000000E+00 -0.00000000000E+00 -0.59046595473E+02  0.59046595473E+02  0.00000000000E+00 0.  1.
         21    1    1    2  503  502 -0.84605457371E+02 -0.73638974580E+02  0.11235410681E+03  0.15875839289E+03  0.00000000000E+00 0.  1.
         21    1    1    2  504  503 -0.50749291398E+02  0.31051720437E+02  0.47940246210E+03  0.48308013889E+03  0.00000000000E+00 0.  1.
         21    1    1    2  505  501  0.52431762341E+02  0.64874353479E+00 -0.12746413410E+02  0.53962779999E+02  0.00000000000E+00 0.  1.
          2    1    1    2  501    0  0.82922986428E+02  0.41938510608E+02  0.33153360707E+04  0.33166381053E+04  0.00000000000E+00 0. -1.
<scales pt_clust_3="81.81683" pt_clust_4="56.35404" pt_clust_5="52.43578" pt_clust_6="14000.00000"></scales>
<clustering>
<clus scale="   52.436">  2  5  1 -1</clus>
<clus scale="   56.354">  1  4  2 -1</clus>
<clus scale="   81.817">  2  3  1 -1</clus>
<clus scale="   52.436">  2  3  1 -1</clus>
</clustering>
</event>
<event>
 6    0  0.2572175E+002  0.1148144E+03  0.7546771E-02  0.1251905E+00
         21   -1    0    0  503  502  0.00000000000E+00  0.00000000000E+00  0.42456770240E+03  0.42456770240E+03  0.00000000000E+00 0.  1.
          1   -1    0    0  502    0 -0.00000000000E+00 -0.00000000000E+00 -0.11181151878E+04  0.11181151878E+04  0.00000000000E+00 0.  1.
         21    1    1    2  503  505  0.11598093253E+03  0.12052964373E+02  0.30872427663E+03  0.33001140835E+03  0.00000000000E+00 0.  1.
         21    1    1    2  504  501  0.73721322060E+02 -0.10787642908E+03 -0.40306463063E+03  0.42371364592E+03  0.00000000000E+00 0.  1.
         21    1    1    2  505  504 -0.10948193294E+03  0.70737350388E+02  0.46056134071E+02  0.13824338634E+03  0.00000000000E+00 0.  1.
          1    1    1    2  501    0 -0.80220321643E+02  0.25086114317E+02 -0.64526326544E+03  0.65071444955E+03  0.00000000000E+00 0.  1.
<scales pt_clust_3="14000.00000" pt_clust_4="85.87682" pt_clust_5="114.81445" pt_clust_6="84.05125"></scales>
<clustering>
<clus scale="   84.051">  2  6  1 -1</clus>
<clus scale="   85.877">  2  4  1 -1</clus>
<clus scale="  114.814">  2  5  1 -1</clus>
<clus scale="  114.814">  1  3  2 -1</clus>
</clustering>
</event>
<event>
 6    0  0.3189226E+002  0.1024598E+03  0.7546771E-02  0.1275207E+00
         21   -1    0    0  503  502  0.00000000000E+00  0.00000000000E+00  0.12171081871E+03  0.12171081871E+03  0.00000000000E+00 0. -1.
          2   -1    0    0  505    0 -0.00000000000E+00 -0.00000000000E+00 -0.27339288145E+04  0.27339288145E+04  0.00000000000E+00 0.  1.
         21    1    1    2  503  501  0.13889366548E+03  0.49705340059E+01  0.64397909182E+02  0.15317717593E+03  0.00000000000E+00 0. -1.
         21    1    1    2  504  502 -0.38168441862E+02  0.13712185571E+02 -0.41916448486E+02  0.58325317324E+02  0.00000000000E+00 0. -1.
         21    1    1    2  505  504 -0.52862888378E+02  0.32703904133E+02 -0.22539836836E+03  0.23381286272E+03  0.00000000000E+00 0.  1.
          2    1    1    2  501    0 -0.47862335243E+02 -0.51386623710E+02 -0.24093010881E+04  0.24103242772E+04  0.00000000000E+00 0.  1.
<scales pt_clust_3="102.45983" pt_clust_4="40.55680" pt_clust_5="63.63262" pt_clust_6="14000.00000"></scales>
<clustering>
<clus scale="   40.557">  1  4  2 -1</clus>
<clus scale="   63.633">  2  5  1 -1</clus>
<clus scale="  102.460">  1  3  2 -1</clus>
<clus scale="   40.557">  1  3  2 -1</clus>
</clustering>
</event>
<event>
 6    0  0.2572175E+002  0.2266027E+03  0.7546771E-02  0.1129054E+00
         21   -1    0    0  503  502  0.00000000000E+00  0.00000000000E+00  0.22417339460E+03  0.22417339460E+03  0.00000000000E+00 0.  1.
         -3   -1    0    0    0  501 -0.00000000000E+00 -0.00000000000E+00 -0.84658880075E+03  0.84658880075E+03  0.00000000000E+00 0.  1.
         21    1    1    2  503  501  0.21346747040E+03  0.98445257113E+02  0.81789500481E+02  0.24889626746E+03  0.00000000000E+00 0.  1.
         21    1    1    2  504  505 -0.60196479820E+02 -0.92236405404E+02 -0.11282004444E+03  0.15766906194E+03  0.00000000000E+00 0.  1.
         21    1    1    2  505  502 -0.58567012384E+02 -0.51645152870E+02 -0.16519151096E+02  0.79813527095E+02  0.00000000000E+00 0.  1.
         -3    1    1    2    0  504 -0.94703978191E+02  0.45436301161E+02 -0.57486571109E+03  0.58438333886E+03  0.00000000000E+00 0.  1.
<scales pt_clust_3="215.60631" pt_clust_4="58.71472" pt_clust_5="58.71472" pt_clust_6="105.03952"></scales>
<clustering>
<clus scale="   58.715">  4  5 -1 -1</clus>
<clus scale="  105.040">  2  6  1 -1</clus>
<clus scale="  215.606">  1  3  2 -1</clus>
<clus scale="  215.606">  1  3  2 -1</clus>
</clustering>
</event>
<event>
 6    0  0.2572175E+002  0.1633856E+03  0.7546771E-02  0.1184927E+00
          1   -1    0    0  503    0 -0.00000000000E+00  0.00000000000E+00  0.14977111714E+03  0.14977111714E+03  0.00000000000E+00 0. -1.
         21   -1    0    0  504  502  0.00000000000E+00 -0.00000000000E+00 -0.22740507715E+04  0.22740507715E+04  0.00000000000E+00 0.  1.
         21    1    1    2  503  502  0.70649352370E+01  0.12773570441E+03 -0.19796663563E+03  0.23570556275E+03  0.00000000000E+00 0.  1.
         21    1    1    2  504  505 -0.27447371601E+02  0.95091899173E+02 -0.11588816262E+04  0.11631003616E+04  0.00000000000E+00 0.  1.
         21    1    1    2  505  501  0.10227377903E+03 -0.66610622304E+02 -0.82919870497E+03  0.83813327890E+03  0.00000000000E+00 0.  1.
          1    1    1    2  501    0 -0.81891342666E+02 -0.15621698128E+03  0.61767312416E+02  0.18688268546E+03  0.00000000000E+00 0. -1.
<scales pt_clust_3="14000.00000" pt_clust_4="98.97387" pt_clust_5="81.84612" pt_clust_6="163.38562"></scales>
<clustering>
<clus scale="   98.974">  2  4  1 -1</clus>
<clus scale="   81.846">  2  5  1 -1</clus>
<clus scale="  163.386">  1  6  2 -1</clus>
<clus scale="   98.974">  2  3  1 -1</clus>
</clustering>
</event>
<event>
 6    0  0.2572175E+002  0.1256436E+03  0.7546771E-02  0.1234067E+00
         21   -1    0    0  504  502  0.00000000000E+00  0.00000000000E+00  0.16174218787E+03  0.16174218787E+03  0.00000000000E+00 0.  1.
          2   -1    0    0  505    0 -0.00000000000E+00 -0.00000000000E+00 -0.76511094761E+03  0.76511094761E+03  0.00000000000E+00 0.  1.
         21    1    1    2  503  502  0.47144753890E+02 -0.31666050917E+02 -0.38561543882E+01  0.56923075520E+02  0.00000000000E+00 0.  1.
         21    1    1    2  504  501 -0.55512667927E+02 -0.16609760657E+02  0.52475045576E+02  0.78173978136E+02  0.00000000000E+00 0.  1.
         21    1    1    2  505  503  0.11057534693E+03 -0.13977120399E+01  0.18139348801E+02  0.11206202266E+03  0.00000000000E+00 0.  1.
          2    1    1    2  501    0 -0.10220743289E+03  0.49673523613E+02 -0.67012699973E+03  0.67969405916E+03  0.00000000000E+00 0.  1.
<scales pt_clust_3="34.98408" pt_clust_4="57.94429" pt_clust_5="34.98408" pt_clust_6="115.77219"></scales>
<clustering>
<clus scale="   34.984">  3  5 -1 -1</clus>
<clus scale="   57.944">  1  4  2 -1</clus>
<clus scale="  115.772">  2  6  1 -1</clus>
<clus scale="   57.944">  1  3  2 -1</clus>
</clustering>
</event>
<event>
 6    0  0.2572175E+002  0.1260369E+03  0.7546771E-02  0.1233458E+00
          3   -1    0    0  504    0 -0.00000000000E+00  0.00000000000E+00  0.14735191058E+03  0.14735191058E+03  0.00000000000E+00 0. -1.
         21   -1    0    0  501  502  0.00000000000E+00 -0.00000000000E+00 -0.23004250143E+03  0.23004250143E+03  0.00000000000E+00 0. -1.
         21    1    1    2  503  502 -0.20196124099E+02 -0.83723754274E+02 -0.59277268633E+02  0.10455307281E+03  0.00000000000E+00 0. -1.
         21    1    1    2  504  505  0.53819772636E+02  0.98392531831E+02  0.46967047897E+02  0.12158767139E+03  0.00000000000E+00 0. -1.
         21    1    1    2  505  503  0.25462284749E+02 -0.55452073111E+02 -0.22874727705E+02  0.65165278519E+02  0.00000000000E+00 0. -1.
          3    1    1    2  501    0 -0.59085933286E+02  0.40783295554E+02 -0.47505642409E+02  0.86088389282E+02  0.00000000000E+00 0. -1.
<scales pt_clust_3="43.39311" pt_clust_4="115.01121" pt_clust_5="43.39311" pt_clust_6="71.79432"></scales>
<clustering>
<clus scale="   43.393">  3  5 -1 -1</clus>
<clus scale="   71.794">  2  6  1 -1</clus>
<clus scale="  115.011">  1  4  2 -1</clus>
<clus scale="   71.794">  2  3  1 -1</clus>
</clustering>
</event>
<event>
 6    0  0.2572175E+002  0.1026423E+03  0.7546771E-02  0.1274836E+00
          1   -1    0    0  503    0 -0.00000000000E+00  0.00000000000E+00  0.91312547066E+03  0.91312547066E+03  0.00000000000E+00 0.  1.
         21   -1    0    0  505  502  0.00000000000E+00 -0.00000000000E+00 -0.35059644025E+02  0.35059644025E+02  0.00000000000E+00 0.  1.
         21    1    1    2  503  504 -0.62685379712E+02  0.60151568835E+02  0.65888306208E+03  0.66458600464E+03  0.00000000000E+00 0.  1.
         21    1    1    2  504  502 -0.35463433865E+02  0.21928618552E+02  0.34250310623E+02  0.53959273817E+02  0.00000000000E+00 0.  1.
         21    1    1    2  505  501  0.32604628942E+02 -0.48063810427E+02  0.53925332481E+02  0.79253600451E+02  0.00000000000E+00 0.  1.
          1    1    1    2  501    0  0.65544184635E+02 -0.34016376960E+02  0.13100712145E+03  0.15038623577E+03  0.00000000000E+00 0.  1.
<scales pt_clust_3="91.49510" pt_clust_4="41.69556" pt_clust_5="41.25594" pt_clust_6="41.25594"></scales>
<clustering>
<clus scale="   41.256">  5  6 -1 -1</clus>
<clus scale="   41.696">  2  4  1 -1</clus>
<clus scale="   91.495">  1  3  2 -1</clus>
<clus scale="   41.696">  2  3  1 -1</clus>
</clustering>
</event>
<event>
 6    0  0.2572175E+002  0.8317948E+02  0.7546771E-02  0.1320263E+00
         21   -1    0    0  504  502  0.00000000000E+00  0.00000000000E+00  0.13402713748E+03  0.13402713748E+03  0.00000000000E+00 0. -1.
          2   -1    0    0  505    0 -0.00000000000E+00 -0.00000000000E+00 -0.13112591476E+04  0.13112591476E+04  0.00000000000E+00 0. -1.
         21    1    1    2  503  502  0.86457558060E+02  0.72805643235E+01  0.10279563213E+03  0.13451712883E+03  0.00000000000E+00 0. -1.
         21    1    1    2  504  501 -0.58826412262E+02  0.37549183255E+02 -0.10651383708E+03  0.12734082390E+03  0.00000000000E+00 0. -1.
         21    1    1    2  505  503  0.20218326216E+02 -0.49960061761E+02 -0.16119892821E+03  0.16997024135E+03  0.00000000000E+00 0. -1.
          2    1    1    2  501    0 -0.47849472014E+02  0.51303141829E+01 -0.10123148770E+04  0.10134580910E+04  0.00000000000E+00 0. -1.
<scales pt_clust_3="83.17948" pt_clust_4="14000.00000" pt_clust_5="47.53711" pt_clust_6="48.12372"></scales>
<clustering>
<clus scale="   48.124">  2  6  1 -1</clus>
<clus scale="   47.537">  2  5  1 -1</clus>
<clus scale="   83.179">  1  3  2 -1</clus>
<clus scale="   83.179">  1  3  2 -1</clus>
</clustering>
</event>
<event>
 6    0  0.2572175E+002  0.1125314E+03  0.7546771E-02  0.1255953E+00
         -2   -1    0    0    0  501 -0.00000000000E+00  0.00000000000E+00  0.25516901351E+03  0.25516901351E+03  0.00000000000E+00 0.  1.
         21   -1    0    0  505  502  0.00000000000E+00 -0.00000000000E+00 -0.30788119312E+03  0.30788119312E+03  0.00000000000E+00 0. -1.
         21    1    1    2  503  502 -0.11496197929E+03  0.87116053415E+02 -0.14544982958E+02  0.14497248006E+03  0.00000000000E+00 0.  1.
         21    1    1    2  504  501  0.20258342325E+02 -0.42676455754E+02 -0.10700727376E+03  0.11697109450E+03  0.00000000000E+00 0. -1.
         21    1    1    2  505  504 -0.15901983166E+02 -0.43493782061E+02 -0.93689413513E+02  0.10450975242E+03  0.00000000000E+00 0. -1.
         -2    1    1    2    0  503  0.11060562013E+03 -0.94581559956E+00  0.16252949062E+03  0.19659687966E+03  0.00000000000E+00 0.  1.
<scales pt_clust_3="112.53141" pt_clust_4="93.67286" pt_clust_5="36.11232" pt_clust_6="14000.00000"></scales>
<clustering>
<clus scale="   36.112">  4  5 -1 -1</clus>
<clus scale="   93.673">  2  4  1 -1</clus>
<clus scale="  112.531">  2  3  1 -1</clus>
<clus scale="   93.673">  2  3  1 -1</clus>
</clustering>
</event>
<event>
 6    0  0.2572175E+002  0.1644148E+03  0.7546771E-02  0.1183801E+00
         21   -1    0    0  501  502  0.00000000000E+00  0.00000000000E+00  0.21241096484E+03  0.21241096484E+03  0.00000000000E+00 0. -1.
         -1   -1    0    0    0  501 -0.00000000000E+00 -0.00000000000E+00 -0.35888026245E+03  0.35888026245E+03  0.00000000000E+00 0. -1.
         21    1    1    2  503  504  0.10030130261E+03  0.44261295337E+02 -0.25815045671E+03  0.28046581230E+03  0.00000000000E+00 0. -1.
         21    1    1    2  504  505 -0.92034897997E+02 -0.33467360739E+02  0.93024252123E+02  0.13507034526E+03  0.00000000000E+00 0. -1.
         21    1    1    2  505  502 -0.34055933654E+02 -0.49653236701E+02  0.65972687177E+02  0.89317668942E+02  0.00000000000E+00 0. -1.
         -1    1    1    2    0  503  0.25789529036E+02  0.38859302103E+02 -0.47315780204E+02  0.66437400793E+02  0.00000000000E+00 0. -1.
<scales pt_clust_3="42.39141" pt_clust_4="158.33494" pt_clust_5="37.29261" pt_clust_6="42.39141"></scales>
<clustering>
<clus scale="   37.293">  4  5 -1 -1</clus>
<clus scale="   42.391">  3  6 -1 -1</clus>
<clus scale="  158.335">  1  4  2 -1</clus>
<clus scale="  158.335">  1  3  2 -1</clus>
</clustering>
</event>
<event>
 6    0  0.2572175E+002  0.1060659E+03  0.7546771E-02  0.1268034E+00
          2   -1    0    0  502    0 -0.00000000000E+00  0.00000000000E+00  0.12117556846E+04  0.12117556846E+04  0.00000000000E+00 0. -1.
         21   -1    0    0  503  502  0.00000000000E+00 -0.00000000000E+00 -0.89013409081E+02  0.89013409081E+02  0.00000000000E+00 0. -1.
         21    1    1    2  503  504  0.20449829692E+02  0.82445223775E+02 -0.47548074625E+02  0.97345928822E+02  0.00000000000E+00 0. -1.
         21    1    1    2  504  505  0.24910175399E+02 -0.43590074338E+02  0.14135865976E+03  0.15000960672E+03  0.00000000000E+00 0. -1.
         21    1    1    2  505  501 -0.30001047775E+02 -0.10084694320E+03  0.24185423700E+03  0.26374920052E+03  0.00000000000E+00 0. -1.
          2    1    1    2  501    0 -0.15358957316E+02  0.61991793766E+02  0.78707745334E+03  0.78966435758E+03  0.00000000000E+00 0. -1.
<scales pt_clust_3="88.28201" pt_clust_4="40.61074" pt_clust_5="40.61074" pt_clust_6="63.86611"></scales>
<clustering>
<clus scale="   40.611">  4  5 -1 -1</clus>
<clus scale="   63.866">  1  6  2 -1</clus>
<clus scale="   88.282">  2  3  1 -1</clus>
<clus scale="   88.282">  2  3  1 -1</clus>
</clustering>
</event>
<event>
 6    0  0.2572175E+002  0.2133495E+03  0.7546771E-02  0.1138941E+00
         21   -1    0    0  503  502  0.00000000000E+00  0.00000000000E+00  0.86342903600E+02  0.86342903600E+02  0.00000000000E+00 0. -1.
          2   -1    0    0  502    0 -0.00000000000E+00 -0.00000000000E+00 -0.19574288744E+04  0.19574288744E+04  0.00000000000E+00 0. -1.
         21    1    1    2  503  505  0.53536752831E+02 -0.12791903932E+03 -0.76928701595E+02  0.15857960037E+03  0.00000000000E+00 0. -1.
         21    1    1    2  504  501 -0.32301728631E+02  0.19864228134E+03 -0.31639856825E+03  0.37498028161E+03  0.00000000000E+00 0. -1.
         21    1    1    2  505  504  0.42623182804E+02 -0.65919544059E+02 -0.83952697982E+02  0.11493553628E+03  0.00000000000E+00 0. -1.
          2    1    1    2  501    0 -0.63858207005E+02 -0.48036979544E+01 -0.13938060030E+04  0.13952763597E+04  0.00000000000E+00 0. -1.
<scales pt_clust_3="34.54080" pt_clust_4="208.35171" pt_clust_5="34.54080" pt_clust_6="64.03863"></scales>
<clustering>
<clus scale="   34.541">  3  5 -1 -1</clus>
<clus scale="   64.039">  2  6  1 -1</clus>
<clus scale="  208.352">  2  4  1 -1</clus>
<clus scale="  213.350">  1  3  2 -1</clus>
</clustering>
</event>
<event>
 6    0  0.2572175E+002  0.1079388E+03  0.7546771E-02  0.1264435E+00
         21   -1    0    0  504  502  0.00000000000E+00  0.00000000000E+00  0.24971916659E+04  0.24971916659E+04  0.00000000000E+00 0.  1.
         -4   -1    0    0    0  501 -0.00000000000E+00 -0.00000000000E+00 -0.71974577140E+02  0.71974577140E+02  0.00000000000E+00 0.  1.
         21    1    1    2  503  502 -0.71095802981E+02 -0.10301263751E+03  0.15034889879E+04  0.15086899461E+04  0.00000000000E+00 0.  1.
         21    1    1    2  504  505  0.20435320683E+02  0.39749402877E+02  0.45043330521E+03  0.45264531347E+03  0.00000000000E+00 0.  1.
         21    1    1    2  505  501 -0.16254125674E+02  0.14564629254E+03  0.47948494152E+03  0.50138094128E+03  0.00000000000E+00 0.  1.
         -4    1    1    2    0  503  0.66914607972E+02 -0.82383057901E+02 -0.81901459040E+01  0.10645004218E+03  0.00000000000E+00 0.  1.
<scales pt_clust_3="92.63026" pt_clust_4="44.69471" pt_clust_5="107.93878" pt_clust_6="14000.00000"></scales>
<clustering>
<clus scale="   44.695">  1  4  2 -1</clus>
<clus scale="   92.630">  1  3  2 -1</clus>
<clus scale="  107.939">  1  5  2 -1</clus>
<clus scale="   44.695">  1  3  2 -1</clus>
</clustering>
</event>
<event>
 6    0  0.3151137E+002  0.9732221E+02  0.7546771E-02  0.1286030E+00
         -1   -1    0    0    0  501 -0.00000000000E+00  0.00000000000E+00  0.10876017961E+04  0.10876017961E+04  0.00000000000E+00 0.  1.
         21   -1    0    0  505  502  0.00000000000E+00 -0.00000000000E+00 -0.43984535848E+03  0.43984535848E+03  0.00000000000E+00 0. -1.
         21    1    1    2  503  501  0.10408897721E+02  0.35532568936E+02  0.19357772789E+03  0.19708689794E+03  0.00000000000E+00 0.  1.
         21    1    1    2  504  502  0.42628401006E+02  0.10394686467E+02  0.12358561032E+02  0.45584691617E+02  0.00000000000E+00 0.  1.
         21    1    1    2  505  503 -0.21065393584E+02 -0.10661587515E+03 -0.41307548896E+03  0.42713236265E+03  0.00000000000E+00 0. -1.
         -1    1    1    2    0  504 -0.31971905143E+02  0.60688619747E+02  0.85489563764E+03  0.85764320235E+03  0.00000000000E+00 0.  1.
<scales pt_clust_3="37.02578" pt_clust_4="44.49129" pt_clust_5="97.32221" pt_clust_6="14000.00000"></scales>
<clustering>
<clus scale="   37.026">  1  3  2 -1</clus>
<clus scale="   44.491">  2  4  1 -1</clus>
<clus scale="   97.322">  2  5  1 -1</clus>
<clus scale="   44.491">  2  3  1 -1</clus>
</clustering>
</event>
<event>
 6    0  0.2572175E+002  0.8139719E+02  0.7546771E-02  0.1325133E+00
          1   -1    0    0  505    0 -0.00000000000E+00  0.00000000000E+00  0.31587818284E+04  0.31587818284E+04  0.00000000000E+00 0. -1.
         21   -1    0    0  503  502  0.00000000000E+00 -0.00000000000E+00 -0.41098540162E+02  0.41098540162E+02  0.00000000000E+00 0. -1.
         21    1    1    2  503  501  0.36857976671E+02  0.14203066928E+02  0.83169178500E+02  0.92072524712E+02  0.00000000000E+00 0. -1.
         21    1    1    2  504  502 -0.26609252916E+02  0.62379599868E+02  0.15270322095E+02  0.69515822352E+02  0.00000000000E+00 0. -1.
         21    1    1    2  505  504 -0.73697362798E+02 -0.10594861183E+03  0.45115706610E+03  0.46925377774E+03  0.00000000000E+00 0. -1.
          1    1    1    2  501    0  0.63448639042E+02  0.29365945034E+02  0.25680867216E+04  0.25690382438E+04  0.00000000000E+00 0. -1.
<scales pt_clust_3="39.49984" pt_clust_4="81.39719" pt_clust_5="14000.00000" pt_clust_6="70.42657"></scales>
<clustering>
<clus scale="   39.500">  2  3  1 -1</clus>
<clus scale="   70.427">  1  6  2 -1</clus>
<clus scale="   81.397">  2  4  1 -1</clus>
<clus scale="   39.500">  2  3  1 -1</clus>
</clustering>
</event>
<event>
 6    0  0.2572175E+002  0.2479125E+03  0.7546771E-02  0.1114631E+00
          4   -1    0    0  505    0 -0.00000000000E+00  0.00000000000E+00  0.10848996486E+04  0.10848996486E+04  0.00000000000E+00 0. -1.
         21   -1    0    0  503  502  0.00000000000E+00 -0.00000000000E+00 -0.54775276253E+03  0.54775276253E+03  0.00000000000E+00 0.  1.
         21    1    1    2  503  501  0.15798331965E+03  0.16311575794E+03  0.43009577856E+03  0.48636185964E+03  0.00000000000E+00 0.  1.
         21    1    1    2  504  502 -0.98342400219E+02 -0.32397628301E+02 -0.28092087545E+03  0.29939501042E+03  0.00000000000E+00 0.  1.
         21    1    1    2  505  504 -0.81782798671E+02 -0.10960962137E+03 -0.20865834544E+03  0.24948146299E+03  0.00000000000E+00 0.  1.
          4    1    1    2  501    0  0.22141879242E+02 -0.21108508265E+02  0.59663032838E+03  0.59741407808E+03  0.00000000000E+00 0. -1.
<scales pt_clust_3="229.11610" pt_clust_4="82.23683" pt_clust_5="82.23683" pt_clust_6="30.59137"></scales>
<clustering>
<clus scale="   30.591">  1  6  2 -1</clus>
<clus scale="   82.237">  4  5 -1 -1</clus>
<clus scale="  229.116">  1  3  2 -1</clus>
<clus scale="  247.913">  2  3  1 -1</clus>
</clustering>
</event>
<event>
 6    0  0.2572175E+002  0.1641583E+03  0.7546771E-02  0.1184081E+00
         21   -1    0    0  504  502  0.00000000000E+00  0.00000000000E+00  0.45107443780E+03  0.45107443780E+03  0.00000000000E+00 0.  1.
         -3   -1    0    0    0  501 -0.00000000000E+00 -0.00000000000E+00 -0.12898173406E+03  0.12898173406E+03  0.00000000000E+00 0. -1.
         21    1    1    2  503  502 -0.78103752006E+02 -0.11064310749E+02  0.13685741607E+03  0.15796381669E+03  0.00000000000E+00 0.  1.
         21    1    1    2  504  501  0.99099335140E+02  0.83921022202E+02  0.73760094456E+02  0.14934512957E+03  0.00000000000E+00 0.  1.
         21    1    1    2  505  503 -0.87736442929E+02  0.48438100746E+02  0.85826170257E+02  0.13194720354E+03  0.00000000000E+00 0.  1.
         -3    1    1    2    0  505  0.66740859795E+02 -0.12129481220E+03  0.25649022964E+02  0.14080002206E+03  0.00000000000E+00 0. -1.
<scales pt_clust_3="66.15765" pt_clust_4="129.85922" pt_clust_5="66.15765" pt_clust_6="146.24392"></scales>
<clustering>
<clus scale="   66.158">  3  5 -1 -1</clus>
<clus scale="  129.859">  2  4  1 -1</clus>
<clus scale="  146.244">  2  6  1 -1</clus>
<clus scale="  164.158">  1  3  2 -1</clus>
</clustering>
</event>
<event>
 6    0  0.2572175E+002  0.1304958E+03  0.7546771E-02  0.1226722E+00
          1   -1    0    0  505    0 -0.00000000000E+00  0.00000000000E+00  0.24174526141E+04  0.24174526141E+04  0.00000000000E+00 0. -1.
         21   -1    0    0  504  502  0.00000000000E+00 -0.00000000000E+00 -0.11171471408E+03  0.11171471408E+03  0.00000000000E+00 0.  1.
         21    1    1    2  503  502  0.82451404855E+02 -0.49164957829E+02 -0.69796372768E+02  0.11868850362E+03  0.00000000000E+00 0.  1.
         21    1    1    2  504  501  0.42730130624E+02  0.11798948742E+01  0.15677862749E+02  0.45530776354E+02  0.00000000000E+00 0.  1.
         21    1    1    2  505  503 -0.63070597789E+02 -0.25554032355E+01  0.60925455948E+03  0.61251575379E+03  0.00000000000E+00 0. -1.
          1    1    1    2  501    0 -0.62110937690E+02  0.50540466190E+02  0.17506018506E+04  0.17524322944E+04  0.00000000000E+00 0. -1.
<scales pt_clust_3="14000.00000" pt_clust_4="42.74642" pt_clust_5="62.40225" pt_clust_6="130.49582"></scales>
<clustering>
<clus scale="   42.746">  2  4  1 -1</clus>
<clus scale="   62.402">  1  5  2 -1</clus>
<clus scale="  130.496">  1  6  2 -1</clus>
<clus scale="   42.746">  2  3  1 -1</clus>
</clustering>
</event>
<event>
 6    0  0.2572175E+002  0.1744410E+03  0.7546771E-02  0.1173294E+00
          2   -1    0    0  503    0 -0.00000000000E+00  0.00000000000E+00  0.47046139126E+03  0.47046139126E+03  0.00000000000E+00 0.  1.
         21   -1    0    0  504  502  0.00000000000E+00 -0.00000000000E+00 -0.28100899302E+03  0.28100899302E+03  0.00000000000E+00 0. -1.
         21    1    1    2  503  505 -0.44494132926E+02 -0.13610504565E-02  0.11695675352E+02  0.46005615838E+02  0.00000000000E+00 0. -1.
         21    1    1    2  504  501  0.35529323445E+00 -0.11099116326E+03  0.18886027962E+03  0.21906019668E+03  0.00000000000E+00 0.  1.
         21    1    1    2  505  502  0.18490508737E+02  0.15864465241E+03 -0.21929553425E+03  0.27129422404E+03  0.00000000000E+00 0. -1.
          2    1    1    2  501    0  0.25648330955E+02 -0.47652128106E+02  0.20819197752E+03  0.21511034772E+03  0.00000000000E+00 0.  1.
<scales pt_clust_3="44.49413" pt_clust_4="46.09544" pt_clust_5="159.43647" pt_clust_6="46.09544"></scales>
<clustering>
<clus scale="   44.494">  1  3  2 -1</clus>
<clus scale="   46.095">  4  6 -1 -1</clus>
<clus scale="  159.436">  2  5  1 -1</clus>
<clus scale="  159.436">  2  3  1 -1</clus>
</clustering>
</event>
<event>
 6    0  0.2572175E+002  0.1200903E+03  0.7546771E-02  0.1242948E+00
         21   -1    0    0  505  502  0.00000000000E+00  0.00000000000E+00  0.38649355369E+03  0.38649355369E+03  0.00000000000E+00 0. -1.
          1   -1    0    0  503    0 -0.00000000000E+00 -0.00000000000E+00 -0.19213079543E+04  0.19213079543E+04  0.00000000000E+00 0. -1.
         21    1    1    2  503  502 -0.39023609321E+02 -0.28929964685E+02 -0.17847778445E+03  0.18497055031E+03  0.00000000000E+00 0.  1.
         21    1    1    2  504  501  0.48174865085E+02  0.69269938050E+02  0.84109008394E+02  0.11913633886E+03  0.00000000000E+00 0. -1.
         21    1    1    2  505  504 -0.29809757682E+01  0.44812939528E+02  0.27876786289E+03  0.28236254558E+03  0.00000000000E+00 0. -1.
          1    1    1    2  501    0 -0.61702799956E+01 -0.85152912893E+02 -0.17192134875E+04  0.17213320733E+04  0.00000000000E+00 0. -1.
<scales pt_clust_3="47.84711" pt_clust_4="120.09034" pt_clust_5="44.91198" pt_clust_6="14000.00000"></scales>
<clustering>
<clus scale="   44.912">  1  5  2 -1</clus>
<clus scale="   47.847">  2  3  1 -1</clus>
<clus scale="  120.090">  1  4  2 -1</clus>
<clus scale="   44.912">  1  3  2 -1</clus>
</clustering>
</event>
<event>
 6    0  0.2572175E+002  0.8767217E+02  0.7546771E-02  0.1308589E+00
          1   -1    0    0  504    0 -0.00000000000E+00  0.00000000000E+00  0.31320897047E+03  0.31320897047E+03  0.00000000000E+00 0. -1.
         21   -1    0    0  505  502  0.00000000000E+00 -0.00000000000E+00 -0.38877392050E+03  0.38877392050E+03  0.00000000000E+00 0. -1.
         21    1    1    2  503  502 -0.54811286632E+01  0.88462491363E+02 -0.34956082802E+03  0.36062227834E+03  0.00000000000E+00 0. -1.
         21    1    1    2  504  503 -0.29037453835E+02  0.11120208400E+02  0.46076263079E+01  0.31433469110E+02  0.00000000000E+00 0.  1.
         21    1    1    2  505  501  0.74160849002E+02 -0.50792666053E+02  0.17062434104E+03  0.19285329192E+03  0.00000000000E+00 0. -1.
          1    1    1    2  501    0 -0.39642266503E+02 -0.48790033710E+02  0.98763910638E+02  0.11707385160E+03  0.00000000000E+00 0. -1.
<scales pt_clust_3="87.67217" pt_clust_4="31.09393" pt_clust_5="14000.00000" pt_clust_6="67.27681"></scales>
<clustering>
<clus scale="   31.094">  1  4  2 -1</clus>
<clus scale="   67.277">  1  6  2 -1</clus>
<clus scale="   87.672">  2  3  1 -1</clus>
<clus scale="   87.672">  2  3  1 -1</clus>
</clustering>
</event>
<event>
 6    0  0.2572175E+002  0.1215860E+03  0.7546771E-02  0.1240503E+00
          2   -1    0    0  503    0 -0.00000000000E+00  0.00000000000E+00  0.25605305510E+04  0.25605305510E+04  0.00000000000E+00 0.  1.
         21   -1    0    0  504  502  0.00000000000E+00 -0.00000000000E+00 -0.96921721432E+02  0.96921721432E+02  0.00000000000E+00 0.  1.
         21    1    1    2  503  505 -0.12072527624E+03 -0.77192862678E+01  0.83028237068E+02  0.14672378081E+03  0.00000000000E+00 0.  1.
         21    1    1    2  504  501 -0.19948014244E+02  0.25722666375E+02 -0.33632813786E+02  0.46805394998E+02  0.00000000000E+00 0.  1.
         21    1    1    2  505  502  0.67817622695E+02  0.82925087072E+02  0.10057694811E+03  0.14694054071E+03  0.00000000000E+00 0.  1.
          2    1    1    2  501    0  0.72855667789E+02 -0.10092846718E+03  0.23136364582E+04  0.23169825559E+04  0.00000000000E+00 0.  1.
<scales pt_clust_3="14000.00000" pt_clust_4="32.55117" pt_clust_5="110.86417" pt_clust_6="121.58596"></scales>
<clustering>
<clus scale="   32.551">  2  4  1 -1</clus>
<clus scale="  110.864">  2  5  1 -1</clus>
<clus scale="  121.586">  1  6  2 -1</clus>
<clus scale="   32.551">  2  3  1 -1</clus>
</clustering>
</event>
<event>
 6    0  0.2572175E+002  0.8956428E+02  0.7546771E-02  0.1303910E+00
          2   -1    0    0  505    0 -0.00000000000E+00  0.00000000000E+00  0.15146338423E+03  0.15146338423E+03  0.00000000000E+00 0.  1.
         21   -1    0    0  504  502  0.00000000000E+00 -0.00000000000E+00 -0.77818313514E+03  0.77818313514E+03  0.00000000000E+00 0.  1.
         21    1    1    2  503  501  0.47256515019E+02  0.68736229118E+02 -0.23140768792E+03  0.24598244945E+03  0.00000000000E+00 0.  1.
         21    1    1    2  504  503  0.90942980338E+02 -0.15326843487E+02 -0.32324015446E+03  0.33613945805E+03  0.00000000000E+00 0.  1.
         21    1    1    2  505  502 -0.85178311650E+02  0.10032307258E+02 -0.18712517222E+03  0.20584416932E+03  0.00000000000E+00 0.  1.
          2    1    1    2  501    0 -0.53021183707E+02 -0.63441692890E+02  0.11505326369E+03  0.14168044256E+03  0.00000000000E+00 0.  1.
<scales pt_clust_3="57.49331" pt_clust_4="14000.00000" pt_clust_5="89.56428" pt_clust_6="82.68068"></scales>
<clustering>
<clus scale="   82.681">  1  6  2 -1</clus>
<clus scale="   57.493">  1  3  2 -1</clus>
<clus scale="   89.564">  1  5  2 -1</clus>
<clus scale="   89.564">  2  3  1 -1</clus>
</clustering>
</event>
<event>
 6    0  0.2572175E+002  0.1037564E+03  0.7546771E-02  0.1272589E+00
          1   -1    0    0  504    0 -0.00000000000E+00  0.00000000000E+00  0.11228186894E+04  0.11228186894E+04  0.00000000000E+00 0.  1.
         21   -1    0    0  503  502  0.00000000000E+00 -0.00000000000E+00 -0.51438503021E+02  0.51438503021E+02  0.00000000000E+00 0.  1.
         21    1    1    2  503  505 -0.64685376413E+02 -0.29928120577E+02  0.87470819910E+02  0.11283188671E+03  0.00000000000E+00 0.  1.
         21    1    1    2  504  502  0.17480324067E+02 -0.11975542087E+03  0.13083519278E+03  0.17822673826E+03  0.00000000000E+00 0.  1.
         21    1    1    2  505  501 -0.82240520464E+01  0.87065756213E+02  0.13885297603E+03  0.16409823244E+03  0.00000000000E+00 0.  1.
          1    1    1    2  501    0  0.55429104392E+02  0.62617785239E+02  0.71422119761E+03  0.71910033497E+03  0.00000000000E+00 0.  1.
<scales pt_clust_3="71.27335" pt_clust_4="14000.00000" pt_clust_5="103.75644" pt_clust_6="79.53753"></scales>
<clustering>
<clus scale="   71.273">  2  3  1 -1</clus>
<clus scale="   79.538">  1  6  2 -1</clus>
<clus scale="  103.756">  2  5  1 -1</clus>
<clus scale="   71.273">  2  3  1 -1</clus>
</clustering>
</event>
<event>
 6    0  0.2572175E+002  0.1945978E+03  0.7546771E-02  0.1154379E+00
         21   -1    0    0  505  502  0.00000000000E+00  0.00000000000E+00  0.36630986402E+02  0.36630986402E+02  0.00000000000E+00 0. -1.
          2   -1    0    0  503    0 -0.00000000000E+00 -0.00000000000E+00 -0.26329273793E+04  0.26329273793E+04  0.00000000000E+00 0.  1.
         21    1    1    2  503  504  0.12094699873E+03  0.28078403484E+02 -0.33719674829E+03  0.35933023850E+03  0.00000000000E+00 0. -1.
         21    1    1    2  504  502  0.81904371757E+02 -0.74542545148E-02 -0.96395560680E+02  0.12649280726E+03  0.00000000000E+00 0. -1.
         21    1    1    2  505  501 -0.11322702860E+03 -0.10581918809E+03 -0.73786100483E+03  0.75396082327E+03  0.00000000000E+00 0.  1.
          2    1    1    2  501    0 -0.89624341882E+02  0.77748238859E+02 -0.14248430791E+04  0.14297744967E+04  0.00000000000E+00 0.  1.
<scales pt_clust_3="63.35631" pt_clust_4="63.35631" pt_clust_5="178.27849" pt_clust_6="118.64785"></scales>
<clustering>
<clus scale="   63.356">  3  4 -1 -1</clus>
<clus scale="  118.648">  2  6  1 -1</clus>
<clus scale="  178.278">  2  5  1 -1</clus>
<clus scale="  194.598">  1  3  2 -1</clus>
</clustering>
</event>
<event>
 6    0  0.2572175E+002  0.3097268E+03  0.7546771E-02  0.1080477E+00
         21   -1    0    0  504  502  0.00000000000E+00  0.00000000000E+00  0.46609297439E+03  0.46609297439E+03  0.00000000000E+00 0. -1.
          2   -1    0    0  505    0 -0.00000000000E+00 -0.00000000000E+00 -0.10823820617E+04  0.10823820617E+04  0.00000000000E+00 0. -1.
         21    1    1    2  503  501 -0.24608009608E+03 -0.92265448580E+02 -0.49912128706E+03  0.56408366923E+03  0.00000000000E+00 0. -1.
         21    1    1    2  504  503  0.28638059273E+03  0.38020680601E+02  0.32745825917E+03  0.43667874638E+03  0.00000000000E+00 0. -1.
         21    1    1    2  505  502  0.15789610121E+02  0.73353231016E+02  0.21328131510E+02  0.78005752877E+02  0.00000000000E+00 0.  1.
          2    1    1    2  501    0 -0.56090106775E+02 -0.19108463036E+02 -0.46595419087E+03  0.46970686756E+03  0.00000000000E+00 0. -1.
<scales pt_clust_3="309.72683" pt_clust_4="14000.00000" pt_clust_5="73.66495" pt_clust_6="59.25566"></scales>
<clustering>
<clus scale="   59.256">  2  6  1 -1</clus>
<clus scale="   73.665">  1  5  2 -1</clus>
<clus scale="  309.727">  2  3  1 -1</clus>
<clus scale="   73.665">  1  3  2 -1</clus>
</clustering>
</event>
<event>
 6    0  0.2572175E+002  0.1028356E+03  0.7546771E-02  0.1274444E+00
         21   -1    0    0  503  502  0.00000000000E+00  0.00000000000E+00  0.35849786182E+03  0.35849786182E+03  0.00000000000E+00 0.  1.
          2   -1    0    0  504    0 -0.00000000000E+00 -0.00000000000E+00 -0.39028090536E+04  0.39028090536E+04  0.00000000000E+00 0. -1.
         21    1    1    2  503  505  0.28485204988E+02 -0.29607722136E+02  0.24400163559E+03  0.24743650152E+03  0.00000000000E+00 0.  1.
         21    1    1    2  504  502  0.33635186569E+02  0.77807685364E+01  0.99274662718E+02  0.10510625477E+03  0.00000000000E+00 0.  1.
         21    1    1    2  505  501 -0.89564453360E+02 -0.77499907045E+02 -0.34660887293E+03  0.36628641483E+03  0.00000000000E+00 0.  1.
          2    1    1    2  501    0  0.27444061803E+02  0.99326860644E+02 -0.35409786172E+04  0.35424777443E+04  0.00000000000E+00 0. -1.
<scales pt_clust_3="64.64357" pt_clust_4="34.52341" pt_clust_5="102.83556" pt_clust_6="14000.00000"></scales>
<clustering>
<clus scale="   34.523">  1  4  2 -1</clus>
<clus scale="   64.644">  1  3  2 -1</clus>
<clus scale="  102.836">  1  5  2 -1</clus>
<clus scale="   34.523">  1  3  2 -1</clus>
</clustering>
</event>
<event>
 6    0  0.2572175E+002  0.1149819E+03  0.7546771E-02  0.1251613E+00
         21   -1    0    0  501  502  0.00000000000E+00  0.00000000000E+00  0.21269990401E+03  0.21269990401E+03  0.00000000000E+00 0.  1.
         -1   -1    0    0    0  501 -0.00000000000E+00 -0.00000000000E+00 -0.83916588463E+03  0.83916588463E+03  0.00000000000E+00 0. -1.
         21    1    1    2  503  502 -0.82360664280E+02  0.67780625713E+02  0.15841356088E+03  0.19097735079E+03  0.00000000000E+00 0.  1.
         21    1    1    2  504  505  0.55956352833E+02 -0.14026435653E+02 -0.54211234083E+02  0.79162568302E+02  0.00000000000E+00 0.  1.
         21    1    1    2  505  503  0.47423830595E+02  0.10489208520E+01  0.12557620781E+01  0.47452048235E+02  0.00000000000E+00 0.  1.
         -1    1    1    2    0  504 -0.21019519148E+02 -0.54803110913E+02 -0.73192406950E+03  0.73427382131E+03  0.00000000000E+00 0. -1.
<scales pt_clust_3="104.16211" pt_clust_4="44.15556" pt_clust_5="44.15556" pt_clust_6="58.69584"></scales>
<clustering>
<clus scale="   44.156">  4  5 -1 -1</clus>
<clus scale="   58.696">  2  6  1 -1</clus>
<clus scale="  104.162">  1  3  2 -1</clus>
<clus scale="  104.162">  1  3  2 -1</clus>
</clustering>
</event>
<event>
 6    0  0.2572175E+002  0.2218035E+03  0.7546771E-02  0.1132546E+00
          2   -1    0    0  503    0 -0.00000000000E+00  0.00000000000E+00  0.28050058516E+04  0.28050058516E+04  0.00000000000E+00 0.  1.
         21   -1    0    0  504  502  0.00000000000E+00 -0.00000000000E+00 -0.17227749448E+03  0.17227749448E+03  0.00000000000E+00 0.  1.
         21    1    1    2  503  502  0.19290099531E+03 -0.28115420908E+02  0.13088926001E+03  0.23480474712E+03  0.00000000000E+00 0.  1.
         21    1    1    2  504  505 -0.15973393337E+03  0.71727418329E+02 -0.12506378372E+02  0.17554532609E+03  0.00000000000E+00 0.  1.
         21    1    1    2  505  501 -0.54966474760E+02 -0.13387184993E+02  0.44356957116E+01  0.56746854239E+02  0.00000000000E+00 0.  1.
          2    1    1    2  501    0  0.21799412828E+02 -0.30224812429E+02  0.25099097798E+04  0.25101864186E+04  0.00000000000E+00 0.  1.
<scales pt_clust_3="211.66512" pt_clust_4="38.20967" pt_clust_5="38.20967" pt_clust_6="37.26599"></scales>
<clustering>
<clus scale="   37.266">  1  6  2 -1</clus>
<clus scale="   38.210">  4  5 -1 -1</clus>
<clus scale="  211.665">  1  3  2 -1</clus>
<clus scale="  221.804">  2  3  1 -1</clus>
</clustering>
</event>
<event>
 6    0  0.2572175E+002  0.8323418E+02  0.7546771E-02  0.1320116E+00
          2   -1    0    0  503    0 -0.00000000000E+00  0.00000000000E+00  0.13071796512E+04  0.13071796512E+04  0.00000000000E+00 0.  1.
         21   -1    0    0  505  502  0.00000000000E+00 -0.00000000000E+00 -0.12103674129E+03  0.12103674129E+03  0.00000000000E+00 0.  1.
         21    1    1    2  503  502 -0.47806441989E+02  0.54904716378E+01  0.54952279059E+03  0.55162568700E+03  0.00000000000E+00 0. -1.
         21    1    1    2  504  501 -0.37714412686E+02  0.29930750888E+02 -0.89080380361E+02  0.10125976959E+03  0.00000000000E+00 0.  1.
         21    1    1    2  505  504 -0.19822654244E+02  0.30744960702E+02 -0.24188650982E+01  0.36661166624E+02  0.00000000000E+00 0. -1.
          2    1    1    2  501    0  0.10534350892E+03 -0.66166183228E+02  0.72811936475E+03  0.73866976925E+03  0.00000000000E+00 0.  1.
<scales pt_clust_3="48.36193" pt_clust_4="83.23418" pt_clust_5="36.58128" pt_clust_6="14000.00000"></scales>
<clustering>
<clus scale="   36.581">  2  5  1 -1</clus>
<clus scale="   48.362">  1  3  2 -1</clus>
<clus scale="   83.234">  2  4  1 -1</clus>
<clus scale="   36.581">  2  3  1 -1</clus>
</clustering>
</event>
<event>
 6    0  0.2572175E+002  0.2818969E+03  0.7546771E-02  0.1094657E+00
         21   -1    0    0  503  502  0.00000000000E+00  0.00000000000E+00  0.13166865715E+03  0.13166865715E+03  0.00000000000E+00 0.  1.
          2   -1    0    0  505    0 -0.00000000000E+00 -0.00000000000E+00 -0.19144384949E+04  0.19144384949E+04  0.00000000000E+00 0.  1.
         21    1    1    2  503  501 -0.38739876780E+02  0.15486566705E+01 -0.28836349287E+02  0.48318851710E+02  0.00000000000E+00 0.  1.
         21    1    1    2  504  502  0.35871072587E+02 -0.24128395779E+03 -0.21231206389E+03  0.32339000388E+03  0.00000000000E+00 0.  1.
         21    1    1    2  505  504  0.15874256023E+03 -0.14761614391E+03 -0.73241086155E+03  0.76381633689E+03  0.00000000000E+00 0.  1.
          2    1    1    2  501    0 -0.15587375604E+03  0.38735144503E+03 -0.80921056300E+03  0.91058195955E+03  0.00000000000E+00 0.  1.
<scales pt_clust_3="38.77082" pt_clust_4="14000.00000" pt_clust_5="213.00651" pt_clust_6="281.89689"></scales>
<clustering>
<clus scale="   38.771">  1  3  2 -1</clus>
<clus scale="  213.007">  2  5  1 -1</clus>
<clus scale="  281.897">  2  6  1 -1</clus>
<clus scale="   38.771">  1  3  2 -1</clus>
</clustering>
</event>
<event>
 6    0  0.2572175E+002  0.1268059E+03  0.7546771E-02  0.1232274E+00
          2   -1    0    0  504    0 -0.00000000000E+00  0.00000000000E+00  0.99145436595E+03  0.99145436595E+03  0.00000000000E+00 0.  1.
         21   -1    0    0  505  502  0.00000000000E+00 -0.00000000000E+00 -0.32771759055E+03  0.32771759055E+03  0.00000000000E+00 0. -1.
         21    1    1    2  503  502 -0.88084155368E+02 -0.35022756251E+02 -0.13267578987E+03  0.16305912149E+03  0.00000000000E+00 0. -1.
         21    1    1    2  504  503 -0.88178065034E+02 -0.61831049048E+02 -0.23132923312E+02  0.11015253933E+03  0.00000000000E+00 0.  1.
         21    1    1    2  505  501  0.14431174721E+03  0.10004287954E+03 -0.44636587344E+02  0.18118190599E+03  0.00000000000E+00 0.  1.
          2    1    1    2  501    0  0.31950473196E+02 -0.31890742406E+01  0.86418207593E+03  0.86477838969E+03  0.00000000000E+00 0.  1.
<scales pt_clust_3="91.39728" pt_clust_4="14000.00000" pt_clust_5="126.80592" pt_clust_6="32.10923"></scales>
<clustering>
<clus scale="   32.109">  1  6  2 -1</clus>
<clus scale="   91.397">  2  3  1 -1</clus>
<clus scale="  126.806">  2  5  1 -1</clus>
<clus scale="   91.397">  2  3  1 -1</clus>
</clustering>
</event>
<event>
 6    0  0.2572175E+002  0.1470926E+03  0.7546771E-02  0.1204092E+00
          2   -1    0    0  504    0 -0.00000000000E+00  0.00000000000E+00  0.18021288363E+04  0.18021288363E+04  0.00000000000E+00 0. -1.
         21   -1    0    0  505  502  0.00000000000E+00 -0.00000000000E+00 -0.79178684220E+02  0.79178684220E+02  0.00000000000E+00 0.  1.
         21    1    1    2  503  502 -0.54529651769E+01  0.60573452479E+02  0.92284476456E+02  0.11052285994E+03  0.00000000000E+00 0.  1.
         21    1    1    2  504  503  0.73376283441E+02  0.37984379501E+02  0.21476146732E+03  0.23010732258E+03  0.00000000000E+00 0.  1.
         21    1    1    2  505  501 -0.15144864018E+03 -0.60580506111E+02  0.48464991618E+02  0.17016328554E+03  0.00000000000E+00 0.  1.
          2    1    1    2  501    0  0.83525321913E+02 -0.37977325868E+02  0.13674392166E+04  0.13705140524E+04  0.00000000000E+00 0. -1.
<scales pt_clust_3="60.81840" pt_clust_4="85.36741" pt_clust_5="147.09264" pt_clust_6="14000.00000"></scales>
<clustering>
<clus scale="   60.818">  2  3  1 -1</clus>
<clus scale="   85.367">  1  4  2 -1</clus>
<clus scale="  147.093">  2  5  1 -1</clus>
<clus scale="   60.818">  2  3  1 -1</clus>
</clustering>
</event>
<event>
 6    0  0.2572175E+002  0.9352025E+02  0.7546771E-02  0.1294544E+00
          2   -1    0    0  505    0 -0.00000000000E+00  0.00000000000E+00  0.74574190212E+02  0.74574190212E+02  0.00000000000E+00 0. -1.
         21   -1    0    0  504  502  0.00000000000E+00 -0.00000000000E+00 -0.22399480769E+04  0.22399480769E+04  0.00000000000E+00 0. -1.
         21    1    1    2  503  502  0.46544578363E+01  0.33224629013E+02 -0.39419523908E+03  0.39562030593E+03  0.00000000000E+00 0. -1.
         21    1    1    2  504  501  0.29361811920E+02 -0.74718322134E+02 -0.13315002119E+04  0.13339181977E+04  0.00000000000E+00 0. -1.
         21    1    1    2  505  503 -0.67735948873E+02  0.12519493743E+03 -0.46898099512E+03  0.49010723818E+03  0.00000000000E+00 0. -1.
          2    1    1    2  501    0  0.33719679116E+02 -0.83701244309E+02  0.29302559502E+02  0.94876525295E+02  0.00000000000E+00 0. -1.
<scales pt_clust_3="33.54907" pt_clust_4="60.35990" pt_clust_5="14000.00000" pt_clust_6="93.52025"></scales>
<clustering>
<clus scale="   33.549">  2  3  1 -1</clus>
<clus scale="   60.360">  2  4  1 -1</clus>
<clus scale="   93.520">  1  6  2 -1</clus>
<clus scale="   33.549">  2  3  1 -1</clus>
</clustering>
</event>
<event>
 6    0  0.2572175E+002  0.6088873E+02  0.7546771E-02  0.1394140E+00
         21   -1    0    0  503  502  0.00000000000E+00  0.00000000000E+00  0.16093464129E+03  0.16093464129E+03  0.00000000000E+00 0. -1.
          1   -1    0    0  504    0 -0.00000000000E+00 -0.00000000000E+00 -0.22033258453E+04  0.22033258453E+04  0.00000000000E+00 0.  1.
         21    1    1    2  503  505 -0.29223339404E+02 -0.22762844086E+02  0.90345956066E+01  0.38128395646E+02  0.00000000000E+00 0.  1.
         21    1    1    2  504  502  0.68977352708E+02  0.61412951026E+02  0.11607955406E+03  0.14833707767E+03  0.00000000000E+00 0. -1.
         21    1    1    2  505  501  0.13885831370E+02 -0.69990298830E+02 -0.26989451056E+03  0.27916752152E+03  0.00000000000E+00 0. -1.
          1    1    1    2  501    0 -0.53639844675E+02  0.31340191890E+02 -0.18976108431E+04  0.18986274918E+04  0.00000000000E+00 0.  1.
<scales pt_clust_3="37.04255" pt_clust_4="56.82496" pt_clust_5="14000.00000" pt_clust_6="60.88873"></scales>
<clustering>
<clus scale="   37.043">  1  3  2 -1</clus>
<clus scale="   56.825">  1  4  2 -1</clus>
<clus scale="   60.889">  2  6  1 -1</clus>
<clus scale="   37.043">  1  3  2 -1</clus>
</clustering>
</event>
<event>
 6    0  0.2572175E+002  0.8310603E+02  0.7546771E-02  0.1320461E+00
         21   -1    0    0  503  502  0.00000000000E+00  0.00000000000E+00  0.18507782375E+03  0.18507782375E+03  0.00000000000E+00 0.  1.
          2   -1    0    0  505    0 -0.00000000000E+00 -0.00000000000E+00 -0.42260442465E+03  0.42260442465E+03  0.00000000000E+00 0. -1.
         21    1    1    2  503  501  0.59346739563E+02 -0.72175879550E+02  0.10646906374E+03  0.14165823174E+03  0.00000000000E+00 0.  1.
         21    1    1    2  504  502 -0.65194127229E+02  0.26474114136E+02  0.65218695200E+01  0.70666029509E+02  0.00000000000E+00 0.  1.
         21    1    1    2  505  504  0.41667323065E+02  0.29859235885E+02 -0.95440917139E+01  0.52142396048E+02  0.00000000000E+00 0.  1.
          2    1    1    2  501    0 -0.35819935398E+02  0.15842529529E+02 -0.34097344245E+03  0.34321559110E+03  0.00000000000E+00 0. -1.
<scales pt_clust_3="83.10603" pt_clust_4="14000.00000" pt_clust_5="45.51665" pt_clust_6="39.16700"></scales>
<clustering>
<clus scale="   39.167">  2  6  1 -1</clus>
<clus scale="   45.517">  2  5  1 -1</clus>
<clus scale="   83.106">  1  3  2 -1</clus>
<clus scale="   83.106">  1  3  2 -1</clus>
</clustering>
</event>
<event>
 6    0  0.2572175E+002  0.1033635E+03  0.7546771E-02  0.1273378E+00
         -3   -1    0    0    0  501 -0.00000000000E+00  0.00000000000E+00  0.13279672040E+04  0.13279672040E+04  0.00000000000E+00 0. -1.
         21   -1    0    0  503  502  0.00000000000E+00 -0.00000000000E+00 -0.97143711971E+02  0.97143711971E+02  0.00000000000E+00 0. -1.
         21    1    1    2  503  505  0.22417438261E+02 -0.37688694237E+02 -0.17747844039E+02  0.47307136666E+02  0.00000000000E+00 0.  1.
         21    1    1    2  504  502 -0.37473875814E+02  0.98190121075E+02  0.72978948471E+02  0.12795123354E+03  0.00000000000E+00 0. -1.
         21    1    1    2  505  501  0.56468000617E+02 -0.21189532846E+02 -0.11490172945E+02  0.61397520065E+02  0.00000000000E+00 0. -1.
         -3    1    1    2    0  504 -0.41411563064E+02 -0.39311893992E+02  0.11870825606E+04  0.11884550257E+04  0.00000000000E+00 0. -1.
<scales pt_clust_3="30.41451" pt_clust_4="97.01408" pt_clust_5="30.41451" pt_clust_6="57.09941"></scales>
<clustering>
<clus scale="   30.415">  3  5 -1 -1</clus>
<clus scale="   57.099">  1  6  2 -1</clus>
<clus scale="   97.014">  1  4  2 -1</clus>
<clus scale="  103.364">  2  3  1 -1</clus>
</clustering>
</event>
<event>
 6    0  0.2572175E+002  0.1040887E+03  0.7546771E-02  0.1271925E+00
         21   -1    0    0  503  502  0.00000000000E+00  0.00000000000E+00  0.48564790884E+03  0.48564790884E+03  0.00000000000E+00 0.  1.
         -1   -1    0    0    0  501 -0.00000000000E+00 -0.00000000000E+00 -0.40200869599E+03  0.40200869599E+03  0.00000000000E+00 0.  1.
         21    1    1    2  503  501  0.29265646033E+02 -0.52519123492E+02  0.41509117093E+03  0.41942271821E+03  0.00000000000E+00 0.  1.
         21    1    1    2  504  502 -0.26327527634E+01 -0.48025695105E+02  0.32298883442E+02  0.57936315460E+02  0.00000000000E+00 0. -1.
         21    1    1    2  505  504 -0.59818921949E+01  0.14157494807E+03 -0.24582342420E+03  0.28374003038E+03  0.00000000000E+00 0.  1.
         -1    1    1    2    0  505 -0.20651001074E+02 -0.41030129477E+02 -0.11792741732E+03  0.12655754077E+03  0.00000000000E+00 0.  1.
<scales pt_clust_3="104.08875" pt_clust_4="50.03384" pt_clust_5="14000.00000" pt_clust_6="45.93403"></scales>
<clustering>
<clus scale="   45.934">  2  6  1 -1</clus>
<clus scale="   50.034">  1  4  2 -1</clus>
<clus scale="  104.089">  1  3  2 -1</clus>
<clus scale="   50.034">  1  3  2 -1</clus>
</clustering>
</event>
<event>
 6    0  0.2572175E+002  0.6905170E+02  0.7546771E-02  0.1363348E+00
         21   -1    0    0  504  502  0.00000000000E+00  0.00000000000E+00  0.12792182680E+04  0.12792182680E+04  0.00000000000E+00 0. -1.
          2   -1    0    0  505    0 -0.00000000000E+00 -0.00000000000E+00 -0.25795282746E+03  0.25795282746E+03  0.00000000000E+00 0.  1.
         21    1    1    2  503  502  0.17866779086E+02 -0.74765553417E+02  0.39804635476E+03  0.40540104873E+03  0.00000000000E+00 0. -1.
         21    1    1    2  504  501  0.17424149478E+02  0.66288604926E+02  0.84140643516E+03  0.84419344303E+03  0.00000000000E+00 0. -1.
         21    1    1    2  505  503 -0.62372369609E+02  0.41403829391E+02 -0.10545125833E+02  0.75602838953E+02  0.00000000000E+00 0. -1.
          2    1    1    2  501    0  0.27081441046E+02 -0.32926880899E+02 -0.20764222355E+03  0.21197376474E+03  0.00000000000E+00 0.  1.
<scales pt_clust_3="14000.00000" pt_clust_4="69.05170" pt_clust_5="39.96989" pt_clust_6="42.63313"></scales>
<clustering>
<clus scale="   42.633">  2  6  1 -1</clus>
<clus scale="   39.970">  2  5  1 -1</clus>
<clus scale="   69.052">  1  4  2 -1</clus>
<clus scale="   69.052">  1  3  2 -1</clus>
</clustering>
</event>
<event>
 6    0  0.2572175E+002  0.1442533E+03  0.7546771E-02  0.1207718E+00
         21   -1    0    0  505  502  0.00000000000E+00  0.00000000000E+00  0.53764351610E+03  0.53764351610E+03  0.00000000000E+00 0. -1.
          2   -1    0    0  504    0 -0.00000000000E+00 -0.00000000000E+00 -0.14726585133E+04  0.14726585133E+04  0.00000000000E+00 0.  1.
         21    1    1    2  503  501 -0.65182393507E+02 -0.10567569494E+02  0.25181415148E+03  0.26032822520E+03  0.00000000000E+00 0. -1.
         21    1    1    2  504  502  0.15201366623E+03 -0.21644239489E+02  0.15523218919E+03  0.21834298794E+03  0.00000000000E+00 0. -1.
         21    1    1    2  505  503 -0.58618316736E+02  0.20417796293E+01  0.85383371331E+02  0.10358859021E+03  0.00000000000E+00 0. -1.
          2    1    1    2  501    0 -0.28212955983E+02  0.30170029354E+02 -0.14274447092E+04  0.14280422261E+04  0.00000000000E+00 0.  1.
<scales pt_clust_3="56.26676" pt_clust_4="132.19320" pt_clust_5="56.26676" pt_clust_6="41.30619"></scales>
<clustering>
<clus scale="   41.306">  2  6  1 -1</clus>
<clus scale="   56.267">  3  5 -1 -1</clus>
<clus scale="  132.193">  2  4  1 -1</clus>
<clus scale="  144.253">  1  3  2 -1</clus>
</clustering>
</event>
<event>
 6    0  0.2572175E+002  0.2406788E+03  0.7546771E-02  0.1119341E+00
          2   -1    0    0  503    0 -0.00000000000E+00  0.00000000000E+00  0.31872763755E+04  0.31872763755E+04  0.00000000000E+00 0.  1.
         21   -1    0    0  504  502  0.00000000000E+00 -0.00000000000E+00 -0.37493211076E+02  0.37493211076E+02  0.00000000000E+00 0.  1.
         21    1    1    2  503  502 -0.46229353607E+02  0.21308808691E+03  0.37516787246E+03  0.43392927816E+03  0.00000000000E+00 0.  1.
         21    1    1    2  504  505  0.29914337800E+02  0.53758317474E+01  0.81945724142E+02  0.87400622870E+02  0.00000000000E+00 0. -1.
         21    1    1    2  505  501  0.56307090624E+02 -0.16065411827E+03  0.18206572460E+04  0.18285986552E+04  0.00000000000E+00 0.  1.
          2    1    1    2  501    0 -0.39992074816E+02 -0.57809800393E+02  0.87201232177E+03  0.87484103035E+03  0.00000000000E+00 0.  1.
<scales pt_clust_3="218.63713" pt_clust_4="30.39354" pt_clust_5="64.14670" pt_clust_6="64.14670"></scales>
<clustering>
<clus scale="   30.394">  2  4  1 -1</clus>
<clus scale="   64.147">  5  6 -1 -1</clus>
<clus scale="  218.637">  2  3  1 -1</clus>
<clus scale="   30.394">  2  3  1 -1</clus>
</clustering>
</event>
<event>
 6    0  0.2572175E+002  0.7056517E+02  0.7546771E-02  0.1358182E+00
          2   -1    0    0  504    0 -0.00000000000E+00  0.00000000000E+00  0.95705312834E+03  0.95705312834E+03  0.00000000000E+00 0. -1.
         21   -1    0    0  501  502  0.00000000000E+00 -0.00000000000E+00 -0.62546199360E+02  0.62546199360E+02  0.00000000000E+00 0.  1.
         21    1    1    2  503  502  0.29254771376E+02 -0.11635770243E+02 -0.26754681918E+02  0.41316410807E+02  0.00000000000E+00 0.  1.
         21    1    1    2  504  505 -0.10843300050E+03 -0.24194817764E+02  0.17403115652E+03  0.20647021152E+03  0.00000000000E+00 0. -1.
         21    1    1    2  505  503  0.35583392504E+02 -0.17075789144E+02  0.25845784539E+02  0.47178013686E+02  0.00000000000E+00 0.  1.
          2    1    1    2  501    0  0.43594836618E+02  0.52906377151E+02  0.72138466984E+03  0.72463469169E+03  0.00000000000E+00 0. -1.
<scales pt_clust_3="31.48385" pt_clust_4="70.56517" pt_clust_5="51.22538" pt_clust_6="14000.00000"></scales>
<clustering>
<clus scale="   31.484">  2  3  1 -1</clus>
<clus scale="   51.225">  2  5  1 -1</clus>
<clus scale="   70.565">  2  4  1 -1</clus>
<clus scale="   31.484">  2  3  1 -1</clus>
</clustering>
</event>
<event>
 6    0  0.2572175E+002  0.1789722E+03  0.7546771E-02  0.1168802E+00
         21   -1    0    0  501  502  0.00000000000E+00  0.00000000000E+00  0.98671950583E+02  0.98671950583E+02  0.00000000000E+00 0.  1.
          1   -1    0    0  503    0 -0.00000000000E+00 -0.00000000000E+00 -0.11871385390E+04  0.11871385390E+04  0.00000000000E+00 0.  1.
         21    1    1    2  503  504 -0.75303825908E+02  0.20987732834E+03 -0.38524523923E+03  0.44512139186E+03  0.00000000000E+00 0.  1.
         21    1    1    2  504  505  0.21885488231E+02 -0.95494749462E+02 -0.20117636707E+02  0.10001470430E+03  0.00000000000E+00 0.  1.
         21    1    1    2  505  502  0.54460576844E+02 -0.42215886026E+02 -0.17400041018E+02  0.71069662237E+02  0.00000000000E+00 0. -1.
          1    1    1    2  501    0 -0.10422391682E+01 -0.72166692848E+02 -0.66570367147E+03  0.66960473118E+03  0.00000000000E+00 0.  1.
<scales pt_clust_3="170.18134" pt_clust_4="46.46285" pt_clust_5="46.46285" pt_clust_6="72.17422"></scales>
<clustering>
<clus scale="   46.463">  4  5 -1 -1</clus>
<clus scale="   72.174">  2  6  1 -1</clus>
<clus scale="  170.181">  2  3  1 -1</clus>
<clus scale="  178.972">  1  3  2 -1</clus>
</clustering>
</event>
<event>
 6    0  0.3152110E+002  0.1078887E+03  0.7546771E-02  0.1264530E+00
          2   -1    0    0  505    0 -0.00000000000E+00  0.00000000000E+00  0.20868616005E+04  0.20868616005E+04  0.00000000000E+00 0. -1.
         21   -1    0    0  503  502  0.00000000000E+00 -0.00000000000E+00 -0.82593431592E+03  0.82593431592E+03  0.00000000000E+00 0. -1.
         21    1    1    2  503  504 -0.44011968162E+01 -0.61722064914E+02 -0.14995215757E+03  0.16221785781E+03  0.00000000000E+00 0.  1.
         21    1    1    2  504  501  0.33590262242E+02 -0.81527136200E+02 -0.10829081395E+03  0.13964913190E+03  0.00000000000E+00 0.  1.
         21    1    1    2  505  502  0.42756092502E+00  0.84877046643E+02 -0.54205727554E+03  0.54866236049E+03  0.00000000000E+00 0. -1.
          2    1    1    2  501    0 -0.29616626351E+02  0.58372154472E+02  0.20612275316E+04  0.20622665662E+04  0.00000000000E+00 0. -1.
<scales pt_clust_3="46.35456" pt_clust_4="46.35456" pt_clust_5="92.61785" pt_clust_6="65.45573"></scales>
<clustering>
<clus scale="   46.355">  3  4 -1 -1</clus>
<clus scale="   65.456">  1  6  2 -1</clus>
<clus scale="   92.618">  2  5  1 -1</clus>
<clus scale="   92.618">  2  3  1 -1</clus>
</clustering>
</event>
<event>
 6    0  0.2572175E+002  0.2631084E+03  0.7546771E-02  0.1105290E+00
         21   -1    0    0  501  502  0.00000000000E+00  0.00000000000E+00  0.25464313651E+03  0.25464313651E+03  0.00000000000E+00 0.  1.
          1   -1    0    0  503    0 -0.00000000000E+00 -0.00000000000E+00 -0.20745024421E+04  0.20745024421E+04  0.00000000000E+00 0.  1.
         21    1    1    2  503  505  0.65037840703E+02  0.93770146212E+02 -0.54454596227E+02  0.12644391679E+03  0.00000000000E+00 0.  1.
         21    1    1    2  504  502  0.65163806388E+02  0.66736018666E+02  0.15912407120E+03  0.18444643636E+03  0.00000000000E+00 0.  1.
         21    1    1    2  505  504  0.13992383976E+02  0.62092521324E+02  0.11040100488E+02  0.64599936784E+02  0.00000000000E+00 0.  1.
          1    1    1    2  501    0 -0.14419403107E+03 -0.22259868620E+03 -0.19355688811E+04  0.19536552887E+04  0.00000000000E+00 0.  1.
<scales pt_clust_3="47.66854" pt_clust_4="93.27389" pt_clust_5="47.66854" pt_clust_6="255.24897"></scales>
<clustering>
<clus scale="   47.669">  3  5 -1 -1</clus>
<clus scale="   93.274">  1  4  2 -1</clus>
<clus scale="  255.249">  2  6  1 -1</clus>
<clus scale="   93.274">  1  3  2 -1</clus>
</clustering>
</event>
<event>
 6    0  0.2572175E+002  0.2965652E+03  0.7546771E-02  0.1086970E+00
         21   -1    0    0  504  502  0.00000000000E+00  0.00000000000E+00  0.15595828489E+03  0.15595828489E+03  0.00000000000E+00 0. -1.
          2   -1    0    0  505    0 -0.00000000000E+00 -0.00000000000E+00 -0.93292386438E+03  0.93292386438E+03  0.00000000000E+00 0. -1.
         21    1    1    2  503  502 -0.15718761084E+03  0.14126175772E+03 -0.73223496956E+02  0.22366159640E+03  0.00000000000E+00 0. -1.
         21    1    1    2  504  501  0.11276462306E+03 -0.23759144340E+03 -0.31900596214E+03  0.41343724804E+03  0.00000000000E+00 0. -1.
         21    1    1    2  505  503  0.20113160910E+00  0.92097927127E+02 -0.33889559543E+02  0.98135472083E+02  0.00000000000E+00 0. -1.
          2    1    1    2  501    0  0.44221856176E+02  0.42317585496E+01 -0.35084656085E+03  0.35364783275E+03  0.00000000000E+00 0. -1.
<scales pt_clust_3="76.84064" pt_clust_4="273.81069" pt_clust_5="76.84064" pt_clust_6="44.42387"></scales>
<clustering>
<clus scale="   44.424">  2  6  1 -1</clus>
<clus scale="   76.841">  3  5 -1 -1</clus>
<clus scale="  273.811">  2  4  1 -1</clus>
<clus scale="  296.565">  1  3  2 -1</clus>
</clustering>
</event>
<event>
 6    0  0.2572175E+002  0.1265140E+03  0.7546771E-02  0.1232722E+00
          1   -1    0    0  505    0 -0.00000000000E+00  0.00000000000E+00  0.22279928101E+04  0.22279928101E+04  0.00000000000E+00 0.  1.
         21   -1    0    0  504  502  0.00000000000E+00 -0.00000000000E+00 -0.43304211272E+03  0.43304211272E+03  0.00000000000E+00 0.  1.
         21    1    1    2  503  501  0.11882926632E+03  0.57884753415E+01  0.93034742730E+02  0.15102769394E+03  0.00000000000E+00 0. -1.
         21    1    1    2  504  503 -0.19252619448E+03 -0.29243338410E+02 -0.12087205853E+03  0.22919765037E+03  0.00000000000E+00 0. -1.
         21    1    1    2  505  502  0.83520693308E+02  0.84166729059E+02 -0.21316690633E+03  0.24392596099E+03  0.00000000000E+00 0.  1.
          1    1    1    2  501    0 -0.98237651491E+01 -0.60711865990E+02  0.20359549195E+04  0.20368836175E+04  0.00000000000E+00 0.  1.
<scales pt_clust_3="14000.00000" pt_clust_4="126.51398" pt_clust_5="114.59466" pt_clust_6="61.50152"></scales>
<clustering>
<clus scale="   61.502">  1  6  2 -1</clus>
<clus scale="  114.595">  2  5  1 -1</clus>
<clus scale="  126.514">  2  4  1 -1</clus>
<clus scale="  114.595">  2  3  1 -1</clus>
</clustering>
</event>
<event>
 6    0  0.2572175E+002  0.7848987E+02  0.7546771E-02  0.1333392E+00
         21   -1    0    0  501  502  0.00000000000E+00  0.00000000000E+00  0.12627250303E+03  0.12627250303E+03  0.00000000000E+00 0.  1.
          2   -1    0    0  503    0 -0.00000000000E+00 -0.00000000000E+00 -0.13693375056E+04  0.13693375056E+04  0.00000000000E+00 0. -1.
         21    1    1    2  503  505 -0.10082920459E+02 -0.63447633576E+02 -0.96494089179E+02  0.11592401277E+03  0.00000000000E+00 0. -1.
         21    1    1    2  504  502  0.16049346115E+02  0.78013234446E+02  0.97569117888E+02  0.12594990681E+03  0.00000000000E+00 0.  1.
         21    1    1    2  505  504  0.58255816336E+02 -0.28299735303E+02 -0.28132727290E+03  0.28868607454E+03  0.00000000000E+00 0.  1.
          2    1    1    2  501    0 -0.64222241993E+02  0.13734134433E+02 -0.96281275840E+03  0.96505001453E+03  0.00000000000E+00 0. -1.
<scales pt_clust_3="64.24381" pt_clust_4="14000.00000" pt_clust_5="70.35587" pt_clust_6="78.48987"></scales>
<clustering>
<clus scale="   64.244">  2  3  1 -1</clus>
<clus scale="   70.356">  2  5  1 -1</clus>
<clus scale="   78.490">  2  6  1 -1</clus>
<clus scale="   78.490">  1  3  2 -1</clus>
</clustering>
</event>
<event>
 6    0  0.2572175E+002  0.9511610E+02  0.7546771E-02  0.1290915E+00
         21   -1    0    0  505  502  0.00000000000E+00  0.00000000000E+00  0.15809942813E+04  0.15809942813E+04  0.00000000000E+00 0. -1.
         -3   -1    0    0    0  501 -0.00000000000E+00 -0.00000000000E+00 -0.54048795404E+02  0.54048795404E+02  0.00000000000E+00 0.  1.
         21    1    1    2  503  501  0.90756295128E+02  0.49089295962E+02  0.50514617175E+03  0.51557649182E+03  0.00000000000E+00 0.  1.
         21    1    1    2  504  502 -0.92831137409E+02 -0.66667045153E+02  0.26125683693E+03  0.28516179587E+03  0.00000000000E+00 0. -1.
         21    1    1    2  505  503 -0.74285856839E+01 -0.46546262102E+02  0.76764652966E+03  0.76909227853E+03  0.00000000000E+00 0. -1.
         -3    1    1    2    0  504  0.95034279650E+01  0.64124011293E+02 -0.71040524070E+01  0.65212510517E+02  0.00000000000E+00 0.  1.
<scales pt_clust_3="95.11610" pt_clust_4="14000.00000" pt_clust_5="47.13532" pt_clust_6="63.13926"></scales>
<clustering>
<clus scale="   47.135">  1  5  2 -1</clus>
<clus scale="   63.139">  2  6  1 -1</clus>
<clus scale="   95.116">  1  3  2 -1</clus>
<clus scale="   47.135">  1  3  2 -1</clus>
</clustering>
</event>
<event>
 6    0  0.2572175E+002  0.1304872E+03  0.7546771E-02  0.1226735E+00
         21   -1    0    0  501  502  0.00000000000E+00  0.00000000000E+00  0.84572220242E+02  0.84572220242E+02  0.00000000000E+00 0.  1.
          2   -1    0    0  504    0 -0.00000000000E+00 -0.00000000000E+00 -0.23705104994E+04  0.23705104994E+04  0.00000000000E+00 0. -1.
         21    1    1    2  503  505  0.41783605198E+02  0.29657448325E+02 -0.32233988352E+02  0.60534815682E+02  0.00000000000E+00 0.  1.
         21    1    1    2  504  503  0.31804119883E+02  0.21547142442E+02 -0.83682257383E+02  0.92078779258E+02  0.00000000000E+00 0.  1.
         21    1    1    2  505  502  0.54589691575E+02 -0.49445052084E+02  0.43299672274E+02  0.85438335780E+02  0.00000000000E+00 0.  1.
          2    1    1    2  501    0 -0.12817741666E+03 -0.17595386834E+01 -0.22133217057E+04  0.22170307890E+04  0.00000000000E+00 0. -1.
<scales pt_clust_3="36.91178" pt_clust_4="36.91178" pt_clust_5="73.65356" pt_clust_6="123.32732"></scales>
<clustering>
<clus scale="   36.912">  3  4 -1 -1</clus>
<clus scale="   73.654">  1  5  2 -1</clus>
<clus scale="  123.327">  2  6  1 -1</clus>
<clus scale="   73.654">  1  3  2 -1</clus>
</clustering>
</event>
<event>
 6    0  0.2572175E+002  0.1122196E+03  0.7546771E-02  0.1256514E+00
         21   -1    0    0  504  502  0.00000000000E+00  0.00000000000E+00  0.45212444082E+03  0.45212444082E+03  0.00000000000E+00 0.  1.
          2   -1    0    0  503    0 -0.00000000000E+00 -0.00000000000E+00 -0.19396739126E+04  0.19396739126E+04  0.00000000000E+00 0.  1.
         21    1    1    2  503  505 -0.78154934325E+02 -0.62682459428E+02 -0.43410855385E+03  0.44551938342E+03  0.00000000000E+00 0.  1.
         21    1    1    2  504  501  0.71634231674E+02  0.44095903845E+02  0.37914144894E+03  0.38836085048E+03  0.00000000000E+00 0.  1.
         21    1    1    2  505  502  0.41246608802E+02 -0.28293461780E+02  0.52022454521E+02  0.72167433733E+02  0.00000000000E+00 0.  1.
          2    1    1    2  501    0 -0.34725906151E+02  0.46880017364E+02 -0.14846048214E+04  0.14857506858E+04  0.00000000000E+00 0.  1.
<scales pt_clust_3="14000.00000" pt_clust_4="112.21959" pt_clust_5="50.01802" pt_clust_6="58.27113"></scales>
<clustering>
<clus scale="   50.018">  1  5  2 -1</clus>
<clus scale="   58.271">  2  6  1 -1</clus>
<clus scale="  112.220">  1  4  2 -1</clus>
<clus scale="   50.018">  1  3  2 -1</clus>
</clustering>
</event>
<event>
 6    0  0.2572175E+002  0.1153443E+03  0.7546771E-02  0.1250981E+00
         21   -1    0    0  503  502  0.00000000000E+00  0.00000000000E+00  0.60979896134E+02  0.60979896134E+02  0.00000000000E+00 0.  1.
          2   -1    0    0  504    0 -0.00000000000E+00 -0.00000000000E+00 -0.10047194677E+04  0.10047194677E+04  0.00000000000E+00 0. -1.
         21    1    1    2  503  501 -0.81516326494E+02 -0.97507913599E+02 -0.22203469068E+02  0.12901821088E+03  0.00000000000E+00 0.  1.
         21    1    1    2  504  505  0.35043417065E+02  0.11906196230E+02 -0.35703616210E+03  0.35894932739E+03  0.00000000000E+00 0. -1.
         21    1    1    2  505  502  0.38856461001E+02  0.32086469730E+02 -0.12281087469E+03  0.13274741822E+03  0.00000000000E+00 0.  1.
          2    1    1    2  501    0  0.76164484277E+01  0.53515247639E+02 -0.44168906571E+03  0.44498440735E+03  0.00000000000E+00 0. -1.
<scales pt_clust_3="115.34431" pt_clust_4="37.01079" pt_clust_5="57.28761" pt_clust_6="14000.00000"></scales>
<clustering>
<clus scale="   37.011">  2  4  1 -1</clus>
<clus scale="   57.288">  2  5  1 -1</clus>
<clus scale="  115.344">  1  3  2 -1</clus>
<clus scale="  115.344">  1  3  2 -1</clus>
</clustering>
</event>
<event>
 6    0  0.2572175E+002  0.1717864E+03  0.7546771E-02  0.1175998E+00
          2   -1    0    0  504    0 -0.00000000000E+00  0.00000000000E+00  0.26111476131E+04  0.26111476131E+04  0.00000000000E+00 0. -1.
         21   -1    0    0  503  502  0.00000000000E+00 -0.00000000000E+00 -0.15679880468E+03  0.15679880468E+03  0.00000000000E+00 0.  1.
         21    1    1    2  503  501 -0.15698653345E+03  0.51947749446E+02 -0.10588158779E+03  0.19635236436E+03  0.00000000000E+00 0.  1.
         21    1    1    2  504  505  0.76549168564E+02  0.87298330211E+01  0.49606740983E+03  0.50201480087E+03  0.00000000000E+00 0.  1.
         21    1    1    2  505  502  0.46165717355E+02 -0.37906345376E+02  0.36019280780E+03  0.36511234335E+03  0.00000000000E+00 0. -1.
          2    1    1    2  501    0  0.34271647530E+02 -0.22771237092E+02  0.17039701786E+04  0.17044669092E+04  0.00000000000E+00 0. -1.
<scales pt_clust_3="163.37947" pt_clust_4="47.39579" pt_clust_5="47.39579" pt_clust_6="41.14699"></scales>
<clustering>
<clus scale="   41.147">  1  6  2 -1</clus>
<clus scale="   47.396">  4  5 -1 -1</clus>
<clus scale="  163.379">  2  3  1 -1</clus>
<clus scale="  163.379">  2  3  1 -1</clus>
</clustering>
</event>
<event>
 6    0  0.2572175E+002  0.1031342E+03  0.7546771E-02  0.1273840E+00
         21   -1    0    0  503  502  0.00000000000E+00  0.00000000000E+00  0.15230667621E+04  0.15230667621E+04  0.00000000000E+00 0. -1.
         -1   -1    0    0    0  501 -0.00000000000E+00 -0.00000000000E+00 -0.15077576760E+03  0.15077576760E+03  0.00000000000E+00 0. -1.
         21    1    1    2  503  504 -0.22314389284E+02  0.10060994319E+03  0.77253091905E+03  0.77937430899E+03  0.00000000000E+00 0. -1.
         21    1    1    2  504  501 -0.40378069159E+02  0.46758379777E+02  0.35043394293E+02  0.71026572718E+02  0.00000000000E+00 0. -1.
         21    1    1    2  505  502  0.61407263991E+02 -0.88384890789E+02  0.68291182079E+03  0.69134021724E+03  0.00000000000E+00 0. -1.
         -1    1    1    2    0  505  0.12851944520E+01 -0.58983432183E+02 -0.11819513959E+03  0.13210143080E+03  0.00000000000E+00 0. -1.
<scales pt_clust_3="14000.00000" pt_clust_4="39.83662" pt_clust_5="103.13420" pt_clust_6="58.99743"></scales>
<clustering>
<clus scale="   58.997">  2  6  1 -1</clus>
<clus scale="   39.837">  2  4  1 -1</clus>
<clus scale="  103.134">  2  5  1 -1</clus>
<clus scale="  103.134">  1  3  2 -1</clus>
</clustering>
</event>
<event>
 6    0  0.2572175E+002  0.1230325E+03  0.7546771E-02  0.1238177E+00
         -1   -1    0    0    0  501 -0.00000000000E+00  0.00000000000E+00  0.14655990000E+03  0.14655990000E+03  0.00000000000E+00 0. -1.
         21   -1    0    0  504  502  0.00000000000E+00 -0.00000000000E+00 -0.38706278463E+03  0.38706278463E+03  0.00000000000E+00 0. -1.
         21    1    1    2  503  505  0.82090643755E+02  0.13032765248E+02 -0.35988006385E+02  0.90575180738E+02  0.00000000000E+00 0. -1.
         21    1    1    2  504  503 -0.14287387657E+03 -0.49022212849E+02 -0.28572333666E+03  0.32319335865E+03  0.00000000000E+00 0. -1.
         21    1    1    2  505  501  0.12865778982E+02  0.29879473463E+02  0.10429951617E+02  0.34162773511E+02  0.00000000000E+00 0. -1.
         -1    1    1    2    0  502  0.47917453834E+02  0.61099741378E+01  0.70778506803E+02  0.85691371743E+02  0.00000000000E+00 0. -1.
<scales pt_clust_3="123.03255" pt_clust_4="14000.00000" pt_clust_5="32.53170" pt_clust_6="61.31122"></scales>
<clustering>
<clus scale="   32.532">  1  5  2 -1</clus>
<clus scale="   61.311">  1  6  2 -1</clus>
<clus scale="  123.033">  1  3  2 -1</clus>
<clus scale="  123.033">  2  3  1 -1</clus>
</clustering>
</event>
<event>
 6    0  0.2572175E+002  0.1188128E+03  0.7546771E-02  0.1245068E+00
          2   -1    0    0  503    0 -0.00000000000E+00  0.00000000000E+00  0.91004398802E+03  0.91004398802E+03  0.00000000000E+00 0. -1.
         21   -1    0    0  505  502  0.00000000000E+00 -0.00000000000E+00 -0.13395431959E+04  0.13395431959E+04  0.00000000000E+00 0.  1.
         21    1    1    2  503  504  0.13086761810E+03 -0.13114011158E+02 -0.26910325133E+02  0.13424781695E+03  0.00000000000E+00 0.  1.
         21    1    1    2  504  502 -0.44852502368E+02 -0.28823982941E+02 -0.29887836022E+03  0.30359651377E+03  0.00000000000E+00 0.  1.
         21    1    1    2  505  501 -0.74419503322E+02  0.18102308276E+01 -0.95576778049E+03  0.95866239607E+03  0.00000000000E+00 0.  1.
          2    1    1    2  501    0 -0.11595612415E+02  0.40127763271E+02  0.85205725793E+03  0.85308045717E+03  0.00000000000E+00 0. -1.
<scales pt_clust_3="118.81280" pt_clust_4="52.85124" pt_clust_5="14000.00000" pt_clust_6="41.76955"></scales>
<clustering>
<clus scale="   41.770">  1  6  2 -1</clus>
<clus scale="   52.851">  2  4  1 -1</clus>
<clus scale="  118.813">  1  3  2 -1</clus>
<clus scale="   52.851">  2  3  1 -1</clus>
</clustering>
</event>
<event>
 6    0  0.2572175E+002  0.1150045E+03  0.7546771E-02  0.1251573E+00
         21   -1    0    0  505  502  0.00000000000E+00  0.00000000000E+00  0.14236654971E+04  0.14236654971E+04  0.00000000000E+00 0.  1.
          2   -1    0    0  504    0 -0.00000000000E+00 -0.00000000000E+00 -0.82607872764E+03  0.82607872764E+03  0.00000000000E+00 0. -1.
         21    1    1    2  503  502  0.12521493244E+03 -0.69219312971E+02  0.11419357231E+04  0.11508637140E+04  0.00000000000E+00 0.  1.
         21    1    1    2  504  503 -0.78889036704E+02  0.14587489323E+02  0.26233763627E+03  0.27433065881E+03  0.00000000000E+00 0. -1.
         21    1    1    2  505  501 -0.39145591259E+01  0.50491850622E+02 -0.68777257702E+02  0.85411134692E+02  0.00000000000E+00 0.  1.
          2    1    1    2  501    0 -0.42411336607E+02  0.41399730255E+01 -0.73790933216E+03  0.73913871725E+03  0.00000000000E+00 0. -1.
<scales pt_clust_3="115.00455" pt_clust_4="14000.00000" pt_clust_5="68.06709" pt_clust_6="42.61292"></scales>
<clustering>
<clus scale="   42.613">  2  6  1 -1</clus>
<clus scale="   68.067">  2  5  1 -1</clus>
<clus scale="  115.005">  1  3  2 -1</clus>
<clus scale="  115.005">  1  3  2 -1</clus>
</clustering>
</event>
<event>
 6    0  0.2572175E+002  0.1214505E+03  0.7546771E-02  0.1240723E+00
          2   -1    0    0  504    0 -0.00000000000E+00  0.00000000000E+00  0.22595271806E+04  0.22595271806E+04  0.00000000000E+00 0. -1.
         21   -1    0    0  503  502  0.00000000000E+00 -0.00000000000E+00 -0.80730237571E+03  0.80730237571E+03  0.00000000000E+00 0.  1.
         21    1    1    2  503  501 -0.83732959979E+01  0.67787951222E+02  0.28508027960E+03  0.29314857024E+03  0.00000000000E+00 0.  1.
         21    1    1    2  504  505 -0.15530312613E+02 -0.85797973841E+02 -0.24787105949E+03  0.26275948139E+03  0.00000000000E+00 0. -1.
         21    1    1    2  505  502 -0.15414128113E+02 -0.36013229251E+02 -0.54668332461E+03  0.54808503486E+03  0.00000000000E+00 0.  1.
          2    1    1    2  501    0  0.39317736724E+02  0.54023251870E+02  0.19616989094E+04  0.19628364698E+04  0.00000000000E+00 0. -1.
<scales pt_clust_3="121.45052" pt_clust_4="14000.00000" pt_clust_5="39.17331" pt_clust_6="66.73257"></scales>
<clustering>
<clus scale="   39.173">  2  5  1 -1</clus>
<clus scale="   66.733">  1  6  2 -1</clus>
<clus scale="  121.451">  1  3  2 -1</clus>
<clus scale="   39.173">  2  3  1 -1</clus>
</clustering>
</event>
<event>
 6    0  0.2572175E+002  0.1720477E+03  0.7546771E-02  0.1175729E+00
         21   -1    0    0  501  502  0.00000000000E+00  0.00000000000E+00  0.13618654372E+04  0.13618654372E+04  0.00000000000E+00 0. -1.
          2   -1    0    0  505    0 -0.00000000000E+00 -0.00000000000E+00 -0.76915071583E+03  0.76915071583E+03  0.00000000000E+00 0. -1.
         21    1    1    2  503  502 -0.26337448399E+02 -0.49548472755E+02  0.69395006344E+03  0.69621505506E+03  0.00000000000E+00 0. -1.
         21    1    1    2  504  503 -0.97921382144E+02 -0.43356340512E+02  0.65112088205E+03  0.65986875391E+03  0.00000000000E+00 0. -1.
         21    1    1    2  505  504  0.97177030943E+02  0.37841613460E+02 -0.62409869836E+03  0.63275156922E+03  0.00000000000E+00 0.  1.
          2    1    1    2  501    0  0.27081799599E+02  0.55063199806E+02 -0.12825752571E+03  0.14218077488E+03  0.00000000000E+00 0. -1.
<scales pt_clust_3="54.53492" pt_clust_4="54.53492" pt_clust_5="154.67551" pt_clust_6="61.36269"></scales>
<clustering>
<clus scale="   54.535">  3  4 -1 -1</clus>
<clus scale="   61.363">  2  6  1 -1</clus>
<clus scale="  154.676">  2  5  1 -1</clus>
<clus scale="  172.048">  1  3  2 -1</clus>
</clustering>
</event>
<event>
 6    0  0.2572175E+002  0.1931157E+03  0.7546771E-02  0.1155681E+00
         -2   -1    0    0    0  501 -0.00000000000E+00  0.00000000000E+00  0.96654625810E+03  0.96654625810E+03  0.00000000000E+00 0.  1.
         21   -1    0    0  503  502  0.00000000000E+00 -0.00000000000E+00 -0.39920913174E+03  0.39920913174E+03  0.00000000000E+00 0. -1.
         21    1    1    2  503  501  0.38454511425E+02  0.10874394294E+03 -0.31615432069E+03  0.33653758938E+03  0.00000000000E+00 0. -1.
         21    1    1    2  504  502  0.91436389475E+02 -0.74788846130E+02  0.10009852206E+03  0.15483442429E+03  0.00000000000E+00 0. -1.
         21    1    1    2  505  504  0.53457762678E+02 -0.50136434717E+02  0.38342155920E+01  0.73390024430E+02  0.00000000000E+00 0. -1.
         -2    1    1    2    0  505 -0.18334866358E+03  0.16181337912E+02  0.77955870940E+03  0.80099335174E+03  0.00000000000E+00 0.  1.
<scales pt_clust_3="115.34294" pt_clust_4="53.90683" pt_clust_5="53.90683" pt_clust_6="180.58218"></scales>
<clustering>
<clus scale="   53.907">  4  5 -1 -1</clus>
<clus scale="  115.343">  2  3  1 -1</clus>
<clus scale="  180.582">  1  6  2 -1</clus>
<clus scale="  115.343">  2  3  1 -1</clus>
</clustering>
</event>
<event>
 6    0  0.2572175E+002  0.1991274E+03  0.7546771E-02  0.1150477E+00
         21   -1    0    0  504  502  0.00000000000E+00  0.00000000000E+00  0.62623360173E+03  0.62623360173E+03  0.00000000000E+00 0.  1.
          1   -1    0    0  503    0 -0.00000000000E+00 -0.00000000000E+00 -0.46746354905E+03  0.46746354905E+03  0.00000000000E+00 0.  1.
         21    1    1    2  503  505  0.39379998778E+02 -0.24251736539E+02 -0.59978041690E+01  0.46635873357E+02  0.00000000000E+00 0. -1.
         21    1    1    2  504  501  0.97836363750E+02  0.16805433613E+03  0.47796494291E+03  0.51600843076E+03  0.00000000000E+00 0.  1.
         21    1    1    2  505  502  0.52261278383E+02 -0.74970830066E+02  0.58287465024E+02  0.10839416570E+03  0.00000000000E+00 0. -1.
          1    1    1    2  501    0 -0.18947764091E+03 -0.68831769526E+02 -0.37148455108E+03  0.42265868096E+03  0.00000000000E+00 0.  1.
<scales pt_clust_3="39.33157" pt_clust_4="14000.00000" pt_clust_5="145.94555" pt_clust_6="199.12743"></scales>
<clustering>
<clus scale="   39.332">  3  5 -1 -1</clus>
<clus scale="  145.946">  1  3  2 -1</clus>
<clus scale="  199.127">  2  6  1 -1</clus>
<clus scale="  145.946">  1  3  2 -1</clus>
</clustering>
</event>
<event>
 6    0  0.2572175E+002  0.1004826E+03  0.7546771E-02  0.1279284E+00
         21   -1    0    0  501  502  0.00000000000E+00  0.00000000000E+00  0.93494348741E+02  0.93494348741E+02  0.00000000000E+00 0.  1.
          2   -1    0    0  505    0 -0.00000000000E+00 -0.00000000000E+00 -0.12269048191E+04  0.12269048191E+04  0.00000000000E+00 0.  1.
         21    1    1    2  503  502 -0.28196146892E+02  0.13754846818E+02  0.19534055724E+02  0.36956702282E+02  0.00000000000E+00 0.  1.
         21    1    1    2  504  503  0.23947207351E+02  0.41562378738E+02  0.34075256228E+02  0.58838959485E+02  0.00000000000E+00 0.  1.
         21    1    1    2  505  504  0.10019667813E+03 -0.75924685374E+02 -0.22621072204E+03  0.25879571659E+03  0.00000000000E+00 0.  1.
          2    1    1    2  501    0 -0.95947738587E+02  0.20607459818E+02 -0.96080906028E+03  0.96580778950E+03  0.00000000000E+00 0.  1.
<scales pt_clust_3="31.37226" pt_clust_4="51.50153" pt_clust_5="14000.00000" pt_clust_6="100.48264"></scales>
<clustering>
<clus scale="   31.372">  1  3  2 -1</clus>
<clus scale="   51.502">  1  4  2 -1</clus>
<clus scale="  100.483">  2  6  1 -1</clus>
<clus scale="   31.372">  1  3  2 -1</clus>
</clustering>
</event>
<event>
 6    0  0.2572175E+002  0.3863054E+03  0.7546771E-02  0.1048628E+00
         21   -1    0    0  501  502  0.00000000000E+00  0.00000000000E+00  0.38658396346E+03  0.38658396346E+03  0.00000000000E+00 0. -1.
          2   -1    0    0  503    0 -0.00000000000E+00 -0.00000000000E+00 -0.33453551626E+04  0.33453551626E+04  0.00000000000E+00 0. -1.
         21    1    1    2  503  505  0.16483709964E+03  0.21573110120E+03 -0.92612704935E+03  0.96510232047E+03  0.00000000000E+00 0.  1.
         21    1    1    2  504  502 -0.49520599067E+02 -0.13489689140E+03  0.13144542703E+03  0.19474948351E+03  0.00000000000E+00 0. -1.
         21    1    1    2  505  504 -0.60849234937E+02 -0.24385874372E+03  0.12211455822E+03  0.27943099615E+03  0.00000000000E+00 0. -1.
          2    1    1    2  501    0 -0.54467265636E+02  0.16302453391E+03 -0.22862041351E+04  0.22926563259E+04  0.00000000000E+00 0. -1.
<scales pt_clust_3="379.88780" pt_clust_4="53.02196" pt_clust_5="53.02196" pt_clust_6="171.88276"></scales>
<clustering>
<clus scale="   53.022">  4  5 -1 -1</clus>
<clus scale="  171.883">  2  6  1 -1</clus>
<clus scale="  379.888">  2  3  1 -1</clus>
<clus scale="  386.305">  1  3  2 -1</clus>
</clustering>
</event>
<event>
 6    0  0.2572175E+002  0.1848991E+03  0.7546771E-02  0.1163144E+00
         21   -1    0    0  504  502  0.00000000000E+00  0.00000000000E+00  0.11025999849E+04  0.11025999849E+04  0.00000000000E+00 0. -1.
          1   -1    0    0  503    0 -0.00000000000E+00 -0.00000000000E+00 -0.12552879100E+04  0.12552879100E+04  0.00000000000E+00 0.  1.
         21    1    1    2  503  502  0.93062756505E+01  0.81115672683E+02 -0.60381649860E+02  0.10154950892E+03  0.00000000000E+00 0.  1.
         21    1    1    2  504  505 -0.64126843509E+02 -0.17800202346E+03  0.93852852680E+03  0.95740940461E+03  0.00000000000E+00 0. -1.
         21    1    1    2  505  501  0.12665158223E+03  0.12053705147E+03  0.75188193245E+02  0.19032358882E+03  0.00000000000E+00 0.  1.
          1    1    1    2  501    0 -0.71831014374E+02 -0.23650700694E+02 -0.11060229953E+04  0.11086053926E+04  0.00000000000E+00 0.  1.
<scales pt_clust_3="74.48244" pt_clust_4="14000.00000" pt_clust_5="184.89911" pt_clust_6="75.62440"></scales>
<clustering>
<clus scale="   75.624">  2  6  1 -1</clus>
<clus scale="   74.482">  2  3  1 -1</clus>
<clus scale="  184.899">  2  5  1 -1</clus>
<clus scale="  184.899">  1  3  2 -1</clus>
</clustering>
</event>
<event>
 6    0  0.2572175E+002  0.1037166E+03  0.7546771E-02  0.1272669E+00
          3   -1    0    0  503    0 -0.00000000000E+00  0.00000000000E+00  0.77202887530E+03  0.77202887530E+03  0.00000000000E+00 0.  1.
         21   -1    0    0  505  502  0.00000000000E+00 -0.00000000000E+00 -0.14124177315E+03  0.14124177315E+03  0.00000000000E+00 0.  1.
         21    1    1    2  503  502  0.70250887090E+02 -0.10204156678E+03  0.27697607413E+03  0.30341953485E+03  0.00000000000E+00 0.  1.
         21    1    1    2  504  501  0.47929187151E+01  0.56785576374E+02  0.28516251971E+02  0.63724017296E+02  0.00000000000E+00 0.  1.
         21    1    1    2  505  504 -0.64273733596E+02  0.79321168050E+02 -0.85875526204E+02  0.13340752052E+03  0.00000000000E+00 0.  1.
          3    1    1    2  501    0 -0.10770072209E+02 -0.34065177639E+02  0.41117030225E+03  0.41271957579E+03  0.00000000000E+00 0.  1.
<scales pt_clust_3="14000.00000" pt_clust_4="52.53347" pt_clust_5="103.71657" pt_clust_6="35.72717"></scales>
<clustering>
<clus scale="   35.727">  1  6  2 -1</clus>
<clus scale="   52.533">  1  4  2 -1</clus>
<clus scale="  103.717">  2  5  1 -1</clus>
<clus scale="  103.717">  2  3  1 -1</clus>
</clustering>
</event>
<event>
 6    0  0.2572175E+002  0.8134238E+02  0.7546771E-02  0.1325285E+00
          2   -1    0    0  505    0 -0.00000000000E+00  0.00000000000E+00  0.26249518835E+04  0.26249518835E+04  0.00000000000E+00 0.  1.
         21   -1    0    0  503  502  0.00000000000E+00 -0.00000000000E+00 -0.13124407138E+02  0.13124407138E+02  0.00000000000E+00 0.  1.
         21    1    1    2  503  504  0.43352698001E+02 -0.38534228883E+02  0.23096370531E+03  0.23813562604E+03  0.00000000000E+00 0.  1.
         21    1    1    2  504  501  0.36352801866E+02  0.85560555509E+02  0.31874679478E+03  0.33202658635E+03  0.00000000000E+00 0.  1.
         21    1    1    2  505  502 -0.40662718575E+02  0.22630844542E+02  0.26723032489E+03  0.27125201999E+03  0.00000000000E+00 0.  1.
          2    1    1    2  501    0 -0.39042781292E+02 -0.69657171168E+02  0.17948866513E+04  0.17966620582E+04  0.00000000000E+00 0.  1.
<scales pt_clust_3="43.46756" pt_clust_4="81.34238" pt_clust_5="46.53613" pt_clust_6="14000.00000"></scales>
<clustering>
<clus scale="   46.536">  2  5  1 -1</clus>
<clus scale="   43.468">  2  3  1 -1</clus>
<clus scale="   81.342">  2  4  1 -1</clus>
<clus scale="   46.536">  2  3  1 -1</clus>
</clustering>
</event>
<event>
 6    0  0.2572175E+002  0.1357787E+03  0.7546771E-02  0.1219125E+00
         21   -1    0    0  505  502  0.00000000000E+00  0.00000000000E+00  0.41245515783E+03  0.41245515783E+03  0.00000000000E+00 0.  1.
          1   -1    0    0  504    0 -0.00000000000E+00 -0.00000000000E+00 -0.10976892556E+03  0.10976892556E+03  0.00000000000E+00 0.  1.
         21    1    1    2  503  502 -0.11639820049E+03  0.32278962828E+02  0.12075158999E+03  0.17079642562E+03  0.00000000000E+00 0.  1.
         21    1    1    2  504  503 -0.59567291740E+02  0.48887867682E+02  0.35092412674E+01  0.77140136285E+02  0.00000000000E+00 0.  1.
         21    1    1    2  505  501  0.27171490264E+02  0.12739386947E+02  0.42123566531E+02  0.51720177109E+02  0.00000000000E+00 0.  1.
          1    1    1    2  501    0  0.14879400197E+03 -0.93906217458E+02  0.13630183448E+03  0.22256734437E+03  0.00000000000E+00 0.  1.
<scales pt_clust_3="14000.00000" pt_clust_4="75.69381" pt_clust_5="30.00970" pt_clust_6="135.77867"></scales>
<clustering>
<clus scale="   30.010">  1  5  2 -1</clus>
<clus scale="   75.694">  2  4  1 -1</clus>
<clus scale="  135.779">  2  6  1 -1</clus>
<clus scale="   30.010">  1  3  2 -1</clus>
</clustering>
</event>
<event>
 6    0  0.2572175E+002  0.1004970E+03  0.7546771E-02  0.1279254E+00
          2   -1    0    0  505    0 -0.00000000000E+00  0.00000000000E+00  0.25328883865E+04  0.25328883865E+04  0.00000000000E+00 0. -1.
         21   -1    0    0  504  502  0.00000000000E+00 -0.00000000000E+00 -0.10377190250E+04  0.10377190250E+04  0.00000000000E+00 0. -1.
         21    1    1    2  503  502  0.12342213545E+01 -0.58173063379E+02 -0.68317663388E+03  0.68565001399E+03  0.00000000000E+00 0. -1.
         21    1    1    2  504  501 -0.38149234116E+02 -0.36641646366E+02 -0.33061695144E+03  0.33482165833E+03  0.00000000000E+00 0. -1.
         21    1    1    2  505  503 -0.31314778730E+02  0.12493841612E+03  0.18752009799E+03  0.22749507762E+03  0.00000000000E+00 0. -1.
          2    1    1    2  501    0  0.68229791491E+02 -0.30123706378E+02  0.23214428488E+04  0.23226406615E+04  0.00000000000E+00 0. -1.
<scales pt_clust_3="14000.00000" pt_clust_4="52.89588" pt_clust_5="100.49704" pt_clust_6="74.56673"></scales>
<clustering>
<clus scale="   52.896">  2  4  1 -1</clus>
<clus scale="   74.567">  1  6  2 -1</clus>
<clus scale="  100.497">  1  5  2 -1</clus>
<clus scale="   52.896">  2  3  1 -1</clus>
</clustering>
</event>
<event>
 6    0  0.2572175E+002  0.7449867E+02  0.7546771E-02  0.1345431E+00
          1   -1    0    0  505    0 -0.00000000000E+00  0.00000000000E+00  0.10083174985E+03  0.10083174985E+03  0.00000000000E+00 0. -1.
         21   -1    0    0  503  502  0.00000000000E+00 -0.00000000000E+00 -0.17712285554E+04  0.17712285554E+04  0.00000000000E+00 0. -1.
         21    1    1    2  503  501  0.18500964487E+02  0.76128394259E+02 -0.12255363025E+04  0.12280378849E+04  0.00000000000E+00 0. -1.
         21    1    1    2  504  502  0.63414015458E+02 -0.63583482688E+02 -0.27824484264E+03  0.29237713502E+03  0.00000000000E+00 0. -1.
         21    1    1    2  505  504 -0.49811139084E+02 -0.14770164551E+02 -0.25361651455E+03  0.25888345600E+03  0.00000000000E+00 0. -1.
          1    1    1    2  501    0 -0.32103840861E+02  0.22252529801E+01  0.87000854151E+02  0.92761829283E+02  0.00000000000E+00 0. -1.
<scales pt_clust_3="14000.00000" pt_clust_4="74.49867" pt_clust_5="59.26673" pt_clust_6="32.18087"></scales>
<clustering>
<clus scale="   32.181">  1  6  2 -1</clus>
<clus scale="   59.267">  1  5  2 -1</clus>
<clus scale="   74.499">  1  4  2 -1</clus>
<clus scale="   74.499">  2  3  1 -1</clus>
</clustering>
</event>
<event>
 6    0  0.2572175E+002  0.1022664E+03  0.7546771E-02  0.1275601E+00
          2   -1    0    0  505    0 -0.00000000000E+00  0.00000000000E+00  0.94084056721E+03  0.94084056721E+03  0.00000000000E+00 0.  1.
         21   -1    0    0  504  502  0.00000000000E+00 -0.00000000000E+00 -0.14002627080E+03  0.14002627080E+03  0.00000000000E+00 0. -1.
         21    1    1    2  503  501  0.68283856934E+02  0.82671142838E+02  0.39092206117E+03  0.40536065532E+03  0.00000000000E+00 0.  1.
         21    1    1    2  504  503  0.30850580342E+02 -0.47513559379E+02  0.98270349359E+01  0.57496671624E+02  0.00000000000E+00 0.  1.
         21    1    1    2  505  502 -0.19690510609E+02  0.25537294983E+02 -0.10154031552E+03  0.10653781169E+03  0.00000000000E+00 0. -1.
          2    1    1    2  501    0 -0.79443926666E+02 -0.60694878442E+02  0.50160551583E+03  0.51147169938E+03  0.00000000000E+00 0.  1.
<scales pt_clust_3="14000.00000" pt_clust_4="35.40511" pt_clust_5="32.24701" pt_clust_6="102.26642"></scales>
<clustering>
<clus scale="   32.247">  2  5  1 -1</clus>
<clus scale="   35.405">  2  4  1 -1</clus>
<clus scale="  102.266">  1  6  2 -1</clus>
<clus scale="   32.247">  2  3  1 -1</clus>
</clustering>
</event>
<event>
 6    0  0.2572175E+002  0.1297693E+03  0.7546771E-02  0.1227798E+00
          1   -1    0    0  503    0 -0.00000000000E+00  0.00000000000E+00  0.37634244108E+03  0.37634244108E+03  0.00000000000E+00 0. -1.
         21   -1    0    0  504  502  0.00000000000E+00 -0.00000000000E+00 -0.57372356846E+03  0.57372356846E+03  0.00000000000E+00 0.  1.
         21    1    1    2  503  505 -0.81898599902E+02 -0.63227674116E+02 -0.42104202639E+02  0.11170444629E+03  0.00000000000E+00 0.  1.
         21    1    1    2  504  501 -0.59561108906E+02 -0.77953360436E+02 -0.17879785098E+03  0.20394343239E+03  0.00000000000E+00 0.  1.
         21    1    1    2  505  502  0.86736281448E+01  0.11032856574E+03 -0.28033170166E+03  0.30138594393E+03  0.00000000000E+00 0.  1.
          1    1    1    2  501    0  0.13278608066E+03  0.30852468808E+02  0.30385262790E+03  0.33303218693E+03  0.00000000000E+00 0. -1.
<scales pt_clust_3="129.76928" pt_clust_4="98.10327" pt_clust_5="62.81770" pt_clust_6="14000.00000"></scales>
<clustering>
<clus scale="   98.103">  2  4  1 -1</clus>
<clus scale="   62.818">  2  5  1 -1</clus>
<clus scale="  129.769">  2  3  1 -1</clus>
<clus scale="   98.103">  2  3  1 -1</clus>
</clustering>
</event>
<event>
 6    0  0.2572175E+002  0.7068530E+02  0.7546771E-02  0.1357778E+00
          2   -1    0    0  505    0 -0.00000000000E+00  0.00000000000E+00  0.93164185172E+03  0.93164185172E+03  0.00000000000E+00 0.  1.
         21   -1    0    0  504  502  0.00000000000E+00 -0.00000000000E+00 -0.66963594189E+03  0.66963594189E+03  0.00000000000E+00 0. -1.
         21    1    1    2  503  502 -0.42976027382E+02 -0.10020891664E+02 -0.51801418627E+03  0.51989042535E+03  0.00000000000E+00 0. -1.
         21    1    1    2  504  501 -0.18860856151E+02  0.31674067302E+02 -0.32651497279E+02  0.49245291235E+02  0.00000000000E+00 0. -1.
         21    1    1    2  505  503  0.13104503365E+03 -0.11484648747E+02 -0.68420913354E+02  0.14827717082E+03  0.00000000000E+00 0. -1.
          2    1    1    2  501    0 -0.69208150119E+02 -0.10168526892E+02  0.88109250674E+03  0.88386490620E+03  0.00000000000E+00 0.  1.
<scales pt_clust_3="60.72474" pt_clust_4="36.86432" pt_clust_5="14000.00000" pt_clust_6="70.68530"></scales>
<clustering>
<clus scale="   36.864">  2  4  1 -1</clus>
<clus scale="   60.725">  2  3  1 -1</clus>
<clus scale="   70.685">  1  6  2 -1</clus>
<clus scale="   36.864">  2  3  1 -1</clus>
</clustering>
</event>
<event>
 6    0  0.2572175E+002  0.7112705E+02  0.7546771E-02  0.1356302E+00
         21   -1    0    0  505  502  0.00000000000E+00  0.00000000000E+00  0.11048688739E+04  0.11048688739E+04  0.00000000000E+00 0.  1.
          1   -1    0    0  504    0 -0.00000000000E+00 -0.00000000000E+00 -0.83926812936E+02  0.83926812936E+02  0.00000000000E+00 0.  1.
         21    1    1    2  503  502  0.18805773566E+02  0.39775334180E+02  0.17734497076E+03  0.18272102502E+03  0.00000000000E+00 0.  1.
         21    1    1    2  504  503 -0.32868698541E+02 -0.36485833841E+02 -0.64788389139E+01  0.49533249121E+02  0.00000000000E+00 0. -1.
         21    1    1    2  505  501 -0.74844150839E+02  0.41034573251E+01  0.86312902650E+03  0.86637763225E+03  0.00000000000E+00 0.  1.
          1    1    1    2  501    0  0.88907075814E+02 -0.73929576644E+01 -0.13053097386E+02  0.90163780445E+02  0.00000000000E+00 0.  1.
<scales pt_clust_3="43.99698" pt_clust_4="48.12775" pt_clust_5="14000.00000" pt_clust_6="71.12705"></scales>
<clustering>
<clus scale="   43.997">  1  3  2 -1</clus>
<clus scale="   48.128">  2  4  1 -1</clus>
<clus scale="   71.127">  2  6  1 -1</clus>
<clus scale="   43.997">  1  3  2 -1</clus>
</clustering>
</event>
<event>
 6    0  0.2572175E+002  0.1534388E+03  0.7546771E-02  0.1196310E+00
         21   -1    0    0  505  502  0.00000000000E+00  0.00000000000E+00  0.97083810403E+02  0.97083810403E+02  0.00000000000E+00 0. -1.
          2   -1    0    0  504    0 -0.00000000000E+00 -0.00000000000E+00 -0.12700459007E+04  0.12700459007E+04  0.00000000000E+00 0. -1.
         21    1    1    2  503  502  0.18547465993E+02  0.64547827653E+02 -0.15573831416E+02  0.68941821665E+02  0.00000000000E+00 0. -1.
         21    1    1    2  504  503 -0.34562388851E+02 -0.19042100814E+03 -0.38020254095E+03  0.42662476628E+03  0.00000000000E+00 0. -1.
         21    1    1    2  505  501  0.29623630437E+02 -0.17421630114E+02  0.33621889519E+02  0.48078104486E+02  0.00000000000E+00 0. -1.
          2    1    1    2  501    0 -0.13608707579E+02  0.14329481060E+03 -0.81080760744E+03  0.82348501865E+03  0.00000000000E+00 0. -1.
<scales pt_clust_3="65.04301" pt_clust_4="153.43878" pt_clust_5="34.36674" pt_clust_6="14000.00000"></scales>
<clustering>
<clus scale="   34.367">  1  5  2 -1</clus>
<clus scale="   65.043">  1  3  2 -1</clus>
<clus scale="  153.439">  1  4  2 -1</clus>
<clus scale="   34.367">  1  3  2 -1</clus>
</clustering>
</event>
<event>
 6    0  0.2572175E+002  0.9696902E+02  0.7546771E-02  0.1286802E+00
          2   -1    0    0  504    0 -0.00000000000E+00  0.00000000000E+00  0.19360628659E+03  0.19360628659E+03  0.00000000000E+00 0.  1.
         21   -1    0    0  503  502  0.00000000000E+00 -0.00000000000E+00 -0.86262117834E+03  0.86262117834E+03  0.00000000000E+00 0.  1.
         21    1    1    2  503  505  0.40047769867E+02 -0.10162032751E+02 -0.76042215336E+02  0.86541951065E+02  0.00000000000E+00 0. -1.
         21    1    1    2  504  502 -0.34161527111E+02  0.10456500769E+02 -0.54965685026E+02  0.65555891217E+02  0.00000000000E+00 0.  1.
         21    1    1    2  505  501 -0.85282354904E+02  0.55229183007E+02 -0.70434359703E+03  0.71163420757E+03  0.00000000000E+00 0.  1.
          2    1    1    2  501    0  0.79396112148E+02 -0.55523651024E+02  0.16633660564E+03  0.19249541507E+03  0.00000000000E+00 0.  1.
<scales pt_clust_3="37.70200" pt_clust_4="35.72602" pt_clust_5="96.96902" pt_clust_6="14000.00000"></scales>
<clustering>
<clus scale="   35.726">  2  4  1 -1</clus>
<clus scale="   37.702">  2  3  1 -1</clus>
<clus scale="   96.969">  2  5  1 -1</clus>
<clus scale="   35.726">  2  3  1 -1</clus>
</clustering>
</event>
<event>
 6    0  0.2572175E+002  0.8578418E+02  0.7546771E-02  0.1313394E+00
          2   -1    0    0  505    0 -0.00000000000E+00  0.00000000000E+00  0.52568290159E+04  0.52568290159E+04  0.00000000000E+00 0. -1.
         21   -1    0    0  504  502  0.00000000000E+00 -0.00000000000E+00 -0.63111115111E+01  0.63111115111E+01  0.00000000000E+00 0. -1.
         21    1    1    2  503  501 -0.12252732008E+02  0.10967557981E+03  0.11089069844E+04  0.11143848358E+04  0.00000000000E+00 0. -1.
         21    1    1    2  504  503  0.47368941418E+01 -0.67714487148E+02  0.62296742191E+03  0.62665468856E+03  0.00000000000E+00 0.  1.
         21    1    1    2  505  502  0.39105926794E+02 -0.46568478716E+01  0.24928207695E+03  0.25237375781E+03  0.00000000000E+00 0. -1.
          2    1    1    2  501    0 -0.31590088928E+02 -0.37304244792E+02  0.32693614212E+04  0.32697268453E+04  0.00000000000E+00 0. -1.
<scales pt_clust_3="85.78418" pt_clust_4="14000.00000" pt_clust_5="39.38223" pt_clust_6="48.06671"></scales>
<clustering>
<clus scale="   39.382">  2  5  1 -1</clus>
<clus scale="   48.067">  1  6  2 -1</clus>
<clus scale="   85.784">  1  3  2 -1</clus>
<clus scale="   39.382">  2  3  1 -1</clus>
</clustering>
</event>
<event>
 6    0  0.2572175E+002  0.8522583E+02  0.7546771E-02  0.1314843E+00
          1   -1    0    0  504    0 -0.00000000000E+00  0.00000000000E+00  0.19931574438E+03  0.19931574438E+03  0.00000000000E+00 0.  1.
         21   -1    0    0  505  502  0.00000000000E+00 -0.00000000000E+00 -0.25599817680E+03  0.25599817680E+03  0.00000000000E+00 0.  1.
         21    1    1    2  503  501 -0.52940699429E+02  0.20550908002E+02 -0.84626599882E+02  0.10191525344E+03  0.00000000000E+00 0.  1.
         21    1    1    2  504  502 -0.10992148812E+02  0.78723369118E+02 -0.73671000739E+01  0.79827754223E+02  0.00000000000E+00 0.  1.
         21    1    1    2  505  503  0.28720875198E+02 -0.19086604026E+02 -0.10369370163E+03  0.10927749486E+03  0.00000000000E+00 0.  1.
          1    1    1    2  501    0  0.35211973043E+02 -0.80187673094E+02  0.13900496917E+03  0.16429341866E+03  0.00000000000E+00 0.  1.
<scales pt_clust_3="36.07459" pt_clust_4="85.22583" pt_clust_5="34.48459" pt_clust_6="14000.00000"></scales>
<clustering>
<clus scale="   34.485">  2  5  1 -1</clus>
<clus scale="   36.075">  2  3  1 -1</clus>
<clus scale="   85.226">  2  4  1 -1</clus>
<clus scale="   34.485">  2  3  1 -1</clus>
</clustering>
</event>
<event>
 6    0  0.2572175E+002  0.2518309E+03  0.7546771E-02  0.1112153E+00
         21   -1    0    0  505  502  0.00000000000E+00  0.00000000000E+00  0.15297784155E+03  0.15297784155E+03  0.00000000000E+00 0. -1.
          2   -1    0    0  504    0 -0.00000000000E+00 -0.00000000000E+00 -0.20961127815E+04  0.20961127815E+04  0.00000000000E+00 0.  1.
         21    1    1    2  503  501  0.23565377670E+03 -0.18679883852E+03 -0.51634401274E+03  0.59752627393E+03  0.00000000000E+00 0. -1.
         21    1    1    2  504  502 -0.32653411095E+02  0.30689290267E+02  0.56598955040E+02  0.72190854718E+02  0.00000000000E+00 0. -1.
         21    1    1    2  505  503 -0.29503205330E+02 -0.10651683395E+02  0.32108982830E+02  0.44887462194E+02  0.00000000000E+00 0. -1.
          2    1    1    2  501    0 -0.17349716027E+03  0.16676123165E+03 -0.15154988651E+04  0.15344860323E+04  0.00000000000E+00 0.  1.
<scales pt_clust_3="251.83089" pt_clust_4="55.09483" pt_clust_5="31.36714" pt_clust_6="14000.00000"></scales>
<clustering>
<clus scale="   31.367">  1  5  2 -1</clus>
<clus scale="   55.095">  1  4  2 -1</clus>
<clus scale="  251.831">  1  3  2 -1</clus>
<clus scale="   31.367">  1  3  2 -1</clus>
</clustering>
</event>
<event>
 6    0  0.2572175E+002  0.1127650E+03  0.7546771E-02  0.1255534E+00
         21   -1    0    0  503  502  0.00000000000E+00  0.00000000000E+00  0.60516367240E+02  0.60516367240E+02  0.00000000000E+00 0.  1.
          2   -1    0    0  505    0 -0.00000000000E+00 -0.00000000000E+00 -0.36859102711E+04  0.36859102711E+04  0.00000000000E+00 0.  1.
         21    1    1    2  503  504  0.60292416997E+00  0.47072594821E+02  0.17372122379E+02  0.50179511124E+02  0.00000000000E+00 0.  1.
         21    1    1    2  504  501 -0.33954021494E+02  0.53185955623E+02 -0.20565931773E+02  0.66367002349E+02  0.00000000000E+00 0.  1.
         21    1    1    2  505  502  0.75296069051E+02 -0.40976200124E+02 -0.53485914044E+03  0.54168519188E+03  0.00000000000E+00 0.  1.
          2    1    1    2  501    0 -0.41944971727E+02 -0.59282350321E+02 -0.30873409540E+04  0.30881949330E+04  0.00000000000E+00 0.  1.
<scales pt_clust_3="42.39247" pt_clust_4="42.39247" pt_clust_5="101.52403" pt_clust_6="72.62078"></scales>
<clustering>
<clus scale="   42.392">  3  4 -1 -1</clus>
<clus scale="   72.621">  2  6  1 -1</clus>
<clus scale="  101.524">  2  5  1 -1</clus>
<clus scale="  112.765">  1  3  2 -1</clus>
</clustering>
</event>
<event>
 6    0  0.2572175E+002  0.1275904E+03  0.7546771E-02  0.1231076E+00
         21   -1    0    0  503  502  0.00000000000E+00  0.00000000000E+00  0.52384595505E+02  0.52384595505E+02  0.00000000000E+00 0.  1.
          1   -1    0    0  504    0 -0.00000000000E+00 -0.00000000000E+00 -0.23863742821E+04  0.23863742821E+04  0.00000000000E+00 0.  1.
         21    1    1    2  503  501 -0.12390137980E+03  0.55553774663E+02 -0.38646661383E+03  0.40962692465E+03  0.00000000000E+00 0. -1.
         21    1    1    2  504  505 -0.25724895946E+02 -0.93030458399E+02 -0.10071816647E+03  0.13950120257E+03  0.00000000000E+00 0.  1.
         21    1    1    2  505  502  0.33241087387E+02 -0.34756993703E+02 -0.11799890054E+02  0.49520257544E+02  0.00000000000E+00 0.  1.
          1    1    1    2  501    0  0.11638518836E+03  0.72233677439E+02 -0.18350050162E+04  0.18401104928E+04  0.00000000000E+00 0.  1.
<scales pt_clust_3="127.59038" pt_clust_4="113.32135" pt_clust_5="48.09385" pt_clust_6="14000.00000"></scales>
<clustering>
<clus scale="   48.094">  1  5  2 -1</clus>
<clus scale="  113.321">  1  4  2 -1</clus>
<clus scale="  127.590">  1  3  2 -1</clus>
<clus scale="   48.094">  1  3  2 -1</clus>
</clustering>
</event>
<event>
 6    0  0.2572175E+002  0.1509685E+03  0.7546771E-02  0.1199288E+00
          2   -1    0    0  503    0 -0.00000000000E+00  0.00000000000E+00  0.35253572632E+04  0.35253572632E+04  0.00000000000E+00 0. -1.
         21   -1    0    0  501  502  0.00000000000E+00 -0.00000000000E+00 -0.43788993740E+02  0.43788993740E+02  0.00000000000E+00 0. -1.
         21    1    1    2  503  504 -0.87401234058E+02  0.86917940914E+02  0.29555557492E+04  0.29581249958E+04  0.00000000000E+00 0. -1.
         21    1    1    2  504  505  0.13028675797E+02 -0.54579338819E+02  0.74304561709E+02  0.93111860199E+02  0.00000000000E+00 0. -1.
         21    1    1    2  505  502  0.51329914447E+02 -0.66507101727E+02  0.22833420772E+02  0.87059289001E+02  0.00000000000E+00 0. -1.
          2    1    1    2  501    0  0.23042643814E+02  0.34168499632E+02  0.42887453779E+03  0.43085011195E+03  0.00000000000E+00 0. -1.
<scales pt_clust_3="136.27022" pt_clust_4="52.81897" pt_clust_5="52.81897" pt_clust_6="41.21225"></scales>
<clustering>
<clus scale="   41.212">  1  6  2 -1</clus>
<clus scale="   52.819">  4  5 -1 -1</clus>
<clus scale="  136.270">  1  3  2 -1</clus>
<clus scale="  150.968">  2  3  1 -1</clus>
</clustering>
</event>
<event>
 6    0  0.2572175E+002  0.9155591E+02  0.7546771E-02  0.1299127E+00
         21   -1    0    0  503  502  0.00000000000E+00  0.00000000000E+00  0.59607596374E+03  0.59607596374E+03  0.00000000000E+00 0. -1.
          1   -1    0    0  504    0 -0.00000000000E+00 -0.00000000000E+00 -0.68981178733E+03  0.68981178733E+03  0.00000000000E+00 0. -1.
         21    1    1    2  503  501 -0.93320448554E+02 -0.72577517440E+02  0.28302280394E+02  0.12156159439E+03  0.00000000000E+00 0. -1.
         21    1    1    2  504  505  0.31274900065E+02  0.10283058777E+02  0.26414114058E+03  0.26618490344E+03  0.00000000000E+00 0. -1.
         21    1    1    2  505  502  0.29411543033E+02 -0.22763102317E+02  0.25137472889E+03  0.25411110172E+03  0.00000000000E+00 0. -1.
          1    1    1    2  501    0  0.32634005456E+02  0.85057560980E+02 -0.63755397346E+03  0.64403015152E+03  0.00000000000E+00 0. -1.
<scales pt_clust_3="14000.00000" pt_clust_4="31.38458" pt_clust_5="70.36563" pt_clust_6="91.55591"></scales>
<clustering>
<clus scale="   31.385">  4  5 -1 -1</clus>
<clus scale="   70.366">  1  4  2 -1</clus>
<clus scale="   91.556">  2  6  1 -1</clus>
<clus scale="   70.366">  1  3  2 -1</clus>
</clustering>
</event>
<event>
 6    0  0.2572175E+002  0.2596191E+03  0.7546771E-02  0.1107372E+00
         21   -1    0    0  503  502  0.00000000000E+00  0.00000000000E+00  0.18807456391E+04  0.18807456391E+04  0.00000000000E+00 0. -1.
         -2   -1    0    0    0  501 -0.00000000000E+00 -0.00000000000E+00 -0.56196355328E+02  0.56196355328E+02  0.00000000000E+00 0. -1.
         21    1    1    2  503  504  0.88092594833E+02  0.13594587613E+03  0.51995513678E+03  0.54460529814E+03  0.00000000000E+00 0. -1.
         21    1    1    2  504  501  0.78473872629E+02  0.28870751812E+01  0.19259042503E+03  0.20798450832E+03  0.00000000000E+00 0. -1.
         21    1    1    2  505  502 -0.19193391409E+03 -0.15906131848E+03  0.11228148280E+04  0.11501531499E+04  0.00000000000E+00 0. -1.
         -2    1    1    2    0  505  0.25367446624E+02  0.20228367174E+02 -0.10811106027E+02  0.34199038002E+02  0.00000000000E+00 0. -1.
<scales pt_clust_3="75.42108" pt_clust_4="75.42108" pt_clust_5="236.11606" pt_clust_6="32.44525"></scales>
<clustering>
<clus scale="   32.445">  2  6  1 -1</clus>
<clus scale="   75.421">  3  4 -1 -1</clus>
<clus scale="  236.116">  1  5  2 -1</clus>
<clus scale="  236.116">  1  3  2 -1</clus>
</clustering>
</event>
<event>
 6    0  0.2572175E+002  0.1225222E+03  0.7546771E-02  0.1238993E+00
          1   -1    0    0  505    0 -0.00000000000E+00  0.00000000000E+00  0.32194705167E+04  0.32194705167E+04  0.00000000000E+00 0.  1.
         21   -1    0    0  501  502  0.00000000000E+00 -0.00000000000E+00 -0.11305842773E+04  0.11305842773E+04  0.00000000000E+00 0.  1.
         21    1    1    2  503  504 -0.55377357537E+02 -0.14127820499E+02 -0.11706173456E+03  0.13026778857E+03  0.00000000000E+00 0.  1.
         21    1    1    2  504  502 -0.34502661632E+02  0.28477196620E+02 -0.93623749213E+03  0.93730572710E+03  0.00000000000E+00 0.  1.
         21    1    1    2  505  503  0.13545342248E+03 -0.12720701045E+03  0.56251591013E+02  0.19414812557E+03  0.00000000000E+00 0.  1.
          1    1    1    2  501    0 -0.45573403314E+02  0.11285763433E+03  0.30859338751E+04  0.30883331527E+04  0.00000000000E+00 0.  1.
<scales pt_clust_3="77.49774" pt_clust_4="44.73683" pt_clust_5="122.52222" pt_clust_6="14000.00000"></scales>
<clustering>
<clus scale="   44.737">  2  4  1 -1</clus>
<clus scale="   77.498">  2  3  1 -1</clus>
<clus scale="  122.522">  2  5  1 -1</clus>
<clus scale="   44.737">  2  3  1 -1</clus>
</clustering>
</event>
<event>
 6    0  0.2572175E+002  0.2007950E+03  0.7546771E-02  0.1149070E+00
         21   -1    0    0  501  502  0.00000000000E+00  0.00000000000E+00  0.20520548970E+03  0.20520548970E+03  0.00000000000E+00 0.  1.
          2   -1    0    0  505    0 -0.00000000000E+00 -0.00000000000E+00 -0.14595164621E+04  0.14595164621E+04  0.00000000000E+00 0.  1.
         21    1    1    2  503  504  0.56652247549E+02 -0.16700944114E+02  0.21102445670E+02  0.62719310423E+02  0.00000000000E+00 0.  1.
         21    1    1    2  504  502  0.12224081212E+03  0.57906664080E+02  0.87669901312E+02  0.16118935910E+03  0.00000000000E+00 0.  1.
         21    1    1    2  505  503 -0.22079733403E+03 -0.14978108627E+02 -0.28138113138E+03  0.35798204920E+03  0.00000000000E+00 0. -1.
          2    1    1    2  501    0  0.41904274369E+02 -0.26227611339E+02 -0.10817021880E+04  0.10828312331E+04  0.00000000000E+00 0.  1.
<scales pt_clust_3="44.83214" pt_clust_4="44.83214" pt_clust_5="188.98572" pt_clust_6="49.43537"></scales>
<clustering>
<clus scale="   44.832">  3  4 -1 -1</clus>
<clus scale="   49.435">  2  6  1 -1</clus>
<clus scale="  188.986">  2  5  1 -1</clus>
<clus scale="  200.795">  1  3  2 -1</clus>
</clustering>
</event>
<event>
 6    0  0.2572175E+002  0.2015298E+03  0.7546771E-02  0.1148455E+00
         21   -1    0    0  501  502  0.00000000000E+00  0.00000000000E+00  0.19276243414E+03  0.19276243414E+03  0.00000000000E+00 0.  1.
          1   -1    0    0  504    0 -0.00000000000E+00 -0.00000000000E+00 -0.12441830248E+04  0.12441830248E+04  0.00000000000E+00 0.  1.
         21    1    1    2  503  505 -0.55642733796E+02  0.48279901866E+02  0.21812554210E+02  0.76830008914E+02  0.00000000000E+00 0.  1.
         21    1    1    2  504  503 -0.94314650476E+02 -0.77883739928E+02 -0.27717682331E+03  0.30296554527E+03  0.00000000000E+00 0. -1.
         21    1    1    2  505  502 -0.35686086417E+02  0.12139938714E+03  0.84768812251E+02  0.15230580912E+03  0.00000000000E+00 0.  1.
          1    1    1    2  501    0  0.18564347069E+03 -0.91795549078E+02 -0.88082513382E+03  0.90484409564E+03  0.00000000000E+00 0.  1.
<scales pt_clust_3="48.32751" pt_clust_4="122.31570" pt_clust_5="48.32751" pt_clust_6="191.31820"></scales>
<clustering>
<clus scale="   48.328">  3  5 -1 -1</clus>
<clus scale="  122.316">  2  4  1 -1</clus>
<clus scale="  191.318">  2  6  1 -1</clus>
<clus scale="  201.530">  1  3  2 -1</clus>
</clustering>
</event>
<event>
 6    0  0.2572175E+002  0.1301320E+03  0.7546771E-02  0.1227260E+00
          1   -1    0    0  503    0 -0.00000000000E+00  0.00000000000E+00  0.10718090831E+04  0.10718090831E+04  0.00000000000E+00 0. -1.
         21   -1    0    0  505  502  0.00000000000E+00 -0.00000000000E+00 -0.73058991178E+03  0.73058991178E+03  0.00000000000E+00 0. -1.
         21    1    1    2  503  502  0.62421176451E+02 -0.10650427122E+03 -0.53680414442E+02  0.13461482070E+03  0.00000000000E+00 0. -1.
         21    1    1    2  504  501 -0.47128375146E+02  0.48740000380E+01 -0.54073058390E+02  0.71893916738E+02  0.00000000000E+00 0. -1.
         21    1    1    2  505  504 -0.50232943346E+02  0.12159957971E+03 -0.56550836361E+03  0.58061132929E+03  0.00000000000E+00 0. -1.
          1    1    1    2  501    0  0.34940142040E+02 -0.19969308520E+02  0.10144810078E+04  0.10152789282E+04  0.00000000000E+00 0. -1.
<scales pt_clust_3="130.13205" pt_clust_4="41.69629" pt_clust_5="14000.00000" pt_clust_6="40.24409"></scales>
<clustering>
<clus scale="   40.244">  1  6  2 -1</clus>
<clus scale="   41.696">  1  4  2 -1</clus>
<clus scale="  130.132">  1  3  2 -1</clus>
<clus scale="  130.132">  2  3  1 -1</clus>
</clustering>
</event>
<event>
 6    0  0.2572175E+002  0.1560486E+03  0.7546771E-02  0.1193232E+00
         21   -1    0    0  504  502  0.00000000000E+00  0.00000000000E+00  0.12100981473E+04  0.12100981473E+04  0.00000000000E+00 0.  1.
          3   -1    0    0  505    0 -0.00000000000E+00 -0.00000000000E+00 -0.40899270681E+03  0.40899270681E+03  0.00000000000E+00 0.  1.
         21    1    1    2  503  502 -0.77459129697E+02 -0.41381461915E+02  0.87071340901E+02  0.12366794480E+03  0.00000000000E+00 0. -1.
         21    1    1    2  504  501 -0.95915560114E+02  0.22697673544E+03  0.71391269456E+03  0.75524139754E+03  0.00000000000E+00 0.  1.
         21    1    1    2  505  503  0.78893043896E+02 -0.63717832524E+02  0.34649507099E+03  0.36103034329E+03  0.00000000000E+00 0. -1.
          3    1    1    2  501    0  0.94481645915E+02 -0.12187744100E+03 -0.34637366600E+03  0.37915116845E+03  0.00000000000E+00 0.  1.
<scales pt_clust_3="87.81994" pt_clust_4="14000.00000" pt_clust_5="94.07361" pt_clust_6="156.04856"></scales>
<clustering>
<clus scale="   87.820">  1  3  2 -1</clus>
<clus scale="   94.074">  1  5  2 -1</clus>
<clus scale="  156.049">  2  6  1 -1</clus>
<clus scale="   87.820">  1  3  2 -1</clus>
</clustering>
</event>
<event>
 6    0  0.2572175E+002  0.8525048E+02  0.7546771E-02  0.1314779E+00
         21   -1    0    0  503  502  0.00000000000E+00  0.00000000000E+00  0.19177297252E+04  0.19177297252E+04  0.00000000000E+00 0. -1.
          2   -1    0    0  505    0 -0.00000000000E+00 -0.00000000000E+00 -0.46621222741E+03  0.46621222741E+03  0.00000000000E+00 0.  1.
         21    1    1    2  503  504 -0.31760014068E+02  0.35903183896E+02  0.18020186588E+04  0.18026560914E+04  0.00000000000E+00 0. -1.
         21    1    1    2  504  501  0.79536166923E+02  0.36678960654E+02 -0.11477050289E+03  0.14437318427E+03  0.00000000000E+00 0.  1.
         21    1    1    2  505  502 -0.26626432741E+02  0.20911288643E+02  0.90639962088E+02  0.96756661995E+02  0.00000000000E+00 0.  1.
          2    1    1    2  501    0 -0.21149720114E+02 -0.93493433193E+02 -0.32637062026E+03  0.34015601492E+03  0.00000000000E+00 0.  1.
<scales pt_clust_3="81.06654" pt_clust_4="85.25048" pt_clust_5="33.85630" pt_clust_6="14000.00000"></scales>
<clustering>
<clus scale="   33.856">  1  5  2 -1</clus>
<clus scale="   81.067">  1  3  2 -1</clus>
<clus scale="   85.250">  1  4  2 -1</clus>
<clus scale="   33.856">  1  3  2 -1</clus>
</clustering>
</event>
<event>
 6    0  0.2572175E+002  0.7247350E+02  0.7546771E-02  0.1351878E+00
         21   -1    0    0  504  502  0.00000000000E+00  0.00000000000E+00  0.21623448233E+02  0.21623448233E+02  0.00000000000E+00 0.  1.
          2   -1    0    0  503    0 -0.00000000000E+00 -0.00000000000E+00 -0.34213318809E+04  0.34213318809E+04  0.00000000000E+00 0.  1.
         21    1    1    2  503  505  0.89567490720E+02  0.96663756663E+02 -0.14588207921E+04  0.14647608408E+04  0.00000000000E+00 0.  1.
         21    1    1    2  504  501 -0.44286708159E+02 -0.44861197854E+01 -0.17643354296E+02  0.47882415782E+02  0.00000000000E+00 0.  1.
         21    1    1    2  505  502 -0.10852257463E+02 -0.39338740506E+02 -0.13684873427E+03  0.14280365565E+03  0.00000000000E+00 0.  1.
          2    1    1    2  501    0 -0.34428525098E+02 -0.52838896371E+02 -0.17863955520E+04  0.17875084169E+04  0.00000000000E+00 0.  1.
<scales pt_clust_3="14000.00000" pt_clust_4="72.47350" pt_clust_5="40.80819" pt_clust_6="64.22706"></scales>
<clustering>
<clus scale="   40.808">  1  5  2 -1</clus>
<clus scale="   64.227">  2  6  1 -1</clus>
<clus scale="   72.474">  1  4  2 -1</clus>
<clus scale="   40.808">  1  3  2 -1</clus>
</clustering>
</event>
<event>
 6    0  0.2572175E+002  0.1664052E+03  0.7546771E-02  0.1181649E+00
          2   -1    0    0  505    0 -0.00000000000E+00  0.00000000000E+00  0.16145562721E+04  0.16145562721E+04  0.00000000000E+00 0. -1.
         21   -1    0    0  503  502  0.00000000000E+00 -0.00000000000E+00 -0.31359078022E+02  0.31359078022E+02  0.00000000000E+00 0. -1.
         21    1    1    2  503  501 -0.61859005201E+02 -0.82762929901E+02  0.95293146246E+03  0.95851688104E+03  0.00000000000E+00 0. -1.
         21    1    1    2  504  502  0.25765596446E+02  0.22350466963E+02  0.16418370980E+02  0.37854619789E+02  0.00000000000E+00 0. -1.
         21    1    1    2  505  504  0.91461257928E+02  0.95082537406E+02  0.28210707540E+03  0.31143258117E+03  0.00000000000E+00 0. -1.
          2    1    1    2  501    0 -0.55367849173E+02 -0.34670074468E+02  0.33174028520E+03  0.33811126809E+03  0.00000000000E+00 0. -1.
<scales pt_clust_3="45.01683" pt_clust_4="34.10879" pt_clust_5="156.07779" pt_clust_6="45.01683"></scales>
<clustering>
<clus scale="   34.109">  2  4  1 -1</clus>
<clus scale="   45.017">  3  6 -1 -1</clus>
<clus scale="  156.078">  2  5  1 -1</clus>
<clus scale="   34.109">  2  3  1 -1</clus>
</clustering>
</event>
<event>
 6    0  0.2572175E+002  0.2490173E+03  0.7546771E-02  0.1113927E+00
          3   -1    0    0  503    0 -0.00000000000E+00  0.00000000000E+00  0.33360588132E+03  0.33360588132E+03  0.00000000000E+00 0. -1.
         21   -1    0    0  505  502  0.00000000000E+00 -0.00000000000E+00 -0.25598158355E+03  0.25598158355E+03  0.00000000000E+00 0. -1.
         21    1    1    2  503  504  0.68037065034E+02 -0.15729996862E+03 -0.59241988779E+02  0.18133376845E+03  0.00000000000E+00 0. -1.
         21    1    1    2  504  502 -0.21550851288E+02 -0.64760602438E+02  0.12117591746E+02  0.69319628166E+02  0.00000000000E+00 0.  1.
         21    1    1    2  505  501  0.12963928816E+02  0.23884206377E+03  0.54378509300E+02  0.24529699784E+03  0.00000000000E+00 0. -1.
          3    1    1    2  501    0 -0.59450142563E+02 -0.16781492709E+02  0.70370185499E+02  0.93637070412E+02  0.00000000000E+00 0. -1.
<scales pt_clust_3="60.31393" pt_clust_4="60.31393" pt_clust_5="229.94574" pt_clust_6="61.77328"></scales>
<clustering>
<clus scale="   60.314">  3  4 -1 -1</clus>
<clus scale="   61.773">  1  6  2 -1</clus>
<clus scale="  229.946">  1  5  2 -1</clus>
<clus scale="  249.017">  2  3  1 -1</clus>
</clustering>
</event>
<event>
 6    0  0.2572175E+002  0.2650158E+03  0.7546771E-02  0.1104167E+00
         21   -1    0    0  504  502  0.00000000000E+00  0.00000000000E+00  0.31033321358E+03  0.31033321358E+03  0.00000000000E+00 0. -1.
          1   -1    0    0  503    0 -0.00000000000E+00 -0.00000000000E+00 -0.17000401725E+04  0.17000401725E+04  0.00000000000E+00 0. -1.
         21    1    1    2  503  502 -0.24075057719E+03 -0.20943119699E+02 -0.71542793752E+03  0.75514011181E+03  0.00000000000E+00 0.  1.
         21    1    1    2  504  505  0.10089872589E+03 -0.31473277294E+02  0.10466433921E+03  0.14874724862E+03  0.00000000000E+00 0. -1.
         21    1    1    2  505  501  0.16018322136E+03  0.63496297764E+01  0.12367081748E+03  0.20246840075E+03  0.00000000000E+00 0. -1.
          1    1    1    2  501    0 -0.20331370069E+02  0.46066767217E+02 -0.90261417813E+03  0.90401762494E+03  0.00000000000E+00 0. -1.
<scales pt_clust_3="260.40904" pt_clust_4="39.94831" pt_clust_5="39.94831" pt_clust_6="50.35386"></scales>
<clustering>
<clus scale="   39.948">  4  5 -1 -1</clus>
<clus scale="   50.354">  2  6  1 -1</clus>
<clus scale="  260.409">  2  3  1 -1</clus>
<clus scale="  265.016">  1  3  2 -1</clus>
</clustering>
</event>
<event>
 6    0  0.2572175E+002  0.8751738E+02  0.7546771E-02  0.1308978E+00
          2   -1    0    0  504    0 -0.00000000000E+00  0.00000000000E+00  0.42633203435E+03  0.42633203435E+03  0.00000000000E+00 0. -1.
         21   -1    0    0  501  502  0.00000000000E+00 -0.00000000000E+00 -0.22628085056E+03  0.22628085056E+03  0.00000000000E+00 0. -1.
         21    1    1    2  503  505 -0.58761924695E+02 -0.62321183361E+02 -0.15034581306E+03  0.17303397699E+03  0.00000000000E+00 0. -1.
         21    1    1    2  504  503  0.30486995305E+02 -0.65891959543E+02  0.10006652718E+03  0.12363056692E+03  0.00000000000E+00 0. -1.
         21    1    1    2  505  502  0.24461576947E+02  0.25543652512E+02 -0.36770007131E+02  0.51018431521E+02  0.00000000000E+00 0.  1.
          2    1    1    2  501    0  0.38133524430E+01  0.10266949039E+03  0.28710047681E+03  0.30492990948E+03  0.00000000000E+00 0. -1.
<scales pt_clust_3="54.30323" pt_clust_4="87.51738" pt_clust_5="35.36731" pt_clust_6="14000.00000"></scales>
<clustering>
<clus scale="   35.367">  2  5  1 -1</clus>
<clus scale="   54.303">  2  3  1 -1</clus>
<clus scale="   87.517">  2  4  1 -1</clus>
<clus scale="   35.367">  2  3  1 -1</clus>
</clustering>
</event>
<event>
 6    0  0.2572175E+002  0.1656525E+03  0.7546771E-02  0.1182459E+00
         21   -1    0    0  505  502  0.00000000000E+00  0.00000000000E+00  0.17739293467E+03  0.17739293467E+03  0.00000000000E+00 0.  1.
          1   -1    0    0  503    0 -0.00000000000E+00 -0.00000000000E+00 -0.11547162348E+04  0.11547162348E+04  0.00000000000E+00 0.  1.
         21    1    1    2  503  504 -0.10041439431E+03 -0.33504371050E+02  0.35190850221E+02  0.11155263064E+03  0.00000000000E+00 0.  1.
         21    1    1    2  504  502 -0.29910574007E+02 -0.33945859053E+02  0.36485805111E+02  0.58122093552E+02  0.00000000000E+00 0.  1.
         21    1    1    2  505  501  0.19393177658E+03  0.79939778611E+02 -0.14242363912E+03  0.25354367504E+03  0.00000000000E+00 0.  1.
          1    1    1    2  501    0 -0.63606808262E+02 -0.12489548508E+02 -0.90657631630E+03  0.90889077020E+03  0.00000000000E+00 0.  1.
<scales pt_clust_3="30.08605" pt_clust_4="30.08605" pt_clust_5="159.13172" pt_clust_6="64.82141"></scales>
<clustering>
<clus scale="   30.086">  3  4 -1 -1</clus>
<clus scale="   64.821">  2  6  1 -1</clus>
<clus scale="  159.132">  2  5  1 -1</clus>
<clus scale="  165.652">  1  3  2 -1</clus>
</clustering>
</event>
<event>
 6    0  0.2572175E+002  0.1388343E+03  0.7546771E-02  0.1214906E+00
          3   -1    0    0  505    0 -0.00000000000E+00  0.00000000000E+00  0.32648199683E+03  0.32648199683E+03  0.00000000000E+00 0.  1.
         21   -1    0    0  501  502  0.00000000000E+00 -0.00000000000E+00 -0.91405893172E+03  0.91405893172E+03  0.00000000000E+00 0.  1.
         21    1    1    2  503  502  0.19835471108E+02 -0.22576248453E+02 -0.81607235332E+02  0.86964784636E+02  0.00000000000E+00 0.  1.
         21    1    1    2  504  503  0.12141779054E+02 -0.11283124698E+03 -0.78092205048E+03  0.78912455419E+03  0.00000000000E+00 0.  1.
         21    1    1    2  505  504 -0.69098510232E+02  0.14796042776E+03  0.11490001183E+03  0.19967199357E+03  0.00000000000E+00 0.  1.
          3    1    1    2  501    0  0.37121260070E+02 -0.12552932320E+02  0.16005233909E+03  0.16477959615E+03  0.00000000000E+00 0.  1.
<scales pt_clust_3="30.05217" pt_clust_4="138.83434" pt_clust_5="14000.00000" pt_clust_6="39.26042"></scales>
<clustering>
<clus scale="   30.052">  2  3  1 -1</clus>
<clus scale="   39.260">  1  6  2 -1</clus>
<clus scale="  138.834">  2  4  1 -1</clus>
<clus scale="   30.052">  2  3  1 -1</clus>
</clustering>
</event>
<event>
 6    0  0.2572175E+002  0.1032689E+03  0.7546771E-02  0.1273568E+00
         21   -1    0    0  503  502  0.00000000000E+00  0.00000000000E+00  0.45222901442E+03  0.45222901442E+03  0.00000000000E+00 0. -1.
          2   -1    0    0  504    0 -0.00000000000E+00 -0.00000000000E+00 -0.72856166263E+03  0.72856166263E+03  0.00000000000E+00 0.  1.
         21    1    1    2  503  501 -0.60682773859E+02 -0.21436567839E+02  0.17295128557E+03  0.18453745599E+03  0.00000000000E+00 0. -1.
         21    1    1    2  504  505  0.33154562173E+02 -0.29494783806E+01 -0.57595430102E+03  0.57691531552E+03  0.00000000000E+00 0.  1.
         21    1    1    2  505  502 -0.34333584983E+02  0.74612354936E+02  0.25521131235E+03  0.26810186967E+03  0.00000000000E+00 0. -1.
          2    1    1    2  501    0  0.61861796669E+02 -0.50226308717E+02 -0.12854094512E+03  0.15123603587E+03  0.00000000000E+00 0.  1.
<scales pt_clust_3="63.20695" pt_clust_4="33.28550" pt_clust_5="103.26886" pt_clust_6="14000.00000"></scales>
<clustering>
<clus scale="   33.285">  2  4  1 -1</clus>
<clus scale="   63.207">  1  3  2 -1</clus>
<clus scale="  103.269">  1  5  2 -1</clus>
<clus scale="   63.207">  1  3  2 -1</clus>
</clustering>
</event>
<event>
 6    0  0.2572175E+002  0.1408900E+03  0.7546771E-02  0.1212136E+00
         21   -1    0    0  504  502  0.00000000000E+00  0.00000000000E+00  0.68420342171E+03  0.68420342171E+03  0.00000000000E+00 0. -1.
          2   -1    0    0  503    0 -0.00000000000E+00 -0.00000000000E+00 -0.11259438867E+04  0.11259438867E+04  0.00000000000E+00 0.  1.
         21    1    1    2  503  502 -0.28727547628E+02  0.45556030737E+02  0.49413954443E+02  0.73091468879E+02  0.00000000000E+00 0. -1.
         21    1    1    2  504  505  0.24524756054E+02 -0.72715552114E+02  0.40090558293E+03  0.40818415159E+03  0.00000000000E+00 0. -1.
         21    1    1    2  505  501  0.12670900318E+03 -0.42839611614E+02  0.19292214242E+03  0.23475382180E+03  0.00000000000E+00 0. -1.
          2    1    1    2  501    0 -0.12250621161E+03  0.69999132991E+02 -0.10849821448E+04  0.10941178661E+04  0.00000000000E+00 0.  1.
<scales pt_clust_3="53.85744" pt_clust_4="43.52890" pt_clust_5="14000.00000" pt_clust_6="140.89001"></scales>
<clustering>
<clus scale="   53.857">  1  3  2 -1</clus>
<clus scale="   43.529">  1  4  2 -1</clus>
<clus scale="  140.890">  2  6  1 -1</clus>
<clus scale="   53.857">  1  3  2 -1</clus>
</clustering>
</event>
<event>
 6    0  0.2572175E+002  0.9165828E+02  0.7546771E-02  0.1298885E+00
          1   -1    0    0  502    0 -0.00000000000E+00  0.00000000000E+00  0.96497155170E+03  0.96497155170E+03  0.00000000000E+00 0. -1.
         21   -1    0    0  505  502  0.00000000000E+00 -0.00000000000E+00 -0.80233481607E+02  0.80233481607E+02  0.00000000000E+00 0. -1.
         21    1    1    2  503  501  0.31544920443E+02 -0.56356396034E+02 -0.29424706530E+02  0.70971393773E+02  0.00000000000E+00 0. -1.
         21    1    1    2  504  503  0.64940317565E+02 -0.55834824790E+01  0.64470361871E+02  0.91677956357E+02  0.00000000000E+00 0. -1.
         21    1    1    2  505  504 -0.38698014734E+02 -0.11049125788E+02  0.15408021457E+02  0.43093232070E+02  0.00000000000E+00 0. -1.
          1    1    1    2  501    0 -0.57787223275E+02  0.72989004302E+02  0.83428439330E+03  0.83946245111E+03  0.00000000000E+00 0. -1.
<scales pt_clust_3="14000.00000" pt_clust_4="57.54848" pt_clust_5="40.24450" pt_clust_6="91.65828"></scales>
<clustering>
<clus scale="   40.244">  2  5  1 -1</clus>
<clus scale="   57.548">  2  4  1 -1</clus>
<clus scale="   91.658">  1  6  2 -1</clus>
<clus scale="   40.244">  2  3  1 -1</clus>
</clustering>
</event>
<event>
 6    0  0.2572175E+002  0.1573834E+03  0.7546771E-02  0.1191683E+00
         -1   -1    0    0    0  501 -0.00000000000E+00  0.00000000000E+00  0.50231102167E+03  0.50231102167E+03  0.00000000000E+00 0.  1.
         21   -1    0    0  503  502  0.00000000000E+00 -0.00000000000E+00 -0.58245769312E+03  0.58245769312E+03  0.00000000000E+00 0. -1.
         21    1    1    2  503  504  0.78010762114E+02  0.14043743167E+03 -0.43235935921E+03  0.46124068198E+03  0.00000000000E+00 0. -1.
         21    1    1    2  504  501 -0.37362928595E+02 -0.20030538825E+03  0.57884383125E+02  0.21182265886E+03  0.00000000000E+00 0.  1.
         21    1    1    2  505  502 -0.48609307042E+02  0.52384830993E+01 -0.45880034151E+02  0.67046878898E+02  0.00000000000E+00 0. -1.
         -1    1    1    2    0  505  0.79614735234E+01  0.54629473486E+02  0.34020833878E+03  0.34465849505E+03  0.00000000000E+00 0.  1.
<scales pt_clust_3="14000.00000" pt_clust_4="157.38340" pt_clust_5="48.89076" pt_clust_6="55.19922"></scales>
<clustering>
<clus scale="   48.891">  2  5  1 -1</clus>
<clus scale="   55.199">  1  6  2 -1</clus>
<clus scale="  157.383">  1  4  2 -1</clus>
<clus scale="   48.891">  2  3  1 -1</clus>
</clustering>
</event>
<event>
 6    0  0.2572175E+002  0.1195726E+03  0.7546771E-02  0.1243804E+00
         21   -1    0    0  504  502  0.00000000000E+00  0.00000000000E+00  0.10885105595E+03  0.10885105595E+03  0.00000000000E+00 0. -1.
          2   -1    0    0  505    0 -0.00000000000E+00 -0.00000000000E+00 -0.74639134485E+03  0.74639134485E+03  0.00000000000E+00 0.  1.
         21    1    1    2  503  501  0.93346809512E+02  0.11371350224E+03 -0.11438352468E+03  0.18635444227E+03  0.00000000000E+00 0. -1.
         21    1    1    2  504  503 -0.73672049940E+01 -0.53345817119E+02 -0.47963286361E+02  0.72114691652E+02  0.00000000000E+00 0.  1.
         21    1    1    2  505  502 -0.81715029525E+02  0.58523213420E+02  0.63897379648E+01  0.10071316354E+03  0.00000000000E+00 0. -1.
          2    1    1    2  501    0 -0.42645749931E+01 -0.11889089854E+03 -0.48158321582E+03  0.49606010333E+03  0.00000000000E+00 0.  1.
<scales pt_clust_3="14000.00000" pt_clust_4="53.85213" pt_clust_5="90.56183" pt_clust_6="119.57260"></scales>
<clustering>
<clus scale="   53.852">  1  4  2 -1</clus>
<clus scale="   90.562">  1  5  2 -1</clus>
<clus scale="  119.573">  2  6  1 -1</clus>
<clus scale="   53.852">  1  3  2 -1</clus>
</clustering>
</event>
<event>
 6    0  0.2572175E+002  0.1343438E+03  0.7546771E-02  0.1221149E+00
          1   -1    0    0  504    0 -0.00000000000E+00  0.00000000000E+00  0.16808441783E+04  0.16808441783E+04  0.00000000000E+00 0.  1.
         21   -1    0    0  501  502  0.00000000000E+00 -0.00000000000E+00 -0.78658584962E+02  0.78658584962E+02  0.00000000000E+00 0.  1.
         21    1    1    2  503  502 -0.29413257281E+02 -0.42002030318E+02  0.24580316450E+02  0.56863891983E+02  0.00000000000E+00 0.  1.
         21    1    1    2  504  505 -0.16198725267E+02 -0.12651281102E+03  0.27208056010E+03  0.30049246452E+03  0.00000000000E+00 0.  1.
         21    1    1    2  505  503  0.13546970631E+03  0.11937601361E+03  0.13078697569E+03  0.22295270118E+03  0.00000000000E+00 0.  1.
          1    1    1    2  501    0 -0.89857723761E+02  0.49138827733E+02  0.11747377411E+04  0.11791937056E+04  0.00000000000E+00 0.  1.
<scales pt_clust_3="51.27680" pt_clust_4="14000.00000" pt_clust_5="134.34384" pt_clust_6="102.63357"></scales>
<clustering>
<clus scale="   51.277">  2  3  1 -1</clus>
<clus scale="  102.634">  1  6  2 -1</clus>
<clus scale="  134.344">  2  5  1 -1</clus>
<clus scale="   51.277">  2  3  1 -1</clus>
</clustering>
</event>
<event>
 6    0  0.2572175E+002  0.1240100E+03  0.7546771E-02  0.1236625E+00
         21   -1    0    0  504  502  0.00000000000E+00  0.00000000000E+00  0.40478334391E+02  0.40478334391E+02  0.00000000000E+00 0.  1.
          2   -1    0    0  505    0 -0.00000000000E+00 -0.00000000000E+00 -0.25320767056E+04  0.25320767056E+04  0.00000000000E+00 0. -1.
         21    1    1    2  503  501  0.11334156121E+03  0.56380981324E+02 -0.75065841928E+03  0.76125763509E+03  0.00000000000E+00 0. -1.
         21    1    1    2  504  503 -0.17696928196E+02  0.24414151273E+02 -0.60944660135E+02  0.67996203195E+02  0.00000000000E+00 0.  1.
         21    1    1    2  505  502 -0.11259629784E+03 -0.56983315337E+01 -0.72666706811E+02  0.13412996514E+03  0.00000000000E+00 0.  1.
          2    1    1    2  501    0  0.16951664833E+02 -0.75096801063E+02 -0.16073285849E+04  0.16091712365E+04  0.00000000000E+00 0. -1.
<scales pt_clust_3="124.01001" pt_clust_4="30.15347" pt_clust_5="14000.00000" pt_clust_6="76.29594"></scales>
<clustering>
<clus scale="   30.153">  1  4  2 -1</clus>
<clus scale="   76.296">  2  6  1 -1</clus>
<clus scale="  124.010">  2  3  1 -1</clus>
<clus scale="   30.153">  1  3  2 -1</clus>
</clustering>
</event>
<event>
 6    0  0.2572175E+002  0.1041001E+03  0.7546771E-02  0.1271903E+00
          2   -1    0    0  503    0 -0.00000000000E+00  0.00000000000E+00  0.29969836546E+04  0.29969836546E+04  0.00000000000E+00 0. -1.
         21   -1    0    0  504  502  0.00000000000E+00 -0.00000000000E+00 -0.27922860967E+03  0.27922860967E+03  0.00000000000E+00 0.  1.
         21    1    1    2  503  505 -0.22843575460E+02  0.72886965195E+02  0.26832995743E+03  0.27898979316E+03  0.00000000000E+00 0.  1.
         21    1    1    2  504  501 -0.83163968770E+02 -0.42247965927E+02 -0.24710224139E+03  0.26412242243E+03  0.00000000000E+00 0.  1.
         21    1    1    2  505  502  0.29818974474E+02 -0.49114898150E+02  0.28892423845E+02  0.64313424840E+02  0.00000000000E+00 0. -1.
          2    1    1    2  501    0  0.76188569756E+02  0.18475898882E+02  0.26676349051E+04  0.26687866239E+04  0.00000000000E+00 0. -1.
<scales pt_clust_3="75.24643" pt_clust_4="104.10013" pt_clust_5="57.45820" pt_clust_6="14000.00000"></scales>
<clustering>
<clus scale="   57.458">  2  5  1 -1</clus>
<clus scale="   75.246">  1  3  2 -1</clus>
<clus scale="  104.100">  2  4  1 -1</clus>
<clus scale="   57.458">  2  3  1 -1</clus>
</clustering>
</event>
<event>
 6    0  0.2572175E+002  0.8634852E+02  0.7546771E-02  0.1311943E+00
          2   -1    0    0  504    0 -0.00000000000E+00  0.00000000000E+00  0.13347967365E+04  0.13347967365E+04  0.00000000000E+00 0.  1.
         21   -1    0    0  501  502  0.00000000000E+00 -0.00000000000E+00 -0.43996363190E+03  0.43996363190E+03  0.00000000000E+00 0. -1.
         21    1    1    2  503  502 -0.88664642716E+02  0.25011176081E+02 -0.30160958492E+03  0.31536537463E+03  0.00000000000E+00 0. -1.
         21    1    1    2  504  505 -0.44138004104E+02 -0.22176742274E+02  0.30467925477E+02  0.58036762376E+02  0.00000000000E+00 0.  1.
         21    1    1    2  505  503  0.79865801734E+02  0.31528196420E+02 -0.10114038038E+03  0.13267234075E+03  0.00000000000E+00 0. -1.
          2    1    1    2  501    0  0.52936845086E+02 -0.34362630226E+02  0.12671151444E+04  0.12686858907E+04  0.00000000000E+00 0.  1.
<scales pt_clust_3="86.34852" pt_clust_4="49.39607" pt_clust_5="14000.00000" pt_clust_6="56.96051"></scales>
<clustering>
<clus scale="   49.396">  1  4  2 -1</clus>
<clus scale="   56.961">  1  6  2 -1</clus>
<clus scale="   86.349">  2  3  1 -1</clus>
<clus scale="   86.349">  2  3  1 -1</clus>
</clustering>
</event>
<event>
 6    0  0.2572175E+002  0.1025059E+03  0.7546771E-02  0.1275113E+00
         21   -1    0    0  504  502  0.00000000000E+00  0.00000000000E+00  0.64407309810E+03  0.64407309810E+03  0.00000000000E+00 0. -1.
          2   -1    0    0  505    0 -0.00000000000E+00 -0.00000000000E+00 -0.68494889822E+03  0.68494889822E+03  0.00000000000E+00 0. -1.
         21    1    1    2  503  501  0.52139038280E+02  0.42483937079E+02  0.69700926750E+01  0.67616169771E+02  0.00000000000E+00 0. -1.
         21    1    1    2  504  503  0.23218647165E+02  0.30420782292E+02  0.10957999154E+03  0.11607025510E+03  0.00000000000E+00 0.  1.
         21    1    1    2  505  502 -0.80315549605E+02  0.30054384920E+02  0.48610018471E+03  0.49360636456E+03  0.00000000000E+00 0. -1.
          2    1    1    2  501    0  0.49578641594E+01 -0.10295910429E+03 -0.64352606905E+03  0.65172920690E+03  0.00000000000E+00 0. -1.
<scales pt_clust_3="69.87129" pt_clust_4="38.26917" pt_clust_5="14000.00000" pt_clust_6="102.50592"></scales>
<clustering>
<clus scale="   38.269">  1  4  2 -1</clus>
<clus scale="   69.871">  1  3  2 -1</clus>
<clus scale="  102.506">  2  6  1 -1</clus>
<clus scale="   38.269">  1  3  2 -1</clus>
</clustering>
</event>
<event>
 6    0  0.2572175E+002  0.1280847E+03  0.7546771E-02  0.1230326E+00
         21   -1    0    0  504  502  0.00000000000E+00  0.00000000000E+00  0.59052332072E+02  0.59052332072E+02  0.00000000000E+00 0. -1.
          2   -1    0    0  503    0 -0.00000000000E+00 -0.00000000000E+00 -0.17138566976E+04  0.17138566976E+04  0.00000000000E+00 0.  1.
         21    1    1    2  503  505  0.31928424845E+02  0.13034519981E+02 -0.17097390897E+03  0.17441731729E+03  0.00000000000E+00 0.  1.
         21    1    1    2  504  501 -0.10210762632E+03 -0.44960985306E+02 -0.27023565165E+02  0.11479429701E+03  0.00000000000E+00 0. -1.
         21    1    1    2  505  502 -0.28861970328E+01 -0.35916286899E+02 -0.15966158238E+02  0.39411013776E+02  0.00000000000E+00 0.  1.
          2    1    1    2  501    0  0.73065398510E+02  0.67842752225E+02 -0.14408407332E+04  0.14442864016E+04  0.00000000000E+00 0.  1.
<scales pt_clust_3="34.48656" pt_clust_4="14000.00000" pt_clust_5="35.75697" pt_clust_6="128.08472"></scales>
<clustering>
<clus scale="   34.487">  2  3  1 -1</clus>
<clus scale="   35.757">  1  5  2 -1</clus>
<clus scale="  128.085">  2  6  1 -1</clus>
<clus scale="   35.757">  1  3  2 -1</clus>
</clustering>
</event>
<event>
 6    0  0.2572175E+002  0.1367520E+03  0.7546771E-02  0.1217767E+00
          1   -1    0    0  503    0 -0.00000000000E+00  0.00000000000E+00  0.51178631413E+03  0.51178631413E+03  0.00000000000E+00 0.  1.
         21   -1    0    0  504  502  0.00000000000E+00 -0.00000000000E+00 -0.43646678302E+03  0.43646678302E+03  0.00000000000E+00 0.  1.
         21    1    1    2  503  502 -0.44413137367E+01 -0.83539835106E+02 -0.32593444356E+03  0.33649946630E+03  0.00000000000E+00 0.  1.
         21    1    1    2  504  505 -0.29727704033E+02 -0.22234308135E+02 -0.10661143864E+02  0.38623319818E+02  0.00000000000E+00 0.  1.
         21    1    1    2  505  501  0.84594777254E+02 -0.23366455679E+02 -0.42877282065E+02  0.97676654872E+02  0.00000000000E+00 0.  1.
          1    1    1    2  501    0 -0.50425759485E+02  0.12914059892E+03  0.45479240060E+03  0.47545365616E+03  0.00000000000E+00 0.  1.
<scales pt_clust_3="136.75198" pt_clust_4="37.12278" pt_clust_5="84.03226" pt_clust_6="14000.00000"></scales>
<clustering>
<clus scale="   37.123">  2  4  1 -1</clus>
<clus scale="   84.032">  2  5  1 -1</clus>
<clus scale="  136.752">  2  3  1 -1</clus>
<clus scale="   37.123">  2  3  1 -1</clus>
</clustering>
</event>
<event>
 6    0  0.4470171E+002  0.6754384E+02  0.7546771E-02  0.1368650E+00
         21   -1    0    0  503  502  0.00000000000E+00  0.00000000000E+00  0.33021048638E+03  0.33021048638E+03  0.00000000000E+00 0. -1.
          4   -1    0    0  505    0 -0.00000000000E+00 -0.00000000000E+00 -0.47493536834E+03  0.47493536834E+03  0.00000000000E+00 0.  1.
         21    1    1    2  503  501  0.71918949234E+01  0.11890739657E+03  0.27563973413E+03  0.30027979510E+03  0.00000000000E+00 0. -1.
         21    1    1    2  504  502 -0.22858954389E+02 -0.53034658477E+02  0.47071353420E+00  0.57753167591E+02  0.00000000000E+00 0.  1.
         21    1    1    2  505  504  0.29981182322E+02 -0.21390074519E+02 -0.16966305329E+02  0.40549501820E+02  0.00000000000E+00 0.  1.
          4    1    1    2  501    0 -0.14314122857E+02 -0.44482663577E+02 -0.40386902429E+03  0.40656339021E+03  0.00000000000E+00 0.  1.
<scales pt_clust_3="14000.00000" pt_clust_4="58.29623" pt_clust_5="36.82943" pt_clust_6="67.54384"></scales>
<clustering>
<clus scale="   36.829">  2  5  1 -1</clus>
<clus scale="   58.296">  1  4  2 -1</clus>
<clus scale="   67.544">  2  6  1 -1</clus>
<clus scale="   58.296">  1  3  2 -1</clus>
</clustering>
</event>
<event>
 6    0  0.2572175E+002  0.7733682E+02  0.7546771E-02  0.1336784E+00
         21   -1    0    0  505  502  0.00000000000E+00  0.00000000000E+00  0.97729443383E+02  0.97729443383E+02  0.00000000000E+00 0.  1.
          2   -1    0    0  503    0 -0.00000000000E+00 -0.00000000000E+00 -0.11691631246E+04  0.11691631246E+04  0.00000000000E+00 0.  1.
         21    1    1    2  503  504  0.98968667728E+02  0.14282236282E+02 -0.41724263589E+03  0.42905733495E+03  0.00000000000E+00 0.  1.
         21    1    1    2  504  502 -0.24128088483E+02  0.34933585611E+02  0.54726945753E+02  0.69264411128E+02  0.00000000000E+00 0.  1.
         21    1    1    2  505  501 -0.44270997772E+02  0.19990879184E+02  0.66375495322E+01  0.49026661707E+02  0.00000000000E+00 0. -1.
          2    1    1    2  501    0 -0.30569581472E+02 -0.69206701077E+02 -0.71555554064E+03  0.71954416024E+03  0.00000000000E+00 0.  1.
<scales pt_clust_3="14000.00000" pt_clust_4="42.45610" pt_clust_5="77.33682" pt_clust_6="74.44564"></scales>
<clustering>
<clus scale="   42.456">  1  4  2 -1</clus>
<clus scale="   74.446">  2  6  1 -1</clus>
<clus scale="   77.337">  1  5  2 -1</clus>
<clus scale="   42.456">  1  3  2 -1</clus>
</clustering>
</event>
<event>
 6    0  0.2572175E+002  0.1107538E+03  0.7546771E-02  0.1259180E+00
         21   -1    0    0  504  502  0.00000000000E+00  0.00000000000E+00  0.27612325402E+02  0.27612325402E+02  0.00000000000E+00 0.  1.
          4   -1    0    0  505    0 -0.00000000000E+00 -0.00000000000E+00 -0.90554970975E+03  0.90554970975E+03  0.00000000000E+00 0. -1.
         21    1    1    2  503  501  0.32588504513E+02  0.32367431110E+02 -0.78478840792E+02  0.90931785835E+02  0.00000000000E+00 0.  1.
         21    1    1    2  504  503  0.55057108754E+02  0.19267320186E+02 -0.48344017039E+02  0.75760536132E+02  0.00000000000E+00 0.  1.
         21    1    1    2  505  502 -0.39788438219E+01  0.33012990029E+02 -0.14266036485E+03  0.14648436233E+03  0.00000000000E+00 0.  1.
          4    1    1    2  501    0 -0.83666769446E+02 -0.84647741326E+02 -0.60845416167E+03  0.61998535086E+03  0.00000000000E+00 0. -1.
<scales pt_clust_3="32.65693" pt_clust_4="32.65693" pt_clust_5="33.25190" pt_clust_6="104.46053"></scales>
<clustering>
<clus scale="   32.657">  3  4 -1 -1</clus>
<clus scale="   33.252">  2  5  1 -1</clus>
<clus scale="  104.461">  2  6  1 -1</clus>
<clus scale="  110.754">  1  3  2 -1</clus>
</clustering>
</event>
<event>
 6    0  0.2572175E+002  0.1185912E+03  0.7546771E-02  0.1245439E+00
          1   -1    0    0  504    0 -0.00000000000E+00  0.00000000000E+00  0.68436646561E+03  0.68436646561E+03  0.00000000000E+00 0.  1.
         21   -1    0    0  505  502  0.00000000000E+00 -0.00000000000E+00 -0.16870036056E+04  0.16870036056E+04  0.00000000000E+00 0.  1.
         21    1    1    2  503  501  0.13795516586E+02 -0.94421695425E+02 -0.10780151341E+04  0.10822302907E+04  0.00000000000E+00 0.  1.
         21    1    1    2  504  502 -0.44851074962E+02  0.16227475137E+03 -0.26823621651E+03  0.31669446112E+03  0.00000000000E+00 0. -1.
         21    1    1    2  505  503 -0.31810581755E+02 -0.22006103093E+02 -0.31091283772E+03  0.31330970994E+03  0.00000000000E+00 0.  1.
          1    1    1    2  501    0  0.62866140130E+02 -0.45846952847E+02  0.65452704831E+03  0.65913560943E+03  0.00000000000E+00 0.  1.
<scales pt_clust_3="14000.00000" pt_clust_4="118.59124" pt_clust_5="38.68051" pt_clust_6="77.78674"></scales>
<clustering>
<clus scale="   38.681">  2  5  1 -1</clus>
<clus scale="   77.787">  1  6  2 -1</clus>
<clus scale="  118.591">  1  4  2 -1</clus>
<clus scale="   38.681">  2  3  1 -1</clus>
</clustering>
</event>
<event>
 6    0  0.2572175E+002  0.1163201E+03  0.7546771E-02  0.1249294E+00
          2   -1    0    0  505    0 -0.00000000000E+00  0.00000000000E+00  0.21658038949E+03  0.21658038949E+03  0.00000000000E+00 0. -1.
         21   -1    0    0  504  502  0.00000000000E+00 -0.00000000000E+00 -0.48209247191E+03  0.48209247191E+03  0.00000000000E+00 0. -1.
         21    1    1    2  503  502  0.96470907903E+02  0.11602846007E+03 -0.26716468140E+03  0.30683253838E+03  0.00000000000E+00 0. -1.
         21    1    1    2  504  501  0.89171809867E+01 -0.49160958137E+02 -0.14409269178E+03  0.15250908086E+03  0.00000000000E+00 0. -1.
         21    1    1    2  505  503 -0.47366437591E+02 -0.72762453059E+02  0.49814503715E+01  0.86964181322E+02  0.00000000000E+00 0. -1.
          2    1    1    2  501    0 -0.58021651299E+02  0.58949511224E+01  0.14076384039E+03  0.15236706084E+03  0.00000000000E+00 0. -1.
<scales pt_clust_3="116.32011" pt_clust_4="49.96315" pt_clust_5="14000.00000" pt_clust_6="58.08577"></scales>
<clustering>
<clus scale="   49.963">  2  4  1 -1</clus>
<clus scale="   58.086">  1  6  2 -1</clus>
<clus scale="  116.320">  2  3  1 -1</clus>
<clus scale="   49.963">  2  3  1 -1</clus>
</clustering>
</event>
<event>
 6    0  0.2572175E+002  0.6010604E+02  0.7546771E-02  0.1397387E+00
         21   -1    0    0  503  502  0.00000000000E+00  0.00000000000E+00  0.60637497196E+02  0.60637497196E+02  0.00000000000E+00 0. -1.
          1   -1    0    0  505    0 -0.00000000000E+00 -0.00000000000E+00 -0.16119322253E+04  0.16119322253E+04  0.00000000000E+00 0. -1.
         21    1    1    2  503  504  0.13257629998E+02  0.78916565761E+02 -0.16662791600E+02  0.81738838557E+02  0.00000000000E+00 0. -1.
         21    1    1    2  504  501  0.12492405546E+02 -0.85622195681E+02 -0.13575470838E+03  0.16098621505E+03  0.00000000000E+00 0. -1.
         21    1    1    2  505  502 -0.50527834703E+01 -0.40180692786E+02 -0.12304629352E+02  0.42325200496E+02  0.00000000000E+00 0. -1.
          1    1    1    2  501    0 -0.20697252074E+02  0.46886322705E+02 -0.13865725988E+04  0.13875194684E+04  0.00000000000E+00 0. -1.
<scales pt_clust_3="14000.00000" pt_clust_4="60.10604" pt_clust_5="40.49714" pt_clust_6="50.89160"></scales>
<clustering>
<clus scale="   40.497">  1  5  2 -1</clus>
<clus scale="   50.892">  2  6  1 -1</clus>
<clus scale="   60.106">  2  4  1 -1</clus>
<clus scale="   40.497">  1  3  2 -1</clus>
</clustering>
</event>
<event>
 6    0  0.2572175E+002  0.2025873E+03  0.7546771E-02  0.1147574E+00
          2   -1    0    0  505    0 -0.00000000000E+00  0.00000000000E+00  0.41785468805E+03  0.41785468805E+03  0.00000000000E+00 0.  1.
         21   -1    0    0  504  502  0.00000000000E+00 -0.00000000000E+00 -0.67703131092E+03  0.67703131092E+03  0.00000000000E+00 0.  1.
         21    1    1    2  503  502  0.46449056226E+02 -0.37573549857E+00 -0.38565211290E+02  0.60373268284E+02  0.00000000000E+00 0. -1.
         21    1    1    2  504  501  0.28800465611E+01  0.42584322041E+02 -0.51196180992E+03  0.51373788450E+03  0.00000000000E+00 0.  1.
         21    1    1    2  505  503 -0.29466461429E+02  0.17483762927E+03  0.28931309711E+02  0.17964823862E+03  0.00000000000E+00 0.  1.
          2    1    1    2  501    0 -0.19862641358E+02 -0.21704621581E+03  0.26241908863E+03  0.34112660758E+03  0.00000000000E+00 0.  1.
<scales pt_clust_3="48.92869" pt_clust_4="42.68160" pt_clust_5="14000.00000" pt_clust_6="202.58725"></scales>
<clustering>
<clus scale="   42.682">  2  4  1 -1</clus>
<clus scale="   48.929">  2  3  1 -1</clus>
<clus scale="  202.587">  1  6  2 -1</clus>
<clus scale="   42.682">  2  3  1 -1</clus>
</clustering>
</event>
<event>
 6    0  0.2572175E+002  0.1260405E+03  0.7546771E-02  0.1233452E+00
         21   -1    0    0  503  502  0.00000000000E+00  0.00000000000E+00  0.21883081873E+02  0.21883081873E+02  0.00000000000E+00 0.  1.
          2   -1    0    0  505    0 -0.00000000000E+00 -0.00000000000E+00 -0.48008330795E+04  0.48008330795E+04  0.00000000000E+00 0. -1.
         21    1    1    2  503  501  0.46160962165E+02  0.37151776835E+02 -0.24372146199E+03  0.25082113145E+03  0.00000000000E+00 0. -1.
         21    1    1    2  504  502  0.39090206910E+02 -0.51079440450E+02 -0.24850853717E+03  0.25669757801E+03  0.00000000000E+00 0. -1.
         21    1    1    2  505  504 -0.12202335635E+03 -0.10558494093E+03 -0.47946973061E+03  0.50589435835E+03  0.00000000000E+00 0.  1.
          2    1    1    2  501    0  0.36772187271E+02  0.11951260454E+03 -0.38072502678E+04  0.38093030935E+04  0.00000000000E+00 0. -1.
<scales pt_clust_3="59.25444" pt_clust_4="65.35009" pt_clust_5="126.04052" pt_clust_6="14000.00000"></scales>
<clustering>
<clus scale="   59.254">  1  3  2 -1</clus>
<clus scale="   65.350">  1  4  2 -1</clus>
<clus scale="  126.041">  1  5  2 -1</clus>
<clus scale="   59.254">  1  3  2 -1</clus>
</clustering>
</event>
<event>
 6    0  0.2572175E+002  0.6602999E+02  0.7546771E-02  0.1374138E+00
         21   -1    0    0  503  502  0.00000000000E+00  0.00000000000E+00  0.15528853523E+03  0.15528853523E+03  0.00000000000E+00 0.  1.
          2   -1    0    0  504    0 -0.00000000000E+00 -0.00000000000E+00 -0.82003415303E+03  0.82003415303E+03  0.00000000000E+00 0. -1.
         21    1    1    2  503  501  0.83667234503E+02 -0.92593687642E+02  0.25690092803E+02  0.12741184399E+03  0.00000000000E+00 0.  1.
         21    1    1    2  504  505 -0.44837593373E+02  0.73861195865E+01  0.54552126325E+02  0.70999288930E+02  0.00000000000E+00 0.  1.
         21    1    1    2  505  502 -0.21798405896E+02  0.22293101461E+02 -0.21863692546E+01  0.31255928763E+02  0.00000000000E+00 0. -1.
          2    1    1    2  501    0 -0.17031235234E+02  0.62914466595E+02 -0.74280146767E+03  0.74565562658E+03  0.00000000000E+00 0. -1.
<scales pt_clust_3="14000.00000" pt_clust_4="57.24541" pt_clust_5="31.17937" pt_clust_6="66.02999"></scales>
<clustering>
<clus scale="   31.179">  1  5  2 -1</clus>
<clus scale="   57.245">  1  4  2 -1</clus>
<clus scale="   66.030">  2  6  1 -1</clus>
<clus scale="   31.179">  1  3  2 -1</clus>
</clustering>
</event>
<event>
 6    0  0.2572175E+002  0.1091283E+03  0.7546771E-02  0.1262193E+00
         -3   -1    0    0    0  501 -0.00000000000E+00  0.00000000000E+00  0.35833754438E+03  0.35833754438E+03  0.00000000000E+00 0. -1.
         21   -1    0    0  503  502  0.00000000000E+00 -0.00000000000E+00 -0.67812525901E+03  0.67812525901E+03  0.00000000000E+00 0. -1.
         21    1    1    2  503  504  0.30124886712E+02 -0.27976644096E+02 -0.22946771250E+03  0.23312149728E+03  0.00000000000E+00 0. -1.
         21    1    1    2  504  501 -0.36141552374E+02  0.41434812204E+02 -0.27282376989E+02  0.61379015670E+02  0.00000000000E+00 0. -1.
         21    1    1    2  505  502  0.40401987502E+02  0.90366732581E+02 -0.38730111706E+03  0.39975070010E+03  0.00000000000E+00 0. -1.
         -3    1    1    2    0  505 -0.34385321839E+02 -0.10382490069E+03  0.32426349193E+03  0.34221159034E+03  0.00000000000E+00 0. -1.
<scales pt_clust_3="41.11206" pt_clust_4="50.92783" pt_clust_5="109.12830" pt_clust_6="14000.00000"></scales>
<clustering>
<clus scale="   41.112">  2  3  1 -1</clus>
<clus scale="   50.928">  2  4  1 -1</clus>
<clus scale="  109.128">  2  5  1 -1</clus>
<clus scale="   41.112">  2  3  1 -1</clus>
</clustering>
</event>
<event>
 6    0  0.2572175E+002  0.8288824E+02  0.7546771E-02  0.1321049E+00
          4   -1    0    0  505    0 -0.00000000000E+00  0.00000000000E+00  0.16694837939E+04  0.16694837939E+04  0.00000000000E+00 0.  1.
         21   -1    0    0  504  502  0.00000000000E+00 -0.00000000000E+00 -0.17603741426E+02  0.17603741426E+02  0.00000000000E+00 0. -1.
         21    1    1    2  503  501  0.10882165483E+03  0.49830888571E+01  0.75606599545E+03  0.76387353221E+03  0.00000000000E+00 0.  1.
         21    1    1    2  504  503 -0.35085604068E+02  0.30538798874E+02  0.12857136206E+03  0.13672678228E+03  0.00000000000E+00 0. -1.
         21    1    1    2  505  502 -0.20576068590E+02  0.23186388540E+02  0.24442911066E+02  0.39477070731E+02  0.00000000000E+00 0. -1.
          4    1    1    2  501    0 -0.53159982174E+02 -0.58708276271E+02  0.74279978388E+03  0.74701015009E+03  0.00000000000E+00 0.  1.
<scales pt_clust_3="82.88824" pt_clust_4="58.96512" pt_clust_5="30.99973" pt_clust_6="14000.00000"></scales>
<clustering>
<clus scale="   31.000">  2  5  1 -1</clus>
<clus scale="   58.965">  2  4  1 -1</clus>
<clus scale="   82.888">  2  3  1 -1</clus>
<clus scale="   31.000">  2  3  1 -1</clus>
</clustering>
</event>
<event>
 6    0  0.2572175E+002  0.9605575E+02  0.7546771E-02  0.1288816E+00
         21   -1    0    0  503  502  0.00000000000E+00  0.00000000000E+00  0.49046628673E+03  0.49046628673E+03  0.00000000000E+00 0. -1.
          2   -1    0    0  505    0 -0.00000000000E+00 -0.00000000000E+00 -0.21350601366E+03  0.21350601366E+03  0.00000000000E+00 0. -1.
         21    1    1    2  503  501  0.43678868399E+02  0.10264938537E+03 -0.93855678242E+02  0.14578624146E+03  0.00000000000E+00 0. -1.
         21    1    1    2  504  502 -0.24630090867E+02 -0.24573420099E+02  0.33064624854E+03  0.33247170710E+03  0.00000000000E+00 0. -1.
         21    1    1    2  505  504 -0.47664357006E+02 -0.47793595876E+02  0.11885205342E+03  0.13668185445E+03  0.00000000000E+00 0. -1.
          2    1    1    2  501    0  0.28615579474E+02 -0.30282369397E+02 -0.78682350641E+02  0.89032497367E+02  0.00000000000E+00 0. -1.
<scales pt_clust_3="96.05575" pt_clust_4="34.79216" pt_clust_5="14000.00000" pt_clust_6="41.70994"></scales>
<clustering>
<clus scale="   34.792">  1  4  2 -1</clus>
<clus scale="   41.710">  2  6  1 -1</clus>
<clus scale="   96.056">  2  3  1 -1</clus>
<clus scale="   34.792">  1  3  2 -1</clus>
</clustering>
</event>
<event>
 6    0  0.2572175E+002  0.1079947E+03  0.7546771E-02  0.1264329E+00
         21   -1    0    0  504  502  0.00000000000E+00  0.00000000000E+00  0.82988594925E+02  0.82988594925E+02  0.00000000000E+00 0.  1.
         -1   -1    0    0    0  501 -0.00000000000E+00 -0.00000000000E+00 -0.55687014055E+03  0.55687014055E+03  0.00000000000E+00 0. -1.
         21    1    1    2  503  501  0.25337965546E+02 -0.30509248049E+02  0.15360117207E+02  0.42529518163E+02  0.00000000000E+00 0.  1.
         21    1    1    2  504  503 -0.15009496319E+02 -0.52696811351E+02  0.11697117217E+02  0.56027327774E+02  0.00000000000E+00 0.  1.
         21    1    1    2  505  502  0.59152848188E+02  0.96249959680E+01 -0.46842834546E+02  0.76065439882E+02  0.00000000000E+00 0.  1.
         -1    1    1    2    0  505 -0.69481317415E+02  0.73581063432E+02 -0.45409594550E+03  0.46523644965E+03  0.00000000000E+00 0. -1.
<scales pt_clust_3="37.58250" pt_clust_4="37.58250" pt_clust_5="59.93079" pt_clust_6="98.54652"></scales>
<clustering>
<clus scale="   37.582">  3  4 -1 -1</clus>
<clus scale="   59.931">  1  5  2 -1</clus>
<clus scale="   98.547">  2  6  1 -1</clus>
<clus scale="   59.931">  1  3  2 -1</clus>
</clustering>
</event>
<event>
 6    0  0.2572175E+002  0.1531410E+03  0.7546771E-02  0.1196666E+00
          2   -1    0    0  503    0 -0.00000000000E+00  0.00000000000E+00  0.22485809234E+04  0.22485809234E+04  0.00000000000E+00 0. -1.
         21   -1    0    0  504  502  0.00000000000E+00 -0.00000000000E+00 -0.35046563681E+03  0.35046563681E+03  0.00000000000E+00 0. -1.
         21    1    1    2  503  505  0.62510195586E+02  0.88741954195E+01  0.16430804072E+03  0.17602104460E+03  0.00000000000E+00 0. -1.
         21    1    1    2  504  501 -0.44165191964E+02 -0.14132209427E+03 -0.31191532590E+03  0.34527332512E+03  0.00000000000E+00 0. -1.
         21    1    1    2  505  502  0.63437932549E+02  0.23373692085E+02  0.69949090051E+02  0.97280912654E+02  0.00000000000E+00 0. -1.
          2    1    1    2  501    0 -0.81782936172E+02  0.10907420676E+03  0.19757734817E+04  0.19804712779E+04  0.00000000000E+00 0. -1.
<scales pt_clust_3="52.17266" pt_clust_4="143.30897" pt_clust_5="52.17266" pt_clust_6="136.32913"></scales>
<clustering>
<clus scale="   52.173">  3  5 -1 -1</clus>
<clus scale="  136.329">  1  6  2 -1</clus>
<clus scale="  143.309">  2  4  1 -1</clus>
<clus scale="  143.309">  2  3  1 -1</clus>
</clustering>
</event>
<event>
 6    0  0.2572175E+002  0.1369787E+03  0.7546771E-02  0.1217453E+00
         -1   -1    0    0    0  501 -0.00000000000E+00  0.00000000000E+00  0.13127076354E+04  0.13127076354E+04  0.00000000000E+00 0. -1.
         21   -1    0    0  503  502  0.00000000000E+00 -0.00000000000E+00 -0.28425647868E+03  0.28425647868E+03  0.00000000000E+00 0.  1.
         21    1    1    2  503  505  0.19222567276E+02 -0.52735519585E+02 -0.69673166022E+02  0.89470063050E+02  0.00000000000E+00 0. -1.
         21    1    1    2  504  502  0.56045090997E+02  0.23341162582E+02  0.14836326331E+02  0.62497829358E+02  0.00000000000E+00 0. -1.
         21    1    1    2  505  501 -0.61197606253E+01 -0.81799168822E+02 -0.16795760520E+03  0.18691793021E+03  0.00000000000E+00 0.  1.
         -1    1    1    2    0  504 -0.69147897647E+02  0.11119352582E+03  0.12512456016E+04  0.12580782914E+04  0.00000000000E+00 0. -1.
<scales pt_clust_3="33.60829" pt_clust_4="60.71130" pt_clust_5="33.60829" pt_clust_6="130.81469"></scales>
<clustering>
<clus scale="   33.608">  3  5 -1 -1</clus>
<clus scale="   60.711">  2  4  1 -1</clus>
<clus scale="  130.815">  1  6  2 -1</clus>
<clus scale="   60.711">  2  3  1 -1</clus>
</clustering>
</event>
<event>
 6    0  0.2572175E+002  0.8798677E+02  0.7546771E-02  0.1307802E+00
         21   -1    0    0  505  502  0.00000000000E+00  0.00000000000E+00  0.28775838699E+03  0.28775838699E+03  0.00000000000E+00 0.  1.
          1   -1    0    0  504    0 -0.00000000000E+00 -0.00000000000E+00 -0.24438354594E+03  0.24438354594E+03  0.00000000000E+00 0.  1.
         21    1    1    2  503  502 -0.50463062915E+02  0.40120090075E+02  0.10482740865E+03  0.12306473074E+03  0.00000000000E+00 0.  1.
         21    1    1    2  504  503  0.59682888216E+02  0.83086731122E+02  0.11156263997E+03  0.15136602879E+03  0.00000000000E+00 0.  1.
         21    1    1    2  505  501  0.42333062885E+02 -0.53324687282E+02 -0.46185462052E+01  0.68241786729E+02  0.00000000000E+00 0.  1.
          1    1    1    2  501    0 -0.51552888186E+02 -0.69882133916E+02 -0.16839666137E+03  0.18946938666E+03  0.00000000000E+00 0.  1.
<scales pt_clust_3="64.46815" pt_clust_4="14000.00000" pt_clust_5="56.65464" pt_clust_6="87.98677"></scales>
<clustering>
<clus scale="   64.468">  1  3  2 -1</clus>
<clus scale="   56.655">  1  5  2 -1</clus>
<clus scale="   87.987">  2  6  1 -1</clus>
<clus scale="   64.468">  1  3  2 -1</clus>
</clustering>
</event>
<event>
 6    0  0.2572175E+002  0.1970222E+03  0.7546771E-02  0.1152276E+00
          1   -1    0    0  505    0 -0.00000000000E+00  0.00000000000E+00  0.35868365679E+04  0.35868365679E+04  0.00000000000E+00 0. -1.
         21   -1    0    0  504  502  0.00000000000E+00 -0.00000000000E+00 -0.15822648186E+03  0.15822648186E+03  0.00000000000E+00 0. -1.
         21    1    1    2  503  501 -0.16070549347E+02 -0.19314531233E+03  0.14927769945E+03  0.24463688557E+03  0.00000000000E+00 0. -1.
         21    1    1    2  504  503 -0.97275726835E+01 -0.29054832880E+02 -0.56984070660E+02  0.64699252646E+02  0.00000000000E+00 0.  1.
         21    1    1    2  505  502 -0.25706251468E+02  0.31640608920E+02 -0.37946765968E+02  0.55694672499E+02  0.00000000000E+00 0. -1.
          1    1    1    2  501    0  0.51504373498E+02  0.19055953629E+03  0.33742632232E+04  0.33800322391E+04  0.00000000000E+00 0. -1.
<scales pt_clust_3="14000.00000" pt_clust_4="30.63999" pt_clust_5="35.14850" pt_clust_6="197.02219"></scales>
<clustering>
<clus scale="   30.640">  2  4  1 -1</clus>
<clus scale="   35.149">  2  5  1 -1</clus>
<clus scale="  197.022">  1  6  2 -1</clus>
<clus scale="   30.640">  2  3  1 -1</clus>
</clustering>
</event>
<event>
 6    0  0.3183094E+002  0.1076116E+03  0.7546771E-02  0.1265058E+00
         21   -1    0    0  504  502  0.00000000000E+00  0.00000000000E+00  0.42592223142E+03  0.42592223142E+03  0.00000000000E+00 0.  1.
          2   -1    0    0  503    0 -0.00000000000E+00 -0.00000000000E+00 -0.56480955866E+03  0.56480955866E+03  0.00000000000E+00 0.  1.
         21    1    1    2  503  505 -0.20520329378E+02 -0.24368198342E+02 -0.18771136994E+02  0.36976324754E+02  0.00000000000E+00 0.  1.
         21    1    1    2  504  501  0.69363307209E+02  0.11225479749E+03  0.36000581138E+03  0.38342742751E+03  0.00000000000E+00 0.  1.
         21    1    1    2  505  502  0.69432170911E+01 -0.35888289524E+02  0.34394011037E+02  0.50190891442E+02  0.00000000000E+00 0. -1.
          2    1    1    2  501    0 -0.55786194922E+02 -0.51998309620E+02 -0.51451601266E+03  0.52013714637E+03  0.00000000000E+00 0.  1.
<scales pt_clust_3="31.85739" pt_clust_4="107.61156" pt_clust_5="36.85016" pt_clust_6="14000.00000"></scales>
<clustering>
<clus scale="   31.857">  2  3  1 -1</clus>
<clus scale="   36.850">  1  5  2 -1</clus>
<clus scale="  107.612">  1  4  2 -1</clus>
<clus scale="   36.850">  1  3  2 -1</clus>
</clustering>
</event>
<event>
 6    0  0.2572175E+002  0.7017750E+02  0.7546771E-02  0.1359490E+00
         21   -1    0    0  501  502  0.00000000000E+00  0.00000000000E+00  0.69157447963E+02  0.69157447963E+02  0.00000000000E+00 0.  1.
          2   -1    0    0  505    0 -0.00000000000E+00 -0.00000000000E+00 -0.99561039720E+03  0.99561039720E+03  0.00000000000E+00 0.  1.
         21    1    1    2  503  502 -0.20218565092E+02  0.23227720632E+02  0.21964502500E+02  0.37825345342E+02  0.00000000000E+00 0.  1.
         21    1    1    2  504  503  0.23242396172E+02  0.40902912136E+02 -0.12001754443E+02  0.48552026845E+02  0.00000000000E+00 0.  1.
         21    1    1    2  505  504 -0.29366526793E+01 -0.12985709853E+03 -0.19642953092E+03  0.23549108388E+03  0.00000000000E+00 0.  1.
          2    1    1    2  501    0 -0.87178400815E-01  0.65726465761E+02 -0.73998616637E+03  0.74289938910E+03  0.00000000000E+00 0.  1.
<scales pt_clust_3="30.79476" pt_clust_4="53.53221" pt_clust_5="14000.00000" pt_clust_6="70.17750"></scales>
<clustering>
<clus scale="   30.795">  1  3  2 -1</clus>
<clus scale="   53.532">  1  4  2 -1</clus>
<clus scale="   70.178">  2  6  1 -1</clus>
<clus scale="   30.795">  1  3  2 -1</clus>
</clustering>
</event>
<event>
 6    0  0.2572175E+002  0.1165269E+03  0.7546771E-02  0.1248939E+00
          1   -1    0    0  502    0 -0.00000000000E+00  0.00000000000E+00  0.98880046753E+03  0.98880046753E+03  0.00000000000E+00 0. -1.
         21   -1    0    0  504  502  0.00000000000E+00 -0.00000000000E+00 -0.72845346854E+02  0.72845346854E+02  0.00000000000E+00 0. -1.
         21    1    1    2  503  505  0.58702640498E+02 -0.13739436600E+02  0.22334130905E+02  0.64292966356E+02  0.00000000000E+00 0. -1.
         21    1    1    2  504  503 -0.11621190241E+02 -0.38068820063E+02 -0.10048877552E+02  0.41052004381E+02  0.00000000000E+00 0. -1.
         21    1    1    2  505  501 -0.13238820821E+03 -0.26709799753E+02  0.18904438724E+03  0.23233129670E+03  0.00000000000E+00 0. -1.
          1    1    1    2  501    0  0.85306757952E+02  0.78518056417E+02  0.71462548007E+03  0.72396954695E+03  0.00000000000E+00 0. -1.
<scales pt_clust_3="61.68726" pt_clust_4="39.80310" pt_clust_5="116.52686" pt_clust_6="14000.00000"></scales>
<clustering>
<clus scale="   39.803">  2  4  1 -1</clus>
<clus scale="   61.687">  2  3  1 -1</clus>
<clus scale="  116.527">  2  5  1 -1</clus>
<clus scale="   39.803">  2  3  1 -1</clus>
</clustering>
</event>
<event>
 6    0  0.2572175E+002  0.8775414E+02  0.7546771E-02  0.1308383E+00
         21   -1    0    0  505  502  0.00000000000E+00  0.00000000000E+00  0.33175099607E+03  0.33175099607E+03  0.00000000000E+00 0. -1.
          2   -1    0    0  504    0 -0.00000000000E+00 -0.00000000000E+00 -0.78798444673E+03  0.78798444673E+03  0.00000000000E+00 0.  1.
         21    1    1    2  503  501 -0.37272302270E+02 -0.96265487306E+01  0.14312583891E+02  0.41070001395E+02  0.00000000000E+00 0. -1.
         21    1    1    2  504  502  0.62192871435E+02  0.19809152532E+02  0.17143437354E+03  0.18343963643E+03  0.00000000000E+00 0. -1.
         21    1    1    2  505  503 -0.62089093694E+02 -0.70107337085E+02  0.10742279904E+03  0.14251228727E+03  0.00000000000E+00 0. -1.
          2    1    1    2  501    0  0.37168524529E+02  0.59924733283E+02 -0.74940320714E+03  0.75271351771E+03  0.00000000000E+00 0.  1.
<scales pt_clust_3="33.02200" pt_clust_4="65.27140" pt_clust_5="33.02200" pt_clust_6="71.04939"></scales>
<clustering>
<clus scale="   33.022">  3  5 -1 -1</clus>
<clus scale="   65.271">  1  4  2 -1</clus>
<clus scale="   71.049">  2  6  1 -1</clus>
<clus scale="   65.271">  1  3  2 -1</clus>
</clustering>
</event>
<event>
 6    0  0.2572175E+002  0.9953936E+02  0.7546771E-02  0.1281268E+00
         21   -1    0    0  503  502  0.00000000000E+00  0.00000000000E+00  0.25029179355E+03  0.25029179355E+03  0.00000000000E+00 0. -1.
          2   -1    0    0  502    0 -0.00000000000E+00 -0.00000000000E+00 -0.29548599747E+04  0.29548599747E+04  0.00000000000E+00 0. -1.
         21    1    1    2  503  505 -0.71316992169E+02 -0.50763247166E+01  0.16606112357E+03  0.18079872567E+03  0.00000000000E+00 0. -1.
         21    1    1    2  504  501  0.72209166020E+02 -0.35594039657E+02 -0.19760769979E+02  0.82895038130E+02  0.00000000000E+00 0. -1.
         21    1    1    2  505  504  0.37784020988E+02 -0.31308075120E+02  0.31253829110E+02  0.58177569937E+02  0.00000000000E+00 0. -1.
          2    1    1    2  501    0 -0.38676194839E+02  0.71978439493E+02 -0.28821223639E+04  0.28832804345E+04  0.00000000000E+00 0. -1.
<scales pt_clust_3="71.49743" pt_clust_4="44.12954" pt_clust_5="44.12954" pt_clust_6="81.93343"></scales>
<clustering>
<clus scale="   44.130">  4  5 -1 -1</clus>
<clus scale="   71.497">  1  3  2 -1</clus>
<clus scale="   81.933">  2  6  1 -1</clus>
<clus scale="   71.497">  1  3  2 -1</clus>
</clustering>
</event>
<event>
 6    0  0.2572175E+002  0.8533222E+02  0.7546771E-02  0.1314566E+00
          2   -1    0    0  503    0 -0.00000000000E+00  0.00000000000E+00  0.37454040430E+04  0.37454040430E+04  0.00000000000E+00 0. -1.
         21   -1    0    0  504  502  0.00000000000E+00 -0.00000000000E+00 -0.54358824086E+03  0.54358824086E+03  0.00000000000E+00 0. -1.
         21    1    1    2  503  505 -0.97158691687E+02 -0.81593534296E+02  0.12999886865E+03  0.18165082455E+03  0.00000000000E+00 0. -1.
         21    1    1    2  504  501  0.47551157353E+02 -0.28427482426E+02 -0.40357260072E+02  0.68541540420E+02  0.00000000000E+00 0.  1.
         21    1    1    2  505  502 -0.33616506674E+02  0.93636556902E+02 -0.45746242295E+03  0.46815568214E+03  0.00000000000E+00 0. -1.
          2    1    1    2  501    0  0.83224041008E+02  0.16384459819E+02  0.35696366165E+04  0.35706442367E+04  0.00000000000E+00 0. -1.
<scales pt_clust_3="85.33222" pt_clust_4="55.40067" pt_clust_5="67.70173" pt_clust_6="14000.00000"></scales>
<clustering>
<clus scale="   55.401">  2  4  1 -1</clus>
<clus scale="   67.702">  2  5  1 -1</clus>
<clus scale="   85.332">  2  3  1 -1</clus>
<clus scale="   55.401">  2  3  1 -1</clus>
</clustering>
</event>
<event>
 6    0  0.2572175E+002  0.9871512E+02  0.7546771E-02  0.1283021E+00
         21   -1    0    0  503  502  0.00000000000E+00  0.00000000000E+00  0.18152913123E+03  0.18152913123E+03  0.00000000000E+00 0.  1.
          2   -1    0    0  505    0 -0.00000000000E+00 -0.00000000000E+00 -0.16198960176E+04  0.16198960176E+04  0.00000000000E+00 0. -1.
         21    1    1    2  503  504  0.71157913280E+02 -0.69267355994E+02  0.12990347655E+03  0.16351247184E+03  0.00000000000E+00 0.  1.
         21    1    1    2  504  501  0.38000936238E+02  0.64239917187E+01 -0.15243371616E+01  0.38570227227E+02  0.00000000000E+00 0.  1.
         21    1    1    2  505  502 -0.76009934238E+02  0.56322759601E+02 -0.12286553536E+03  0.15506676991E+03  0.00000000000E+00 0. -1.
          2    1    1    2  501    0 -0.33148915280E+02  0.65206046742E+01 -0.14438804904E+04  0.14442756799E+04  0.00000000000E+00 0. -1.
<scales pt_clust_3="98.71512" pt_clust_4="34.96374" pt_clust_5="14000.00000" pt_clust_6="33.78415"></scales>
<clustering>
<clus scale="   33.784">  2  6  1 -1</clus>
<clus scale="   34.964">  2  4  1 -1</clus>
<clus scale="   98.715">  1  3  2 -1</clus>
<clus scale="   98.715">  1  3  2 -1</clus>
</clustering>
</event>
<event>
 6    0  0.5471541E+002  0.1199322E+03  0.7546771E-02  0.1243209E+00
          2   -1    0    0  504    0 -0.00000000000E+00  0.00000000000E+00  0.16574741278E+04  0.16574741278E+04  0.00000000000E+00 0.  1.
         21   -1    0    0  501  502  0.00000000000E+00 -0.00000000000E+00 -0.14475586746E+04  0.14475586746E+04  0.00000000000E+00 0.  1.
         21    1    1    2  503  505  0.87630650479E+01 -0.45121928230E+02 -0.27654158781E+02  0.53642634295E+02  0.00000000000E+00 0. -1.
         21    1    1    2  504  503 -0.40140187993E+01 -0.10833914507E+03  0.17396575110E+02  0.10980038035E+03  0.00000000000E+00 0. -1.
         21    1    1    2  505  502  0.29951639495E+02  0.10112984380E+03 -0.13580392814E+04  0.13621288617E+04  0.00000000000E+00 0.  1.
          2    1    1    2  501    0 -0.34700685743E+02  0.52331229496E+02  0.15782123184E+04  0.15794609261E+04  0.00000000000E+00 0.  1.
<scales pt_clust_3="35.87487" pt_clust_4="35.87487" pt_clust_5="106.52787" pt_clust_6="62.79088"></scales>
<clustering>
<clus scale="   35.875">  3  4 -1 -1</clus>
<clus scale="   62.791">  1  6  2 -1</clus>
<clus scale="  106.528">  2  5  1 -1</clus>
<clus scale="  106.528">  2  3  1 -1</clus>
</clustering>
</event>
<event>
 6    0  0.2572175E+002  0.1211932E+03  0.7546771E-02  0.1241142E+00
         21   -1    0    0  504  502  0.00000000000E+00  0.00000000000E+00  0.19857025649E+03  0.19857025649E+03  0.00000000000E+00 0. -1.
          2   -1    0    0  505    0 -0.00000000000E+00 -0.00000000000E+00 -0.16323864300E+04  0.16323864300E+04  0.00000000000E+00 0.  1.
         21    1    1    2  503  502  0.21468701657E+02  0.41758464047E+02  0.31881212672E+02  0.56754613838E+02  0.00000000000E+00 0.  1.
         21    1    1    2  504  501 -0.80819262593E+02  0.73494988827E+02  0.12424229775E+03  0.16543704282E+03  0.00000000000E+00 0. -1.
         21    1    1    2  505  503  0.64760935572E+02 -0.62617866922E+02 -0.21898731572E+03  0.23679193500E+03  0.00000000000E+00 0. -1.
          2    1    1    2  501    0 -0.54103746351E+01 -0.52635585953E+02 -0.13709523682E+04  0.13719730948E+04  0.00000000000E+00 0.  1.
<scales pt_clust_3="46.95396" pt_clust_4="121.19319" pt_clust_5="14000.00000" pt_clust_6="52.76825"></scales>
<clustering>
<clus scale="   46.954">  1  3  2 -1</clus>
<clus scale="   52.768">  2  6  1 -1</clus>
<clus scale="  121.193">  1  4  2 -1</clus>
<clus scale="   46.954">  1  3  2 -1</clus>
</clustering>
</event>
<event>
 6    0  0.2572175E+002  0.9135821E+02  0.7546771E-02  0.1299596E+00
          1   -1    0    0  505    0 -0.00000000000E+00  0.00000000000E+00  0.46279431146E+03  0.46279431146E+03  0.00000000000E+00 0.  1.
         21   -1    0    0  503  502  0.00000000000E+00 -0.00000000000E+00 -0.37329771321E+03  0.37329771321E+03  0.00000000000E+00 0.  1.
         21    1    1    2  503  504 -0.18482079695E+02 -0.88476387550E+02 -0.12736380718E+03  0.15617681583E+03  0.00000000000E+00 0.  1.
         21    1    1    2  504  501  0.44370424170E+02  0.60365585507E+01 -0.24591737235E+02  0.51087455607E+02  0.00000000000E+00 0.  1.
         21    1    1    2  505  502 -0.70252493408E+02  0.88468186250E+02 -0.17591566654E+03  0.20906543124E+03  0.00000000000E+00 0.  1.
          1    1    1    2  501    0  0.44364148933E+02 -0.60283572512E+01  0.41736780920E+03  0.41976232199E+03  0.00000000000E+00 0.  1.
<scales pt_clust_3="14000.00000" pt_clust_4="57.81371" pt_clust_5="91.35821" pt_clust_6="44.77185"></scales>
<clustering>
<clus scale="   44.772">  1  6  2 -1</clus>
<clus scale="   57.814">  1  4  2 -1</clus>
<clus scale="   91.358">  1  5  2 -1</clus>
<clus scale="   91.358">  2  3  1 -1</clus>
</clustering>
</event>
<event>
 6    0  0.2572175E+002  0.8002307E+02  0.7546771E-02  0.1328986E+00
          1   -1    0    0  504    0 -0.00000000000E+00  0.00000000000E+00  0.15859403508E+03  0.15859403508E+03  0.00000000000E+00 0.  1.
         21   -1    0    0  501  502  0.00000000000E+00 -0.00000000000E+00 -0.40195533244E+03  0.40195533244E+03  0.00000000000E+00 0.  1.
         21    1    1    2  503  502 -0.10950916720E+02  0.54365092723E+02 -0.82150864728E+02  0.99117357003E+02  0.00000000000E+00 0. -1.
         21    1    1    2  504  505 -0.23880728985E+02 -0.48507590447E+02  0.49955459616E+02  0.73612658512E+02  0.00000000000E+00 0. -1.
         21    1    1    2  505  503  0.92536899713E+02 -0.55518226978E+02 -0.27054244981E+03  0.29127061040E+03  0.00000000000E+00 0.  1.
          1    1    1    2  501    0 -0.57705254008E+02  0.49660724702E+02  0.59376557560E+02  0.96548741606E+02  0.00000000000E+00 0.  1.
<scales pt_clust_3="51.78412" pt_clust_4="54.06732" pt_clust_5="80.02307" pt_clust_6="14000.00000"></scales>
<clustering>
<clus scale="   54.067">  1  4  2 -1</clus>
<clus scale="   51.784">  2  3  1 -1</clus>
<clus scale="   80.023">  2  5  1 -1</clus>
<clus scale="   51.784">  2  3  1 -1</clus>
</clustering>
</event>
<event>
 6    0  0.2572175E+002  0.1505234E+03  0.7546771E-02  0.1199831E+00
          2   -1    0    0  503    0 -0.00000000000E+00  0.00000000000E+00  0.19256851224E+04  0.19256851224E+04  0.00000000000E+00 0. -1.
         21   -1    0    0  504  502  0.00000000000E+00 -0.00000000000E+00 -0.14187171059E+03  0.14187171059E+03  0.00000000000E+00 0.  1.
         21    1    1    2  503  505  0.60629913747E+02  0.20631691499E+03  0.92730164598E+03  0.95190913352E+03  0.00000000000E+00 0. -1.
         21    1    1    2  504  501  0.30962980204E+02 -0.63338043994E+01  0.50732100855E+02  0.59770973545E+02  0.00000000000E+00 0.  1.
         21    1    1    2  505  502 -0.76915352958E+02 -0.73149549581E+02 -0.97193359907E+02  0.14392142764E+03  0.00000000000E+00 0.  1.
          2    1    1    2  501    0 -0.14677540993E+02 -0.12683356101E+03  0.90297302488E+03  0.91195529829E+03  0.00000000000E+00 0. -1.
<scales pt_clust_3="14000.00000" pt_clust_4="31.60416" pt_clust_5="93.10745" pt_clust_6="150.52339"></scales>
<clustering>
<clus scale="   31.604">  2  4  1 -1</clus>
<clus scale="   93.107">  2  5  1 -1</clus>
<clus scale="  150.523">  1  6  2 -1</clus>
<clus scale="   31.604">  2  3  1 -1</clus>
</clustering>
</event>
<event>
 6    0  0.2572175E+002  0.2192889E+03  0.7546771E-02  0.1134414E+00
         21   -1    0    0  503  502  0.00000000000E+00  0.00000000000E+00  0.11052095607E+04  0.11052095607E+04  0.00000000000E+00 0.  1.
          3   -1    0    0  504    0 -0.00000000000E+00 -0.00000000000E+00 -0.17111689146E+03  0.17111689146E+03  0.00000000000E+00 0.  1.
         21    1    1    2  503  501 -0.20477263989E+02 -0.14865140314E+03  0.45163871910E+02  0.15670460530E+03  0.00000000000E+00 0.  1.
         21    1    1    2  504  505  0.35436030414E+02  0.12531494348E+03  0.42901954669E+03  0.44834954974E+03  0.00000000000E+00 0.  1.
         21    1    1    2  505  502  0.75824528736E+02  0.56571534336E+02  0.53846010437E+03  0.54670740040E+03  0.00000000000E+00 0.  1.
          3    1    1    2  501    0 -0.90783295161E+02 -0.33235074681E+02 -0.78550853742E+02  0.12456489671E+03  0.00000000000E+00 0.  1.
<scales pt_clust_3="198.56432" pt_clust_4="79.31473" pt_clust_5="79.31473" pt_clust_6="96.67563"></scales>
<clustering>
<clus scale="   79.315">  4  5 -1 -1</clus>
<clus scale="   96.676">  2  6  1 -1</clus>
<clus scale="  198.564">  2  3  1 -1</clus>
<clus scale="  219.289">  1  3  2 -1</clus>
</clustering>
</event>
<event>
 6    0  0.2572175E+002  0.1751841E+03  0.7546771E-02  0.1172547E+00
          2   -1    0    0  505    0 -0.00000000000E+00  0.00000000000E+00  0.15796463657E+04  0.15796463657E+04  0.00000000000E+00 0. -1.
         21   -1    0    0  503  502  0.00000000000E+00 -0.00000000000E+00 -0.68055657116E+02  0.68055657116E+02  0.00000000000E+00 0. -1.
         21    1    1    2  503  501 -0.14079220299E+03  0.56613883415E+02  0.59197513845E+03  0.61111548889E+03  0.00000000000E+00 0. -1.
         21    1    1    2  504  502  0.90877561368E+02 -0.86573558176E+02  0.32528250484E+02  0.12966032244E+03  0.00000000000E+00 0. -1.
         21    1    1    2  505  504  0.33291585923E+02 -0.31835191815E+02  0.52312516885E+02  0.69702285142E+02  0.00000000000E+00 0. -1.
          2    1    1    2  501    0  0.16623055700E+02  0.61794866576E+02  0.83477480272E+03  0.83722392630E+03  0.00000000000E+00 0. -1.
<scales pt_clust_3="166.07400" pt_clust_4="33.77794" pt_clust_5="33.77794" pt_clust_6="63.99165"></scales>
<clustering>
<clus scale="   33.778">  4  5 -1 -1</clus>
<clus scale="   63.992">  1  6  2 -1</clus>
<clus scale="  166.074">  1  3  2 -1</clus>
<clus scale="  175.184">  2  3  1 -1</clus>
</clustering>
</event>
<event>
 6    0  0.2572175E+002  0.1089780E+03  0.7546771E-02  0.1262474E+00
         -1   -1    0    0    0  501 -0.00000000000E+00  0.00000000000E+00  0.61423223326E+02  0.61423223326E+02  0.00000000000E+00 0.  1.
         21   -1    0    0  503  502  0.00000000000E+00 -0.00000000000E+00 -0.53200753807E+03  0.53200753807E+03  0.00000000000E+00 0. -1.
         21    1    1    2  503  501 -0.12264244308E+03 -0.24602919168E+02 -0.14090150567E+03  0.18841365868E+03  0.00000000000E+00 0. -1.
         21    1    1    2  504  505 -0.21473444173E+01  0.46919189105E+02 -0.10975287452E+03  0.11938054640E+03  0.00000000000E+00 0. -1.
         21    1    1    2  505  502  0.31232332719E+02  0.41219532177E+02 -0.13390536506E+03  0.14354495892E+03  0.00000000000E+00 0.  1.
         -1    1    1    2    0  504  0.93557454776E+02 -0.63535802115E+02 -0.86024569504E+02  0.14209159740E+03  0.00000000000E+00 0.  1.
<scales pt_clust_3="108.97804" pt_clust_4="32.26303" pt_clust_5="98.79516" pt_clust_6="14000.00000"></scales>
<clustering>
<clus scale="   32.263">  4  5 -1 -1</clus>
<clus scale="   98.795">  2  4  1 -1</clus>
<clus scale="  108.978">  2  3  1 -1</clus>
<clus scale="   98.795">  2  3  1 -1</clus>
</clustering>
</event>
<event>
 6    0  0.2572175E+002  0.1416288E+03  0.7546771E-02  0.1211154E+00
         21   -1    0    0  504  502  0.00000000000E+00  0.00000000000E+00  0.29396171828E+03  0.29396171828E+03  0.00000000000E+00 0. -1.
          2   -1    0    0  503    0 -0.00000000000E+00 -0.00000000000E+00 -0.12407126527E+04  0.12407126527E+04  0.00000000000E+00 0. -1.
         21    1    1    2  503  505  0.33935009230E+00 -0.67282471498E+02  0.93674194888E+02  0.11533386717E+03  0.00000000000E+00 0. -1.
         21    1    1    2  504  501 -0.10325376810E+02  0.96278175848E+02 -0.60512984454E+03  0.61282805851E+03  0.00000000000E+00 0. -1.
         21    1    1    2  505  502 -0.30357061955E+02 -0.64030058785E+02  0.17764027321E+03  0.19125236287E+03  0.00000000000E+00 0. -1.
          2    1    1    2  501    0  0.40343088672E+02  0.35034354435E+02 -0.61293555798E+03  0.61526008243E+03  0.00000000000E+00 0. -1.
<scales pt_clust_3="46.11330" pt_clust_4="133.48851" pt_clust_5="46.11330" pt_clust_6="53.43193"></scales>
<clustering>
<clus scale="   46.113">  3  5 -1 -1</clus>
<clus scale="   53.432">  2  6  1 -1</clus>
<clus scale="  133.489">  2  4  1 -1</clus>
<clus scale="  141.629">  1  3  2 -1</clus>
</clustering>
</event>
<event>
 6    0  0.2572175E+002  0.6581268E+02  0.7546771E-02  0.1374940E+00
          2   -1    0    0  503    0 -0.00000000000E+00  0.00000000000E+00  0.33579877782E+04  0.33579877782E+04  0.00000000000E+00 0. -1.
         21   -1    0    0  504  502  0.00000000000E+00 -0.00000000000E+00 -0.15216413203E+03  0.15216413203E+03  0.00000000000E+00 0.  1.
         21    1    1    2  503  505 -0.25664627324E+02 -0.62532695221E+02  0.37670915056E+02  0.77382872190E+02  0.00000000000E+00 0.  1.
         21    1    1    2  504  501  0.72028543627E+02  0.14891249744E+02 -0.80732650622E+02  0.10921364975E+03  0.00000000000E+00 0.  1.
         21    1    1    2  505  502 -0.42689728096E+02 -0.18147289446E+02 -0.22465753725E+02  0.51540732334E+02  0.00000000000E+00 0.  1.
          2    1    1    2  501    0 -0.36741882074E+01  0.65788734923E+02  0.32713511355E+04  0.32720146560E+04  0.00000000000E+00 0. -1.
<scales pt_clust_3="14000.00000" pt_clust_4="36.82241" pt_clust_5="46.38682" pt_clust_6="65.81268"></scales>
<clustering>
<clus scale="   46.387">  2  5  1 -1</clus>
<clus scale="   36.822">  2  4  1 -1</clus>
<clus scale="   65.813">  1  6  2 -1</clus>
<clus scale="   46.387">  2  3  1 -1</clus>
</clustering>
</event>
<event>
 6    0  0.2572175E+002  0.2326372E+03  0.7546771E-02  0.1124797E+00
          2   -1    0    0  504    0 -0.00000000000E+00  0.00000000000E+00  0.17757459785E+04  0.17757459785E+04  0.00000000000E+00 0. -1.
         21   -1    0    0  505  502  0.00000000000E+00 -0.00000000000E+00 -0.29434345667E+03  0.29434345667E+03  0.00000000000E+00 0.  1.
         21    1    1    2  503  501 -0.41279166027E+02 -0.57024866947E+02 -0.67881761898E+02  0.97794368941E+02  0.00000000000E+00 0.  1.
         21    1    1    2  504  502  0.75312949743E+02 -0.96721911279E+02  0.62031636102E+02  0.13738665291E+03  0.00000000000E+00 0. -1.
         21    1    1    2  505  503 -0.26363916844E+02 -0.76934911168E+02 -0.15578641744E+03  0.17573686161E+03  0.00000000000E+00 0.  1.
          2    1    1    2  501    0 -0.76698668729E+01  0.23068168939E+03  0.16430390650E+04  0.16591715517E+04  0.00000000000E+00 0. -1.
<scales pt_clust_3="44.33812" pt_clust_4="122.58535" pt_clust_5="44.33812" pt_clust_6="227.70377"></scales>
<clustering>
<clus scale="   44.338">  3  5 -1 -1</clus>
<clus scale="  122.585">  2  4  1 -1</clus>
<clus scale="  227.704">  1  6  2 -1</clus>
<clus scale="  122.585">  2  3  1 -1</clus>
</clustering>
</event>
<event>
 6    0  0.2572175E+002  0.1432246E+03  0.7546771E-02  0.1209055E+00
         21   -1    0    0  503  502  0.00000000000E+00  0.00000000000E+00  0.10123828493E+04  0.10123828493E+04  0.00000000000E+00 0. -1.
          2   -1    0    0  504    0 -0.00000000000E+00 -0.00000000000E+00 -0.13511419262E+04  0.13511419262E+04  0.00000000000E+00 0.  1.
         21    1    1    2  503  505 -0.92591835228E+02 -0.84777554528E+02  0.52957274158E+03  0.54424973158E+03  0.00000000000E+00 0. -1.
         21    1    1    2  504  502 -0.10993024729E+03  0.38976079762E+02 -0.83435194608E+02  0.14340580798E+03  0.00000000000E+00 0. -1.
         21    1    1    2  505  501  0.17799890879E+03  0.97278858752E+02  0.42168713217E+03  0.46793891197E+03  0.00000000000E+00 0. -1.
          2    1    1    2  501    0  0.24523173729E+02 -0.51477383986E+02 -0.12065837561E+04  0.12079303240E+04  0.00000000000E+00 0.  1.
<scales pt_clust_3="14000.00000" pt_clust_4="90.61347" pt_clust_5="143.22464" pt_clust_6="57.02023"></scales>
<clustering>
<clus scale="   57.020">  2  6  1 -1</clus>
<clus scale="   90.613">  2  4  1 -1</clus>
<clus scale="  143.225">  2  5  1 -1</clus>
<clus scale="  143.225">  1  3  2 -1</clus>
</clustering>
</event>
<event>
 6    0  0.2572175E+002  0.1250217E+03  0.7546771E-02  0.1235035E+00
          2   -1    0    0  504    0 -0.00000000000E+00  0.00000000000E+00  0.82353087631E+03  0.82353087631E+03  0.00000000000E+00 0. -1.
         21   -1    0    0  503  502  0.00000000000E+00 -0.00000000000E+00 -0.17897342501E+03  0.17897342501E+03  0.00000000000E+00 0. -1.
         21    1    1    2  503  505 -0.11699529426E+03  0.21403686044E+01 -0.12948030931E+03  0.17452114644E+03  0.00000000000E+00 0. -1.
         21    1    1    2  504  502 -0.11643623997E+02 -0.35840213972E+02  0.42381105537E+00  0.37686529864E+02  0.00000000000E+00 0. -1.
         21    1    1    2  505  501  0.87444394879E+02  0.10135887237E+02  0.26007019318E+03  0.27456468052E+03  0.00000000000E+00 0. -1.
          2    1    1    2  501    0  0.41194523379E+02  0.23563958132E+02  0.51354375637E+03  0.51573194451E+03  0.00000000000E+00 0. -1.
<scales pt_clust_3="125.02167" pt_clust_4="37.68415" pt_clust_5="14000.00000" pt_clust_6="47.26779"></scales>
<clustering>
<clus scale="   37.684">  2  4  1 -1</clus>
<clus scale="   47.268">  1  6  2 -1</clus>
<clus scale="  125.022">  2  3  1 -1</clus>
<clus scale="   37.684">  2  3  1 -1</clus>
</clustering>
</event>
<event>
 6    0  0.2572175E+002  0.1238352E+03  0.7546771E-02  0.1236901E+00
         21   -1    0    0  505  502  0.00000000000E+00  0.00000000000E+00  0.96636249997E+02  0.96636249997E+02  0.00000000000E+00 0.  1.
          2   -1    0    0  503    0 -0.00000000000E+00 -0.00000000000E+00 -0.22931485667E+04  0.22931485667E+04  0.00000000000E+00 0. -1.
         21    1    1    2  503  504  0.92805721548E+02  0.50834558260E+02 -0.10550684987E+03  0.14942807512E+03  0.00000000000E+00 0. -1.
         21    1    1    2  504  502 -0.60342180795E+02  0.13972358410E+02 -0.72589946175E+02  0.95423822332E+02  0.00000000000E+00 0.  1.
         21    1    1    2  505  501 -0.74752371750E+02  0.53186817907E+02  0.27036740328E+02  0.95643818456E+02  0.00000000000E+00 0.  1.
          2    1    1    2  501    0  0.42288830998E+02 -0.11799373458E+03 -0.20454522610E+04  0.20492891008E+04  0.00000000000E+00 0. -1.
<scales pt_clust_3="94.50741" pt_clust_4="61.93872" pt_clust_5="14000.00000" pt_clust_6="123.83522"></scales>
<clustering>
<clus scale="   61.939">  1  4  2 -1</clus>
<clus scale="   94.507">  1  3  2 -1</clus>
<clus scale="  123.835">  2  6  1 -1</clus>
<clus scale="   61.939">  1  3  2 -1</clus>
</clustering>
</event>
<event>
 6    0  0.2572175E+002  0.2529549E+03  0.7546771E-02  0.1111452E+00
          2   -1    0    0  503    0 -0.00000000000E+00  0.00000000000E+00  0.11422726146E+04  0.11422726146E+04  0.00000000000E+00 0. -1.
         21   -1    0    0  505  502  0.00000000000E+00 -0.00000000000E+00 -0.26836643390E+03  0.26836643390E+03  0.00000000000E+00 0. -1.
         21    1    1    2  503  504 -0.73065219034E+02 -0.10329128513E+02  0.11460857054E+03  0.13630972662E+03  0.00000000000E+00 0. -1.
         21    1    1    2  504  502 -0.22509032930E+03  0.47231073600E+02 -0.10447704353E+02  0.23022941859E+03  0.00000000000E+00 0. -1.
         21    1    1    2  505  501  0.29855819144E+03  0.78942174923E+02  0.47293073336E+02  0.31241878215E+03  0.00000000000E+00 0. -1.
          2    1    1    2  501    0 -0.40264309846E+00 -0.11584412001E+03  0.72245224116E+03  0.73168112113E+03  0.00000000000E+00 0. -1.
<scales pt_clust_3="73.79171" pt_clust_4="252.95489" pt_clust_5="14000.00000" pt_clust_6="134.00511"></scales>
<clustering>
<clus scale="   73.792">  1  3  2 -1</clus>
<clus scale="  134.005">  1  6  2 -1</clus>
<clus scale="  252.955">  2  4  1 -1</clus>
<clus scale="  252.955">  2  3  1 -1</clus>
</clustering>
</event>
<event>
 6    0  0.2572175E+002  0.2046188E+03  0.7546771E-02  0.1145900E+00
          1   -1    0    0  503    0 -0.00000000000E+00  0.00000000000E+00  0.20447469055E+04  0.20447469055E+04  0.00000000000E+00 0. -1.
         21   -1    0    0  505  502  0.00000000000E+00 -0.00000000000E+00 -0.85686612756E+03  0.85686612756E+03  0.00000000000E+00 0.  1.
         21    1    1    2  503  502 -0.28404883654E+02  0.11192528749E+03 -0.44781094518E+02  0.12385254870E+03  0.00000000000E+00 0. -1.
         21    1    1    2  504  501 -0.80531671689E+02  0.47085484513E+02  0.20880086517E+03  0.22869235731E+03  0.00000000000E+00 0.  1.
         21    1    1    2  505  504  0.15805148822E+03 -0.14168925785E+03 -0.74744292125E+03  0.77699873825E+03  0.00000000000E+00 0.  1.
          1    1    1    2  501    0 -0.49114932872E+02 -0.17321514154E+02  0.17713039285E+04  0.17720693888E+04  0.00000000000E+00 0. -1.
<scales pt_clust_3="115.03717" pt_clust_4="14000.00000" pt_clust_5="204.61876" pt_clust_6="52.07986"></scales>
<clustering>
<clus scale="   52.080">  1  6  2 -1</clus>
<clus scale="  115.037">  1  3  2 -1</clus>
<clus scale="  204.619">  2  5  1 -1</clus>
<clus scale="  204.619">  2  3  1 -1</clus>
</clustering>
</event>
<event>
 6    0  0.2572175E+002  0.2784689E+03  0.7546771E-02  0.1096528E+00
         21   -1    0    0  505  502  0.00000000000E+00  0.00000000000E+00  0.54354429854E+03  0.54354429854E+03  0.00000000000E+00 0.  1.
          1   -1    0    0  503    0 -0.00000000000E+00 -0.00000000000E+00 -0.90596276863E+03  0.90596276863E+03  0.00000000000E+00 0. -1.
         21    1    1    2  503  504  0.44272841684E+02 -0.15462683868E+03  0.13280967660E+03  0.20858560341E+03  0.00000000000E+00 0. -1.
         21    1    1    2  504  502  0.19412730301E+02 -0.98290898959E+02  0.29329984574E+02  0.10439445824E+03  0.00000000000E+00 0. -1.
         21    1    1    2  505  501 -0.34204564896E+02  0.28029980651E+03  0.24019409528E+03  0.37071705814E+03  0.00000000000E+00 0.  1.
          1    1    1    2  501    0 -0.29481007089E+02 -0.27382068874E+02 -0.76475222656E+03  0.76580994737E+03  0.00000000000E+00 0. -1.
<scales pt_clust_3="48.28555" pt_clust_4="48.28555" pt_clust_5="271.84726" pt_clust_6="40.23565"></scales>
<clustering>
<clus scale="   40.236">  2  6  1 -1</clus>
<clus scale="   48.286">  3  4 -1 -1</clus>
<clus scale="  271.847">  1  5  2 -1</clus>
<clus scale="  271.847">  1  3  2 -1</clus>
</clustering>
</event>
<event>
 6    0  0.2572175E+002  0.1721898E+03  0.7546771E-02  0.1175583E+00
          2   -1    0    0  505    0 -0.00000000000E+00  0.00000000000E+00  0.23215264800E+03  0.23215264800E+03  0.00000000000E+00 0.  1.
         21   -1    0    0  504  502  0.00000000000E+00 -0.00000000000E+00 -0.96378366109E+03  0.96378366109E+03  0.00000000000E+00 0. -1.
         21    1    1    2  503  502  0.12332417015E+03  0.26801798559E+02 -0.22627436846E+03  0.25908932277E+03  0.00000000000E+00 0. -1.
         21    1    1    2  504  501 -0.14870176568E+03 -0.50966245772E+02 -0.64645905976E+03  0.66529624173E+03  0.00000000000E+00 0. -1.
         21    1    1    2  505  503  0.45586282782E+02 -0.23773078703E+02 -0.51066763151E+02  0.72464355014E+02  0.00000000000E+00 0. -1.
          2    1    1    2  501    0 -0.20208687254E+02  0.47937525916E+02  0.19216917828E+03  0.19908638957E+03  0.00000000000E+00 0.  1.
<scales pt_clust_3="42.67227" pt_clust_4="158.68054" pt_clust_5="42.67227" pt_clust_6="52.02305"></scales>
<clustering>
<clus scale="   42.672">  3  5 -1 -1</clus>
<clus scale="   52.023">  1  6  2 -1</clus>
<clus scale="  158.681">  2  4  1 -1</clus>
<clus scale="  158.681">  2  3  1 -1</clus>
</clustering>
</event>
<event>
 6    0  0.2572175E+002  0.8806484E+02  0.7546771E-02  0.1307607E+00
          2   -1    0    0  504    0 -0.00000000000E+00  0.00000000000E+00  0.20650849378E+04  0.20650849378E+04  0.00000000000E+00 0. -1.
         21   -1    0    0  505  502  0.00000000000E+00 -0.00000000000E+00 -0.51968781783E+02  0.51968781783E+02  0.00000000000E+00 0.  1.
         21    1    1    2  503  501 -0.54469961606E+02 -0.30411282623E+02 -0.51368942540E+01  0.62595610954E+02  0.00000000000E+00 0.  1.
         21    1    1    2  504  502  0.10704556652E+02 -0.46465241587E+02  0.40764300927E+03  0.41042225722E+03  0.00000000000E+00 0.  1.
         21    1    1    2  505  503  0.52382400548E+01 -0.44367774841E+02  0.21038773856E+02  0.49381865179E+02  0.00000000000E+00 0.  1.
          2    1    1    2  501    0  0.38527164900E+02  0.12124429905E+03  0.15895712671E+04  0.15946539862E+04  0.00000000000E+00 0. -1.
<scales pt_clust_3="88.06484" pt_clust_4="49.31546" pt_clust_5="44.67593" pt_clust_6="14000.00000"></scales>
<clustering>
<clus scale="   44.676">  2  5  1 -1</clus>
<clus scale="   49.315">  1  4  2 -1</clus>
<clus scale="   88.065">  2  3  1 -1</clus>
<clus scale="   44.676">  2  3  1 -1</clus>
</clustering>
</event>
<event>
 6    0  0.2572175E+002  0.9835249E+02  0.7546771E-02  0.1283799E+00
          2   -1    0    0  504    0 -0.00000000000E+00  0.00000000000E+00  0.87215027404E+03  0.87215027404E+03  0.00000000000E+00 0.  1.
         21   -1    0    0  503  502  0.00000000000E+00 -0.00000000000E+00 -0.11368058074E+03  0.11368058074E+03  0.00000000000E+00 0. -1.
         21    1    1    2  503  501 -0.16853020029E+02 -0.72697745754E+02  0.48805375870E+02  0.89168106605E+02  0.00000000000E+00 0. -1.
         21    1    1    2  504  505 -0.36215098522E+02  0.89962888087E+02 -0.47166036430E+02  0.10784011121E+03  0.00000000000E+00 0. -1.
         21    1    1    2  505  502 -0.30804893471E+02  0.35670391329E+02  0.31375200405E+02  0.56619091125E+02  0.00000000000E+00 0.  1.
          2    1    1    2  501    0  0.83873012022E+02 -0.52935533662E+02  0.72545515345E+03  0.73220354584E+03  0.00000000000E+00 0.  1.
<scales pt_clust_3="69.49258" pt_clust_4="98.35249" pt_clust_5="47.13086" pt_clust_6="14000.00000"></scales>
<clustering>
<clus scale="   47.131">  2  5  1 -1</clus>
<clus scale="   69.493">  2  3  1 -1</clus>
<clus scale="   98.352">  2  4  1 -1</clus>
<clus scale="   47.131">  2  3  1 -1</clus>
</clustering>
</event>
<event>
 6    0  0.2572175E+002  0.7616555E+02  0.7546771E-02  0.1340299E+00
          2   -1    0    0  505    0 -0.00000000000E+00  0.00000000000E+00  0.43531303536E+03  0.43531303536E+03  0.00000000000E+00 0.  1.
         21   -1    0    0  503  502  0.00000000000E+00 -0.00000000000E+00 -0.19446075088E+03  0.19446075088E+03  0.00000000000E+00 0.  1.
         21    1    1    2  503  504 -0.27002112008E+02  0.25901936487E+02 -0.59956177880E+02  0.70673670010E+02  0.00000000000E+00 0. -1.
         21    1    1    2  504  501 -0.87024262825E+02 -0.79820340429E+01  0.16849373108E+03  0.18980798877E+03  0.00000000000E+00 0.  1.
         21    1    1    2  505  502  0.57258731860E+02  0.41606004259E+02 -0.10018846674E+03  0.12266764378E+03  0.00000000000E+00 0.  1.
          2    1    1    2  501    0  0.56767642973E+02 -0.59525906703E+02  0.23250319803E+03  0.24662448368E+03  0.00000000000E+00 0.  1.
<scales pt_clust_3="37.41690" pt_clust_4="14000.00000" pt_clust_5="72.41216" pt_clust_6="76.16555"></scales>
<clustering>
<clus scale="   37.417">  2  3  1 -1</clus>
<clus scale="   72.412">  2  5  1 -1</clus>
<clus scale="   76.166">  1  6  2 -1</clus>
<clus scale="   37.417">  2  3  1 -1</clus>
</clustering>
</event>
<event>
 6    0  0.2572175E+002  0.1136610E+03  0.7546771E-02  0.1253937E+00
         21   -1    0    0  503  502  0.00000000000E+00  0.00000000000E+00  0.46927613348E+02  0.46927613348E+02  0.00000000000E+00 0. -1.
          1   -1    0    0  502    0 -0.00000000000E+00 -0.00000000000E+00 -0.19131532572E+04  0.19131532572E+04  0.00000000000E+00 0. -1.
         21    1    1    2  503  504  0.46404082004E+02 -0.22275793705E+02 -0.87129207486E+01  0.52205984329E+02  0.00000000000E+00 0. -1.
         21    1    1    2  504  505  0.37176299005E+02 -0.56193192671E+02 -0.43783244369E+02  0.80353746632E+02  0.00000000000E+00 0.  1.
         21    1    1    2  505  501  0.96166265624E+01  0.96874728058E+02 -0.44621691186E+03  0.45671295676E+03  0.00000000000E+00 0. -1.
          1    1    1    2  501    0 -0.93197007571E+02 -0.18405741682E+02 -0.13675125669E+04  0.13708081828E+04  0.00000000000E+00 0. -1.
<scales pt_clust_3="35.75242" pt_clust_4="35.75242" pt_clust_5="106.04548" pt_clust_6="94.99712"></scales>
<clustering>
<clus scale="   35.752">  3  4 -1 -1</clus>
<clus scale="   94.997">  2  6  1 -1</clus>
<clus scale="  106.045">  2  5  1 -1</clus>
<clus scale="  113.661">  1  3  2 -1</clus>
</clustering>
</event>
<event>
 6    0  0.2572175E+002  0.4781938E+03  0.7546771E-02  0.1019633E+00
         21   -1    0    0  503  502  0.00000000000E+00  0.00000000000E+00  0.44640034784E+03  0.44640034784E+03  0.00000000000E+00 0. -1.
          2   -1    0    0  505    0 -0.00000000000E+00 -0.00000000000E+00 -0.25606999427E+04  0.25606999427E+04  0.00000000000E+00 0. -1.
         21    1    1    2  503  501  0.32552933424E+03 -0.23781726055E+03  0.27859734534E+03  0.49004375079E+03  0.00000000000E+00 0. -1.
         21    1    1    2  504  502  0.60323983302E+02 -0.50108417619E+02 -0.26773445219E+02  0.82865275276E+02  0.00000000000E+00 0.  1.
         21    1    1    2  505  504  0.25386885686E+02 -0.28933597795E+02 -0.67810724814E+02  0.77973979288E+02  0.00000000000E+00 0. -1.
          2    1    1    2  501    0 -0.41124020323E+03  0.31685927596E+03 -0.22983127702E+04  0.23562172852E+04  0.00000000000E+00 0. -1.
<scales pt_clust_3="14000.00000" pt_clust_4="79.25870" pt_clust_5="38.49217" pt_clust_6="478.19380"></scales>
<clustering>
<clus scale="   38.492">  2  5  1 -1</clus>
<clus scale="   79.259">  1  4  2 -1</clus>
<clus scale="  478.194">  2  6  1 -1</clus>
<clus scale="   79.259">  1  3  2 -1</clus>
</clustering>
</event>
<event>
 6    0  0.2572175E+002  0.9252455E+02  0.7546771E-02  0.1296851E+00
          1   -1    0    0  503    0 -0.00000000000E+00  0.00000000000E+00  0.11338511834E+03  0.11338511834E+03  0.00000000000E+00 0.  1.
         21   -1    0    0  505  502  0.00000000000E+00 -0.00000000000E+00 -0.92202888396E+03  0.92202888396E+03  0.00000000000E+00 0.  1.
         21    1    1    2  503  502 -0.44390134308E+02 -0.74856020669E+02 -0.47994059770E+03  0.48776724488E+03  0.00000000000E+00 0.  1.
         21    1    1    2  504  501 -0.85433434128E+01 -0.50248238429E+02 -0.57285169891E+02  0.76677668661E+02  0.00000000000E+00 0.  1.
         21    1    1    2  505  504  0.46917183286E+02  0.91361453173E+02 -0.36085683673E+03  0.37518767814E+03  0.00000000000E+00 0.  1.
          1    1    1    2  501    0  0.60162944349E+01  0.33742805925E+02  0.89438838702E+02  0.95781410612E+02  0.00000000000E+00 0.  1.
<scales pt_clust_3="92.52455" pt_clust_4="34.97305" pt_clust_5="14000.00000" pt_clust_6="34.27496"></scales>
<clustering>
<clus scale="   34.275">  1  6  2 -1</clus>
<clus scale="   34.973">  1  4  2 -1</clus>
<clus scale="   92.525">  2  3  1 -1</clus>
<clus scale="   92.525">  2  3  1 -1</clus>
</clustering>
</event>
<event>
 6    0  0.2572175E+002  0.1166734E+03  0.7546771E-02  0.1248688E+00
          2   -1    0    0  503    0 -0.00000000000E+00  0.00000000000E+00  0.21741504997E+02  0.21741504997E+02  0.00000000000E+00 0. -1.
         21   -1    0    0  505  502  0.00000000000E+00 -0.00000000000E+00 -0.11474587629E+04  0.11474587629E+04  0.00000000000E+00 0. -1.
         21    1    1    2  503  502 -0.38825008087E+02  0.13434633549E+02 -0.50846069569E+02  0.65369667447E+02  0.00000000000E+00 0. -1.
         21    1    1    2  504  501 -0.10287823679E+02  0.48337751552E+02 -0.21856622347E+03  0.22408384945E+03  0.00000000000E+00 0. -1.
         21    1    1    2  505  504  0.59832975592E+01  0.57163150036E+02 -0.46400928250E+03  0.46755538690E+03  0.00000000000E+00 0. -1.
          2    1    1    2  501    0  0.43129534207E+02 -0.11893553514E+03 -0.39229568235E+03  0.41219136409E+03  0.00000000000E+00 0. -1.
<scales pt_clust_3="41.08370" pt_clust_4="33.51767" pt_clust_5="33.51767" pt_clust_6="110.93302"></scales>
<clustering>
<clus scale="   33.518">  4  5 -1 -1</clus>
<clus scale="   41.084">  1  3  2 -1</clus>
<clus scale="  110.933">  1  6  2 -1</clus>
<clus scale="  116.673">  2  3  1 -1</clus>
</clustering>
</event>
<event>
 6    0  0.2572175E+002  0.2781903E+03  0.7546771E-02  0.1096681E+00
          1   -1    0    0  502    0 -0.00000000000E+00  0.00000000000E+00  0.79630564681E+03  0.79630564681E+03  0.00000000000E+00 0.  1.
         21   -1    0    0  503  502  0.00000000000E+00 -0.00000000000E+00 -0.10509784105E+04  0.10509784105E+04  0.00000000000E+00 0.  1.
         21    1    1    2  503  504  0.73488383733E+02  0.15980510134E+03 -0.49857123490E+03  0.52868846141E+03  0.00000000000E+00 0.  1.
         21    1    1    2  504  505  0.10031513039E+03  0.46722135727E+02 -0.46533383890E+03  0.47831126369E+03  0.00000000000E+00 0.  1.
         21    1    1    2  505  501  0.59472852353E+01 -0.18740374271E+03  0.11683369100E+03  0.22091999533E+03  0.00000000000E+00 0.  1.
          1    1    1    2  501    0 -0.17975079936E+03 -0.19123494355E+02  0.59239861909E+03  0.61936433689E+03  0.00000000000E+00 0.  1.
<scales pt_clust_3="87.15782" pt_clust_4="87.15782" pt_clust_5="255.56907" pt_clust_6="180.76520"></scales>
<clustering>
<clus scale="   87.158">  3  4 -1 -1</clus>
<clus scale="  180.765">  1  6  2 -1</clus>
<clus scale="  255.569">  1  5  2 -1</clus>
<clus scale="  278.190">  2  3  1 -1</clus>
</clustering>
</event>
<event>
 6    0  0.2572175E+002  0.1957116E+03  0.7546771E-02  0.1153408E+00
         21   -1    0    0  505  502  0.00000000000E+00  0.00000000000E+00  0.19409396931E+03  0.19409396931E+03  0.00000000000E+00 0.  1.
          1   -1    0    0  504    0 -0.00000000000E+00 -0.00000000000E+00 -0.42361799346E+03  0.42361799346E+03  0.00000000000E+00 0.  1.
         21    1    1    2  503  501 -0.79563971523E+02  0.35274026401E+02  0.56826407836E+02  0.10394192191E+03  0.00000000000E+00 0.  1.
         21    1    1    2  504  502  0.18227083226E+03 -0.34112153239E+02 -0.56026275054E+02  0.19371432262E+03  0.00000000000E+00 0.  1.
         21    1    1    2  505  503 -0.79825905490E+02  0.53055604371E+02 -0.15223783111E+02  0.97050687348E+02  0.00000000000E+00 0. -1.
          1    1    1    2  501    0 -0.22880955243E+02 -0.54217477533E+02 -0.21510037383E+03  0.22300503089E+03  0.00000000000E+00 0.  1.
<scales pt_clust_3="71.08719" pt_clust_4="181.22650" pt_clust_5="71.08719" pt_clust_6="58.84788"></scales>
<clustering>
<clus scale="   58.848">  2  6  1 -1</clus>
<clus scale="   71.087">  3  5 -1 -1</clus>
<clus scale="  181.226">  2  4  1 -1</clus>
<clus scale="  195.712">  1  3  2 -1</clus>
</clustering>
</event>
<event>
 6    0  0.2572175E+002  0.1237219E+03  0.7546771E-02  0.1237080E+00
          1   -1    0    0  505    0 -0.00000000000E+00  0.00000000000E+00  0.13834553110E+04  0.13834553110E+04  0.00000000000E+00 0. -1.
         21   -1    0    0  503  502  0.00000000000E+00 -0.00000000000E+00 -0.10586512307E+03  0.10586512307E+03  0.00000000000E+00 0. -1.
         21    1    1    2  503  501 -0.45218286950E+02  0.51936378328E-01  0.47441603081E+02  0.65539315490E+02  0.00000000000E+00 0.  1.
         21    1    1    2  504  502 -0.48490533358E+01  0.11144497118E+03 -0.50521495748E+02  0.12245781499E+03  0.00000000000E+00 0. -1.
         21    1    1    2  505  504  0.80204500104E+02 -0.12181401466E+03  0.52220264931E+03  0.54218725820E+03  0.00000000000E+00 0. -1.
          1    1    1    2  501    0 -0.30137159819E+02  0.10317107097E+02  0.75846743126E+03  0.75913604537E+03  0.00000000000E+00 0. -1.
<scales pt_clust_3="47.95385" pt_clust_4="123.72186" pt_clust_5="14000.00000" pt_clust_6="31.85422"></scales>
<clustering>
<clus scale="   31.854">  1  6  2 -1</clus>
<clus scale="   47.954">  2  3  1 -1</clus>
<clus scale="  123.722">  2  4  1 -1</clus>
<clus scale="   47.954">  2  3  1 -1</clus>
</clustering>
</event>
<event>
 6    0  0.2572175E+002  0.2079705E+03  0.7546771E-02  0.1143183E+00
         21   -1    0    0  505  502  0.00000000000E+00  0.00000000000E+00  0.25338635226E+03  0.25338635226E+03  0.00000000000E+00 0.  1.
          2   -1    0    0  504    0 -0.00000000000E+00 -0.00000000000E+00 -0.75855212981E+03  0.75855212981E+03  0.00000000000E+00 0. -1.
         21    1    1    2  503  502  0.17373636400E+03  0.41089097110E+02  0.46179764832E+02  0.18440501284E+03  0.00000000000E+00 0.  1.
         21    1    1    2  504  503  0.61564642328E+02  0.61794832198E+02 -0.52864029469E+02  0.10199711801E+03  0.00000000000E+00 0.  1.
         21    1    1    2  505  501 -0.29574683943E+03 -0.27281503146E+02 -0.96833923619E+02  0.31238963205E+03  0.00000000000E+00 0. -1.
          2    1    1    2  501    0  0.60445833100E+02 -0.75602426162E+02 -0.40164758929E+03  0.41314671917E+03  0.00000000000E+00 0. -1.
<scales pt_clust_3="14000.00000" pt_clust_4="87.22847" pt_clust_5="207.97047" pt_clust_6="104.66358"></scales>
<clustering>
<clus scale="   87.228">  2  4  1 -1</clus>
<clus scale="  104.664">  2  6  1 -1</clus>
<clus scale="  207.970">  2  5  1 -1</clus>
<clus scale="  207.970">  1  3  2 -1</clus>
</clustering>
</event>
<event>
 6    0  0.2572175E+002  0.7570248E+02  0.7546771E-02  0.1341709E+00
          2   -1    0    0  505    0 -0.00000000000E+00  0.00000000000E+00  0.10507970874E+04  0.10507970874E+04  0.00000000000E+00 0.  1.
         21   -1    0    0  503  502  0.00000000000E+00 -0.00000000000E+00 -0.78315205477E+02  0.78315205477E+02  0.00000000000E+00 0.  1.
         21    1    1    2  503  501  0.81398202775E+02 -0.30130033613E+02  0.24348202034E+02  0.90146110747E+02  0.00000000000E+00 0.  1.
         21    1    1    2  504  502 -0.58546164790E+02 -0.57964877328E+02  0.33462662878E+01  0.82454702191E+02  0.00000000000E+00 0.  1.
         21    1    1    2  505  504 -0.35938736649E+02  0.43987694410E+02  0.15002052649E+03  0.16041405307E+03  0.00000000000E+00 0.  1.
          2    1    1    2  501    0  0.13086698664E+02  0.44107216532E+02  0.79476688710E+03  0.79609742686E+03  0.00000000000E+00 0.  1.
<scales pt_clust_3="14000.00000" pt_clust_4="75.70248" pt_clust_5="71.81455" pt_clust_6="46.00770"></scales>
<clustering>
<clus scale="   46.008">  1  6  2 -1</clus>
<clus scale="   75.702">  2  4  1 -1</clus>
<clus scale="   71.815">  1  5  2 -1</clus>
<clus scale="   75.702">  2  3  1 -1</clus>
</clustering>
</event>
<event>
 6    0  0.2572175E+002  0.7667228E+02  0.7546771E-02  0.1338769E+00
         21   -1    0    0  503  502  0.00000000000E+00  0.00000000000E+00  0.61260273619E+02  0.61260273619E+02  0.00000000000E+00 0.  1.
          2   -1    0    0  505    0 -0.00000000000E+00 -0.00000000000E+00 -0.62340324192E+03  0.62340324192E+03  0.00000000000E+00 0.  1.
         21    1    1    2  503  504 -0.29821554117E+02 -0.66661896119E+01 -0.41384240676E+02  0.51443352828E+02  0.00000000000E+00 0.  1.
         21    1    1    2  504  501  0.93804727488E+02  0.41698171049E+02 -0.12618867253E+02  0.10342775343E+03  0.00000000000E+00 0.  1.
         21    1    1    2  505  502 -0.35202519938E+02  0.40843526863E+02 -0.99482334077E+02  0.11315540592E+03  0.00000000000E+00 0.  1.
          2    1    1    2  501    0 -0.28780653433E+02 -0.75875508300E+02 -0.40865752630E+03  0.41663700336E+03  0.00000000000E+00 0.  1.
<scales pt_clust_3="30.55754" pt_clust_4="14000.00000" pt_clust_5="55.76985" pt_clust_6="76.67228"></scales>
<clustering>
<clus scale="   30.558">  1  3  2 -1</clus>
<clus scale="   55.770">  2  5  1 -1</clus>
<clus scale="   76.672">  2  6  1 -1</clus>
<clus scale="   30.558">  1  3  2 -1</clus>
</clustering>
</event>
<event>
 6    0  0.2572175E+002  0.8078956E+02  0.7546771E-02  0.1326826E+00
          2   -1    0    0  505    0 -0.00000000000E+00  0.00000000000E+00  0.75052065729E+03  0.75052065729E+03  0.00000000000E+00 0. -1.
         21   -1    0    0  504  502  0.00000000000E+00 -0.00000000000E+00 -0.67063065639E+03  0.67063065639E+03  0.00000000000E+00 0.  1.
         21    1    1    2  503  502 -0.52439835759E+02  0.27272775711E+02 -0.27016780299E+02  0.64989592144E+02  0.00000000000E+00 0.  1.
         21    1    1    2  504  501  0.10466771579E+03  0.17097135512E+01 -0.60763693135E+03  0.61658810740E+03  0.00000000000E+00 0.  1.
         21    1    1    2  505  503  0.84278676326E+01 -0.87214020684E+02  0.20208705911E+03  0.22026459955E+03  0.00000000000E+00 0. -1.
          2    1    1    2  501    0 -0.60655747659E+02  0.58231531423E+02  0.51245665344E+03  0.51930901459E+03  0.00000000000E+00 0. -1.
<scales pt_clust_3="59.10787" pt_clust_4="60.39217" pt_clust_5="80.78956" pt_clust_6="14000.00000"></scales>
<clustering>
<clus scale="   59.108">  2  3  1 -1</clus>
<clus scale="   60.392">  2  4  1 -1</clus>
<clus scale="   80.790">  2  5  1 -1</clus>
<clus scale="   59.108">  2  3  1 -1</clus>
</clustering>
</event>
<event>
 6    0  0.2572175E+002  0.7617039E+02  0.7546771E-02  0.1340285E+00
         -1   -1    0    0    0  501 -0.00000000000E+00  0.00000000000E+00  0.46065227621E+03  0.46065227621E+03  0.00000000000E+00 0.  1.
         21   -1    0    0  505  502  0.00000000000E+00 -0.00000000000E+00 -0.10091184848E+03  0.10091184848E+03  0.00000000000E+00 0. -1.
         21    1    1    2  503  501 -0.54792328148E+02 -0.97185047922E+02  0.82681444305E+01  0.11187267305E+03  0.00000000000E+00 0. -1.
         21    1    1    2  504  502 -0.26200368477E+02  0.33430561132E+02  0.35375995830E+02  0.55276783615E+02  0.00000000000E+00 0.  1.
         21    1    1    2  505  503  0.45102420735E+02  0.31227667720E+02 -0.17297740120E+02  0.57520495483E+02  0.00000000000E+00 0. -1.
         -1    1    1    2    0  504  0.35890275889E+02  0.32526819070E+02  0.33339402758E+03  0.33689417254E+03  0.00000000000E+00 0.  1.
<scales pt_clust_3="76.17039" pt_clust_4="42.47425" pt_clust_5="14000.00000" pt_clust_6="48.50188"></scales>
<clustering>
<clus scale="   42.474">  2  4  1 -1</clus>
<clus scale="   48.502">  1  6  2 -1</clus>
<clus scale="   76.170">  1  3  2 -1</clus>
<clus scale="   42.474">  2  3  1 -1</clus>
</clustering>
</event>
<event>
 6    0  0.2572175E+002  0.7540624E+02  0.7546771E-02  0.1342618E+00
          2   -1    0    0  505    0 -0.00000000000E+00  0.00000000000E+00  0.30971669259E+04  0.30971669259E+04  0.00000000000E+00 0. -1.
         21   -1    0    0  501  502  0.00000000000E+00 -0.00000000000E+00 -0.49627174706E+02  0.49627174706E+02  0.00000000000E+00 0. -1.
         21    1    1    2  503  502 -0.18176590346E+02 -0.26625699516E+02  0.47150431892E+01  0.32581404875E+02  0.00000000000E+00 0. -1.
         21    1    1    2  504  503  0.65455872709E+02 -0.25802374687E+02  0.19140575736E+02  0.72914987836E+02  0.00000000000E+00 0. -1.
         21    1    1    2  505  504 -0.95768068353E+02  0.59473998803E+02  0.36166041420E+03  0.37882309149E+03  0.00000000000E+00 0. -1.
          2    1    1    2  501    0  0.48488785990E+02 -0.70459245996E+01  0.26620237181E+04  0.26624746164E+04  0.00000000000E+00 0. -1.
<scales pt_clust_3="32.23843" pt_clust_4="75.40624" pt_clust_5="14000.00000" pt_clust_6="48.90895"></scales>
<clustering>
<clus scale="   32.238">  2  3  1 -1</clus>
<clus scale="   48.909">  1  6  2 -1</clus>
<clus scale="   75.406">  2  4  1 -1</clus>
<clus scale="   32.238">  2  3  1 -1</clus>
</clustering>
</event>
<event>
 6    0  0.2572175E+002  0.1721455E+03  0.7546771E-02  0.1175629E+00
          2   -1    0    0  502    0 -0.00000000000E+00  0.00000000000E+00  0.24491336381E+04  0.24491336381E+04  0.00000000000E+00 0. -1.
         21   -1    0    0  505  502  0.00000000000E+00 -0.00000000000E+00 -0.12258640902E+03  0.12258640902E+03  0.00000000000E+00 0. -1.
         21    1    1    2  503  504 -0.35634959951E+02 -0.16957909817E+03  0.55626953070E+02  0.18199252406E+03  0.00000000000E+00 0. -1.
         21    1    1    2  504  501 -0.60668041456E+01  0.16565699635E+03  0.15111342179E+03  0.22430852146E+03  0.00000000000E+00 0. -1.
         21    1    1    2  505  503 -0.61678062092E+02 -0.13856092023E+02  0.24986997998E+02  0.67974441510E+02  0.00000000000E+00 0. -1.
          2    1    1    2  501    0  0.10337982619E+03  0.17778193838E+02  0.20948198562E+04  0.20974445601E+04  0.00000000000E+00 0. -1.
<scales pt_clust_3="14000.00000" pt_clust_4="172.14550" pt_clust_5="63.21530" pt_clust_6="104.07777"></scales>
<clustering>
<clus scale="   63.215">  2  5  1 -1</clus>
<clus scale="  104.078">  1  6  2 -1</clus>
<clus scale="  172.146">  1  4  2 -1</clus>
<clus scale="   63.215">  2  3  1 -1</clus>
</clustering>
</event>
<event>
 6    0  0.2572175E+002  0.8605602E+02  0.7546771E-02  0.1312694E+00
         21   -1    0    0  505  502  0.00000000000E+00  0.00000000000E+00  0.40540520001E+02  0.40540520001E+02  0.00000000000E+00 0. -1.
          2   -1    0    0  502    0 -0.00000000000E+00 -0.00000000000E+00 -0.28062618811E+04  0.28062618811E+04  0.00000000000E+00 0.  1.
         21    1    1    2  503  504  0.45941744107E+02 -0.73543808755E+02 -0.26569273305E+03  0.27948517681E+03  0.00000000000E+00 0. -1.
         21    1    1    2  504  501 -0.51700015854E+02  0.40680354813E+02 -0.16058890656E+04  0.16072359734E+04  0.00000000000E+00 0.  1.
         21    1    1    2  505  503 -0.35796709417E+02 -0.23728410219E+02  0.17037637035E+02  0.46203061937E+02  0.00000000000E+00 0. -1.
          2    1    1    2  501    0  0.41554981165E+02  0.56591864161E+02 -0.91117719944E+03  0.91387818900E+03  0.00000000000E+00 0.  1.
<scales pt_clust_3="86.05602" pt_clust_4="14000.00000" pt_clust_5="42.94697" pt_clust_6="64.14600"></scales>
<clustering>
<clus scale="   42.947">  1  5  2 -1</clus>
<clus scale="   64.146">  2  6  1 -1</clus>
<clus scale="   86.056">  1  3  2 -1</clus>
<clus scale="   42.947">  1  3  2 -1</clus>
</clustering>
</event>
<event>
 6    0  0.2572175E+002  0.6490370E+02  0.7546771E-02  0.1378334E+00
         21   -1    0    0  504  502  0.00000000000E+00  0.00000000000E+00  0.74414437041E+03  0.74414437041E+03  0.00000000000E+00 0. -1.
          2   -1    0    0  505    0 -0.00000000000E+00 -0.00000000000E+00 -0.36968548756E+03  0.36968548756E+03  0.00000000000E+00 0. -1.
         21    1    1    2  503  501  0.14300695489E+01 -0.67490435124E+02 -0.51462624024E+02  0.84884660591E+02  0.00000000000E+00 0. -1.
         21    1    1    2  504  503 -0.40505768355E+02  0.57451615307E+01  0.52213481983E+03  0.52373513748E+03  0.00000000000E+00 0. -1.
         21    1    1    2  505  502  0.87789503308E+02  0.14161970764E+02  0.19065331596E+03  0.21037168344E+03  0.00000000000E+00 0. -1.
          2    1    1    2  501    0 -0.48713804502E+02  0.47583302829E+02 -0.28686662891E+03  0.29483837647E+03  0.00000000000E+00 0. -1.
<scales pt_clust_3="14000.00000" pt_clust_4="40.91117" pt_clust_5="54.62316" pt_clust_6="64.90370"></scales>
<clustering>
<clus scale="   40.911">  1  4  2 -1</clus>
<clus scale="   54.623">  1  5  2 -1</clus>
<clus scale="   64.904">  2  6  1 -1</clus>
<clus scale="   40.911">  1  3  2 -1</clus>
</clustering>
</event>
<event>
 6    0  0.2572175E+002  0.9279380E+02  0.7546771E-02  0.1296224E+00
         21   -1    0    0  505  502  0.00000000000E+00  0.00000000000E+00  0.45900138114E+02  0.45900138114E+02  0.00000000000E+00 0.  1.
          2   -1    0    0  503    0 -0.00000000000E+00 -0.00000000000E+00 -0.11439999003E+04  0.11439999003E+04  0.00000000000E+00 0. -1.
         21    1    1    2  503  504  0.19785953030E+02 -0.32513713674E+02 -0.10305001581E+03  0.10985413634E+03  0.00000000000E+00 0.  1.
         21    1    1    2  504  502  0.41997838811E+02 -0.63615140193E+02 -0.27628784979E+02  0.81080541969E+02  0.00000000000E+00 0.  1.
         21    1    1    2  505  501 -0.12894002248E+03  0.47401866471E+02 -0.35001635994E+03  0.37601052986E+03  0.00000000000E+00 0.  1.
          2    1    1    2  501    0  0.67156230635E+02  0.48726987395E+02 -0.61740460147E+03  0.62295483025E+03  0.00000000000E+00 0. -1.
<scales pt_clust_3="38.06081" pt_clust_4="78.22058" pt_clust_5="14000.00000" pt_clust_6="92.79380"></scales>
<clustering>
<clus scale="   38.061">  2  3  1 -1</clus>
<clus scale="   78.221">  1  4  2 -1</clus>
<clus scale="   92.794">  2  6  1 -1</clus>
<clus scale="   78.221">  1  3  2 -1</clus>
</clustering>
</event>
<event>
 6    0  0.2572175E+002  0.1637959E+03  0.7546771E-02  0.1184477E+00
          1   -1    0    0  503    0 -0.00000000000E+00  0.00000000000E+00  0.13899065078E+04  0.13899065078E+04  0.00000000000E+00 0.  1.
         21   -1    0    0  504  502  0.00000000000E+00 -0.00000000000E+00 -0.18905909598E+04  0.18905909598E+04  0.00000000000E+00 0.  1.
         21    1    1    2  503  502  0.29312973449E+02 -0.13281545914E+03 -0.22832569290E+03  0.26576647388E+03  0.00000000000E+00 0. -1.
         21    1    1    2  504  505  0.12164479565E+03  0.21563985608E+03 -0.16149583205E+04  0.16338263006E+04  0.00000000000E+00 0.  1.
         21    1    1    2  505  501 -0.74732028618E+02 -0.79656329708E+02  0.14835616773E+03  0.18422692384E+03  0.00000000000E+00 0. -1.
          1    1    1    2  501    0 -0.76225740480E+02 -0.31680672378E+01  0.11942433936E+04  0.11966777692E+04  0.00000000000E+00 0.  1.
<scales pt_clust_3="134.92193" pt_clust_4="14000.00000" pt_clust_5="163.79586" pt_clust_6="76.29155"></scales>
<clustering>
<clus scale="   76.292">  1  6  2 -1</clus>
<clus scale="  134.922">  2  3  1 -1</clus>
<clus scale="  163.796">  1  5  2 -1</clus>
<clus scale="  134.922">  2  3  1 -1</clus>
</clustering>
</event>
<event>
 6    0  0.2572175E+002  0.8488019E+02  0.7546771E-02  0.1315746E+00
          2   -1    0    0  503    0 -0.00000000000E+00  0.00000000000E+00  0.13837046999E+04  0.13837046999E+04  0.00000000000E+00 0.  1.
         21   -1    0    0  505  502  0.00000000000E+00 -0.00000000000E+00 -0.31790172871E+03  0.31790172871E+03  0.00000000000E+00 0. -1.
         21    1    1    2  503  504 -0.82756844999E+02 -0.25925340789E+01 -0.94137813867E+02  0.12536883435E+03  0.00000000000E+00 0. -1.
         21    1    1    2  504  502 -0.38350773506E+02  0.20435152347E+01 -0.10668367160E+03  0.11338590552E+03  0.00000000000E+00 0. -1.
         21    1    1    2  505  501  0.53394636747E+02  0.24762213144E+02 -0.88246553697E+02  0.10607360026E+03  0.00000000000E+00 0. -1.
          2    1    1    2  501    0  0.67712981759E+02 -0.24213194299E+02  0.13548710103E+04  0.13567780885E+04  0.00000000000E+00 0.  1.
<scales pt_clust_3="30.51278" pt_clust_4="30.51278" pt_clust_5="58.85707" pt_clust_6="72.09332"></scales>
<clustering>
<clus scale="   30.513">  3  4 -1 -1</clus>
<clus scale="   58.857">  2  5  1 -1</clus>
<clus scale="   72.093">  1  6  2 -1</clus>
<clus scale="   58.857">  2  3  1 -1</clus>
</clustering>
</event>
<event>
 6    0  0.2572175E+002  0.1039292E+03  0.7546771E-02  0.1272244E+00
         21   -1    0    0  501  502  0.00000000000E+00  0.00000000000E+00  0.33669099251E+03  0.33669099251E+03  0.00000000000E+00 0.  1.
          1   -1    0    0  505    0 -0.00000000000E+00 -0.00000000000E+00 -0.55324115939E+03  0.55324115939E+03  0.00000000000E+00 0.  1.
         21    1    1    2  503  502  0.30568438033E+02 -0.16340686694E+02  0.95661605387E+02  0.10174767904E+03  0.00000000000E+00 0.  1.
         21    1    1    2  504  503 -0.10252203395E+03  0.13795036824E+02  0.20196478751E+03  0.22691594452E+03  0.00000000000E+00 0.  1.
         21    1    1    2  505  504  0.41661795686E+02  0.10401162688E+03 -0.33384332804E+03  0.35214413444E+03  0.00000000000E+00 0.  1.
          1    1    1    2  501    0  0.30291800227E+02 -0.10146597701E+03 -0.18033323173E+03  0.20912439389E+03  0.00000000000E+00 0.  1.
<scales pt_clust_3="34.66190" pt_clust_4="74.98374" pt_clust_5="14000.00000" pt_clust_6="103.92918"></scales>
<clustering>
<clus scale="   34.662">  1  3  2 -1</clus>
<clus scale="   74.984">  1  4  2 -1</clus>
<clus scale="  103.929">  1  6  2 -1</clus>
<clus scale="   34.662">  1  3  2 -1</clus>
</clustering>
</event>
<event>
 6    0  0.2572175E+002  0.1444332E+03  0.7546771E-02  0.1207485E+00
          2   -1    0    0  505    0 -0.00000000000E+00  0.00000000000E+00  0.60148082043E+03  0.60148082043E+03  0.00000000000E+00 0. -1.
         21   -1    0    0  504  502  0.00000000000E+00 -0.00000000000E+00 -0.23900688433E+04  0.23900688433E+04  0.00000000000E+00 0. -1.
         21    1    1    2  503  501  0.13390850144E+03  0.35771650768E+02 -0.17014117742E+02  0.13964446985E+03  0.00000000000E+00 0.  1.
         21    1    1    2  504  503 -0.12580066565E+03  0.75062255236E+02 -0.19647756476E+04  0.19702293001E+04  0.00000000000E+00 0. -1.
         21    1    1    2  505  502  0.62841608111E+01 -0.13829527490E+03 -0.32984092526E+03  0.35771512369E+03  0.00000000000E+00 0.  1.
          2    1    1    2  501    0 -0.14391996593E+02  0.27461368900E+02  0.52304266772E+03  0.52396077010E+03  0.00000000000E+00 0. -1.
<scales pt_clust_3="14000.00000" pt_clust_4="144.43315" pt_clust_5="133.43878" pt_clust_6="31.00413"></scales>
<clustering>
<clus scale="   31.004">  1  6  2 -1</clus>
<clus scale="  133.439">  1  5  2 -1</clus>
<clus scale="  144.433">  2  4  1 -1</clus>
<clus scale="  144.433">  2  3  1 -1</clus>
</clustering>
</event>
<event>
 6    0  0.2572175E+002  0.8053810E+02  0.7546771E-02  0.1327531E+00
          1   -1    0    0  504    0 -0.00000000000E+00  0.00000000000E+00  0.10948743235E+04  0.10948743235E+04  0.00000000000E+00 0.  1.
         21   -1    0    0  505  502  0.00000000000E+00 -0.00000000000E+00 -0.54613787665E+02  0.54613787665E+02  0.00000000000E+00 0. -1.
         21    1    1    2  503  501 -0.33046035702E+02  0.38776052970E+02  0.32202680601E+02  0.60271348064E+02  0.00000000000E+00 0. -1.
         21    1    1    2  504  502  0.70609932967E+01 -0.11092506477E+03  0.45523845968E+03  0.46861101437E+03  0.00000000000E+00 0.  1.
         21    1    1    2  505  503 -0.11049373411E+02  0.42301802872E+02 -0.18381448730E+02  0.47427933082E+02  0.00000000000E+00 0. -1.
          1    1    1    2  501    0  0.37034415817E+02  0.29847208929E+02  0.57120084430E+03  0.57317781566E+03  0.00000000000E+00 0.  1.
<scales pt_clust_3="14000.00000" pt_clust_4="80.53810" pt_clust_5="43.72106" pt_clust_6="48.41572"></scales>
<clustering>
<clus scale="   43.721">  2  5  1 -1</clus>
<clus scale="   48.416">  1  6  2 -1</clus>
<clus scale="   80.538">  1  4  2 -1</clus>
<clus scale="   43.721">  2  3  1 -1</clus>
</clustering>
</event>
<event>
 6    0  0.2572175E+002  0.6820113E+02  0.7546771E-02  0.1366319E+00
         -1   -1    0    0    0  501 -0.00000000000E+00  0.00000000000E+00  0.25702775793E+03  0.25702775793E+03  0.00000000000E+00 0.  1.
         21   -1    0    0  503  502  0.00000000000E+00 -0.00000000000E+00 -0.14564957150E+03  0.14564957150E+03  0.00000000000E+00 0.  1.
         21    1    1    2  503  504  0.97899157039E+02  0.71753972642E+01 -0.72497681566E+02  0.12203132839E+03  0.00000000000E+00 0.  1.
         21    1    1    2  504  501 -0.79960118439E+02 -0.26653809976E+02  0.74886887258E+02  0.11274791355E+03  0.00000000000E+00 0.  1.
         21    1    1    2  505  502 -0.43398263389E+02 -0.49284700189E-01 -0.10103642345E+02  0.44558896787E+02  0.00000000000E+00 0. -1.
         -1    1    1    2    0  505  0.25459224789E+02  0.19527697412E+02  0.11909262308E+03  0.12333919071E+03  0.00000000000E+00 0.  1.
<scales pt_clust_3="14000.00000" pt_clust_4="68.20113" pt_clust_5="40.24208" pt_clust_6="32.08587"></scales>
<clustering>
<clus scale="   32.086">  1  6  2 -1</clus>
<clus scale="   40.242">  2  5  1 -1</clus>
<clus scale="   68.201">  1  4  2 -1</clus>
<clus scale="   40.242">  2  3  1 -1</clus>
</clustering>
</event>
<event>
 6    0  0.2572175E+002  0.9306103E+02  0.7546771E-02  0.1295604E+00
          2   -1    0    0  504    0 -0.00000000000E+00  0.00000000000E+00  0.16306463262E+03  0.16306463262E+03  0.00000000000E+00 0.  1.
         21   -1    0    0  505  502  0.00000000000E+00 -0.00000000000E+00 -0.64444710511E+03  0.64444710511E+03  0.00000000000E+00 0. -1.
         21    1    1    2  503  502 -0.46681118278E+02 -0.23082029331E+02 -0.21459844234E+03  0.22082662507E+03  0.00000000000E+00 0. -1.
         21    1    1    2  504  503 -0.36505389287E+02 -0.35217605781E+02 -0.10767582021E+03  0.11902523035E+03  0.00000000000E+00 0. -1.
         21    1    1    2  505  501  0.14642923973E+02  0.85298127855E+02 -0.29806889058E+03  0.31037920254E+03  0.00000000000E+00 0. -1.
          2    1    1    2  501    0  0.68543583593E+02 -0.26998492742E+02  0.13896068065E+03  0.15728067977E+03  0.00000000000E+00 0.  1.
<scales pt_clust_3="35.85356" pt_clust_4="35.85356" pt_clust_5="85.67739" pt_clust_6="73.66914"></scales>
<clustering>
<clus scale="   35.854">  3  4 -1 -1</clus>
<clus scale="   73.669">  1  6  2 -1</clus>
<clus scale="   85.677">  2  5  1 -1</clus>
<clus scale="   85.677">  2  3  1 -1</clus>
</clustering>
</event>
<event>
 6    0  0.2572175E+002  0.7340784E+02  0.7546771E-02  0.1348874E+00
          2   -1    0    0  504    0 -0.00000000000E+00  0.00000000000E+00  0.21709685256E+04  0.21709685256E+04  0.00000000000E+00 0. -1.
         21   -1    0    0  503  502  0.00000000000E+00 -0.00000000000E+00 -0.36676513296E+02  0.36676513296E+02  0.00000000000E+00 0. -1.
         21    1    1    2  503  505 -0.21973070310E+02  0.27649611900E+02  0.50690346589E+01  0.35679293287E+02  0.00000000000E+00 0. -1.
         21    1    1    2  504  502 -0.83370761890E+02 -0.37293146333E+02  0.46408956273E+03  0.47299110451E+03  0.00000000000E+00 0. -1.
         21    1    1    2  505  501  0.54172505556E+02  0.41234838130E+02  0.54470645249E+02  0.87189583252E+02  0.00000000000E+00 0. -1.
          2    1    1    2  501    0  0.51171326645E+02 -0.31591303696E+02  0.16106627697E+04  0.16117850579E+04  0.00000000000E+00 0. -1.
<scales pt_clust_3="35.31737" pt_clust_4="73.40784" pt_clust_5="14000.00000" pt_clust_6="59.26600"></scales>
<clustering>
<clus scale="   35.317">  2  3  1 -1</clus>
<clus scale="   59.266">  1  6  2 -1</clus>
<clus scale="   73.408">  1  4  2 -1</clus>
<clus scale="   35.317">  2  3  1 -1</clus>
</clustering>
</event>
<event>
 6    0  0.2572175E+002  0.7332024E+02  0.7546771E-02  0.1349153E+00
          2   -1    0    0  504    0 -0.00000000000E+00  0.00000000000E+00  0.29999557487E+04  0.29999557487E+04  0.00000000000E+00 0.  1.
         21   -1    0    0  503  502  0.00000000000E+00 -0.00000000000E+00 -0.32827751469E+02  0.32827751469E+02  0.00000000000E+00 0. -1.
         21    1    1    2  503  505 -0.35081402394E+02  0.53107806501E+02  0.61510307418E+02  0.88513625075E+02  0.00000000000E+00 0.  1.
         21    1    1    2  504  502  0.23240906639E+02 -0.93988643503E+02  0.14205913254E+03  0.17191510110E+03  0.00000000000E+00 0. -1.
         21    1    1    2  505  501 -0.65280686583E+01  0.74601746744E+02  0.32587856370E+03  0.33437235917E+03  0.00000000000E+00 0. -1.
          2    1    1    2  501    0  0.18368564414E+02 -0.33720909742E+02  0.24376799935E+04  0.24379824148E+04  0.00000000000E+00 0.  1.
<scales pt_clust_3="14000.00000" pt_clust_4="73.32024" pt_clust_5="54.96337" pt_clust_6="38.39927"></scales>
<clustering>
<clus scale="   38.399">  1  6  2 -1</clus>
<clus scale="   54.963">  1  5  2 -1</clus>
<clus scale="   73.320">  1  4  2 -1</clus>
<clus scale="   73.320">  2  3  1 -1</clus>
</clustering>
</event>
<event>
 6    0  0.2572175E+002  0.1811078E+03  0.7546771E-02  0.1166735E+00
         21   -1    0    0  505  502  0.00000000000E+00  0.00000000000E+00  0.61612737694E+02  0.61612737694E+02  0.00000000000E+00 0.  1.
         -2   -1    0    0    0  501 -0.00000000000E+00 -0.00000000000E+00 -0.47324724838E+03  0.47324724838E+03  0.00000000000E+00 0. -1.
         21    1    1    2  503  504 -0.41092075920E+02  0.15738011983E+02 -0.51129880467E+02  0.67457456231E+02  0.00000000000E+00 0.  1.
         21    1    1    2  504  502 -0.70062394874E+01  0.50994522528E+02 -0.41396553576E+02  0.66054548425E+02  0.00000000000E+00 0.  1.
         21    1    1    2  505  501  0.88186363361E+02 -0.12852861837E+03 -0.14749910220E+03  0.21459828884E+03  0.00000000000E+00 0.  1.
         -2    1    1    2    0  503 -0.40088047954E+02  0.61796083858E+02 -0.17160897445E+03  0.18674969258E+03  0.00000000000E+00 0. -1.
<scales pt_clust_3="37.91888" pt_clust_4="48.18748" pt_clust_5="155.87315" pt_clust_6="48.18748"></scales>
<clustering>
<clus scale="   37.919">  3  6 -1 -1</clus>
<clus scale="   48.187">  3  4 -1 -1</clus>
<clus scale="  155.873">  1  5  2 -1</clus>
<clus scale="  155.873">  1  3  2 -1</clus>
</clustering>
</event>
<event>
 6    0  0.2572175E+002  0.3356414E+03  0.7546771E-02  0.1068668E+00
         21   -1    0    0  505  502  0.00000000000E+00  0.00000000000E+00  0.93564141298E+02  0.93564141298E+02  0.00000000000E+00 0.  1.
          2   -1    0    0  503    0 -0.00000000000E+00 -0.00000000000E+00 -0.23100745858E+04  0.23100745858E+04  0.00000000000E+00 0.  1.
         21    1    1    2  503  504 -0.38946560845E+02  0.48575770911E+02 -0.69467838782E+03  0.69746290413E+03  0.00000000000E+00 0.  1.
         21    1    1    2  504  502  0.21218686848E+03  0.23374039752E+03 -0.62753965568E+03  0.70246982856E+03  0.00000000000E+00 0.  1.
         21    1    1    2  505  501 -0.21865120874E+03 -0.27794585092E+03 -0.53365928493E+03  0.64019878126E+03  0.00000000000E+00 0.  1.
          2    1    1    2  501    0  0.45410901106E+02 -0.43703175102E+01 -0.36063311609E+03  0.36350721318E+03  0.00000000000E+00 0.  1.
<scales pt_clust_3="52.21622" pt_clust_4="14000.00000" pt_clust_5="335.64143" pt_clust_6="45.62071"></scales>
<clustering>
<clus scale="   45.621">  2  6  1 -1</clus>
<clus scale="   52.216">  2  3  1 -1</clus>
<clus scale="  335.641">  1  5  2 -1</clus>
<clus scale="  335.641">  1  3  2 -1</clus>
</clustering>
</event>
<event>
 6    0  0.2572175E+002  0.9187310E+02  0.7546771E-02  0.1298378E+00
          1   -1    0    0  503    0 -0.00000000000E+00  0.00000000000E+00  0.14684564001E+04  0.14684564001E+04  0.00000000000E+00 0.  1.
         21   -1    0    0  505  502  0.00000000000E+00 -0.00000000000E+00 -0.15927351766E+03  0.15927351766E+03  0.00000000000E+00 0. -1.
         21    1    1    2  503  504  0.10160354460E+03  0.65692896445E+02  0.82819661108E+03  0.83698773201E+03  0.00000000000E+00 0. -1.
         21    1    1    2  504  502 -0.19265588309E+02 -0.62203695701E+02 -0.13652853141E+03  0.15126302437E+03  0.00000000000E+00 0. -1.
         21    1    1    2  505  501 -0.47528226914E+02  0.78336319168E+00  0.43625430467E+02  0.64519176955E+02  0.00000000000E+00 0. -1.
          1    1    1    2  501    0 -0.34809729378E+02 -0.42725639361E+01  0.57388937225E+03  0.57495998439E+03  0.00000000000E+00 0.  1.
<scales pt_clust_3="91.87310" pt_clust_4="14000.00000" pt_clust_5="49.63634" pt_clust_6="35.07096"></scales>
<clustering>
<clus scale="   35.071">  1  6  2 -1</clus>
<clus scale="   49.636">  2  5  1 -1</clus>
<clus scale="   91.873">  1  3  2 -1</clus>
<clus scale="   49.636">  2  3  1 -1</clus>
</clustering>
</event>
<event>
 6    0  0.2572175E+002  0.1010346E+03  0.7546771E-02  0.1278135E+00
          2   -1    0    0  503    0 -0.00000000000E+00  0.00000000000E+00  0.88358993584E+03  0.88358993584E+03  0.00000000000E+00 0.  1.
         21   -1    0    0  504  502  0.00000000000E+00 -0.00000000000E+00 -0.61282942585E+02  0.61282942585E+02  0.00000000000E+00 0. -1.
         21    1    1    2  503  502  0.13180074448E+03  0.28763428827E+02  0.62542468865E+02  0.14869543199E+03  0.00000000000E+00 0. -1.
         21    1    1    2  504  505 -0.16515264314E+02  0.35172366559E+02  0.34715117328E+02  0.52105553407E+02  0.00000000000E+00 0. -1.
         21    1    1    2  505  501 -0.20360948134E+02 -0.39032773554E+02  0.77524252186E+02  0.89152315153E+02  0.00000000000E+00 0.  1.
          2    1    1    2  501    0 -0.94924532036E+02 -0.24903021832E+02  0.64752515488E+03  0.65491957787E+03  0.00000000000E+00 0.  1.
<scales pt_clust_3="14000.00000" pt_clust_4="38.85678" pt_clust_5="41.56162" pt_clust_6="101.03465"></scales>
<clustering>
<clus scale="   38.857">  2  4  1 -1</clus>
<clus scale="   41.562">  2  5  1 -1</clus>
<clus scale="  101.035">  1  6  2 -1</clus>
<clus scale="   38.857">  2  3  1 -1</clus>
</clustering>
</event>
<event>
 6    0  0.2572175E+002  0.1554303E+03  0.7546771E-02  0.1193955E+00
         21   -1    0    0  505  502  0.00000000000E+00  0.00000000000E+00  0.55042251703E+03  0.55042251703E+03  0.00000000000E+00 0. -1.
         -4   -1    0    0    0  501 -0.00000000000E+00 -0.00000000000E+00 -0.95270488377E+03  0.95270488377E+03  0.00000000000E+00 0.  1.
         21    1    1    2  503  502 -0.88097226489E+02  0.54243262240E+02  0.45690663494E+03  0.46847318586E+03  0.00000000000E+00 0. -1.
         21    1    1    2  504  501  0.13567732242E+03  0.26613424075E+02 -0.17457660229E+03  0.22269620614E+03  0.00000000000E+00 0. -1.
         21    1    1    2  505  504 -0.71664980013E+02 -0.12114830484E+02  0.40494924755E+02  0.83201426724E+02  0.00000000000E+00 0.  1.
         -4    1    1    2    0  503  0.24084884078E+02 -0.68741855830E+02 -0.72510732415E+03  0.72875658208E+03  0.00000000000E+00 0.  1.
<scales pt_clust_3="155.43034" pt_clust_4="14000.00000" pt_clust_5="72.68176" pt_clust_6="72.79372"></scales>
<clustering>
<clus scale="   72.682">  1  5  2 -1</clus>
<clus scale="   72.794">  2  6  1 -1</clus>
<clus scale="  155.430">  1  3  2 -1</clus>
<clus scale="   72.682">  1  3  2 -1</clus>
</clustering>
</event>
<event>
 6    0  0.2572175E+002  0.1024984E+03  0.7546771E-02  0.1275128E+00
          2   -1    0    0  504    0 -0.00000000000E+00  0.00000000000E+00  0.13688141390E+04  0.13688141390E+04  0.00000000000E+00 0. -1.
         21   -1    0    0  505  502  0.00000000000E+00 -0.00000000000E+00 -0.33658227006E+02  0.33658227006E+02  0.00000000000E+00 0. -1.
         21    1    1    2  503  501 -0.11998008328E+03 -0.42809316948E+02  0.53494624583E+03  0.54990484989E+03  0.00000000000E+00 0. -1.
         21    1    1    2  504  502  0.73097166853E+02 -0.25459693017E+02  0.74860822189E+02  0.10768256344E+03  0.00000000000E+00 0. -1.
         21    1    1    2  505  503  0.38265449467E+02  0.36828952778E+02  0.65928188965E+02  0.84658977586E+02  0.00000000000E+00 0.  1.
          2    1    1    2  501    0  0.86174669621E+01  0.31440057188E+02  0.65942065496E+03  0.66022597504E+03  0.00000000000E+00 0. -1.
<scales pt_clust_3="102.49839" pt_clust_4="14000.00000" pt_clust_5="56.11216" pt_clust_6="32.59966"></scales>
<clustering>
<clus scale="   32.600">  1  6  2 -1</clus>
<clus scale="   56.112">  2  5  1 -1</clus>
<clus scale="  102.498">  1  3  2 -1</clus>
<clus scale="   56.112">  2  3  1 -1</clus>
</clustering>
</event>
<event>
 6    0  0.2572175E+002  0.1374375E+03  0.7546771E-02  0.1216819E+00
         21   -1    0    0  504  502  0.00000000000E+00  0.00000000000E+00  0.28211738602E+03  0.28211738602E+03  0.00000000000E+00 0.  1.
          2   -1    0    0  502    0 -0.00000000000E+00 -0.00000000000E+00 -0.16108679897E+04  0.16108679897E+04  0.00000000000E+00 0.  1.
         21    1    1    2  503  505 -0.81755126167E+02  0.11755632578E+03 -0.99749082059E+02  0.17450865238E+03  0.00000000000E+00 0.  1.
         21    1    1    2  504  503  0.13490189965E+03 -0.40076450994E+02  0.21798416721E+03  0.25946433591E+03  0.00000000000E+00 0.  1.
         21    1    1    2  505  501 -0.12496188040E+02 -0.80840347694E+02 -0.29021839053E+03  0.30152616923E+03  0.00000000000E+00 0.  1.
          2    1    1    2  501    0 -0.40650585440E+02  0.33604729132E+01 -0.11567672983E+04  0.11574862182E+04  0.00000000000E+00 0.  1.
<scales pt_clust_3="137.43748" pt_clust_4="14000.00000" pt_clust_5="87.78916" pt_clust_6="40.78925"></scales>
<clustering>
<clus scale="   40.789">  2  6  1 -1</clus>
<clus scale="   87.789">  2  5  1 -1</clus>
<clus scale="  137.437">  2  3  1 -1</clus>
<clus scale="  137.437">  1  3  2 -1</clus>
</clustering>
</event>
<event>
 6    0  0.2572175E+002  0.1019610E+03  0.7546771E-02  0.1276225E+00
         21   -1    0    0  503  502  0.00000000000E+00  0.00000000000E+00  0.23517891745E+04  0.23517891745E+04  0.00000000000E+00 0.  1.
          2   -1    0    0  504    0 -0.00000000000E+00 -0.00000000000E+00 -0.22899395075E+04  0.22899395075E+04  0.00000000000E+00 0.  1.
         21    1    1    2  503  505  0.34413885044E+02  0.24112915239E+02  0.45556287009E+03  0.45749675056E+03  0.00000000000E+00 0. -1.
         21    1    1    2  504  502 -0.66522419114E+02  0.69684533319E+02  0.15279432585E+04  0.15309773897E+04  0.00000000000E+00 0.  1.
         21    1    1    2  505  501  0.87741835975E+01 -0.13023040925E+03  0.35394321468E+03  0.37724361494E+03  0.00000000000E+00 0. -1.
          2    1    1    2  501    0  0.23334350473E+02  0.36432960694E+02 -0.22755996763E+04  0.22760109268E+04  0.00000000000E+00 0.  1.
<scales pt_clust_3="42.02081" pt_clust_4="101.96101" pt_clust_5="14000.00000" pt_clust_6="43.26913"></scales>
<clustering>
<clus scale="   42.021">  1  3  2 -1</clus>
<clus scale="   43.269">  2  6  1 -1</clus>
<clus scale="  101.961">  1  4  2 -1</clus>
<clus scale="   42.021">  1  3  2 -1</clus>
</clustering>
</event>
<event>
 6    0  0.2572175E+002  0.1153337E+03  0.7546771E-02  0.1251000E+00
         21   -1    0    0  505  502  0.00000000000E+00  0.00000000000E+00  0.53894630861E+03  0.53894630861E+03  0.00000000000E+00 0. -1.
          2   -1    0    0  504    0 -0.00000000000E+00 -0.00000000000E+00 -0.16661503752E+04  0.16661503752E+04  0.00000000000E+00 0. -1.
         21    1    1    2  503  502  0.22881955882E+02 -0.42787802673E+02  0.39132549969E+03  0.39432223710E+03  0.00000000000E+00 0. -1.
         21    1    1    2  504  503 -0.14445759456E+03  0.58640816812E+02  0.58075247995E+01  0.15601432423E+03  0.00000000000E+00 0.  1.
         21    1    1    2  505  501  0.77167349877E+01 -0.30453338888E+02  0.59225787597E+02  0.67042134250E+02  0.00000000000E+00 0.  1.
          2    1    1    2  501    0  0.11385890369E+03  0.14600324749E+02 -0.15835628787E+04  0.15877179882E+04  0.00000000000E+00 0. -1.
<scales pt_clust_3="73.96054" pt_clust_4="115.33370" pt_clust_5="31.41582" pt_clust_6="14000.00000"></scales>
<clustering>
<clus scale="   31.416">  1  5  2 -1</clus>
<clus scale="   73.961">  1  3  2 -1</clus>
<clus scale="  115.334">  1  4  2 -1</clus>
<clus scale="   31.416">  1  3  2 -1</clus>
</clustering>
</event>
<event>
 6    0  0.2572175E+002  0.1480123E+03  0.7546771E-02  0.1202937E+00
         21   -1    0    0  505  502  0.00000000000E+00  0.00000000000E+00  0.14431562652E+03  0.14431562652E+03  0.00000000000E+00 0.  1.
          1   -1    0    0  503    0 -0.00000000000E+00 -0.00000000000E+00 -0.96879126209E+03  0.96879126209E+03  0.00000000000E+00 0.  1.
         21    1    1    2  503  504  0.22696248950E+02 -0.23800068112E+02 -0.11486877749E+03  0.11948388594E+03  0.00000000000E+00 0.  1.
         21    1    1    2  504  502  0.82571035209E+02  0.94198311051E+02 -0.12034056841E+03  0.17370420278E+03  0.00000000000E+00 0.  1.
         21    1    1    2  505  501 -0.14379809102E+03 -0.69089994153E+02  0.59306192810E+02  0.17020147702E+03  0.00000000000E+00 0.  1.
          1    1    1    2  501    0  0.38530806860E+02 -0.13082487856E+01 -0.64857248248E+03  0.64971732286E+03  0.00000000000E+00 0.  1.
<scales pt_clust_3="32.88712" pt_clust_4="14000.00000" pt_clust_5="148.01229" pt_clust_6="59.12195"></scales>
<clustering>
<clus scale="   32.887">  2  3  1 -1</clus>
<clus scale="   59.122">  2  6  1 -1</clus>
<clus scale="  148.012">  1  5  2 -1</clus>
<clus scale="  148.012">  1  3  2 -1</clus>
</clustering>
</event>
<event>
 6    0  0.2572175E+002  0.7262268E+02  0.7546771E-02  0.1351395E+00
         21   -1    0    0  504  502  0.00000000000E+00  0.00000000000E+00  0.36454611577E+02  0.36454611577E+02  0.00000000000E+00 0. -1.
          2   -1    0    0  503    0 -0.00000000000E+00 -0.00000000000E+00 -0.12444613212E+04  0.12444613212E+04  0.00000000000E+00 0. -1.
         21    1    1    2  503  505 -0.10053485549E+03 -0.10747620632E+02 -0.59305621770E+03  0.60161320287E+03  0.00000000000E+00 0. -1.
         21    1    1    2  504  501  0.17124162970E+01  0.37879510532E+02 -0.78143656939E+02  0.86857474103E+02  0.00000000000E+00 0. -1.
         21    1    1    2  505  502  0.39903950115E+02 -0.43779886727E+02 -0.76160026838E+01  0.59724427276E+02  0.00000000000E+00 0. -1.
          2    1    1    2  501    0  0.58918489083E+02  0.16647996827E+02 -0.52919083231E+03  0.53272082854E+03  0.00000000000E+00 0. -1.
<scales pt_clust_3="72.62268" pt_clust_4="37.91820" pt_clust_5="43.30168" pt_clust_6="14000.00000"></scales>
<clustering>
<clus scale="   37.918">  1  4  2 -1</clus>
<clus scale="   43.302">  1  5  2 -1</clus>
<clus scale="   72.623">  1  3  2 -1</clus>
<clus scale="   37.918">  1  3  2 -1</clus>
</clustering>
</event>
<event>
 6    0  0.2572175E+002  0.2256747E+03  0.7546771E-02  0.1129722E+00
         21   -1    0    0  504  502  0.00000000000E+00  0.00000000000E+00  0.12508101202E+03  0.12508101202E+03  0.00000000000E+00 0.  1.
          1   -1    0    0  505    0 -0.00000000000E+00 -0.00000000000E+00 -0.85575323745E+03  0.85575323745E+03  0.00000000000E+00 0.  1.
         21    1    1    2  503  501 -0.99566150154E+02 -0.46127905885E+02  0.14093541236E+02  0.11063376457E+03  0.00000000000E+00 0.  1.
         21    1    1    2  504  503 -0.71178811680E+02 -0.83528507068E+02 -0.41700057192E+02  0.11739816649E+03  0.00000000000E+00 0.  1.
         21    1    1    2  505  502 -0.21118168405E+02  0.36318181551E+02 -0.47617253853E+02  0.63501104025E+02  0.00000000000E+00 0. -1.
          1    1    1    2  501    0  0.19186313024E+03  0.93338231402E+02 -0.65544845562E+03  0.68930121439E+03  0.00000000000E+00 0.  1.
<scales pt_clust_3="72.08773" pt_clust_4="72.08773" pt_clust_5="42.01175" pt_clust_6="213.67561"></scales>
<clustering>
<clus scale="   42.012">  2  5  1 -1</clus>
<clus scale="   72.088">  3  4 -1 -1</clus>
<clus scale="  213.676">  2  6  1 -1</clus>
<clus scale="  225.675">  1  3  2 -1</clus>
</clustering>
</event>
<event>
 6    0  0.2572175E+002  0.9565115E+02  0.7546771E-02  0.1289716E+00
         -2   -1    0    0    0  501 -0.00000000000E+00  0.00000000000E+00  0.14393164728E+04  0.14393164728E+04  0.00000000000E+00 0. -1.
         21   -1    0    0  503  502  0.00000000000E+00 -0.00000000000E+00 -0.13167002728E+03  0.13167002728E+03  0.00000000000E+00 0.  1.
         21    1    1    2  503  504 -0.34539317840E+02  0.17507255320E+02  0.53171707423E+02  0.65777647693E+02  0.00000000000E+00 0. -1.
         21    1    1    2  504  501 -0.56834550139E+02 -0.11727782818E+03  0.77191944058E+03  0.78284345678E+03  0.00000000000E+00 0.  1.
         21    1    1    2  505  502  0.12368540733E+03  0.11567794885E+02 -0.82779703037E+02  0.14927951333E+03  0.00000000000E+00 0.  1.
         -2    1    1    2    0  505 -0.32311539350E+02  0.88202777973E+02  0.56533500058E+03  0.57308588230E+03  0.00000000000E+00 0. -1.
<scales pt_clust_3="38.72297" pt_clust_4="95.65115" pt_clust_5="14000.00000" pt_clust_6="94.81386"></scales>
<clustering>
<clus scale="   38.723">  2  3  1 -1</clus>
<clus scale="   94.814">  1  6  2 -1</clus>
<clus scale="   95.651">  1  4  2 -1</clus>
<clus scale="   38.723">  2  3  1 -1</clus>
</clustering>
</event>
<event>
 6    0  0.2572175E+002  0.1243204E+03  0.7546771E-02  0.1236135E+00
          2   -1    0    0  505    0 -0.00000000000E+00  0.00000000000E+00  0.30083309557E+04  0.30083309557E+04  0.00000000000E+00 0.  1.
         21   -1    0    0  504  502  0.00000000000E+00 -0.00000000000E+00 -0.28939695757E+02  0.28939695757E+02  0.00000000000E+00 0. -1.
         21    1    1    2  503  502 -0.18291777392E+02  0.50617044356E+02  0.31373555574E+03  0.31831850910E+03  0.00000000000E+00 0. -1.
         21    1    1    2  504  501 -0.16180211131E+02 -0.12541482356E+03  0.16624037556E+03  0.20886967149E+03  0.00000000000E+00 0. -1.
         21    1    1    2  505  503 -0.48709042498E+02  0.42232943793E+02  0.22875769098E+03  0.23766841091E+03  0.00000000000E+00 0. -1.
          2    1    1    2  501    0  0.83181031021E+02  0.32564835410E+02  0.22706576377E+04  0.22724140600E+04  0.00000000000E+00 0.  1.
<scales pt_clust_3="37.80866" pt_clust_4="117.23169" pt_clust_5="37.80866" pt_clust_6="89.32834"></scales>
<clustering>
<clus scale="   37.809">  3  5 -1 -1</clus>
<clus scale="   89.328">  1  6  2 -1</clus>
<clus scale="  117.232">  2  4  1 -1</clus>
<clus scale="  117.232">  2  3  1 -1</clus>
</clustering>
</event>
<event>
 6    0  0.2572175E+002  0.9296716E+02  0.7546771E-02  0.1295821E+00
         21   -1    0    0  505  502  0.00000000000E+00  0.00000000000E+00  0.12460591881E+03  0.12460591881E+03  0.00000000000E+00 0. -1.
          2   -1    0    0  502    0 -0.00000000000E+00 -0.00000000000E+00 -0.50442482962E+03  0.50442482962E+03  0.00000000000E+00 0. -1.
         21    1    1    2  503  504  0.78600416656E+02  0.19668672682E+01  0.51500083603E+02  0.93990173297E+02  0.00000000000E+00 0. -1.
         21    1    1    2  504  501 -0.69016872174E+02 -0.89744258154E+02 -0.86425827803E+02  0.14243168267E+03  0.00000000000E+00 0.  1.
         21    1    1    2  505  503  0.17128587350E+02  0.33980595575E+02  0.42927356586E+01  0.38294868581E+02  0.00000000000E+00 0. -1.
          2    1    1    2  501    0 -0.26712131832E+02  0.53796795311E+02 -0.34918590227E+03  0.35431402388E+03  0.00000000000E+00 0. -1.
<scales pt_clust_3="14000.00000" pt_clust_4="92.96716" pt_clust_5="38.05351" pt_clust_6="60.63459"></scales>
<clustering>
<clus scale="   38.054">  1  5  2 -1</clus>
<clus scale="   60.635">  2  6  1 -1</clus>
<clus scale="   92.967">  2  4  1 -1</clus>
<clus scale="   38.054">  1  3  2 -1</clus>
</clustering>
</event>
<event>
 6    0  0.2572175E+002  0.9859208E+02  0.7546771E-02  0.1283285E+00
          2   -1    0    0  504    0 -0.00000000000E+00  0.00000000000E+00  0.93605035020E+03  0.93605035020E+03  0.00000000000E+00 0. -1.
         21   -1    0    0  503  502  0.00000000000E+00 -0.00000000000E+00 -0.10463557402E+03  0.10463557402E+03  0.00000000000E+00 0. -1.
         21    1    1    2  503  501 -0.31070553237E+02  0.29163181661E+02  0.48938343723E+02  0.64890923321E+02  0.00000000000E+00 0.  1.
         21    1    1    2  504  505  0.13356984651E+02  0.61154824440E+02  0.51641737074E+02  0.81149187299E+02  0.00000000000E+00 0. -1.
         21    1    1    2  505  502  0.18051251183E+02 -0.15474794732E+03 -0.51149462017E+01  0.15588116482E+03  0.00000000000E+00 0. -1.
          2    1    1    2  501    0 -0.33768259656E+00  0.64429941222E+02  0.73594964158E+03  0.73876464879E+03  0.00000000000E+00 0. -1.
<scales pt_clust_3="42.61303" pt_clust_4="14000.00000" pt_clust_5="98.59208" pt_clust_6="64.85941"></scales>
<clustering>
<clus scale="   42.613">  2  3  1 -1</clus>
<clus scale="   64.859">  1  6  2 -1</clus>
<clus scale="   98.592">  2  5  1 -1</clus>
<clus scale="   42.613">  2  3  1 -1</clus>
</clustering>
</event>
<event>
 6    0  0.2572175E+002  0.1426760E+03  0.7546771E-02  0.1209773E+00
         21   -1    0    0  503  502  0.00000000000E+00  0.00000000000E+00  0.33923162235E+02  0.33923162235E+02  0.00000000000E+00 0.  1.
          2   -1    0    0  505    0 -0.00000000000E+00 -0.00000000000E+00 -0.30816902084E+04  0.30816902084E+04  0.00000000000E+00 0. -1.
         21    1    1    2  503  504  0.23899500081E+02 -0.70447911857E+02 -0.78335148523E+02  0.10803004158E+03  0.00000000000E+00 0.  1.
         21    1    1    2  504  501 -0.35110839947E+02 -0.60441867297E+02 -0.54865033591E+02  0.88860352886E+02  0.00000000000E+00 0.  1.
         21    1    1    2  505  502 -0.30423247935E+02  0.40762012377E+02 -0.65295628149E+03  0.65493436404E+03  0.00000000000E+00 0. -1.
          2    1    1    2  501    0  0.41634587801E+02  0.90127766778E+02 -0.22616105825E+04  0.22637886121E+04  0.00000000000E+00 0. -1.
<scales pt_clust_3="59.99026" pt_clust_4="59.99026" pt_clust_5="50.86370" pt_clust_6="128.80504"></scales>
<clustering>
<clus scale="   50.864">  2  5  1 -1</clus>
<clus scale="   59.990">  3  4 -1 -1</clus>
<clus scale="  128.805">  2  6  1 -1</clus>
<clus scale="  142.676">  1  3  2 -1</clus>
</clustering>
</event>
<event>
 6    0  0.2572175E+002  0.1496742E+03  0.7546771E-02  0.1200874E+00
         21   -1    0    0  505  502  0.00000000000E+00  0.00000000000E+00  0.17408638901E+03  0.17408638901E+03  0.00000000000E+00 0.  1.
          2   -1    0    0  504    0 -0.00000000000E+00 -0.00000000000E+00 -0.67996502322E+03  0.67996502322E+03  0.00000000000E+00 0. -1.
         21    1    1    2  503  502 -0.48711727493E+02 -0.50329546565E+02 -0.27500566680E+02  0.75247437302E+02  0.00000000000E+00 0.  1.
         21    1    1    2  504  503  0.33089177912E+02 -0.11722344921E+03 -0.20981308529E+03  0.24260618603E+03  0.00000000000E+00 0. -1.
         21    1    1    2  505  501  0.99255465258E+01  0.19999399479E+03  0.57611000063E+02  0.20836300476E+03  0.00000000000E+00 0.  1.
          2    1    1    2  501    0  0.56970030552E+01 -0.32440999015E+02 -0.32617598231E+03  0.32783478414E+03  0.00000000000E+00 0. -1.
<scales pt_clust_3="72.96158" pt_clust_4="149.67418" pt_clust_5="14000.00000" pt_clust_6="32.93743"></scales>
<clustering>
<clus scale="   32.937">  2  6  1 -1</clus>
<clus scale="   72.962">  1  3  2 -1</clus>
<clus scale="  149.674">  2  4  1 -1</clus>
<clus scale="   72.962">  1  3  2 -1</clus>
</clustering>
</event>
<event>
 6    0  0.2572175E+002  0.2057011E+03  0.7546771E-02  0.1145016E+00
         21   -1    0    0  503  502  0.00000000000E+00  0.00000000000E+00  0.17738927931E+03  0.17738927931E+03  0.00000000000E+00 0.  1.
         -3   -1    0    0    0  501 -0.00000000000E+00 -0.00000000000E+00 -0.54934282232E+03  0.54934282232E+03  0.00000000000E+00 0.  1.
         21    1    1    2  503  504 -0.58122051597E+02  0.46796561017E+02 -0.32896428529E+02  0.81549163177E+02  0.00000000000E+00 0.  1.
         21    1    1    2  504  501 -0.90803622643E+02  0.50431145029E+02 -0.59926957252E+01  0.10404090867E+03  0.00000000000E+00 0.  1.
         21    1    1    2  505  502  0.18606726439E+03 -0.13822598667E+03 -0.30767447954E+02  0.23382490484E+03  0.00000000000E+00 0.  1.
         -3    1    1    2    0  505 -0.37141590149E+02  0.40998280623E+02 -0.30229697081E+03  0.30731712496E+03  0.00000000000E+00 0.  1.
<scales pt_clust_3="30.55118" pt_clust_4="30.55118" pt_clust_5="202.51841" pt_clust_6="55.32049"></scales>
<clustering>
<clus scale="   30.551">  3  4 -1 -1</clus>
<clus scale="   55.320">  2  6  1 -1</clus>
<clus scale="  202.518">  2  5  1 -1</clus>
<clus scale="  205.701">  1  3  2 -1</clus>
</clustering>
</event>
<event>
 6    0  0.2572175E+002  0.1079942E+03  0.7546771E-02  0.1264330E+00
         21   -1    0    0  505  502  0.00000000000E+00  0.00000000000E+00  0.89688728987E+02  0.89688728987E+02  0.00000000000E+00 0.  1.
          2   -1    0    0  504    0 -0.00000000000E+00 -0.00000000000E+00 -0.21762450596E+04  0.21762450596E+04  0.00000000000E+00 0.  1.
         21    1    1    2  503  501  0.17714314114E+02  0.74581112379E+02 -0.69514403788E+03  0.69935782876E+03  0.00000000000E+00 0.  1.
         21    1    1    2  504  502 -0.54752519301E+02  0.34672860327E+01  0.47155486942E+01  0.55064478947E+02  0.00000000000E+00 0.  1.
         21    1    1    2  505  503 -0.23351194740E+02 -0.87757449135E+02  0.20882923793E+02  0.93181246399E+02  0.00000000000E+00 0.  1.
          2    1    1    2  501    0  0.60389399927E+02  0.97090507227E+01 -0.14170107652E+04  0.14183302345E+04  0.00000000000E+00 0.  1.
<scales pt_clust_3="107.99423" pt_clust_4="54.86220" pt_clust_5="14000.00000" pt_clust_6="60.57472"></scales>
<clustering>
<clus scale="   54.862">  1  4  2 -1</clus>
<clus scale="   60.575">  2  6  1 -1</clus>
<clus scale="  107.994">  2  3  1 -1</clus>
<clus scale="   54.862">  1  3  2 -1</clus>
</clustering>
</event>
<event>
 6    0  0.2572175E+002  0.1529905E+03  0.7546771E-02  0.1196846E+00
          3   -1    0    0  504    0 -0.00000000000E+00  0.00000000000E+00  0.25420261337E+03  0.25420261337E+03  0.00000000000E+00 0.  1.
         21   -1    0    0  505  502  0.00000000000E+00 -0.00000000000E+00 -0.36925254793E+03  0.36925254793E+03  0.00000000000E+00 0. -1.
         21    1    1    2  503  501 -0.60076579092E+02  0.78462975379E+02 -0.13231971846E+03  0.16514884727E+03  0.00000000000E+00 0. -1.
         21    1    1    2  504  502  0.12974875077E+03 -0.54674903361E+02 -0.27474240439E+02  0.14345353698E+03  0.00000000000E+00 0.  1.
         21    1    1    2  505  503 -0.48512097000E+02  0.24067579437E+02 -0.12553391447E+03  0.13671662524E+03  0.00000000000E+00 0. -1.
          3    1    1    2  501    0 -0.21160074678E+02 -0.47855651455E+02  0.17027793881E+03  0.17813615181E+03  0.00000000000E+00 0.  1.
<scales pt_clust_3="35.73487" pt_clust_4="145.17518" pt_clust_5="35.73487" pt_clust_6="52.32506"></scales>
<clustering>
<clus scale="   35.735">  3  5 -1 -1</clus>
<clus scale="   52.325">  1  6  2 -1</clus>
<clus scale="  145.175">  1  4  2 -1</clus>
<clus scale="  152.990">  2  3  1 -1</clus>
</clustering>
</event>
<event>
 6    0  0.2572175E+002  0.7246152E+02  0.7546771E-02  0.1351917E+00
         -4   -1    0    0    0  501 -0.00000000000E+00  0.00000000000E+00  0.40078643573E+03  0.40078643573E+03  0.00000000000E+00 0. -1.
         21   -1    0    0  504  502  0.00000000000E+00 -0.00000000000E+00 -0.18475146137E+03  0.18475146137E+03  0.00000000000E+00 0.  1.
         21    1    1    2  503  502  0.28111679272E+02  0.69356712365E+02 -0.11544950779E+03  0.13758346162E+03  0.00000000000E+00 0.  1.
         21    1    1    2  504  501 -0.54958183278E+02 -0.36435153540E+02  0.64737769642E+02  0.92406174799E+02  0.00000000000E+00 0. -1.
         21    1    1    2  505  503  0.48347943271E+02 -0.60665774547E+02 -0.85302696178E+01  0.78042458442E+02  0.00000000000E+00 0.  1.
         -4    1    1    2    0  505 -0.21501439265E+02  0.27744215721E+02  0.27527698212E+03  0.27750580225E+03  0.00000000000E+00 0. -1.
<scales pt_clust_3="14000.00000" pt_clust_4="72.46152" pt_clust_5="67.76875" pt_clust_6="35.10062"></scales>
<clustering>
<clus scale="   35.101">  1  6  2 -1</clus>
<clus scale="   67.769">  1  5  2 -1</clus>
<clus scale="   72.462">  1  4  2 -1</clus>
<clus scale="   72.462">  2  3  1 -1</clus>
</clustering>
</event>
<event>
 6    0  0.2572175E+002  0.8736931E+02  0.7546771E-02  0.1309350E+00
          1   -1    0    0  503    0 -0.00000000000E+00  0.00000000000E+00  0.22117154153E+03  0.22117154153E+03  0.00000000000E+00 0. -1.
         21   -1    0    0  505  502  0.00000000000E+00 -0.00000000000E+00 -0.24285991924E+03  0.24285991924E+03  0.00000000000E+00 0.  1.
         21    1    1    2  503  502 -0.80523692668E+02 -0.71406016238E+02 -0.47884396102E+02  0.11779558407E+03  0.00000000000E+00 0. -1.
         21    1    1    2  504  501  0.71151322101E+02  0.28067960012E+02 -0.27186035258E+02  0.81175128759E+02  0.00000000000E+00 0.  1.
         21    1    1    2  505  504 -0.11076161749E+02  0.82694150269E+02 -0.85384010060E+02  0.11937936598E+03  0.00000000000E+00 0.  1.
          1    1    1    2  501    0  0.20448532315E+02 -0.39356094043E+02  0.13876606371E+03  0.14568138196E+03  0.00000000000E+00 0. -1.
<scales pt_clust_3="14000.00000" pt_clust_4="87.36931" pt_clust_5="74.52010" pt_clust_6="44.35138"></scales>
<clustering>
<clus scale="   44.351">  1  6  2 -1</clus>
<clus scale="   74.520">  2  5  1 -1</clus>
<clus scale="   87.369">  1  4  2 -1</clus>
<clus scale="   74.520">  2  3  1 -1</clus>
</clustering>
</event>
<event>
 6    0  0.2572175E+002  0.3888634E+03  0.7546771E-02  0.1047706E+00
          4   -1    0    0  502    0 -0.00000000000E+00  0.00000000000E+00  0.15711704082E+04  0.15711704082E+04  0.00000000000E+00 0.  1.
         21   -1    0    0  503  502  0.00000000000E+00 -0.00000000000E+00 -0.19402264459E+03  0.19402264459E+03  0.00000000000E+00 0. -1.
         21    1    1    2  503  504  0.28925692620E+03  0.22257457410E+03  0.23700516815E+03  0.43517865311E+03  0.00000000000E+00 0. -1.
         21    1    1    2  504  505 -0.21367807787E+03 -0.16849470160E+03  0.18696715653E+03  0.33015981441E+03  0.00000000000E+00 0. -1.
         21    1    1    2  505  501 -0.11269316643E+03 -0.64200403372E+02  0.16098558685E+03  0.20673122824E+03  0.00000000000E+00 0. -1.
          4    1    1    2  501    0  0.37114318103E+02  0.10120530864E+02  0.79218985208E+03  0.79312335705E+03  0.00000000000E+00 0.  1.
<scales pt_clust_3="380.39327" pt_clust_4="55.00502" pt_clust_5="55.00502" pt_clust_6="38.46944"></scales>
<clustering>
<clus scale="   38.469">  1  6  2 -1</clus>
<clus scale="   55.005">  4  5 -1 -1</clus>
<clus scale="  380.393">  2  3  1 -1</clus>
<clus scale="  380.393">  2  3  1 -1</clus>
</clustering>
</event>
<event>
 6    0  0.2572175E+002  0.1448849E+03  0.7546771E-02  0.1206903E+00
          3   -1    0    0  505    0 -0.00000000000E+00  0.00000000000E+00  0.77067460981E+02  0.77067460981E+02  0.00000000000E+00 0. -1.
         21   -1    0    0  504  502  0.00000000000E+00 -0.00000000000E+00 -0.10135283428E+04  0.10135283428E+04  0.00000000000E+00 0.  1.
         21    1    1    2  503  502 -0.63062334526E+02 -0.28554274539E+02 -0.23124545180E+03  0.24138488687E+03  0.00000000000E+00 0.  1.
         21    1    1    2  504  501  0.51344547345E+02 -0.10148803910E+03 -0.61068754788E+03  0.62118867163E+03  0.00000000000E+00 0.  1.
         21    1    1    2  505  503 -0.28553729800E+02 -0.23793482166E+02 -0.51084854461E+02  0.63175213766E+02  0.00000000000E+00 0.  1.
          3    1    1    2  501    0  0.40271516981E+02  0.15383579581E+03 -0.43443027695E+02  0.16484703154E+03  0.00000000000E+00 0. -1.
<scales pt_clust_3="32.04562" pt_clust_4="113.73691" pt_clust_5="32.04562" pt_clust_6="138.12667"></scales>
<clustering>
<clus scale="   32.046">  3  5 -1 -1</clus>
<clus scale="  113.737">  2  4  1 -1</clus>
<clus scale="  138.127">  1  6  2 -1</clus>
<clus scale="  113.737">  2  3  1 -1</clus>
</clustering>
</event>
<event>
 6    0  0.2572175E+002  0.1053270E+03  0.7546771E-02  0.1269477E+00
          2   -1    0    0  505    0 -0.00000000000E+00  0.00000000000E+00  0.16666756360E+04  0.16666756360E+04  0.00000000000E+00 0.  1.
         21   -1    0    0  504  502  0.00000000000E+00 -0.00000000000E+00 -0.45879457324E+02  0.45879457324E+02  0.00000000000E+00 0. -1.
         21    1    1    2  503  502 -0.20049094029E+02  0.87540611315E+02  0.15508859186E+03  0.17921438593E+03  0.00000000000E+00 0. -1.
         21    1    1    2  504  501 -0.46556126980E+01 -0.71716413899E+02  0.43731575553E+02  0.84127102960E+02  0.00000000000E+00 0. -1.
         21    1    1    2  505  503  0.36469831498E+02  0.65529134819E+02  0.10159349121E+03  0.12627491269E+03  0.00000000000E+00 0. -1.
          2    1    1    2  501    0 -0.11765124770E+02 -0.81353332235E+02  0.13203825200E+04  0.13229386917E+04  0.00000000000E+00 0.  1.
<scales pt_clust_3="55.87012" pt_clust_4="71.86737" pt_clust_5="55.87012" pt_clust_6="85.76560"></scales>
<clustering>
<clus scale="   55.870">  3  5 -1 -1</clus>
<clus scale="   71.867">  2  4  1 -1</clus>
<clus scale="   85.766">  1  6  2 -1</clus>
<clus scale="   71.867">  2  3  1 -1</clus>
</clustering>
</event>
<event>
 6    0  0.2572175E+002  0.1315966E+03  0.7546771E-02  0.1225106E+00
         21   -1    0    0  505  502  0.00000000000E+00  0.00000000000E+00  0.34645596128E+02  0.34645596128E+02  0.00000000000E+00 0. -1.
          2   -1    0    0  504    0 -0.00000000000E+00 -0.00000000000E+00 -0.26573185139E+04  0.26573185139E+04  0.00000000000E+00 0.  1.
         21    1    1    2  503  502 -0.34231974415E+02  0.72509479504E+02 -0.14349362624E+03  0.16437722914E+03  0.00000000000E+00 0. -1.
         21    1    1    2  504  503 -0.65602792724E+02  0.57281374408E+02 -0.10320309221E+03  0.13503984786E+03  0.00000000000E+00 0. -1.
         21    1    1    2  505  501  0.53834946297E+02 -0.17107575082E+02 -0.11331005478E+03  0.12660979063E+03  0.00000000000E+00 0. -1.
          2    1    1    2  501    0  0.45999820843E+02 -0.11268327883E+03 -0.22626661445E+04  0.22659372424E+04  0.00000000000E+00 0.  1.
<scales pt_clust_3="42.68181" pt_clust_4="42.68181" pt_clust_5="56.48779" pt_clust_6="123.85066"></scales>
<clustering>
<clus scale="   42.682">  3  4 -1 -1</clus>
<clus scale="   56.488">  1  5  2 -1</clus>
<clus scale="  123.851">  2  6  1 -1</clus>
<clus scale="   56.488">  1  3  2 -1</clus>
</clustering>
</event>
<event>
 6    0  0.2572175E+002  0.9912358E+02  0.7546771E-02  0.1282150E+00
          2   -1    0    0  505    0 -0.00000000000E+00  0.00000000000E+00  0.95796291177E+02  0.95796291177E+02  0.00000000000E+00 0. -1.
         21   -1    0    0  504  502  0.00000000000E+00 -0.00000000000E+00 -0.47874706772E+03  0.47874706772E+03  0.00000000000E+00 0. -1.
         21    1    1    2  503  502 -0.69406850493E+02  0.61547032100E+02 -0.23956466275E+03  0.25689798694E+03  0.00000000000E+00 0. -1.
         21    1    1    2  504  501 -0.55433134189E+02 -0.74202459740E+02 -0.12356320061E+03  0.15442377389E+03  0.00000000000E+00 0. -1.
         21    1    1    2  505  503  0.96495450452E+02  0.42637717505E+02 -0.45212500666E+02  0.11477594316E+03  0.00000000000E+00 0. -1.
          2    1    1    2  501    0  0.28344534230E+02 -0.29982289865E+02  0.25389587486E+02  0.48445654903E+02  0.00000000000E+00 0. -1.
<scales pt_clust_3="86.71696" pt_clust_4="14000.00000" pt_clust_5="99.12358" pt_clust_6="41.25955"></scales>
<clustering>
<clus scale="   41.260">  1  6  2 -1</clus>
<clus scale="   86.717">  2  3  1 -1</clus>
<clus scale="   99.124">  1  5  2 -1</clus>
<clus scale="   86.717">  2  3  1 -1</clus>
</clustering>
</event>
<event>
 6    0  0.2572175E+002  0.1246841E+03  0.7546771E-02  0.1235564E+00
          1   -1    0    0  504    0 -0.00000000000E+00  0.00000000000E+00  0.59059497705E+03  0.59059497705E+03  0.00000000000E+00 0.  1.
         21   -1    0    0  503  502  0.00000000000E+00 -0.00000000000E+00 -0.75123587841E+02  0.75123587841E+02  0.00000000000E+00 0. -1.
         21    1    1    2  503  505  0.52122084301E+02  0.35971612391E+02  0.37360042400E+01  0.63439942446E+02  0.00000000000E+00 0. -1.
         21    1    1    2  504  502 -0.84551501649E+02  0.19645241343E+02  0.94291160347E+02  0.12816284508E+03  0.00000000000E+00 0. -1.
         21    1    1    2  505  501  0.26965908988E+02  0.61956405899E+02  0.39500942783E+02  0.78269284910E+02  0.00000000000E+00 0.  1.
          1    1    1    2  501    0  0.54635083603E+01 -0.11757325963E+03  0.37794328184E+03  0.39584649246E+03  0.00000000000E+00 0.  1.
<scales pt_clust_3="47.10309" pt_clust_4="86.80376" pt_clust_5="47.10309" pt_clust_6="114.79917"></scales>
<clustering>
<clus scale="   47.103">  3  5 -1 -1</clus>
<clus scale="   86.804">  2  4  1 -1</clus>
<clus scale="  114.799">  1  6  2 -1</clus>
<clus scale="   86.804">  2  3  1 -1</clus>
</clustering>
</event>
<event>
 6    0  0.2572175E+002  0.1457686E+03  0.7546771E-02  0.1205771E+00
          2   -1    0    0  505    0 -0.00000000000E+00  0.00000000000E+00  0.23223008167E+04  0.23223008167E+04  0.00000000000E+00 0. -1.
         21   -1    0    0  504  502  0.00000000000E+00 -0.00000000000E+00 -0.36206467333E+03  0.36206467333E+03  0.00000000000E+00 0.  1.
         21    1    1    2  503  502 -0.87087132213E+02  0.38598564670E+02 -0.10091424741E+03  0.13877212661E+03  0.00000000000E+00 0.  1.
         21    1    1    2  504  501 -0.62370997802E+02 -0.28596490161E+02 -0.22662263992E+03  0.23678201270E+03  0.00000000000E+00 0.  1.
         21    1    1    2  505  503  0.16349346258E+03 -0.11159247325E+03  0.17656832823E+04  0.17767443389E+04  0.00000000000E+00 0. -1.
          2    1    1    2  501    0 -0.14035332565E+02  0.10159039875E+03  0.52208974835E+03  0.53206701177E+03  0.00000000000E+00 0. -1.
<scales pt_clust_3="145.76863" pt_clust_4="68.61414" pt_clust_5="14000.00000" pt_clust_6="101.82902"></scales>
<clustering>
<clus scale="   68.614">  2  4  1 -1</clus>
<clus scale="  101.829">  1  6  2 -1</clus>
<clus scale="  145.769">  2  3  1 -1</clus>
<clus scale="   68.614">  2  3  1 -1</clus>
</clustering>
</event>
<event>
 6    0  0.2572175E+002  0.1309556E+03  0.7546771E-02  0.1226045E+00
          2   -1    0    0  505    0 -0.00000000000E+00  0.00000000000E+00  0.53412582223E+03  0.53412582223E+03  0.00000000000E+00 0. -1.
         21   -1    0    0  504  502  0.00000000000E+00 -0.00000000000E+00 -0.12825260874E+03  0.12825260874E+03  0.00000000000E+00 0. -1.
         21    1    1    2  503  502  0.58947514345E+01  0.29762031484E+02  0.20205851965E+02  0.36452751146E+02  0.00000000000E+00 0. -1.
         21    1    1    2  504  501 -0.19193456381E+03 -0.29311465335E+02  0.43930516321E+02  0.19906764943E+03  0.00000000000E+00 0. -1.
         21    1    1    2  505  503  0.64172244094E+02  0.16722312588E+02  0.29179893736E+01  0.66379419343E+02  0.00000000000E+00 0. -1.
          2    1    1    2  501    0  0.12186756828E+03 -0.17172878736E+02  0.33881885583E+03  0.36047861106E+03  0.00000000000E+00 0. -1.
<scales pt_clust_3="30.34018" pt_clust_4="14000.00000" pt_clust_5="70.17614" pt_clust_6="130.95560"></scales>
<clustering>
<clus scale="   30.340">  2  3  1 -1</clus>
<clus scale="   70.176">  2  5  1 -1</clus>
<clus scale="  130.956">  1  6  2 -1</clus>
<clus scale="   30.340">  2  3  1 -1</clus>
</clustering>
</event>
<event>
 6    0  0.2572175E+002  0.1168758E+03  0.7546771E-02  0.1248342E+00
          1   -1    0    0  504    0 -0.00000000000E+00  0.00000000000E+00  0.10172343306E+04  0.10172343306E+04  0.00000000000E+00 0.  1.
         21   -1    0    0  501  502  0.00000000000E+00 -0.00000000000E+00 -0.55378797072E+02  0.55378797072E+02  0.00000000000E+00 0.  1.
         21    1    1    2  503  502 -0.51716502505E+02 -0.42749990625E+02  0.48705936242E+02  0.82912161683E+02  0.00000000000E+00 0.  1.
         21    1    1    2  504  505 -0.10382545758E+02  0.49947913288E+02  0.16209743283E+02  0.53528936806E+02  0.00000000000E+00 0.  1.
         21    1    1    2  505  503 -0.45305434339E+02  0.17469641764E+02  0.20294574867E+02  0.52627374369E+02  0.00000000000E+00 0.  1.
          1    1    1    2  501    0  0.10740448260E+03 -0.24667564427E+02  0.87664527918E+03  0.88354465486E+03  0.00000000000E+00 0.  1.
<scales pt_clust_3="67.09812" pt_clust_4="46.68979" pt_clust_5="46.68979" pt_clust_6="106.62846"></scales>
<clustering>
<clus scale="   46.690">  4  5 -1 -1</clus>
<clus scale="   67.098">  2  3  1 -1</clus>
<clus scale="  106.628">  1  6  2 -1</clus>
<clus scale="   67.098">  2  3  1 -1</clus>
</clustering>
</event>
<event>
 6    0  0.2572175E+002  0.1138700E+03  0.7546771E-02  0.1253567E+00
         21   -1    0    0  503  502  0.00000000000E+00  0.00000000000E+00  0.21373078102E+03  0.21373078102E+03  0.00000000000E+00 0.  1.
          2   -1    0    0  504    0 -0.00000000000E+00 -0.00000000000E+00 -0.51181215934E+03  0.51181215934E+03  0.00000000000E+00 0. -1.
         21    1    1    2  503  505 -0.39557069036E+02  0.10675485901E+03  0.16103563982E+03  0.19721520967E+03  0.00000000000E+00 0.  1.
         21    1    1    2  504  502  0.33752942130E+02  0.10362275612E+02  0.13683355895E+02  0.37866503494E+02  0.00000000000E+00 0.  1.
         21    1    1    2  505  501  0.19376527938E+02 -0.87971560574E+02 -0.25812309548E+03  0.27338979082E+03  0.00000000000E+00 0. -1.
          2    1    1    2  501    0 -0.13572401032E+02 -0.29145574047E+02 -0.21467727856E+03  0.21707143637E+03  0.00000000000E+00 0. -1.
<scales pt_clust_3="14000.00000" pt_clust_4="34.44196" pt_clust_5="113.86999" pt_clust_6="32.15081"></scales>
<clustering>
<clus scale="   32.151">  2  6  1 -1</clus>
<clus scale="   34.442">  1  4  2 -1</clus>
<clus scale="  113.870">  2  5  1 -1</clus>
<clus scale="   34.442">  1  3  2 -1</clus>
</clustering>
</event>
<event>
 6    0  0.2572175E+002  0.1257418E+03  0.7546771E-02  0.1233915E+00
         21   -1    0    0  504  502  0.00000000000E+00  0.00000000000E+00  0.69977248960E+03  0.69977248960E+03  0.00000000000E+00 0.  1.
          2   -1    0    0  505    0 -0.00000000000E+00 -0.00000000000E+00 -0.61791781329E+03  0.61791781329E+03  0.00000000000E+00 0.  1.
         21    1    1    2  503  501 -0.74042771790E+02  0.14755191153E+03  0.29805451467E+03  0.34072040204E+03  0.00000000000E+00 0.  1.
         21    1    1    2  504  503 -0.36925438055E+02 -0.26435766055E+02  0.12362152957E+02  0.47065491904E+02  0.00000000000E+00 0. -1.
         21    1    1    2  505  502  0.11154885518E+03 -0.36767171180E+02  0.33762367054E+03  0.35746987968E+03  0.00000000000E+00 0.  1.
          2    1    1    2  501    0 -0.58064533753E+00 -0.84348974300E+02 -0.56618566185E+03  0.57243452927E+03  0.00000000000E+00 0.  1.
<scales pt_clust_3="14000.00000" pt_clust_4="45.41297" pt_clust_5="125.74177" pt_clust_6="84.47560"></scales>
<clustering>
<clus scale="   45.413">  1  4  2 -1</clus>
<clus scale="   84.476">  2  6  1 -1</clus>
<clus scale="  125.742">  1  5  2 -1</clus>
<clus scale="   45.413">  1  3  2 -1</clus>
</clustering>
</event>
<event>
 6    0  0.2572175E+002  0.1529195E+03  0.7546771E-02  0.1196931E+00
          2   -1    0    0  505    0 -0.00000000000E+00  0.00000000000E+00  0.12805205642E+04  0.12805205642E+04  0.00000000000E+00 0.  1.
         21   -1    0    0  503  502  0.00000000000E+00 -0.00000000000E+00 -0.11030153268E+03  0.11030153268E+03  0.00000000000E+00 0. -1.
         21    1    1    2  503  501 -0.12441551748E+03 -0.35761780943E+02  0.20275721801E+03  0.24055896454E+03  0.00000000000E+00 0.  1.
         21    1    1    2  504  502  0.56747163854E+02 -0.30180621739E+02 -0.24152089381E+02  0.68661735745E+02  0.00000000000E+00 0. -1.
         21    1    1    2  505  504  0.80110115870E+02  0.37287947430E+02 -0.11259253998E+01  0.88370183864E+02  0.00000000000E+00 0. -1.
          2    1    1    2  501    0 -0.12441762244E+02  0.28654455252E+02  0.99273982834E+03  0.99323121277E+03  0.00000000000E+00 0.  1.
<scales pt_clust_3="134.70242" pt_clust_4="60.74274" pt_clust_5="60.74274" pt_clust_6="31.23900"></scales>
<clustering>
<clus scale="   31.239">  1  6  2 -1</clus>
<clus scale="   60.743">  4  5 -1 -1</clus>
<clus scale="  134.702">  1  3  2 -1</clus>
<clus scale="  152.919">  2  3  1 -1</clus>
</clustering>
</event>
<event>
 6    0  0.2572175E+002  0.1152333E+03  0.7546771E-02  0.1251174E+00
          1   -1    0    0  505    0 -0.00000000000E+00  0.00000000000E+00  0.11852996660E+04  0.11852996660E+04  0.00000000000E+00 0. -1.
         21   -1    0    0  503  502  0.00000000000E+00 -0.00000000000E+00 -0.33045863916E+03  0.33045863916E+03  0.00000000000E+00 0. -1.
         21    1    1    2  503  501 -0.22575037117E+02 -0.47257966627E+02 -0.22175602568E+03  0.22785671514E+03  0.00000000000E+00 0. -1.
         21    1    1    2  504  502  0.41013122281E+02  0.20565742510E+02 -0.87287409919E+02  0.98610942064E+02  0.00000000000E+00 0. -1.
         21    1    1    2  505  504 -0.11973846413E+03  0.58538001196E+02  0.52571896525E+03  0.54235083461E+03  0.00000000000E+00 0. -1.
          1    1    1    2  501    0  0.10130037896E+03 -0.31845777079E+02  0.63816549718E+03  0.64693981334E+03  0.00000000000E+00 0. -1.
<scales pt_clust_3="32.19145" pt_clust_4="45.88056" pt_clust_5="14000.00000" pt_clust_6="115.23328"></scales>
<clustering>
<clus scale="   45.881">  2  4  1 -1</clus>
<clus scale="   32.191">  2  3  1 -1</clus>
<clus scale="  115.233">  1  6  2 -1</clus>
<clus scale="   45.881">  2  3  1 -1</clus>
</clustering>
</event>
<event>
 6    0  0.2572175E+002  0.1493884E+03  0.7546771E-02  0.1201227E+00
         21   -1    0    0  505  502  0.00000000000E+00  0.00000000000E+00  0.51354332219E+02  0.51354332219E+02  0.00000000000E+00 0.  1.
          2   -1    0    0  503    0 -0.00000000000E+00 -0.00000000000E+00 -0.51956429902E+03  0.51956429902E+03  0.00000000000E+00 0. -1.
         21    1    1    2  503  504  0.38800537193E+02  0.49866658669E+02 -0.61397224146E+02  0.88100990153E+02  0.00000000000E+00 0.  1.
         21    1    1    2  504  502  0.80528607540E+02  0.27428653797E+02 -0.55314425248E+02  0.10147351044E+03  0.00000000000E+00 0.  1.
         21    1    1    2  505  501 -0.51444599284E+02 -0.44230252325E+02 -0.21373546505E+03  0.22424475699E+03  0.00000000000E+00 0. -1.
          2    1    1    2  501    0 -0.67884545449E+02 -0.33065060140E+02 -0.13776285236E+03  0.15709937365E+03  0.00000000000E+00 0. -1.
<scales pt_clust_3="39.51992" pt_clust_4="39.51992" pt_clust_5="38.59980" pt_clust_6="147.89280"></scales>
<clustering>
<clus scale="   38.600">  5  6 -1 -1</clus>
<clus scale="   39.520">  3  4 -1 -1</clus>
<clus scale="  147.893">  2  5  1 -1</clus>
<clus scale="  149.388">  1  3  2 -1</clus>
</clustering>
</event>
<event>
 6    0  0.2572175E+002  0.2385721E+03  0.7546771E-02  0.1120748E+00
          2   -1    0    0  502    0 -0.00000000000E+00  0.00000000000E+00  0.60522267815E+03  0.60522267815E+03  0.00000000000E+00 0.  1.
         21   -1    0    0  504  502  0.00000000000E+00 -0.00000000000E+00 -0.11321520532E+04  0.11321520532E+04  0.00000000000E+00 0. -1.
         21    1    1    2  503  505  0.84240939233E+02 -0.44068704000E+02 -0.49238170346E+03  0.50147614940E+03  0.00000000000E+00 0. -1.
         21    1    1    2  504  503  0.13590596996E+03 -0.36178429739E+02 -0.57135083504E+03  0.58840554735E+03  0.00000000000E+00 0. -1.
         21    1    1    2  505  501 -0.26543941687E+03  0.59666803593E+02  0.29778988952E+03  0.40335719874E+03  0.00000000000E+00 0.  1.
          2    1    1    2  501    0  0.45292507677E+02  0.20580330146E+02  0.23901327393E+03  0.24413583587E+03  0.00000000000E+00 0.  1.
<scales pt_clust_3="30.88346" pt_clust_4="30.88346" pt_clust_5="235.59648" pt_clust_6="49.74898"></scales>
<clustering>
<clus scale="   30.883">  3  4 -1 -1</clus>
<clus scale="   49.749">  1  6  2 -1</clus>
<clus scale="  235.596">  1  5  2 -1</clus>
<clus scale="  238.572">  2  3  1 -1</clus>
</clustering>
</event>
<event>
 6    0  0.2951878E+002  0.1299611E+03  0.7546771E-02  0.1227514E+00
          1   -1    0    0  505    0 -0.00000000000E+00  0.00000000000E+00  0.18390450848E+04  0.18390450848E+04  0.00000000000E+00 0.  1.
         21   -1    0    0  504  502  0.00000000000E+00 -0.00000000000E+00 -0.28685733790E+03  0.28685733790E+03  0.00000000000E+00 0. -1.
         21    1    1    2  503  502  0.32177161039E+02  0.17622611426E+02 -0.71159213847E+02  0.80059726713E+02  0.00000000000E+00 0.  1.
         21    1    1    2  504  501  0.37570801637E+02 -0.24184285069E+02 -0.11947190955E+02  0.46251271893E+02  0.00000000000E+00 0.  1.
         21    1    1    2  505  503  0.44585405847E+02 -0.56956950430E+02 -0.17251079777E+03  0.18706129467E+03  0.00000000000E+00 0. -1.
          1    1    1    2  501    0 -0.11433336852E+03  0.63518624073E+02  0.18078049495E+04  0.18125301294E+04  0.00000000000E+00 0.  1.
<scales pt_clust_3="36.68687" pt_clust_4="47.30354" pt_clust_5="129.96107" pt_clust_6="14000.00000"></scales>
<clustering>
<clus scale="   36.687">  2  3  1 -1</clus>
<clus scale="   47.304">  2  4  1 -1</clus>
<clus scale="  129.961">  2  5  1 -1</clus>
<clus scale="   36.687">  2  3  1 -1</clus>
</clustering>
</event>
<event>
 6    0  0.2572175E+002  0.2159774E+03  0.7546771E-02  0.1136918E+00
         21   -1    0    0  504  502  0.00000000000E+00  0.00000000000E+00  0.14812817068E+04  0.14812817068E+04  0.00000000000E+00 0. -1.
         -1   -1    0    0    0  501 -0.00000000000E+00 -0.00000000000E+00 -0.23291808092E+03  0.23291808092E+03  0.00000000000E+00 0.  1.
         21    1    1    2  503  505 -0.14815741367E+02  0.11573399110E+03  0.13677813329E+03  0.17978353827E+03  0.00000000000E+00 0.  1.
         21    1    1    2  504  501  0.85310716234E+02 -0.19721816883E+03  0.11180371282E+04  0.11384989875E+04  0.00000000000E+00 0. -1.
         21    1    1    2  505  502 -0.14078882137E+02  0.54738397268E+02  0.18557732524E+03  0.19399342953E+03  0.00000000000E+00 0. -1.
         -1    1    1    2    0  503 -0.56416092730E+02  0.26745780468E+02 -0.19202896087E+03  0.20192383243E+03  0.00000000000E+00 0.  1.
<scales pt_clust_3="53.46235" pt_clust_4="201.85591" pt_clust_5="53.46235" pt_clust_6="62.43486"></scales>
<clustering>
<clus scale="   53.462">  3  5 -1 -1</clus>
<clus scale="   62.435">  2  6  1 -1</clus>
<clus scale="  201.856">  1  4  2 -1</clus>
<clus scale="  201.856">  1  3  2 -1</clus>
</clustering>
</event>
<event>
 6    0  0.2572175E+002  0.2518291E+03  0.7546771E-02  0.1112154E+00
         -1   -1    0    0    0  501 -0.00000000000E+00  0.00000000000E+00  0.38263919820E+03  0.38263919820E+03  0.00000000000E+00 0.  1.
         21   -1    0    0  505  502  0.00000000000E+00 -0.00000000000E+00 -0.58622133911E+03  0.58622133911E+03  0.00000000000E+00 0. -1.
         21    1    1    2  503  501  0.76653779876E+02  0.60533909718E+02 -0.12390790444E+03  0.15777618635E+03  0.00000000000E+00 0. -1.
         21    1    1    2  504  502 -0.20016274351E+03 -0.18111391825E+03 -0.25940407588E+03  0.37437661500E+03  0.00000000000E+00 0. -1.
         21    1    1    2  505  503  0.10721172826E+03  0.74971390462E+02 -0.92487429244E+02  0.16021544443E+03  0.00000000000E+00 0. -1.
         -1    1    1    2    0  504  0.16297235372E+02  0.45608618067E+02  0.27221726866E+03  0.27649229154E+03  0.00000000000E+00 0.  1.
<scales pt_clust_3="39.81741" pt_clust_4="247.57697" pt_clust_5="39.81741" pt_clust_6="48.43290"></scales>
<clustering>
<clus scale="   39.817">  3  5 -1 -1</clus>
<clus scale="   48.433">  1  6  2 -1</clus>
<clus scale="  247.577">  1  4  2 -1</clus>
<clus scale="  251.829">  2  3  1 -1</clus>
</clustering>
</event>
<event>
 6    0  0.2572175E+002  0.1102609E+03  0.7546771E-02  0.1260087E+00
         21   -1    0    0  504  502  0.00000000000E+00  0.00000000000E+00  0.15123291830E+03  0.15123291830E+03  0.00000000000E+00 0. -1.
         -2   -1    0    0    0  501 -0.00000000000E+00 -0.00000000000E+00 -0.36774020970E+03  0.36774020970E+03  0.00000000000E+00 0. -1.
         21    1    1    2  503  505  0.50509305240E+02 -0.11116223610E+03 -0.82913892625E+02  0.14759046798E+03  0.00000000000E+00 0. -1.
         21    1    1    2  504  501 -0.41676163020E+02  0.11435697539E+03  0.36162777748E+02  0.12697309510E+03  0.00000000000E+00 0. -1.
         21    1    1    2  505  502 -0.14136403957E+02 -0.33279899499E+02  0.27106832261E+02  0.45190374891E+02  0.00000000000E+00 0. -1.
         -2    1    1    2    0  503  0.53032617381E+01  0.30085160207E+02 -0.19686300878E+03  0.19921919003E+03  0.00000000000E+00 0. -1.
<scales pt_clust_3="110.26093" pt_clust_4="14000.00000" pt_clust_5="34.57393" pt_clust_6="30.54900"></scales>
<clustering>
<clus scale="   30.549">  2  6  1 -1</clus>
<clus scale="   34.574">  1  5  2 -1</clus>
<clus scale="  110.261">  2  3  1 -1</clus>
<clus scale="   34.574">  1  3  2 -1</clus>
</clustering>
</event>
<event>
 6    0  0.2572175E+002  0.1719424E+03  0.7546771E-02  0.1175837E+00
         21   -1    0    0  503  502  0.00000000000E+00  0.00000000000E+00  0.41981195548E+03  0.41981195548E+03  0.00000000000E+00 0.  1.
          2   -1    0    0  502    0 -0.00000000000E+00 -0.00000000000E+00 -0.28316235333E+03  0.28316235333E+03  0.00000000000E+00 0.  1.
         21    1    1    2  503  505 -0.36061472366E+02  0.33556952403E+02  0.31586794440E+02  0.58516873009E+02  0.00000000000E+00 0.  1.
         21    1    1    2  504  501  0.27483519859E+02 -0.18117662314E+03 -0.53091620766E+02  0.19078530559E+03  0.00000000000E+00 0.  1.
         21    1    1    2  505  504 -0.24899052713E+02  0.13550255581E+03  0.28788066547E+03  0.31914915479E+03  0.00000000000E+00 0.  1.
          2    1    1    2  501    0  0.33477005219E+02  0.12117114923E+02 -0.12972623699E+03  0.13452297542E+03  0.00000000000E+00 0.  1.
<scales pt_clust_3="47.89387" pt_clust_4="171.94240" pt_clust_5="14000.00000" pt_clust_6="35.60245"></scales>
<clustering>
<clus scale="   35.602">  2  6  1 -1</clus>
<clus scale="   47.894">  1  3  2 -1</clus>
<clus scale="  171.942">  2  4  1 -1</clus>
<clus scale="   47.894">  1  3  2 -1</clus>
</clustering>
</event>
<event>
 6    0  0.2572175E+002  0.1690397E+03  0.7546771E-02  0.1178853E+00
         21   -1    0    0  501  502  0.00000000000E+00  0.00000000000E+00  0.62160173214E+02  0.62160173214E+02  0.00000000000E+00 0. -1.
          2   -1    0    0  504    0 -0.00000000000E+00 -0.00000000000E+00 -0.90531746817E+03  0.90531746817E+03  0.00000000000E+00 0. -1.
         21    1    1    2  503  505 -0.28012184099E+02 -0.31003388572E+02 -0.35506416020E+02  0.54832455166E+02  0.00000000000E+00 0. -1.
         21    1    1    2  504  503 -0.36924588286E+02 -0.10578556449E+03 -0.25475407332E+03  0.27830495638E+03  0.00000000000E+00 0. -1.
         21    1    1    2  505  502  0.87985391877E+02 -0.33754674242E+02 -0.58671891712E+02  0.11100990088E+03  0.00000000000E+00 0. -1.
          2    1    1    2  501    0 -0.23048619492E+02  0.17054362731E+03 -0.49422491391E+03  0.52333032895E+03  0.00000000000E+00 0. -1.
<scales pt_clust_3="37.65126" pt_clust_4="37.65126" pt_clust_5="94.23803" pt_clust_6="157.39457"></scales>
<clustering>
<clus scale="   37.651">  3  4 -1 -1</clus>
<clus scale="   94.238">  1  5  2 -1</clus>
<clus scale="  157.395">  2  6  1 -1</clus>
<clus scale="   94.238">  1  3  2 -1</clus>
</clustering>
</event>
<event>
 6    0  0.2572175E+002  0.9585835E+02  0.7546771E-02  0.1289254E+00
         21   -1    0    0  505  502  0.00000000000E+00  0.00000000000E+00  0.38334922557E+03  0.38334922557E+03  0.00000000000E+00 0.  1.
          1   -1    0    0  504    0 -0.00000000000E+00 -0.00000000000E+00 -0.69233481430E+03  0.69233481430E+03  0.00000000000E+00 0. -1.
         21    1    1    2  503  502 -0.57734961937E+02 -0.13845999279E+02  0.23845988689E+03  0.24574001542E+03  0.00000000000E+00 0.  1.
         21    1    1    2  504  503  0.47204522970E+01  0.11258017931E+03  0.70480978783E+02  0.13290653789E+03  0.00000000000E+00 0. -1.
         21    1    1    2  505  501 -0.17854972529E+02 -0.33061644654E+02  0.26134293514E+02  0.45769790132E+02  0.00000000000E+00 0.  1.
          1    1    1    2  501    0  0.70869482169E+02 -0.65672535377E+02 -0.64406074791E+03  0.65126769642E+03  0.00000000000E+00 0. -1.
<scales pt_clust_3="79.28161" pt_clust_4="14000.00000" pt_clust_5="37.57489" pt_clust_6="95.85835"></scales>
<clustering>
<clus scale="   37.575">  1  5  2 -1</clus>
<clus scale="   79.282">  1  3  2 -1</clus>
<clus scale="   95.858">  2  6  1 -1</clus>
<clus scale="   37.575">  1  3  2 -1</clus>
</clustering>
</event>
<event>
 6    0  0.2572175E+002  0.2763028E+03  0.7546771E-02  0.1097726E+00
         21   -1    0    0  505  502  0.00000000000E+00  0.00000000000E+00  0.54129161816E+03  0.54129161816E+03  0.00000000000E+00 0. -1.
          1   -1    0    0  504    0 -0.00000000000E+00 -0.00000000000E+00 -0.18875303040E+04  0.18875303040E+04  0.00000000000E+00 0. -1.
         21    1    1    2  503  501 -0.89102302124E+02  0.18846420559E+03  0.35319509221E+03  0.41012772424E+03  0.00000000000E+00 0. -1.
         21    1    1    2  504  502  0.18262046832E+03 -0.20409483258E+03 -0.13873725144E+04  0.14141454769E+04  0.00000000000E+00 0.  1.
         21    1    1    2  505  503 -0.53737605384E+02  0.40238909013E+02  0.13726065370E+03  0.15279851794E+03  0.00000000000E+00 0.  1.
          1    1    1    2  501    0 -0.39780560815E+02 -0.24608282020E+02 -0.44932191734E+03  0.45175020306E+03  0.00000000000E+00 0. -1.
<scales pt_clust_3="34.19408" pt_clust_4="269.65252" pt_clust_5="34.19408" pt_clust_6="46.77671"></scales>
<clustering>
<clus scale="   34.194">  3  5 -1 -1</clus>
<clus scale="   46.777">  2  6  1 -1</clus>
<clus scale="  269.653">  2  4  1 -1</clus>
<clus scale="  276.303">  1  3  2 -1</clus>
</clustering>
</event>
<event>
 6    0  0.2572175E+002  0.1013538E+03  0.7546771E-02  0.1277475E+00
          2   -1    0    0  504    0 -0.00000000000E+00  0.00000000000E+00  0.14750642462E+04  0.14750642462E+04  0.00000000000E+00 0. -1.
         21   -1    0    0  503  502  0.00000000000E+00 -0.00000000000E+00 -0.12572571701E+03  0.12572571701E+03  0.00000000000E+00 0. -1.
         21    1    1    2  503  501  0.11379972778E+02 -0.47837987854E+02  0.15102456923E+02  0.51439878183E+02  0.00000000000E+00 0. -1.
         21    1    1    2  504  505  0.72469175656E+02  0.12004201117E+03  0.11329365068E+03  0.18027012273E+03  0.00000000000E+00 0.  1.
         21    1    1    2  505  502  0.70489237424E+01 -0.66041316569E+02 -0.57225427045E+02  0.87669221056E+02  0.00000000000E+00 0. -1.
          2    1    1    2  501    0 -0.90898072176E+02 -0.61627067443E+01  0.12781678487E+04  0.12814107413E+04  0.00000000000E+00 0. -1.
<scales pt_clust_3="49.17293" pt_clust_4="101.35379" pt_clust_5="14000.00000" pt_clust_6="90.98730"></scales>
<clustering>
<clus scale="   49.173">  2  3  1 -1</clus>
<clus scale="   90.987">  1  6  2 -1</clus>
<clus scale="  101.354">  1  4  2 -1</clus>
<clus scale="   49.173">  2  3  1 -1</clus>
</clustering>
</event>
<event>
 6    0  0.2572175E+002  0.9937105E+02  0.7546771E-02  0.1281624E+00
         21   -1    0    0  505  502  0.00000000000E+00  0.00000000000E+00  0.77656119284E+03  0.77656119284E+03  0.00000000000E+00 0. -1.
         -1   -1    0    0    0  501 -0.00000000000E+00 -0.00000000000E+00 -0.10032869370E+03  0.10032869370E+03  0.00000000000E+00 0.  1.
         21    1    1    2  503  502 -0.26573590845E+02  0.15947537751E+03  0.48282946967E+03  0.50917860182E+03  0.00000000000E+00 0. -1.
         21    1    1    2  504  501 -0.17751799998E+01 -0.66601017220E+02  0.88986958103E+02  0.11116440739E+03  0.00000000000E+00 0.  1.
         21    1    1    2  505  504 -0.38825047573E+02 -0.22925411111E+02  0.14467810178E+03  0.15154112289E+03  0.00000000000E+00 0. -1.
         -1    1    1    2    0  503  0.67173818417E+02 -0.69948949179E+02 -0.40262030414E+02  0.10500575444E+03  0.00000000000E+00 0.  1.
<scales pt_clust_3="99.37105" pt_clust_4="70.70097" pt_clust_5="45.08834" pt_clust_6="14000.00000"></scales>
<clustering>
<clus scale="   45.088">  1  5  2 -1</clus>
<clus scale="   70.701">  1  4  2 -1</clus>
<clus scale="   99.371">  1  3  2 -1</clus>
<clus scale="   45.088">  1  3  2 -1</clus>
</clustering>
</event>
<event>
 6    0  0.2572175E+002  0.1724620E+03  0.7546771E-02  0.1175304E+00
         21   -1    0    0  504  502  0.00000000000E+00  0.00000000000E+00  0.37274282411E+03  0.37274282411E+03  0.00000000000E+00 0. -1.
          2   -1    0    0  503    0 -0.00000000000E+00 -0.00000000000E+00 -0.19715741542E+04  0.19715741542E+04  0.00000000000E+00 0.  1.
         21    1    1    2  503  505 -0.29186439656E+03  0.37301592264E+02 -0.11148847772E+04  0.11530586720E+04  0.00000000000E+00 0.  1.
         21    1    1    2  504  501  0.80854890903E+02 -0.20570533377E+02 -0.15373540679E+02  0.84835169472E+02  0.00000000000E+00 0. -1.
         21    1    1    2  505  502  0.74311425954E+02 -0.52779669656E+02  0.30588058231E+03  0.31917207301E+03  0.00000000000E+00 0. -1.
          2    1    1    2  501    0  0.13669807971E+03  0.36048610770E+02 -0.77445359457E+03  0.78725106382E+03  0.00000000000E+00 0.  1.
<scales pt_clust_3="14000.00000" pt_clust_4="83.43057" pt_clust_5="172.46195" pt_clust_6="142.75417"></scales>
<clustering>
<clus scale="   83.431">  1  4  2 -1</clus>
<clus scale="  142.754">  2  6  1 -1</clus>
<clus scale="  172.462">  1  5  2 -1</clus>
<clus scale="   83.431">  1  3  2 -1</clus>
</clustering>
</event>
<event>
 6    0  0.2572175E+002  0.9711194E+02  0.7546771E-02  0.1286489E+00
         21   -1    0    0  504  502  0.00000000000E+00  0.00000000000E+00  0.40421828911E+03  0.40421828911E+03  0.00000000000E+00 0.  1.
          2   -1    0    0  505    0 -0.00000000000E+00 -0.00000000000E+00 -0.23513387799E+04  0.23513387799E+04  0.00000000000E+00 0.  1.
         21    1    1    2  503  502  0.19430642581E+02  0.86377642632E+02  0.10093022074E+03  0.13425928823E+03  0.00000000000E+00 0.  1.
         21    1    1    2  504  501  0.77527371028E+02 -0.85349733375E+02  0.27221272186E+03  0.29562617643E+03  0.00000000000E+00 0.  1.
         21    1    1    2  505  503 -0.11234955544E+03 -0.31733369261E+02 -0.14346024867E+04  0.14393448941E+04  0.00000000000E+00 0.  1.
          2    1    1    2  501    0  0.15391541832E+02  0.30705460004E+02 -0.88566094671E+03  0.88632671029E+03  0.00000000000E+00 0.  1.
<scales pt_clust_3="88.91528" pt_clust_4="97.11194" pt_clust_5="14000.00000" pt_clust_6="34.34712"></scales>
<clustering>
<clus scale="   34.347">  2  6  1 -1</clus>
<clus scale="   88.915">  1  3  2 -1</clus>
<clus scale="   97.112">  1  4  2 -1</clus>
<clus scale="   88.915">  1  3  2 -1</clus>
</clustering>
</event>
<event>
 6    0  0.2572175E+002  0.1293651E+03  0.7546771E-02  0.1228401E+00
          2   -1    0    0  503    0 -0.00000000000E+00  0.00000000000E+00  0.10474610185E+04  0.10474610185E+04  0.00000000000E+00 0.  1.
         21   -1    0    0  501  502  0.00000000000E+00 -0.00000000000E+00 -0.76249246435E+02  0.76249246435E+02  0.00000000000E+00 0.  1.
         21    1    1    2  503  504  0.50588572639E+02  0.12824174057E+02  0.52633290783E+02  0.74121025496E+02  0.00000000000E+00 0.  1.
         21    1    1    2  504  505  0.44551004309E+02  0.24734718449E+02  0.14869172054E+03  0.15718087046E+03  0.00000000000E+00 0. -1.
         21    1    1    2  505  502 -0.54524120369E+02 -0.12198652283E+03  0.18136642472E+02  0.13484260920E+03  0.00000000000E+00 0.  1.
          2    1    1    2  501    0 -0.40615456579E+02  0.84427630326E+02  0.75175011831E+03  0.75756575982E+03  0.00000000000E+00 0.  1.
<scales pt_clust_3="49.47151" pt_clust_4="49.47151" pt_clust_5="119.28423" pt_clust_6="93.68906"></scales>
<clustering>
<clus scale="   49.472">  3  4 -1 -1</clus>
<clus scale="   93.689">  1  6  2 -1</clus>
<clus scale="  119.284">  2  5  1 -1</clus>
<clus scale="  119.284">  2  3  1 -1</clus>
</clustering>
</event>
<event>
 6    0  0.2572175E+002  0.1825551E+03  0.7546771E-02  0.1165353E+00
         21   -1    0    0  504  502  0.00000000000E+00  0.00000000000E+00  0.21530441465E+02  0.21530441465E+02  0.00000000000E+00 0. -1.
          2   -1    0    0  503    0 -0.00000000000E+00 -0.00000000000E+00 -0.27451767103E+04  0.27451767103E+04  0.00000000000E+00 0.  1.
         21    1    1    2  503  502  0.10745008727E+03 -0.17457996443E+03 -0.70960713393E+03  0.73862437663E+03  0.00000000000E+00 0. -1.
         21    1    1    2  504  505  0.47742082649E+01  0.53226002519E+02 -0.26324636214E+03  0.26861579922E+03  0.00000000000E+00 0. -1.
         21    1    1    2  505  501 -0.33616197877E+02  0.31705807360E+02 -0.78212216349E+03  0.78348604684E+03  0.00000000000E+00 0.  1.
          2    1    1    2  501    0 -0.78608097662E+02  0.89648154549E+02 -0.96867060924E+03  0.97598092903E+03  0.00000000000E+00 0.  1.
<scales pt_clust_3="173.77779" pt_clust_4="53.43969" pt_clust_5="34.81595" pt_clust_6="34.81595"></scales>
<clustering>
<clus scale="   34.816">  5  6 -1 -1</clus>
<clus scale="   53.440">  1  4  2 -1</clus>
<clus scale="  173.778">  1  3  2 -1</clus>
<clus scale="   53.440">  1  3  2 -1</clus>
</clustering>
</event>
<event>
 6    0  0.2572175E+002  0.1284507E+03  0.7546771E-02  0.1229773E+00
          2   -1    0    0  504    0 -0.00000000000E+00  0.00000000000E+00  0.81763896797E+03  0.81763896797E+03  0.00000000000E+00 0.  1.
         21   -1    0    0  503  502  0.00000000000E+00 -0.00000000000E+00 -0.24426298663E+03  0.24426298663E+03  0.00000000000E+00 0. -1.
         21    1    1    2  503  501 -0.93828530525E+02  0.75332849281E+02 -0.13090915228E+03  0.17780899154E+03  0.00000000000E+00 0. -1.
         21    1    1    2  504  505  0.55382064616E+02 -0.59445384843E+02  0.48765226181E+03  0.49437400348E+03  0.00000000000E+00 0.  1.
         21    1    1    2  505  502 -0.45620666913E+02 -0.55569821800E+02 -0.62654239877E+02  0.95366682437E+02  0.00000000000E+00 0. -1.
          2    1    1    2  501    0  0.84067132822E+02  0.39682357362E+02  0.27928711169E+03  0.29435227715E+03  0.00000000000E+00 0.  1.
<scales pt_clust_3="128.45071" pt_clust_4="81.45343" pt_clust_5="71.89750" pt_clust_6="14000.00000"></scales>
<clustering>
<clus scale="   71.897">  2  5  1 -1</clus>
<clus scale="   81.453">  1  4  2 -1</clus>
<clus scale="  128.451">  2  3  1 -1</clus>
<clus scale="   71.897">  2  3  1 -1</clus>
</clustering>
</event>
<event>
 6    0  0.2572175E+002  0.2117188E+03  0.7546771E-02  0.1140212E+00
         21   -1    0    0  503  502  0.00000000000E+00  0.00000000000E+00  0.66151432699E+02  0.66151432699E+02  0.00000000000E+00 0.  1.
          2   -1    0    0  504    0 -0.00000000000E+00 -0.00000000000E+00 -0.22046323210E+04  0.22046323210E+04  0.00000000000E+00 0.  1.
         21    1    1    2  503  505 -0.10988700761E+03  0.89629446741E+02 -0.13806396598E+03  0.19791475656E+03  0.00000000000E+00 0.  1.
         21    1    1    2  504  502  0.12173670232E+03 -0.28655978649E+03 -0.90682639622E+03  0.95878592439E+03  0.00000000000E+00 0.  1.
         21    1    1    2  505  501 -0.11883323001E+02  0.35002339042E+02 -0.86641350192E+02  0.94197137255E+02  0.00000000000E+00 0. -1.
          2    1    1    2  501    0  0.33628293126E-01  0.16192800071E+03 -0.10069491760E+04  0.10198859355E+04  0.00000000000E+00 0.  1.
<scales pt_clust_3="34.15716" pt_clust_4="200.87073" pt_clust_5="34.15716" pt_clust_6="161.92800"></scales>
<clustering>
<clus scale="   34.157">  3  5 -1 -1</clus>
<clus scale="  161.928">  2  6  1 -1</clus>
<clus scale="  200.871">  2  4  1 -1</clus>
<clus scale="  211.719">  1  3  2 -1</clus>
</clustering>
</event>
<event>
 6    0  0.2572175E+002  0.9634183E+02  0.7546771E-02  0.1288182E+00
          1   -1    0    0  504    0 -0.00000000000E+00  0.00000000000E+00  0.68878225905E+03  0.68878225905E+03  0.00000000000E+00 0. -1.
         21   -1    0    0  505  502  0.00000000000E+00 -0.00000000000E+00 -0.24028979705E+03  0.24028979705E+03  0.00000000000E+00 0.  1.
         21    1    1    2  503  502  0.65102911115E+02 -0.42187756053E+01 -0.13555008030E+03  0.15043274701E+03  0.00000000000E+00 0.  1.
         21    1    1    2  504  503 -0.10379520461E+03  0.79961367483E+02  0.29801440208E+03  0.32554546324E+03  0.00000000000E+00 0. -1.
         21    1    1    2  505  501  0.75764068525E+01 -0.60413672991E+02 -0.71485778305E+02  0.93901173182E+02  0.00000000000E+00 0.  1.
          1    1    1    2  501    0  0.31115886646E+02 -0.15328918887E+02  0.35751391853E+03  0.35919267267E+03  0.00000000000E+00 0. -1.
<scales pt_clust_3="96.34183" pt_clust_4="14000.00000" pt_clust_5="61.54196" pt_clust_6="34.68680"></scales>
<clustering>
<clus scale="   34.687">  1  6  2 -1</clus>
<clus scale="   61.542">  2  5  1 -1</clus>
<clus scale="   96.342">  2  3  1 -1</clus>
<clus scale="   61.542">  2  3  1 -1</clus>
</clustering>
</event>
<event>
 6    0  0.2572175E+002  0.1178783E+03  0.7546771E-02  0.1246639E+00
         21   -1    0    0  505  502  0.00000000000E+00  0.00000000000E+00  0.68062544575E+03  0.68062544575E+03  0.00000000000E+00 0.  1.
          1   -1    0    0  504    0 -0.00000000000E+00 -0.00000000000E+00 -0.73409668535E+02  0.73409668535E+02  0.00000000000E+00 0. -1.
         21    1    1    2  503  501 -0.89869187300E+01 -0.74780927376E+02  0.16551242773E+03  0.18184420678E+03  0.00000000000E+00 0.  1.
         21    1    1    2  504  502  0.35727187265E+02  0.81140536292E+02  0.26024977113E+03  0.27493665072E+03  0.00000000000E+00 0.  1.
         21    1    1    2  505  503 -0.42882258258E+02 -0.43095400916E+02  0.22790336834E+03  0.23587294664E+03  0.00000000000E+00 0.  1.
          1    1    1    2  501    0  0.16141989724E+02  0.36735792001E+02 -0.46449789979E+02  0.61381310146E+02  0.00000000000E+00 0. -1.
<scales pt_clust_3="52.91406" pt_clust_4="103.77328" pt_clust_5="52.91406" pt_clust_6="40.12583"></scales>
<clustering>
<clus scale="   40.126">  2  6  1 -1</clus>
<clus scale="   52.914">  3  5 -1 -1</clus>
<clus scale="  103.773">  1  4  2 -1</clus>
<clus scale="  103.773">  1  3  2 -1</clus>
</clustering>
</event>
<event>
 6    0  0.2572175E+002  0.1092983E+03  0.7546771E-02  0.1261875E+00
         21   -1    0    0  505  502  0.00000000000E+00  0.00000000000E+00  0.69650243198E+03  0.69650243198E+03  0.00000000000E+00 0. -1.
          2   -1    0    0  503    0 -0.00000000000E+00 -0.00000000000E+00 -0.24996133736E+03  0.24996133736E+03  0.00000000000E+00 0. -1.
         21    1    1    2  503  504 -0.18413587641E+02 -0.47861603218E+02  0.27127999824E+02  0.58014839885E+02  0.00000000000E+00 0. -1.
         21    1    1    2  504  502 -0.66827286064E+02 -0.37906257881E+02  0.29538101678E+03  0.30520929806E+03  0.00000000000E+00 0. -1.
         21    1    1    2  505  501  0.35514857596E+02  0.14335412171E+03  0.33114908651E+03  0.36258988792E+03  0.00000000000E+00 0. -1.
          2    1    1    2  501    0  0.49726016109E+02 -0.57586260608E+02 -0.20711700850E+03  0.22064974348E+03  0.00000000000E+00 0. -1.
<scales pt_clust_3="51.28151" pt_clust_4="77.66291" pt_clust_5="14000.00000" pt_clust_6="109.29830"></scales>
<clustering>
<clus scale="   51.282">  2  3  1 -1</clus>
<clus scale="   77.663">  1  4  2 -1</clus>
<clus scale="  109.298">  2  6  1 -1</clus>
<clus scale="   77.663">  1  3  2 -1</clus>
</clustering>
</event>
<event>
 6    0  0.2572175E+002  0.1206530E+03  0.7546771E-02  0.1242024E+00
         21   -1    0    0  501  502  0.00000000000E+00  0.00000000000E+00  0.38180694953E+03  0.38180694953E+03  0.00000000000E+00 0. -1.
          1   -1    0    0  504    0 -0.00000000000E+00 -0.00000000000E+00 -0.94876401191E+03  0.94876401191E+03  0.00000000000E+00 0. -1.
         21    1    1    2  503  502  0.65743246507E+02 -0.10129033213E+03  0.34135363052E+03  0.36208314917E+03  0.00000000000E+00 0. -1.
         21    1    1    2  504  505 -0.39682489582E+02  0.10673123156E+02 -0.13312616969E+02  0.43195385261E+02  0.00000000000E+00 0.  1.
         21    1    1    2  505  503 -0.53382727467E+02  0.10633085208E+03 -0.22471864025E+03  0.25427235982E+03  0.00000000000E+00 0. -1.
          1    1    1    2  501    0  0.27321970542E+02 -0.15713643103E+02 -0.67027943569E+03  0.67102006718E+03  0.00000000000E+00 0. -1.
<scales pt_clust_3="14000.00000" pt_clust_4="38.00658" pt_clust_5="120.65302" pt_clust_6="31.51839"></scales>
<clustering>
<clus scale="   31.518">  2  6  1 -1</clus>
<clus scale="   38.007">  2  4  1 -1</clus>
<clus scale="  120.653">  2  5  1 -1</clus>
<clus scale="  120.653">  1  3  2 -1</clus>
</clustering>
</event>
<event>
 6    0  0.2572175E+002  0.1557494E+03  0.7546771E-02  0.1193581E+00
         21   -1    0    0  505  502  0.00000000000E+00  0.00000000000E+00  0.19479959308E+03  0.19479959308E+03  0.00000000000E+00 0. -1.
          2   -1    0    0  503    0 -0.00000000000E+00 -0.00000000000E+00 -0.94881666798E+03  0.94881666798E+03  0.00000000000E+00 0.  1.
         21    1    1    2  503  502  0.16807134420E+02 -0.47504739906E+02  0.56332924078E+01  0.50704181922E+02  0.00000000000E+00 0. -1.
         21    1    1    2  504  501 -0.99030589002E+00  0.93666171546E+02 -0.46302916833E+03  0.47240908450E+03  0.00000000000E+00 0.  1.
         21    1    1    2  505  504  0.15763030805E+02 -0.98979065598E+02  0.14408785949E+03  0.17551820367E+03  0.00000000000E+00 0. -1.
          2    1    1    2  501    0 -0.31579859335E+02  0.52817633959E+02 -0.44070905847E+03  0.44498479097E+03  0.00000000000E+00 0.  1.
<scales pt_clust_3="50.39028" pt_clust_4="39.29549" pt_clust_5="148.01165" pt_clust_6="39.29549"></scales>
<clustering>
<clus scale="   39.295">  4  6 -1 -1</clus>
<clus scale="   50.390">  1  3  2 -1</clus>
<clus scale="  148.012">  1  5  2 -1</clus>
<clus scale="   50.390">  1  3  2 -1</clus>
</clustering>
</event>
<event>
 6    0  0.2572175E+002  0.7012224E+02  0.7546771E-02  0.1359678E+00
         21   -1    0    0  505  502  0.00000000000E+00  0.00000000000E+00  0.22748726309E+03  0.22748726309E+03  0.00000000000E+00 0. -1.
         -1   -1    0    0    0  501 -0.00000000000E+00 -0.00000000000E+00 -0.25245978335E+03  0.25245978335E+03  0.00000000000E+00 0. -1.
         21    1    1    2  503  502  0.24068524580E+02 -0.65842754368E+02  0.84342454090E+02  0.10967320429E+03  0.00000000000E+00 0. -1.
         21    1    1    2  504  501 -0.69525632347E+01  0.82213131301E+02 -0.90487098988E+02  0.12245510270E+03  0.00000000000E+00 0. -1.
         21    1    1    2  505  504 -0.65760654117E+02  0.33434391712E+01  0.98960712907E+02  0.11886490195E+03  0.00000000000E+00 0. -1.
         -1    1    1    2    0  503  0.48644692772E+02 -0.19713816104E+02 -0.11778858826E+03  0.12895383750E+03  0.00000000000E+00 0. -1.
<scales pt_clust_3="70.12224" pt_clust_4="14000.00000" pt_clust_5="62.03720" pt_clust_6="52.48753"></scales>
<clustering>
<clus scale="   52.488">  2  6  1 -1</clus>
<clus scale="   62.037">  1  5  2 -1</clus>
<clus scale="   70.122">  1  3  2 -1</clus>
<clus scale="   62.037">  1  3  2 -1</clus>
</clustering>
</event>
<event>
 6    0  0.2572175E+002  0.8472196E+02  0.7546771E-02  0.1316161E+00
          2   -1    0    0  503    0 -0.00000000000E+00  0.00000000000E+00  0.14803115263E+04  0.14803115263E+04  0.00000000000E+00 0. -1.
         21   -1    0    0  505  502  0.00000000000E+00 -0.00000000000E+00 -0.12971784966E+03  0.12971784966E+03  0.00000000000E+00 0. -1.
         21    1    1    2  503  504 -0.24084302225E+02  0.23393159852E+02  0.96382590856E+03  0.96441053268E+03  0.00000000000E+00 0. -1.
         21    1    1    2  504  502  0.12379622493E+03  0.22748592925E+02  0.69229552232E+01  0.12605923646E+03  0.00000000000E+00 0. -1.
         21    1    1    2  505  501 -0.72889990369E+02 -0.26386208143E+01 -0.48878389078E+02  0.87800967732E+02  0.00000000000E+00 0. -1.
          2    1    1    2  501    0 -0.26821932339E+02 -0.43503131962E+02  0.42872320191E+03  0.43175863906E+03  0.00000000000E+00 0. -1.
<scales pt_clust_3="33.57519" pt_clust_4="14000.00000" pt_clust_5="84.72196" pt_clust_6="52.68279"></scales>
<clustering>
<clus scale="   33.575">  1  3  2 -1</clus>
<clus scale="   52.683">  1  6  2 -1</clus>
<clus scale="   84.722">  2  5  1 -1</clus>
<clus scale="   84.722">  2  3  1 -1</clus>
</clustering>
</event>
<event>
 6    0  0.2572175E+002  0.1213117E+03  0.7546771E-02  0.1240949E+00
         21   -1    0    0  504  502  0.00000000000E+00  0.00000000000E+00  0.28000230179E+03  0.28000230179E+03  0.00000000000E+00 0.  1.
          2   -1    0    0  503    0 -0.00000000000E+00 -0.00000000000E+00 -0.43339490539E+03  0.43339490539E+03  0.00000000000E+00 0.  1.
         21    1    1    2  503  502  0.34069586679E+02 -0.15659256247E+02  0.19365081076E+02  0.42201367368E+02  0.00000000000E+00 0.  1.
         21    1    1    2  504  505  0.68608918906E+02 -0.63950997899E+02  0.18372920705E+03  0.20628459809E+03  0.00000000000E+00 0.  1.
         21    1    1    2  505  501 -0.55091593131E+02  0.12664671725E+03 -0.43421251023E+02  0.14477527297E+03  0.00000000000E+00 0.  1.
          2    1    1    2  501    0 -0.47586912453E+02 -0.47036463099E+02 -0.31306564071E+03  0.32013596875E+03  0.00000000000E+00 0.  1.
<scales pt_clust_3="37.49599" pt_clust_4="121.31166" pt_clust_5="14000.00000" pt_clust_6="66.72426"></scales>
<clustering>
<clus scale="   37.496">  1  3  2 -1</clus>
<clus scale="   66.724">  2  6  1 -1</clus>
<clus scale="  121.312">  1  4  2 -1</clus>
<clus scale="   37.496">  1  3  2 -1</clus>
</clustering>
</event>
<event>
 6    0  0.2572175E+002  0.1386255E+03  0.7546771E-02  0.1215191E+00
          2   -1    0    0  505    0 -0.00000000000E+00  0.00000000000E+00  0.13045544636E+04  0.13045544636E+04  0.00000000000E+00 0.  1.
         21   -1    0    0  504  502  0.00000000000E+00 -0.00000000000E+00 -0.10632481853E+03  0.10632481853E+03  0.00000000000E+00 0.  1.
         21    1    1    2  503  501  0.10272280246E+02 -0.76880436988E+02  0.88915027769E+02  0.11799153993E+03  0.00000000000E+00 0. -1.
         21    1    1    2  504  503 -0.78218522702E+02  0.13709947009E+03  0.31785934564E+03  0.35489289315E+03  0.00000000000E+00 0.  1.
         21    1    1    2  505  502  0.94164609625E+02 -0.97781010487E+02 -0.91706828217E+01  0.13605954998E+03  0.00000000000E+00 0.  1.
          2    1    1    2  501    0 -0.26218367170E+02  0.37561977385E+02  0.80062595448E+03  0.80193529908E+03  0.00000000000E+00 0.  1.
<scales pt_clust_3="69.33133" pt_clust_4="138.62549" pt_clust_5="14000.00000" pt_clust_6="45.80726"></scales>
<clustering>
<clus scale="   45.807">  1  6  2 -1</clus>
<clus scale="   69.331">  1  3  2 -1</clus>
<clus scale="  138.625">  1  4  2 -1</clus>
<clus scale="  138.625">  2  3  1 -1</clus>
</clustering>
</event>
<event>
 6    0  0.2572175E+002  0.1252312E+03  0.7546771E-02  0.1234708E+00
         21   -1    0    0  505  502  0.00000000000E+00  0.00000000000E+00  0.14889489604E+03  0.14889489604E+03  0.00000000000E+00 0. -1.
         -3   -1    0    0    0  501 -0.00000000000E+00 -0.00000000000E+00 -0.13426031147E+04  0.13426031147E+04  0.00000000000E+00 0. -1.
         21    1    1    2  503  504 -0.17832213184E+02 -0.80603256367E+02  0.29087439082E+02  0.87526863741E+02  0.00000000000E+00 0. -1.
         21    1    1    2  504  502 -0.20242626953E+02 -0.22511109230E+02  0.44193144260E+02  0.53568162039E+02  0.00000000000E+00 0. -1.
         21    1    1    2  505  501  0.10913826204E+02  0.13483299797E+03 -0.69310088618E+02  0.15199650433E+03  0.00000000000E+00 0. -1.
         -3    1    1    2    0  503  0.27161013933E+02 -0.31718632370E+02 -0.11976787134E+04  0.11984064806E+04  0.00000000000E+00 0. -1.
<scales pt_clust_3="30.00820" pt_clust_4="30.00820" pt_clust_5="115.01025" pt_clust_6="41.75874"></scales>
<clustering>
<clus scale="   30.008">  3  4 -1 -1</clus>
<clus scale="   41.759">  2  6  1 -1</clus>
<clus scale="  115.010">  2  5  1 -1</clus>
<clus scale="  125.231">  1  3  2 -1</clus>
</clustering>
</event>
<event>
 6    0  0.2572175E+002  0.1494070E+03  0.7546771E-02  0.1201204E+00
         21   -1    0    0  504  502  0.00000000000E+00  0.00000000000E+00  0.16449901725E+03  0.16449901725E+03  0.00000000000E+00 0.  1.
          3   -1    0    0  505    0 -0.00000000000E+00 -0.00000000000E+00 -0.56539874797E+03  0.56539874797E+03  0.00000000000E+00 0. -1.
         21    1    1    2  503  501 -0.40217348689E+02  0.15177431704E+02  0.75161046463E+01  0.43638072800E+02  0.00000000000E+00 0.  1.
         21    1    1    2  504  503 -0.95103827290E+02 -0.31679564832E+02  0.81602598195E+02  0.12925678638E+03  0.00000000000E+00 0.  1.
         21    1    1    2  505  502  0.13470868088E+03  0.66297464987E+02 -0.14608112823E+03  0.20947906481E+03  0.00000000000E+00 0. -1.
          3    1    1    2  501    0  0.61249510002E+00 -0.49795331859E+02 -0.34393730533E+03  0.34752384123E+03  0.00000000000E+00 0. -1.
<scales pt_clust_3="37.99436" pt_clust_4="37.99436" pt_clust_5="137.68113" pt_clust_6="49.79910"></scales>
<clustering>
<clus scale="   37.994">  3  4 -1 -1</clus>
<clus scale="   49.799">  2  6  1 -1</clus>
<clus scale="  137.681">  2  5  1 -1</clus>
<clus scale="  149.407">  1  3  2 -1</clus>
</clustering>
</event>
<event>
 6    0  0.2572175E+002  0.8949852E+02  0.7546771E-02  0.1304071E+00
         -4   -1    0    0    0  501 -0.00000000000E+00  0.00000000000E+00  0.12747634880E+04  0.12747634880E+04  0.00000000000E+00 0. -1.
         21   -1    0    0  505  502  0.00000000000E+00 -0.00000000000E+00 -0.15632508850E+04  0.15632508850E+04  0.00000000000E+00 0. -1.
         21    1    1    2  503  504 -0.15065551001E+02  0.52410022368E+02 -0.11184443956E+04  0.11197730338E+04  0.00000000000E+00 0. -1.
         21    1    1    2  504  502  0.18338510778E+02  0.37515421029E+02 -0.43163241256E+03  0.43364760735E+03  0.00000000000E+00 0. -1.
         21    1    1    2  505  501  0.80988832679E+02 -0.36130838235E+02  0.20596020376E+03  0.22424146366E+03  0.00000000000E+00 0. -1.
         -4    1    1    2    0  503 -0.84261792457E+02 -0.53794605162E+02  0.10556292074E+04  0.10603522682E+04  0.00000000000E+00 0. -1.
<scales pt_clust_3="14000.00000" pt_clust_4="41.75773" pt_clust_5="88.69521" pt_clust_6="89.49852"></scales>
<clustering>
<clus scale="   41.758">  2  4  1 -1</clus>
<clus scale="   88.695">  1  5  2 -1</clus>
<clus scale="   89.499">  1  6  2 -1</clus>
<clus scale="   41.758">  2  3  1 -1</clus>
</clustering>
</event>
<event>
 6    0  0.2572175E+002  0.1160380E+03  0.7546771E-02  0.1249780E+00
         21   -1    0    0  505  502  0.00000000000E+00  0.00000000000E+00  0.39480839345E+03  0.39480839345E+03  0.00000000000E+00 0.  1.
         -1   -1    0    0    0  501 -0.00000000000E+00 -0.00000000000E+00 -0.31298324879E+03  0.31298324879E+03  0.00000000000E+00 0.  1.
         21    1    1    2  503  501  0.18299038011E+03 -0.17783677391E+02 -0.14860634640E+03  0.23640132103E+03  0.00000000000E+00 0.  1.
         21    1    1    2  504  502 -0.41215126479E+02  0.98857754837E+02  0.90497989085E+02  0.14021921541E+03  0.00000000000E+00 0.  1.
         21    1    1    2  505  503 -0.69273949016E+02 -0.88858407239E+02  0.20468924291E+03  0.23365012886E+03  0.00000000000E+00 0.  1.
         -1    1    1    2    0  504 -0.72501304611E+02  0.77843297940E+01 -0.64755740940E+02  0.97520976950E+02  0.00000000000E+00 0.  1.
<scales pt_clust_3="116.03798" pt_clust_4="111.07902" pt_clust_5="14000.00000" pt_clust_6="72.91800"></scales>
<clustering>
<clus scale="   72.918">  2  6  1 -1</clus>
<clus scale="  111.079">  1  4  2 -1</clus>
<clus scale="  116.038">  2  3  1 -1</clus>
<clus scale="  111.079">  1  3  2 -1</clus>
</clustering>
</event>
<event>
 6    0  0.2572175E+002  0.9883157E+02  0.7546771E-02  0.1282772E+00
         -4   -1    0    0    0  501 -0.00000000000E+00  0.00000000000E+00  0.24228193945E+03  0.24228193945E+03  0.00000000000E+00 0. -1.
         21   -1    0    0  503  502  0.00000000000E+00 -0.00000000000E+00 -0.90480166044E+03  0.90480166044E+03  0.00000000000E+00 0.  1.
         21    1    1    2  503  505  0.23740231886E+02  0.20151372154E+02 -0.55864384179E+03  0.55951105296E+03  0.00000000000E+00 0.  1.
         21    1    1    2  504  502 -0.25893335202E+02  0.66872785607E+02 -0.24073095644E+03  0.25118484758E+03  0.00000000000E+00 0. -1.
         21    1    1    2  505  501 -0.34886251602E+02 -0.16752572947E+03 -0.26242207753E+01  0.17113972981E+03  0.00000000000E+00 0. -1.
         -4    1    1    2    0  504  0.37039354917E+02  0.80501571707E+02  0.13947929803E+03  0.16524796954E+03  0.00000000000E+00 0. -1.
<scales pt_clust_3="31.13963" pt_clust_4="81.70665" pt_clust_5="98.83157" pt_clust_6="14000.00000"></scales>
<clustering>
<clus scale="   31.140">  2  3  1 -1</clus>
<clus scale="   81.707">  2  4  1 -1</clus>
<clus scale="   98.832">  2  5  1 -1</clus>
<clus scale="   31.140">  2  3  1 -1</clus>
</clustering>
</event>
