<event>
 5    0  0.5735425E-005  0.3820433E+03  0.7546771E-02  0.1050181E+00
         21   -1    0    0  502  501  0.00000000000E+00  0.00000000000E+00  0.33743193848E+03  0.33743193848E+03  0.00000000000E+00 0. -1.
         21   -1    0    0  501  502 -0.00000000000E+00 -0.00000000000E+00 -0.43255270462E+03  0.43255270462E+03  0.00000000000E+00 0. -1.
         25    1    1    2    0    0  0.18821233827E+03 -0.46735440032E+02  0.13550261812E+02  0.23112052100E+03  0.12500000000E+03 0.  0.
         25    1    1    2    0    0 -0.79222510539E+02 -0.10164097201E+03 -0.22493084904E+03  0.28779503161E+03  0.12500000000E+03 0.  0.
         25    1    1    2    0    0 -0.10898982773E+03  0.14837641205E+03  0.11625982109E+03  0.25106909049E+03  0.12500000000E+03 0.  0.
</event>
<event>
 5    0  0.5735425E-005  0.2559675E+03  0.7546771E-02  0.1109591E+00
         21   -1    0    0  502  501  0.00000000000E+00  0.00000000000E+00  0.76528717430E+03  0.76528717430E+03  0.00000000000E+00 0. -1.
         21   -1    0    0  501  502 -0.00000000000E+00 -0.00000000000E+00 -0.85614096523E+02  0.85614096523E+02  0.00000000000E+00 0. -1.
         25    1    1    2    0    0  0.66322914737E+01  0.62659690169E+02  0.32284935109E+02  0.14365772202E+03  0.12500000000E+03 0.  0.
         25    1    1    2    0    0  0.54850563426E+02 -0.15211992405E+02  0.32699556720E+03  0.35467039627E+03  0.12500000000E+03 0.  0.
         25    1    1    2    0    0 -0.61482854900E+02 -0.47447697764E+02  0.32039257547E+03  0.35257315253E+03  0.12500000000E+03 0.  0.
</event>
<event>
 5    0  0.5735425E-005  0.3443665E+03  0.7546771E-02  0.1064951E+00
         21   -1    0    0  502  501  0.00000000000E+00  0.00000000000E+00  0.43137587960E+03  0.43137587960E+03  0.00000000000E+00 0. -1.
         21   -1    0    0  501  502 -0.00000000000E+00 -0.00000000000E+00 -0.27490707455E+03  0.27490707455E+03  0.00000000000E+00 0. -1.
         25    1    1    2    0    0  0.21332664246E+03 -0.50145527901E+02  0.24048977152E+03  0.34854434518E+03  0.12500000000E+03 0.  0.
         25    1    1    2    0    0 -0.13601390905E+03  0.35285701406E+02 -0.56745349111E+00  0.18806963121E+03  0.12500000000E+03 0.  0.
         25    1    1    2    0    0 -0.77312733405E+02  0.14859826495E+02 -0.83453512977E+02  0.16966897777E+03  0.12500000000E+03 0.  0.
</event>
<event>
 5    0  0.5735425E-005  0.3252860E+03  0.7546771E-02  0.1073242E+00
         21   -1    0    0  502  501  0.00000000000E+00  0.00000000000E+00  0.19956497336E+03  0.19956497336E+03  0.00000000000E+00 0. -1.
         21   -1    0    0  501  502 -0.00000000000E+00 -0.00000000000E+00 -0.53020831684E+03  0.53020831684E+03  0.00000000000E+00 0. -1.
         25    1    1    2    0    0  0.44525881498E+02 -0.22944063068E+02 -0.12047054115E+02  0.13520027983E+03  0.12500000000E+03 0.  0.
         25    1    1    2    0    0  0.91638860187E+02 -0.40519710029E+02 -0.36068369470E+03  0.39466093704E+03  0.12500000000E+03 0.  0.
         25    1    1    2    0    0 -0.13616474168E+03  0.63463773097E+02  0.42087405338E+02  0.19991207333E+03  0.12500000000E+03 0.  0.
</event>
<event>
 5    0  0.5735425E-005  0.4134447E+03  0.7546771E-02  0.1039221E+00
         21   -1    0    0  502  501  0.00000000000E+00  0.00000000000E+00  0.86119332073E+03  0.86119332073E+03  0.00000000000E+00 0.  1.
         21   -1    0    0  501  502 -0.00000000000E+00 -0.00000000000E+00 -0.19848800692E+03  0.19848800692E+03  0.00000000000E+00 0.  1.
         25    1    1    2    0    0  0.62995091600E+02 -0.48995240399E+02  0.22727634648E+02  0.15003486436E+03  0.12500000000E+03 0.  0.
         25    1    1    2    0    0  0.16744951505E+03 -0.17727419436E+03  0.15850393883E+03  0.31656591525E+03  0.12500000000E+03 0.  0.
         25    1    1    2    0    0 -0.23044460665E+03  0.22626943475E+03  0.48147374033E+03  0.59308054804E+03  0.12500000000E+03 0.  0.
</event>
<event>
 5    0  0.5735425E-005  0.2730736E+03  0.7546771E-02  0.1099533E+00
         21   -1    0    0  502  501  0.00000000000E+00  0.00000000000E+00  0.51775078129E+02  0.51775078129E+02  0.00000000000E+00 0.  1.
         21   -1    0    0  501  502 -0.00000000000E+00 -0.00000000000E+00 -0.14402526325E+04  0.14402526325E+04  0.00000000000E+00 0.  1.
         25    1    1    2    0    0  0.76623942729E+02  0.32192508390E+02 -0.24384361318E+03  0.28634296549E+03  0.12500000000E+03 0.  0.
         25    1    1    2    0    0  0.84747661608E+02 -0.75364677489E+02 -0.46117885729E+03  0.49109361548E+03  0.12500000000E+03 0.  0.
         25    1    1    2    0    0 -0.16137160434E+03  0.43172169099E+02 -0.68345508393E+03  0.71459112968E+03  0.12500000000E+03 0.  0.
</event>
<event>
 5    0  0.5735425E-005  0.2853357E+03  0.7546771E-02  0.1092810E+00
         21   -1    0    0  502  501  0.00000000000E+00  0.00000000000E+00  0.71429700430E+02  0.71429700430E+02  0.00000000000E+00 0. -1.
         21   -1    0    0  501  502 -0.00000000000E+00 -0.00000000000E+00 -0.11398128122E+04  0.11398128122E+04  0.00000000000E+00 0. -1.
         25    1    1    2    0    0  0.40093015120E+02 -0.12568081896E+03 -0.52817731300E+03  0.55856905758E+03  0.12500000000E+03 0.  0.
         25    1    1    2    0    0 -0.74153236550E+02  0.25736176185E+02 -0.88161095672E+02  0.17192565849E+03  0.12500000000E+03 0.  0.
         25    1    1    2    0    0  0.34060221430E+02  0.99944642775E+02 -0.45204470307E+03  0.48074779654E+03  0.12500000000E+03 0.  0.
</event>
<event>
 5    0  0.5735425E-005  0.3725124E+03  0.7546771E-02  0.1053736E+00
         21   -1    0    0  502  501  0.00000000000E+00  0.00000000000E+00  0.16891898331E+04  0.16891898331E+04  0.00000000000E+00 0.  1.
         21   -1    0    0  501  502 -0.00000000000E+00 -0.00000000000E+00 -0.82149159199E+02  0.82149159199E+02  0.00000000000E+00 0.  1.
         25    1    1    2    0    0  0.42007268857E+02  0.21180757922E+03  0.63127826077E+03  0.67879621667E+03  0.12500000000E+03 0.  0.
         25    1    1    2    0    0 -0.33887087443E+02 -0.27368266645E+03  0.40938049078E+03  0.50918358462E+03  0.12500000000E+03 0.  0.
         25    1    1    2    0    0 -0.81201814133E+01  0.61875087235E+02  0.56638192235E+03  0.58335919100E+03  0.12500000000E+03 0.  0.
</event>
<event>
 5    0  0.6050879E-005  0.2831141E+03  0.7546771E-02  0.1094000E+00
         21   -1    0    0  502  501  0.00000000000E+00  0.00000000000E+00  0.89262250452E+02  0.89262250452E+02  0.00000000000E+00 0.  1.
         21   -1    0    0  501  502 -0.00000000000E+00 -0.00000000000E+00 -0.89795614349E+03  0.89795614349E+03  0.00000000000E+00 0.  1.
         25    1    1    2    0    0  0.16018365904E+03 -0.92627685351E+02 -0.44410616035E+03  0.49708547995E+03  0.12500000000E+03 0.  0.
         25    1    1    2    0    0 -0.99471568558E+02  0.30280363536E+02 -0.25526938500E+03  0.30265318813E+03  0.12500000000E+03 0.  0.
         25    1    1    2    0    0 -0.60712090481E+02  0.62347321815E+02 -0.10931834769E+03  0.18747972586E+03  0.12500000000E+03 0.  0.
</event>
<event>
 5    0  0.5735425E-005  0.2414448E+03  0.7546771E-02  0.1118834E+00
         21   -1    0    0  502  501  0.00000000000E+00  0.00000000000E+00  0.62896620303E+02  0.62896620303E+02  0.00000000000E+00 0.  1.
         21   -1    0    0  501  502 -0.00000000000E+00 -0.00000000000E+00 -0.92684787281E+03  0.92684787281E+03  0.00000000000E+00 0.  1.
         25    1    1    2    0    0 -0.59063809018E+02 -0.25378025582E+02 -0.21892846900E+03  0.26016773869E+03  0.12500000000E+03 0.  0.
         25    1    1    2    0    0  0.36139385748E+02  0.21866682879E+02 -0.88879511633E+02  0.15908731757E+03  0.12500000000E+03 0.  0.
         25    1    1    2    0    0  0.22924423271E+02  0.35113427030E+01 -0.55614327188E+03  0.57048943686E+03  0.12500000000E+03 0.  0.
</event>
<event>
 5    0  0.5735425E-005  0.2404747E+03  0.7546771E-02  0.1119477E+00
         21   -1    0    0  502  501  0.00000000000E+00  0.00000000000E+00  0.14319538095E+03  0.14319538095E+03  0.00000000000E+00 0. -1.
         21   -1    0    0  501  502 -0.00000000000E+00 -0.00000000000E+00 -0.40384049997E+03  0.40384049997E+03  0.00000000000E+00 0. -1.
         25    1    1    2    0    0 -0.96516248966E+02 -0.89439830771E+02 -0.64970706453E+02  0.19277204761E+03  0.12500000000E+03 0.  0.
         25    1    1    2    0    0  0.65935471455E+02  0.92714780300E+01 -0.73588595619E+02  0.15960491254E+03  0.12500000000E+03 0.  0.
         25    1    1    2    0    0  0.30580777512E+02  0.80168352741E+02 -0.12208581696E+03  0.19465892077E+03  0.12500000000E+03 0.  0.
</event>
<event>
 5    0  0.5735425E-005  0.2751515E+03  0.7546771E-02  0.1098367E+00
         21   -1    0    0  502  501  0.00000000000E+00  0.00000000000E+00  0.39990362819E+02  0.39990362819E+02  0.00000000000E+00 0. -1.
         21   -1    0    0  501  502 -0.00000000000E+00 -0.00000000000E+00 -0.18931645092E+04  0.18931645092E+04  0.00000000000E+00 0. -1.
         25    1    1    2    0    0  0.11525825851E+03 -0.26506498147E+02 -0.87033273572E+03  0.88718156624E+03  0.12500000000E+03 0.  0.
         25    1    1    2    0    0 -0.11309178473E+03  0.97613141175E+02 -0.39005632638E+03  0.43598969581E+03  0.12500000000E+03 0.  0.
         25    1    1    2    0    0 -0.21664737717E+01 -0.71106643028E+02 -0.59278508423E+03  0.60998360992E+03  0.12500000000E+03 0.  0.
</event>
<event>
 5    0  0.5735425E-005  0.2384442E+03  0.7546771E-02  0.1120834E+00
         21   -1    0    0  502  501  0.00000000000E+00  0.00000000000E+00  0.17636862264E+03  0.17636862264E+03  0.00000000000E+00 0.  1.
         21   -1    0    0  501  502 -0.00000000000E+00 -0.00000000000E+00 -0.32236818504E+03  0.32236818504E+03  0.00000000000E+00 0.  1.
         25    1    1    2    0    0  0.84203759295E+02  0.76533911649E+02 -0.57027573818E+02  0.17839522664E+03  0.12500000000E+03 0.  0.
         25    1    1    2    0    0 -0.11317638499E+03 -0.40710422681E+02 -0.63385659323E+02  0.18468615119E+03  0.12500000000E+03 0.  0.
         25    1    1    2    0    0  0.28972625696E+02 -0.35823488967E+02 -0.25586329257E+02  0.13565542984E+03  0.12500000000E+03 0.  0.
</event>
<event>
 5    0  0.5735425E-005  0.4807596E+03  0.7546771E-02  0.1018927E+00
         21   -1    0    0  502  501  0.00000000000E+00  0.00000000000E+00  0.71402486190E+03  0.71402486190E+03  0.00000000000E+00 0. -1.
         21   -1    0    0  501  502 -0.00000000000E+00 -0.00000000000E+00 -0.32369991382E+03  0.32369991382E+03  0.00000000000E+00 0. -1.
         25    1    1    2    0    0 -0.88565847200E+02  0.29859349293E+02 -0.61432465717E+01  0.15619932621E+03  0.12500000000E+03 0.  0.
         25    1    1    2    0    0 -0.12736959487E+03  0.25190573686E+03 -0.33013500388E+02  0.31047448393E+03  0.12500000000E+03 0.  0.
         25    1    1    2    0    0  0.21593544207E+03 -0.28176508615E+03  0.42948169504E+03  0.57105096558E+03  0.12500000000E+03 0.  0.
</event>
<event>
 5    0  0.5735425E-005  0.3991660E+03  0.7546771E-02  0.1044069E+00
         21   -1    0    0  502  501  0.00000000000E+00  0.00000000000E+00  0.16989268875E+04  0.16989268875E+04  0.00000000000E+00 0.  1.
         21   -1    0    0  501  502 -0.00000000000E+00 -0.00000000000E+00 -0.93784768682E+02  0.93784768682E+02  0.00000000000E+00 0.  1.
         25    1    1    2    0    0  0.31806101916E+03 -0.27419612135E+02  0.59334913432E+03  0.68527574175E+03  0.12500000000E+03 0.  0.
         25    1    1    2    0    0 -0.66750905471E+02  0.39573114424E+02  0.19917530319E+03  0.24762373910E+03  0.12500000000E+03 0.  0.
         25    1    1    2    0    0 -0.25131011369E+03 -0.12153502289E+02  0.81261768129E+03  0.85981217531E+03  0.12500000000E+03 0.  0.
</event>
<event>
 5    0  0.5735425E-005  0.3484530E+03  0.7546771E-02  0.1063252E+00
         21   -1    0    0  502  501  0.00000000000E+00  0.00000000000E+00  0.14137944824E+03  0.14137944824E+03  0.00000000000E+00 0. -1.
         21   -1    0    0  501  502 -0.00000000000E+00 -0.00000000000E+00 -0.85881979190E+03  0.85881979190E+03  0.00000000000E+00 0. -1.
         25    1    1    2    0    0 -0.22062418558E+02 -0.21205355166E+03 -0.40891406521E+03  0.47779616136E+03  0.12500000000E+03 0.  0.
         25    1    1    2    0    0 -0.11403478566E+03  0.14901149998E+03 -0.18187105859E+03  0.28967299049E+03  0.12500000000E+03 0.  0.
         25    1    1    2    0    0  0.13609720422E+03  0.63042051681E+02 -0.12665521986E+03  0.23273008829E+03  0.12500000000E+03 0.  0.
</event>
<event>
 5    0  0.5735425E-005  0.3516083E+03  0.7546771E-02  0.1061957E+00
         21   -1    0    0  502  501  0.00000000000E+00  0.00000000000E+00  0.29558760972E+03  0.29558760972E+03  0.00000000000E+00 0.  1.
         21   -1    0    0  501  502 -0.00000000000E+00 -0.00000000000E+00 -0.41824611739E+03  0.41824611739E+03  0.00000000000E+00 0.  1.
         25    1    1    2    0    0 -0.82917035707E+02 -0.42299504174E+02 -0.27703808272E+03  0.31786723980E+03  0.12500000000E+03 0.  0.
         25    1    1    2    0    0  0.52449833827E+02  0.69932980519E+02 -0.43237951638E+02  0.15854377091E+03  0.12500000000E+03 0.  0.
         25    1    1    2    0    0  0.30467201880E+02 -0.27633476345E+02  0.19761752669E+03  0.23742271639E+03  0.12500000000E+03 0.  0.
</event>
<event>
 5    0  0.5735425E-005  0.2711376E+03  0.7546771E-02  0.1100630E+00
         21   -1    0    0  502  501  0.00000000000E+00  0.00000000000E+00  0.75569507780E+02  0.75569507780E+02  0.00000000000E+00 0. -1.
         21   -1    0    0  501  502 -0.00000000000E+00 -0.00000000000E+00 -0.97282120172E+03  0.97282120172E+03  0.00000000000E+00 0. -1.
         25    1    1    2    0    0  0.28557947071E+02 -0.11289913429E+03 -0.13423984755E+03  0.21727196675E+03  0.12500000000E+03 0.  0.
         25    1    1    2    0    0 -0.16548047439E+02 -0.14888416838E+02 -0.47714182070E+03  0.49374570367E+03  0.12500000000E+03 0.  0.
         25    1    1    2    0    0 -0.12009899631E+02  0.12778755113E+03 -0.28587002569E+03  0.33737303908E+03  0.12500000000E+03 0.  0.
</event>
<event>
 5    0  0.5735425E-005  0.3502155E+03  0.7546771E-02  0.1062527E+00
         21   -1    0    0  502  501  0.00000000000E+00  0.00000000000E+00  0.14414600846E+04  0.14414600846E+04  0.00000000000E+00 0. -1.
         21   -1    0    0  501  502 -0.00000000000E+00 -0.00000000000E+00 -0.85087950641E+02  0.85087950641E+02  0.00000000000E+00 0. -1.
         25    1    1    2    0    0 -0.48381869763E+02 -0.15456041533E+03  0.30418927645E+03  0.36658674719E+03  0.12500000000E+03 0.  0.
         25    1    1    2    0    0  0.13656484826E+03  0.10517533122E+03  0.94030815317E+03  0.96411422092E+03  0.12500000000E+03 0.  0.
         25    1    1    2    0    0 -0.88182978498E+02  0.49385084112E+02  0.11187470434E+03  0.19584706712E+03  0.12500000000E+03 0.  0.
</event>
<event>
 5    0  0.5735425E-005  0.3689192E+03  0.7546771E-02  0.1055107E+00
         21   -1    0    0  502  501  0.00000000000E+00  0.00000000000E+00  0.75059213846E+03  0.75059213846E+03  0.00000000000E+00 0. -1.
         21   -1    0    0  501  502 -0.00000000000E+00 -0.00000000000E+00 -0.18132537312E+03  0.18132537312E+03  0.00000000000E+00 0. -1.
         25    1    1    2    0    0 -0.11836649223E+03  0.16454553898E+03  0.26486317684E+03  0.35617883616E+03  0.12500000000E+03 0.  0.
         25    1    1    2    0    0  0.33400670483E+02 -0.16126448451E+03 -0.29840385173E+02  0.20889539809E+03  0.12500000000E+03 0.  0.
         25    1    1    2    0    0  0.84965821750E+02 -0.32810544656E+01  0.33424397367E+03  0.36684327732E+03  0.12500000000E+03 0.  0.
</event>
<event>
 5    0  0.5735425E-005  0.3761521E+03  0.7546771E-02  0.1052365E+00
         21   -1    0    0  502  501  0.00000000000E+00  0.00000000000E+00  0.46187488214E+03  0.46187488214E+03  0.00000000000E+00 0. -1.
         21   -1    0    0  501  502 -0.00000000000E+00 -0.00000000000E+00 -0.30633928821E+03  0.30633928821E+03  0.00000000000E+00 0. -1.
         25    1    1    2    0    0 -0.97630582430E+02  0.40666273929E+01  0.34767938377E+03  0.38217040961E+03  0.12500000000E+03 0.  0.
         25    1    1    2    0    0  0.78049881615E+02  0.93833268866E+02 -0.94568076115E+02  0.19865695907E+03  0.12500000000E+03 0.  0.
         25    1    1    2    0    0  0.19580700816E+02 -0.97899896258E+02 -0.97575713726E+02  0.18738680167E+03  0.12500000000E+03 0.  0.
</event>
<event>
 5    0  0.5735425E-005  0.2175289E+03  0.7546771E-02  0.1135739E+00
         21   -1    0    0  502  501  0.00000000000E+00  0.00000000000E+00  0.41334573519E+03  0.41334573519E+03  0.00000000000E+00 0. -1.
         21   -1    0    0  501  502 -0.00000000000E+00 -0.00000000000E+00 -0.11447755687E+03  0.11447755687E+03  0.00000000000E+00 0. -1.
         25    1    1    2    0    0 -0.30327664374E+02 -0.43180638591E+02  0.12647288202E+03  0.18548510631E+03  0.12500000000E+03 0.  0.
         25    1    1    2    0    0 -0.19960602817E+02 -0.26076047550E+01  0.10881210591E+02  0.12707724427E+03  0.12500000000E+03 0.  0.
         25    1    1    2    0    0  0.50288267190E+02  0.45788243346E+02  0.16151408571E+03  0.21526094148E+03  0.12500000000E+03 0.  0.
</event>
<event>
 5    0  0.5735425E-005  0.2912695E+03  0.7546771E-02  0.1089688E+00
         21   -1    0    0  502  501  0.00000000000E+00  0.00000000000E+00  0.34665649263E+03  0.34665649263E+03  0.00000000000E+00 0.  1.
         21   -1    0    0  501  502 -0.00000000000E+00 -0.00000000000E+00 -0.24473192953E+03  0.24473192953E+03  0.00000000000E+00 0.  1.
         25    1    1    2    0    0 -0.88707193713E+02 -0.54129523563E+02  0.10514058567E+03  0.19359368351E+03  0.12500000000E+03 0.  0.
         25    1    1    2    0    0 -0.88688540563E+02  0.89838515527E+02  0.47617814762E+01  0.17771969689E+03  0.12500000000E+03 0.  0.
         25    1    1    2    0    0  0.17739573428E+03 -0.35708991964E+02 -0.79778040507E+01  0.22007504176E+03  0.12500000000E+03 0.  0.
</event>
<event>
 5    0  0.5735425E-005  0.3427828E+03  0.7546771E-02  0.1065617E+00
         21   -1    0    0  502  501  0.00000000000E+00  0.00000000000E+00  0.38546403296E+03  0.38546403296E+03  0.00000000000E+00 0. -1.
         21   -1    0    0  501  502 -0.00000000000E+00 -0.00000000000E+00 -0.30482757833E+03  0.30482757833E+03  0.00000000000E+00 0. -1.
         25    1    1    2    0    0  0.26145800217E+01  0.35276359443E+02 -0.13156028122E+03  0.18489014349E+03  0.12500000000E+03 0.  0.
         25    1    1    2    0    0  0.18545876399E+03  0.12755088228E+02  0.13700951101E+03  0.26259141556E+03  0.12500000000E+03 0.  0.
         25    1    1    2    0    0 -0.18807334401E+03 -0.48031447671E+02  0.75187224832E+02  0.24281005224E+03  0.12500000000E+03 0.  0.
</event>
<event>
 5    0  0.5735425E-005  0.2739310E+03  0.7546771E-02  0.1099051E+00
         21   -1    0    0  502  501  0.00000000000E+00  0.00000000000E+00  0.72954946165E+03  0.72954946165E+03  0.00000000000E+00 0.  1.
         21   -1    0    0  501  502 -0.00000000000E+00 -0.00000000000E+00 -0.10285550575E+03  0.10285550575E+03  0.00000000000E+00 0.  1.
         25    1    1    2    0    0 -0.14749565548E+03  0.27990228046E+02  0.86343038334E+02  0.21358497494E+03  0.12500000000E+03 0.  0.
         25    1    1    2    0    0  0.54177312222E+02 -0.38927276113E+02  0.30433006542E+03  0.33569674217E+03  0.12500000000E+03 0.  0.
         25    1    1    2    0    0  0.93318343257E+02  0.10937048067E+02  0.23602085214E+03  0.28312325029E+03  0.12500000000E+03 0.  0.
</event>
<event>
 5    0  0.5735425E-005  0.2484580E+03  0.7546771E-02  0.1114283E+00
         21   -1    0    0  502  501  0.00000000000E+00  0.00000000000E+00  0.22630195282E+03  0.22630195282E+03  0.00000000000E+00 0.  1.
         21   -1    0    0  501  502 -0.00000000000E+00 -0.00000000000E+00 -0.27278322871E+03  0.27278322871E+03  0.00000000000E+00 0.  1.
         25    1    1    2    0    0  0.11869898682E+03 -0.56996322297E+01 -0.10256424765E+03  0.20066479555E+03  0.12500000000E+03 0.  0.
         25    1    1    2    0    0 -0.26485900322E+02 -0.44342978945E+01  0.63148907620E+02  0.14259716143E+03  0.12500000000E+03 0.  0.
         25    1    1    2    0    0 -0.92213086493E+02  0.10133930124E+02 -0.70659358707E+01  0.15582322455E+03  0.12500000000E+03 0.  0.
</event>
<event>
 5    0  0.5990497E-005  0.3049608E+03  0.7546771E-02  0.1082787E+00
         21   -1    0    0  502  501  0.00000000000E+00  0.00000000000E+00  0.56455037467E+03  0.56455037467E+03  0.00000000000E+00 0. -1.
         21   -1    0    0  501  502 -0.00000000000E+00 -0.00000000000E+00 -0.16473480878E+03  0.16473480878E+03  0.00000000000E+00 0. -1.
         25    1    1    2    0    0  0.85931850034E+02 -0.12201820505E+03  0.24216439054E+03  0.31071098670E+03  0.12500000000E+03 0.  0.
         25    1    1    2    0    0  0.55841699096E+02 -0.17614805899E+02  0.11517034261E+03  0.17977147872E+03  0.12500000000E+03 0.  0.
         25    1    1    2    0    0 -0.14177354913E+03  0.13963301095E+03  0.42480832741E+02  0.23880271801E+03  0.12500000000E+03 0.  0.
</event>
<event>
 5    0  0.7134714E-005  0.2534476E+03  0.7546771E-02  0.1111145E+00
         21   -1    0    0  502  501  0.00000000000E+00  0.00000000000E+00  0.57526241426E+03  0.57526241426E+03  0.00000000000E+00 0.  1.
         21   -1    0    0  501  502 -0.00000000000E+00 -0.00000000000E+00 -0.11166326230E+03  0.11166326230E+03  0.00000000000E+00 0.  1.
         25    1    1    2    0    0  0.36631057357E+02 -0.85076904006E+02  0.11764519482E+03  0.19505205926E+03  0.12500000000E+03 0.  0.
         25    1    1    2    0    0  0.29220700110E+02 -0.12994120112E+02  0.27886036945E+03  0.30726340837E+03  0.12500000000E+03 0.  0.
         25    1    1    2    0    0 -0.65851757467E+02  0.98071024118E+02  0.67093587689E+02  0.18461020893E+03  0.12500000000E+03 0.  0.
</event>
<event>
 5    0  0.5735425E-005  0.3061803E+03  0.7546771E-02  0.1082191E+00
         21   -1    0    0  502  501  0.00000000000E+00  0.00000000000E+00  0.38008384066E+02  0.38008384066E+02  0.00000000000E+00 0. -1.
         21   -1    0    0  501  502 -0.00000000000E+00 -0.00000000000E+00 -0.24664655851E+04  0.24664655851E+04  0.00000000000E+00 0. -1.
         25    1    1    2    0    0 -0.33990114042E+02 -0.52703771215E+02 -0.64005311836E+03  0.65515342453E+03  0.12500000000E+03 0.  0.
         25    1    1    2    0    0 -0.67084209256E+02 -0.92157067765E+02 -0.13485494380E+04  0.13591187597E+04  0.12500000000E+03 0.  0.
         25    1    1    2    0    0  0.10107432330E+03  0.14486083898E+03 -0.43985464468E+03  0.49020178493E+03  0.12500000000E+03 0.  0.
</event>
<event>
 5    0  0.5735425E-005  0.2472681E+03  0.7546771E-02  0.1115044E+00
         21   -1    0    0  502  501  0.00000000000E+00  0.00000000000E+00  0.27002690457E+03  0.27002690457E+03  0.00000000000E+00 0. -1.
         21   -1    0    0  501  502 -0.00000000000E+00 -0.00000000000E+00 -0.22642752116E+03  0.22642752116E+03  0.00000000000E+00 0. -1.
         25    1    1    2    0    0 -0.40422524170E+02  0.10739684521E+03  0.71230661885E+02  0.18402953571E+03  0.12500000000E+03 0.  0.
         25    1    1    2    0    0 -0.12769002947E+02 -0.11385137430E+03 -0.44716110908E+02  0.17535596209E+03  0.12500000000E+03 0.  0.
         25    1    1    2    0    0  0.53191527116E+02  0.64545290911E+01  0.17084832429E+02  0.13706892792E+03  0.12500000000E+03 0.  0.
</event>
<event>
 5    0  0.5735425E-005  0.2574392E+03  0.7546771E-02  0.1108692E+00
         21   -1    0    0  502  501  0.00000000000E+00  0.00000000000E+00  0.79244845081E+02  0.79244845081E+02  0.00000000000E+00 0.  1.
         21   -1    0    0  501  502 -0.00000000000E+00 -0.00000000000E+00 -0.83633136933E+03  0.83633136933E+03  0.00000000000E+00 0.  1.
         25    1    1    2    0    0  0.39817805770E+02 -0.35312489345E+02 -0.20429318410E+03  0.24534289195E+03  0.12500000000E+03 0.  0.
         25    1    1    2    0    0 -0.60361971508E+01  0.10189859044E+03 -0.48206548529E+03  0.50836196801E+03  0.12500000000E+03 0.  0.
         25    1    1    2    0    0 -0.33781608619E+02 -0.66586101099E+02 -0.70727854865E+02  0.16187135446E+03  0.12500000000E+03 0.  0.
</event>
<event>
 5    0  0.5735425E-005  0.3812194E+03  0.7546771E-02  0.1050484E+00
         21   -1    0    0  502  501  0.00000000000E+00  0.00000000000E+00  0.45075248862E+03  0.45075248862E+03  0.00000000000E+00 0.  1.
         21   -1    0    0  501  502 -0.00000000000E+00 -0.00000000000E+00 -0.32241253805E+03  0.32241253805E+03  0.00000000000E+00 0.  1.
         25    1    1    2    0    0  0.71917102797E+02  0.13160006808E+03  0.11634098741E+03  0.22726828407E+03  0.12500000000E+03 0.  0.
         25    1    1    2    0    0  0.46474738792E+02  0.73920516217E+02 -0.16497720160E+03  0.22464777121E+03  0.12500000000E+03 0.  0.
         25    1    1    2    0    0 -0.11839184159E+03 -0.20552058430E+03  0.17697616476E+03  0.32124897139E+03  0.12500000000E+03 0.  0.
</event>
<event>
 5    0  0.5735425E-005  0.3593103E+03  0.7546771E-02  0.1058857E+00
         21   -1    0    0  502  501  0.00000000000E+00  0.00000000000E+00  0.52326232448E+03  0.52326232448E+03  0.00000000000E+00 0.  1.
         21   -1    0    0  501  502 -0.00000000000E+00 -0.00000000000E+00 -0.24672879615E+03  0.24672879615E+03  0.00000000000E+00 0.  1.
         25    1    1    2    0    0 -0.23467256953E+03  0.14013513314E+03  0.68300895623E+02  0.30821921221E+03  0.12500000000E+03 0.  0.
         25    1    1    2    0    0  0.77090394479E+01 -0.64768323121E+02  0.54169518552E+02  0.15104205278E+03  0.12500000000E+03 0.  0.
         25    1    1    2    0    0  0.22696353008E+03 -0.75366810022E+02  0.15406311416E+03  0.31072985564E+03  0.12500000000E+03 0.  0.
</event>
<event>
 5    0  0.5735425E-005  0.3013912E+03  0.7546771E-02  0.1084547E+00
         21   -1    0    0  502  501  0.00000000000E+00  0.00000000000E+00  0.62163303844E+02  0.62163303844E+02  0.00000000000E+00 0. -1.
         21   -1    0    0  501  502 -0.00000000000E+00 -0.00000000000E+00 -0.14612583504E+04  0.14612583504E+04  0.00000000000E+00 0. -1.
         25    1    1    2    0    0  0.15521092563E+03 -0.44865413604E+02 -0.40629063195E+03  0.45475313565E+03  0.12500000000E+03 0.  0.
         25    1    1    2    0    0 -0.60751127535E+02  0.70464025102E+02 -0.16967768457E+03  0.23037229645E+03  0.12500000000E+03 0.  0.
         25    1    1    2    0    0 -0.94459798093E+02 -0.25598611498E+02 -0.82312673006E+03  0.83829622217E+03  0.12500000000E+03 0.  0.
</event>
<event>
 5    0  0.5735425E-005  0.6165801E+03  0.7546771E-02  0.9871592E-01
         21   -1    0    0  502  501  0.00000000000E+00  0.00000000000E+00  0.40827176795E+03  0.40827176795E+03  0.00000000000E+00 0.  1.
         21   -1    0    0  501  502 -0.00000000000E+00 -0.00000000000E+00 -0.93117139763E+03  0.93117139763E+03  0.00000000000E+00 0.  1.
         25    1    1    2    0    0 -0.78072149732E+02 -0.40723599393E+03  0.35729940169E+02  0.43455499530E+03  0.12500000000E+03 0.  0.
         25    1    1    2    0    0 -0.15061065959E+03  0.39313300770E+03 -0.42719464243E+03  0.61266417803E+03  0.12500000000E+03 0.  0.
         25    1    1    2    0    0  0.22868280932E+03  0.14102986224E+02 -0.13143492742E+03  0.29222399225E+03  0.12500000000E+03 0.  0.
</event>
<event>
 5    0  0.5735425E-005  0.3064963E+03  0.7546771E-02  0.1082038E+00
         21   -1    0    0  502  501  0.00000000000E+00  0.00000000000E+00  0.51477035799E+03  0.51477035799E+03  0.00000000000E+00 0. -1.
         21   -1    0    0  501  502 -0.00000000000E+00 -0.00000000000E+00 -0.18248907508E+03  0.18248907508E+03  0.00000000000E+00 0. -1.
         25    1    1    2    0    0  0.13498341188E+03  0.16401334047E+03  0.81791312804E+02  0.25968387740E+03  0.12500000000E+03 0.  0.
         25    1    1    2    0    0 -0.40202676755E+02 -0.10857388253E+02  0.51383271051E+02  0.14141915939E+03  0.12500000000E+03 0.  0.
         25    1    1    2    0    0 -0.94780735121E+02 -0.15315595221E+03  0.19910669905E+03  0.29615639628E+03  0.12500000000E+03 0.  0.
</event>
<event>
 5    0  0.5735425E-005  0.4148110E+03  0.7546771E-02  0.1038768E+00
         21   -1    0    0  502  501  0.00000000000E+00  0.00000000000E+00  0.26726116082E+03  0.26726116082E+03  0.00000000000E+00 0. -1.
         21   -1    0    0  501  502 -0.00000000000E+00 -0.00000000000E+00 -0.64382039758E+03  0.64382039758E+03  0.00000000000E+00 0. -1.
         25    1    1    2    0    0 -0.14694805382E+03 -0.86473006179E+01  0.15731191104E+03  0.24907939233E+03  0.12500000000E+03 0.  0.
         25    1    1    2    0    0  0.42363044325E+02  0.13218318231E+03 -0.26371816881E+03  0.32317068829E+03  0.12500000000E+03 0.  0.
         25    1    1    2    0    0  0.10458500949E+03 -0.12353588169E+03 -0.27015297899E+03  0.33883147778E+03  0.12500000000E+03 0.  0.
</event>
<event>
 5    0  0.5735425E-005  0.2318242E+03  0.7546771E-02  0.1125362E+00
         21   -1    0    0  502  501  0.00000000000E+00  0.00000000000E+00  0.81702906924E+03  0.81702906924E+03  0.00000000000E+00 0. -1.
         21   -1    0    0  501  502 -0.00000000000E+00 -0.00000000000E+00 -0.65777892048E+02  0.65777892048E+02  0.00000000000E+00 0. -1.
         25    1    1    2    0    0 -0.54577016443E+02  0.92603087825E+02  0.21990754102E+03  0.27484233516E+03  0.12500000000E+03 0.  0.
         25    1    1    2    0    0 -0.30838921668E+02 -0.45331233141E+02  0.23091837424E+03  0.26824290363E+03  0.12500000000E+03 0.  0.
         25    1    1    2    0    0  0.85415938111E+02 -0.47271854684E+02  0.30042526194E+03  0.33972172250E+03  0.12500000000E+03 0.  0.
</event>
<event>
 5    0  0.5735425E-005  0.4339399E+03  0.7546771E-02  0.1032623E+00
         21   -1    0    0  502  501  0.00000000000E+00  0.00000000000E+00  0.13036553338E+04  0.13036553338E+04  0.00000000000E+00 0. -1.
         21   -1    0    0  501  502 -0.00000000000E+00 -0.00000000000E+00 -0.14444293966E+03  0.14444293966E+03  0.00000000000E+00 0. -1.
         25    1    1    2    0    0  0.23675114638E+03  0.58851852704E+02  0.61497397798E+03  0.67329981396E+03  0.12500000000E+03 0.  0.
         25    1    1    2    0    0  0.15361042989E+02  0.76405191038E+02 -0.66832713113E-01  0.14730485167E+03  0.12500000000E+03 0.  0.
         25    1    1    2    0    0 -0.25211218937E+03 -0.13525704374E+03  0.54430524885E+03  0.62749360780E+03  0.12500000000E+03 0.  0.
</event>
<event>
 5    0  0.5735425E-005  0.2326344E+03  0.7546771E-02  0.1124799E+00
         21   -1    0    0  502  501  0.00000000000E+00  0.00000000000E+00  0.43686349710E+03  0.43686349710E+03  0.00000000000E+00 0. -1.
         21   -1    0    0  501  502 -0.00000000000E+00 -0.00000000000E+00 -0.12388023392E+03  0.12388023392E+03  0.00000000000E+00 0. -1.
         25    1    1    2    0    0  0.88340410641E+02  0.82676952379E+02  0.14252679839E+03  0.22489640919E+03  0.12500000000E+03 0.  0.
         25    1    1    2    0    0 -0.73815577114E+02 -0.27206240739E+02  0.59842707756E+02  0.15935830267E+03  0.12500000000E+03 0.  0.
         25    1    1    2    0    0 -0.14524833527E+02 -0.55470711640E+02  0.11061375703E+03  0.17648901916E+03  0.12500000000E+03 0.  0.
</event>
<event>
 5    0  0.5735425E-005  0.3698742E+03  0.7546771E-02  0.1054741E+00
         21   -1    0    0  502  501  0.00000000000E+00  0.00000000000E+00  0.25634265039E+03  0.25634265039E+03  0.00000000000E+00 0. -1.
         21   -1    0    0  501  502 -0.00000000000E+00 -0.00000000000E+00 -0.53368776179E+03  0.53368776179E+03  0.00000000000E+00 0. -1.
         25    1    1    2    0    0  0.29729003480E+01 -0.20793379428E+03 -0.20560943590E+03  0.31803386780E+03  0.12500000000E+03 0.  0.
         25    1    1    2    0    0  0.15432939778E+03  0.38925627963E+02 -0.50517815396E+02  0.20859006976E+03  0.12500000000E+03 0.  0.
         25    1    1    2    0    0 -0.15730229813E+03  0.16900816632E+03 -0.21217860108E+02  0.26340647461E+03  0.12500000000E+03 0.  0.
</event>
<event>
 5    0  0.5735425E-005  0.3314539E+03  0.7546771E-02  0.1070495E+00
         21   -1    0    0  502  501  0.00000000000E+00  0.00000000000E+00  0.16176242732E+03  0.16176242732E+03  0.00000000000E+00 0.  1.
         21   -1    0    0  501  502 -0.00000000000E+00 -0.00000000000E+00 -0.67915455412E+03  0.67915455412E+03  0.00000000000E+00 0.  1.
         25    1    1    2    0    0 -0.15429813394E+03  0.13460795882E+03 -0.41821440382E+03  0.48213639593E+03  0.12500000000E+03 0.  0.
         25    1    1    2    0    0  0.12386421328E+03 -0.99040695654E+02 -0.99920608341E+02  0.22530097803E+03  0.12500000000E+03 0.  0.
         25    1    1    2    0    0  0.30433920659E+02 -0.35567263165E+02  0.74288536148E+00  0.13347960749E+03  0.12500000000E+03 0.  0.
</event>
<event>
 5    0  0.5735425E-005  0.2287817E+03  0.7546771E-02  0.1127500E+00
         21   -1    0    0  502  501  0.00000000000E+00  0.00000000000E+00  0.73729707645E+03  0.73729707645E+03  0.00000000000E+00 0. -1.
         21   -1    0    0  501  502 -0.00000000000E+00 -0.00000000000E+00 -0.70990484285E+02  0.70990484285E+02  0.00000000000E+00 0. -1.
         25    1    1    2    0    0  0.57226470535E+02 -0.52328642095E+02  0.42678759103E+03  0.45142640992E+03  0.12500000000E+03 0.  0.
         25    1    1    2    0    0 -0.23474358726E+02  0.15986391543E+02  0.13811448776E+03  0.18843360093E+03  0.12500000000E+03 0.  0.
         25    1    1    2    0    0 -0.33752111808E+02  0.36342250551E+02  0.10140451338E+03  0.16842754988E+03  0.12500000000E+03 0.  0.
</event>
<event>
 5    0  0.5735425E-005  0.2708676E+03  0.7546771E-02  0.1100784E+00
         21   -1    0    0  502  501  0.00000000000E+00  0.00000000000E+00  0.31986529381E+02  0.31986529381E+02  0.00000000000E+00 0. -1.
         21   -1    0    0  501  502 -0.00000000000E+00 -0.00000000000E+00 -0.22937553552E+04  0.22937553552E+04  0.00000000000E+00 0. -1.
         25    1    1    2    0    0  0.61600922828E+02  0.18625368107E+02 -0.25911413970E+03  0.29479944950E+03  0.12500000000E+03 0.  0.
         25    1    1    2    0    0 -0.30091308049E+02 -0.11700476757E+03 -0.93152182776E+03  0.94760409352E+03  0.12500000000E+03 0.  0.
         25    1    1    2    0    0 -0.31509614780E+02  0.98379399461E+02 -0.10711328584E+04  0.10833383416E+04  0.12500000000E+03 0.  0.
</event>
<event>
 5    0  0.5735425E-005  0.2934334E+03  0.7546771E-02  0.1088570E+00
         21   -1    0    0  502  501  0.00000000000E+00  0.00000000000E+00  0.64267949228E+02  0.64267949228E+02  0.00000000000E+00 0.  1.
         21   -1    0    0  501  502 -0.00000000000E+00 -0.00000000000E+00 -0.13397530744E+04  0.13397530744E+04  0.00000000000E+00 0.  1.
         25    1    1    2    0    0  0.55548092586E+02  0.74627290336E+02 -0.74047095128E+03  0.75668821370E+03  0.12500000000E+03 0.  0.
         25    1    1    2    0    0  0.72843227950E+02 -0.10847904831E+03 -0.29293820192E+03  0.34425518140E+03  0.12500000000E+03 0.  0.
         25    1    1    2    0    0 -0.12839132054E+03  0.33851757973E+02 -0.24207597196E+03  0.30307762851E+03  0.12500000000E+03 0.  0.
</event>
<event>
 5    0  0.5735425E-005  0.2251431E+03  0.7546771E-02  0.1130106E+00
         21   -1    0    0  502  501  0.00000000000E+00  0.00000000000E+00  0.41862155704E+03  0.41862155704E+03  0.00000000000E+00 0.  1.
         21   -1    0    0  501  502 -0.00000000000E+00 -0.00000000000E+00 -0.12108650515E+03  0.12108650515E+03  0.00000000000E+00 0.  1.
         25    1    1    2    0    0  0.49679755642E+02  0.39238212584E+02  0.11857341259E+03  0.18355481367E+03  0.12500000000E+03 0.  0.
         25    1    1    2    0    0 -0.78959580899E+02 -0.21327433664E+02  0.19494662807E+02  0.15064699373E+03  0.12500000000E+03 0.  0.
         25    1    1    2    0    0  0.29279825256E+02 -0.17910778920E+02  0.15946697649E+03  0.20550625479E+03  0.12500000000E+03 0.  0.
</event>
<event>
 5    0  0.5735425E-005  0.3038369E+03  0.7546771E-02  0.1083338E+00
         21   -1    0    0  502  501  0.00000000000E+00  0.00000000000E+00  0.16537656439E+03  0.16537656439E+03  0.00000000000E+00 0.  1.
         21   -1    0    0  501  502 -0.00000000000E+00 -0.00000000000E+00 -0.55822227206E+03  0.55822227206E+03  0.00000000000E+00 0.  1.
         25    1    1    2    0    0  0.92716027546E+02  0.33211846962E+02  0.42404324535E+02  0.16468884383E+03  0.12500000000E+03 0.  0.
         25    1    1    2    0    0 -0.10012735072E+03  0.44672565742E+02 -0.10347702358E+03  0.19584079989E+03  0.12500000000E+03 0.  0.
         25    1    1    2    0    0  0.74113231778E+01 -0.77884412703E+02 -0.33177300863E+03  0.36306919273E+03  0.12500000000E+03 0.  0.
</event>
<event>
 5    0  0.5735425E-005  0.2828844E+03  0.7546771E-02  0.1094124E+00
         21   -1    0    0  502  501  0.00000000000E+00  0.00000000000E+00  0.31010892681E+03  0.31010892681E+03  0.00000000000E+00 0.  1.
         21   -1    0    0  501  502 -0.00000000000E+00 -0.00000000000E+00 -0.25804995766E+03  0.25804995766E+03  0.00000000000E+00 0.  1.
         25    1    1    2    0    0  0.52379061485E+02  0.13740093719E+03 -0.97695132394E+02  0.21631440663E+03  0.12500000000E+03 0.  0.
         25    1    1    2    0    0 -0.53641806974E+02 -0.16364839424E+02  0.28979348423E+02  0.14003590275E+03  0.12500000000E+03 0.  0.
         25    1    1    2    0    0  0.12627454887E+01 -0.12103609776E+03  0.12077475313E+03  0.21180857509E+03  0.12500000000E+03 0.  0.
</event>
<event>
 5    0  0.5735425E-005  0.3025866E+03  0.7546771E-02  0.1083955E+00
         21   -1    0    0  502  501  0.00000000000E+00  0.00000000000E+00  0.46338104421E+03  0.46338104421E+03  0.00000000000E+00 0.  1.
         21   -1    0    0  501  502 -0.00000000000E+00 -0.00000000000E+00 -0.19758829364E+03  0.19758829364E+03  0.00000000000E+00 0.  1.
         25    1    1    2    0    0  0.99278386204E+02  0.14762666779E+03 -0.31904978447E+02  0.21975613452E+03  0.12500000000E+03 0.  0.
         25    1    1    2    0    0  0.10350665326E+01 -0.61506827075E+02  0.16538727635E+03  0.21624549086E+03  0.12500000000E+03 0.  0.
         25    1    1    2    0    0 -0.10031345274E+03 -0.86119840715E+02  0.13231045267E+03  0.22496771246E+03  0.12500000000E+03 0.  0.
</event>
<event>
 5    0  0.5735425E-005  0.3001043E+03  0.7546771E-02  0.1085188E+00
         21   -1    0    0  502  501  0.00000000000E+00  0.00000000000E+00  0.16329348918E+04  0.16329348918E+04  0.00000000000E+00 0. -1.
         21   -1    0    0  501  502 -0.00000000000E+00 -0.00000000000E+00 -0.55153815992E+02  0.55153815992E+02  0.00000000000E+00 0. -1.
         25    1    1    2    0    0  0.57832871822E+02  0.63306661095E+02  0.83039292267E+03  0.84411479103E+03  0.12500000000E+03 0.  0.
         25    1    1    2    0    0 -0.13607849993E+03 -0.57154025239E+02  0.61844938282E+03  0.64798810163E+03  0.12500000000E+03 0.  0.
         25    1    1    2    0    0  0.78245628105E+02 -0.61526358558E+01  0.12893877032E+03  0.19598581515E+03  0.12500000000E+03 0.  0.
</event>
<event>
 5    0  0.5735425E-005  0.2644946E+03  0.7546771E-02  0.1104472E+00
         21   -1    0    0  502  501  0.00000000000E+00  0.00000000000E+00  0.65656000528E+03  0.65656000528E+03  0.00000000000E+00 0. -1.
         21   -1    0    0  501  502 -0.00000000000E+00 -0.00000000000E+00 -0.10655139124E+03  0.10655139124E+03  0.00000000000E+00 0. -1.
         25    1    1    2    0    0  0.10747855637E+03 -0.43374436624E+02  0.11107218416E+03  0.20345764160E+03  0.12500000000E+03 0.  0.
         25    1    1    2    0    0 -0.14253506272E+03  0.25093724746E+02  0.15234776841E+03  0.24450108725E+03  0.12500000000E+03 0.  0.
         25    1    1    2    0    0  0.35056506351E+02  0.18280711878E+02  0.28658866147E+03  0.31515266768E+03  0.12500000000E+03 0.  0.
</event>
<event>
 5    0  0.5735425E-005  0.4931217E+03  0.7546771E-02  0.1015590E+00
         21   -1    0    0  502  501  0.00000000000E+00  0.00000000000E+00  0.23039790142E+03  0.23039790142E+03  0.00000000000E+00 0.  1.
         21   -1    0    0  501  502 -0.00000000000E+00 -0.00000000000E+00 -0.10554304584E+04  0.10554304584E+04  0.00000000000E+00 0.  1.
         25    1    1    2    0    0  0.18985894841E+03  0.29401190711E+03 -0.75901436376E+03  0.84511373566E+03  0.12500000000E+03 0.  0.
         25    1    1    2    0    0 -0.11094438550E+03 -0.14270744833E+03 -0.64997957863E+02  0.22918073001E+03  0.12500000000E+03 0.  0.
         25    1    1    2    0    0 -0.78914562904E+02 -0.15130445878E+03 -0.10202353379E+01  0.21153389413E+03  0.12500000000E+03 0.  0.
</event>
<event>
 5    0  0.6308790E-005  0.7043045E+03  0.7546771E-02  0.9709899E-01
         21   -1    0    0  502  501  0.00000000000E+00  0.00000000000E+00  0.29656433007E+03  0.29656433007E+03  0.00000000000E+00 0.  1.
         21   -1    0    0  501  502 -0.00000000000E+00 -0.00000000000E+00 -0.16726382662E+04  0.16726382662E+04  0.00000000000E+00 0.  1.
         25    1    1    2    0    0 -0.10332718680E+03  0.36663770014E+03 -0.20198666380E+03  0.44891349172E+03  0.12500000000E+03 0.  0.
         25    1    1    2    0    0 -0.61678094624E+02 -0.34492411475E+03 -0.12457828421E+04  0.13001448850E+04  0.12500000000E+03 0.  0.
         25    1    1    2    0    0  0.16500528143E+03 -0.21713585392E+02  0.71695569763E+02  0.22014421958E+03  0.12500000000E+03 0.  0.
</event>
<event>
 5    0  0.5735425E-005  0.3150805E+03  0.7546771E-02  0.1077936E+00
         21   -1    0    0  502  501  0.00000000000E+00  0.00000000000E+00  0.70228248634E+03  0.70228248634E+03  0.00000000000E+00 0.  1.
         21   -1    0    0  501  502 -0.00000000000E+00 -0.00000000000E+00 -0.14136151735E+03  0.14136151735E+03  0.00000000000E+00 0.  1.
         25    1    1    2    0    0  0.23821089995E+01 -0.11568296816E+03  0.51878475700E+02  0.17805785523E+03  0.12500000000E+03 0.  0.
         25    1    1    2    0    0  0.12929074793E+03  0.16130728762E+03  0.28280708582E+03  0.37194218144E+03  0.12500000000E+03 0.  0.
         25    1    1    2    0    0 -0.13167285693E+03 -0.45624319459E+02  0.22623540747E+03  0.29364396703E+03  0.12500000000E+03 0.  0.
</event>
<event>
 5    0  0.5735425E-005  0.3433230E+03  0.7546771E-02  0.1065389E+00
         21   -1    0    0  502  501  0.00000000000E+00  0.00000000000E+00  0.69103148040E+02  0.69103148040E+02  0.00000000000E+00 0. -1.
         21   -1    0    0  501  502 -0.00000000000E+00 -0.00000000000E+00 -0.17057208145E+04  0.17057208145E+04  0.00000000000E+00 0. -1.
         25    1    1    2    0    0 -0.12993228753E+03  0.75029927536E+02 -0.63742024665E+03  0.66666442849E+03  0.12500000000E+03 0.  0.
         25    1    1    2    0    0 -0.85669132018E+02  0.89103934396E+02 -0.29603858942E+03  0.34430009836E+03  0.12500000000E+03 0.  0.
         25    1    1    2    0    0  0.21560141955E+03 -0.16413386193E+03 -0.70315883038E+03  0.76385943568E+03  0.12500000000E+03 0.  0.
</event>
<event>
 5    0  0.5735425E-005  0.2678333E+03  0.7546771E-02  0.1102526E+00
         21   -1    0    0  502  501  0.00000000000E+00  0.00000000000E+00  0.14872323387E+03  0.14872323387E+03  0.00000000000E+00 0. -1.
         21   -1    0    0  501  502 -0.00000000000E+00 -0.00000000000E+00 -0.48233670473E+03  0.48233670473E+03  0.00000000000E+00 0. -1.
         25    1    1    2    0    0 -0.14888512686E+02 -0.12313805655E+03 -0.31848072996E+02  0.17895236387E+03  0.12500000000E+03 0.  0.
         25    1    1    2    0    0 -0.84633767408E+02  0.74532677357E+02 -0.13167328962E+03  0.21373078809E+03  0.12500000000E+03 0.  0.
         25    1    1    2    0    0  0.99522280094E+02  0.48605379191E+02 -0.17009210824E+03  0.23837678664E+03  0.12500000000E+03 0.  0.
</event>
<event>
 5    0  0.5816335E-005  0.2639087E+03  0.7546771E-02  0.1104817E+00
         21   -1    0    0  502  501  0.00000000000E+00  0.00000000000E+00  0.24180240070E+03  0.24180240070E+03  0.00000000000E+00 0.  1.
         21   -1    0    0  501  502 -0.00000000000E+00 -0.00000000000E+00 -0.28803610033E+03  0.28803610033E+03  0.00000000000E+00 0.  1.
         25    1    1    2    0    0  0.59331008639E+02  0.80522654583E+02 -0.13939635609E+02  0.16069654610E+03  0.12500000000E+03 0.  0.
         25    1    1    2    0    0 -0.10761955225E+03 -0.61344907430E+02  0.79948837306E+02  0.19329247859E+03  0.12500000000E+03 0.  0.
         25    1    1    2    0    0  0.48288543609E+02 -0.19177747153E+02 -0.11224290133E+03  0.17584947634E+03  0.12500000000E+03 0.  0.
</event>
<event>
 5    0  0.5735425E-005  0.3630863E+03  0.7546771E-02  0.1057368E+00
         21   -1    0    0  502  501  0.00000000000E+00  0.00000000000E+00  0.24906316404E+03  0.24906316404E+03  0.00000000000E+00 0. -1.
         21   -1    0    0  501  502 -0.00000000000E+00 -0.00000000000E+00 -0.52931000819E+03  0.52931000819E+03  0.00000000000E+00 0. -1.
         25    1    1    2    0    0  0.19116588183E+02  0.19021048044E+03 -0.23192093673E+03  0.32551158459E+03  0.12500000000E+03 0.  0.
         25    1    1    2    0    0 -0.13155998250E+03  0.17698998019E+02 -0.85695615703E+01  0.18253690287E+03  0.12500000000E+03 0.  0.
         25    1    1    2    0    0  0.11244339431E+03 -0.20790947846E+03 -0.39756345848E+02  0.27032468476E+03  0.12500000000E+03 0.  0.
</event>
<event>
 5    0  0.5735425E-005  0.2454832E+03  0.7546771E-02  0.1116193E+00
         21   -1    0    0  502  501  0.00000000000E+00  0.00000000000E+00  0.20690751120E+03  0.20690751120E+03  0.00000000000E+00 0.  1.
         21   -1    0    0  501  502 -0.00000000000E+00 -0.00000000000E+00 -0.29125090308E+03  0.29125090308E+03  0.00000000000E+00 0.  1.
         25    1    1    2    0    0 -0.84454457224E+02 -0.68470745514E+01 -0.83578328902E+01  0.15124249120E+03  0.12500000000E+03 0.  0.
         25    1    1    2    0    0 -0.12477097329E+01  0.43089229235E+02  0.55135560942E+02  0.14325909582E+03  0.12500000000E+03 0.  0.
         25    1    1    2    0    0  0.85702166957E+02 -0.36242154684E+02 -0.13112111992E+03  0.20365682725E+03  0.12500000000E+03 0.  0.
</event>
<event>
 5    0  0.5819312E-005  0.3315759E+03  0.7546771E-02  0.1070442E+00
         21   -1    0    0  502  501  0.00000000000E+00  0.00000000000E+00  0.46088094750E+03  0.46088094750E+03  0.00000000000E+00 0. -1.
         21   -1    0    0  501  502 -0.00000000000E+00 -0.00000000000E+00 -0.23854881189E+03  0.23854881189E+03  0.00000000000E+00 0. -1.
         25    1    1    2    0    0 -0.47466466109E+02  0.15413549438E+03 -0.19215389132E+01  0.20405761036E+03  0.12500000000E+03 0.  0.
         25    1    1    2    0    0 -0.74601238100E+02 -0.17951081354E+03  0.30291727281E+02  0.23309239723E+03  0.12500000000E+03 0.  0.
         25    1    1    2    0    0  0.12206770421E+03  0.25375319159E+02  0.19396194724E+03  0.26227975181E+03  0.12500000000E+03 0.  0.
</event>
<event>
 5    0  0.5735425E-005  0.2580183E+03  0.7546771E-02  0.1108340E+00
         21   -1    0    0  502  501  0.00000000000E+00  0.00000000000E+00  0.45466947072E+03  0.45466947072E+03  0.00000000000E+00 0.  1.
         21   -1    0    0  501  502 -0.00000000000E+00 -0.00000000000E+00 -0.14642164932E+03  0.14642164932E+03  0.00000000000E+00 0.  1.
         25    1    1    2    0    0  0.13780703466E+03 -0.57331754306E+02  0.21039683760E+03  0.28665229482E+03  0.12500000000E+03 0.  0.
         25    1    1    2    0    0 -0.92422266732E+02  0.56673568796E+02  0.62062862811E+02  0.17672172399E+03  0.12500000000E+03 0.  0.
         25    1    1    2    0    0 -0.45384767930E+02  0.65818550985E+00  0.35788120979E+02  0.13771710123E+03  0.12500000000E+03 0.  0.
</event>
<event>
 5    0  0.5735425E-005  0.3280571E+03  0.7546771E-02  0.1072000E+00
         21   -1    0    0  502  501  0.00000000000E+00  0.00000000000E+00  0.14720171613E+04  0.14720171613E+04  0.00000000000E+00 0.  1.
         21   -1    0    0  501  502 -0.00000000000E+00 -0.00000000000E+00 -0.73111543564E+02  0.73111543564E+02  0.00000000000E+00 0.  1.
         25    1    1    2    0    0 -0.10950053578E+03 -0.14448522924E+03  0.57261919079E+03  0.61350149671E+03  0.12500000000E+03 0.  0.
         25    1    1    2    0    0  0.68316901186E+02  0.23200129369E+03  0.51743612488E+03  0.58468533639E+03  0.12500000000E+03 0.  0.
         25    1    1    2    0    0  0.41183634597E+02 -0.87516064444E+02  0.30885030205E+03  0.34694187175E+03  0.12500000000E+03 0.  0.
</event>
<event>
 5    0  0.5735425E-005  0.2518271E+03  0.7546771E-02  0.1112156E+00
         21   -1    0    0  502  501  0.00000000000E+00  0.00000000000E+00  0.11568986147E+03  0.11568986147E+03  0.00000000000E+00 0. -1.
         21   -1    0    0  501  502 -0.00000000000E+00 -0.00000000000E+00 -0.54816271532E+03  0.54816271532E+03  0.00000000000E+00 0. -1.
         25    1    1    2    0    0  0.47446589134E+02 -0.11321229848E+03 -0.36847602990E+02  0.17902778888E+03  0.12500000000E+03 0.  0.
         25    1    1    2    0    0 -0.10989058230E+02  0.50970140723E+02 -0.20577959806E+03  0.24635128906E+03  0.12500000000E+03 0.  0.
         25    1    1    2    0    0 -0.36457530904E+02  0.62242157754E+02 -0.18984565280E+03  0.23847349884E+03  0.12500000000E+03 0.  0.
</event>
<event>
 5    0  0.5747332E-005  0.4902999E+03  0.7546771E-02  0.1016342E+00
         21   -1    0    0  502  501  0.00000000000E+00  0.00000000000E+00  0.42044459081E+03  0.42044459081E+03  0.00000000000E+00 0.  1.
         21   -1    0    0  501  502 -0.00000000000E+00 -0.00000000000E+00 -0.57176145750E+03  0.57176145750E+03  0.00000000000E+00 0.  1.
         25    1    1    2    0    0  0.24126235143E+03 -0.35581174704E+02 -0.31008889708E+03  0.41382806369E+03  0.12500000000E+03 0.  0.
         25    1    1    2    0    0 -0.14761830884E+03 -0.16593000651E+03 -0.36212618275E+02  0.25741073382E+03  0.12500000000E+03 0.  0.
         25    1    1    2    0    0 -0.93644042590E+02  0.20151118121E+03  0.19498464867E+03  0.32096725080E+03  0.12500000000E+03 0.  0.
</event>
<event>
 5    0  0.5735425E-005  0.3061953E+03  0.7546771E-02  0.1082184E+00
         21   -1    0    0  502  501  0.00000000000E+00  0.00000000000E+00  0.17631414308E+03  0.17631414308E+03  0.00000000000E+00 0.  1.
         21   -1    0    0  501  502 -0.00000000000E+00 -0.00000000000E+00 -0.53175279278E+03  0.53175279278E+03  0.00000000000E+00 0.  1.
         25    1    1    2    0    0 -0.83891442648E+02  0.17836961934E+03 -0.23303542307E+03  0.32982420114E+03  0.12500000000E+03 0.  0.
         25    1    1    2    0    0 -0.19754263136E+02 -0.71235947894E+02 -0.11205655799E+03  0.18342972325E+03  0.12500000000E+03 0.  0.
         25    1    1    2    0    0  0.10364570578E+03 -0.10713367144E+03 -0.10346668631E+02  0.19481301147E+03  0.12500000000E+03 0.  0.
</event>
<event>
 5    0  0.6406355E-005  0.3598511E+03  0.7546771E-02  0.1058643E+00
         21   -1    0    0  502  501  0.00000000000E+00  0.00000000000E+00  0.56180413389E+03  0.56180413389E+03  0.00000000000E+00 0. -1.
         21   -1    0    0  501  502 -0.00000000000E+00 -0.00000000000E+00 -0.23049464672E+03  0.23049464672E+03  0.00000000000E+00 0. -1.
         25    1    1    2    0    0 -0.18013257619E+03 -0.33585729901E+02  0.80741752861E+02  0.23605079308E+03  0.12500000000E+03 0.  0.
         25    1    1    2    0    0  0.16501179865E+03  0.19849811460E+02  0.34184106889E+03  0.40012901055E+03  0.12500000000E+03 0.  0.
         25    1    1    2    0    0  0.15120777544E+02  0.13735918442E+02 -0.91273334582E+02  0.15611897698E+03  0.12500000000E+03 0.  0.
</event>
<event>
 5    0  0.5735425E-005  0.2483657E+03  0.7546771E-02  0.1114342E+00
         21   -1    0    0  502  501  0.00000000000E+00  0.00000000000E+00  0.16932572198E+03  0.16932572198E+03  0.00000000000E+00 0. -1.
         21   -1    0    0  501  502 -0.00000000000E+00 -0.00000000000E+00 -0.36430083721E+03  0.36430083721E+03  0.00000000000E+00 0. -1.
         25    1    1    2    0    0 -0.94100089957E+02  0.43462520733E+02 -0.17336872100E+03  0.23754058823E+03  0.12500000000E+03 0.  0.
         25    1    1    2    0    0  0.21430830919E+02 -0.31113389815E+01 -0.61180220821E+02  0.14084381550E+03  0.12500000000E+03 0.  0.
         25    1    1    2    0    0  0.72669259038E+02 -0.40351181751E+02  0.39573826589E+02  0.15524215545E+03  0.12500000000E+03 0.  0.
</event>
<event>
 5    0  0.6317640E-005  0.4617313E+03  0.7546771E-02  0.1024280E+00
         21   -1    0    0  502  501  0.00000000000E+00  0.00000000000E+00  0.36845065574E+03  0.36845065574E+03  0.00000000000E+00 0.  1.
         21   -1    0    0  501  502 -0.00000000000E+00 -0.00000000000E+00 -0.57862775997E+03  0.57862775997E+03  0.00000000000E+00 0.  1.
         25    1    1    2    0    0 -0.13276030020E+03  0.30603833657E+03 -0.56808991912E+02  0.36074509328E+03  0.12500000000E+03 0.  0.
         25    1    1    2    0    0 -0.12426469981E+03 -0.14805998315E+03 -0.11561238243E+03  0.25759405505E+03  0.12500000000E+03 0.  0.
         25    1    1    2    0    0  0.25702500001E+03 -0.15797835342E+03 -0.37755729889E+02  0.32873926738E+03  0.12500000000E+03 0.  0.
</event>
<event>
 5    0  0.5735425E-005  0.2213794E+03  0.7546771E-02  0.1132859E+00
         21   -1    0    0  502  501  0.00000000000E+00  0.00000000000E+00  0.28266480552E+03  0.28266480552E+03  0.00000000000E+00 0. -1.
         21   -1    0    0  501  502 -0.00000000000E+00 -0.00000000000E+00 -0.17338147934E+03  0.17338147934E+03  0.00000000000E+00 0. -1.
         25    1    1    2    0    0  0.60760949386E+02  0.79967759200E+02  0.87413236600E+02  0.18262751549E+03  0.12500000000E+03 0.  0.
         25    1    1    2    0    0 -0.41726295185E+02 -0.43021312424E+02 -0.60779234204E+01  0.13875827249E+03  0.12500000000E+03 0.  0.
         25    1    1    2    0    0 -0.19034654201E+02 -0.36946446776E+02  0.27948012998E+02  0.13466049688E+03  0.12500000000E+03 0.  0.
</event>
<event>
 5    0  0.5735425E-005  0.2709605E+03  0.7546771E-02  0.1100731E+00
         21   -1    0    0  502  501  0.00000000000E+00  0.00000000000E+00  0.21048069401E+02  0.21048069401E+02  0.00000000000E+00 0.  1.
         21   -1    0    0  501  502 -0.00000000000E+00 -0.00000000000E+00 -0.34881859654E+04  0.34881859654E+04  0.00000000000E+00 0.  1.
         25    1    1    2    0    0 -0.27730004375E+02 -0.59194027250E+02 -0.80082054210E+03  0.81314908022E+03  0.12500000000E+03 0.  0.
         25    1    1    2    0    0 -0.63508578665E+02 -0.10403591736E+03 -0.11754042047E+04  0.11882999857E+04  0.12500000000E+03 0.  0.
         25    1    1    2    0    0  0.91238583040E+02  0.16322994461E+03 -0.14909131492E+04  0.15077849689E+04  0.12500000000E+03 0.  0.
</event>
<event>
 5    0  0.5735425E-005  0.3258288E+03  0.7546771E-02  0.1072998E+00
         21   -1    0    0  502  501  0.00000000000E+00  0.00000000000E+00  0.35254815785E+03  0.35254815785E+03  0.00000000000E+00 0.  1.
         21   -1    0    0  501  502 -0.00000000000E+00 -0.00000000000E+00 -0.30113443670E+03  0.30113443670E+03  0.00000000000E+00 0.  1.
         25    1    1    2    0    0 -0.20227215874E+03 -0.38555938960E+02  0.21154023274E+02  0.24181207441E+03  0.12500000000E+03 0.  0.
         25    1    1    2    0    0  0.12593426282E+03  0.79237696149E+02 -0.93687112600E+02  0.21573207019E+03  0.12500000000E+03 0.  0.
         25    1    1    2    0    0  0.76337895917E+02 -0.40681757189E+02  0.12394681048E+03  0.19613844995E+03  0.12500000000E+03 0.  0.
</event>
<event>
 5    0  0.5735425E-005  0.4053541E+03  0.7546771E-02  0.1041941E+00
         21   -1    0    0  502  501  0.00000000000E+00  0.00000000000E+00  0.38106095993E+03  0.38106095993E+03  0.00000000000E+00 0. -1.
         21   -1    0    0  501  502 -0.00000000000E+00 -0.00000000000E+00 -0.43119600499E+03  0.43119600499E+03  0.00000000000E+00 0. -1.
         25    1    1    2    0    0  0.26906521874E+03 -0.56323187066E+02 -0.23280382723E+03  0.38130173788E+03  0.12500000000E+03 0.  0.
         25    1    1    2    0    0 -0.18309003672E+03  0.41671282398E+02  0.16069909120E+03  0.27696146887E+03  0.12500000000E+03 0.  0.
         25    1    1    2    0    0 -0.85975182019E+02  0.14651904669E+02  0.21969690968E+02  0.15399375817E+03  0.12500000000E+03 0.  0.
</event>
<event>
 5    0  0.5735425E-005  0.2936628E+03  0.7546771E-02  0.1088452E+00
         21   -1    0    0  502  501  0.00000000000E+00  0.00000000000E+00  0.39718406981E+03  0.39718406981E+03  0.00000000000E+00 0.  1.
         21   -1    0    0  501  502 -0.00000000000E+00 -0.00000000000E+00 -0.21712306242E+03  0.21712306242E+03  0.00000000000E+00 0.  1.
         25    1    1    2    0    0 -0.83885214480E+02 -0.15170473913E+03  0.91829193070E+02  0.23261267760E+03  0.12500000000E+03 0.  0.
         25    1    1    2    0    0  0.55099861623E+02  0.10301881279E+03  0.15340853025E+03  0.22980001674E+03  0.12500000000E+03 0.  0.
         25    1    1    2    0    0  0.28785352858E+02  0.48685926340E+02 -0.65176715927E+02  0.15189443789E+03  0.12500000000E+03 0.  0.
</event>
<event>
 5    0  0.5735425E-005  0.4514344E+03  0.7546771E-02  0.1027295E+00
         21   -1    0    0  502  501  0.00000000000E+00  0.00000000000E+00  0.21364836173E+03  0.21364836173E+03  0.00000000000E+00 0.  1.
         21   -1    0    0  501  502 -0.00000000000E+00 -0.00000000000E+00 -0.95387135599E+03  0.95387135599E+03  0.00000000000E+00 0.  1.
         25    1    1    2    0    0 -0.13744334357E+03 -0.21336739668E+03 -0.47376315089E+03  0.55180870036E+03  0.12500000000E+03 0.  0.
         25    1    1    2    0    0  0.16414388369E+03 -0.64703862819E+02 -0.21582613332E+03  0.30550895934E+03  0.12500000000E+03 0.  0.
         25    1    1    2    0    0 -0.26700540123E+02  0.27807125949E+03 -0.50633710058E+02  0.31020205801E+03  0.12500000000E+03 0.  0.
</event>
<event>
 5    0  0.5735425E-005  0.4270273E+03  0.7546771E-02  0.1034803E+00
         21   -1    0    0  502  501  0.00000000000E+00  0.00000000000E+00  0.12185585158E+04  0.12185585158E+04  0.00000000000E+00 0.  1.
         21   -1    0    0  501  502 -0.00000000000E+00 -0.00000000000E+00 -0.14964591531E+03  0.14964591531E+03  0.00000000000E+00 0.  1.
         25    1    1    2    0    0 -0.12159130505E+03  0.12150799292E+03  0.59236450920E+03  0.62934040833E+03  0.12500000000E+03 0.  0.
         25    1    1    2    0    0 -0.16205488635E+03 -0.37216118098E+02  0.31963289376E+03  0.38136204899E+03  0.12500000000E+03 0.  0.
         25    1    1    2    0    0  0.28364619140E+03 -0.84291874822E+02  0.15691519757E+03  0.35750197382E+03  0.12500000000E+03 0.  0.
</event>
<event>
 5    0  0.5735425E-005  0.2765085E+03  0.7546771E-02  0.1097611E+00
         21   -1    0    0  502  501  0.00000000000E+00  0.00000000000E+00  0.27339660514E+02  0.27339660514E+02  0.00000000000E+00 0.  1.
         21   -1    0    0  501  502 -0.00000000000E+00 -0.00000000000E+00 -0.27965579501E+04  0.27965579501E+04  0.00000000000E+00 0.  1.
         25    1    1    2    0    0  0.31856989863E+02  0.17564646427E+03 -0.10028016571E+04  0.10262079281E+04  0.12500000000E+03 0.  0.
         25    1    1    2    0    0 -0.41323039401E+02 -0.11263891438E+03 -0.65802444349E+03  0.68045300121E+03  0.12500000000E+03 0.  0.
         25    1    1    2    0    0  0.94660495388E+01 -0.63007549892E+02 -0.11083921891E+04  0.11172366814E+04  0.12500000000E+03 0.  0.
</event>
<event>
 5    0  0.5735425E-005  0.2782462E+03  0.7546771E-02  0.1096651E+00
         21   -1    0    0  502  501  0.00000000000E+00  0.00000000000E+00  0.47045822678E+03  0.47045822678E+03  0.00000000000E+00 0. -1.
         21   -1    0    0  501  502 -0.00000000000E+00 -0.00000000000E+00 -0.16456491926E+03  0.16456491926E+03  0.00000000000E+00 0. -1.
         25    1    1    2    0    0  0.54716938051E+02  0.19591829116E+02  0.73496230373E+02  0.15621932965E+03  0.12500000000E+03 0.  0.
         25    1    1    2    0    0 -0.20010605688E+02  0.11790591889E+03 -0.77642464308E+01  0.17316903179E+03  0.12500000000E+03 0.  0.
         25    1    1    2    0    0 -0.34706332362E+02 -0.13749774801E+03  0.24016132358E+03  0.30563478460E+03  0.12500000000E+03 0.  0.
</event>
<event>
 5    0  0.5735425E-005  0.2758306E+03  0.7546771E-02  0.1097988E+00
         21   -1    0    0  502  501  0.00000000000E+00  0.00000000000E+00  0.26358715608E+03  0.26358715608E+03  0.00000000000E+00 0. -1.
         21   -1    0    0  501  502 -0.00000000000E+00 -0.00000000000E+00 -0.28864274397E+03  0.28864274397E+03  0.00000000000E+00 0. -1.
         25    1    1    2    0    0 -0.14273458290E+02 -0.50243613639E+02  0.12691243510E+02  0.13606696875E+03  0.12500000000E+03 0.  0.
         25    1    1    2    0    0 -0.29679561991E+02  0.18388962476E+03 -0.40474298294E+02  0.22794613249E+03  0.12500000000E+03 0.  0.
         25    1    1    2    0    0  0.43953020281E+02 -0.13364601112E+03  0.27274668903E+01  0.18821679882E+03  0.12500000000E+03 0.  0.
</event>
<event>
 5    0  0.5735425E-005  0.3488174E+03  0.7546771E-02  0.1063101E+00
         21   -1    0    0  502  501  0.00000000000E+00  0.00000000000E+00  0.77206582603E+03  0.77206582603E+03  0.00000000000E+00 0. -1.
         21   -1    0    0  501  502 -0.00000000000E+00 -0.00000000000E+00 -0.15759479296E+03  0.15759479296E+03  0.00000000000E+00 0. -1.
         25    1    1    2    0    0  0.34231911969E+02 -0.54097436220E+02 -0.58809725529E+02  0.15225616644E+03  0.12500000000E+03 0.  0.
         25    1    1    2    0    0  0.72426089158E+02  0.53641357387E+02  0.10660018724E+03  0.18738071815E+03  0.12500000000E+03 0.  0.
         25    1    1    2    0    0 -0.10665800113E+03  0.45607883309E+00  0.56668057136E+03  0.59002373441E+03  0.12500000000E+03 0.  0.
</event>
<event>
 5    0  0.5735425E-005  0.2929040E+03  0.7546771E-02  0.1088843E+00
         21   -1    0    0  502  501  0.00000000000E+00  0.00000000000E+00  0.10912534261E+03  0.10912534261E+03  0.00000000000E+00 0. -1.
         21   -1    0    0  501  502 -0.00000000000E+00 -0.00000000000E+00 -0.78618525931E+03  0.78618525931E+03  0.00000000000E+00 0. -1.
         25    1    1    2    0    0  0.18123917777E+02 -0.13951291843E+03 -0.14858088933E+03  0.23977825481E+03  0.12500000000E+03 0.  0.
         25    1    1    2    0    0  0.79241260365E+02 -0.29588700873E+02 -0.15764008211E+03  0.21824313059E+03  0.12500000000E+03 0.  0.
         25    1    1    2    0    0 -0.97365178142E+02  0.16910161930E+03 -0.37083894526E+03  0.43728921652E+03  0.12500000000E+03 0.  0.
</event>
<event>
 5    0  0.5735425E-005  0.2231514E+03  0.7546771E-02  0.1131555E+00
         21   -1    0    0  502  501  0.00000000000E+00  0.00000000000E+00  0.71982401568E+03  0.71982401568E+03  0.00000000000E+00 0.  1.
         21   -1    0    0  501  502 -0.00000000000E+00 -0.00000000000E+00 -0.69178759611E+02  0.69178759611E+02  0.00000000000E+00 0.  1.
         25    1    1    2    0    0  0.30075528401E+02 -0.46575213196E+01  0.10634732260E+03  0.16691609550E+03  0.12500000000E+03 0.  0.
         25    1    1    2    0    0  0.22652671524E+01  0.35077129735E+02  0.11739354724E+03  0.17504794029E+03  0.12500000000E+03 0.  0.
         25    1    1    2    0    0 -0.32340795553E+02 -0.30419608415E+02  0.42690438623E+03  0.44703873950E+03  0.12500000000E+03 0.  0.
</event>
<event>
 5    0  0.5735425E-005  0.2830538E+03  0.7546771E-02  0.1094033E+00
         21   -1    0    0  502  501  0.00000000000E+00  0.00000000000E+00  0.18698513898E+03  0.18698513898E+03  0.00000000000E+00 0.  1.
         21   -1    0    0  501  502 -0.00000000000E+00 -0.00000000000E+00 -0.42848021737E+03  0.42848021737E+03  0.00000000000E+00 0.  1.
         25    1    1    2    0    0  0.64682449829E+02  0.17088163064E+03 -0.68879566681E+02  0.23184854046E+03  0.12500000000E+03 0.  0.
         25    1    1    2    0    0 -0.38825566796E+02 -0.17047929906E+03 -0.10700924000E+03  0.24009705015E+03  0.12500000000E+03 0.  0.
         25    1    1    2    0    0 -0.25856883033E+02 -0.40233158215E+00 -0.65606271705E+02  0.14351976574E+03  0.12500000000E+03 0.  0.
</event>
<event>
 5    0  0.5735425E-005  0.3266427E+03  0.7546771E-02  0.1072632E+00
         21   -1    0    0  502  501  0.00000000000E+00  0.00000000000E+00  0.33336302344E+03  0.33336302344E+03  0.00000000000E+00 0. -1.
         21   -1    0    0  501  502 -0.00000000000E+00 -0.00000000000E+00 -0.32005786118E+03  0.32005786118E+03  0.00000000000E+00 0. -1.
         25    1    1    2    0    0 -0.45705614607E+02  0.18639314041E+03  0.91291106996E+02  0.24655723923E+03  0.12500000000E+03 0.  0.
         25    1    1    2    0    0 -0.21370562073E+02 -0.21874948716E+03 -0.63076383711E+02  0.26059867467E+03  0.12500000000E+03 0.  0.
         25    1    1    2    0    0  0.67076176680E+02  0.32356346749E+02 -0.14909561024E+02  0.14626497073E+03  0.12500000000E+03 0.  0.
</event>
<event>
 5    0  0.5735425E-005  0.3151418E+03  0.7546771E-02  0.1077907E+00
         21   -1    0    0  502  501  0.00000000000E+00  0.00000000000E+00  0.22295268760E+04  0.22295268760E+04  0.00000000000E+00 0.  1.
         21   -1    0    0  501  502 -0.00000000000E+00 -0.00000000000E+00 -0.44545042846E+02  0.44545042846E+02  0.00000000000E+00 0.  1.
         25    1    1    2    0    0  0.42836040657E+02  0.12425894008E+03  0.11270854666E+04  0.11415874297E+04  0.12500000000E+03 0.  0.
         25    1    1    2    0    0  0.92504522599E+02  0.34887716229E+02  0.46490645182E+03  0.49146439178E+03  0.12500000000E+03 0.  0.
         25    1    1    2    0    0 -0.13534056326E+03 -0.15914665631E+03  0.59298991468E+03  0.64102009734E+03  0.12500000000E+03 0.  0.
</event>
<event>
 5    0  0.5735425E-005  0.2798600E+03  0.7546771E-02  0.1095765E+00
         21   -1    0    0  502  501  0.00000000000E+00  0.00000000000E+00  0.15225612187E+03  0.15225612187E+03  0.00000000000E+00 0.  1.
         21   -1    0    0  501  502 -0.00000000000E+00 -0.00000000000E+00 -0.51440698031E+03  0.51440698031E+03  0.00000000000E+00 0.  1.
         25    1    1    2    0    0  0.55048183855E+02  0.21409933033E+02 -0.23657854133E+03  0.27401294494E+03  0.12500000000E+03 0.  0.
         25    1    1    2    0    0  0.59282440779E+02 -0.60104543093E+02  0.36329367505E+02  0.15515085185E+03  0.12500000000E+03 0.  0.
         25    1    1    2    0    0 -0.11433062463E+03  0.38694610060E+02 -0.16190168462E+03  0.23749930539E+03  0.12500000000E+03 0.  0.
</event>
<event>
 5    0  0.5735425E-005  0.2609658E+03  0.7546771E-02  0.1106564E+00
         21   -1    0    0  502  501  0.00000000000E+00  0.00000000000E+00  0.16011383598E+03  0.16011383598E+03  0.00000000000E+00 0.  1.
         21   -1    0    0  501  502 -0.00000000000E+00 -0.00000000000E+00 -0.42534199522E+03  0.42534199522E+03  0.00000000000E+00 0.  1.
         25    1    1    2    0    0  0.10319222046E+02  0.12872323741E+03 -0.69830387435E+02  0.19281452539E+03  0.12500000000E+03 0.  0.
         25    1    1    2    0    0 -0.32598099554E+02 -0.12503781400E+03 -0.19552691388E+03  0.26561789299E+03  0.12500000000E+03 0.  0.
         25    1    1    2    0    0  0.22278877508E+02 -0.36854234111E+01  0.12914207946E+00  0.12702341283E+03  0.12500000000E+03 0.  0.
</event>
<event>
 5    0  0.5735425E-005  0.3188360E+03  0.7546771E-02  0.1076186E+00
         21   -1    0    0  502  501  0.00000000000E+00  0.00000000000E+00  0.12426063824E+03  0.12426063824E+03  0.00000000000E+00 0.  1.
         21   -1    0    0  501  502 -0.00000000000E+00 -0.00000000000E+00 -0.81808999585E+03  0.81808999585E+03  0.00000000000E+00 0.  1.
         25    1    1    2    0    0 -0.30537277424E+02 -0.11022337951E+03 -0.25815042782E+03  0.30878530096E+03  0.12500000000E+03 0.  0.
         25    1    1    2    0    0  0.12536757579E+03  0.44871408291E+02 -0.19080550668E+02  0.18362880971E+03  0.12500000000E+03 0.  0.
         25    1    1    2    0    0 -0.94830298368E+02  0.65351971217E+02 -0.41659837912E+03  0.44993652343E+03  0.12500000000E+03 0.  0.
</event>
<event>
 5    0  0.5735425E-005  0.2264803E+03  0.7546771E-02  0.1129142E+00
         21   -1    0    0  502  501  0.00000000000E+00  0.00000000000E+00  0.17387745723E+03  0.17387745723E+03  0.00000000000E+00 0. -1.
         21   -1    0    0  501  502 -0.00000000000E+00 -0.00000000000E+00 -0.29499706035E+03  0.29499706035E+03  0.00000000000E+00 0. -1.
         25    1    1    2    0    0  0.85565758559E+01 -0.17741422428E+02 -0.30433103130E+02  0.13015047763E+03  0.12500000000E+03 0.  0.
         25    1    1    2    0    0  0.39789028228E+02  0.75549321933E+02 -0.11583565418E+03  0.19061417993E+03  0.12500000000E+03 0.  0.
         25    1    1    2    0    0 -0.48345604084E+02 -0.57807899505E+02  0.25149154188E+02  0.14810986002E+03  0.12500000000E+03 0.  0.
</event>
<event>
 5    0  0.5735425E-005  0.2501876E+03  0.7546771E-02  0.1113186E+00
         21   -1    0    0  502  501  0.00000000000E+00  0.00000000000E+00  0.40573582708E+02  0.40573582708E+02  0.00000000000E+00 0. -1.
         21   -1    0    0  501  502 -0.00000000000E+00 -0.00000000000E+00 -0.15427241942E+04  0.15427241942E+04  0.00000000000E+00 0. -1.
         25    1    1    2    0    0  0.34980530673E+02  0.39029848154E+02 -0.20790006813E+03  0.24818220102E+03  0.12500000000E+03 0.  0.
         25    1    1    2    0    0 -0.72726544284E+02 -0.93677526749E+02 -0.51351942110E+03  0.54165655642E+03  0.12500000000E+03 0.  0.
         25    1    1    2    0    0  0.37746013611E+02  0.54647678595E+02 -0.78073112224E+03  0.79345901945E+03  0.12500000000E+03 0.  0.
</event>
<event>
 5    0  0.5735425E-005  0.2775917E+03  0.7546771E-02  0.1097012E+00
         21   -1    0    0  502  501  0.00000000000E+00  0.00000000000E+00  0.24622083024E+03  0.24622083024E+03  0.00000000000E+00 0.  1.
         21   -1    0    0  501  502 -0.00000000000E+00 -0.00000000000E+00 -0.31295941881E+03  0.31295941881E+03  0.00000000000E+00 0.  1.
         25    1    1    2    0    0  0.10183247325E+03  0.80184031223E+02 -0.84478599079E+02  0.19889938455E+03  0.12500000000E+03 0.  0.
         25    1    1    2    0    0 -0.12364918685E+03  0.44674631066E+02  0.17593568846E+02  0.18226211272E+03  0.12500000000E+03 0.  0.
         25    1    1    2    0    0  0.21816713604E+02 -0.12485866229E+03  0.14644165516E+00  0.17801875178E+03  0.12500000000E+03 0.  0.
</event>
<event>
 5    0  0.5735425E-005  0.4077660E+03  0.7546771E-02  0.1041123E+00
         21   -1    0    0  502  501  0.00000000000E+00  0.00000000000E+00  0.32505116198E+03  0.32505116198E+03  0.00000000000E+00 0.  1.
         21   -1    0    0  501  502 -0.00000000000E+00 -0.00000000000E+00 -0.51152893394E+03  0.51152893394E+03  0.00000000000E+00 0.  1.
         25    1    1    2    0    0  0.28811578105E+03  0.13254926854E+03 -0.55434015931E+02  0.34536638806E+03  0.12500000000E+03 0.  0.
         25    1    1    2    0    0 -0.40256858061E+02 -0.14485739929E+03 -0.51871568698E+02  0.20228677759E+03  0.12500000000E+03 0.  0.
         25    1    1    2    0    0 -0.24785892299E+03  0.12308130743E+02 -0.79172187338E+02  0.28892693027E+03  0.12500000000E+03 0.  0.
</event>
<event>
 5    0  0.7725905E-005  0.3494589E+03  0.7546771E-02  0.1062837E+00
         21   -1    0    0  502  501  0.00000000000E+00  0.00000000000E+00  0.10890678165E+04  0.10890678165E+04  0.00000000000E+00 0.  1.
         21   -1    0    0  501  502 -0.00000000000E+00 -0.00000000000E+00 -0.11213400347E+03  0.11213400347E+03  0.00000000000E+00 0.  1.
         25    1    1    2    0    0 -0.86649466743E+02  0.24370667920E+03  0.35414836939E+03  0.45601221816E+03  0.12500000000E+03 0.  0.
         25    1    1    2    0    0  0.34432475517E+02 -0.11883086921E+03  0.48269069895E+03  0.51373308410E+03  0.12500000000E+03 0.  0.
         25    1    1    2    0    0  0.52216991227E+02 -0.12487580999E+03  0.14009474467E+03  0.23145651768E+03  0.12500000000E+03 0.  0.
</event>
<event>
 5    0  0.5735425E-005  0.2809146E+03  0.7546771E-02  0.1095190E+00
         21   -1    0    0  502  501  0.00000000000E+00  0.00000000000E+00  0.51475111851E+03  0.51475111851E+03  0.00000000000E+00 0. -1.
         21   -1    0    0  501  502 -0.00000000000E+00 -0.00000000000E+00 -0.15330318278E+03  0.15330318278E+03  0.00000000000E+00 0. -1.
         25    1    1    2    0    0 -0.21892327328E+02  0.47426398905E+02  0.25167669843E+02  0.13779313812E+03  0.12500000000E+03 0.  0.
         25    1    1    2    0    0 -0.10860832189E+03  0.21605350597E+02  0.28469149275E+03  0.33005576015E+03  0.12500000000E+03 0.  0.
         25    1    1    2    0    0  0.13050064922E+03 -0.69031749502E+02  0.51588773135E+02  0.20020540302E+03  0.12500000000E+03 0.  0.
</event>
<event>
 5    0  0.5735425E-005  0.2832122E+03  0.7546771E-02  0.1093947E+00
         21   -1    0    0  502  501  0.00000000000E+00  0.00000000000E+00  0.46726392119E+03  0.46726392119E+03  0.00000000000E+00 0. -1.
         21   -1    0    0  501  502 -0.00000000000E+00 -0.00000000000E+00 -0.17165703300E+03  0.17165703300E+03  0.00000000000E+00 0. -1.
         25    1    1    2    0    0  0.12450873328E+03  0.80989014794E+02  0.14241462631E+03  0.24076663175E+03  0.12500000000E+03 0.  0.
         25    1    1    2    0    0 -0.85662871273E+02  0.44209302007E+02 -0.46166144869E+01  0.15792055923E+03  0.12500000000E+03 0.  0.
         25    1    1    2    0    0 -0.38845862003E+02 -0.12519831680E+03  0.15780887637E+03  0.24023376321E+03  0.12500000000E+03 0.  0.
</event>
<event>
 5    0  0.5735425E-005  0.2223092E+03  0.7546771E-02  0.1132173E+00
         21   -1    0    0  502  501  0.00000000000E+00  0.00000000000E+00  0.24259335318E+03  0.24259335318E+03  0.00000000000E+00 0.  1.
         21   -1    0    0  501  502 -0.00000000000E+00 -0.00000000000E+00 -0.20372115628E+03  0.20372115628E+03  0.00000000000E+00 0.  1.
         25    1    1    2    0    0  0.94052366533E+01  0.18501490798E+02  0.40347745115E+02  0.13298008939E+03  0.12500000000E+03 0.  0.
         25    1    1    2    0    0  0.43720616564E+02 -0.78560483962E+01  0.79687907670E+02  0.15475261690E+03  0.12500000000E+03 0.  0.
         25    1    1    2    0    0 -0.53125853218E+02 -0.10645442402E+02 -0.81163455882E+02  0.15858180316E+03  0.12500000000E+03 0.  0.
</event>
<event>
 5    0  0.5735425E-005  0.5986831E+03  0.7546771E-02  0.9908142E-01
         21   -1    0    0  502  501  0.00000000000E+00  0.00000000000E+00  0.13700007486E+04  0.13700007486E+04  0.00000000000E+00 0. -1.
         21   -1    0    0  501  502 -0.00000000000E+00 -0.00000000000E+00 -0.26162138364E+03  0.26162138364E+03  0.00000000000E+00 0. -1.
         25    1    1    2    0    0  0.24252675366E+03 -0.22463619991E+03 -0.42609732154E+02  0.35597926601E+03  0.12500000000E+03 0.  0.
         25    1    1    2    0    0 -0.21209439165E+03 -0.86923610556E+01  0.78632109376E+03  0.82400573457E+03  0.12500000000E+03 0.  0.
         25    1    1    2    0    0 -0.30432362013E+02  0.23332856097E+03  0.36466800334E+03  0.45163713164E+03  0.12500000000E+03 0.  0.
</event>
<event>
 5    0  0.5735425E-005  0.3428264E+03  0.7546771E-02  0.1065598E+00
         21   -1    0    0  502  501  0.00000000000E+00  0.00000000000E+00  0.50568809819E+03  0.50568809819E+03  0.00000000000E+00 0. -1.
         21   -1    0    0  501  502 -0.00000000000E+00 -0.00000000000E+00 -0.23241587458E+03  0.23241587458E+03  0.00000000000E+00 0. -1.
         25    1    1    2    0    0  0.19897635007E+03 -0.15465560411E+03  0.90679540221E+02  0.29556339893E+03  0.12500000000E+03 0.  0.
         25    1    1    2    0    0 -0.11385409672E+03  0.18209377865E+03  0.98126551048E+02  0.26716047534E+03  0.12500000000E+03 0.  0.
         25    1    1    2    0    0 -0.85122253351E+02 -0.27438174540E+02  0.84466132342E+02  0.17538009850E+03  0.12500000000E+03 0.  0.
</event>
<event>
 5    0  0.5735425E-005  0.2518216E+03  0.7546771E-02  0.1112159E+00
         21   -1    0    0  502  501  0.00000000000E+00  0.00000000000E+00  0.15647713255E+03  0.15647713255E+03  0.00000000000E+00 0. -1.
         21   -1    0    0  501  502 -0.00000000000E+00 -0.00000000000E+00 -0.40526127440E+03  0.40526127440E+03  0.00000000000E+00 0. -1.
         25    1    1    2    0    0 -0.69264876622E+02 -0.72175023075E+02 -0.65433754894E+02  0.17295500389E+03  0.12500000000E+03 0.  0.
         25    1    1    2    0    0  0.69956335432E+02 -0.53378158982E+02 -0.13790426075E+03  0.20587788093E+03  0.12500000000E+03 0.  0.
         25    1    1    2    0    0 -0.69145881019E+00  0.12555318206E+03 -0.45446126202E+02  0.18290552213E+03  0.12500000000E+03 0.  0.
</event>
<event>
 5    0  0.5735425E-005  0.3076719E+03  0.7546771E-02  0.1081467E+00
         21   -1    0    0  502  501  0.00000000000E+00  0.00000000000E+00  0.66679746509E+03  0.66679746509E+03  0.00000000000E+00 0.  1.
         21   -1    0    0  501  502 -0.00000000000E+00 -0.00000000000E+00 -0.14196510395E+03  0.14196510395E+03  0.00000000000E+00 0.  1.
         25    1    1    2    0    0  0.75684540446E+02  0.16014853075E+03  0.21805430256E+03  0.30748720368E+03  0.12500000000E+03 0.  0.
         25    1    1    2    0    0  0.50808924968E+02 -0.17152856303E+03  0.16899892345E+03  0.27602396801E+03  0.12500000000E+03 0.  0.
         25    1    1    2    0    0 -0.12649346541E+03  0.11380032271E+02  0.13777913514E+03  0.22525139735E+03  0.12500000000E+03 0.  0.
</event>
<event>
 5    0  0.5735425E-005  0.4128970E+03  0.7546771E-02  0.1039403E+00
         21   -1    0    0  502  501  0.00000000000E+00  0.00000000000E+00  0.20307791520E+04  0.20307791520E+04  0.00000000000E+00 0.  1.
         21   -1    0    0  501  502 -0.00000000000E+00 -0.00000000000E+00 -0.83950005130E+02  0.83950005130E+02  0.00000000000E+00 0.  1.
         25    1    1    2    0    0 -0.11052334613E+03 -0.25317284798E+03  0.35770563518E+03  0.46892453810E+03  0.12500000000E+03 0.  0.
         25    1    1    2    0    0  0.48661428754E+01  0.11763665981E+02  0.66437531398E+03  0.67615206944E+03  0.12500000000E+03 0.  0.
         25    1    1    2    0    0  0.10565720326E+03  0.24140918200E+03  0.92474819773E+03  0.96965254961E+03  0.12500000000E+03 0.  0.
</event>
<event>
 5    0  0.5735425E-005  0.2386737E+03  0.7546771E-02  0.1120680E+00
         21   -1    0    0  502  501  0.00000000000E+00  0.00000000000E+00  0.16476666956E+03  0.16476666956E+03  0.00000000000E+00 0.  1.
         21   -1    0    0  501  502 -0.00000000000E+00 -0.00000000000E+00 -0.34573216145E+03  0.34573216145E+03  0.00000000000E+00 0.  1.
         25    1    1    2    0    0  0.47976321627E+02 -0.10761907604E+03 -0.55649342846E+02  0.18056977135E+03  0.12500000000E+03 0.  0.
         25    1    1    2    0    0  0.34000431696E+02  0.18147517283E+02 -0.48095283909E+02  0.13936828216E+03  0.12500000000E+03 0.  0.
         25    1    1    2    0    0 -0.81976753322E+02  0.89471558757E+02 -0.77220865135E+02  0.19056077751E+03  0.12500000000E+03 0.  0.
</event>
<event>
 5    0  0.5735425E-005  0.4210183E+03  0.7546771E-02  0.1036735E+00
         21   -1    0    0  502  501  0.00000000000E+00  0.00000000000E+00  0.29741557725E+03  0.29741557725E+03  0.00000000000E+00 0. -1.
         21   -1    0    0  501  502 -0.00000000000E+00 -0.00000000000E+00 -0.59598911422E+03  0.59598911422E+03  0.00000000000E+00 0. -1.
         25    1    1    2    0    0 -0.38318855799E+01 -0.80861632820E+02 -0.28113511854E+03  0.31814342974E+03  0.12500000000E+03 0.  0.
         25    1    1    2    0    0 -0.16746213255E+03 -0.67216931810E+02  0.15115742124E+03  0.26652438492E+03  0.12500000000E+03 0.  0.
         25    1    1    2    0    0  0.17129401813E+03  0.14807856463E+03 -0.16859583968E+03  0.30873687681E+03  0.12500000000E+03 0.  0.
</event>
<event>
 5    0  0.5735425E-005  0.2717928E+03  0.7546771E-02  0.1100258E+00
         21   -1    0    0  502  501  0.00000000000E+00  0.00000000000E+00  0.11125896531E+03  0.11125896531E+03  0.00000000000E+00 0.  1.
         21   -1    0    0  501  502 -0.00000000000E+00 -0.00000000000E+00 -0.66395862509E+03  0.66395862509E+03  0.00000000000E+00 0.  1.
         25    1    1    2    0    0 -0.28102970083E+01 -0.12821150198E+03 -0.59516253747E+02  0.18871478868E+03  0.12500000000E+03 0.  0.
         25    1    1    2    0    0 -0.91004732216E+01  0.70551232152E+01 -0.11602030323E+03  0.17093362495E+03  0.12500000000E+03 0.  0.
         25    1    1    2    0    0  0.11910770230E+02  0.12115637876E+03 -0.37716310281E+03  0.41556917677E+03  0.12500000000E+03 0.  0.
</event>
<event>
 5    0  0.5735425E-005  0.2889474E+03  0.7546771E-02  0.1090900E+00
         21   -1    0    0  502  501  0.00000000000E+00  0.00000000000E+00  0.11035507598E+04  0.11035507598E+04  0.00000000000E+00 0. -1.
         21   -1    0    0  501  502 -0.00000000000E+00 -0.00000000000E+00 -0.75656338890E+02  0.75656338890E+02  0.00000000000E+00 0. -1.
         25    1    1    2    0    0 -0.15963740465E+03  0.40840394194E+02  0.21117989496E+03  0.29559091123E+03  0.12500000000E+03 0.  0.
         25    1    1    2    0    0  0.13844964159E+03  0.10799693570E+02  0.34385379393E+03  0.39133792078E+03  0.12500000000E+03 0.  0.
         25    1    1    2    0    0  0.21187763062E+02 -0.51640087764E+02  0.47286073198E+03  0.49227826665E+03  0.12500000000E+03 0.  0.
</event>
<event>
 5    0  0.5735425E-005  0.2334225E+03  0.7546771E-02  0.1124254E+00
         21   -1    0    0  502  501  0.00000000000E+00  0.00000000000E+00  0.37614246565E+03  0.37614246565E+03  0.00000000000E+00 0.  1.
         21   -1    0    0  501  502 -0.00000000000E+00 -0.00000000000E+00 -0.14485486780E+03  0.14485486780E+03  0.00000000000E+00 0.  1.
         25    1    1    2    0    0  0.72885645394E+02 -0.29646365875E+02 -0.15400074892E+01  0.14771119097E+03  0.12500000000E+03 0.  0.
         25    1    1    2    0    0  0.17471625504E+01  0.11049805559E+02  0.17541938183E+03  0.21568984747E+03  0.12500000000E+03 0.  0.
         25    1    1    2    0    0 -0.74632807944E+02  0.18596560316E+02  0.57408223509E+02  0.15759629502E+03  0.12500000000E+03 0.  0.
</event>
<event>
 5    0  0.5735425E-005  0.4690783E+03  0.7546771E-02  0.1022181E+00
         21   -1    0    0  502  501  0.00000000000E+00  0.00000000000E+00  0.14705102404E+04  0.14705102404E+04  0.00000000000E+00 0. -1.
         21   -1    0    0  501  502 -0.00000000000E+00 -0.00000000000E+00 -0.14963138359E+03  0.14963138359E+03  0.00000000000E+00 0. -1.
         25    1    1    2    0    0 -0.11435186105E+03  0.25753107540E+03  0.32834653258E+03  0.45037212211E+03  0.12500000000E+03 0.  0.
         25    1    1    2    0    0  0.19074414691E+03  0.40176495770E+02  0.66240994812E+03  0.70171890367E+03  0.12500000000E+03 0.  0.
         25    1    1    2    0    0 -0.76392285862E+02 -0.29770757117E+03  0.33012237612E+03  0.46805059822E+03  0.12500000000E+03 0.  0.
</event>
<event>
 5    0  0.5735425E-005  0.2614036E+03  0.7546771E-02  0.1106303E+00
         21   -1    0    0  502  501  0.00000000000E+00  0.00000000000E+00  0.55180813052E+03  0.55180813052E+03  0.00000000000E+00 0. -1.
         21   -1    0    0  501  502 -0.00000000000E+00 -0.00000000000E+00 -0.12383260722E+03  0.12383260722E+03  0.00000000000E+00 0. -1.
         25    1    1    2    0    0  0.47173523053E+02  0.76962322217E+02 -0.75386375701E+00  0.15418854895E+03  0.12500000000E+03 0.  0.
         25    1    1    2    0    0  0.16253039251E+02  0.95223278756E+01  0.23769554120E+03  0.26921925325E+03  0.12500000000E+03 0.  0.
         25    1    1    2    0    0 -0.63426562304E+02 -0.86484650092E+02  0.19103384585E+03  0.25223293554E+03  0.12500000000E+03 0.  0.
</event>
<event>
 5    0  0.5735425E-005  0.4364518E+03  0.7546771E-02  0.1031841E+00
         21   -1    0    0  502  501  0.00000000000E+00  0.00000000000E+00  0.54586359749E+03  0.54586359749E+03  0.00000000000E+00 0. -1.
         21   -1    0    0  501  502 -0.00000000000E+00 -0.00000000000E+00 -0.34897033518E+03  0.34897033518E+03  0.00000000000E+00 0. -1.
         25    1    1    2    0    0  0.71786709479E+02 -0.16968718131E+03  0.35265285204E+03  0.41705647724E+03  0.12500000000E+03 0.  0.
         25    1    1    2    0    0  0.41493366664E+02  0.21692375628E+02 -0.20820670467E+03  0.24732021856E+03  0.12500000000E+03 0.  0.
         25    1    1    2    0    0 -0.11328007614E+03  0.14799480569E+03  0.52447114944E+02  0.23045723687E+03  0.12500000000E+03 0.  0.
</event>
<event>
 5    0  0.5735425E-005  0.2843265E+03  0.7546771E-02  0.1093349E+00
         21   -1    0    0  502  501  0.00000000000E+00  0.00000000000E+00  0.17201574096E+03  0.17201574096E+03  0.00000000000E+00 0.  1.
         21   -1    0    0  501  502 -0.00000000000E+00 -0.00000000000E+00 -0.46996599144E+03  0.46996599144E+03  0.00000000000E+00 0.  1.
         25    1    1    2    0    0 -0.43035690832E+01  0.77314419800E+00  0.11579558856E+02  0.12561132370E+03  0.12500000000E+03 0.  0.
         25    1    1    2    0    0  0.81439908374E+02 -0.93540253219E+02 -0.18004663222E+02  0.17700679520E+03  0.12500000000E+03 0.  0.
         25    1    1    2    0    0 -0.77136339291E+02  0.92767109021E+02 -0.29152514611E+03  0.33936361351E+03  0.12500000000E+03 0.  0.
</event>
<event>
 5    0  0.5735425E-005  0.2386269E+03  0.7546771E-02  0.1120711E+00
         21   -1    0    0  502  501  0.00000000000E+00  0.00000000000E+00  0.15099850919E+03  0.15099850919E+03  0.00000000000E+00 0. -1.
         21   -1    0    0  501  502 -0.00000000000E+00 -0.00000000000E+00 -0.37710830287E+03  0.37710830287E+03  0.00000000000E+00 0. -1.
         25    1    1    2    0    0 -0.29914956816E+02 -0.39944153140E+02 -0.23017158973E+03  0.26663533287E+03  0.12500000000E+03 0.  0.
         25    1    1    2    0    0  0.34032947319E+02  0.35433848134E+02  0.18160109025E+02  0.13553076646E+03  0.12500000000E+03 0.  0.
         25    1    1    2    0    0 -0.41179905032E+01  0.45103050061E+01 -0.14098312973E+02  0.12594071274E+03  0.12500000000E+03 0.  0.
</event>
<event>
 5    0  0.6194013E-005  0.3394354E+03  0.7546771E-02  0.1067037E+00
         21   -1    0    0  502  501  0.00000000000E+00  0.00000000000E+00  0.24828834683E+03  0.24828834683E+03  0.00000000000E+00 0.  1.
         21   -1    0    0  501  502 -0.00000000000E+00 -0.00000000000E+00 -0.46404268156E+03  0.46404268156E+03  0.00000000000E+00 0.  1.
         25    1    1    2    0    0  0.11818640259E+03  0.72193620955E+02 -0.19242496426E+03  0.26801550614E+03  0.12500000000E+03 0.  0.
         25    1    1    2    0    0 -0.21021468786E+03  0.36564395004E+02 -0.51800107870E+02  0.25265672591E+03  0.12500000000E+03 0.  0.
         25    1    1    2    0    0  0.92028285266E+02 -0.10875801596E+03  0.28470737398E+02  0.19165879633E+03  0.12500000000E+03 0.  0.
</event>
<event>
 5    0  0.5735425E-005  0.3324456E+03  0.7546771E-02  0.1070060E+00
         21   -1    0    0  502  501  0.00000000000E+00  0.00000000000E+00  0.34950642248E+03  0.34950642248E+03  0.00000000000E+00 0. -1.
         21   -1    0    0  501  502 -0.00000000000E+00 -0.00000000000E+00 -0.31621766637E+03  0.31621766637E+03  0.00000000000E+00 0. -1.
         25    1    1    2    0    0  0.35489007715E+02  0.10080353283E+03  0.95654507879E+02  0.19025143042E+03  0.12500000000E+03 0.  0.
         25    1    1    2    0    0 -0.83907493584E+01 -0.24695590385E+03 -0.44002539145E+02  0.28039052511E+03  0.12500000000E+03 0.  0.
         25    1    1    2    0    0 -0.27098258357E+02  0.14615237103E+03 -0.18363212619E+02  0.19508213332E+03  0.12500000000E+03 0.  0.
</event>
<event>
 5    0  0.5735425E-005  0.3308603E+03  0.7546771E-02  0.1070757E+00
         21   -1    0    0  502  501  0.00000000000E+00  0.00000000000E+00  0.71627599584E+03  0.71627599584E+03  0.00000000000E+00 0. -1.
         21   -1    0    0  501  502 -0.00000000000E+00 -0.00000000000E+00 -0.15283013004E+03  0.15283013004E+03  0.00000000000E+00 0. -1.
         25    1    1    2    0    0  0.10832002145E+03 -0.11501600945E+03  0.13042689580E+02  0.20188368242E+03  0.12500000000E+03 0.  0.
         25    1    1    2    0    0 -0.15294103954E+03 -0.31502315976E+01  0.32296041439E+03  0.37858858250E+03  0.12500000000E+03 0.  0.
         25    1    1    2    0    0  0.44621018090E+02  0.11816624105E+03  0.22744276183E+03  0.28863386095E+03  0.12500000000E+03 0.  0.
</event>
<event>
 5    0  0.5735425E-005  0.2320117E+03  0.7546771E-02  0.1125232E+00
         21   -1    0    0  502  501  0.00000000000E+00  0.00000000000E+00  0.18050170416E+03  0.18050170416E+03  0.00000000000E+00 0. -1.
         21   -1    0    0  501  502 -0.00000000000E+00 -0.00000000000E+00 -0.29822125551E+03  0.29822125551E+03  0.00000000000E+00 0. -1.
         25    1    1    2    0    0 -0.28673762731E+00  0.35145712744E+02 -0.86315920938E+01  0.13013380700E+03  0.12500000000E+03 0.  0.
         25    1    1    2    0    0  0.78664558024E+02  0.53695547387E+02 -0.34418519048E+02  0.16087560086E+03  0.12500000000E+03 0.  0.
         25    1    1    2    0    0 -0.78377820397E+02 -0.88841260132E+02 -0.74669440205E+02  0.18771355181E+03  0.12500000000E+03 0.  0.
</event>
<event>
 5    0  0.5735425E-005  0.2370322E+03  0.7546771E-02  0.1121786E+00
         21   -1    0    0  502  501  0.00000000000E+00  0.00000000000E+00  0.45523019293E+03  0.45523019293E+03  0.00000000000E+00 0.  1.
         21   -1    0    0  501  502 -0.00000000000E+00 -0.00000000000E+00 -0.12341949152E+03  0.12341949152E+03  0.00000000000E+00 0.  1.
         25    1    1    2    0    0  0.21692730546E+00  0.36550212483E+02  0.66159257272E+02  0.14607536552E+03  0.12500000000E+03 0.  0.
         25    1    1    2    0    0 -0.21603858608E+02  0.21950709849E+02 -0.41108113888E+01  0.12880395623E+03  0.12500000000E+03 0.  0.
         25    1    1    2    0    0  0.21386931303E+02 -0.58500922331E+02  0.26976225553E+03  0.30377036270E+03  0.12500000000E+03 0.  0.
</event>
<event>
 5    0  0.5735425E-005  0.2676377E+03  0.7546771E-02  0.1102639E+00
         21   -1    0    0  502  501  0.00000000000E+00  0.00000000000E+00  0.14043429592E+04  0.14043429592E+04  0.00000000000E+00 0. -1.
         21   -1    0    0  501  502 -0.00000000000E+00 -0.00000000000E+00 -0.51006008129E+02  0.51006008129E+02  0.00000000000E+00 0. -1.
         25    1    1    2    0    0  0.59897873269E+02 -0.35443661121E+02  0.70444595285E+03  0.71882759326E+03  0.12500000000E+03 0.  0.
         25    1    1    2    0    0  0.11153708034E+02 -0.15737702392E+02  0.52478235814E+03  0.53980885867E+03  0.12500000000E+03 0.  0.
         25    1    1    2    0    0 -0.71051581303E+02  0.51181363513E+02  0.12410864009E+03  0.19671251541E+03  0.12500000000E+03 0.  0.
</event>
<event>
 5    0  0.5735425E-005  0.3293117E+03  0.7546771E-02  0.1071442E+00
         21   -1    0    0  502  501  0.00000000000E+00  0.00000000000E+00  0.28372708458E+03  0.28372708458E+03  0.00000000000E+00 0.  1.
         21   -1    0    0  501  502 -0.00000000000E+00 -0.00000000000E+00 -0.38222000360E+03  0.38222000360E+03  0.00000000000E+00 0.  1.
         25    1    1    2    0    0 -0.89290510679E+02 -0.47244281616E+02  0.20130300855E+02  0.16197236325E+03  0.12500000000E+03 0.  0.
         25    1    1    2    0    0 -0.12173389692E+03 -0.14507638010E+02 -0.17205077005E+03  0.24547114024E+03  0.12500000000E+03 0.  0.
         25    1    1    2    0    0  0.21102440759E+03  0.61751919626E+02  0.53427550172E+02  0.25850358469E+03  0.12500000000E+03 0.  0.
</event>
<event>
 5    0  0.5735425E-005  0.3170716E+03  0.7546771E-02  0.1077005E+00
         21   -1    0    0  502  501  0.00000000000E+00  0.00000000000E+00  0.92601866528E+02  0.92601866528E+02  0.00000000000E+00 0. -1.
         21   -1    0    0  501  502 -0.00000000000E+00 -0.00000000000E+00 -0.10856629017E+04  0.10856629017E+04  0.00000000000E+00 0. -1.
         25    1    1    2    0    0  0.98987668325E+02  0.16108423863E+03 -0.58625626919E+03  0.62854443247E+03  0.12500000000E+03 0.  0.
         25    1    1    2    0    0  0.33265810314E+02 -0.56605369112E+01 -0.16184593563E+03  0.20726254532E+03  0.12500000000E+03 0.  0.
         25    1    1    2    0    0 -0.13225347864E+03 -0.15542370172E+03 -0.24495883037E+03  0.34245779046E+03  0.12500000000E+03 0.  0.
</event>
<event>
 5    0  0.5735425E-005  0.3990433E+03  0.7546771E-02  0.1044111E+00
         21   -1    0    0  502  501  0.00000000000E+00  0.00000000000E+00  0.39064075519E+03  0.39064075519E+03  0.00000000000E+00 0.  1.
         21   -1    0    0  501  502 -0.00000000000E+00 -0.00000000000E+00 -0.40762661841E+03  0.40762661841E+03  0.00000000000E+00 0.  1.
         25    1    1    2    0    0 -0.16296391604E+03 -0.13036574606E+03  0.17453338728E+03  0.29939834494E+03  0.12500000000E+03 0.  0.
         25    1    1    2    0    0  0.21988832821E+03  0.14015767467E+03 -0.21347145494E+03  0.35943026128E+03  0.12500000000E+03 0.  0.
         25    1    1    2    0    0 -0.56924412167E+02 -0.97919286118E+01  0.21952204441E+02  0.13943876737E+03  0.12500000000E+03 0.  0.
</event>
<event>
 5    0  0.5735425E-005  0.2628890E+03  0.7546771E-02  0.1105420E+00
         21   -1    0    0  502  501  0.00000000000E+00  0.00000000000E+00  0.50104457178E+03  0.50104457178E+03  0.00000000000E+00 0.  1.
         21   -1    0    0  501  502 -0.00000000000E+00 -0.00000000000E+00 -0.13793308755E+03  0.13793308755E+03  0.00000000000E+00 0.  1.
         25    1    1    2    0    0  0.10833051505E+03 -0.72620469557E+02  0.90067073176E+02  0.20185715435E+03  0.12500000000E+03 0.  0.
         25    1    1    2    0    0  0.11449252691E+02  0.65958065944E+02  0.41140591436E+02  0.14764518317E+03  0.12500000000E+03 0.  0.
         25    1    1    2    0    0 -0.11977976774E+03  0.66624036123E+01  0.23190381962E+03  0.28947532181E+03  0.12500000000E+03 0.  0.
</event>
<event>
 5    0  0.5735425E-005  0.3763711E+03  0.7546771E-02  0.1052283E+00
         21   -1    0    0  502  501  0.00000000000E+00  0.00000000000E+00  0.57833218643E+03  0.57833218643E+03  0.00000000000E+00 0.  1.
         21   -1    0    0  501  502 -0.00000000000E+00 -0.00000000000E+00 -0.24493748232E+03  0.24493748232E+03  0.00000000000E+00 0.  1.
         25    1    1    2    0    0  0.12911789485E+03 -0.12701407120E+02 -0.12585762089E+03  0.21976782578E+03  0.12500000000E+03 0.  0.
         25    1    1    2    0    0  0.43169362843E+02 -0.67774874972E+02  0.26714712828E+03  0.30569529881E+03  0.12500000000E+03 0.  0.
         25    1    1    2    0    0 -0.17228725769E+03  0.80476282091E+02  0.19210519671E+03  0.29780654416E+03  0.12500000000E+03 0.  0.
</event>
<event>
 5    0  0.5735425E-005  0.3157485E+03  0.7546771E-02  0.1077623E+00
         21   -1    0    0  502  501  0.00000000000E+00  0.00000000000E+00  0.49146642388E+03  0.49146642388E+03  0.00000000000E+00 0.  1.
         21   -1    0    0  501  502 -0.00000000000E+00 -0.00000000000E+00 -0.20285634779E+03  0.20285634779E+03  0.00000000000E+00 0. -1.
         25    1    1    2    0    0  0.41564860090E+02  0.74861200178E+02  0.20936335762E+03  0.25843732780E+03  0.12500000000E+03 0.  0.
         25    1    1    2    0    0  0.13963724528E+03 -0.22808713754E+02  0.90572499268E+02  0.20939717122E+03  0.12500000000E+03 0.  0.
         25    1    1    2    0    0 -0.18120210537E+03 -0.52052486424E+02 -0.11325780795E+02  0.22648827264E+03  0.12500000000E+03 0.  0.
</event>
<event>
 5    0  0.5735425E-005  0.4569825E+03  0.7546771E-02  0.1025660E+00
         21   -1    0    0  502  501  0.00000000000E+00  0.00000000000E+00  0.15583341713E+03  0.15583341713E+03  0.00000000000E+00 0.  1.
         21   -1    0    0  501  502 -0.00000000000E+00 -0.00000000000E+00 -0.13401039480E+04  0.13401039480E+04  0.00000000000E+00 0.  1.
         25    1    1    2    0    0 -0.82554613746E+02 -0.13114149574E+03 -0.15933254108E+03  0.25500042118E+03  0.12500000000E+03 0.  0.
         25    1    1    2    0    0 -0.18427711151E+03 -0.58865301318E+02 -0.98732492081E+02  0.25059186443E+03  0.12500000000E+03 0.  0.
         25    1    1    2    0    0  0.26683172526E+03  0.19000679706E+03 -0.92620549770E+03  0.99034507951E+03  0.12500000000E+03 0.  0.
</event>
<event>
 5    0  0.5735425E-005  0.4435905E+03  0.7546771E-02  0.1029651E+00
         21   -1    0    0  502  501  0.00000000000E+00  0.00000000000E+00  0.37954044696E+03  0.37954044696E+03  0.00000000000E+00 0.  1.
         21   -1    0    0  501  502 -0.00000000000E+00 -0.00000000000E+00 -0.51844947559E+03  0.51844947559E+03  0.00000000000E+00 0.  1.
         25    1    1    2    0    0 -0.29881101447E+03  0.65340978204E+02 -0.10294707192E+03  0.34609329006E+03  0.12500000000E+03 0.  0.
         25    1    1    2    0    0 -0.78497972865E+02 -0.27235785279E+02  0.72263497071E+01  0.15026955738E+03  0.12500000000E+03 0.  0.
         25    1    1    2    0    0  0.37730898734E+03 -0.38105192926E+02 -0.43188306407E+02  0.40162707511E+03  0.12500000000E+03 0.  0.
</event>
<event>
 5    0  0.5735425E-005  0.2733675E+03  0.7546771E-02  0.1099368E+00
         21   -1    0    0  502  501  0.00000000000E+00  0.00000000000E+00  0.48992837289E+03  0.48992837289E+03  0.00000000000E+00 0.  1.
         21   -1    0    0  501  502 -0.00000000000E+00 -0.00000000000E+00 -0.15253206470E+03  0.15253206470E+03  0.00000000000E+00 0.  1.
         25    1    1    2    0    0  0.11880153399E+03 -0.62144540068E+01 -0.21396207717E+02  0.17388278127E+03  0.12500000000E+03 0.  0.
         25    1    1    2    0    0  0.49984524485E-01 -0.25164154151E+01  0.18727897102E+03  0.22517714767E+03  0.12500000000E+03 0.  0.
         25    1    1    2    0    0 -0.11885151852E+03  0.87308694219E+01  0.17151354488E+03  0.24340050865E+03  0.12500000000E+03 0.  0.
</event>
<event>
 5    0  0.5735425E-005  0.3852641E+03  0.7546771E-02  0.1049005E+00
         21   -1    0    0  502  501  0.00000000000E+00  0.00000000000E+00  0.49644574644E+03  0.49644574644E+03  0.00000000000E+00 0.  1.
         21   -1    0    0  501  502 -0.00000000000E+00 -0.00000000000E+00 -0.29898223010E+03  0.29898223010E+03  0.00000000000E+00 0.  1.
         25    1    1    2    0    0 -0.23919964142E+03  0.85453121087E+02  0.66537862252E+02  0.29081092049E+03  0.12500000000E+03 0.  0.
         25    1    1    2    0    0  0.16460052723E+03 -0.13883951643E+03  0.21435561896E+03  0.32854691639E+03  0.12500000000E+03 0.  0.
         25    1    1    2    0    0  0.74599114191E+02  0.53386395343E+02 -0.83429964870E+02  0.17607013967E+03  0.12500000000E+03 0.  0.
</event>
<event>
 5    0  0.5735425E-005  0.2720120E+03  0.7546771E-02  0.1100134E+00
         21   -1    0    0  502  501  0.00000000000E+00  0.00000000000E+00  0.14330805685E+03  0.14330805685E+03  0.00000000000E+00 0. -1.
         21   -1    0    0  501  502 -0.00000000000E+00 -0.00000000000E+00 -0.51630415769E+03  0.51630415769E+03  0.00000000000E+00 0. -1.
         25    1    1    2    0    0  0.79939026194E+02  0.90623733361E+02 -0.16273601113E+03  0.23814054311E+03  0.12500000000E+03 0.  0.
         25    1    1    2    0    0 -0.12260399160E+03 -0.12930017878E+03 -0.17530131958E+03  0.27947419852E+03  0.12500000000E+03 0.  0.
         25    1    1    2    0    0  0.42664965405E+02  0.38676445421E+02 -0.34958770123E+02  0.14199747291E+03  0.12500000000E+03 0.  0.
</event>
<event>
 5    0  0.5905744E-005  0.5949862E+03  0.7546771E-02  0.9915863E-01
         21   -1    0    0  502  501  0.00000000000E+00  0.00000000000E+00  0.97349604764E+03  0.97349604764E+03  0.00000000000E+00 0.  1.
         21   -1    0    0  501  502 -0.00000000000E+00 -0.00000000000E+00 -0.36364671070E+03  0.36364671070E+03  0.00000000000E+00 0.  1.
         25    1    1    2    0    0 -0.31560596551E+03 -0.29830057144E+03  0.22854293687E+03  0.50640619110E+03  0.12500000000E+03 0.  0.
         25    1    1    2    0    0 -0.26650897891E+02  0.26364864366E+03  0.35991979688E+03  0.46409927585E+03  0.12500000000E+03 0.  0.
         25    1    1    2    0    0  0.34225686340E+03  0.34651927783E+02  0.21386603193E+02  0.36663729139E+03  0.12500000000E+03 0.  0.
</event>
<event>
 5    0  0.5735425E-005  0.3672001E+03  0.7546771E-02  0.1055769E+00
         21   -1    0    0  502  501  0.00000000000E+00  0.00000000000E+00  0.23098767879E+03  0.23098767879E+03  0.00000000000E+00 0.  1.
         21   -1    0    0  501  502 -0.00000000000E+00 -0.00000000000E+00 -0.58373623337E+03  0.58373623337E+03  0.00000000000E+00 0.  1.
         25    1    1    2    0    0 -0.73122349549E+02  0.15310826700E+03  0.19059022742E+02  0.21160639351E+03  0.12500000000E+03 0.  0.
         25    1    1    2    0    0  0.16212988079E+03 -0.16518302310E+03 -0.82973209869E+02  0.27582799517E+03  0.12500000000E+03 0.  0.
         25    1    1    2    0    0 -0.89007531238E+02  0.12074756099E+02 -0.28883436746E+03  0.32728952348E+03  0.12500000000E+03 0.  0.
</event>
<event>
 5    0  0.5735425E-005  0.3285354E+03  0.7546771E-02  0.1071787E+00
         21   -1    0    0  502  501  0.00000000000E+00  0.00000000000E+00  0.74370860490E+03  0.74370860490E+03  0.00000000000E+00 0. -1.
         21   -1    0    0  501  502 -0.00000000000E+00 -0.00000000000E+00 -0.14513146228E+03  0.14513146228E+03  0.00000000000E+00 0. -1.
         25    1    1    2    0    0 -0.99172300935E+02  0.50760295159E+02 -0.17232779773E+01  0.16745065698E+03  0.12500000000E+03 0.  0.
         25    1    1    2    0    0  0.11492277236E+03 -0.85486711753E+02  0.54901985490E+03  0.58100174059E+03  0.12500000000E+03 0.  0.
         25    1    1    2    0    0 -0.15750471423E+02  0.34726416595E+02  0.51280565693E+02  0.14038766961E+03  0.12500000000E+03 0.  0.
</event>
<event>
 5    0  0.5735425E-005  0.3131394E+03  0.7546771E-02  0.1078851E+00
         21   -1    0    0  502  501  0.00000000000E+00  0.00000000000E+00  0.34338190816E+02  0.34338190816E+02  0.00000000000E+00 0.  1.
         21   -1    0    0  501  502 -0.00000000000E+00 -0.00000000000E+00 -0.28556035462E+04  0.28556035462E+04  0.00000000000E+00 0.  1.
         25    1    1    2    0    0 -0.11595747620E+03 -0.12570762026E+03 -0.60393986103E+03  0.64001320128E+03  0.12500000000E+03 0.  0.
         25    1    1    2    0    0  0.92312700336E+02 -0.46819358494E+02 -0.77983731648E+03  0.79654562151E+03  0.12500000000E+03 0.  0.
         25    1    1    2    0    0  0.23644775863E+02  0.17252697875E+03 -0.14374881779E+04  0.14533829142E+04  0.12500000000E+03 0.  0.
</event>
<event>
 5    0  0.5735425E-005  0.2972617E+03  0.7546771E-02  0.1086617E+00
         21   -1    0    0  502  501  0.00000000000E+00  0.00000000000E+00  0.70855530269E+03  0.70855530269E+03  0.00000000000E+00 0.  1.
         21   -1    0    0  501  502 -0.00000000000E+00 -0.00000000000E+00 -0.12471086580E+03  0.12471086580E+03  0.00000000000E+00 0.  1.
         25    1    1    2    0    0 -0.91851684068E+02 -0.27353804607E+02  0.27775159026E+03  0.31930535289E+03  0.12500000000E+03 0.  0.
         25    1    1    2    0    0 -0.10607342397E+03  0.14348552000E+02  0.62958559975E+02  0.17619941115E+03  0.12500000000E+03 0.  0.
         25    1    1    2    0    0  0.19792510804E+03  0.13005252607E+02  0.24313428665E+03  0.33776140445E+03  0.12500000000E+03 0.  0.
</event>
<event>
 5    0  0.5735425E-005  0.2849031E+03  0.7546771E-02  0.1093041E+00
         21   -1    0    0  502  501  0.00000000000E+00  0.00000000000E+00  0.48736833718E+02  0.48736833718E+02  0.00000000000E+00 0.  1.
         21   -1    0    0  501  502 -0.00000000000E+00 -0.00000000000E+00 -0.16654712657E+04  0.16654712657E+04  0.00000000000E+00 0.  1.
         25    1    1    2    0    0  0.67347415550E+02 -0.81766311594E+02 -0.47005356488E+03  0.49779188216E+03  0.12500000000E+03 0.  0.
         25    1    1    2    0    0  0.50803253348E+02 -0.73707848664E+01 -0.15344690743E+03  0.20446577323E+03  0.12500000000E+03 0.  0.
         25    1    1    2    0    0 -0.11815066890E+03  0.89137096460E+02 -0.99323395962E+03  0.10119504440E+04  0.12500000000E+03 0.  0.
</event>
<event>
 5    0  0.5735425E-005  0.2388819E+03  0.7546771E-02  0.1120540E+00
         21   -1    0    0  502  501  0.00000000000E+00  0.00000000000E+00  0.47380577141E+03  0.47380577141E+03  0.00000000000E+00 0. -1.
         21   -1    0    0  501  502 -0.00000000000E+00 -0.00000000000E+00 -0.12043870329E+03  0.12043870329E+03  0.00000000000E+00 0. -1.
         25    1    1    2    0    0 -0.17186937990E+02 -0.86003766159E+02  0.26229904372E+03  0.30350918761E+03  0.12500000000E+03 0.  0.
         25    1    1    2    0    0  0.36062307692E+02  0.14598022867E+02  0.43347618431E+02  0.13790434486E+03  0.12500000000E+03 0.  0.
         25    1    1    2    0    0 -0.18875369702E+02  0.71405743292E+02  0.47720405966E+02  0.15283094223E+03  0.12500000000E+03 0.  0.
</event>
<event>
 5    0  0.5735425E-005  0.2780920E+03  0.7546771E-02  0.1096736E+00
         21   -1    0    0  502  501  0.00000000000E+00  0.00000000000E+00  0.18898759630E+03  0.18898759630E+03  0.00000000000E+00 0.  1.
         21   -1    0    0  501  502 -0.00000000000E+00 -0.00000000000E+00 -0.40920754727E+03  0.40920754727E+03  0.00000000000E+00 0.  1.
         25    1    1    2    0    0 -0.12036835288E+03 -0.56835535372E+02 -0.49175147421E+02  0.18910847041E+03  0.12500000000E+03 0.  0.
         25    1    1    2    0    0 -0.49877702443E+01 -0.62291271507E+02 -0.69773881653E+01  0.13992413767E+03  0.12500000000E+03 0.  0.
         25    1    1    2    0    0  0.12535612312E+03  0.11912680688E+03 -0.16406741539E+03  0.26916253549E+03  0.12500000000E+03 0.  0.
</event>
<event>
 5    0  0.5735425E-005  0.3993746E+03  0.7546771E-02  0.1043996E+00
         21   -1    0    0  502  501  0.00000000000E+00  0.00000000000E+00  0.11120117388E+04  0.11120117388E+04  0.00000000000E+00 0. -1.
         21   -1    0    0  501  502 -0.00000000000E+00 -0.00000000000E+00 -0.14343376805E+03  0.14343376805E+03  0.00000000000E+00 0. -1.
         25    1    1    2    0    0 -0.15321450132E+03  0.12730764604E+01  0.19596808016E+03  0.27839682574E+03  0.12500000000E+03 0.  0.
         25    1    1    2    0    0  0.33340708045E+03  0.75977203043E+02  0.43755688262E+03  0.56922213783E+03  0.12500000000E+03 0.  0.
         25    1    1    2    0    0 -0.18019257913E+03 -0.77250279504E+02  0.33505300799E+03  0.40782654330E+03  0.12500000000E+03 0.  0.
</event>
<event>
 5    0  0.5735425E-005  0.2847148E+03  0.7546771E-02  0.1093141E+00
         21   -1    0    0  502  501  0.00000000000E+00  0.00000000000E+00  0.55152969500E+02  0.55152969500E+02  0.00000000000E+00 0.  1.
         21   -1    0    0  501  502 -0.00000000000E+00 -0.00000000000E+00 -0.14697763672E+04  0.14697763672E+04  0.00000000000E+00 0.  1.
         25    1    1    2    0    0  0.28231716606E+02 -0.19238234979E+02 -0.43142060269E+03  0.45046184737E+03  0.12500000000E+03 0.  0.
         25    1    1    2    0    0 -0.17250236081E+03  0.83181804044E+02 -0.45597669815E+03  0.51011373856E+03  0.12500000000E+03 0.  0.
         25    1    1    2    0    0  0.14427064420E+03 -0.63943569065E+02 -0.52722609684E+03  0.56435375075E+03  0.12500000000E+03 0.  0.
</event>
<event>
 5    0  0.5735425E-005  0.3584787E+03  0.7546771E-02  0.1059188E+00
         21   -1    0    0  502  501  0.00000000000E+00  0.00000000000E+00  0.54761903019E+03  0.54761903019E+03  0.00000000000E+00 0.  1.
         21   -1    0    0  501  502 -0.00000000000E+00 -0.00000000000E+00 -0.23466495187E+03  0.23466495187E+03  0.00000000000E+00 0.  1.
         25    1    1    2    0    0 -0.16004302773E+03  0.78302639614E+01  0.90414449193E+02  0.22242944135E+03  0.12500000000E+03 0.  0.
         25    1    1    2    0    0  0.20069081796E+03  0.16561941282E+03  0.79471526244E+02  0.29941161934E+03  0.12500000000E+03 0.  0.
         25    1    1    2    0    0 -0.40647790229E+02 -0.17344967678E+03  0.14306810288E+03  0.26044292136E+03  0.12500000000E+03 0.  0.
</event>
<event>
 5    0  0.5735425E-005  0.7870377E+03  0.7546771E-02  0.9578971E-01
         21   -1    0    0  502  501  0.00000000000E+00  0.00000000000E+00  0.11972904309E+04  0.11972904309E+04  0.00000000000E+00 0.  1.
         21   -1    0    0  501  502 -0.00000000000E+00 -0.00000000000E+00 -0.51735851411E+03  0.51735851411E+03  0.00000000000E+00 0.  1.
         25    1    1    2    0    0  0.44029845704E+03 -0.21971808670E+03 -0.24515946598E+03  0.56379688954E+03  0.12500000000E+03 0.  0.
         25    1    1    2    0    0 -0.82752468015E+02 -0.53670915436E+02  0.64776310031E+02  0.17189970468E+03  0.12500000000E+03 0.  0.
         25    1    1    2    0    0 -0.35754598903E+03  0.27338900214E+03  0.86031507276E+03  0.97895235082E+03  0.12500000000E+03 0.  0.
</event>
<event>
 5    0  0.5735425E-005  0.5442949E+03  0.7546771E-02  0.1002823E+00
         21   -1    0    0  502  501  0.00000000000E+00  0.00000000000E+00  0.19380358483E+03  0.19380358483E+03  0.00000000000E+00 0.  1.
         21   -1    0    0  501  502 -0.00000000000E+00 -0.00000000000E+00 -0.15286451323E+04  0.15286451323E+04  0.00000000000E+00 0.  1.
         25    1    1    2    0    0 -0.16857594367E+03  0.69680367431E+02 -0.18770897968E+02  0.22192464712E+03  0.12500000000E+03 0.  0.
         25    1    1    2    0    0  0.99617101786E+02 -0.26434755966E+03 -0.11874890067E+04  0.12270119561E+04  0.12500000000E+03 0.  0.
         25    1    1    2    0    0  0.68958841887E+02  0.19466719223E+03 -0.12858164277E+03  0.27351211392E+03  0.12500000000E+03 0.  0.
</event>
<event>
 5    0  0.5735425E-005  0.2998288E+03  0.7546771E-02  0.1085326E+00
         21   -1    0    0  502  501  0.00000000000E+00  0.00000000000E+00  0.40340240264E+03  0.40340240264E+03  0.00000000000E+00 0. -1.
         21   -1    0    0  501  502 -0.00000000000E+00 -0.00000000000E+00 -0.22284767614E+03  0.22284767614E+03  0.00000000000E+00 0. -1.
         25    1    1    2    0    0  0.21762632396E+02  0.95267057402E+02  0.77103960434E+02  0.17640704382E+03  0.12500000000E+03 0.  0.
         25    1    1    2    0    0  0.89038951489E+02 -0.49355735619E+02 -0.94442869780E+02  0.18683784192E+03  0.12500000000E+03 0.  0.
         25    1    1    2    0    0 -0.11080158389E+03 -0.45911321784E+02  0.19789363585E+03  0.26300519305E+03  0.12500000000E+03 0.  0.
</event>
<event>
 5    0  0.5735425E-005  0.4965912E+03  0.7546771E-02  0.1014673E+00
         21   -1    0    0  502  501  0.00000000000E+00  0.00000000000E+00  0.25554373668E+03  0.25554373668E+03  0.00000000000E+00 0.  1.
         21   -1    0    0  501  502 -0.00000000000E+00 -0.00000000000E+00 -0.96501225606E+03  0.96501225606E+03  0.00000000000E+00 0.  1.
         25    1    1    2    0    0 -0.31331854015E+03  0.19782541433E+02 -0.78793863363E+02  0.34697741922E+03  0.12500000000E+03 0.  0.
         25    1    1    2    0    0  0.33187230146E+03  0.15613289275E+03 -0.41953097404E+03  0.57109363755E+03  0.12500000000E+03 0.  0.
         25    1    1    2    0    0 -0.18553761312E+02 -0.17591543418E+03 -0.21114368198E+03  0.30248493596E+03  0.12500000000E+03 0.  0.
</event>
<event>
 5    0  0.5735425E-005  0.2491413E+03  0.7546771E-02  0.1113849E+00
         21   -1    0    0  502  501  0.00000000000E+00  0.00000000000E+00  0.16411297590E+03  0.16411297590E+03  0.00000000000E+00 0.  1.
         21   -1    0    0  501  502 -0.00000000000E+00 -0.00000000000E+00 -0.37822355451E+03  0.37822355451E+03  0.00000000000E+00 0.  1.
         25    1    1    2    0    0  0.59873658432E+01 -0.87837130182E+02 -0.15453625358E+03  0.21738827857E+03  0.12500000000E+03 0.  0.
         25    1    1    2    0    0 -0.91971404121E+02  0.50075971107E+02 -0.32476421366E+02  0.16627104379E+03  0.12500000000E+03 0.  0.
         25    1    1    2    0    0  0.85984038278E+02  0.37761159075E+02 -0.27097903672E+02  0.15867720806E+03  0.12500000000E+03 0.  0.
</event>
<event>
 5    0  0.5735425E-005  0.3316908E+03  0.7546771E-02  0.1070391E+00
         21   -1    0    0  502  501  0.00000000000E+00  0.00000000000E+00  0.41338300096E+03  0.41338300096E+03  0.00000000000E+00 0. -1.
         21   -1    0    0  501  502 -0.00000000000E+00 -0.00000000000E+00 -0.26614250661E+03  0.26614250661E+03  0.00000000000E+00 0. -1.
         25    1    1    2    0    0  0.29544803598E+02 -0.11527271297E+03  0.19902515794E+03  0.26343254786E+03  0.12500000000E+03 0.  0.
         25    1    1    2    0    0 -0.11470606010E+03  0.14866471645E+03  0.49606524928E+02  0.23096425147E+03  0.12500000000E+03 0.  0.
         25    1    1    2    0    0  0.85161256505E+02 -0.33392003480E+02 -0.10139118852E+03  0.18512870824E+03  0.12500000000E+03 0.  0.
</event>
<event>
 5    0  0.5735425E-005  0.3640121E+03  0.7546771E-02  0.1057006E+00
         21   -1    0    0  502  501  0.00000000000E+00  0.00000000000E+00  0.13050575331E+03  0.13050575331E+03  0.00000000000E+00 0. -1.
         21   -1    0    0  501  502 -0.00000000000E+00 -0.00000000000E+00 -0.10153175378E+04  0.10153175378E+04  0.00000000000E+00 0. -1.
         25    1    1    2    0    0  0.19647045353E+02  0.55972523686E+02 -0.28555423462E+02  0.14127753540E+03  0.12500000000E+03 0.  0.
         25    1    1    2    0    0  0.58602528372E+02 -0.24366685170E+03 -0.38265322183E+03  0.47419012973E+03  0.12500000000E+03 0.  0.
         25    1    1    2    0    0 -0.78249573725E+02  0.18769432802E+03 -0.47360313921E+03  0.53035562600E+03  0.12500000000E+03 0.  0.
</event>
<event>
 5    0  0.5735425E-005  0.3215415E+03  0.7546771E-02  0.1074942E+00
         21   -1    0    0  502  501  0.00000000000E+00  0.00000000000E+00  0.38697308232E+03  0.38697308232E+03  0.00000000000E+00 0.  1.
         21   -1    0    0  501  502 -0.00000000000E+00 -0.00000000000E+00 -0.26717347993E+03  0.26717347993E+03  0.00000000000E+00 0.  1.
         25    1    1    2    0    0 -0.22114950767E+02  0.16665304505E+03  0.22824531628E+03  0.30981160868E+03  0.12500000000E+03 0.  0.
         25    1    1    2    0    0  0.69209409584E+02 -0.69136136659E+02 -0.31056041842E+02  0.16173813868E+03  0.12500000000E+03 0.  0.
         25    1    1    2    0    0 -0.47094458817E+02 -0.97516908387E+02 -0.77389672042E+02  0.18259681490E+03  0.12500000000E+03 0.  0.
</event>
<event>
 5    0  0.5735425E-005  0.3587707E+03  0.7546771E-02  0.1059072E+00
         21   -1    0    0  502  501  0.00000000000E+00  0.00000000000E+00  0.41193495792E+03  0.41193495792E+03  0.00000000000E+00 0.  1.
         21   -1    0    0  501  502 -0.00000000000E+00 -0.00000000000E+00 -0.31246789561E+03  0.31246789561E+03  0.00000000000E+00 0.  1.
         25    1    1    2    0    0  0.15528144425E+03  0.18555293683E+03 -0.54475550997E+01  0.27239107025E+03  0.12500000000E+03 0.  0.
         25    1    1    2    0    0 -0.21387800355E+03 -0.16496204921E+03  0.48922538013E+02  0.30162011340E+03  0.12500000000E+03 0.  0.
         25    1    1    2    0    0  0.58596559306E+02 -0.20590887628E+02  0.55992079401E+02  0.15039166989E+03  0.12500000000E+03 0.  0.
</event>
<event>
 5    0  0.5735425E-005  0.3111268E+03  0.7546771E-02  0.1079807E+00
         21   -1    0    0  502  501  0.00000000000E+00  0.00000000000E+00  0.65948537860E+03  0.65948537860E+03  0.00000000000E+00 0.  1.
         21   -1    0    0  501  502 -0.00000000000E+00 -0.00000000000E+00 -0.14678089985E+03  0.14678089985E+03  0.00000000000E+00 0.  1.
         25    1    1    2    0    0  0.56464568544E+02 -0.38212660323E+02 -0.68065696486E+02  0.15781759708E+03  0.12500000000E+03 0.  0.
         25    1    1    2    0    0 -0.29242147965E+02  0.10270521450E+02  0.42941307977E+03  0.44830924584E+03  0.12500000000E+03 0.  0.
         25    1    1    2    0    0 -0.27222420580E+02  0.27942138873E+02  0.15135709547E+03  0.20013943553E+03  0.12500000000E+03 0.  0.
</event>
<event>
 5    0  0.5735425E-005  0.2156203E+03  0.7546771E-02  0.1137191E+00
         21   -1    0    0  502  501  0.00000000000E+00  0.00000000000E+00  0.47895587078E+03  0.47895587078E+03  0.00000000000E+00 0.  1.
         21   -1    0    0  501  502 -0.00000000000E+00 -0.00000000000E+00 -0.97069765143E+02  0.97069765143E+02  0.00000000000E+00 0.  1.
         25    1    1    2    0    0 -0.30353633916E+02  0.26196457269E+02  0.20877785828E+03  0.24661871700E+03  0.12500000000E+03 0.  0.
         25    1    1    2    0    0  0.38861538955E+02  0.33729003985E+02  0.51001135806E+02  0.14447830555E+03  0.12500000000E+03 0.  0.
         25    1    1    2    0    0 -0.85079050384E+01 -0.59925461254E+02  0.12210711154E+03  0.18492861337E+03  0.12500000000E+03 0.  0.
</event>
<event>
 5    0  0.5735425E-005  0.5342857E+03  0.7546771E-02  0.1005198E+00
         21   -1    0    0  502  501  0.00000000000E+00  0.00000000000E+00  0.20272782753E+03  0.20272782753E+03  0.00000000000E+00 0.  1.
         21   -1    0    0  501  502 -0.00000000000E+00 -0.00000000000E+00 -0.14081009736E+04  0.14081009736E+04  0.00000000000E+00 0.  1.
         25    1    1    2    0    0  0.16688760098E+03 -0.11126104069E+03  0.21187952882E+02  0.23728552396E+03  0.12500000000E+03 0.  0.
         25    1    1    2    0    0 -0.25611420485E+03  0.26983511283E+03 -0.69870449096E+03  0.80138532538E+03  0.12500000000E+03 0.  0.
         25    1    1    2    0    0  0.89226603875E+02 -0.15857407214E+03 -0.52785660802E+03  0.57215795182E+03  0.12500000000E+03 0.  0.
</event>
<event>
 5    0  0.5735425E-005  0.4136594E+03  0.7546771E-02  0.1039150E+00
         21   -1    0    0  502  501  0.00000000000E+00  0.00000000000E+00  0.62473946941E+03  0.62473946941E+03  0.00000000000E+00 0. -1.
         21   -1    0    0  501  502 -0.00000000000E+00 -0.00000000000E+00 -0.27389674285E+03  0.27389674285E+03  0.00000000000E+00 0. -1.
         25    1    1    2    0    0  0.21307274282E+03 -0.81740373051E+02  0.11388882440E+03  0.28403722757E+03  0.12500000000E+03 0.  0.
         25    1    1    2    0    0 -0.20023969204E+03 -0.12294663003E+03  0.26155880452E+03  0.37316191703E+03  0.12500000000E+03 0.  0.
         25    1    1    2    0    0 -0.12833050786E+02  0.20468700308E+03 -0.24604902354E+02  0.24143706766E+03  0.12500000000E+03 0.  0.
</event>
<event>
 5    0  0.5735425E-005  0.3211738E+03  0.7546771E-02  0.1075110E+00
         21   -1    0    0  502  501  0.00000000000E+00  0.00000000000E+00  0.84474244434E+02  0.84474244434E+02  0.00000000000E+00 0.  1.
         21   -1    0    0  501  502 -0.00000000000E+00 -0.00000000000E+00 -0.12211128948E+04  0.12211128948E+04  0.00000000000E+00 0.  1.
         25    1    1    2    0    0 -0.66618172367E+02  0.65726517668E+02 -0.22607760197E+02  0.15777853731E+03  0.12500000000E+03 0.  0.
         25    1    1    2    0    0  0.31234091403E+02 -0.24430346018E+01 -0.44119181261E+03  0.45962675335E+03  0.12500000000E+03 0.  0.
         25    1    1    2    0    0  0.35384080964E+02 -0.63283483066E+02 -0.67283907760E+03  0.68818184861E+03  0.12500000000E+03 0.  0.
</event>
<event>
 5    0  0.5735425E-005  0.2697601E+03  0.7546771E-02  0.1101417E+00
         21   -1    0    0  502  501  0.00000000000E+00  0.00000000000E+00  0.54132521204E+02  0.54132521204E+02  0.00000000000E+00 0. -1.
         21   -1    0    0  501  502 -0.00000000000E+00 -0.00000000000E+00 -0.13443034158E+04  0.13443034158E+04  0.00000000000E+00 0. -1.
         25    1    1    2    0    0 -0.50172967953E+02  0.38508510483E+02 -0.21873659508E+03  0.25975167010E+03  0.12500000000E+03 0.  0.
         25    1    1    2    0    0 -0.78994111787E+02  0.49821926080E+02 -0.69485803245E+03  0.71216218608E+03  0.12500000000E+03 0.  0.
         25    1    1    2    0    0  0.12916707974E+03 -0.88330436564E+02 -0.37657626703E+03  0.42652208079E+03  0.12500000000E+03 0.  0.
</event>
<event>
 5    0  0.5735425E-005  0.3964567E+03  0.7546771E-02  0.1045014E+00
         21   -1    0    0  502  501  0.00000000000E+00  0.00000000000E+00  0.32389035644E+03  0.32389035644E+03  0.00000000000E+00 0. -1.
         21   -1    0    0  501  502 -0.00000000000E+00 -0.00000000000E+00 -0.48528132421E+03  0.48528132421E+03  0.00000000000E+00 0. -1.
         25    1    1    2    0    0 -0.11927369062E+02  0.23866719555E+02  0.56939472151E+01  0.12794257880E+03  0.12500000000E+03 0.  0.
         25    1    1    2    0    0  0.29048079789E+03  0.90133149168E+02 -0.39297304526E+02  0.33116816977E+03  0.12500000000E+03 0.  0.
         25    1    1    2    0    0 -0.27855342883E+03 -0.11399986872E+03 -0.12778761047E+03  0.35006093208E+03  0.12500000000E+03 0.  0.
</event>
<event>
 5    0  0.5735425E-005  0.3224261E+03  0.7546771E-02  0.1074538E+00
         21   -1    0    0  502  501  0.00000000000E+00  0.00000000000E+00  0.37614233185E+03  0.37614233185E+03  0.00000000000E+00 0. -1.
         21   -1    0    0  501  502 -0.00000000000E+00 -0.00000000000E+00 -0.27638104219E+03  0.27638104219E+03  0.00000000000E+00 0. -1.
         25    1    1    2    0    0 -0.16729205414E+03  0.13836488344E+03  0.78005463789E+00  0.25051363403E+03  0.12500000000E+03 0.  0.
         25    1    1    2    0    0  0.97880511171E+02  0.15697267879E+01 -0.33227630695E+02  0.16221015366E+03  0.12500000000E+03 0.  0.
         25    1    1    2    0    0  0.69411542973E+02 -0.13993461022E+03  0.13220886572E+03  0.23979958634E+03  0.12500000000E+03 0.  0.
</event>
<event>
 5    0  0.5735425E-005  0.2590636E+03  0.7546771E-02  0.1107707E+00
         21   -1    0    0  502  501  0.00000000000E+00  0.00000000000E+00  0.82706452130E+02  0.82706452130E+02  0.00000000000E+00 0.  1.
         21   -1    0    0  501  502 -0.00000000000E+00 -0.00000000000E+00 -0.81147195700E+03  0.81147195700E+03  0.00000000000E+00 0.  1.
         25    1    1    2    0    0  0.92882915237E+02 -0.60040876563E+02 -0.44675269564E+03  0.47691206093E+03  0.12500000000E+03 0.  0.
         25    1    1    2    0    0  0.20302842436E+02  0.44994594203E+02 -0.92527139697E+02  0.16316553098E+03  0.12500000000E+03 0.  0.
         25    1    1    2    0    0 -0.11318575767E+03  0.15046282360E+02 -0.18948566953E+03  0.25410081722E+03  0.12500000000E+03 0.  0.
</event>
<event>
 5    0  0.5735425E-005  0.2742439E+03  0.7546771E-02  0.1098875E+00
         21   -1    0    0  502  501  0.00000000000E+00  0.00000000000E+00  0.46547872504E+03  0.46547872504E+03  0.00000000000E+00 0. -1.
         21   -1    0    0  501  502 -0.00000000000E+00 -0.00000000000E+00 -0.16157492457E+03  0.16157492457E+03  0.00000000000E+00 0. -1.
         25    1    1    2    0    0  0.24497971623E+02  0.67079348375E+02  0.15557423663E+03  0.21196257381E+03  0.12500000000E+03 0.  0.
         25    1    1    2    0    0  0.37692103333E+02 -0.13115447459E+03  0.18009123381E+03  0.25822479229E+03  0.12500000000E+03 0.  0.
         25    1    1    2    0    0 -0.62190074957E+02  0.64075126214E+02 -0.31761669973E+02  0.15686628351E+03  0.12500000000E+03 0.  0.
</event>
<event>
 5    0  0.5735425E-005  0.4478156E+03  0.7546771E-02  0.1028375E+00
         21   -1    0    0  502  501  0.00000000000E+00  0.00000000000E+00  0.14985415467E+04  0.14985415467E+04  0.00000000000E+00 0.  1.
         21   -1    0    0  501  502 -0.00000000000E+00 -0.00000000000E+00 -0.13382267310E+03  0.13382267310E+03  0.00000000000E+00 0.  1.
         25    1    1    2    0    0 -0.16283422421E+03  0.12507171874E+03  0.11115941464E+04  0.11372882070E+04  0.12500000000E+03 0.  0.
         25    1    1    2    0    0  0.20748218296E+03 -0.12088592224E+03  0.91214518504E+02  0.28567000338E+03  0.12500000000E+03 0.  0.
         25    1    1    2    0    0 -0.44647958757E+02 -0.41857964963E+01  0.16191020867E+03  0.20940600943E+03  0.12500000000E+03 0.  0.
</event>
<event>
 5    0  0.5735425E-005  0.6049419E+03  0.7546771E-02  0.9895206E-01
         21   -1    0    0  502  501  0.00000000000E+00  0.00000000000E+00  0.29048707358E+03  0.29048707358E+03  0.00000000000E+00 0. -1.
         21   -1    0    0  501  502 -0.00000000000E+00 -0.00000000000E+00 -0.12597968640E+04  0.12597968640E+04  0.00000000000E+00 0.  1.
         25    1    1    2    0    0  0.64680819100E+01 -0.15172731753E+03 -0.65705917644E+02  0.20737715058E+03  0.12500000000E+03 0.  0.
         25    1    1    2    0    0  0.38000331556E+03  0.24955287766E+03 -0.17481884147E+03  0.50285761992E+03  0.12500000000E+03 0.  0.
         25    1    1    2    0    0 -0.38647139747E+03 -0.97825560133E+02 -0.72878503132E+03  0.84004916711E+03  0.12500000000E+03 0.  0.
</event>
<event>
 5    0  0.5735425E-005  0.2008170E+03  0.7546771E-02  0.1149052E+00
         21   -1    0    0  502  501  0.00000000000E+00  0.00000000000E+00  0.30473183642E+03  0.30473183642E+03  0.00000000000E+00 0. -1.
         21   -1    0    0  501  502 -0.00000000000E+00 -0.00000000000E+00 -0.13233750631E+03  0.13233750631E+03  0.00000000000E+00 0. -1.
         25    1    1    2    0    0  0.40366612640E+02  0.17834199279E+02  0.10235140470E+03  0.16747636288E+03  0.12500000000E+03 0.  0.
         25    1    1    2    0    0 -0.43298766890E+02  0.44713072775E+01  0.47328498029E+02  0.14056942245E+03  0.12500000000E+03 0.  0.
         25    1    1    2    0    0  0.29321542497E+01 -0.22305506557E+02  0.22714427376E+02  0.12902355739E+03  0.12500000000E+03 0.  0.
</event>
<event>
 5    0  0.5735425E-005  0.3920460E+03  0.7546771E-02  0.1046569E+00
         21   -1    0    0  502  501  0.00000000000E+00  0.00000000000E+00  0.38723597908E+03  0.38723597908E+03  0.00000000000E+00 0. -1.
         21   -1    0    0  501  502 -0.00000000000E+00 -0.00000000000E+00 -0.39691575246E+03  0.39691575246E+03  0.00000000000E+00 0. -1.
         25    1    1    2    0    0  0.54325566535E+02  0.22983590100E+03 -0.13063192119E+03  0.29743151717E+03  0.12500000000E+03 0.  0.
         25    1    1    2    0    0  0.48231829968E+02 -0.24341467529E+03  0.15890625604E+03  0.32008313260E+03  0.12500000000E+03 0.  0.
         25    1    1    2    0    0 -0.10255739650E+03  0.13578774286E+02 -0.37954108224E+02  0.16663708177E+03  0.12500000000E+03 0.  0.
</event>
<event>
 5    0  0.5735425E-005  0.6933571E+03  0.7546771E-02  0.9728660E-01
         21   -1    0    0  502  501  0.00000000000E+00  0.00000000000E+00  0.19559581271E+04  0.19559581271E+04  0.00000000000E+00 0.  1.
         21   -1    0    0  501  502 -0.00000000000E+00 -0.00000000000E+00 -0.24578441549E+03  0.24578441549E+03  0.00000000000E+00 0.  1.
         25    1    1    2    0    0  0.15851859613E+02 -0.41328728044E+03  0.15044178213E+03  0.45750998616E+03  0.12500000000E+03 0.  0.
         25    1    1    2    0    0  0.14346543608E+03  0.33380105107E+03  0.36534447233E+03  0.53019530035E+03  0.12500000000E+03 0.  0.
         25    1    1    2    0    0 -0.15931729569E+03  0.79486229364E+02  0.11943874571E+04  0.12140372560E+04  0.12500000000E+03 0.  0.
</event>
<event>
 5    0  0.5735425E-005  0.5442872E+03  0.7546771E-02  0.1002825E+00
         21   -1    0    0  502  501  0.00000000000E+00  0.00000000000E+00  0.41972211825E+03  0.41972211825E+03  0.00000000000E+00 0. -1.
         21   -1    0    0  501  502 -0.00000000000E+00 -0.00000000000E+00 -0.70582069006E+03  0.70582069006E+03  0.00000000000E+00 0. -1.
         25    1    1    2    0    0  0.25876850077E+01  0.21990162073E+01 -0.23158400230E+02  0.12717249422E+03  0.12500000000E+03 0.  0.
         25    1    1    2    0    0  0.96873446345E+02  0.16091507676E+03  0.30896801297E+03  0.38257595269E+03  0.12500000000E+03 0.  0.
         25    1    1    2    0    0 -0.99461131352E+02 -0.16311409297E+03 -0.57190818455E+03  0.61579436140E+03  0.12500000000E+03 0.  0.
</event>
<event>
 5    0  0.5735425E-005  0.2362762E+03  0.7546771E-02  0.1122299E+00
         21   -1    0    0  502  501  0.00000000000E+00  0.00000000000E+00  0.34822354046E+03  0.34822354046E+03  0.00000000000E+00 0.  1.
         21   -1    0    0  501  502 -0.00000000000E+00 -0.00000000000E+00 -0.16031783899E+03  0.16031783899E+03  0.00000000000E+00 0.  1.
         25    1    1    2    0    0  0.90610491688E+02 -0.71296436333E+02  0.34384870851E+02  0.17349571286E+03  0.12500000000E+03 0.  0.
         25    1    1    2    0    0 -0.50601743915E+02  0.72581369083E+02  0.13170989146E+03  0.20199278981E+03  0.12500000000E+03 0.  0.
         25    1    1    2    0    0 -0.40008747773E+02 -0.12849327502E+01  0.21810939156E+02  0.13305287677E+03  0.12500000000E+03 0.  0.
</event>
<event>
 5    0  0.5735425E-005  0.3331260E+03  0.7546771E-02  0.1069762E+00
         21   -1    0    0  502  501  0.00000000000E+00  0.00000000000E+00  0.97664854413E+02  0.97664854413E+02  0.00000000000E+00 0. -1.
         21   -1    0    0  501  502 -0.00000000000E+00 -0.00000000000E+00 -0.11362624483E+04  0.11362624483E+04  0.00000000000E+00 0. -1.
         25    1    1    2    0    0 -0.16507021862E+03  0.42313444298E+02 -0.28052412739E+03  0.35122270811E+03  0.12500000000E+03 0.  0.
         25    1    1    2    0    0  0.23087602115E+03 -0.42549739928E+02 -0.28872136474E+03  0.39255476557E+03  0.12500000000E+03 0.  0.
         25    1    1    2    0    0 -0.65805802535E+02  0.23629562918E+00 -0.46935210176E+03  0.49014982904E+03  0.12500000000E+03 0.  0.
</event>
<event>
 5    0  0.5735425E-005  0.2803546E+03  0.7546771E-02  0.1095495E+00
         21   -1    0    0  502  501  0.00000000000E+00  0.00000000000E+00  0.94113207488E+03  0.94113207488E+03  0.00000000000E+00 0. -1.
         21   -1    0    0  501  502 -0.00000000000E+00 -0.00000000000E+00 -0.83515039980E+02  0.83515039980E+02  0.00000000000E+00 0. -1.
         25    1    1    2    0    0 -0.39974150985E+02  0.31610455505E+02  0.78113108628E+02  0.15596092903E+03  0.12500000000E+03 0.  0.
         25    1    1    2    0    0  0.45605313251E+02  0.75192241464E+02  0.13632098558E+03  0.20479777558E+03  0.12500000000E+03 0.  0.
         25    1    1    2    0    0 -0.56311622659E+01 -0.10680269697E+03  0.64318294069E+03  0.66388841025E+03  0.12500000000E+03 0.  0.
</event>
<event>
 5    0  0.5735425E-005  0.4557671E+03  0.7546771E-02  0.1026016E+00
         21   -1    0    0  502  501  0.00000000000E+00  0.00000000000E+00  0.65828197619E+03  0.65828197619E+03  0.00000000000E+00 0. -1.
         21   -1    0    0  501  502 -0.00000000000E+00 -0.00000000000E+00 -0.31555419914E+03  0.31555419914E+03  0.00000000000E+00 0. -1.
         25    1    1    2    0    0  0.13527644802E+03  0.13902251328E+03 -0.25680240935E+02  0.23218839627E+03  0.12500000000E+03 0.  0.
         25    1    1    2    0    0 -0.20727772023E+03 -0.26811620925E+03  0.44016569709E+02  0.36388571471E+03  0.12500000000E+03 0.  0.
         25    1    1    2    0    0  0.72001272215E+02  0.12909369596E+03  0.32439144828E+03  0.37776206434E+03  0.12500000000E+03 0.  0.
</event>
<event>
 5    0  0.5735425E-005  0.2951822E+03  0.7546771E-02  0.1087674E+00
         21   -1    0    0  502  501  0.00000000000E+00  0.00000000000E+00  0.74797371705E+02  0.74797371705E+02  0.00000000000E+00 0. -1.
         21   -1    0    0  501  502 -0.00000000000E+00 -0.00000000000E+00 -0.11649144103E+04  0.11649144103E+04  0.00000000000E+00 0. -1.
         25    1    1    2    0    0 -0.49318242897E+01  0.14624938160E+02 -0.50164165580E+03  0.51721133258E+03  0.12500000000E+03 0.  0.
         25    1    1    2    0    0 -0.33072911482E+02 -0.16680870102E+03 -0.23325856161E+03  0.31456877908E+03  0.12500000000E+03 0.  0.
         25    1    1    2    0    0  0.38004735771E+02  0.15218376286E+03 -0.35521682116E+03  0.40793167032E+03  0.12500000000E+03 0.  0.
</event>
<event>
 5    0  0.5735425E-005  0.2411971E+03  0.7546771E-02  0.1118998E+00
         21   -1    0    0  502  501  0.00000000000E+00  0.00000000000E+00  0.92334543666E+02  0.92334543666E+02  0.00000000000E+00 0. -1.
         21   -1    0    0  501  502 -0.00000000000E+00 -0.00000000000E+00 -0.63005696785E+03  0.63005696785E+03  0.00000000000E+00 0. -1.
         25    1    1    2    0    0 -0.11050417982E+02 -0.32118876665E+02 -0.93058846800E+02  0.15949508752E+03  0.12500000000E+03 0.  0.
         25    1    1    2    0    0  0.41116940535E+02 -0.49275237661E+02 -0.66874404779E+02  0.15561438835E+03  0.12500000000E+03 0.  0.
         25    1    1    2    0    0 -0.30066522553E+02  0.81394114326E+02 -0.37778917260E+03  0.40728203565E+03  0.12500000000E+03 0.  0.
</event>
<event>
 5    0  0.5735425E-005  0.4154230E+03  0.7546771E-02  0.1038566E+00
         21   -1    0    0  502  501  0.00000000000E+00  0.00000000000E+00  0.22203015377E+03  0.22203015377E+03  0.00000000000E+00 0. -1.
         21   -1    0    0  501  502 -0.00000000000E+00 -0.00000000000E+00 -0.77726505776E+03  0.77726505776E+03  0.00000000000E+00 0. -1.
         25    1    1    2    0    0  0.34925660142E+03 -0.56850651418E+02 -0.23967680538E+03  0.44528882901E+03  0.12500000000E+03 0.  0.
         25    1    1    2    0    0 -0.17016047010E+03  0.11639864020E+02 -0.23680312121E+03  0.31747565298E+03  0.12500000000E+03 0.  0.
         25    1    1    2    0    0 -0.17909613132E+03  0.45210787398E+02 -0.78754977404E+02  0.23653072954E+03  0.12500000000E+03 0.  0.
</event>
<event>
 5    0  0.5735425E-005  0.2527862E+03  0.7546771E-02  0.1111557E+00
         21   -1    0    0  502  501  0.00000000000E+00  0.00000000000E+00  0.30281609505E+03  0.30281609505E+03  0.00000000000E+00 0. -1.
         21   -1    0    0  501  502 -0.00000000000E+00 -0.00000000000E+00 -0.21102209536E+03  0.21102209536E+03  0.00000000000E+00 0. -1.
         25    1    1    2    0    0 -0.11699459331E+02 -0.74620259857E+02 -0.12440136827E+02  0.14657700206E+03  0.12500000000E+03 0.  0.
         25    1    1    2    0    0 -0.52698984742E+02 -0.43940789572E+02  0.11475438065E+03  0.18303426963E+03  0.12500000000E+03 0.  0.
         25    1    1    2    0    0  0.64398444073E+02  0.11856104943E+03 -0.10520244131E+02  0.18422691871E+03  0.12500000000E+03 0.  0.
</event>
<event>
 5    0  0.5735425E-005  0.2602969E+03  0.7546771E-02  0.1106965E+00
         21   -1    0    0  502  501  0.00000000000E+00  0.00000000000E+00  0.34891266918E+03  0.34891266918E+03  0.00000000000E+00 0.  1.
         21   -1    0    0  501  502 -0.00000000000E+00 -0.00000000000E+00 -0.19418751810E+03  0.19418751810E+03  0.00000000000E+00 0.  1.
         25    1    1    2    0    0  0.45535043064E+02  0.79303765283E+02 -0.40001731871E+02  0.15996145125E+03  0.12500000000E+03 0.  0.
         25    1    1    2    0    0 -0.13492982623E+02  0.59246779558E+02  0.63712503118E+02  0.15289383415E+03  0.12500000000E+03 0.  0.
         25    1    1    2    0    0 -0.32042060441E+02 -0.13855054484E+03  0.13101437984E+03  0.23024490187E+03  0.12500000000E+03 0.  0.
</event>
<event>
 5    0  0.5879751E-005  0.3413611E+03  0.7546771E-02  0.1066218E+00
         21   -1    0    0  502  501  0.00000000000E+00  0.00000000000E+00  0.75995410098E+03  0.75995410098E+03  0.00000000000E+00 0.  1.
         21   -1    0    0  501  502 -0.00000000000E+00 -0.00000000000E+00 -0.15333477690E+03  0.15333477690E+03  0.00000000000E+00 0.  1.
         25    1    1    2    0    0 -0.82738567189E+02  0.36466669594E+02 -0.12861258747E+02  0.15480923896E+03  0.12500000000E+03 0.  0.
         25    1    1    2    0    0 -0.13192581860E+03 -0.84122143399E+01  0.20180043258E+03  0.27170498993E+03  0.12500000000E+03 0.  0.
         25    1    1    2    0    0  0.21466438579E+03 -0.28054455254E+02  0.41768015024E+03  0.48677464898E+03  0.12500000000E+03 0.  0.
</event>
<event>
 5    0  0.5735425E-005  0.2993684E+03  0.7546771E-02  0.1085557E+00
         21   -1    0    0  502  501  0.00000000000E+00  0.00000000000E+00  0.78261739281E+02  0.78261739281E+02  0.00000000000E+00 0.  1.
         21   -1    0    0  501  502 -0.00000000000E+00 -0.00000000000E+00 -0.11451499558E+04  0.11451499558E+04  0.00000000000E+00 0.  1.
         25    1    1    2    0    0 -0.76432067823E+02 -0.32590288210E+02 -0.30344652509E+03  0.33853918749E+03  0.12500000000E+03 0.  0.
         25    1    1    2    0    0  0.16612549554E+03  0.25673651600E+01 -0.67193064493E+03  0.70336339344E+03  0.12500000000E+03 0.  0.
         25    1    1    2    0    0 -0.89693427718E+02  0.30022923050E+02 -0.91511046471E+02  0.18150911413E+03  0.12500000000E+03 0.  0.
</event>
<event>
 5    0  0.5735425E-005  0.3166201E+03  0.7546771E-02  0.1077215E+00
         21   -1    0    0  502  501  0.00000000000E+00  0.00000000000E+00  0.71399795599E+03  0.71399795599E+03  0.00000000000E+00 0. -1.
         21   -1    0    0  501  502 -0.00000000000E+00 -0.00000000000E+00 -0.14040413908E+03  0.14040413908E+03  0.00000000000E+00 0. -1.
         25    1    1    2    0    0 -0.84455620284E+02 -0.13558011230E+02  0.22834941105E+03  0.27401646847E+03  0.12500000000E+03 0.  0.
         25    1    1    2    0    0  0.18346394822E+03 -0.12538304737E+03  0.19381536029E+03  0.32026445752E+03  0.12500000000E+03 0.  0.
         25    1    1    2    0    0 -0.99008327932E+02  0.13894105860E+03  0.15142904557E+03  0.26012116909E+03  0.12500000000E+03 0.  0.
</event>
<event>
 5    0  0.5735425E-005  0.3247780E+03  0.7546771E-02  0.1073471E+00
         21   -1    0    0  502  501  0.00000000000E+00  0.00000000000E+00  0.42307044251E+03  0.42307044251E+03  0.00000000000E+00 0. -1.
         21   -1    0    0  501  502 -0.00000000000E+00 -0.00000000000E+00 -0.24932195317E+03  0.24932195317E+03  0.00000000000E+00 0. -1.
         25    1    1    2    0    0  0.10511288344E+03 -0.38562077930E+02  0.15323739683E+03  0.22724975667E+03  0.12500000000E+03 0.  0.
         25    1    1    2    0    0 -0.58943711837E+02 -0.15347618819E+03 -0.21535923787E+02  0.20764897669E+03  0.12500000000E+03 0.  0.
         25    1    1    2    0    0 -0.46169171601E+02  0.19203826612E+03  0.42047016303E+02  0.23749366232E+03  0.12500000000E+03 0.  0.
</event>
<event>
 5    0  0.6163959E-005  0.2847417E+03  0.7546771E-02  0.1093127E+00
         21   -1    0    0  502  501  0.00000000000E+00  0.00000000000E+00  0.34841096104E+03  0.34841096104E+03  0.00000000000E+00 0.  1.
         21   -1    0    0  501  502 -0.00000000000E+00 -0.00000000000E+00 -0.23270745941E+03  0.23270745941E+03  0.00000000000E+00 0.  1.
         25    1    1    2    0    0  0.56577363223E+02 -0.72685581733E+02 -0.37707144123E+02  0.15978429378E+03  0.12500000000E+03 0.  0.
         25    1    1    2    0    0  0.11005577924E+03  0.74554617005E+02  0.52554223693E+02  0.18988841958E+03  0.12500000000E+03 0.  0.
         25    1    1    2    0    0 -0.16663314246E+03 -0.18690352727E+01  0.10085642206E+03  0.23144570709E+03  0.12500000000E+03 0.  0.
</event>
<event>
 5    0  0.6508509E-005  0.2535801E+03  0.7546771E-02  0.1111063E+00
         21   -1    0    0  502  501  0.00000000000E+00  0.00000000000E+00  0.15384372958E+03  0.15384372958E+03  0.00000000000E+00 0.  1.
         21   -1    0    0  501  502 -0.00000000000E+00 -0.00000000000E+00 -0.41797516545E+03  0.41797516545E+03  0.00000000000E+00 0.  1.
         25    1    1    2    0    0 -0.49360311892E+02  0.22951311766E+02 -0.78354594913E+02  0.15725026437E+03  0.12500000000E+03 0.  0.
         25    1    1    2    0    0 -0.47337752097E+02  0.15346889913E+02 -0.21076756777E+03  0.25004871011E+03  0.12500000000E+03 0.  0.
         25    1    1    2    0    0  0.96698063989E+02 -0.38298201679E+02  0.24990726803E+02  0.16451992055E+03  0.12500000000E+03 0.  0.
</event>
<event>
 5    0  0.5735425E-005  0.4268815E+03  0.7546771E-02  0.1034850E+00
         21   -1    0    0  502  501  0.00000000000E+00  0.00000000000E+00  0.16068393152E+03  0.16068393152E+03  0.00000000000E+00 0.  1.
         21   -1    0    0  501  502 -0.00000000000E+00 -0.00000000000E+00 -0.11340760100E+04  0.11340760100E+04  0.00000000000E+00 0.  1.
         25    1    1    2    0    0  0.25024394339E+03 -0.96514530773E+02 -0.41148206613E+03  0.50683288824E+03  0.12500000000E+03 0.  0.
         25    1    1    2    0    0 -0.12529701420E+03 -0.93810401242E+02 -0.39011523701E+02  0.20407506494E+03  0.12500000000E+03 0.  0.
         25    1    1    2    0    0 -0.12494692919E+03  0.19032493202E+03 -0.52289848867E+03  0.58385198837E+03  0.12500000000E+03 0.  0.
</event>
<event>
 5    0  0.5735425E-005  0.2316213E+03  0.7546771E-02  0.1125504E+00
         21   -1    0    0  502  501  0.00000000000E+00  0.00000000000E+00  0.23870079984E+03  0.23870079984E+03  0.00000000000E+00 0.  1.
         21   -1    0    0  501  502 -0.00000000000E+00 -0.00000000000E+00 -0.22475179109E+03  0.22475179109E+03  0.00000000000E+00 0.  1.
         25    1    1    2    0    0 -0.59372326185E+02  0.25393074601E+02 -0.95227961898E+02  0.16989186585E+03  0.12500000000E+03 0.  0.
         25    1    1    2    0    0  0.28979651459E+01  0.11274759495E+02  0.79239689539E+02  0.14845688533E+03  0.12500000000E+03 0.  0.
         25    1    1    2    0    0  0.56474361039E+02 -0.36667834095E+02  0.29937281111E+02  0.14510383976E+03  0.12500000000E+03 0.  0.
</event>
<event>
 5    0  0.5735425E-005  0.2824071E+03  0.7546771E-02  0.1094381E+00
         21   -1    0    0  502  501  0.00000000000E+00  0.00000000000E+00  0.68083075172E+03  0.68083075172E+03  0.00000000000E+00 0.  1.
         21   -1    0    0  501  502 -0.00000000000E+00 -0.00000000000E+00 -0.11714184765E+03  0.11714184765E+03  0.00000000000E+00 0.  1.
         25    1    1    2    0    0  0.16940995319E+03 -0.78665797822E+02  0.16156131069E+03  0.27679432273E+03  0.12500000000E+03 0.  0.
         25    1    1    2    0    0 -0.11808489967E+03  0.85327378114E+02  0.27614947668E+03  0.33631583141E+03  0.12500000000E+03 0.  0.
         25    1    1    2    0    0 -0.51325053518E+02 -0.66615802918E+01  0.12597811670E+03  0.18486244524E+03  0.12500000000E+03 0.  0.
</event>
<event>
 5    0  0.5735425E-005  0.2751150E+03  0.7546771E-02  0.1098387E+00
         21   -1    0    0  502  501  0.00000000000E+00  0.00000000000E+00  0.46274123862E+03  0.46274123862E+03  0.00000000000E+00 0. -1.
         21   -1    0    0  501  502 -0.00000000000E+00 -0.00000000000E+00 -0.16356499170E+03  0.16356499170E+03  0.00000000000E+00 0. -1.
         25    1    1    2    0    0 -0.75394802852E+02  0.11844555401E+03  0.23319510311E+03  0.29953076917E+03  0.12500000000E+03 0.  0.
         25    1    1    2    0    0 -0.56686548231E+01 -0.96195605654E+01 -0.12826336398E+02  0.12615143479E+03  0.12500000000E+03 0.  0.
         25    1    1    2    0    0  0.81063457676E+02 -0.10882599345E+03  0.78807480215E+02  0.20062402637E+03  0.12500000000E+03 0.  0.
</event>
<event>
 5    0  0.5735425E-005  0.2892744E+03  0.7546771E-02  0.1090729E+00
         21   -1    0    0  502  501  0.00000000000E+00  0.00000000000E+00  0.10239690516E+04  0.10239690516E+04  0.00000000000E+00 0. -1.
         21   -1    0    0  501  502 -0.00000000000E+00 -0.00000000000E+00 -0.81720924489E+02  0.81720924489E+02  0.00000000000E+00 0. -1.
         25    1    1    2    0    0 -0.13309962307E+03  0.94754828063E+02  0.64893392802E+03  0.68076003852E+03  0.12500000000E+03 0.  0.
         25    1    1    2    0    0  0.40479398671E+02 -0.24728259794E+02  0.15937054710E+03  0.20802413281E+03  0.12500000000E+03 0.  0.
         25    1    1    2    0    0  0.92620224395E+02 -0.70026568268E+02  0.13394365199E+03  0.21690580476E+03  0.12500000000E+03 0.  0.
</event>
<event>
 5    0  0.5735425E-005  0.3289160E+03  0.7546771E-02  0.1071618E+00
         21   -1    0    0  502  501  0.00000000000E+00  0.00000000000E+00  0.50063373412E+03  0.50063373412E+03  0.00000000000E+00 0. -1.
         21   -1    0    0  501  502 -0.00000000000E+00 -0.00000000000E+00 -0.21609757055E+03  0.21609757055E+03  0.00000000000E+00 0. -1.
         25    1    1    2    0    0 -0.96952927644E+01  0.12393964293E+03  0.74536730810E+02  0.19140469700E+03  0.12500000000E+03 0.  0.
         25    1    1    2    0    0 -0.56091233713E+02 -0.13216094490E+02  0.29590225287E+03  0.32634955938E+03  0.12500000000E+03 0.  0.
         25    1    1    2    0    0  0.65786526478E+02 -0.11072354844E+03 -0.85902820104E+02  0.19897704829E+03  0.12500000000E+03 0.  0.
</event>
<event>
 5    0  0.5735425E-005  0.2339096E+03  0.7546771E-02  0.1123918E+00
         21   -1    0    0  502  501  0.00000000000E+00  0.00000000000E+00  0.77189845252E+03  0.77189845252E+03  0.00000000000E+00 0. -1.
         21   -1    0    0  501  502 -0.00000000000E+00 -0.00000000000E+00 -0.70882016650E+02  0.70882016650E+02  0.00000000000E+00 0. -1.
         25    1    1    2    0    0  0.11329658529E+03 -0.32446086014E+02  0.22678472978E+03  0.28450866137E+03  0.12500000000E+03 0.  0.
         25    1    1    2    0    0 -0.14775768630E+01  0.14193261500E+02  0.19737338081E+03  0.23406170844E+03  0.12500000000E+03 0.  0.
         25    1    1    2    0    0 -0.11181900843E+03  0.18252824514E+02  0.27685832529E+03  0.32421009936E+03  0.12500000000E+03 0.  0.
</event>
<event>
 5    0  0.5735425E-005  0.3234119E+03  0.7546771E-02  0.1074090E+00
         21   -1    0    0  502  501  0.00000000000E+00  0.00000000000E+00  0.56911498846E+03  0.56911498846E+03  0.00000000000E+00 0. -1.
         21   -1    0    0  501  502 -0.00000000000E+00 -0.00000000000E+00 -0.18378580739E+03  0.18378580739E+03  0.00000000000E+00 0. -1.
         25    1    1    2    0    0  0.69318322772E+02  0.15575593962E+03  0.32970791233E+03  0.39165960993E+03  0.12500000000E+03 0.  0.
         25    1    1    2    0    0 -0.12871174569E+03 -0.11311273634E+03  0.31167670280E+02  0.21437730354E+03  0.12500000000E+03 0.  0.
         25    1    1    2    0    0  0.59393422922E+02 -0.42643203277E+02  0.24453598458E+02  0.14686388239E+03  0.12500000000E+03 0.  0.
</event>
<event>
 5    0  0.5735425E-005  0.3947610E+03  0.7546771E-02  0.1045609E+00
         21   -1    0    0  502  501  0.00000000000E+00  0.00000000000E+00  0.10396980474E+04  0.10396980474E+04  0.00000000000E+00 0. -1.
         21   -1    0    0  501  502 -0.00000000000E+00 -0.00000000000E+00 -0.14988605292E+03  0.14988605292E+03  0.00000000000E+00 0. -1.
         25    1    1    2    0    0  0.17457116439E+03  0.27666671339E+02  0.25446063853E+02  0.21797485705E+03  0.12500000000E+03 0.  0.
         25    1    1    2    0    0 -0.10871827120E+02  0.13271164741E+03  0.34856171690E+03  0.39351092548E+03  0.12500000000E+03 0.  0.
         25    1    1    2    0    0 -0.16369933727E+03 -0.16037831875E+03  0.51580421376E+03  0.57809831783E+03  0.12500000000E+03 0.  0.
</event>
<event>
 5    0  0.5735425E-005  0.4770638E+03  0.7546771E-02  0.1019945E+00
         21   -1    0    0  502  501  0.00000000000E+00  0.00000000000E+00  0.65551968783E+03  0.65551968783E+03  0.00000000000E+00 0. -1.
         21   -1    0    0  501  502 -0.00000000000E+00 -0.00000000000E+00 -0.34718993124E+03  0.34718993124E+03  0.00000000000E+00 0. -1.
         25    1    1    2    0    0 -0.18953667782E+03 -0.18079874945E+03  0.34123337404E+03  0.44797048519E+03  0.12500000000E+03 0.  0.
         25    1    1    2    0    0  0.58252254888E+02  0.69202925924E+02  0.19117111020E+03  0.24567002978E+03  0.12500000000E+03 0.  0.
         25    1    1    2    0    0  0.13128442294E+03  0.11159582353E+03 -0.22407472765E+03  0.30906910410E+03  0.12500000000E+03 0.  0.
</event>
<event>
 5    0  0.5735425E-005  0.3979517E+03  0.7546771E-02  0.1044491E+00
         21   -1    0    0  502  501  0.00000000000E+00  0.00000000000E+00  0.21068369492E+03  0.21068369492E+03  0.00000000000E+00 0.  1.
         21   -1    0    0  501  502 -0.00000000000E+00 -0.00000000000E+00 -0.75167455690E+03  0.75167455690E+03  0.00000000000E+00 0.  1.
         25    1    1    2    0    0 -0.23747585659E+02 -0.10010453289E+03 -0.18993568980E+03  0.24957049423E+03  0.12500000000E+03 0.  0.
         25    1    1    2    0    0  0.62300149551E+02  0.51449807191E+02  0.13875274267E+03  0.20348394259E+03  0.12500000000E+03 0.  0.
         25    1    1    2    0    0 -0.38552563893E+02  0.48654725701E+02 -0.48980791485E+03  0.50930381499E+03  0.12500000000E+03 0.  0.
</event>
<event>
 5    0  0.6668676E-005  0.3432465E+03  0.7546771E-02  0.1065422E+00
         21   -1    0    0  502  501  0.00000000000E+00  0.00000000000E+00  0.57039409442E+03  0.57039409442E+03  0.00000000000E+00 0. -1.
         21   -1    0    0  501  502 -0.00000000000E+00 -0.00000000000E+00 -0.20655569790E+03  0.20655569790E+03  0.00000000000E+00 0. -1.
         25    1    1    2    0    0 -0.25149797126E+02 -0.87837145764E+01 -0.57894749538E+02  0.14030847430E+03  0.12500000000E+03 0.  0.
         25    1    1    2    0    0  0.20551896222E+03  0.57784144552E+02  0.26515304382E+03  0.36264057665E+03  0.12500000000E+03 0.  0.
         25    1    1    2    0    0 -0.18036916509E+03 -0.49000429975E+02  0.15658010224E+03  0.27400074137E+03  0.12500000000E+03 0.  0.
</event>
<event>
 5    0  0.5955516E-005  0.3352932E+03  0.7546771E-02  0.1068818E+00
         21   -1    0    0  502  501  0.00000000000E+00  0.00000000000E+00  0.38980826949E+03  0.38980826949E+03  0.00000000000E+00 0. -1.
         21   -1    0    0  501  502 -0.00000000000E+00 -0.00000000000E+00 -0.28840218247E+03  0.28840218247E+03  0.00000000000E+00 0. -1.
         25    1    1    2    0    0 -0.32196133928E+02 -0.13703546887E+03 -0.38851537891E+02  0.19222318478E+03  0.12500000000E+03 0.  0.
         25    1    1    2    0    0 -0.71327526468E+02  0.23449957700E+03  0.68624215364E+02  0.28357001002E+03  0.12500000000E+03 0.  0.
         25    1    1    2    0    0  0.10352366040E+03 -0.97464108128E+02  0.71633409550E+02  0.20241725717E+03  0.12500000000E+03 0.  0.
</event>
<event>
 5    0  0.5735425E-005  0.2508689E+03  0.7546771E-02  0.1112757E+00
         21   -1    0    0  502  501  0.00000000000E+00  0.00000000000E+00  0.14258740513E+04  0.14258740513E+04  0.00000000000E+00 0.  1.
         21   -1    0    0  501  502 -0.00000000000E+00 -0.00000000000E+00 -0.44137972609E+02  0.44137972609E+02  0.00000000000E+00 0.  1.
         25    1    1    2    0    0 -0.69946034769E+02  0.79826454788E+02  0.70423744496E+03  0.72307682133E+03  0.12500000000E+03 0.  0.
         25    1    1    2    0    0  0.35227284613E+02 -0.53440052737E+01  0.14925318973E+03  0.19791673658E+03  0.12500000000E+03 0.  0.
         25    1    1    2    0    0  0.34718750157E+02 -0.74482449514E+02  0.52824544398E+03  0.54901846598E+03  0.12500000000E+03 0.  0.
</event>
<event>
 5    0  0.5735425E-005  0.2359418E+03  0.7546771E-02  0.1122526E+00
         21   -1    0    0  502  501  0.00000000000E+00  0.00000000000E+00  0.71101844968E+02  0.71101844968E+02  0.00000000000E+00 0. -1.
         21   -1    0    0  501  502 -0.00000000000E+00 -0.00000000000E+00 -0.78294069373E+03  0.78294069373E+03  0.00000000000E+00 0. -1.
         25    1    1    2    0    0 -0.98262316305E+02 -0.42899761554E+02 -0.17343029923E+03  0.23916300098E+03  0.12500000000E+03 0.  0.
         25    1    1    2    0    0  0.87489429015E+02  0.23406398024E+02 -0.19467992314E+03  0.24845026088E+03  0.12500000000E+03 0.  0.
         25    1    1    2    0    0  0.10772887290E+02  0.19493363529E+02 -0.34372862638E+03  0.36642927683E+03  0.12500000000E+03 0.  0.
</event>
<event>
 5    0  0.5735425E-005  0.2306347E+03  0.7546771E-02  0.1126194E+00
         21   -1    0    0  502  501  0.00000000000E+00  0.00000000000E+00  0.10272888979E+04  0.10272888979E+04  0.00000000000E+00 0. -1.
         21   -1    0    0  501  502 -0.00000000000E+00 -0.00000000000E+00 -0.51779349923E+02  0.51779349923E+02  0.00000000000E+00 0. -1.
         25    1    1    2    0    0  0.10050066629E+03  0.67247377880E+02  0.46836237375E+03  0.49961075539E+03  0.12500000000E+03 0.  0.
         25    1    1    2    0    0 -0.67836657685E+02 -0.27821376316E+02  0.27613308443E+03  0.31184983794E+03  0.12500000000E+03 0.  0.
         25    1    1    2    0    0 -0.32664008605E+02 -0.39426001564E+02  0.23101408978E+03  0.26760765447E+03  0.12500000000E+03 0.  0.
</event>
<event>
 5    0  0.5735425E-005  0.2035165E+03  0.7546771E-02  0.1146806E+00
         21   -1    0    0  502  501  0.00000000000E+00  0.00000000000E+00  0.17743130801E+04  0.17743130801E+04  0.00000000000E+00 0. -1.
         21   -1    0    0  501  502 -0.00000000000E+00 -0.00000000000E+00 -0.23343652613E+02  0.23343652613E+02  0.00000000000E+00 0. -1.
         25    1    1    2    0    0  0.26221813503E+02  0.41156902792E+02  0.56773006143E+03  0.58337286258E+03  0.12500000000E+03 0.  0.
         25    1    1    2    0    0  0.18752702374E+02 -0.49084594686E+02  0.70238632157E+03  0.71535481127E+03  0.12500000000E+03 0.  0.
         25    1    1    2    0    0 -0.44974515878E+02  0.79276918941E+01  0.48085304449E+03  0.49892905886E+03  0.12500000000E+03 0.  0.
</event>
<event>
 5    0  0.5735425E-005  0.2214094E+03  0.7546771E-02  0.1132837E+00
         21   -1    0    0  502  501  0.00000000000E+00  0.00000000000E+00  0.83821540596E+03  0.83821540596E+03  0.00000000000E+00 0. -1.
         21   -1    0    0  501  502 -0.00000000000E+00 -0.00000000000E+00 -0.58483902467E+02  0.58483902467E+02  0.00000000000E+00 0. -1.
         25    1    1    2    0    0  0.60975531176E+02 -0.21637644239E+02  0.35343618555E+03  0.38043178141E+03  0.12500000000E+03 0.  0.
         25    1    1    2    0    0 -0.31273552680E+02  0.20847246758E+02  0.33246471147E+03  0.35717002557E+03  0.12500000000E+03 0.  0.
         25    1    1    2    0    0 -0.29701978496E+02  0.79039748094E+00  0.93830606473E+02  0.15909750144E+03  0.12500000000E+03 0.  0.
</event>
<event>
 5    0  0.5735425E-005  0.2903364E+03  0.7546771E-02  0.1090174E+00
         21   -1    0    0  502  501  0.00000000000E+00  0.00000000000E+00  0.72916375071E+03  0.72916375071E+03  0.00000000000E+00 0.  1.
         21   -1    0    0  501  502 -0.00000000000E+00 -0.00000000000E+00 -0.11560535202E+03  0.11560535202E+03  0.00000000000E+00 0.  1.
         25    1    1    2    0    0  0.13843291566E+02  0.10006970682E+03  0.51001744642E+03  0.53474141283E+03  0.12500000000E+03 0.  0.
         25    1    1    2    0    0 -0.16967987187E+02  0.30151095727E+01  0.20163708491E+02  0.12778332683E+03  0.12500000000E+03 0.  0.
         25    1    1    2    0    0  0.31246956215E+01 -0.10308481639E+03  0.83377243772E+02  0.18224436307E+03  0.12500000000E+03 0.  0.
</event>
<event>
 5    0  0.5735425E-005  0.3373792E+03  0.7546771E-02  0.1067918E+00
         21   -1    0    0  502  501  0.00000000000E+00  0.00000000000E+00  0.11535081810E+04  0.11535081810E+04  0.00000000000E+00 0. -1.
         21   -1    0    0  501  502 -0.00000000000E+00 -0.00000000000E+00 -0.98676989666E+02  0.98676989666E+02  0.00000000000E+00 0. -1.
         25    1    1    2    0    0  0.18726250062E+03  0.70184792337E+02  0.19407981406E+03  0.30542613418E+03  0.12500000000E+03 0.  0.
         25    1    1    2    0    0  0.15335323617E+02 -0.31852781861E+01  0.45003341538E+03  0.46733327840E+03  0.12500000000E+03 0.  0.
         25    1    1    2    0    0 -0.20259782424E+03 -0.66999514151E+02  0.41071796186E+03  0.47942575805E+03  0.12500000000E+03 0.  0.
</event>
<event>
 5    0  0.5735425E-005  0.2369156E+03  0.7546771E-02  0.1121865E+00
         21   -1    0    0  502  501  0.00000000000E+00  0.00000000000E+00  0.84102260814E+02  0.84102260814E+02  0.00000000000E+00 0. -1.
         21   -1    0    0  501  502 -0.00000000000E+00 -0.00000000000E+00 -0.66739007828E+03  0.66739007828E+03  0.00000000000E+00 0. -1.
         25    1    1    2    0    0 -0.71054011486E+02 -0.58782114014E+02 -0.33710833702E+03  0.37117521518E+03  0.12500000000E+03 0.  0.
         25    1    1    2    0    0  0.33089356961E+02 -0.85846349740E+01 -0.59174869575E+02  0.14246145686E+03  0.12500000000E+03 0.  0.
         25    1    1    2    0    0  0.37964654525E+02  0.67366748988E+02 -0.18700461087E+03  0.23785566706E+03  0.12500000000E+03 0.  0.
</event>
<event>
 5    0  0.5735425E-005  0.3063597E+03  0.7546771E-02  0.1082104E+00
         21   -1    0    0  502  501  0.00000000000E+00  0.00000000000E+00  0.11335126713E+03  0.11335126713E+03  0.00000000000E+00 0.  1.
         21   -1    0    0  501  502 -0.00000000000E+00 -0.00000000000E+00 -0.82801243806E+03  0.82801243806E+03  0.00000000000E+00 0.  1.
         25    1    1    2    0    0 -0.18224703565E+03 -0.34353549135E+02 -0.33390766958E+03  0.40188739734E+03  0.12500000000E+03 0.  0.
         25    1    1    2    0    0  0.44934897168E+02  0.11842814525E+03 -0.18961360879E+03  0.26004363328E+03  0.12500000000E+03 0.  0.
         25    1    1    2    0    0  0.13731213848E+03 -0.84074596111E+02 -0.19113989256E+03  0.27943267456E+03  0.12500000000E+03 0.  0.
</event>
<event>
 5    0  0.5735425E-005  0.4245053E+03  0.7546771E-02  0.1035610E+00
         21   -1    0    0  502  501  0.00000000000E+00  0.00000000000E+00  0.49679951904E+03  0.49679951904E+03  0.00000000000E+00 0.  1.
         21   -1    0    0  501  502 -0.00000000000E+00 -0.00000000000E+00 -0.36273128347E+03  0.36273128347E+03  0.00000000000E+00 0.  1.
         25    1    1    2    0    0  0.12624061056E+03  0.73922844229E+02 -0.12306228528E+03  0.22840885428E+03  0.12500000000E+03 0.  0.
         25    1    1    2    0    0  0.14386518915E+03 -0.17820359567E+03  0.11117158610E+03  0.28361564787E+03  0.12500000000E+03 0.  0.
         25    1    1    2    0    0 -0.27010579971E+03  0.10428075144E+03  0.14595893475E+03  0.34750630037E+03  0.12500000000E+03 0.  0.
</event>
<event>
 5    0  0.5735425E-005  0.3015853E+03  0.7546771E-02  0.1084451E+00
         21   -1    0    0  502  501  0.00000000000E+00  0.00000000000E+00  0.55106072023E+03  0.55106072023E+03  0.00000000000E+00 0. -1.
         21   -1    0    0  501  502 -0.00000000000E+00 -0.00000000000E+00 -0.16505204509E+03  0.16505204509E+03  0.00000000000E+00 0. -1.
         25    1    1    2    0    0  0.56924054330E+00 -0.23258064332E+02  0.52884794517E+01  0.12725655035E+03  0.12500000000E+03 0.  0.
         25    1    1    2    0    0  0.87016334446E+02  0.12323733359E+03  0.36532714613E+02  0.19929606641E+03  0.12500000000E+03 0.  0.
         25    1    1    2    0    0 -0.87585574989E+02 -0.99979269253E+02  0.34418748107E+03  0.38956014857E+03  0.12500000000E+03 0.  0.
</event>
<event>
 5    0  0.5735425E-005  0.4817528E+03  0.7546771E-02  0.1018655E+00
         21   -1    0    0  502  501  0.00000000000E+00  0.00000000000E+00  0.14637603843E+03  0.14637603843E+03  0.00000000000E+00 0. -1.
         21   -1    0    0  501  502 -0.00000000000E+00 -0.00000000000E+00 -0.15855446431E+04  0.15855446431E+04  0.00000000000E+00 0. -1.
         25    1    1    2    0    0 -0.19178984459E+03  0.21774937842E+03 -0.80684459817E+03  0.86649947599E+03  0.12500000000E+03 0.  0.
         25    1    1    2    0    0  0.16717037488E+03  0.10788910684E+03 -0.31686301744E+03  0.39447834597E+03  0.12500000000E+03 0.  0.
         25    1    1    2    0    0  0.24619469708E+02 -0.32563848526E+03 -0.31546098905E+03  0.47094285958E+03  0.12500000000E+03 0.  0.
</event>
<event>
 5    0  0.5735425E-005  0.2830428E+03  0.7546771E-02  0.1094039E+00
         21   -1    0    0  502  501  0.00000000000E+00  0.00000000000E+00  0.17075445607E+03  0.17075445607E+03  0.00000000000E+00 0. -1.
         21   -1    0    0  501  502 -0.00000000000E+00 -0.00000000000E+00 -0.46917225988E+03  0.46917225988E+03  0.00000000000E+00 0. -1.
         25    1    1    2    0    0 -0.45306375045E+02 -0.27611617646E+01 -0.12566632139E+02  0.13357848583E+03  0.12500000000E+03 0.  0.
         25    1    1    2    0    0 -0.15595749745E+01  0.36817952395E+01  0.57727897509E+02  0.13774432127E+03  0.12500000000E+03 0.  0.
         25    1    1    2    0    0  0.46865950020E+02 -0.92063347487E+00 -0.34357906918E+03  0.36860390885E+03  0.12500000000E+03 0.  0.
</event>
<event>
 5    0  0.5735425E-005  0.2833837E+03  0.7546771E-02  0.1093855E+00
         21   -1    0    0  502  501  0.00000000000E+00  0.00000000000E+00  0.10497840690E+03  0.10497840690E+03  0.00000000000E+00 0. -1.
         21   -1    0    0  501  502 -0.00000000000E+00 -0.00000000000E+00 -0.76497950086E+03  0.76497950086E+03  0.00000000000E+00 0. -1.
         25    1    1    2    0    0  0.17530103406E+03  0.41374864508E+01 -0.22549063816E+03  0.31179897247E+03  0.12500000000E+03 0.  0.
         25    1    1    2    0    0 -0.55121211519E+02  0.14393125908E+02 -0.70215572890E+02  0.15427487387E+03  0.12500000000E+03 0.  0.
         25    1    1    2    0    0 -0.12017982255E+03 -0.18530612358E+02 -0.36429488291E+03  0.40388406141E+03  0.12500000000E+03 0.  0.
</event>
<event>
 5    0  0.5735425E-005  0.2827707E+03  0.7546771E-02  0.1094185E+00
         21   -1    0    0  502  501  0.00000000000E+00  0.00000000000E+00  0.35900215435E+03  0.35900215435E+03  0.00000000000E+00 0. -1.
         21   -1    0    0  501  502 -0.00000000000E+00 -0.00000000000E+00 -0.22272636149E+03  0.22272636149E+03  0.00000000000E+00 0. -1.
         25    1    1    2    0    0  0.46065076129E+02 -0.63502796969E+01 -0.54380071491E+02  0.14402954373E+03  0.12500000000E+03 0.  0.
         25    1    1    2    0    0 -0.24486900891E+02 -0.14519436947E+03  0.12216835100E+03  0.22854128561E+03  0.12500000000E+03 0.  0.
         25    1    1    2    0    0 -0.21578175238E+02  0.15154464917E+03  0.68487513361E+02  0.20915768650E+03  0.12500000000E+03 0.  0.
</event>
<event>
 5    0  0.5735425E-005  0.4228067E+03  0.7546771E-02  0.1036157E+00
         21   -1    0    0  502  501  0.00000000000E+00  0.00000000000E+00  0.19837022021E+04  0.19837022021E+04  0.00000000000E+00 0. -1.
         21   -1    0    0  501  502 -0.00000000000E+00 -0.00000000000E+00 -0.90117124753E+02  0.90117124753E+02  0.00000000000E+00 0. -1.
         25    1    1    2    0    0  0.16697764730E+03  0.19349305500E+02  0.16669740691E+04  0.16800843662E+04  0.12500000000E+03 0.  0.
         25    1    1    2    0    0 -0.58900259285E+02  0.22841130727E+02  0.15460622156E+03  0.20861217976E+03  0.12500000000E+03 0.  0.
         25    1    1    2    0    0 -0.10807738802E+03 -0.42190436227E+02  0.72004786636E+02  0.18512278090E+03  0.12500000000E+03 0.  0.
</event>
<event>
 5    0  0.5735425E-005  0.5605741E+03  0.7546771E-02  0.9990756E-01
         21   -1    0    0  502  501  0.00000000000E+00  0.00000000000E+00  0.49305291045E+03  0.49305291045E+03  0.00000000000E+00 0.  1.
         21   -1    0    0  501  502 -0.00000000000E+00 -0.00000000000E+00 -0.63734206920E+03  0.63734206920E+03  0.00000000000E+00 0.  1.
         25    1    1    2    0    0  0.28844858222E+03 -0.35848026425E+03 -0.47382079778E+02  0.47914585037E+03  0.12500000000E+03 0.  0.
         25    1    1    2    0    0 -0.42761098319E+02  0.32647324482E+03 -0.12172195032E+03  0.37263188846E+03  0.12500000000E+03 0.  0.
         25    1    1    2    0    0 -0.24568748391E+03  0.32007019432E+02  0.24814871337E+02  0.27861724082E+03  0.12500000000E+03 0.  0.
</event>
<event>
 5    0  0.5735425E-005  0.2478474E+03  0.7546771E-02  0.1114673E+00
         21   -1    0    0  502  501  0.00000000000E+00  0.00000000000E+00  0.74903659777E+03  0.74903659777E+03  0.00000000000E+00 0. -1.
         21   -1    0    0  501  502 -0.00000000000E+00 -0.00000000000E+00 -0.82009785707E+02  0.82009785707E+02  0.00000000000E+00 0. -1.
         25    1    1    2    0    0 -0.49769381198E+02  0.91347676623E+00  0.26956228419E+03  0.30127504178E+03  0.12500000000E+03 0.  0.
         25    1    1    2    0    0  0.12014489798E+03 -0.62660081040E+02  0.27607442166E+03  0.33196862587E+03  0.12500000000E+03 0.  0.
         25    1    1    2    0    0 -0.70375516779E+02  0.61746604274E+02  0.12139010621E+03  0.19780271583E+03  0.12500000000E+03 0.  0.
</event>
<event>
 5    0  0.5735425E-005  0.4055807E+03  0.7546771E-02  0.1041864E+00
         21   -1    0    0  502  501  0.00000000000E+00  0.00000000000E+00  0.53726731696E+03  0.53726731696E+03  0.00000000000E+00 0.  1.
         21   -1    0    0  501  502 -0.00000000000E+00 -0.00000000000E+00 -0.30617101937E+03  0.30617101937E+03  0.00000000000E+00 0.  1.
         25    1    1    2    0    0  0.13520675260E+03  0.26705153262E+03 -0.32597058985E+01  0.32439638208E+03  0.12500000000E+03 0.  0.
         25    1    1    2    0    0 -0.19990273114E+03 -0.14522670031E+03  0.14442668550E+03  0.31230748291E+03  0.12500000000E+03 0.  0.
         25    1    1    2    0    0  0.64695978539E+02 -0.12182483231E+03  0.89929317997E+02  0.20673447134E+03  0.12500000000E+03 0.  0.
</event>
<event>
 5    0  0.5735425E-005  0.3477272E+03  0.7546771E-02  0.1063552E+00
         21   -1    0    0  502  501  0.00000000000E+00  0.00000000000E+00  0.22943227808E+03  0.22943227808E+03  0.00000000000E+00 0.  1.
         21   -1    0    0  501  502 -0.00000000000E+00 -0.00000000000E+00 -0.52701478170E+03  0.52701478170E+03  0.00000000000E+00 0.  1.
         25    1    1    2    0    0  0.21599674189E+03 -0.81990628738E+02 -0.13867360727E+03  0.29703943351E+03  0.12500000000E+03 0.  0.
         25    1    1    2    0    0 -0.26031136876E+02  0.53401554812E+02  0.52092034300E+02  0.14787807877E+03  0.12500000000E+03 0.  0.
         25    1    1    2    0    0 -0.18996560501E+03  0.28589073926E+02 -0.21100093065E+03  0.31152954751E+03  0.12500000000E+03 0.  0.
</event>
<event>
 5    0  0.5735425E-005  0.2405070E+03  0.7546771E-02  0.1119456E+00
         21   -1    0    0  502  501  0.00000000000E+00  0.00000000000E+00  0.55134790187E+03  0.55134790187E+03  0.00000000000E+00 0. -1.
         21   -1    0    0  501  502 -0.00000000000E+00 -0.00000000000E+00 -0.10491307194E+03  0.10491307194E+03  0.00000000000E+00 0. -1.
         25    1    1    2    0    0  0.21326808345E+02  0.41644493335E+02  0.77975839571E+02  0.15457790313E+03  0.12500000000E+03 0.  0.
         25    1    1    2    0    0  0.29203235550E+02  0.82557422902E+02  0.12718851651E+03  0.19867177901E+03  0.12500000000E+03 0.  0.
         25    1    1    2    0    0 -0.50530043895E+02 -0.12420191624E+03  0.24127047385E+03  0.30301129168E+03  0.12500000000E+03 0.  0.
</event>
<event>
 5    0  0.5735425E-005  0.4903285E+03  0.7546771E-02  0.1016335E+00
         21   -1    0    0  502  501  0.00000000000E+00  0.00000000000E+00  0.34329579666E+03  0.34329579666E+03  0.00000000000E+00 0. -1.
         21   -1    0    0  501  502 -0.00000000000E+00 -0.00000000000E+00 -0.70033489771E+03  0.70033489771E+03  0.00000000000E+00 0. -1.
         25    1    1    2    0    0  0.54747075056E+02 -0.11208218466E+03 -0.10227685308E+03  0.20407158798E+03  0.12500000000E+03 0.  0.
         25    1    1    2    0    0  0.18914213724E+03 -0.15607933736E+03 -0.34923490203E+03  0.44466338327E+03  0.12500000000E+03 0.  0.
         25    1    1    2    0    0 -0.24388921230E+03  0.26816152202E+03  0.94472654062E+02  0.39489572311E+03  0.12500000000E+03 0.  0.
</event>
<event>
 5    0  0.5735425E-005  0.2405984E+03  0.7546771E-02  0.1119395E+00
         21   -1    0    0  502  501  0.00000000000E+00  0.00000000000E+00  0.53271849462E+03  0.53271849462E+03  0.00000000000E+00 0. -1.
         21   -1    0    0  501  502 -0.00000000000E+00 -0.00000000000E+00 -0.10866450993E+03  0.10866450993E+03  0.00000000000E+00 0. -1.
         25    1    1    2    0    0 -0.84600214696E+01  0.67899066588E+02  0.31398301855E+03  0.34480746968E+03  0.12500000000E+03 0.  0.
         25    1    1    2    0    0  0.93341656555E+01 -0.81659797030E+02  0.62123573010E+02  0.16198699770E+03  0.12500000000E+03 0.  0.
         25    1    1    2    0    0 -0.87414418590E+00  0.13760730442E+02  0.47947393123E+02  0.13458853717E+03  0.12500000000E+03 0.  0.
</event>
<event>
 5    0  0.5735425E-005  0.3175027E+03  0.7546771E-02  0.1076804E+00
         21   -1    0    0  502  501  0.00000000000E+00  0.00000000000E+00  0.58759484003E+03  0.58759484003E+03  0.00000000000E+00 0. -1.
         21   -1    0    0  501  502 -0.00000000000E+00 -0.00000000000E+00 -0.17156032817E+03  0.17156032817E+03  0.00000000000E+00 0. -1.
         25    1    1    2    0    0  0.62400752264E+02 -0.26306481124E+02  0.12671473391E+03  0.19044030199E+03  0.12500000000E+03 0.  0.
         25    1    1    2    0    0  0.55098997854E+02  0.17654518413E+03  0.25367342925E+03  0.33790429164E+03  0.12500000000E+03 0.  0.
         25    1    1    2    0    0 -0.11749975012E+03 -0.15023870300E+03  0.35646348707E+02  0.23081057457E+03  0.12500000000E+03 0.  0.
</event>
<event>
 5    0  0.5735425E-005  0.2940067E+03  0.7546771E-02  0.1088276E+00
         21   -1    0    0  502  501  0.00000000000E+00  0.00000000000E+00  0.15940305942E+04  0.15940305942E+04  0.00000000000E+00 0.  1.
         21   -1    0    0  501  502 -0.00000000000E+00 -0.00000000000E+00 -0.54227261669E+02  0.54227261669E+02  0.00000000000E+00 0.  1.
         25    1    1    2    0    0  0.10368196255E+03  0.12136379273E+03  0.66438468346E+03  0.69463020893E+03  0.12500000000E+03 0.  0.
         25    1    1    2    0    0  0.52298307024E+02 -0.56929025337E+02  0.52413618620E+03  0.54435261415E+03  0.12500000000E+03 0.  0.
         25    1    1    2    0    0 -0.15598026957E+03 -0.64434767389E+02  0.35128246286E+03  0.40927503278E+03  0.12500000000E+03 0.  0.
</event>
<event>
 5    0  0.5735425E-005  0.3384024E+03  0.7546771E-02  0.1067478E+00
         21   -1    0    0  502  501  0.00000000000E+00  0.00000000000E+00  0.89489159075E+02  0.89489159075E+02  0.00000000000E+00 0. -1.
         21   -1    0    0  501  502 -0.00000000000E+00 -0.00000000000E+00 -0.12796654360E+04  0.12796654360E+04  0.00000000000E+00 0. -1.
         25    1    1    2    0    0  0.48487141894E+02  0.30313854061E+02 -0.15250743976E+02  0.13830226993E+03  0.12500000000E+03 0.  0.
         25    1    1    2    0    0  0.45151000636E+02 -0.10199341862E+02 -0.93112293516E+03  0.94061552178E+03  0.12500000000E+03 0.  0.
         25    1    1    2    0    0 -0.93638142531E+02 -0.20114512199E+02 -0.24380259780E+03  0.29023680337E+03  0.12500000000E+03 0.  0.
</event>
<event>
 5    0  0.5735425E-005  0.4698603E+03  0.7546771E-02  0.1021960E+00
         21   -1    0    0  502  501  0.00000000000E+00  0.00000000000E+00  0.23280472983E+03  0.23280472983E+03  0.00000000000E+00 0.  1.
         21   -1    0    0  501  502 -0.00000000000E+00 -0.00000000000E+00 -0.94829972586E+03  0.94829972586E+03  0.00000000000E+00 0.  1.
         25    1    1    2    0    0  0.40387152673E+03 -0.21550005691E+02 -0.47587548447E+03  0.63691372223E+03  0.12500000000E+03 0.  0.
         25    1    1    2    0    0 -0.27922875789E+03 -0.21731493107E+02 -0.15676739741E+03  0.34444444242E+03  0.12500000000E+03 0.  0.
         25    1    1    2    0    0 -0.12464276885E+03  0.43281498798E+02 -0.82852114158E+02  0.19974629104E+03  0.12500000000E+03 0.  0.
</event>
<event>
 5    0  0.5735425E-005  0.3800082E+03  0.7546771E-02  0.1050931E+00
         21   -1    0    0  502  501  0.00000000000E+00  0.00000000000E+00  0.76068529458E+03  0.76068529458E+03  0.00000000000E+00 0.  1.
         21   -1    0    0  501  502 -0.00000000000E+00 -0.00000000000E+00 -0.18983699701E+03  0.18983699701E+03  0.00000000000E+00 0.  1.
         25    1    1    2    0    0 -0.69630594840E+02  0.52974408167E+02 -0.45801583138E+02  0.15930314710E+03  0.12500000000E+03 0.  0.
         25    1    1    2    0    0  0.16959080329E+03 -0.83306973991E+01  0.58530814427E+03  0.62212624509E+03  0.12500000000E+03 0.  0.
         25    1    1    2    0    0 -0.99960208445E+02 -0.44643710768E+02  0.31341736436E+02  0.16909289940E+03  0.12500000000E+03 0.  0.
</event>
<event>
 5    0  0.5735425E-005  0.2671532E+03  0.7546771E-02  0.1102920E+00
         21   -1    0    0  502  501  0.00000000000E+00  0.00000000000E+00  0.15683356330E+03  0.15683356330E+03  0.00000000000E+00 0.  1.
         21   -1    0    0  501  502 -0.00000000000E+00 -0.00000000000E+00 -0.45507383905E+03  0.45507383905E+03  0.00000000000E+00 0.  1.
         25    1    1    2    0    0  0.48518761409E+02  0.92693618276E+02 -0.23301997862E+03  0.28437560992E+03  0.12500000000E+03 0.  0.
         25    1    1    2    0    0 -0.32303062795E+02  0.39673058482E+02 -0.52589939409E+01  0.13516692070E+03  0.12500000000E+03 0.  0.
         25    1    1    2    0    0 -0.16215698614E+02 -0.13236667676E+03 -0.59961303188E+02  0.19236487173E+03  0.12500000000E+03 0.  0.
</event>
<event>
 5    0  0.5735425E-005  0.2847003E+03  0.7546771E-02  0.1093149E+00
         21   -1    0    0  502  501  0.00000000000E+00  0.00000000000E+00  0.73459006783E+03  0.73459006783E+03  0.00000000000E+00 0. -1.
         21   -1    0    0  501  502 -0.00000000000E+00 -0.00000000000E+00 -0.11033944840E+03  0.11033944840E+03  0.00000000000E+00 0. -1.
         25    1    1    2    0    0 -0.25330133426E+02  0.71433324023E+02  0.46083876108E+02  0.15327445670E+03  0.12500000000E+03 0.  0.
         25    1    1    2    0    0 -0.74386767192E+02 -0.73191169825E+02  0.47304281567E+03  0.50028476284E+03  0.12500000000E+03 0.  0.
         25    1    1    2    0    0  0.99716900618E+02  0.17578458018E+01  0.10512392765E+03  0.19137029669E+03  0.12500000000E+03 0.  0.
</event>
<event>
 5    0  0.5735425E-005  0.2457822E+03  0.7546771E-02  0.1116000E+00
         21   -1    0    0  502  501  0.00000000000E+00  0.00000000000E+00  0.33882184510E+03  0.33882184510E+03  0.00000000000E+00 0. -1.
         21   -1    0    0  501  502 -0.00000000000E+00 -0.00000000000E+00 -0.17829096108E+03  0.17829096108E+03  0.00000000000E+00 0. -1.
         25    1    1    2    0    0 -0.54319903544E+02 -0.84904956121E+02  0.68032775439E+02  0.17439312495E+03  0.12500000000E+03 0.  0.
         25    1    1    2    0    0  0.27717346438E+02 -0.51734256348E+02  0.10632384257E+02  0.13850174067E+03  0.12500000000E+03 0.  0.
         25    1    1    2    0    0  0.26602557106E+02  0.13663921247E+03  0.81865724325E+02  0.20421794056E+03  0.12500000000E+03 0.  0.
</event>
<event>
 5    0  0.5735425E-005  0.2406105E+03  0.7546771E-02  0.1119387E+00
         21   -1    0    0  502  501  0.00000000000E+00  0.00000000000E+00  0.16876107538E+03  0.16876107538E+03  0.00000000000E+00 0.  1.
         21   -1    0    0  501  502 -0.00000000000E+00 -0.00000000000E+00 -0.34304951032E+03  0.34304951032E+03  0.00000000000E+00 0.  1.
         25    1    1    2    0    0 -0.22681035205E+02  0.47711014971E+02 -0.16075364219E+03  0.21037467477E+03  0.12500000000E+03 0.  0.
         25    1    1    2    0    0  0.89640116562E+02 -0.27751991899E+02 -0.22691516737E+02  0.15794121844E+03  0.12500000000E+03 0.  0.
         25    1    1    2    0    0 -0.66959081357E+02 -0.19959023073E+02  0.91567239896E+01  0.14349469249E+03  0.12500000000E+03 0.  0.
</event>
<event>
 5    0  0.5735425E-005  0.2352640E+03  0.7546771E-02  0.1122989E+00
         21   -1    0    0  502  501  0.00000000000E+00  0.00000000000E+00  0.53990920158E+03  0.53990920158E+03  0.00000000000E+00 0. -1.
         21   -1    0    0  501  502 -0.00000000000E+00 -0.00000000000E+00 -0.10251567063E+03  0.10251567063E+03  0.00000000000E+00 0. -1.
         25    1    1    2    0    0  0.26032393526E+02 -0.33293745928E+02  0.13273550514E+03  0.18716269221E+03  0.12500000000E+03 0.  0.
         25    1    1    2    0    0 -0.10573849771E+03  0.71863379909E+02  0.20729525987E+03  0.27375408679E+03  0.12500000000E+03 0.  0.
         25    1    1    2    0    0  0.79706104188E+02 -0.38569633981E+02  0.97362765942E+02  0.18150809321E+03  0.12500000000E+03 0.  0.
</event>
<event>
 5    0  0.5735425E-005  0.3120732E+03  0.7546771E-02  0.1079356E+00
         21   -1    0    0  502  501  0.00000000000E+00  0.00000000000E+00  0.17737900627E+03  0.17737900627E+03  0.00000000000E+00 0.  1.
         21   -1    0    0  501  502 -0.00000000000E+00 -0.00000000000E+00 -0.54904836601E+03  0.54904836601E+03  0.00000000000E+00 0.  1.
         25    1    1    2    0    0  0.12478772214E+03  0.17728762808E+02 -0.13127199588E+03  0.22077957680E+03  0.12500000000E+03 0.  0.
         25    1    1    2    0    0  0.10299868575E+02  0.76092357936E+02 -0.25959175802E+03  0.29817614771E+03  0.12500000000E+03 0.  0.
         25    1    1    2    0    0 -0.13508759071E+03 -0.93821120744E+02  0.19194394172E+02  0.20747164777E+03  0.12500000000E+03 0.  0.
</event>
<event>
 5    0  0.5735425E-005  0.5211204E+03  0.7546771E-02  0.1008409E+00
         21   -1    0    0  502  501  0.00000000000E+00  0.00000000000E+00  0.21056100372E+04  0.21056100372E+04  0.00000000000E+00 0.  1.
         21   -1    0    0  501  502 -0.00000000000E+00 -0.00000000000E+00 -0.12897282321E+03  0.12897282321E+03  0.00000000000E+00 0.  1.
         25    1    1    2    0    0  0.11400904593E+03  0.15768245117E+03  0.53369520751E+01  0.23133374379E+03  0.12500000000E+03 0.  0.
         25    1    1    2    0    0 -0.13456682807E+03 -0.91643505377E+02  0.13649359531E+04  0.13802832750E+04  0.12500000000E+03 0.  0.
         25    1    1    2    0    0  0.20557782136E+02 -0.66038945791E+02  0.60636430883E+03  0.62296584159E+03  0.12500000000E+03 0.  0.
</event>
<event>
 5    0  0.5735425E-005  0.3756062E+03  0.7546771E-02  0.1052570E+00
         21   -1    0    0  502  501  0.00000000000E+00  0.00000000000E+00  0.59303764505E+03  0.59303764505E+03  0.00000000000E+00 0. -1.
         21   -1    0    0  501  502 -0.00000000000E+00 -0.00000000000E+00 -0.23789392028E+03  0.23789392028E+03  0.00000000000E+00 0. -1.
         25    1    1    2    0    0  0.37916965982E+02  0.11004172239E+03 -0.57511353653E+02  0.18022051153E+03  0.12500000000E+03 0.  0.
         25    1    1    2    0    0  0.99851034604E+02  0.62040854661E+02  0.61701045211E+01  0.17170430090E+03  0.12500000000E+03 0.  0.
         25    1    1    2    0    0 -0.13776800059E+03 -0.17208257705E+03  0.40648497391E+03  0.47900675290E+03  0.12500000000E+03 0.  0.
</event>
<event>
 5    0  0.5735425E-005  0.3219379E+03  0.7546771E-02  0.1074761E+00
         21   -1    0    0  502  501  0.00000000000E+00  0.00000000000E+00  0.38626137186E+02  0.38626137186E+02  0.00000000000E+00 0. -1.
         21   -1    0    0  501  502 -0.00000000000E+00 -0.00000000000E+00 -0.26832607629E+04  0.26832607629E+04  0.00000000000E+00 0.  1.
         25    1    1    2    0    0 -0.93080730195E+02  0.80029316338E+02 -0.71881814597E+03  0.73986028463E+03  0.12500000000E+03 0.  0.
         25    1    1    2    0    0 -0.11626347432E+03  0.48933464086E+02 -0.52234836798E+03  0.55171051912E+03  0.12500000000E+03 0.  0.
         25    1    1    2    0    0  0.20934420452E+03 -0.12896278042E+03 -0.14034681117E+04  0.14303160963E+04  0.12500000000E+03 0.  0.
</event>
<event>
 5    0  0.5735425E-005  0.4566976E+03  0.7546771E-02  0.1025743E+00
         21   -1    0    0  502  501  0.00000000000E+00  0.00000000000E+00  0.32011123059E+03  0.32011123059E+03  0.00000000000E+00 0.  1.
         21   -1    0    0  501  502 -0.00000000000E+00 -0.00000000000E+00 -0.65156318630E+03  0.65156318630E+03  0.00000000000E+00 0.  1.
         25    1    1    2    0    0  0.25048841961E+02  0.14152868883E+03 -0.20979375365E+03  0.28336590006E+03  0.12500000000E+03 0.  0.
         25    1    1    2    0    0 -0.16454549898E+03 -0.64056105109E+00  0.20181872798E+03  0.28884499393E+03  0.12500000000E+03 0.  0.
         25    1    1    2    0    0  0.13949665702E+03 -0.14088812778E+03 -0.32347693004E+03  0.39946352291E+03  0.12500000000E+03 0.  0.
</event>
<event>
 5    0  0.5735425E-005  0.3461026E+03  0.7546771E-02  0.1064226E+00
         21   -1    0    0  502  501  0.00000000000E+00  0.00000000000E+00  0.17972478376E+03  0.17972478376E+03  0.00000000000E+00 0.  1.
         21   -1    0    0  501  502 -0.00000000000E+00 -0.00000000000E+00 -0.66650232521E+03  0.66650232521E+03  0.00000000000E+00 0.  1.
         25    1    1    2    0    0  0.80679091548E+02  0.51546815486E+02  0.10284679774E+03  0.18806555720E+03  0.12500000000E+03 0.  0.
         25    1    1    2    0    0 -0.83010149686E+02 -0.57132054981E+02 -0.39937127707E+03  0.43043835053E+03  0.12500000000E+03 0.  0.
         25    1    1    2    0    0  0.23310581379E+01  0.55852394948E+01 -0.19025306212E+03  0.22772320123E+03  0.12500000000E+03 0.  0.
</event>
<event>
 5    0  0.5735425E-005  0.3708974E+03  0.7546771E-02  0.1054350E+00
         21   -1    0    0  502  501  0.00000000000E+00  0.00000000000E+00  0.32669089368E+03  0.32669089368E+03  0.00000000000E+00 0.  1.
         21   -1    0    0  501  502 -0.00000000000E+00 -0.00000000000E+00 -0.42108576007E+03  0.42108576007E+03  0.00000000000E+00 0.  1.
         25    1    1    2    0    0 -0.17644967898E+02  0.13117963629E+03 -0.26752887424E+03  0.32359873366E+03  0.12500000000E+03 0.  0.
         25    1    1    2    0    0  0.48537034772E+01  0.27052562726E+02 -0.36431518373E+02  0.13307011354E+03  0.12500000000E+03 0.  0.
         25    1    1    2    0    0  0.12791264421E+02 -0.15823219902E+03  0.20956552623E+03  0.29110780655E+03  0.12500000000E+03 0.  0.
</event>
<event>
 5    0  0.5735425E-005  0.3872049E+03  0.7546771E-02  0.1048302E+00
         21   -1    0    0  502  501  0.00000000000E+00  0.00000000000E+00  0.41273002521E+03  0.41273002521E+03  0.00000000000E+00 0. -1.
         21   -1    0    0  501  502 -0.00000000000E+00 -0.00000000000E+00 -0.36325838779E+03  0.36325838779E+03  0.00000000000E+00 0. -1.
         25    1    1    2    0    0  0.15784267710E+03  0.45934684045E+02  0.86870445119E+02  0.22404414776E+03  0.12500000000E+03 0.  0.
         25    1    1    2    0    0 -0.11065300862E+03 -0.14671346122E+03 -0.21407953369E+03  0.30858382129E+03  0.12500000000E+03 0.  0.
         25    1    1    2    0    0 -0.47189668474E+02  0.10077877717E+03  0.17668072599E+03  0.24336044394E+03  0.12500000000E+03 0.  0.
</event>
<event>
 5    0  0.5735425E-005  0.5555860E+03  0.7546771E-02  0.1000209E+00
         21   -1    0    0  502  501  0.00000000000E+00  0.00000000000E+00  0.41985635444E+03  0.41985635444E+03  0.00000000000E+00 0.  1.
         21   -1    0    0  501  502 -0.00000000000E+00 -0.00000000000E+00 -0.73519378286E+03  0.73519378286E+03  0.00000000000E+00 0.  1.
         25    1    1    2    0    0 -0.24137903793E+03 -0.15236773406E+03  0.23326889911E+03  0.38925460257E+03  0.12500000000E+03 0.  0.
         25    1    1    2    0    0  0.30249297683E+03  0.16569573134E+03 -0.49493092616E+03  0.61606712141E+03  0.12500000000E+03 0.  0.
         25    1    1    2    0    0 -0.61113938904E+02 -0.13327997280E+02 -0.53675401368E+02  0.14972841331E+03  0.12500000000E+03 0.  0.
</event>
<event>
 5    0  0.5735425E-005  0.2851939E+03  0.7546771E-02  0.1092886E+00
         21   -1    0    0  502  501  0.00000000000E+00  0.00000000000E+00  0.19128779373E+03  0.19128779373E+03  0.00000000000E+00 0. -1.
         21   -1    0    0  501  502 -0.00000000000E+00 -0.00000000000E+00 -0.42519980395E+03  0.42519980395E+03  0.00000000000E+00 0. -1.
         25    1    1    2    0    0  0.20506436553E+02 -0.10512947806E+03 -0.57135083805E+02  0.17424734976E+03  0.12500000000E+03 0.  0.
         25    1    1    2    0    0  0.38961777805E+02  0.19348422806E+03 -0.14503692264E+03  0.27498159132E+03  0.12500000000E+03 0.  0.
         25    1    1    2    0    0 -0.59468214358E+02 -0.88354750003E+02 -0.31740003770E+02  0.16725865660E+03  0.12500000000E+03 0.  0.
</event>
<event>
 5    0  0.5735425E-005  0.2815601E+03  0.7546771E-02  0.1094840E+00
         21   -1    0    0  502  501  0.00000000000E+00  0.00000000000E+00  0.11506719907E+03  0.11506719907E+03  0.00000000000E+00 0. -1.
         21   -1    0    0  501  502 -0.00000000000E+00 -0.00000000000E+00 -0.68895460708E+03  0.68895460708E+03  0.00000000000E+00 0. -1.
         25    1    1    2    0    0  0.42100210106E+02  0.77769469687E+02 -0.98798785993E+02  0.18222710616E+03  0.12500000000E+03 0.  0.
         25    1    1    2    0    0 -0.12636776113E+03 -0.11318731356E+03 -0.14095911726E+03  0.25352445985E+03  0.12500000000E+03 0.  0.
         25    1    1    2    0    0  0.84267551026E+02  0.35417843873E+02 -0.33412950476E+03  0.36827024014E+03  0.12500000000E+03 0.  0.
</event>
<event>
 5    0  0.5735425E-005  0.3826337E+03  0.7546771E-02  0.1049965E+00
         21   -1    0    0  502  501  0.00000000000E+00  0.00000000000E+00  0.28194026328E+03  0.28194026328E+03  0.00000000000E+00 0.  1.
         21   -1    0    0  501  502 -0.00000000000E+00 -0.00000000000E+00 -0.51928924725E+03  0.51928924725E+03  0.00000000000E+00 0.  1.
         25    1    1    2    0    0 -0.24288487643E+02  0.19227521618E+03  0.13178671975E+03  0.26561707192E+03  0.12500000000E+03 0.  0.
         25    1    1    2    0    0 -0.91262441849E+02 -0.10545573024E+03 -0.24238192726E+03  0.30630661598E+03  0.12500000000E+03 0.  0.
         25    1    1    2    0    0  0.11555092949E+03 -0.86819485947E+02 -0.12675377646E+03  0.22930582263E+03  0.12500000000E+03 0.  0.
</event>
<event>
 5    0  0.5735425E-005  0.2739714E+03  0.7546771E-02  0.1099028E+00
         21   -1    0    0  502  501  0.00000000000E+00  0.00000000000E+00  0.36440739049E+02  0.36440739049E+02  0.00000000000E+00 0. -1.
         21   -1    0    0  501  502 -0.00000000000E+00 -0.00000000000E+00 -0.20597922589E+04  0.20597922589E+04  0.00000000000E+00 0. -1.
         25    1    1    2    0    0  0.10597653753E+03 -0.63880593555E+02 -0.37366375598E+03  0.41299074962E+03  0.12500000000E+03 0.  0.
         25    1    1    2    0    0  0.12710008446E+02 -0.31551578891E+02 -0.48479349548E+03  0.50180352700E+03  0.12500000000E+03 0.  0.
         25    1    1    2    0    0 -0.11868654598E+03  0.95432172445E+02 -0.11648942684E+04  0.11814387214E+04  0.12500000000E+03 0.  0.
</event>
<event>
 5    0  0.5735425E-005  0.3039824E+03  0.7546771E-02  0.1083267E+00
         21   -1    0    0  502  501  0.00000000000E+00  0.00000000000E+00  0.10915788040E+04  0.10915788040E+04  0.00000000000E+00 0.  1.
         21   -1    0    0  501  502 -0.00000000000E+00 -0.00000000000E+00 -0.84652905689E+02  0.84652905689E+02  0.00000000000E+00 0.  1.
         25    1    1    2    0    0 -0.51462819115E+02  0.24202734122E+02  0.51227297125E+02  0.14657226907E+03  0.12500000000E+03 0.  0.
         25    1    1    2    0    0  0.30512549264E+02 -0.13620892178E+03  0.68752465794E+03  0.71260019738E+03  0.12500000000E+03 0.  0.
         25    1    1    2    0    0  0.20950269851E+02  0.11200618766E+03  0.26817394322E+03  0.31705924321E+03  0.12500000000E+03 0.  0.
</event>
<event>
 5    0  0.5735425E-005  0.2297686E+03  0.7546771E-02  0.1126803E+00
         21   -1    0    0  502  501  0.00000000000E+00  0.00000000000E+00  0.13445738817E+04  0.13445738817E+04  0.00000000000E+00 0.  1.
         21   -1    0    0  501  502 -0.00000000000E+00 -0.00000000000E+00 -0.39264181266E+02  0.39264181266E+02  0.00000000000E+00 0.  1.
         25    1    1    2    0    0 -0.68698190576E+02 -0.90220358798E+01  0.22756056485E+03  0.26871853154E+03  0.12500000000E+03 0.  0.
         25    1    1    2    0    0  0.86158490049E+02  0.20666926828E+02  0.70342967248E+03  0.71992271210E+03  0.12500000000E+03 0.  0.
         25    1    1    2    0    0 -0.17460299473E+02 -0.11644890948E+02  0.37431946308E+03  0.39519681930E+03  0.12500000000E+03 0.  0.
</event>
<event>
 5    0  0.5735425E-005  0.2437564E+03  0.7546771E-02  0.1117315E+00
         21   -1    0    0  502  501  0.00000000000E+00  0.00000000000E+00  0.50442569869E+03  0.50442569869E+03  0.00000000000E+00 0.  1.
         21   -1    0    0  501  502 -0.00000000000E+00 -0.00000000000E+00 -0.11779174317E+03  0.11779174317E+03  0.00000000000E+00 0.  1.
         25    1    1    2    0    0 -0.94926659796E+00  0.15835326942E+02 -0.23364500949E+02  0.12815053098E+03  0.12500000000E+03 0.  0.
         25    1    1    2    0    0 -0.22426759071E+02  0.52803487091E+01  0.29539823311E+03  0.32158351594E+03  0.12500000000E+03 0.  0.
         25    1    1    2    0    0  0.23376025669E+02 -0.21115675651E+02  0.11460022336E+03  0.17248339493E+03  0.12500000000E+03 0.  0.
</event>
<event>
 5    0  0.5735425E-005  0.2527685E+03  0.7546771E-02  0.1111568E+00
         21   -1    0    0  502  501  0.00000000000E+00  0.00000000000E+00  0.31643992948E+03  0.31643992948E+03  0.00000000000E+00 0. -1.
         21   -1    0    0  501  502 -0.00000000000E+00 -0.00000000000E+00 -0.20190854270E+03  0.20190854270E+03  0.00000000000E+00 0. -1.
         25    1    1    2    0    0 -0.11032907334E+03 -0.23596309977E+02 -0.13581064732E+02  0.16893411611E+03  0.12500000000E+03 0.  0.
         25    1    1    2    0    0  0.11545226001E+03  0.52194714346E+02  0.15464351602E+02  0.17865513908E+03  0.12500000000E+03 0.  0.
         25    1    1    2    0    0 -0.51231866773E+01 -0.28598404370E+02  0.11264809991E+03  0.17075921699E+03  0.12500000000E+03 0.  0.
</event>
<event>
 5    0  0.5735425E-005  0.2926073E+03  0.7546771E-02  0.1088996E+00
         21   -1    0    0  502  501  0.00000000000E+00  0.00000000000E+00  0.33796798216E+03  0.33796798216E+03  0.00000000000E+00 0.  1.
         21   -1    0    0  501  502 -0.00000000000E+00 -0.00000000000E+00 -0.25333472864E+03  0.25333472864E+03  0.00000000000E+00 0.  1.
         25    1    1    2    0    0  0.17006364875E+03  0.37419202393E+02  0.81648964047E+00  0.21435369833E+03  0.12500000000E+03 0.  0.
         25    1    1    2    0    0 -0.13108680905E+03 -0.10281305374E+03 -0.26687114912E-01  0.20827692200E+03  0.12500000000E+03 0.  0.
         25    1    1    2    0    0 -0.38976839700E+02  0.65393851342E+02  0.83843450999E+02  0.16867209046E+03  0.12500000000E+03 0.  0.
</event>
<event>
 5    0  0.5735425E-005  0.5599321E+03  0.7546771E-02  0.9992208E-01
         21   -1    0    0  502  501  0.00000000000E+00  0.00000000000E+00  0.39658093860E+03  0.39658093860E+03  0.00000000000E+00 0.  1.
         21   -1    0    0  501  502 -0.00000000000E+00 -0.00000000000E+00 -0.79056745581E+03  0.79056745581E+03  0.00000000000E+00 0.  1.
         25    1    1    2    0    0 -0.13981005457E+03  0.81602913676E+02 -0.22932299559E+03  0.30727825043E+03  0.12500000000E+03 0.  0.
         25    1    1    2    0    0 -0.15911398937E+03  0.24326755788E+03  0.12169696180E+03  0.33901551121E+03  0.12500000000E+03 0.  0.
         25    1    1    2    0    0  0.29892404393E+03 -0.32487047156E+03 -0.28636048342E+03  0.54085463278E+03  0.12500000000E+03 0.  0.
</event>
<event>
 5    0  0.5735425E-005  0.3114524E+03  0.7546771E-02  0.1079652E+00
         21   -1    0    0  502  501  0.00000000000E+00  0.00000000000E+00  0.14302437208E+03  0.14302437208E+03  0.00000000000E+00 0. -1.
         21   -1    0    0  501  502 -0.00000000000E+00 -0.00000000000E+00 -0.67822426472E+03  0.67822426472E+03  0.00000000000E+00 0. -1.
         25    1    1    2    0    0 -0.12274613158E+02 -0.99205772052E+02 -0.10949033693E+03  0.19392159554E+03  0.12500000000E+03 0.  0.
         25    1    1    2    0    0  0.71206941354E+02 -0.12917834428E+03 -0.19310466439E+03  0.27326156799E+03  0.12500000000E+03 0.  0.
         25    1    1    2    0    0 -0.58932328196E+02  0.22838411633E+03 -0.23260489132E+03  0.35406547327E+03  0.12500000000E+03 0.  0.
</event>
<event>
 5    0  0.5735425E-005  0.4906921E+03  0.7546771E-02  0.1016237E+00
         21   -1    0    0  502  501  0.00000000000E+00  0.00000000000E+00  0.93702460237E+02  0.93702460237E+02  0.00000000000E+00 0. -1.
         21   -1    0    0  501  502 -0.00000000000E+00 -0.00000000000E+00 -0.25696093390E+04  0.25696093390E+04  0.00000000000E+00 0. -1.
         25    1    1    2    0    0 -0.88478397044E+02 -0.13034061804E+03 -0.79588051319E+03  0.82089456980E+03  0.12500000000E+03 0.  0.
         25    1    1    2    0    0  0.66971791838E+02 -0.80921721717E+02 -0.15596503228E+04  0.15681733563E+04  0.12500000000E+03 0.  0.
         25    1    1    2    0    0  0.21506605206E+02  0.21126233976E+03 -0.12037604271E+03  0.27424387309E+03  0.12500000000E+03 0.  0.
</event>
<event>
 5    0  0.5735425E-005  0.3022182E+03  0.7546771E-02  0.1084137E+00
         21   -1    0    0  502  501  0.00000000000E+00  0.00000000000E+00  0.19613565864E+03  0.19613565864E+03  0.00000000000E+00 0.  1.
         21   -1    0    0  501  502 -0.00000000000E+00 -0.00000000000E+00 -0.46567685713E+03  0.46567685713E+03  0.00000000000E+00 0.  1.
         25    1    1    2    0    0 -0.14662983459E+03  0.11746671102E+03 -0.81909508459E+02  0.24006854056E+03  0.12500000000E+03 0.  0.
         25    1    1    2    0    0  0.12037487944E+03 -0.16593001147E+03 -0.13415821960E+03  0.27503873944E+03  0.12500000000E+03 0.  0.
         25    1    1    2    0    0  0.26254955156E+02  0.48463300452E+02 -0.53473470435E+02  0.14670523577E+03  0.12500000000E+03 0.  0.
</event>
<event>
 5    0  0.5735425E-005  0.2819998E+03  0.7546771E-02  0.1094602E+00
         21   -1    0    0  502  501  0.00000000000E+00  0.00000000000E+00  0.28797735766E+03  0.28797735766E+03  0.00000000000E+00 0.  1.
         21   -1    0    0  501  502 -0.00000000000E+00 -0.00000000000E+00 -0.27614634155E+03  0.27614634155E+03  0.00000000000E+00 0.  1.
         25    1    1    2    0    0 -0.37491679054E+02 -0.45505950568E+02  0.11711009332E+03  0.18115239853E+03  0.12500000000E+03 0.  0.
         25    1    1    2    0    0  0.71669326413E+01 -0.86346565594E+02  0.29244720278E+02  0.15487849424E+03  0.12500000000E+03 0.  0.
         25    1    1    2    0    0  0.30324746413E+02  0.13185251616E+03 -0.13452379749E+03  0.22809280645E+03  0.12500000000E+03 0.  0.
</event>
<event>
 5    0  0.5735425E-005  0.2825159E+03  0.7546771E-02  0.1094323E+00
         21   -1    0    0  502  501  0.00000000000E+00  0.00000000000E+00  0.11718383751E+04  0.11718383751E+04  0.00000000000E+00 0.  1.
         21   -1    0    0  501  502 -0.00000000000E+00 -0.00000000000E+00 -0.68111105779E+02  0.68111105779E+02  0.00000000000E+00 0.  1.
         25    1    1    2    0    0  0.34052594997E+02 -0.10894761248E+03  0.43870777721E+03  0.47023257572E+03  0.12500000000E+03 0.  0.
         25    1    1    2    0    0  0.15753174186E+02  0.10600013414E+02  0.55685409982E+03  0.57102715458E+03  0.12500000000E+03 0.  0.
         25    1    1    2    0    0 -0.49805769183E+02  0.98347599068E+02  0.10816539226E+03  0.19868975054E+03  0.12500000000E+03 0.  0.
</event>
<event>
 5    0  0.5735425E-005  0.4164450E+03  0.7546771E-02  0.1038230E+00
         21   -1    0    0  502  501  0.00000000000E+00  0.00000000000E+00  0.30441679230E+03  0.30441679230E+03  0.00000000000E+00 0. -1.
         21   -1    0    0  501  502 -0.00000000000E+00 -0.00000000000E+00 -0.56970052838E+03  0.56970052838E+03  0.00000000000E+00 0. -1.
         25    1    1    2    0    0  0.36752719421E+02  0.18641199422E+03 -0.98652490112E+00  0.22743387436E+03  0.12500000000E+03 0.  0.
         25    1    1    2    0    0  0.53383955198E+02 -0.33908234126E+03 -0.21618074913E+03  0.42448297625E+03  0.12500000000E+03 0.  0.
         25    1    1    2    0    0 -0.90136674620E+02  0.15267034705E+03 -0.48116462050E+02  0.22220047007E+03  0.12500000000E+03 0.  0.
</event>
<event>
 5    0  0.5735425E-005  0.3373685E+03  0.7546771E-02  0.1067922E+00
         21   -1    0    0  502  501  0.00000000000E+00  0.00000000000E+00  0.78696619896E+03  0.78696619896E+03  0.00000000000E+00 0.  1.
         21   -1    0    0  501  502 -0.00000000000E+00 -0.00000000000E+00 -0.14462818514E+03  0.14462818514E+03  0.00000000000E+00 0.  1.
         25    1    1    2    0    0  0.10917969775E+03 -0.18594115364E+03  0.30062682587E+03  0.39050711575E+03  0.12500000000E+03 0.  0.
         25    1    1    2    0    0 -0.10242168795E+03  0.19422721361E+03  0.10586004827E+03  0.27394481650E+03  0.12500000000E+03 0.  0.
         25    1    1    2    0    0 -0.67580097940E+01 -0.82860599727E+01  0.23585113968E+03  0.26714245184E+03  0.12500000000E+03 0.  0.
</event>
<event>
 5    0  0.5735425E-005  0.2438913E+03  0.7546771E-02  0.1117227E+00
         21   -1    0    0  502  501  0.00000000000E+00  0.00000000000E+00  0.36087929393E+03  0.36087929393E+03  0.00000000000E+00 0. -1.
         21   -1    0    0  501  502 -0.00000000000E+00 -0.00000000000E+00 -0.16482784951E+03  0.16482784951E+03  0.00000000000E+00 0. -1.
         25    1    1    2    0    0  0.36409045182E+02  0.29519129624E+02  0.26978359152E+02  0.13619775860E+03  0.12500000000E+03 0.  0.
         25    1    1    2    0    0 -0.61790046692E+02 -0.86380456039E+02  0.18696405670E+03  0.24871701099E+03  0.12500000000E+03 0.  0.
         25    1    1    2    0    0  0.25381001509E+02  0.56861326414E+02 -0.17890971432E+02  0.14079237386E+03  0.12500000000E+03 0.  0.
</event>
<event>
 5    0  0.5735425E-005  0.3552749E+03  0.7546771E-02  0.1060471E+00
         21   -1    0    0  502  501  0.00000000000E+00  0.00000000000E+00  0.25622007531E+03  0.25622007531E+03  0.00000000000E+00 0. -1.
         21   -1    0    0  501  502 -0.00000000000E+00 -0.00000000000E+00 -0.49262426995E+03  0.49262426995E+03  0.00000000000E+00 0. -1.
         25    1    1    2    0    0 -0.14569195160E+03 -0.47467299642E+02 -0.21285190647E+03  0.29053437556E+03  0.12500000000E+03 0.  0.
         25    1    1    2    0    0  0.19438818532E+03  0.85664869471E+02  0.10566645865E+03  0.26817090994E+03  0.12500000000E+03 0.  0.
         25    1    1    2    0    0 -0.48696233714E+02 -0.38197569829E+02 -0.12921874682E+03  0.19013905976E+03  0.12500000000E+03 0.  0.
</event>
<event>
 5    0  0.5735425E-005  0.2713426E+03  0.7546771E-02  0.1100514E+00
         21   -1    0    0  502  501  0.00000000000E+00  0.00000000000E+00  0.53456105732E+03  0.53456105732E+03  0.00000000000E+00 0. -1.
         21   -1    0    0  501  502 -0.00000000000E+00 -0.00000000000E+00 -0.13773316032E+03  0.13773316032E+03  0.00000000000E+00 0. -1.
         25    1    1    2    0    0 -0.34799891914E+02 -0.90562267801E+02  0.19810237546E+03  0.25353916461E+03  0.12500000000E+03 0.  0.
         25    1    1    2    0    0 -0.58181354325E+02  0.13045987309E+02 -0.19269032934E+02  0.13982690516E+03  0.12500000000E+03 0.  0.
         25    1    1    2    0    0  0.92981246239E+02  0.77516280492E+02  0.21799455447E+03  0.27892814787E+03  0.12500000000E+03 0.  0.
</event>
<event>
 5    0  0.5735425E-005  0.2665409E+03  0.7546771E-02  0.1103276E+00
         21   -1    0    0  502  501  0.00000000000E+00  0.00000000000E+00  0.45109531567E+03  0.45109531567E+03  0.00000000000E+00 0.  1.
         21   -1    0    0  501  502 -0.00000000000E+00 -0.00000000000E+00 -0.15749231228E+03  0.15749231228E+03  0.00000000000E+00 0.  1.
         25    1    1    2    0    0 -0.14696288942E+03  0.65452518883E+02  0.16470478512E+03  0.26198242181E+03  0.12500000000E+03 0.  0.
         25    1    1    2    0    0  0.51936649909E+01 -0.14404181313E+02  0.48055801476E+02  0.13479174548E+03  0.12500000000E+03 0.  0.
         25    1    1    2    0    0  0.14176922443E+03 -0.51048337570E+02  0.80842416793E+02  0.21181346066E+03  0.12500000000E+03 0.  0.
</event>
<event>
 5    0  0.5735425E-005  0.2228567E+03  0.7546771E-02  0.1131771E+00
         21   -1    0    0  502  501  0.00000000000E+00  0.00000000000E+00  0.79274820253E+03  0.79274820253E+03  0.00000000000E+00 0.  1.
         21   -1    0    0  501  502 -0.00000000000E+00 -0.00000000000E+00 -0.62649289072E+02  0.62649289072E+02  0.00000000000E+00 0.  1.
         25    1    1    2    0    0 -0.35088928944E+02 -0.20665348566E+02  0.14645359778E+03  0.19680433397E+03  0.12500000000E+03 0.  0.
         25    1    1    2    0    0  0.37494789794E+02  0.77804598764E+02  0.40920216441E+03  0.43649836908E+03  0.12500000000E+03 0.  0.
         25    1    1    2    0    0 -0.24058608502E+01 -0.57139250199E+02  0.17444315127E+03  0.22209478856E+03  0.12500000000E+03 0.  0.
</event>
<event>
 5    0  0.5735425E-005  0.2808511E+03  0.7546771E-02  0.1095225E+00
         21   -1    0    0  502  501  0.00000000000E+00  0.00000000000E+00  0.16734109358E+04  0.16734109358E+04  0.00000000000E+00 0. -1.
         21   -1    0    0  501  502 -0.00000000000E+00 -0.00000000000E+00 -0.47135673642E+02  0.47135673642E+02  0.00000000000E+00 0. -1.
         25    1    1    2    0    0  0.15161823575E+03  0.10504747704E+02  0.34229325598E+03  0.39482668631E+03  0.12500000000E+03 0.  0.
         25    1    1    2    0    0 -0.11973038137E+03  0.50276129076E+02  0.57693850874E+03  0.60443866210E+03  0.12500000000E+03 0.  0.
         25    1    1    2    0    0 -0.31887854380E+02 -0.60780876780E+02  0.70704349748E+03  0.72128126107E+03  0.12500000000E+03 0.  0.
</event>
<event>
 5    0  0.5735425E-005  0.3002864E+03  0.7546771E-02  0.1085098E+00
         21   -1    0    0  502  501  0.00000000000E+00  0.00000000000E+00  0.13119480157E+03  0.13119480157E+03  0.00000000000E+00 0. -1.
         21   -1    0    0  501  502 -0.00000000000E+00 -0.00000000000E+00 -0.68731331909E+03  0.68731331909E+03  0.00000000000E+00 0. -1.
         25    1    1    2    0    0 -0.38055999647E+02  0.31201923362E+02 -0.16521701040E+03  0.21294008467E+03  0.12500000000E+03 0.  0.
         25    1    1    2    0    0  0.76265062597E+02 -0.19205500534E+03 -0.28251759591E+03  0.37167549939E+03  0.12500000000E+03 0.  0.
         25    1    1    2    0    0 -0.38209062950E+02  0.16085308197E+03 -0.10838391120E+03  0.23389253660E+03  0.12500000000E+03 0.  0.
</event>
<event>
 5    0  0.5735425E-005  0.3345811E+03  0.7546771E-02  0.1069128E+00
         21   -1    0    0  502  501  0.00000000000E+00  0.00000000000E+00  0.58768609270E+03  0.58768609270E+03  0.00000000000E+00 0.  1.
         21   -1    0    0  501  502 -0.00000000000E+00 -0.00000000000E+00 -0.19048351159E+03  0.19048351159E+03  0.00000000000E+00 0.  1.
         25    1    1    2    0    0 -0.17268291186E+03 -0.66712159198E+02  0.10149605254E+03  0.24534944246E+03  0.12500000000E+03 0.  0.
         25    1    1    2    0    0 -0.60952894898E+02 -0.55200412396E+02  0.77120243916E+02  0.16832965558E+03  0.12500000000E+03 0.  0.
         25    1    1    2    0    0  0.23363580676E+03  0.12191257159E+03  0.21858628465E+03  0.36449050625E+03  0.12500000000E+03 0.  0.
</event>
<event>
 5    0  0.5735425E-005  0.3009821E+03  0.7546771E-02  0.1084751E+00
         21   -1    0    0  502  501  0.00000000000E+00  0.00000000000E+00  0.18172806680E+03  0.18172806680E+03  0.00000000000E+00 0.  1.
         21   -1    0    0  501  502 -0.00000000000E+00 -0.00000000000E+00 -0.49849321074E+03  0.49849321074E+03  0.00000000000E+00 0.  1.
         25    1    1    2    0    0 -0.64225518130E+02  0.50114298190E+01 -0.23400041060E+03  0.27300407281E+03  0.12500000000E+03 0.  0.
         25    1    1    2    0    0  0.24161541748E+02 -0.15383688545E+03 -0.52581940827E+02  0.20649316678E+03  0.12500000000E+03 0.  0.
         25    1    1    2    0    0  0.40063976382E+02  0.14882545563E+03 -0.30182792515E+02  0.20072403795E+03  0.12500000000E+03 0.  0.
</event>
<event>
 5    0  0.5735425E-005  0.3870857E+03  0.7546771E-02  0.1048346E+00
         21   -1    0    0  502  501  0.00000000000E+00  0.00000000000E+00  0.52353580346E+03  0.52353580346E+03  0.00000000000E+00 0. -1.
         21   -1    0    0  501  502 -0.00000000000E+00 -0.00000000000E+00 -0.28619879356E+03  0.28619879356E+03  0.00000000000E+00 0. -1.
         25    1    1    2    0    0 -0.12253463820E+03  0.65767558084E-01 -0.10250125869E+03  0.20284538426E+03  0.12500000000E+03 0.  0.
         25    1    1    2    0    0  0.17204858786E+02 -0.36213943520E+02 -0.80810254829E+02  0.15415172447E+03  0.12500000000E+03 0.  0.
         25    1    1    2    0    0  0.10532977941E+03  0.36148175961E+02  0.42064852342E+03  0.45273748829E+03  0.12500000000E+03 0.  0.
</event>
<event>
 5    0  0.5735425E-005  0.3361217E+03  0.7546771E-02  0.1068460E+00
         21   -1    0    0  502  501  0.00000000000E+00  0.00000000000E+00  0.15537855611E+03  0.15537855611E+03  0.00000000000E+00 0.  1.
         21   -1    0    0  501  502 -0.00000000000E+00 -0.00000000000E+00 -0.72711311031E+03  0.72711311031E+03  0.00000000000E+00 0.  1.
         25    1    1    2    0    0 -0.24877598619E+03  0.60469024461E+02 -0.34333698582E+03  0.44615163348E+03  0.12500000000E+03 0.  0.
         25    1    1    2    0    0  0.15379900791E+03 -0.46335222065E+02 -0.17929970883E+03  0.27124614877E+03  0.12500000000E+03 0.  0.
         25    1    1    2    0    0  0.94976978288E+02 -0.14133802396E+02 -0.49097859550E+02  0.16509388416E+03  0.12500000000E+03 0.  0.
</event>
<event>
 5    0  0.6433725E-005  0.4649358E+03  0.7546771E-02  0.1023359E+00
         21   -1    0    0  502  501  0.00000000000E+00  0.00000000000E+00  0.70450954933E+03  0.70450954933E+03  0.00000000000E+00 0.  1.
         21   -1    0    0  501  502 -0.00000000000E+00 -0.00000000000E+00 -0.30683088635E+03  0.30683088635E+03  0.00000000000E+00 0.  1.
         25    1    1    2    0    0 -0.23086249587E+02 -0.40482761305E+02  0.39738876675E+03  0.41918332603E+03  0.12500000000E+03 0.  0.
         25    1    1    2    0    0 -0.11880831160E+03  0.23016380351E+03 -0.10242504914E+03  0.30529769413E+03  0.12500000000E+03 0.  0.
         25    1    1    2    0    0  0.14189456119E+03 -0.18968104220E+03  0.10271494536E+03  0.28685941551E+03  0.12500000000E+03 0.  0.
</event>
<event>
 5    0  0.5735425E-005  0.3085713E+03  0.7546771E-02  0.1081033E+00
         21   -1    0    0  502  501  0.00000000000E+00  0.00000000000E+00  0.36905148258E+03  0.36905148258E+03  0.00000000000E+00 0. -1.
         21   -1    0    0  501  502 -0.00000000000E+00 -0.00000000000E+00 -0.25800261309E+03  0.25800261309E+03  0.00000000000E+00 0. -1.
         25    1    1    2    0    0  0.95208024784E+02 -0.39634127404E+02 -0.10362246662E+03  0.19234876560E+03  0.12500000000E+03 0.  0.
         25    1    1    2    0    0 -0.15542321722E+03 -0.55942994111E+02  0.14242329119E+03  0.25138693068E+03  0.12500000000E+03 0.  0.
         25    1    1    2    0    0  0.60215192439E+02  0.95577121515E+02  0.72248044919E+02  0.18331839938E+03  0.12500000000E+03 0.  0.
</event>
<event>
 5    0  0.5735425E-005  0.3027339E+03  0.7546771E-02  0.1083882E+00
         21   -1    0    0  502  501  0.00000000000E+00  0.00000000000E+00  0.56854824005E+02  0.56854824005E+02  0.00000000000E+00 0. -1.
         21   -1    0    0  501  502 -0.00000000000E+00 -0.00000000000E+00 -0.16119620885E+04  0.16119620885E+04  0.00000000000E+00 0. -1.
         25    1    1    2    0    0  0.15838999287E+03 -0.35538599330E+02 -0.47351428209E+03  0.51593716403E+03  0.12500000000E+03 0.  0.
         25    1    1    2    0    0 -0.16192002431E+03  0.12334688610E+03 -0.54704892693E+03  0.59692552051E+03  0.12500000000E+03 0.  0.
         25    1    1    2    0    0  0.35300314363E+01 -0.87808286770E+02 -0.53454405544E+03  0.55595422793E+03  0.12500000000E+03 0.  0.
</event>
<event>
 5    0  0.5820814E-005  0.3612291E+03  0.7546771E-02  0.1058098E+00
         21   -1    0    0  502  501  0.00000000000E+00  0.00000000000E+00  0.21089656719E+03  0.21089656719E+03  0.00000000000E+00 0.  1.
         21   -1    0    0  501  502 -0.00000000000E+00 -0.00000000000E+00 -0.61872254453E+03  0.61872254453E+03  0.00000000000E+00 0.  1.
         25    1    1    2    0    0 -0.10739077046E+03 -0.75671464644E+02  0.35371775793E+02  0.18475689612E+03  0.12500000000E+03 0.  0.
         25    1    1    2    0    0  0.51524041498E+02 -0.14065645982E+03 -0.10773970211E+03  0.22287173431E+03  0.12500000000E+03 0.  0.
         25    1    1    2    0    0  0.55866728960E+02  0.21632792447E+03 -0.33545805102E+03  0.42199048130E+03  0.12500000000E+03 0.  0.
</event>
<event>
 5    0  0.5735425E-005  0.2140249E+03  0.7546771E-02  0.1138418E+00
         21   -1    0    0  502  501  0.00000000000E+00  0.00000000000E+00  0.11081652166E+04  0.11081652166E+04  0.00000000000E+00 0. -1.
         21   -1    0    0  501  502 -0.00000000000E+00 -0.00000000000E+00 -0.41335595250E+02  0.41335595250E+02  0.00000000000E+00 0. -1.
         25    1    1    2    0    0  0.30237629589E+02  0.18955937222E+01  0.20492626070E+03  0.24194561340E+03  0.12500000000E+03 0.  0.
         25    1    1    2    0    0 -0.24871560460E+02 -0.38854877786E+02  0.60413022851E+03  0.61864903544E+03  0.12500000000E+03 0.  0.
         25    1    1    2    0    0 -0.53660691291E+01  0.36959284064E+02  0.25777313217E+03  0.28890616304E+03  0.12500000000E+03 0.  0.
</event>
<event>
 5    0  0.5735425E-005  0.3170954E+03  0.7546771E-02  0.1076994E+00
         21   -1    0    0  502  501  0.00000000000E+00  0.00000000000E+00  0.41895745930E+03  0.41895745930E+03  0.00000000000E+00 0.  1.
         21   -1    0    0  501  502 -0.00000000000E+00 -0.00000000000E+00 -0.23999930431E+03  0.23999930431E+03  0.00000000000E+00 0.  1.
         25    1    1    2    0    0  0.17883355154E+01  0.10691679432E+03 -0.11100750191E+03  0.19844914848E+03  0.12500000000E+03 0.  0.
         25    1    1    2    0    0  0.75349492912E+02 -0.14172334912E+03  0.13491345632E+03  0.24411000484E+03  0.12500000000E+03 0.  0.
         25    1    1    2    0    0 -0.77137828427E+02  0.34806554795E+02  0.15505220058E+03  0.21639761028E+03  0.12500000000E+03 0.  0.
</event>
<event>
 5    0  0.5735425E-005  0.3309854E+03  0.7546771E-02  0.1070702E+00
         21   -1    0    0  502  501  0.00000000000E+00  0.00000000000E+00  0.89177859151E+02  0.89177859151E+02  0.00000000000E+00 0.  1.
         21   -1    0    0  501  502 -0.00000000000E+00 -0.00000000000E+00 -0.12284588445E+04  0.12284588445E+04  0.00000000000E+00 0.  1.
         25    1    1    2    0    0 -0.82400832543E+02 -0.15701773812E+03 -0.47297365439E+03  0.52035905395E+03  0.12500000000E+03 0.  0.
         25    1    1    2    0    0  0.43986718228E+02  0.10513927074E+03 -0.62953749678E+03  0.65186774539E+03  0.12500000000E+03 0.  0.
         25    1    1    2    0    0  0.38414114315E+02  0.51878467381E+02 -0.36769834146E+02  0.14540990427E+03  0.12500000000E+03 0.  0.
</event>
<event>
 5    0  0.5735425E-005  0.3698557E+03  0.7546771E-02  0.1054748E+00
         21   -1    0    0  502  501  0.00000000000E+00  0.00000000000E+00  0.16320071912E+03  0.16320071912E+03  0.00000000000E+00 0. -1.
         21   -1    0    0  501  502 -0.00000000000E+00 -0.00000000000E+00 -0.83819013967E+03  0.83819013967E+03  0.00000000000E+00 0. -1.
         25    1    1    2    0    0 -0.14174181899E+03  0.59299963332E+02 -0.40539919938E+03  0.45119922402E+03  0.12500000000E+03 0.  0.
         25    1    1    2    0    0  0.77690695516E+02  0.13603563106E+03 -0.23217253744E+03  0.30670934812E+03  0.12500000000E+03 0.  0.
         25    1    1    2    0    0  0.64051123473E+02 -0.19533559439E+03 -0.37417683742E+02  0.24348228664E+03  0.12500000000E+03 0.  0.
</event>
<event>
 5    0  0.5735425E-005  0.2352962E+03  0.7546771E-02  0.1122967E+00
         21   -1    0    0  502  501  0.00000000000E+00  0.00000000000E+00  0.13091331374E+03  0.13091331374E+03  0.00000000000E+00 0. -1.
         21   -1    0    0  501  502 -0.00000000000E+00 -0.00000000000E+00 -0.42290810433E+03  0.42290810433E+03  0.00000000000E+00 0. -1.
         25    1    1    2    0    0 -0.18472588781E+02 -0.82712614720E+02 -0.14661277261E+03  0.21048258423E+03  0.12500000000E+03 0.  0.
         25    1    1    2    0    0 -0.44415647724E+02  0.81185589102E+02 -0.22576755323E+02  0.15715775362E+03  0.12500000000E+03 0.  0.
         25    1    1    2    0    0  0.62888236505E+02  0.15270256179E+01 -0.12280526266E+03  0.18618108023E+03  0.12500000000E+03 0.  0.
</event>
<event>
 5    0  0.5735425E-005  0.4007140E+03  0.7546771E-02  0.1043533E+00
         21   -1    0    0  502  501  0.00000000000E+00  0.00000000000E+00  0.35600892999E+03  0.35600892999E+03  0.00000000000E+00 0. -1.
         21   -1    0    0  501  502 -0.00000000000E+00 -0.00000000000E+00 -0.45103276390E+03  0.45103276390E+03  0.00000000000E+00 0. -1.
         25    1    1    2    0    0 -0.27561967121E+03 -0.11440707975E+03  0.18136512675E+02  0.32405110113E+03  0.12500000000E+03 0.  0.
         25    1    1    2    0    0 -0.16376384999E+02  0.80813785881E+02 -0.45476003886E+02  0.15649958755E+03  0.12500000000E+03 0.  0.
         25    1    1    2    0    0  0.29199605621E+03  0.33593293869E+02 -0.67684342707E+02  0.32649100521E+03  0.12500000000E+03 0.  0.
</event>
<event>
 5    0  0.5735425E-005  0.2407285E+03  0.7546771E-02  0.1119308E+00
         21   -1    0    0  502  501  0.00000000000E+00  0.00000000000E+00  0.37904561963E+03  0.37904561963E+03  0.00000000000E+00 0. -1.
         21   -1    0    0  501  502 -0.00000000000E+00 -0.00000000000E+00 -0.15288455635E+03  0.15288455635E+03  0.00000000000E+00 0. -1.
         25    1    1    2    0    0  0.75344465617E+01 -0.32139119862E+01 -0.26231205841E+02  0.12798505098E+03  0.12500000000E+03 0.  0.
         25    1    1    2    0    0  0.74933673443E+02 -0.50968618738E+02  0.10308169224E+03  0.18564398937E+03  0.12500000000E+03 0.  0.
         25    1    1    2    0    0 -0.82468120004E+02  0.54182530724E+02  0.14931057688E+03  0.21830113564E+03  0.12500000000E+03 0.  0.
</event>
<event>
 5    0  0.5735425E-005  0.3425772E+03  0.7546771E-02  0.1065704E+00
         21   -1    0    0  502  501  0.00000000000E+00  0.00000000000E+00  0.26965051486E+03  0.26965051486E+03  0.00000000000E+00 0.  1.
         21   -1    0    0  501  502 -0.00000000000E+00 -0.00000000000E+00 -0.43522681464E+03  0.43522681464E+03  0.00000000000E+00 0.  1.
         25    1    1    2    0    0  0.15670517499E+03  0.13450169685E+03 -0.13496093143E+02  0.24177337085E+03  0.12500000000E+03 0.  0.
         25    1    1    2    0    0  0.74784869510E+02 -0.34956207819E+02 -0.16062715204E+02  0.15065763835E+03  0.12500000000E+03 0.  0.
         25    1    1    2    0    0 -0.23149004450E+03 -0.99545489030E+02 -0.13601749143E+03  0.31244632029E+03  0.12500000000E+03 0.  0.
</event>
<event>
 5    0  0.5735425E-005  0.2736980E+03  0.7546771E-02  0.1099182E+00
         21   -1    0    0  502  501  0.00000000000E+00  0.00000000000E+00  0.79520840190E+03  0.79520840190E+03  0.00000000000E+00 0. -1.
         21   -1    0    0  501  502 -0.00000000000E+00 -0.00000000000E+00 -0.94202481487E+02  0.94202481487E+02  0.00000000000E+00 0. -1.
         25    1    1    2    0    0  0.10069984934E+02  0.68374710812E+02  0.76086037946E+02  0.16183507298E+03  0.12500000000E+03 0.  0.
         25    1    1    2    0    0  0.10344988317E+03 -0.71705606361E+01  0.15501614079E+03  0.22451792617E+03  0.12500000000E+03 0.  0.
         25    1    1    2    0    0 -0.11351986810E+03 -0.61204150176E+02  0.46990374168E+03  0.50305788424E+03  0.12500000000E+03 0.  0.
</event>
<event>
 5    0  0.5735425E-005  0.5836007E+03  0.7546771E-02  0.9940026E-01
         21   -1    0    0  502  501  0.00000000000E+00  0.00000000000E+00  0.11342114067E+04  0.11342114067E+04  0.00000000000E+00 0. -1.
         21   -1    0    0  501  502 -0.00000000000E+00 -0.00000000000E+00 -0.30028770780E+03  0.30028770780E+03  0.00000000000E+00 0. -1.
         25    1    1    2    0    0 -0.21179173673E+03 -0.13525809622E+03  0.69683550570E+02  0.28919074944E+03  0.12500000000E+03 0.  0.
         25    1    1    2    0    0  0.15177371183E+03  0.42823336177E+03  0.23964024718E+03  0.52865065951E+03  0.12500000000E+03 0.  0.
         25    1    1    2    0    0  0.60018024898E+02 -0.29297526555E+03  0.52459990120E+03  0.61665770560E+03  0.12500000000E+03 0.  0.
</event>
<event>
 5    0  0.5735425E-005  0.3645876E+03  0.7546771E-02  0.1056782E+00
         21   -1    0    0  502  501  0.00000000000E+00  0.00000000000E+00  0.10197596572E+03  0.10197596572E+03  0.00000000000E+00 0.  1.
         21   -1    0    0  501  502 -0.00000000000E+00 -0.00000000000E+00 -0.13034848886E+04  0.13034848886E+04  0.00000000000E+00 0.  1.
         25    1    1    2    0    0 -0.26549159354E+03 -0.78671756136E+02 -0.50282935207E+03  0.58748394766E+03  0.12500000000E+03 0.  0.
         25    1    1    2    0    0  0.89340430145E+02  0.12545775799E+03 -0.39934840530E+03  0.44589854263E+03  0.12500000000E+03 0.  0.
         25    1    1    2    0    0  0.17615116340E+03 -0.46786001852E+02 -0.29933116550E+03  0.37207836402E+03  0.12500000000E+03 0.  0.
</event>
<event>
 5    0  0.5735425E-005  0.2999688E+03  0.7546771E-02  0.1085256E+00
         21   -1    0    0  502  501  0.00000000000E+00  0.00000000000E+00  0.29473771232E+03  0.29473771232E+03  0.00000000000E+00 0. -1.
         21   -1    0    0  501  502 -0.00000000000E+00 -0.00000000000E+00 -0.30529264148E+03  0.30529264148E+03  0.00000000000E+00 0. -1.
         25    1    1    2    0    0  0.43505008344E+02  0.11301843490E+03  0.43172525340E+02  0.17931737039E+03  0.12500000000E+03 0.  0.
         25    1    1    2    0    0 -0.10270310414E+03 -0.31501501654E+02 -0.15877487064E+03  0.22885526377E+03  0.12500000000E+03 0.  0.
         25    1    1    2    0    0  0.59198095797E+02 -0.81516933243E+02  0.10504741614E+03  0.19185771965E+03  0.12500000000E+03 0.  0.
</event>
<event>
 5    0  0.5735425E-005  0.3360975E+03  0.7546771E-02  0.1068470E+00
         21   -1    0    0  502  501  0.00000000000E+00  0.00000000000E+00  0.11926562881E+03  0.11926562881E+03  0.00000000000E+00 0.  1.
         21   -1    0    0  501  502 -0.00000000000E+00 -0.00000000000E+00 -0.94714213202E+03  0.94714213202E+03  0.00000000000E+00 0.  1.
         25    1    1    2    0    0 -0.50243141311E+02  0.14567947686E+03 -0.31151469269E+03  0.36934169409E+03  0.12500000000E+03 0.  0.
         25    1    1    2    0    0  0.19560444143E+03 -0.11030451595E+03 -0.20083914281E+03  0.32617410233E+03  0.12500000000E+03 0.  0.
         25    1    1    2    0    0 -0.14536130012E+03 -0.35374960914E+02 -0.31552266770E+03  0.37089196441E+03  0.12500000000E+03 0.  0.
</event>
<event>
 5    0  0.5735425E-005  0.3610598E+03  0.7546771E-02  0.1058165E+00
         21   -1    0    0  502  501  0.00000000000E+00  0.00000000000E+00  0.25852849438E+03  0.25852849438E+03  0.00000000000E+00 0.  1.
         21   -1    0    0  501  502 -0.00000000000E+00 -0.00000000000E+00 -0.50425470232E+03  0.50425470232E+03  0.00000000000E+00 0.  1.
         25    1    1    2    0    0 -0.99190082902E+02 -0.58286705567E+02 -0.37056328325E+03  0.40764955474E+03  0.12500000000E+03 0.  0.
         25    1    1    2    0    0  0.13586172070E+03  0.75321814344E+02  0.57564793144E+02  0.20753430627E+03  0.12500000000E+03 0.  0.
         25    1    1    2    0    0 -0.36671637803E+02 -0.17035108777E+02  0.67272282163E+02  0.14759933569E+03  0.12500000000E+03 0.  0.
</event>
<event>
 5    0  0.5735425E-005  0.2903731E+03  0.7546771E-02  0.1090155E+00
         21   -1    0    0  502  501  0.00000000000E+00  0.00000000000E+00  0.91347274758E+03  0.91347274758E+03  0.00000000000E+00 0.  1.
         21   -1    0    0  501  502 -0.00000000000E+00 -0.00000000000E+00 -0.92303279758E+02  0.92303279758E+02  0.00000000000E+00 0.  1.
         25    1    1    2    0    0  0.14813977612E+03 -0.10390104484E+03  0.37085075406E+03  0.43115670258E+03  0.12500000000E+03 0.  0.
         25    1    1    2    0    0 -0.26466609032E+02  0.71525385116E+02  0.32776896476E+03  0.35899005051E+03  0.12500000000E+03 0.  0.
         25    1    1    2    0    0 -0.12167316709E+03  0.32375659719E+02  0.12254974900E+03  0.21562927425E+03  0.12500000000E+03 0.  0.
</event>
<event>
 5    0  0.5735425E-005  0.2784229E+03  0.7546771E-02  0.1096553E+00
         21   -1    0    0  502  501  0.00000000000E+00  0.00000000000E+00  0.15849841407E+04  0.15849841407E+04  0.00000000000E+00 0. -1.
         21   -1    0    0  501  502 -0.00000000000E+00 -0.00000000000E+00 -0.48908585552E+02  0.48908585552E+02  0.00000000000E+00 0. -1.
         25    1    1    2    0    0 -0.90394416209E+02 -0.41901795451E+02  0.49988513134E+03  0.52482097470E+03  0.12500000000E+03 0.  0.
         25    1    1    2    0    0 -0.63479761627E+02 -0.79274278840E+02  0.37028670843E+03  0.40379615880E+03  0.12500000000E+03 0.  0.
         25    1    1    2    0    0  0.15387417784E+03  0.12117607429E+03  0.66590371536E+03  0.70527559274E+03  0.12500000000E+03 0.  0.
</event>
<event>
 5    0  0.5735425E-005  0.5090041E+03  0.7546771E-02  0.1011455E+00
         21   -1    0    0  502  501  0.00000000000E+00  0.00000000000E+00  0.20820234394E+04  0.20820234394E+04  0.00000000000E+00 0.  1.
         21   -1    0    0  501  502 -0.00000000000E+00 -0.00000000000E+00 -0.12443914405E+03  0.12443914405E+03  0.00000000000E+00 0.  1.
         25    1    1    2    0    0 -0.12288817086E+03  0.16633798111E+02  0.43028254449E+03  0.46491531903E+03  0.12500000000E+03 0.  0.
         25    1    1    2    0    0  0.34550125873E+03 -0.20232106367E+03  0.43392261158E+03  0.60350539801E+03  0.12500000000E+03 0.  0.
         25    1    1    2    0    0 -0.22261308788E+03  0.18568726556E+03  0.10933791393E+04  0.11380418665E+04  0.12500000000E+03 0.  0.
</event>
<event>
 5    0  0.5735425E-005  0.2478695E+03  0.7546771E-02  0.1114659E+00
         21   -1    0    0  502  501  0.00000000000E+00  0.00000000000E+00  0.42201342885E+03  0.42201342885E+03  0.00000000000E+00 0.  1.
         21   -1    0    0  501  502 -0.00000000000E+00 -0.00000000000E+00 -0.14558610095E+03  0.14558610095E+03  0.00000000000E+00 0.  1.
         25    1    1    2    0    0 -0.17150929585E+02 -0.64014781514E+02  0.72627294664E+02  0.15903386610E+03  0.12500000000E+03 0.  0.
         25    1    1    2    0    0 -0.37226971046E+02 -0.58946939068E+02  0.12884443093E+02  0.14370663823E+03  0.12500000000E+03 0.  0.
         25    1    1    2    0    0  0.54377900631E+02  0.12296172058E+03  0.19091559015E+03  0.26485902546E+03  0.12500000000E+03 0.  0.
</event>
<event>
 5    0  0.5735425E-005  0.2765222E+03  0.7546771E-02  0.1097604E+00
         21   -1    0    0  502  501  0.00000000000E+00  0.00000000000E+00  0.41028182954E+03  0.41028182954E+03  0.00000000000E+00 0. -1.
         21   -1    0    0  501  502 -0.00000000000E+00 -0.00000000000E+00 -0.18637067228E+03  0.18637067228E+03  0.00000000000E+00 0. -1.
         25    1    1    2    0    0 -0.11496062220E+02 -0.25344511018E+02 -0.30098106401E+02  0.13154998934E+03  0.12500000000E+03 0.  0.
         25    1    1    2    0    0 -0.65621167579E+02 -0.63219269022E+02 -0.46401101186E+01  0.15475575670E+03  0.12500000000E+03 0.  0.
         25    1    1    2    0    0  0.77117229799E+02  0.88563780040E+02  0.25864937378E+03  0.31034675578E+03  0.12500000000E+03 0.  0.
</event>
<event>
 5    0  0.5857309E-005  0.2884069E+03  0.7546771E-02  0.1091184E+00
         21   -1    0    0  502  501  0.00000000000E+00  0.00000000000E+00  0.27703207832E+03  0.27703207832E+03  0.00000000000E+00 0. -1.
         21   -1    0    0  501  502 -0.00000000000E+00 -0.00000000000E+00 -0.30024883030E+03  0.30024883030E+03  0.00000000000E+00 0. -1.
         25    1    1    2    0    0 -0.14752761812E+02 -0.13068784329E+01  0.10489762826E+03  0.16385317918E+03  0.12500000000E+03 0.  0.
         25    1    1    2    0    0  0.18546594750E+02 -0.12390299543E+03  0.25856325942E+02  0.17885602602E+03  0.12500000000E+03 0.  0.
         25    1    1    2    0    0 -0.37938329379E+01  0.12520987387E+03 -0.15397070618E+03  0.23457170342E+03  0.12500000000E+03 0.  0.
</event>
<event>
 5    0  0.5735425E-005  0.2896183E+03  0.7546771E-02  0.1090549E+00
         21   -1    0    0  502  501  0.00000000000E+00  0.00000000000E+00  0.25589538668E+03  0.25589538668E+03  0.00000000000E+00 0.  1.
         21   -1    0    0  501  502 -0.00000000000E+00 -0.00000000000E+00 -0.32778540265E+03  0.32778540265E+03  0.00000000000E+00 0.  1.
         25    1    1    2    0    0  0.17276224189E+03 -0.52358440300E+01  0.27911814753E+02  0.21512386127E+03  0.12500000000E+03 0.  0.
         25    1    1    2    0    0 -0.45127063050E+02 -0.81609866282E+02 -0.37868459655E+02  0.16048564525E+03  0.12500000000E+03 0.  0.
         25    1    1    2    0    0 -0.12763517884E+03  0.86845710312E+02 -0.61933371077E+02  0.20807128281E+03  0.12500000000E+03 0.  0.
</event>
<event>
 5    0  0.5735425E-005  0.2926473E+03  0.7546771E-02  0.1088975E+00
         21   -1    0    0  502  501  0.00000000000E+00  0.00000000000E+00  0.58321323940E+02  0.58321323940E+02  0.00000000000E+00 0. -1.
         21   -1    0    0  501  502 -0.00000000000E+00 -0.00000000000E+00 -0.14684588113E+04  0.14684588113E+04  0.00000000000E+00 0. -1.
         25    1    1    2    0    0 -0.14042877150E+03  0.43829968361E+02 -0.56934618479E+03  0.60118331990E+03  0.12500000000E+03 0.  0.
         25    1    1    2    0    0 -0.23210968771E+02  0.26827761439E+02 -0.13663331748E+03  0.18855275469E+03  0.12500000000E+03 0.  0.
         25    1    1    2    0    0  0.16363974027E+03 -0.70657729800E+02 -0.70415798509E+03  0.73704406065E+03  0.12500000000E+03 0.  0.
</event>
<event>
 5    0  0.5735425E-005  0.2298793E+03  0.7546771E-02  0.1126725E+00
         21   -1    0    0  502  501  0.00000000000E+00  0.00000000000E+00  0.20042299290E+03  0.20042299290E+03  0.00000000000E+00 0.  1.
         21   -1    0    0  501  502 -0.00000000000E+00 -0.00000000000E+00 -0.26366480407E+03  0.26366480407E+03  0.00000000000E+00 0.  1.
         25    1    1    2    0    0 -0.66842687981E+02 -0.63099854850E+01 -0.76115107673E+02  0.16101636709E+03  0.12500000000E+03 0.  0.
         25    1    1    2    0    0  0.82768907523E+02  0.55756943531E+02  0.40312763452E+02  0.16495347132E+03  0.12500000000E+03 0.  0.
         25    1    1    2    0    0 -0.15926219542E+02 -0.49446958046E+02 -0.27439466949E+02  0.13811795855E+03  0.12500000000E+03 0.  0.
</event>
<event>
 5    0  0.5735425E-005  0.3613786E+03  0.7546771E-02  0.1058039E+00
         21   -1    0    0  502  501  0.00000000000E+00  0.00000000000E+00  0.19229031101E+03  0.19229031101E+03  0.00000000000E+00 0.  1.
         21   -1    0    0  501  502 -0.00000000000E+00 -0.00000000000E+00 -0.67915273638E+03  0.67915273638E+03  0.00000000000E+00 0.  1.
         25    1    1    2    0    0 -0.10833811117E+03  0.11069509166E+03 -0.17919422140E+03  0.26781732325E+03  0.12500000000E+03 0.  0.
         25    1    1    2    0    0 -0.15848626941E+03 -0.86697840417E+02 -0.94424769050E+02  0.23911388528E+03  0.12500000000E+03 0.  0.
         25    1    1    2    0    0  0.26682438058E+03 -0.23997251241E+02 -0.21324343492E+03  0.36451183887E+03  0.12500000000E+03 0.  0.
</event>
<event>
 5    0  0.5735425E-005  0.3321537E+03  0.7546771E-02  0.1070188E+00
         21   -1    0    0  502  501  0.00000000000E+00  0.00000000000E+00  0.46093037198E+03  0.46093037198E+03  0.00000000000E+00 0. -1.
         21   -1    0    0  501  502 -0.00000000000E+00 -0.00000000000E+00 -0.23935522945E+03  0.23935522945E+03  0.00000000000E+00 0. -1.
         25    1    1    2    0    0 -0.17438469991E+02 -0.18052876046E+03  0.24358856056E+03  0.32841303327E+03  0.12500000000E+03 0.  0.
         25    1    1    2    0    0  0.93618608828E+02  0.28154268146E+02  0.55479652932E+01  0.15878566262E+03  0.12500000000E+03 0.  0.
         25    1    1    2    0    0 -0.76180138837E+02  0.15237449232E+03 -0.27561383324E+02  0.21308690554E+03  0.12500000000E+03 0.  0.
</event>
<event>
 5    0  0.5735425E-005  0.6170067E+03  0.7546771E-02  0.9870737E-01
         21   -1    0    0  502  501  0.00000000000E+00  0.00000000000E+00  0.23792566783E+03  0.23792566783E+03  0.00000000000E+00 0.  1.
         21   -1    0    0  501  502 -0.00000000000E+00 -0.00000000000E+00 -0.16000681171E+04  0.16000681171E+04  0.00000000000E+00 0.  1.
         25    1    1    2    0    0  0.27636010423E+03  0.10349040692E+03 -0.11896638983E+04  0.12320756318E+04  0.12500000000E+03 0.  0.
         25    1    1    2    0    0  0.79755356757E+02 -0.18888794913E+02  0.52543905390E+02  0.15844104739E+03  0.12500000000E+03 0.  0.
         25    1    1    2    0    0 -0.35611546098E+03 -0.84601612003E+02 -0.22502245636E+03  0.44747710575E+03  0.12500000000E+03 0.  0.
</event>
<event>
 5    0  0.5735425E-005  0.2340561E+03  0.7546771E-02  0.1123817E+00
         21   -1    0    0  502  501  0.00000000000E+00  0.00000000000E+00  0.10388687931E+03  0.10388687931E+03  0.00000000000E+00 0.  1.
         21   -1    0    0  501  502 -0.00000000000E+00 -0.00000000000E+00 -0.52732609225E+03  0.52732609225E+03  0.00000000000E+00 0.  1.
         25    1    1    2    0    0 -0.94030979169E+02  0.66387867753E+02 -0.14970064986E+03  0.22646072197E+03  0.12500000000E+03 0.  0.
         25    1    1    2    0    0  0.90706687060E+02 -0.68207608218E+02 -0.12297840664E+03  0.20887476965E+03  0.12500000000E+03 0.  0.
         25    1    1    2    0    0  0.33242921089E+01  0.18197404654E+01 -0.15076015644E+03  0.19587747993E+03  0.12500000000E+03 0.  0.
</event>
<event>
 5    0  0.5735425E-005  0.2807162E+03  0.7546771E-02  0.1095298E+00
         21   -1    0    0  502  501  0.00000000000E+00  0.00000000000E+00  0.30356147164E+04  0.30356147164E+04  0.00000000000E+00 0. -1.
         21   -1    0    0  501  502 -0.00000000000E+00 -0.00000000000E+00 -0.25959019741E+02  0.25959019741E+02  0.00000000000E+00 0. -1.
         25    1    1    2    0    0  0.15639471650E+02  0.23413493677E+02  0.10669223337E+04  0.10745887823E+04  0.12500000000E+03 0.  0.
         25    1    1    2    0    0 -0.69994223922E+02 -0.15987964717E+03  0.12310439014E+04  0.12496218548E+04  0.12500000000E+03 0.  0.
         25    1    1    2    0    0  0.54354752273E+02  0.13646615349E+03  0.71168946152E+03  0.73736309901E+03  0.12500000000E+03 0.  0.
</event>
<event>
 5    0  0.5735425E-005  0.3539896E+03  0.7546771E-02  0.1060989E+00
         21   -1    0    0  502  501  0.00000000000E+00  0.00000000000E+00  0.28948872798E+03  0.28948872798E+03  0.00000000000E+00 0. -1.
         21   -1    0    0  501  502 -0.00000000000E+00 -0.00000000000E+00 -0.43286177458E+03  0.43286177458E+03  0.00000000000E+00 0. -1.
         25    1    1    2    0    0  0.36395625562E+02 -0.21405711343E+02  0.15663033544E+02  0.13286525753E+03  0.12500000000E+03 0.  0.
         25    1    1    2    0    0 -0.13585332743E+03 -0.15249218393E+03 -0.24081208530E+03  0.33959601464E+03  0.12500000000E+03 0.  0.
         25    1    1    2    0    0  0.99457701872E+02  0.17389789528E+03  0.81776005152E+02  0.24988923038E+03  0.12500000000E+03 0.  0.
</event>
<event>
 5    0  0.5735425E-005  0.2773186E+03  0.7546771E-02  0.1097163E+00
         21   -1    0    0  502  501  0.00000000000E+00  0.00000000000E+00  0.39183085750E+02  0.39183085750E+02  0.00000000000E+00 0.  1.
         21   -1    0    0  501  502 -0.00000000000E+00 -0.00000000000E+00 -0.19627239146E+04  0.19627239146E+04  0.00000000000E+00 0.  1.
         25    1    1    2    0    0  0.63200570843E+02 -0.20273576200E+02 -0.30222413401E+03  0.33372107699E+03  0.12500000000E+03 0.  0.
         25    1    1    2    0    0 -0.12695798483E+03 -0.68381905342E+02 -0.50987587854E+03  0.54441971530E+03  0.12500000000E+03 0.  0.
         25    1    1    2    0    0  0.63757413988E+02  0.88655481542E+02 -0.11114408163E+04  0.11237662080E+04  0.12500000000E+03 0.  0.
</event>
<event>
 5    0  0.5735425E-005  0.2941398E+03  0.7546771E-02  0.1088207E+00
         21   -1    0    0  502  501  0.00000000000E+00  0.00000000000E+00  0.38129189969E+02  0.38129189969E+02  0.00000000000E+00 0. -1.
         21   -1    0    0  501  502 -0.00000000000E+00 -0.00000000000E+00 -0.22690817939E+04  0.22690817939E+04  0.00000000000E+00 0. -1.
         25    1    1    2    0    0  0.11383992691E+02  0.74972371921E+02 -0.19669990093E+03  0.24508427707E+03  0.12500000000E+03 0.  0.
         25    1    1    2    0    0  0.13427884539E+02  0.44971924504E+02 -0.13204496290E+04  0.13271831090E+04  0.12500000000E+03 0.  0.
         25    1    1    2    0    0 -0.24811877230E+02 -0.11994429642E+03 -0.71380307392E+03  0.73494359772E+03  0.12500000000E+03 0.  0.
</event>
<event>
 5    0  0.5735425E-005  0.2824728E+03  0.7546771E-02  0.1094346E+00
         21   -1    0    0  502  501  0.00000000000E+00  0.00000000000E+00  0.42432367130E+03  0.42432367130E+03  0.00000000000E+00 0. -1.
         21   -1    0    0  501  502 -0.00000000000E+00 -0.00000000000E+00 -0.18804249326E+03  0.18804249326E+03  0.00000000000E+00 0. -1.
         25    1    1    2    0    0 -0.54576927536E+02 -0.14732702831E+03  0.52292296738E+02  0.20746898223E+03  0.12500000000E+03 0.  0.
         25    1    1    2    0    0  0.21622920310E+02  0.96761240236E+02 -0.17197895913E+02  0.16047135545E+03  0.12500000000E+03 0.  0.
         25    1    1    2    0    0  0.32954007226E+02  0.50565788077E+02  0.20118677722E+03  0.24442582688E+03  0.12500000000E+03 0.  0.
</event>
<event>
 5    0  0.5735425E-005  0.2738204E+03  0.7546771E-02  0.1099113E+00
         21   -1    0    0  502  501  0.00000000000E+00  0.00000000000E+00  0.46800222421E+02  0.46800222421E+02  0.00000000000E+00 0. -1.
         21   -1    0    0  501  502 -0.00000000000E+00 -0.00000000000E+00 -0.16020775265E+04  0.16020775265E+04  0.00000000000E+00 0. -1.
         25    1    1    2    0    0  0.28685034969E+02 -0.49830947337E+02 -0.90620286643E+03  0.91658856074E+03  0.12500000000E+03 0.  0.
         25    1    1    2    0    0 -0.10842617131E+03  0.15983490590E+02 -0.21134691212E+03  0.26889444743E+03  0.12500000000E+03 0.  0.
         25    1    1    2    0    0  0.79741136345E+02  0.33847456746E+02 -0.43772752558E+03  0.46339474080E+03  0.12500000000E+03 0.  0.
</event>
<event>
 5    0  0.5735425E-005  0.4643964E+03  0.7546771E-02  0.1023514E+00
         21   -1    0    0  502  501  0.00000000000E+00  0.00000000000E+00  0.20459726733E+03  0.20459726733E+03  0.00000000000E+00 0.  1.
         21   -1    0    0  501  502 -0.00000000000E+00 -0.00000000000E+00 -0.10540903297E+04  0.10540903297E+04  0.00000000000E+00 0.  1.
         25    1    1    2    0    0 -0.34268898009E+03 -0.15211500827E+03 -0.23280851715E+03  0.45869327276E+03  0.12500000000E+03 0.  0.
         25    1    1    2    0    0  0.19613679553E+03  0.11479894892E+03 -0.52036883390E+03  0.58142683506E+03  0.12500000000E+03 0.  0.
         25    1    1    2    0    0  0.14655218455E+03  0.37316059350E+02 -0.96315711278E+02  0.21856748917E+03  0.12500000000E+03 0.  0.
</event>
<event>
 5    0  0.5735425E-005  0.2518055E+03  0.7546771E-02  0.1112169E+00
         21   -1    0    0  502  501  0.00000000000E+00  0.00000000000E+00  0.15003324225E+03  0.15003324225E+03  0.00000000000E+00 0.  1.
         21   -1    0    0  501  502 -0.00000000000E+00 -0.00000000000E+00 -0.42261299275E+03  0.42261299275E+03  0.00000000000E+00 0.  1.
         25    1    1    2    0    0 -0.93381961719E+02  0.88686245053E+01 -0.49788213475E+01  0.15636058307E+03  0.12500000000E+03 0.  0.
         25    1    1    2    0    0  0.77531643226E+01 -0.28583416152E+02 -0.22259174109E+03  0.25700040163E+03  0.12500000000E+03 0.  0.
         25    1    1    2    0    0  0.85628797396E+02  0.19714791646E+02 -0.45009188065E+02  0.15928525030E+03  0.12500000000E+03 0.  0.
</event>
<event>
 5    0  0.5735425E-005  0.4165088E+03  0.7546771E-02  0.1038209E+00
         21   -1    0    0  502  501  0.00000000000E+00  0.00000000000E+00  0.34609299490E+03  0.34609299490E+03  0.00000000000E+00 0. -1.
         21   -1    0    0  501  502 -0.00000000000E+00 -0.00000000000E+00 -0.50125127455E+03  0.50125127455E+03  0.00000000000E+00 0. -1.
         25    1    1    2    0    0  0.65089318480E+02 -0.11388367263E+03  0.23396369988E+03  0.29592249515E+03  0.12500000000E+03 0.  0.
         25    1    1    2    0    0 -0.16674593135E+03  0.70687609619E+02 -0.18263028251E+03  0.28597161374E+03  0.12500000000E+03 0.  0.
         25    1    1    2    0    0  0.10165661287E+03  0.43196063015E+02 -0.20649169702E+03  0.26545016056E+03  0.12500000000E+03 0.  0.
</event>
<event>
 5    0  0.5735425E-005  0.2856410E+03  0.7546771E-02  0.1092647E+00
         21   -1    0    0  502  501  0.00000000000E+00  0.00000000000E+00  0.56744297565E+02  0.56744297565E+02  0.00000000000E+00 0. -1.
         21   -1    0    0  501  502 -0.00000000000E+00 -0.00000000000E+00 -0.14378672104E+04  0.14378672104E+04  0.00000000000E+00 0. -1.
         25    1    1    2    0    0  0.15110114944E+03  0.47863052610E+02 -0.32443765320E+03  0.38210891115E+03  0.12500000000E+03 0.  0.
         25    1    1    2    0    0 -0.17969425748E+02 -0.54096270664E+02 -0.68122624606E+03  0.69494136809E+03  0.12500000000E+03 0.  0.
         25    1    1    2    0    0 -0.13313172369E+03  0.62332180548E+01 -0.37545901363E+03  0.41756122878E+03  0.12500000000E+03 0.  0.
</event>
<event>
 5    0  0.5735425E-005  0.2633563E+03  0.7546771E-02  0.1105143E+00
         21   -1    0    0  502  501  0.00000000000E+00  0.00000000000E+00  0.93491559649E+03  0.93491559649E+03  0.00000000000E+00 0.  1.
         21   -1    0    0  501  502 -0.00000000000E+00 -0.00000000000E+00 -0.74184807990E+02  0.74184807990E+02  0.00000000000E+00 0.  1.
         25    1    1    2    0    0 -0.10428060326E+03  0.14150646301E+03  0.40929375510E+03  0.46264986896E+03  0.12500000000E+03 0.  0.
         25    1    1    2    0    0  0.36397008558E+02 -0.79264681421E+02  0.23417861896E+03  0.27941413266E+03  0.12500000000E+03 0.  0.
         25    1    1    2    0    0  0.67883594703E+02 -0.62241781587E+02  0.21725841445E+03  0.26703640286E+03  0.12500000000E+03 0.  0.
</event>
<event>
 5    0  0.5735425E-005  0.4605523E+03  0.7546771E-02  0.1024621E+00
         21   -1    0    0  502  501  0.00000000000E+00  0.00000000000E+00  0.14549000263E+04  0.14549000263E+04  0.00000000000E+00 0. -1.
         21   -1    0    0  501  502 -0.00000000000E+00 -0.00000000000E+00 -0.14578901521E+03  0.14578901521E+03  0.00000000000E+00 0. -1.
         25    1    1    2    0    0 -0.37176321113E+03 -0.52201842491E+02  0.67325918137E+03  0.78091986965E+03  0.12500000000E+03 0.  0.
         25    1    1    2    0    0  0.33794360117E+03  0.82658987619E+02  0.37293068138E+03  0.52511015884E+03  0.12500000000E+03 0.  0.
         25    1    1    2    0    0  0.33819609956E+02 -0.30457145128E+02  0.26292114837E+03  0.29465901305E+03  0.12500000000E+03 0.  0.
</event>
<event>
 5    0  0.5735425E-005  0.2777199E+03  0.7546771E-02  0.1096941E+00
         21   -1    0    0  502  501  0.00000000000E+00  0.00000000000E+00  0.11690367891E+04  0.11690367891E+04  0.00000000000E+00 0.  1.
         21   -1    0    0  501  502 -0.00000000000E+00 -0.00000000000E+00 -0.65975980143E+02  0.65975980143E+02  0.00000000000E+00 0.  1.
         25    1    1    2    0    0 -0.99746922880E+02 -0.63834662919E+02  0.50085706453E+03  0.52962922116E+03  0.12500000000E+03 0.  0.
         25    1    1    2    0    0  0.37405181586E+02  0.11850773221E+03  0.48181913161E+03  0.51304766424E+03  0.12500000000E+03 0.  0.
         25    1    1    2    0    0  0.62341741295E+02 -0.54673069287E+02  0.12038461284E+03  0.19233588386E+03  0.12500000000E+03 0.  0.
</event>
<event>
 5    0  0.5735425E-005  0.3488691E+03  0.7546771E-02  0.1063080E+00
         21   -1    0    0  502  501  0.00000000000E+00  0.00000000000E+00  0.49215378170E+03  0.49215378170E+03  0.00000000000E+00 0. -1.
         21   -1    0    0  501  502 -0.00000000000E+00 -0.00000000000E+00 -0.24729998631E+03  0.24729998631E+03  0.00000000000E+00 0. -1.
         25    1    1    2    0    0 -0.11062588074E+03  0.80307753337E+02 -0.21179603986E+01  0.18524822939E+03  0.12500000000E+03 0.  0.
         25    1    1    2    0    0  0.15939213717E+03  0.53639483911E+02 -0.36976219134E+02  0.21277990602E+03  0.12500000000E+03 0.  0.
         25    1    1    2    0    0 -0.48766256425E+02 -0.13394723725E+03  0.28394797492E+03  0.34142563259E+03  0.12500000000E+03 0.  0.
</event>
<event>
 5    0  0.5735425E-005  0.2243260E+03  0.7546771E-02  0.1130698E+00
         21   -1    0    0  502  501  0.00000000000E+00  0.00000000000E+00  0.46844042178E+02  0.46844042178E+02  0.00000000000E+00 0.  1.
         21   -1    0    0  501  502 -0.00000000000E+00 -0.00000000000E+00 -0.10742490728E+04  0.10742490728E+04  0.00000000000E+00 0.  1.
         25    1    1    2    0    0  0.14212852586E+01 -0.89203778686E+01 -0.31908322397E+03  0.34281291839E+03  0.12500000000E+03 0.  0.
         25    1    1    2    0    0  0.40311539085E+02  0.65404085396E+02 -0.18750210292E+03  0.23808560051E+03  0.12500000000E+03 0.  0.
         25    1    1    2    0    0 -0.41732824344E+02 -0.56483707527E+02 -0.52081970374E+03  0.54019459609E+03  0.12500000000E+03 0.  0.
</event>
<event>
 5    0  0.5735425E-005  0.2839819E+03  0.7546771E-02  0.1093534E+00
         21   -1    0    0  502  501  0.00000000000E+00  0.00000000000E+00  0.15959159401E+03  0.15959159401E+03  0.00000000000E+00 0. -1.
         21   -1    0    0  501  502 -0.00000000000E+00 -0.00000000000E+00 -0.50532559568E+03  0.50532559568E+03  0.00000000000E+00 0. -1.
         25    1    1    2    0    0  0.42453660695E+02  0.11982219201E+03 -0.23545448431E+03  0.29533622396E+03  0.12500000000E+03 0.  0.
         25    1    1    2    0    0 -0.10569726725E+03 -0.71193416338E+02  0.97896423274E+01  0.17877710125E+03  0.12500000000E+03 0.  0.
         25    1    1    2    0    0  0.63243606553E+02 -0.48628775668E+02 -0.12006915969E+03  0.19080386448E+03  0.12500000000E+03 0.  0.
</event>
<event>
 5    0  0.5735425E-005  0.3657182E+03  0.7546771E-02  0.1056342E+00
         21   -1    0    0  502  501  0.00000000000E+00  0.00000000000E+00  0.27645269636E+03  0.27645269636E+03  0.00000000000E+00 0. -1.
         21   -1    0    0  501  502 -0.00000000000E+00 -0.00000000000E+00 -0.48380723951E+03  0.48380723951E+03  0.00000000000E+00 0. -1.
         25    1    1    2    0    0  0.27125329702E+02 -0.85904293979E+02  0.59279876826E+02  0.16508917297E+03  0.12500000000E+03 0.  0.
         25    1    1    2    0    0  0.18152222254E+03  0.11458627437E+03 -0.22596809599E+02  0.24943124775E+03  0.12500000000E+03 0.  0.
         25    1    1    2    0    0 -0.20864755225E+03 -0.28681980392E+02 -0.24403761037E+03  0.34573951515E+03  0.12500000000E+03 0.  0.
</event>
<event>
 5    0  0.5735425E-005  0.3672882E+03  0.7546771E-02  0.1055735E+00
         21   -1    0    0  502  501  0.00000000000E+00  0.00000000000E+00  0.30052301466E+03  0.30052301466E+03  0.00000000000E+00 0.  1.
         21   -1    0    0  501  502 -0.00000000000E+00 -0.00000000000E+00 -0.44888608140E+03  0.44888608140E+03  0.00000000000E+00 0.  1.
         25    1    1    2    0    0 -0.73622008753E+02 -0.25896236685E+03 -0.68762221666E+02  0.30468828456E+03  0.12500000000E+03 0.  0.
         25    1    1    2    0    0  0.14765779055E+03  0.11834353230E+03  0.17117120852E+01  0.22679493977E+03  0.12500000000E+03 0.  0.
         25    1    1    2    0    0 -0.74035781797E+02  0.14061883456E+03 -0.81312557156E+02  0.21792587173E+03  0.12500000000E+03 0.  0.
</event>
<event>
 5    0  0.5735425E-005  0.3882165E+03  0.7546771E-02  0.1047938E+00
         21   -1    0    0  502  501  0.00000000000E+00  0.00000000000E+00  0.21190834524E+03  0.21190834524E+03  0.00000000000E+00 0.  1.
         21   -1    0    0  501  502 -0.00000000000E+00 -0.00000000000E+00 -0.71121352676E+03  0.71121352676E+03  0.00000000000E+00 0.  1.
         25    1    1    2    0    0  0.84181902259E+02  0.88222162934E+02  0.23182139408E+02  0.17615945699E+03  0.12500000000E+03 0.  0.
         25    1    1    2    0    0 -0.13495858251E+03 -0.13915692037E+03 -0.55333555409E+03  0.59948619909E+03  0.12500000000E+03 0.  0.
         25    1    1    2    0    0  0.50776680248E+02  0.50934757435E+02  0.30848233163E+02  0.14747621592E+03  0.12500000000E+03 0.  0.
</event>
<event>
 5    0  0.5735425E-005  0.2127340E+03  0.7546771E-02  0.1139419E+00
         21   -1    0    0  502  501  0.00000000000E+00  0.00000000000E+00  0.80377059922E+03  0.80377059922E+03  0.00000000000E+00 0. -1.
         21   -1    0    0  501  502 -0.00000000000E+00 -0.00000000000E+00 -0.56304323143E+02  0.56304323143E+02  0.00000000000E+00 0. -1.
         25    1    1    2    0    0  0.24918141563E+02  0.22167806651E+02  0.23099926217E+03  0.26476023975E+03  0.12500000000E+03 0.  0.
         25    1    1    2    0    0 -0.86542465176E+02 -0.34593067113E+02  0.28410227720E+03  0.32407619857E+03  0.12500000000E+03 0.  0.
         25    1    1    2    0    0  0.61624323613E+02  0.12425260462E+02  0.23236473671E+03  0.27123848404E+03  0.12500000000E+03 0.  0.
</event>
<event>
 5    0  0.5735425E-005  0.2486488E+03  0.7546771E-02  0.1114162E+00
         21   -1    0    0  502  501  0.00000000000E+00  0.00000000000E+00  0.56715077032E+02  0.56715077032E+02  0.00000000000E+00 0. -1.
         21   -1    0    0  501  502 -0.00000000000E+00 -0.00000000000E+00 -0.10901199108E+04  0.10901199108E+04  0.00000000000E+00 0. -1.
         25    1    1    2    0    0 -0.33286893529E+02 -0.23047988332E+02 -0.37403378668E+03  0.39644104307E+03  0.12500000000E+03 0.  0.
         25    1    1    2    0    0 -0.84675492626E+02  0.87420718720E+02 -0.30807689545E+03  0.35404617583E+03  0.12500000000E+03 0.  0.
         25    1    1    2    0    0  0.11796238615E+03 -0.64372730388E+02 -0.35129415165E+03  0.39634776895E+03  0.12500000000E+03 0.  0.
</event>
<event>
 5    0  0.5735425E-005  0.2511955E+03  0.7546771E-02  0.1112552E+00
         21   -1    0    0  502  501  0.00000000000E+00  0.00000000000E+00  0.10193530072E+03  0.10193530072E+03  0.00000000000E+00 0. -1.
         21   -1    0    0  501  502 -0.00000000000E+00 -0.00000000000E+00 -0.61901211984E+03  0.61901211984E+03  0.00000000000E+00 0. -1.
         25    1    1    2    0    0  0.51873025783E+02 -0.20587868639E+02 -0.14604414050E+03  0.20017133190E+03  0.12500000000E+03 0.  0.
         25    1    1    2    0    0  0.43696369506E+02  0.51430952930E+02 -0.31818160995E+02  0.14557441738E+03  0.12500000000E+03 0.  0.
         25    1    1    2    0    0 -0.95569395288E+02 -0.30843084291E+02 -0.33921451763E+03  0.37520167128E+03  0.12500000000E+03 0.  0.
</event>
<event>
 5    0  0.5735425E-005  0.3153616E+03  0.7546771E-02  0.1077804E+00
         21   -1    0    0  502  501  0.00000000000E+00  0.00000000000E+00  0.25850759716E+03  0.25850759716E+03  0.00000000000E+00 0.  1.
         21   -1    0    0  501  502 -0.00000000000E+00 -0.00000000000E+00 -0.38471957417E+03  0.38471957417E+03  0.00000000000E+00 0.  1.
         25    1    1    2    0    0  0.17678515522E+03 -0.15633359332E+03  0.19583538614E+01  0.26706182553E+03  0.12500000000E+03 0.  0.
         25    1    1    2    0    0 -0.82512723267E+02  0.11921670211E+03 -0.53413920166E+02  0.19874359972E+03  0.12500000000E+03 0.  0.
         25    1    1    2    0    0 -0.94272431952E+02  0.37116891211E+02 -0.74756410709E+02  0.17742174608E+03  0.12500000000E+03 0.  0.
</event>
<event>
 5    0  0.5735425E-005  0.4760392E+03  0.7546771E-02  0.1020229E+00
         21   -1    0    0  502  501  0.00000000000E+00  0.00000000000E+00  0.91349651243E+03  0.91349651243E+03  0.00000000000E+00 0. -1.
         21   -1    0    0  501  502 -0.00000000000E+00 -0.00000000000E+00 -0.24807248904E+03  0.24807248904E+03  0.00000000000E+00 0. -1.
         25    1    1    2    0    0  0.14796629712E+03  0.71222314392E+02  0.26858032258E+03  0.33871379191E+03  0.12500000000E+03 0.  0.
         25    1    1    2    0    0 -0.25054214128E+03 -0.33580554600E+02 -0.99844787151E+02  0.29915380614E+03  0.12500000000E+03 0.  0.
         25    1    1    2    0    0  0.10257584416E+03 -0.37641759792E+02  0.49668848796E+03  0.52370140343E+03  0.12500000000E+03 0.  0.
</event>
<event>
 5    0  0.5735425E-005  0.3916269E+03  0.7546771E-02  0.1046718E+00
         21   -1    0    0  502  501  0.00000000000E+00  0.00000000000E+00  0.59585184890E+03  0.59585184890E+03  0.00000000000E+00 0. -1.
         21   -1    0    0  501  502 -0.00000000000E+00 -0.00000000000E+00 -0.25739897697E+03  0.25739897697E+03  0.00000000000E+00 0. -1.
         25    1    1    2    0    0  0.23297148272E+03 -0.18745252271E+03  0.74310218696E+01  0.32418263389E+03  0.12500000000E+03 0.  0.
         25    1    1    2    0    0 -0.15236960770E+03  0.43259850662E+02  0.12760628325E+03  0.23873892761E+03  0.12500000000E+03 0.  0.
         25    1    1    2    0    0 -0.80601875019E+02  0.14419267205E+03  0.20341556681E+03  0.29032926437E+03  0.12500000000E+03 0.  0.
</event>
<event>
 5    0  0.5735425E-005  0.3525040E+03  0.7546771E-02  0.1061592E+00
         21   -1    0    0  502  501  0.00000000000E+00  0.00000000000E+00  0.46102870153E+02  0.46102870153E+02  0.00000000000E+00 0. -1.
         21   -1    0    0  501  502 -0.00000000000E+00 -0.00000000000E+00 -0.26952559734E+04  0.26952559734E+04  0.00000000000E+00 0. -1.
         25    1    1    2    0    0  0.41020428321E+02  0.17749441929E+03 -0.75816526967E+03  0.78970027261E+03  0.12500000000E+03 0.  0.
         25    1    1    2    0    0 -0.20259934790E+03 -0.12861216182E+03 -0.97093552974E+03  0.10079327293E+04  0.12500000000E+03 0.  0.
         25    1    1    2    0    0  0.16157891958E+03 -0.48882257465E+02 -0.92005230385E+03  0.94372584163E+03  0.12500000000E+03 0.  0.
</event>
<event>
 5    0  0.5735425E-005  0.3431410E+03  0.7546771E-02  0.1065466E+00
         21   -1    0    0  502  501  0.00000000000E+00  0.00000000000E+00  0.20682962057E+03  0.20682962057E+03  0.00000000000E+00 0.  1.
         21   -1    0    0  501  502 -0.00000000000E+00 -0.00000000000E+00 -0.56928863934E+03  0.56928863934E+03  0.00000000000E+00 0.  1.
         25    1    1    2    0    0 -0.45814373233E+01 -0.11325639146E+03 -0.12003432795E+03  0.20707785893E+03  0.12500000000E+03 0.  0.
         25    1    1    2    0    0  0.18317576707E+03  0.17563698267E+03 -0.94260050677E+02  0.29818059708E+03  0.12500000000E+03 0.  0.
         25    1    1    2    0    0 -0.17859432975E+03 -0.62380591209E+02 -0.14816464014E+03  0.27085980389E+03  0.12500000000E+03 0.  0.
</event>
<event>
 5    0  0.5735425E-005  0.3132846E+03  0.7546771E-02  0.1078782E+00
         21   -1    0    0  502  501  0.00000000000E+00  0.00000000000E+00  0.67433714455E+03  0.67433714455E+03  0.00000000000E+00 0. -1.
         21   -1    0    0  501  502 -0.00000000000E+00 -0.00000000000E+00 -0.14554621829E+03  0.14554621829E+03  0.00000000000E+00 0. -1.
         25    1    1    2    0    0  0.15110993852E+03  0.81831334813E+02  0.31827366748E+03  0.38269270739E+03  0.12500000000E+03 0.  0.
         25    1    1    2    0    0 -0.17246801901E+03 -0.11419580446E+03  0.18375434261E+03  0.30360592511E+03  0.12500000000E+03 0.  0.
         25    1    1    2    0    0  0.21358080483E+02  0.32364469645E+02  0.26762916175E+02  0.13358473034E+03  0.12500000000E+03 0.  0.
</event>
<event>
 5    0  0.5735425E-005  0.3860942E+03  0.7546771E-02  0.1048704E+00
         21   -1    0    0  502  501  0.00000000000E+00  0.00000000000E+00  0.90742844960E+03  0.90742844960E+03  0.00000000000E+00 0. -1.
         21   -1    0    0  501  502 -0.00000000000E+00 -0.00000000000E+00 -0.16427605328E+03  0.16427605328E+03  0.00000000000E+00 0. -1.
         25    1    1    2    0    0 -0.90859074345E+02  0.57239828637E+02  0.11730392010E+03  0.20227945779E+03  0.12500000000E+03 0.  0.
         25    1    1    2    0    0 -0.19682645516E+03 -0.11383150743E+03  0.15953352032E+03  0.30458859080E+03  0.12500000000E+03 0.  0.
         25    1    1    2    0    0  0.28768552951E+03  0.56591678795E+02  0.46631495589E+03  0.56483645428E+03  0.12500000000E+03 0.  0.
</event>
<event>
 5    0  0.5735425E-005  0.3428987E+03  0.7546771E-02  0.1065568E+00
         21   -1    0    0  502  501  0.00000000000E+00  0.00000000000E+00  0.25422337882E+03  0.25422337882E+03  0.00000000000E+00 0.  1.
         21   -1    0    0  501  502 -0.00000000000E+00 -0.00000000000E+00 -0.46250473739E+03  0.46250473739E+03  0.00000000000E+00 0.  1.
         25    1    1    2    0    0 -0.10852113935E+03  0.10957978738E+02 -0.31004075398E+02  0.16876956976E+03  0.12500000000E+03 0.  0.
         25    1    1    2    0    0  0.26624582215E+03 -0.68532688552E+02 -0.59629885254E+02  0.30783809125E+03  0.12500000000E+03 0.  0.
         25    1    1    2    0    0 -0.15772468279E+03  0.57574709814E+02 -0.11764739792E+03  0.24012045521E+03  0.12500000000E+03 0.  0.
</event>
<event>
 5    0  0.5735425E-005  0.2816350E+03  0.7546771E-02  0.1094799E+00
         21   -1    0    0  502  501  0.00000000000E+00  0.00000000000E+00  0.63177860811E+03  0.63177860811E+03  0.00000000000E+00 0. -1.
         21   -1    0    0  501  502 -0.00000000000E+00 -0.00000000000E+00 -0.12554754185E+03  0.12554754185E+03  0.00000000000E+00 0. -1.
         25    1    1    2    0    0 -0.18032276300E+02  0.17902565375E+03  0.20935993236E+03  0.30303783422E+03  0.12500000000E+03 0.  0.
         25    1    1    2    0    0  0.15960065800E+02 -0.11301852389E+03  0.62228306037E+02  0.18034764350E+03  0.12500000000E+03 0.  0.
         25    1    1    2    0    0  0.20722105000E+01 -0.66007129856E+02  0.23464282786E+03  0.27394067225E+03  0.12500000000E+03 0.  0.
</event>
<event>
 5    0  0.5735425E-005  0.2812448E+03  0.7546771E-02  0.1095011E+00
         21   -1    0    0  502  501  0.00000000000E+00  0.00000000000E+00  0.21685537335E+03  0.21685537335E+03  0.00000000000E+00 0. -1.
         21   -1    0    0  501  502 -0.00000000000E+00 -0.00000000000E+00 -0.36475305388E+03  0.36475305388E+03  0.00000000000E+00 0. -1.
         25    1    1    2    0    0 -0.21315217058E+02 -0.25219165179E+01 -0.15576755220E+02  0.12778236907E+03  0.12500000000E+03 0.  0.
         25    1    1    2    0    0 -0.64955796071E+02  0.13909012330E+03  0.20083617819E+02  0.19898158093E+03  0.12500000000E+03 0.  0.
         25    1    1    2    0    0  0.86271013129E+02 -0.13656820678E+03 -0.15240454313E+03  0.25484447724E+03  0.12500000000E+03 0.  0.
</event>
<event>
 5    0  0.5735425E-005  0.1103074E+04  0.7546771E-02  0.9202201E-01
         21   -1    0    0  502  501  0.00000000000E+00  0.00000000000E+00  0.69978354089E+03  0.69978354089E+03  0.00000000000E+00 0. -1.
         21   -1    0    0  501  502 -0.00000000000E+00 -0.00000000000E+00 -0.17387838757E+04  0.17387838757E+04  0.00000000000E+00 0. -1.
         25    1    1    2    0    0  0.30785268400E+02  0.17848641408E+03 -0.12533565852E+04  0.12725301027E+04  0.12500000000E+03 0.  0.
         25    1    1    2    0    0  0.16854455790E+03 -0.55644645209E+03  0.36292672865E+03  0.69669271018E+03  0.12500000000E+03 0.  0.
         25    1    1    2    0    0 -0.19932982630E+03  0.37796003801E+03 -0.14857047829E+03  0.46934460368E+03  0.12500000000E+03 0.  0.
</event>
<event>
 5    0  0.5735425E-005  0.3561785E+03  0.7546771E-02  0.1060107E+00
         21   -1    0    0  502  501  0.00000000000E+00  0.00000000000E+00  0.27193406567E+03  0.27193406567E+03  0.00000000000E+00 0. -1.
         21   -1    0    0  501  502 -0.00000000000E+00 -0.00000000000E+00 -0.46652164634E+03  0.46652164634E+03  0.00000000000E+00 0. -1.
         25    1    1    2    0    0  0.32328256459E+02 -0.20116273212E+03 -0.79343238314E+02  0.25185692451E+03  0.12500000000E+03 0.  0.
         25    1    1    2    0    0 -0.18373982462E+03  0.71083554706E+02 -0.26121766569E+02  0.23477764286E+03  0.12500000000E+03 0.  0.
         25    1    1    2    0    0  0.15141156816E+03  0.13007917741E+03 -0.89122575780E+02  0.25182114463E+03  0.12500000000E+03 0.  0.
</event>
<event>
 5    0  0.5735425E-005  0.2317621E+03  0.7546771E-02  0.1125406E+00
         21   -1    0    0  502  501  0.00000000000E+00  0.00000000000E+00  0.10286956634E+04  0.10286956634E+04  0.00000000000E+00 0. -1.
         21   -1    0    0  501  502 -0.00000000000E+00 -0.00000000000E+00 -0.52215329969E+02  0.52215329969E+02  0.00000000000E+00 0. -1.
         25    1    1    2    0    0  0.52619203724E+02  0.14017574256E+02  0.17622503368E+03  0.22281278124E+03  0.12500000000E+03 0.  0.
         25    1    1    2    0    0  0.51190862419E+02 -0.48279193560E+02  0.35506963213E+03  0.38295016463E+03  0.12500000000E+03 0.  0.
         25    1    1    2    0    0 -0.10381006614E+03  0.34261619304E+02  0.44518566761E+03  0.47514804749E+03  0.12500000000E+03 0.  0.
</event>
<event>
 5    0  0.5735425E-005  0.2239561E+03  0.7546771E-02  0.1130968E+00
         21   -1    0    0  502  501  0.00000000000E+00  0.00000000000E+00  0.77981267689E+02  0.77981267689E+02  0.00000000000E+00 0. -1.
         21   -1    0    0  501  502 -0.00000000000E+00 -0.00000000000E+00 -0.64318436418E+03  0.64318436418E+03  0.00000000000E+00 0. -1.
         25    1    1    2    0    0 -0.69930630883E+02  0.29327015477E+02 -0.77543386287E+02  0.16549424077E+03  0.12500000000E+03 0.  0.
         25    1    1    2    0    0  0.49985184397E+02 -0.69295704191E+01 -0.29127380804E+03  0.32095477696E+03  0.12500000000E+03 0.  0.
         25    1    1    2    0    0  0.19945446487E+02 -0.22397445058E+02 -0.19638590217E+03  0.23471661413E+03  0.12500000000E+03 0.  0.
</event>
<event>
 5    0  0.5735425E-005  0.2950953E+03  0.7546771E-02  0.1087718E+00
         21   -1    0    0  502  501  0.00000000000E+00  0.00000000000E+00  0.66526596085E+03  0.66526596085E+03  0.00000000000E+00 0.  1.
         21   -1    0    0  501  502 -0.00000000000E+00 -0.00000000000E+00 -0.13089684181E+03  0.13089684181E+03  0.00000000000E+00 0.  1.
         25    1    1    2    0    0 -0.23999570009E+02 -0.36256462237E+02  0.10403036886E+03  0.16833843311E+03  0.12500000000E+03 0.  0.
         25    1    1    2    0    0 -0.93005640579E+02  0.17614259317E+03  0.20235636909E+03  0.31024081359E+03  0.12500000000E+03 0.  0.
         25    1    1    2    0    0  0.11700521059E+03 -0.13988613093E+03  0.22798238110E+03  0.31758355597E+03  0.12500000000E+03 0.  0.
</event>
<event>
 5    0  0.5735425E-005  0.2868685E+03  0.7546771E-02  0.1091996E+00
         21   -1    0    0  502  501  0.00000000000E+00  0.00000000000E+00  0.10430903153E+04  0.10430903153E+04  0.00000000000E+00 0. -1.
         21   -1    0    0  501  502 -0.00000000000E+00 -0.00000000000E+00 -0.78893962557E+02  0.78893962557E+02  0.00000000000E+00 0. -1.
         25    1    1    2    0    0 -0.12120668710E+03  0.68085156719E+02  0.49037413323E+03  0.52480323942E+03  0.12500000000E+03 0.  0.
         25    1    1    2    0    0 -0.33329249053E+02 -0.96312341871E+02  0.23769343577E+03  0.28724567089E+03  0.12500000000E+03 0.  0.
         25    1    1    2    0    0  0.15453593615E+03  0.28227185152E+02  0.23612878376E+03  0.30993536756E+03  0.12500000000E+03 0.  0.
</event>
<event>
 5    0  0.5735425E-005  0.2987197E+03  0.7546771E-02  0.1085882E+00
         21   -1    0    0  502  501  0.00000000000E+00  0.00000000000E+00  0.58316440942E+03  0.58316440942E+03  0.00000000000E+00 0.  1.
         21   -1    0    0  501  502 -0.00000000000E+00 -0.00000000000E+00 -0.15301591936E+03  0.15301591936E+03  0.00000000000E+00 0.  1.
         25    1    1    2    0    0  0.16026204821E+03  0.16562960412E+02  0.16377720097E+03  0.26154584170E+03  0.12500000000E+03 0.  0.
         25    1    1    2    0    0  0.54583047114E+02  0.18458498331E+02  0.12822483544E+03  0.18811335311E+03  0.12500000000E+03 0.  0.
         25    1    1    2    0    0 -0.21484509533E+03 -0.35021458743E+02  0.13814645364E+03  0.28652113397E+03  0.12500000000E+03 0.  0.
</event>
<event>
 5    0  0.5735425E-005  0.3053489E+03  0.7546771E-02  0.1082597E+00
         21   -1    0    0  502  501  0.00000000000E+00  0.00000000000E+00  0.48460380018E+03  0.48460380018E+03  0.00000000000E+00 0.  1.
         21   -1    0    0  501  502 -0.00000000000E+00 -0.00000000000E+00 -0.19240041822E+03  0.19240041822E+03  0.00000000000E+00 0.  1.
         25    1    1    2    0    0  0.55797481514E+02 -0.99711680480E+00 -0.55187166262E+02  0.14759734586E+03  0.12500000000E+03 0.  0.
         25    1    1    2    0    0 -0.17144830643E+03  0.42509253112E+02  0.24304237110E+03  0.32541689036E+03  0.12500000000E+03 0.  0.
         25    1    1    2    0    0  0.11565082491E+03 -0.41512136307E+02  0.10434817712E+03  0.20398998219E+03  0.12500000000E+03 0.  0.
</event>
<event>
 5    0  0.5735425E-005  0.5900982E+03  0.7546771E-02  0.9926165E-01
         21   -1    0    0  502  501  0.00000000000E+00  0.00000000000E+00  0.57684796282E+03  0.57684796282E+03  0.00000000000E+00 0.  1.
         21   -1    0    0  501  502 -0.00000000000E+00 -0.00000000000E+00 -0.60365274077E+03  0.60365274077E+03  0.00000000000E+00 0.  1.
         25    1    1    2    0    0  0.22538618903E+03 -0.10115292270E+03 -0.74947385848E+02  0.28683263172E+03  0.12500000000E+03 0.  0.
         25    1    1    2    0    0 -0.14752207111E+03  0.14556011110E+03 -0.37337942738E+03  0.44495809263E+03  0.12500000000E+03 0.  0.
         25    1    1    2    0    0 -0.77864117919E+02 -0.44407188402E+02  0.42152203527E+03  0.44870997923E+03  0.12500000000E+03 0.  0.
</event>
<event>
 5    0  0.5735425E-005  0.2305809E+03  0.7546771E-02  0.1126232E+00
         21   -1    0    0  502  501  0.00000000000E+00  0.00000000000E+00  0.44190567923E+02  0.44190567923E+02  0.00000000000E+00 0.  1.
         21   -1    0    0  501  502 -0.00000000000E+00 -0.00000000000E+00 -0.12031420649E+04  0.12031420649E+04  0.00000000000E+00 0.  1.
         25    1    1    2    0    0  0.20814069751E+02 -0.10588902196E+03 -0.45326966923E+03  0.48241486660E+03  0.12500000000E+03 0.  0.
         25    1    1    2    0    0 -0.32869077544E+02  0.40233343975E+02 -0.21397351058E+03  0.25319708027E+03  0.12500000000E+03 0.  0.
         25    1    1    2    0    0  0.12055007793E+02  0.65655677989E+02 -0.49170831716E+03  0.51172068595E+03  0.12500000000E+03 0.  0.
</event>
<event>
 5    0  0.5735425E-005  0.5375058E+03  0.7546771E-02  0.1004428E+00
         21   -1    0    0  502  501  0.00000000000E+00  0.00000000000E+00  0.86452800549E+03  0.86452800549E+03  0.00000000000E+00 0. -1.
         21   -1    0    0  501  502 -0.00000000000E+00 -0.00000000000E+00 -0.33418527732E+03  0.33418527732E+03  0.00000000000E+00 0. -1.
         25    1    1    2    0    0 -0.29422551318E+02  0.38955453999E+02  0.41517349721E+03  0.43632241142E+03  0.12500000000E+03 0.  0.
         25    1    1    2    0    0 -0.26710440097E+03  0.53383272577E+02  0.26081760129E+03  0.39729756600E+03  0.12500000000E+03 0.  0.
         25    1    1    2    0    0  0.29652695229E+03 -0.92338726576E+02 -0.14564837033E+03  0.36509330539E+03  0.12500000000E+03 0.  0.
</event>
<event>
 5    0  0.5735425E-005  0.2927305E+03  0.7546771E-02  0.1088932E+00
         21   -1    0    0  502  501  0.00000000000E+00  0.00000000000E+00  0.17588439028E+03  0.17588439028E+03  0.00000000000E+00 0.  1.
         21   -1    0    0  501  502 -0.00000000000E+00 -0.00000000000E+00 -0.48720143283E+03  0.48720143283E+03  0.00000000000E+00 0.  1.
         25    1    1    2    0    0  0.29891335100E+02  0.12597034403E+03 -0.22079689417E+03  0.28484783300E+03  0.12500000000E+03 0.  0.
         25    1    1    2    0    0 -0.11354661344E+03 -0.22344621866E+02  0.83411248076E+01  0.17054820408E+03  0.12500000000E+03 0.  0.
         25    1    1    2    0    0  0.83655278344E+02 -0.10362572216E+03 -0.98861273182E+02  0.20768978604E+03  0.12500000000E+03 0.  0.
</event>
<event>
 5    0  0.5998004E-005  0.2951807E+03  0.7546771E-02  0.1087675E+00
         21   -1    0    0  502  501  0.00000000000E+00  0.00000000000E+00  0.19615142821E+03  0.19615142821E+03  0.00000000000E+00 0.  1.
         21   -1    0    0  501  502 -0.00000000000E+00 -0.00000000000E+00 -0.44420604747E+03  0.44420604747E+03  0.00000000000E+00 0.  1.
         25    1    1    2    0    0  0.71220027047E+02  0.30747627669E+02  0.35332667130E+02  0.15129807080E+03  0.12500000000E+03 0.  0.
         25    1    1    2    0    0  0.57872816682E+02 -0.81888960181E+02 -0.13503904113E+02  0.16081797206E+03  0.12500000000E+03 0.  0.
         25    1    1    2    0    0 -0.12909284373E+03  0.51141332513E+02 -0.26988338228E+03  0.32824143282E+03  0.12500000000E+03 0.  0.
</event>
<event>
 5    0  0.5735425E-005  0.3052239E+03  0.7546771E-02  0.1082658E+00
         21   -1    0    0  502  501  0.00000000000E+00  0.00000000000E+00  0.31215509367E+03  0.31215509367E+03  0.00000000000E+00 0. -1.
         21   -1    0    0  501  502 -0.00000000000E+00 -0.00000000000E+00 -0.29844661878E+03  0.29844661878E+03  0.00000000000E+00 0. -1.
         25    1    1    2    0    0  0.65157038091E+01 -0.50993747518E+02  0.86129902287E+02  0.16026907609E+03  0.12500000000E+03 0.  0.
         25    1    1    2    0    0  0.65471382633E+02 -0.16742793627E+02  0.13007999555E+03  0.19264638155E+03  0.12500000000E+03 0.  0.
         25    1    1    2    0    0 -0.71987086442E+02  0.67736541145E+02 -0.20250142295E+03  0.25768625481E+03  0.12500000000E+03 0.  0.
</event>
<event>
 5    0  0.5735425E-005  0.3198528E+03  0.7546771E-02  0.1075717E+00
         21   -1    0    0  502  501  0.00000000000E+00  0.00000000000E+00  0.10960791453E+03  0.10960791453E+03  0.00000000000E+00 0. -1.
         21   -1    0    0  501  502 -0.00000000000E+00 -0.00000000000E+00 -0.93337989702E+03  0.93337989702E+03  0.00000000000E+00 0. -1.
         25    1    1    2    0    0 -0.13925775519E+03  0.65591422355E+01 -0.18929294285E+02  0.18819952951E+03  0.12500000000E+03 0.  0.
         25    1    1    2    0    0  0.72806246137E+02  0.24191816248E+00 -0.36260665982E+03  0.39039646227E+03  0.12500000000E+03 0.  0.
         25    1    1    2    0    0  0.66451509049E+02 -0.68010603980E+01 -0.44223602838E+03  0.46439181977E+03  0.12500000000E+03 0.  0.
</event>
<event>
 5    0  0.5735425E-005  0.3688771E+03  0.7546771E-02  0.1055123E+00
         21   -1    0    0  502  501  0.00000000000E+00  0.00000000000E+00  0.97042264511E+02  0.97042264511E+02  0.00000000000E+00 0. -1.
         21   -1    0    0  501  502 -0.00000000000E+00 -0.00000000000E+00 -0.14021757575E+04  0.14021757575E+04  0.00000000000E+00 0. -1.
         25    1    1    2    0    0 -0.18640393100E+03  0.18219875669E+03 -0.64847766824E+03  0.70999373141E+03  0.12500000000E+03 0.  0.
         25    1    1    2    0    0  0.19431918831E+02 -0.16303446118E+02 -0.39760247002E+03  0.41755972746E+03  0.12500000000E+03 0.  0.
         25    1    1    2    0    0  0.16697201216E+03 -0.16589531057E+03 -0.25905335478E+03  0.37166456320E+03  0.12500000000E+03 0.  0.
</event>
<event>
 5    0  0.5735425E-005  0.4591435E+03  0.7546771E-02  0.1025030E+00
         21   -1    0    0  502  501  0.00000000000E+00  0.00000000000E+00  0.66493392969E+03  0.66493392969E+03  0.00000000000E+00 0. -1.
         21   -1    0    0  501  502 -0.00000000000E+00 -0.00000000000E+00 -0.31704321297E+03  0.31704321297E+03  0.00000000000E+00 0. -1.
         25    1    1    2    0    0 -0.46406649001E+02  0.37577222596E+02  0.18801572116E+03  0.23353915332E+03  0.12500000000E+03 0.  0.
         25    1    1    2    0    0  0.99518567338E+02 -0.55451118111E+02 -0.25810622687E+03  0.30858158741E+03  0.12500000000E+03 0.  0.
         25    1    1    2    0    0 -0.53111918338E+02  0.17873895515E+02  0.41798122243E+03  0.43985640192E+03  0.12500000000E+03 0.  0.
</event>
<event>
 5    0  0.5735425E-005  0.3629287E+03  0.7546771E-02  0.1057430E+00
         21   -1    0    0  502  501  0.00000000000E+00  0.00000000000E+00  0.13435408284E+03  0.13435408284E+03  0.00000000000E+00 0. -1.
         21   -1    0    0  501  502 -0.00000000000E+00 -0.00000000000E+00 -0.98037377044E+03  0.98037377044E+03  0.00000000000E+00 0. -1.
         25    1    1    2    0    0  0.27699928169E+03 -0.70891667058E+02 -0.28566113773E+03  0.42306207124E+03  0.12500000000E+03 0.  0.
         25    1    1    2    0    0 -0.77553174096E+02 -0.43890376177E+01 -0.29113187702E+03  0.32621546297E+03  0.12500000000E+03 0.  0.
         25    1    1    2    0    0 -0.19944610760E+03  0.75280704675E+02 -0.26922667285E+03  0.36545031907E+03  0.12500000000E+03 0.  0.
</event>
<event>
 5    0  0.5794122E-005  0.3137391E+03  0.7546771E-02  0.1078567E+00
         21   -1    0    0  502  501  0.00000000000E+00  0.00000000000E+00  0.91903435119E+03  0.91903435119E+03  0.00000000000E+00 0.  1.
         21   -1    0    0  501  502 -0.00000000000E+00 -0.00000000000E+00 -0.10710395778E+03  0.10710395778E+03  0.00000000000E+00 0.  1.
         25    1    1    2    0    0  0.87333812587E+02  0.46355091901E+02  0.26528344126E+02  0.16156962093E+03  0.12500000000E+03 0.  0.
         25    1    1    2    0    0 -0.16003507245E+02  0.83799434269E+02  0.47479654521E+03  0.49833243600E+03  0.12500000000E+03 0.  0.
         25    1    1    2    0    0 -0.71330305341E+02 -0.13015452617E+03  0.31060550408E+03  0.36623625204E+03  0.12500000000E+03 0.  0.
</event>
<event>
 5    0  0.5735425E-005  0.2366924E+03  0.7546771E-02  0.1122016E+00
         21   -1    0    0  502  501  0.00000000000E+00  0.00000000000E+00  0.14089832759E+04  0.14089832759E+04  0.00000000000E+00 0. -1.
         21   -1    0    0  501  502 -0.00000000000E+00 -0.00000000000E+00 -0.39761499892E+02  0.39761499892E+02  0.00000000000E+00 0. -1.
         25    1    1    2    0    0 -0.62412652029E+02  0.38758996088E+02  0.66027494730E+03  0.67600710421E+03  0.12500000000E+03 0.  0.
         25    1    1    2    0    0 -0.14169840404E+02 -0.83853180673E+02  0.40472183964E+03  0.43203808601E+03  0.12500000000E+03 0.  0.
         25    1    1    2    0    0  0.76582492433E+02  0.45094184585E+02  0.30422498906E+03  0.34069958556E+03  0.12500000000E+03 0.  0.
</event>
<event>
 5    0  0.5735425E-005  0.3126294E+03  0.7546771E-02  0.1079092E+00
         21   -1    0    0  502  501  0.00000000000E+00  0.00000000000E+00  0.34132437500E+03  0.34132437500E+03  0.00000000000E+00 0. -1.
         21   -1    0    0  501  502 -0.00000000000E+00 -0.00000000000E+00 -0.28634674057E+03  0.28634674057E+03  0.00000000000E+00 0. -1.
         25    1    1    2    0    0  0.91462471416E+02 -0.13137919073E+03  0.95924587600E+02  0.22461612128E+03  0.12500000000E+03 0.  0.
         25    1    1    2    0    0 -0.12045961151E+03  0.17139336840E+03 -0.89925881507E+02  0.25999590170E+03  0.12500000000E+03 0.  0.
         25    1    1    2    0    0  0.28997140094E+02 -0.40014177679E+02  0.48978928344E+02  0.14305909258E+03  0.12500000000E+03 0.  0.
</event>
<event>
 5    0  0.5735425E-005  0.2228178E+03  0.7546771E-02  0.1131800E+00
         21   -1    0    0  502  501  0.00000000000E+00  0.00000000000E+00  0.32509237451E+02  0.32509237451E+02  0.00000000000E+00 0. -1.
         21   -1    0    0  501  502 -0.00000000000E+00 -0.00000000000E+00 -0.15271899615E+04  0.15271899615E+04  0.00000000000E+00 0. -1.
         25    1    1    2    0    0  0.10318043319E+02  0.58655714463E+01 -0.93499951048E+03  0.94339278752E+03  0.12500000000E+03 0.  0.
         25    1    1    2    0    0  0.76582663357E+01  0.12252603512E+02 -0.33615294672E+03  0.35893255484E+03  0.12500000000E+03 0.  0.
         25    1    1    2    0    0 -0.17976309655E+02 -0.18118174959E+02 -0.22352826680E+03  0.25737385654E+03  0.12500000000E+03 0.  0.
</event>
<event>
 5    0  0.5735425E-005  0.4593263E+03  0.7546771E-02  0.1024977E+00
         21   -1    0    0  502  501  0.00000000000E+00  0.00000000000E+00  0.56306906160E+03  0.56306906160E+03  0.00000000000E+00 0.  1.
         21   -1    0    0  501  502 -0.00000000000E+00 -0.00000000000E+00 -0.37469769992E+03  0.37469769992E+03  0.00000000000E+00 0.  1.
         25    1    1    2    0    0  0.13191461541E+03 -0.15376803212E+03  0.16343720344E+03  0.28876078842E+03  0.12500000000E+03 0.  0.
         25    1    1    2    0    0 -0.30622287049E+03  0.22370306108E+03 -0.67921852543E+02  0.40503565769E+03  0.12500000000E+03 0.  0.
         25    1    1    2    0    0  0.17430825508E+03 -0.69935028963E+02  0.92856010779E+02  0.24397031541E+03  0.12500000000E+03 0.  0.
</event>
<event>
 5    0  0.5735425E-005  0.2746953E+03  0.7546771E-02  0.1098622E+00
         21   -1    0    0  502  501  0.00000000000E+00  0.00000000000E+00  0.24469086436E+03  0.24469086436E+03  0.00000000000E+00 0. -1.
         21   -1    0    0  501  502 -0.00000000000E+00 -0.00000000000E+00 -0.30837897840E+03  0.30837897840E+03  0.00000000000E+00 0. -1.
         25    1    1    2    0    0 -0.11464320963E+02 -0.11183127144E+03 -0.18345573033E+03  0.24883462162E+03  0.12500000000E+03 0.  0.
         25    1    1    2    0    0  0.22283101161E+02  0.69031282540E+02  0.83014989065E+02  0.16666836225E+03  0.12500000000E+03 0.  0.
         25    1    1    2    0    0 -0.10818780198E+02  0.42799988905E+02  0.36752627223E+02  0.13756685888E+03  0.12500000000E+03 0.  0.
</event>
<event>
 5    0  0.5735425E-005  0.6941721E+03  0.7546771E-02  0.9727251E-01
         21   -1    0    0  502  501  0.00000000000E+00  0.00000000000E+00  0.23975930543E+03  0.23975930543E+03  0.00000000000E+00 0.  1.
         21   -1    0    0  501  502 -0.00000000000E+00 -0.00000000000E+00 -0.20098276642E+04  0.20098276642E+04  0.00000000000E+00 0.  1.
         25    1    1    2    0    0  0.56102357598E+03  0.28417644904E+03 -0.94488571170E+03  0.11419009218E+04  0.12500000000E+03 0.  0.
         25    1    1    2    0    0 -0.11375801302E+03  0.29111502243E+02 -0.13188916253E+03  0.21635183448E+03  0.12500000000E+03 0.  0.
         25    1    1    2    0    0 -0.44726556296E+03 -0.31328795128E+03 -0.69329348452E+03  0.89133421336E+03  0.12500000000E+03 0.  0.
</event>
<event>
 5    0  0.5735425E-005  0.3215754E+03  0.7546771E-02  0.1074927E+00
         21   -1    0    0  502  501  0.00000000000E+00  0.00000000000E+00  0.18941657444E+04  0.18941657444E+04  0.00000000000E+00 0. -1.
         21   -1    0    0  501  502 -0.00000000000E+00 -0.00000000000E+00 -0.54594345855E+02  0.54594345855E+02  0.00000000000E+00 0. -1.
         25    1    1    2    0    0  0.24078675014E+01 -0.16066932217E+03  0.92960237590E+03  0.95163333601E+03  0.12500000000E+03 0.  0.
         25    1    1    2    0    0 -0.11342950411E+03  0.10786633702E+03  0.28725935477E+03  0.35020613354E+03  0.12500000000E+03 0.  0.
         25    1    1    2    0    0  0.11102163661E+03  0.52802985146E+02  0.62270966784E+03  0.64692062067E+03  0.12500000000E+03 0.  0.
</event>
<event>
 5    0  0.5735425E-005  0.4057638E+03  0.7546771E-02  0.1041802E+00
         21   -1    0    0  502  501  0.00000000000E+00  0.00000000000E+00  0.13046315480E+03  0.13046315480E+03  0.00000000000E+00 0.  1.
         21   -1    0    0  501  502 -0.00000000000E+00 -0.00000000000E+00 -0.12619981474E+04  0.12619981474E+04  0.00000000000E+00 0.  1.
         25    1    1    2    0    0 -0.18512936448E+03  0.19676238981E+03 -0.17450341130E+03  0.34505761866E+03  0.12500000000E+03 0.  0.
         25    1    1    2    0    0  0.68034924475E+02 -0.37821762360E+02 -0.16281954531E+03  0.21953232334E+03  0.12500000000E+03 0.  0.
         25    1    1    2    0    0  0.11709444001E+03 -0.15894062745E+03 -0.79421203599E+03  0.82787136020E+03  0.12500000000E+03 0.  0.
</event>
<event>
 5    0  0.5735425E-005  0.3116432E+03  0.7546771E-02  0.1079561E+00
         21   -1    0    0  502  501  0.00000000000E+00  0.00000000000E+00  0.32798088853E+03  0.32798088853E+03  0.00000000000E+00 0.  1.
         21   -1    0    0  501  502 -0.00000000000E+00 -0.00000000000E+00 -0.29611924580E+03  0.29611924580E+03  0.00000000000E+00 0.  1.
         25    1    1    2    0    0 -0.31098586801E+02 -0.40079085255E+02  0.12694099236E+03  0.18523625649E+03  0.12500000000E+03 0.  0.
         25    1    1    2    0    0  0.92417081737E+02  0.37203774213E+02 -0.20606164587E+03  0.26079002993E+03  0.12500000000E+03 0.  0.
         25    1    1    2    0    0 -0.61318494937E+02  0.28753110421E+01  0.11098229623E+03  0.17807384792E+03  0.12500000000E+03 0.  0.
</event>
<event>
 5    0  0.5735425E-005  0.2981504E+03  0.7546771E-02  0.1086169E+00
         21   -1    0    0  502  501  0.00000000000E+00  0.00000000000E+00  0.49956267604E+02  0.49956267604E+02  0.00000000000E+00 0. -1.
         21   -1    0    0  501  502 -0.00000000000E+00 -0.00000000000E+00 -0.17794292490E+04  0.17794292490E+04  0.00000000000E+00 0. -1.
         25    1    1    2    0    0 -0.16889040470E+02 -0.12587568202E+03 -0.38251421473E+03  0.42198584276E+03  0.12500000000E+03 0.  0.
         25    1    1    2    0    0  0.43563827358E+02 -0.58774655886E+02 -0.84735612509E+03  0.85964508371E+03  0.12500000000E+03 0.  0.
         25    1    1    2    0    0 -0.26674786889E+02  0.18465033790E+03 -0.49960264153E+03  0.54775459009E+03  0.12500000000E+03 0.  0.
</event>
<event>
 5    0  0.5735425E-005  0.3338484E+03  0.7546771E-02  0.1069447E+00
         21   -1    0    0  502  501  0.00000000000E+00  0.00000000000E+00  0.16373064135E+03  0.16373064135E+03  0.00000000000E+00 0. -1.
         21   -1    0    0  501  502 -0.00000000000E+00 -0.00000000000E+00 -0.68072016281E+03  0.68072016281E+03  0.00000000000E+00 0.  1.
         25    1    1    2    0    0  0.94401000732E+02  0.15820504144E+03 -0.15614666071E+03  0.27193227783E+03  0.12500000000E+03 0.  0.
         25    1    1    2    0    0  0.93161841325E+02  0.15909104349E+02 -0.16037147165E+03  0.22422363212E+03  0.12500000000E+03 0.  0.
         25    1    1    2    0    0 -0.18756284206E+03 -0.17411414579E+03 -0.20047138909E+03  0.34829489420E+03  0.12500000000E+03 0.  0.
</event>
<event>
 5    0  0.5735425E-005  0.3349152E+03  0.7546771E-02  0.1068983E+00
         21   -1    0    0  502  501  0.00000000000E+00  0.00000000000E+00  0.14042021926E+03  0.14042021926E+03  0.00000000000E+00 0.  1.
         21   -1    0    0  501  502 -0.00000000000E+00 -0.00000000000E+00 -0.79880357534E+03  0.79880357534E+03  0.00000000000E+00 0.  1.
         25    1    1    2    0    0  0.67340598853E+01 -0.22030991376E+01 -0.28964020899E+03  0.31554183854E+03  0.12500000000E+03 0.  0.
         25    1    1    2    0    0  0.12024690438E+02  0.17269351659E+03 -0.18723185837E+02  0.21434365290E+03  0.12500000000E+03 0.  0.
         25    1    1    2    0    0 -0.18758750323E+02 -0.17049041745E+03 -0.35001996126E+03  0.40933830316E+03  0.12500000000E+03 0.  0.
</event>
<event>
 5    0  0.5735425E-005  0.5257980E+03  0.7546771E-02  0.1007256E+00
         21   -1    0    0  502  501  0.00000000000E+00  0.00000000000E+00  0.66498662522E+03  0.66498662522E+03  0.00000000000E+00 0. -1.
         21   -1    0    0  501  502 -0.00000000000E+00 -0.00000000000E+00 -0.41574298307E+03  0.41574298307E+03  0.00000000000E+00 0. -1.
         25    1    1    2    0    0  0.11993494081E+03  0.62926202627E+02  0.52903300904E+02  0.19174946219E+03  0.12500000000E+03 0.  0.
         25    1    1    2    0    0  0.17028254360E+03 -0.23566019345E+03  0.37191132327E+03  0.48833892310E+03  0.12500000000E+03 0.  0.
         25    1    1    2    0    0 -0.29021748441E+03  0.17273399082E+03 -0.17557098202E+03  0.40064122300E+03  0.12500000000E+03 0.  0.
</event>
<event>
 5    0  0.5735425E-005  0.3114211E+03  0.7546771E-02  0.1079667E+00
         21   -1    0    0  502  501  0.00000000000E+00  0.00000000000E+00  0.70350382037E+02  0.70350382037E+02  0.00000000000E+00 0. -1.
         21   -1    0    0  501  502 -0.00000000000E+00 -0.00000000000E+00 -0.13785722722E+04  0.13785722722E+04  0.00000000000E+00 0. -1.
         25    1    1    2    0    0  0.36854422993E+02  0.22609226883E+02 -0.39668801143E+03  0.41815763062E+03  0.12500000000E+03 0.  0.
         25    1    1    2    0    0 -0.17164152716E+03 -0.66409992251E+02 -0.74954146611E+03  0.78186220674E+03  0.12500000000E+03 0.  0.
         25    1    1    2    0    0  0.13478710417E+03  0.43800765368E+02 -0.16199241261E+03  0.24890281686E+03  0.12500000000E+03 0.  0.
</event>
<event>
 5    0  0.5735425E-005  0.4859049E+03  0.7546771E-02  0.1017525E+00
         21   -1    0    0  502  501  0.00000000000E+00  0.00000000000E+00  0.35284770750E+03  0.35284770750E+03  0.00000000000E+00 0. -1.
         21   -1    0    0  501  502 -0.00000000000E+00 -0.00000000000E+00 -0.66913746273E+03  0.66913746273E+03  0.00000000000E+00 0. -1.
         25    1    1    2    0    0  0.18441552613E+03 -0.12002185134E+03  0.79978469637E+02  0.26539760113E+03  0.12500000000E+03 0.  0.
         25    1    1    2    0    0 -0.23756827309E+03 -0.46721916626E+02 -0.45792079939E+03  0.53285840557E+03  0.12500000000E+03 0.  0.
         25    1    1    2    0    0  0.53152746963E+02  0.16674376797E+03  0.61652574525E+02  0.22372916353E+03  0.12500000000E+03 0.  0.
</event>
<event>
 5    0  0.5735425E-005  0.6958377E+03  0.7546771E-02  0.9724377E-01
         21   -1    0    0  502  501  0.00000000000E+00  0.00000000000E+00  0.73096903108E+03  0.73096903108E+03  0.00000000000E+00 0. -1.
         21   -1    0    0  501  502 -0.00000000000E+00 -0.00000000000E+00 -0.66239487577E+03  0.66239487577E+03  0.00000000000E+00 0. -1.
         25    1    1    2    0    0  0.16023148727E+03  0.23318887064E+03  0.23053261073E+03  0.38577385022E+03  0.12500000000E+03 0.  0.
         25    1    1    2    0    0  0.13765983827E+03  0.30949427895E+03 -0.29271841635E+02  0.36224132908E+03  0.12500000000E+03 0.  0.
         25    1    1    2    0    0 -0.29789132555E+03 -0.54268314959E+03 -0.13268661379E+03  0.64534872756E+03  0.12500000000E+03 0.  0.
</event>
<event>
 5    0  0.5735425E-005  0.4998097E+03  0.7546771E-02  0.1013829E+00
         21   -1    0    0  502  501  0.00000000000E+00  0.00000000000E+00  0.28331572801E+03  0.28331572801E+03  0.00000000000E+00 0. -1.
         21   -1    0    0  501  502 -0.00000000000E+00 -0.00000000000E+00 -0.88173620581E+03  0.88173620581E+03  0.00000000000E+00 0. -1.
         25    1    1    2    0    0  0.42932204422E+02  0.66797627769E+02  0.89546187640E+02  0.17305668717E+03  0.12500000000E+03 0.  0.
         25    1    1    2    0    0 -0.71024160562E+02 -0.86385214790E+02  0.98775138814E+02  0.19464933795E+03  0.12500000000E+03 0.  0.
         25    1    1    2    0    0  0.28091956140E+02  0.19587587021E+02 -0.78674180425E+03  0.79734590870E+03  0.12500000000E+03 0.  0.
</event>
<event>
 5    0  0.5735425E-005  0.4199496E+03  0.7546771E-02  0.1037083E+00
         21   -1    0    0  502  501  0.00000000000E+00  0.00000000000E+00  0.30530094918E+03  0.30530094918E+03  0.00000000000E+00 0. -1.
         21   -1    0    0  501  502 -0.00000000000E+00 -0.00000000000E+00 -0.57765175114E+03  0.57765175114E+03  0.00000000000E+00 0. -1.
         25    1    1    2    0    0  0.82795196656E+02  0.33999638472E+03 -0.24204409118E+03  0.44346694159E+03  0.12500000000E+03 0.  0.
         25    1    1    2    0    0 -0.60389881874E+02 -0.21444334972E+03  0.12802498995E+02  0.25577684034E+03  0.12500000000E+03 0.  0.
         25    1    1    2    0    0 -0.22405314782E+02 -0.12555303500E+03 -0.43109209774E+02  0.18370891839E+03  0.12500000000E+03 0.  0.
</event>
<event>
 5    0  0.5735425E-005  0.2173844E+03  0.7546771E-02  0.1135848E+00
         21   -1    0    0  502  501  0.00000000000E+00  0.00000000000E+00  0.83608787931E+03  0.83608787931E+03  0.00000000000E+00 0. -1.
         21   -1    0    0  501  502 -0.00000000000E+00 -0.00000000000E+00 -0.56520356979E+02  0.56520356979E+02  0.00000000000E+00 0. -1.
         25    1    1    2    0    0  0.76854413391E+01 -0.29133267755E+02  0.22210066808E+03  0.25663499383E+03  0.12500000000E+03 0.  0.
         25    1    1    2    0    0  0.18499979847E+02  0.87233955853E+02  0.20138108776E+03  0.25324169249E+03  0.12500000000E+03 0.  0.
         25    1    1    2    0    0 -0.26185421186E+02 -0.58100688098E+02  0.35608576649E+03  0.38273154996E+03  0.12500000000E+03 0.  0.
</event>
<event>
 5    0  0.5735425E-005  0.5833586E+03  0.7546771E-02  0.9940546E-01
         21   -1    0    0  502  501  0.00000000000E+00  0.00000000000E+00  0.15976258290E+04  0.15976258290E+04  0.00000000000E+00 0. -1.
         21   -1    0    0  501  502 -0.00000000000E+00 -0.00000000000E+00 -0.21300813168E+03  0.21300813168E+03  0.00000000000E+00 0. -1.
         25    1    1    2    0    0  0.26463512552E+03  0.39780838505E+03  0.43926548818E+03  0.66095569442E+03  0.12500000000E+03 0.  0.
         25    1    1    2    0    0  0.59890447897E+02 -0.19071932199E+03  0.46639687199E+03  0.52260096416E+03  0.12500000000E+03 0.  0.
         25    1    1    2    0    0 -0.32452557342E+03 -0.20708906306E+03  0.47895533716E+03  0.62707730212E+03  0.12500000000E+03 0.  0.
</event>
<event>
 5    0  0.5735425E-005  0.2294096E+03  0.7546771E-02  0.1127056E+00
         21   -1    0    0  502  501  0.00000000000E+00  0.00000000000E+00  0.22098289440E+03  0.22098289440E+03  0.00000000000E+00 0.  1.
         21   -1    0    0  501  502 -0.00000000000E+00 -0.00000000000E+00 -0.23815766547E+03  0.23815766547E+03  0.00000000000E+00 0.  1.
         25    1    1    2    0    0 -0.23025704840E+01  0.59563325035E+02 -0.23942534500E+02  0.14053944812E+03  0.12500000000E+03 0.  0.
         25    1    1    2    0    0  0.45429280483E+02 -0.49316115497E+02 -0.77331073486E+02  0.16155801961E+03  0.12500000000E+03 0.  0.
         25    1    1    2    0    0 -0.43126709999E+02 -0.10247209538E+02  0.84098836919E+02  0.15704309214E+03  0.12500000000E+03 0.  0.
</event>
<event>
 5    0  0.5735425E-005  0.3986520E+03  0.7546771E-02  0.1044247E+00
         21   -1    0    0  502  501  0.00000000000E+00  0.00000000000E+00  0.22222427865E+03  0.22222427865E+03  0.00000000000E+00 0. -1.
         21   -1    0    0  501  502 -0.00000000000E+00 -0.00000000000E+00 -0.71514882447E+03  0.71514882447E+03  0.00000000000E+00 0. -1.
         25    1    1    2    0    0 -0.26225638765E+03  0.24278070797E+02 -0.24523702632E+03  0.38096461340E+03  0.12500000000E+03 0.  0.
         25    1    1    2    0    0  0.23422245533E+03 -0.31573323321E+02  0.11063277429E+02  0.26759003986E+03  0.12500000000E+03 0.  0.
         25    1    1    2    0    0  0.28033932315E+02  0.72952525243E+01 -0.25875079693E+03  0.28881844987E+03  0.12500000000E+03 0.  0.
</event>
<event>
 5    0  0.6117651E-005  0.2825981E+03  0.7546771E-02  0.1094278E+00
         21   -1    0    0  502  501  0.00000000000E+00  0.00000000000E+00  0.16680372068E+03  0.16680372068E+03  0.00000000000E+00 0.  1.
         21   -1    0    0  501  502 -0.00000000000E+00 -0.00000000000E+00 -0.47877651429E+03  0.47877651429E+03  0.00000000000E+00 0.  1.
         25    1    1    2    0    0 -0.62263453026E+01 -0.13294736190E+03  0.22565730816E+01  0.18260301349E+03  0.12500000000E+03 0.  0.
         25    1    1    2    0    0 -0.60049731871E+02  0.58372262993E+02 -0.58662117357E+02  0.16149159544E+03  0.12500000000E+03 0.  0.
         25    1    1    2    0    0  0.66276077174E+02  0.74575098910E+02 -0.25556724933E+03  0.30148562604E+03  0.12500000000E+03 0.  0.
</event>
<event>
 5    0  0.5735425E-005  0.3968726E+03  0.7546771E-02  0.1044868E+00
         21   -1    0    0  502  501  0.00000000000E+00  0.00000000000E+00  0.14310653858E+04  0.14310653858E+04  0.00000000000E+00 0.  1.
         21   -1    0    0  501  502 -0.00000000000E+00 -0.00000000000E+00 -0.11006337882E+03  0.11006337882E+03  0.00000000000E+00 0.  1.
         25    1    1    2    0    0 -0.23559505840E+03 -0.69481475421E+02  0.41990109480E+03  0.50226948582E+03  0.12500000000E+03 0.  0.
         25    1    1    2    0    0  0.17669312367E+03 -0.44749109623E+02  0.15110554610E+03  0.26773275635E+03  0.12500000000E+03 0.  0.
         25    1    1    2    0    0  0.58901934732E+02  0.11423058504E+03  0.74999536609E+03  0.77112652245E+03  0.12500000000E+03 0.  0.
</event>
<event>
 5    0  0.5735425E-005  0.2713887E+03  0.7546771E-02  0.1100487E+00
         21   -1    0    0  502  501  0.00000000000E+00  0.00000000000E+00  0.33653490736E+03  0.33653490736E+03  0.00000000000E+00 0. -1.
         21   -1    0    0  501  502 -0.00000000000E+00 -0.00000000000E+00 -0.21885349184E+03  0.21885349184E+03  0.00000000000E+00 0. -1.
         25    1    1    2    0    0 -0.11108574592E+03 -0.61496465206E+02  0.16190150187E+03  0.24074666038E+03  0.12500000000E+03 0.  0.
         25    1    1    2    0    0 -0.16472381504E+02  0.15440746325E+02 -0.21036773638E+02  0.12875287121E+03  0.12500000000E+03 0.  0.
         25    1    1    2    0    0  0.12755812743E+03  0.46055718880E+02 -0.23183312706E+02  0.18588886761E+03  0.12500000000E+03 0.  0.
</event>
<event>
 5    0  0.5735425E-005  0.2803117E+03  0.7546771E-02  0.1095519E+00
         21   -1    0    0  502  501  0.00000000000E+00  0.00000000000E+00  0.70313812108E+03  0.70313812108E+03  0.00000000000E+00 0. -1.
         21   -1    0    0  501  502 -0.00000000000E+00 -0.00000000000E+00 -0.11174854687E+03  0.11174854687E+03  0.00000000000E+00 0. -1.
         25    1    1    2    0    0 -0.77691830710E+00 -0.89252232356E+02  0.12701476421E+03  0.19930959563E+03  0.12500000000E+03 0.  0.
         25    1    1    2    0    0 -0.22270414040E+02 -0.28996175211E+02  0.41519200817E+03  0.43513923423E+03  0.12500000000E+03 0.  0.
         25    1    1    2    0    0  0.23047332347E+02  0.11824840757E+03  0.49182801823E+02  0.18043783809E+03  0.12500000000E+03 0.  0.
</event>
<event>
 5    0  0.5735425E-005  0.2547134E+03  0.7546771E-02  0.1110362E+00
         21   -1    0    0  502  501  0.00000000000E+00  0.00000000000E+00  0.20771965037E+03  0.20771965037E+03  0.00000000000E+00 0. -1.
         21   -1    0    0  501  502 -0.00000000000E+00 -0.00000000000E+00 -0.31233893642E+03  0.31233893642E+03  0.00000000000E+00 0. -1.
         25    1    1    2    0    0 -0.32084278258E+02 -0.52465685155E+02 -0.70483922872E+02  0.15612505377E+03  0.12500000000E+03 0.  0.
         25    1    1    2    0    0  0.11815290037E+03 -0.29806695521E+02  0.34880809197E+02  0.17801746491E+03  0.12500000000E+03 0.  0.
         25    1    1    2    0    0 -0.86068622110E+02  0.82272380676E+02 -0.69016172377E+02  0.18591606812E+03  0.12500000000E+03 0.  0.
</event>
<event>
 5    0  0.7033300E-005  0.2851207E+03  0.7546771E-02  0.1092925E+00
         21   -1    0    0  502  501  0.00000000000E+00  0.00000000000E+00  0.30191929634E+03  0.30191929634E+03  0.00000000000E+00 0.  1.
         21   -1    0    0  501  502 -0.00000000000E+00 -0.00000000000E+00 -0.26925680892E+03  0.26925680892E+03  0.00000000000E+00 0.  1.
         25    1    1    2    0    0  0.36577537077E+02 -0.12521140095E+03  0.13609824796E+02  0.18117957522E+03  0.12500000000E+03 0.  0.
         25    1    1    2    0    0  0.73422362979E+02 -0.97659486572E+01 -0.65755350747E+02  0.15948348908E+03  0.12500000000E+03 0.  0.
         25    1    1    2    0    0 -0.10999990006E+03  0.13497734960E+03  0.84808013374E+02  0.23051304096E+03  0.12500000000E+03 0.  0.
</event>
<event>
 5    0  0.5787830E-005  0.4305256E+03  0.7546771E-02  0.1033694E+00
         21   -1    0    0  502  501  0.00000000000E+00  0.00000000000E+00  0.38253990632E+03  0.38253990632E+03  0.00000000000E+00 0. -1.
         21   -1    0    0  501  502 -0.00000000000E+00 -0.00000000000E+00 -0.48453065355E+03  0.48453065355E+03  0.00000000000E+00 0. -1.
         25    1    1    2    0    0  0.54452458206E+02 -0.25256060362E+03 -0.58057878493E+02  0.29282698981E+03  0.12500000000E+03 0.  0.
         25    1    1    2    0    0  0.88869221700E+02  0.28353732826E+03 -0.14860885457E+03  0.35496583883E+03  0.12500000000E+03 0.  0.
         25    1    1    2    0    0 -0.14332167991E+03 -0.30976724643E+02  0.10467598584E+03  0.21927773123E+03  0.12500000000E+03 0.  0.
</event>
<event>
 5    0  0.8786723E-005  0.7027665E+03  0.7546771E-02  0.9712513E-01
         21   -1    0    0  502  501  0.00000000000E+00  0.00000000000E+00  0.12142505754E+04  0.12142505754E+04  0.00000000000E+00 0.  1.
         21   -1    0    0  501  502 -0.00000000000E+00 -0.00000000000E+00 -0.40673704567E+03  0.40673704567E+03  0.00000000000E+00 0.  1.
         25    1    1    2    0    0 -0.39429978159E+03 -0.30436359672E+03  0.38558362369E+03  0.64219097442E+03  0.12500000000E+03 0.  0.
         25    1    1    2    0    0 -0.11817486480E+03  0.30629848245E+03  0.12134250512E+03  0.37166256547E+03  0.12500000000E+03 0.  0.
         25    1    1    2    0    0  0.51247464639E+03 -0.19348857269E+01  0.30058740096E+03  0.60713408123E+03  0.12500000000E+03 0.  0.
</event>
<event>
 5    0  0.5735425E-005  0.2247387E+03  0.7546771E-02  0.1130399E+00
         21   -1    0    0  502  501  0.00000000000E+00  0.00000000000E+00  0.10096935602E+03  0.10096935602E+03  0.00000000000E+00 0.  1.
         21   -1    0    0  501  502 -0.00000000000E+00 -0.00000000000E+00 -0.50022572693E+03  0.50022572693E+03  0.00000000000E+00 0.  1.
         25    1    1    2    0    0  0.67442240709E+02  0.30312480019E+02 -0.89681495307E+02  0.17068999056E+03  0.12500000000E+03 0.  0.
         25    1    1    2    0    0 -0.22859236255E+02  0.28343158096E+02 -0.63542669845E+02  0.14487425646E+03  0.12500000000E+03 0.  0.
         25    1    1    2    0    0 -0.44583004454E+02 -0.58655638115E+02 -0.24603220575E+03  0.28563083593E+03  0.12500000000E+03 0.  0.
</event>
<event>
 5    0  0.5735425E-005  0.3268353E+03  0.7546771E-02  0.1072546E+00
         21   -1    0    0  502  501  0.00000000000E+00  0.00000000000E+00  0.61187286741E+03  0.61187286741E+03  0.00000000000E+00 0.  1.
         21   -1    0    0  501  502 -0.00000000000E+00 -0.00000000000E+00 -0.17458089480E+03  0.17458089480E+03  0.00000000000E+00 0.  1.
         25    1    1    2    0    0 -0.90983398918E+01  0.18849164646E+01  0.30799189256E+02  0.12907332318E+03  0.12500000000E+03 0.  0.
         25    1    1    2    0    0 -0.75919225844E+02 -0.20600097267E+03  0.13836663244E+03  0.28804592441E+03  0.12500000000E+03 0.  0.
         25    1    1    2    0    0  0.85017565735E+02  0.20411605621E+03  0.26812615091E+03  0.36933451462E+03  0.12500000000E+03 0.  0.
</event>
<event>
 5    0  0.5735425E-005  0.2707965E+03  0.7546771E-02  0.1100825E+00
         21   -1    0    0  502  501  0.00000000000E+00  0.00000000000E+00  0.12246757261E+03  0.12246757261E+03  0.00000000000E+00 0. -1.
         21   -1    0    0  501  502 -0.00000000000E+00 -0.00000000000E+00 -0.59877663427E+03  0.59877663427E+03  0.00000000000E+00 0. -1.
         25    1    1    2    0    0 -0.53478967396E+02 -0.31873430709E+02 -0.64954187585E+02  0.15401286318E+03  0.12500000000E+03 0.  0.
         25    1    1    2    0    0  0.89967473016E+02  0.14936732975E+03 -0.24225625175E+03  0.32360135493E+03  0.12500000000E+03 0.  0.
         25    1    1    2    0    0 -0.36488505620E+02 -0.11749389904E+03 -0.16909862233E+03  0.24362998877E+03  0.12500000000E+03 0.  0.
</event>
<event>
 5    0  0.5735425E-005  0.2352833E+03  0.7546771E-02  0.1122975E+00
         21   -1    0    0  502  501  0.00000000000E+00  0.00000000000E+00  0.70747860868E+03  0.70747860868E+03  0.00000000000E+00 0.  1.
         21   -1    0    0  501  502 -0.00000000000E+00 -0.00000000000E+00 -0.78247191396E+02  0.78247191396E+02  0.00000000000E+00 0.  1.
         25    1    1    2    0    0 -0.52318858002E+02 -0.82543802220E+02  0.31510401545E+03  0.35279779300E+03  0.12500000000E+03 0.  0.
         25    1    1    2    0    0 -0.18304196736E+02  0.33390786152E+01  0.89667337923E+02  0.15495620205E+03  0.12500000000E+03 0.  0.
         25    1    1    2    0    0  0.70623054738E+02  0.79204723605E+02  0.22446006391E+03  0.27797180503E+03  0.12500000000E+03 0.  0.
</event>
<event>
 5    0  0.5735425E-005  0.5214229E+03  0.7546771E-02  0.1008334E+00
         21   -1    0    0  502  501  0.00000000000E+00  0.00000000000E+00  0.13417100891E+04  0.13417100891E+04  0.00000000000E+00 0. -1.
         21   -1    0    0  501  502 -0.00000000000E+00 -0.00000000000E+00 -0.20263829419E+03  0.20263829419E+03  0.00000000000E+00 0. -1.
         25    1    1    2    0    0  0.13771509872E+03 -0.24541950483E+03  0.94596077032E+03  0.99481805409E+03  0.12500000000E+03 0.  0.
         25    1    1    2    0    0 -0.16655111852E+03  0.10453964817E+03  0.25856671294E+03  0.34806545097E+03  0.12500000000E+03 0.  0.
         25    1    1    2    0    0  0.28836019799E+02  0.14087985666E+03 -0.65455688300E+02  0.20146487828E+03  0.12500000000E+03 0.  0.
</event>
<event>
 5    0  0.5735425E-005  0.2790714E+03  0.7546771E-02  0.1096197E+00
         21   -1    0    0  502  501  0.00000000000E+00  0.00000000000E+00  0.42488758611E+03  0.42488758611E+03  0.00000000000E+00 0. -1.
         21   -1    0    0  501  502 -0.00000000000E+00 -0.00000000000E+00 -0.18329749753E+03  0.18329749753E+03  0.00000000000E+00 0. -1.
         25    1    1    2    0    0 -0.96986697978E+02 -0.48683553390E+02  0.18269492997E+03  0.24653386257E+03  0.12500000000E+03 0.  0.
         25    1    1    2    0    0 -0.49986540078E+02  0.68596573760E+02  0.71742357610E+02  0.16726060503E+03  0.12500000000E+03 0.  0.
         25    1    1    2    0    0  0.14697323806E+03 -0.19913020370E+02 -0.12847199002E+02  0.19439061605E+03  0.12500000000E+03 0.  0.
</event>
<event>
 5    0  0.5735425E-005  0.3779756E+03  0.7546771E-02  0.1051685E+00
         21   -1    0    0  502  501  0.00000000000E+00  0.00000000000E+00  0.24821519907E+03  0.24821519907E+03  0.00000000000E+00 0. -1.
         21   -1    0    0  501  502 -0.00000000000E+00 -0.00000000000E+00 -0.57557127404E+03  0.57557127404E+03  0.00000000000E+00 0. -1.
         25    1    1    2    0    0 -0.13631287362E+03  0.12087074814E+02 -0.17734179183E+03  0.25651980045E+03  0.12500000000E+03 0.  0.
         25    1    1    2    0    0 -0.49438576491E+02 -0.20875953388E+03 -0.53219084735E+02  0.25393303608E+03  0.12500000000E+03 0.  0.
         25    1    1    2    0    0  0.18575145012E+03  0.19667245907E+03 -0.96795198408E+02  0.31333363658E+03  0.12500000000E+03 0.  0.
</event>
<event>
 5    0  0.5735425E-005  0.2455203E+03  0.7546771E-02  0.1116169E+00
         21   -1    0    0  502  501  0.00000000000E+00  0.00000000000E+00  0.69965906095E+03  0.69965906095E+03  0.00000000000E+00 0. -1.
         21   -1    0    0  501  502 -0.00000000000E+00 -0.00000000000E+00 -0.86156583965E+02  0.86156583965E+02  0.00000000000E+00 0. -1.
         25    1    1    2    0    0 -0.57081933868E+01 -0.14113338236E+03  0.24274792209E+03  0.30741302635E+03  0.12500000000E+03 0.  0.
         25    1    1    2    0    0  0.48546735697E+02  0.59475549004E+02  0.19099324764E+03  0.24082679901E+03  0.12500000000E+03 0.  0.
         25    1    1    2    0    0 -0.42838542310E+02  0.81657833351E+02  0.17976130725E+03  0.23757581956E+03  0.12500000000E+03 0.  0.
</event>
<event>
 5    0  0.6115087E-005  0.3675787E+03  0.7546771E-02  0.1055623E+00
         21   -1    0    0  502  501  0.00000000000E+00  0.00000000000E+00  0.63762953561E+03  0.63762953561E+03  0.00000000000E+00 0.  1.
         21   -1    0    0  501  502 -0.00000000000E+00 -0.00000000000E+00 -0.21190068558E+03  0.21190068558E+03  0.00000000000E+00 0.  1.
         25    1    1    2    0    0 -0.77141455690E+02  0.12608335584E+02 -0.46304080420E+02  0.15452780389E+03  0.12500000000E+03 0.  0.
         25    1    1    2    0    0 -0.68912916726E+02  0.15344270928E+03  0.36174978563E+03  0.41806884903E+03  0.12500000000E+03 0.  0.
         25    1    1    2    0    0  0.14605437242E+03 -0.16605104487E+03  0.11028314483E+03  0.27693356827E+03  0.12500000000E+03 0.  0.
</event>
<event>
 5    0  0.5735425E-005  0.3004313E+03  0.7546771E-02  0.1085025E+00
         21   -1    0    0  502  501  0.00000000000E+00  0.00000000000E+00  0.32893148658E+03  0.32893148658E+03  0.00000000000E+00 0.  1.
         21   -1    0    0  501  502 -0.00000000000E+00 -0.00000000000E+00 -0.27440043729E+03  0.27440043729E+03  0.00000000000E+00 0.  1.
         25    1    1    2    0    0 -0.63569843966E+02  0.15192061825E+03  0.80602368626E+02  0.22190705518E+03  0.12500000000E+03 0.  0.
         25    1    1    2    0    0  0.47647895274E+02  0.43612096588E+02  0.25910181069E+02  0.14306877499E+03  0.12500000000E+03 0.  0.
         25    1    1    2    0    0  0.15921948693E+02 -0.19553271484E+03 -0.51981500401E+02  0.23835609370E+03  0.12500000000E+03 0.  0.
</event>
<event>
 5    0  0.5735425E-005  0.2795581E+03  0.7546771E-02  0.1095931E+00
         21   -1    0    0  502  501  0.00000000000E+00  0.00000000000E+00  0.14848755557E+03  0.14848755557E+03  0.00000000000E+00 0.  1.
         21   -1    0    0  501  502 -0.00000000000E+00 -0.00000000000E+00 -0.52632523304E+03  0.52632523304E+03  0.00000000000E+00 0.  1.
         25    1    1    2    0    0 -0.35028273681E+02  0.59134110093E+02 -0.34358723075E+03  0.37202285960E+03  0.12500000000E+03 0.  0.
         25    1    1    2    0    0  0.72094184107E+02 -0.57951433580E+02 -0.65464902097E+02  0.16872045947E+03  0.12500000000E+03 0.  0.
         25    1    1    2    0    0 -0.37065910426E+02 -0.11826765127E+01  0.31214455379E+02  0.13406946954E+03  0.12500000000E+03 0.  0.
</event>
<event>
 5    0  0.5735425E-005  0.3498942E+03  0.7546771E-02  0.1062658E+00
         21   -1    0    0  502  501  0.00000000000E+00  0.00000000000E+00  0.21454294460E+03  0.21454294460E+03  0.00000000000E+00 0.  1.
         21   -1    0    0  501  502 -0.00000000000E+00 -0.00000000000E+00 -0.57063611433E+03  0.57063611433E+03  0.00000000000E+00 0.  1.
         25    1    1    2    0    0 -0.10505406116E+02  0.12599932228E+03  0.46598393643E+02  0.18380044359E+03  0.12500000000E+03 0.  0.
         25    1    1    2    0    0 -0.12624331073E+03 -0.46116621056E+02 -0.34622339566E+03  0.39186701308E+03  0.12500000000E+03 0.  0.
         25    1    1    2    0    0  0.13674871685E+03 -0.79882701229E+02 -0.56468167706E+02  0.20951160225E+03  0.12500000000E+03 0.  0.
</event>
<event>
 5    0  0.5735425E-005  0.3903690E+03  0.7546771E-02  0.1047167E+00
         21   -1    0    0  502  501  0.00000000000E+00  0.00000000000E+00  0.32248283686E+03  0.32248283686E+03  0.00000000000E+00 0.  1.
         21   -1    0    0  501  502 -0.00000000000E+00 -0.00000000000E+00 -0.47254585214E+03  0.47254585214E+03  0.00000000000E+00 0.  1.
         25    1    1    2    0    0  0.23282224888E+03 -0.87098765042E+02  0.10366963852E+02  0.27843287950E+03  0.12500000000E+03 0.  0.
         25    1    1    2    0    0 -0.15875149247E+03 -0.40100113641E+02  0.68507443372E+02  0.21709059232E+03  0.12500000000E+03 0.  0.
         25    1    1    2    0    0 -0.74070756409E+02  0.12719887868E+03 -0.22893742251E+03  0.29950521718E+03  0.12500000000E+03 0.  0.
</event>
<event>
 5    0  0.5735425E-005  0.2542912E+03  0.7546771E-02  0.1110622E+00
         21   -1    0    0  502  501  0.00000000000E+00  0.00000000000E+00  0.49950713206E+03  0.49950713206E+03  0.00000000000E+00 0.  1.
         21   -1    0    0  501  502 -0.00000000000E+00 -0.00000000000E+00 -0.12945568532E+03  0.12945568532E+03  0.00000000000E+00 0.  1.
         25    1    1    2    0    0 -0.56840514497E+02 -0.13618897891E+03  0.88765798862E+02  0.21279720185E+03  0.12500000000E+03 0.  0.
         25    1    1    2    0    0 -0.46573792848E+01  0.26948646807E+02  0.96524959188E+02  0.16028096734E+03  0.12500000000E+03 0.  0.
         25    1    1    2    0    0  0.61497893782E+02  0.10924033211E+03  0.18476068868E+03  0.25588464819E+03  0.12500000000E+03 0.  0.
</event>
<event>
 5    0  0.5735425E-005  0.3326720E+03  0.7546771E-02  0.1069961E+00
         21   -1    0    0  502  501  0.00000000000E+00  0.00000000000E+00  0.90055202431E+02  0.90055202431E+02  0.00000000000E+00 0.  1.
         21   -1    0    0  501  502 -0.00000000000E+00 -0.00000000000E+00 -0.12289205376E+04  0.12289205376E+04  0.00000000000E+00 0.  1.
         25    1    1    2    0    0  0.11206874372E+02  0.11029682263E+02 -0.30017571957E+03  0.32554217936E+03  0.12500000000E+03 0.  0.
         25    1    1    2    0    0 -0.23078440054E+03  0.42453772695E+02 -0.51270210708E+03  0.57753979340E+03  0.12500000000E+03 0.  0.
         25    1    1    2    0    0  0.21957752617E+03 -0.53483454957E+02 -0.32598750856E+03  0.41589376731E+03  0.12500000000E+03 0.  0.
</event>
<event>
 5    0  0.5735425E-005  0.2920812E+03  0.7546771E-02  0.1089267E+00
         21   -1    0    0  502  501  0.00000000000E+00  0.00000000000E+00  0.46647673917E+02  0.46647673917E+02  0.00000000000E+00 0.  1.
         21   -1    0    0  501  502 -0.00000000000E+00 -0.00000000000E+00 -0.18288465935E+04  0.18288465935E+04  0.00000000000E+00 0.  1.
         25    1    1    2    0    0  0.16965019872E+03 -0.41974119233E+02 -0.11336255237E+04  0.11538088423E+04  0.12500000000E+03 0.  0.
         25    1    1    2    0    0 -0.10545467405E+03  0.57605185854E+02 -0.39447227781E+03  0.43089723099E+03  0.12500000000E+03 0.  0.
         25    1    1    2    0    0 -0.64195524667E+02 -0.15631066622E+02 -0.25410111808E+03  0.29078819413E+03  0.12500000000E+03 0.  0.
</event>
<event>
 5    0  0.5735425E-005  0.4468233E+03  0.7546771E-02  0.1028674E+00
         21   -1    0    0  502  501  0.00000000000E+00  0.00000000000E+00  0.20929450364E+03  0.20929450364E+03  0.00000000000E+00 0.  1.
         21   -1    0    0  501  502 -0.00000000000E+00 -0.00000000000E+00 -0.95392406387E+03  0.95392406387E+03  0.00000000000E+00 0.  1.
         25    1    1    2    0    0 -0.20378244441E+03 -0.29399042555E+03 -0.41756622672E+03  0.56386541715E+03  0.12500000000E+03 0.  0.
         25    1    1    2    0    0 -0.24045642674E+02  0.17025167067E+03 -0.11371851243E+03  0.24108240161E+03  0.12500000000E+03 0.  0.
         25    1    1    2    0    0  0.22782808709E+03  0.12373875488E+03 -0.21334482109E+03  0.35827074875E+03  0.12500000000E+03 0.  0.
</event>
<event>
 5    0  0.5735425E-005  0.4172011E+03  0.7546771E-02  0.1037981E+00
         21   -1    0    0  502  501  0.00000000000E+00  0.00000000000E+00  0.60581281514E+03  0.60581281514E+03  0.00000000000E+00 0.  1.
         21   -1    0    0  501  502 -0.00000000000E+00 -0.00000000000E+00 -0.28731105753E+03  0.28731105753E+03  0.00000000000E+00 0.  1.
         25    1    1    2    0    0 -0.23589850937E+03  0.13723933394E+03  0.11658134570E+03  0.32202321604E+03  0.12500000000E+03 0.  0.
         25    1    1    2    0    0  0.31481233398E+02  0.30274151543E+02 -0.88301251761E+02  0.15915308156E+03  0.12500000000E+03 0.  0.
         25    1    1    2    0    0  0.20441727597E+03 -0.16751348548E+03  0.29022166367E+03  0.41194757506E+03  0.12500000000E+03 0.  0.
</event>
<event>
 5    0  0.5735425E-005  0.3097340E+03  0.7546771E-02  0.1080473E+00
         21   -1    0    0  502  501  0.00000000000E+00  0.00000000000E+00  0.58517842969E+03  0.58517842969E+03  0.00000000000E+00 0.  1.
         21   -1    0    0  501  502 -0.00000000000E+00 -0.00000000000E+00 -0.16394170695E+03  0.16394170695E+03  0.00000000000E+00 0.  1.
         25    1    1    2    0    0  0.17969406312E+03 -0.18198175052E+02  0.27530532252E+03  0.35219192283E+03  0.12500000000E+03 0.  0.
         25    1    1    2    0    0 -0.18073175730E+03  0.73744984482E+02  0.81278369333E+02  0.24562871199E+03  0.12500000000E+03 0.  0.
         25    1    1    2    0    0  0.10376941777E+01 -0.55546809430E+02  0.64653030887E+02  0.15129950182E+03  0.12500000000E+03 0.  0.
</event>
<event>
 5    0  0.5735425E-005  0.3980757E+03  0.7546771E-02  0.1044448E+00
         21   -1    0    0  502  501  0.00000000000E+00  0.00000000000E+00  0.81523724944E+03  0.81523724944E+03  0.00000000000E+00 0.  1.
         21   -1    0    0  501  502 -0.00000000000E+00 -0.00000000000E+00 -0.19437813386E+03  0.19437813386E+03  0.00000000000E+00 0.  1.
         25    1    1    2    0    0 -0.10865718426E+02  0.20172662737E+03  0.33470190179E+03  0.41044129798E+03  0.12500000000E+03 0.  0.
         25    1    1    2    0    0  0.10265481789E+03 -0.66536327949E+02  0.34361547986E+03  0.38556671611E+03  0.12500000000E+03 0.  0.
         25    1    1    2    0    0 -0.91789099467E+02 -0.13519029942E+03 -0.57458266075E+02  0.21360736921E+03  0.12500000000E+03 0.  0.
</event>
<event>
 5    0  0.5735425E-005  0.2407764E+03  0.7546771E-02  0.1119277E+00
         21   -1    0    0  502  501  0.00000000000E+00  0.00000000000E+00  0.56824600082E+02  0.56824600082E+02  0.00000000000E+00 0. -1.
         21   -1    0    0  501  502 -0.00000000000E+00 -0.00000000000E+00 -0.10202142777E+04  0.10202142777E+04  0.00000000000E+00 0. -1.
         25    1    1    2    0    0 -0.15023032123E+02  0.16874227804E-01 -0.12325414200E+03  0.17618818149E+03  0.12500000000E+03 0.  0.
         25    1    1    2    0    0  0.10037478985E+03  0.45285635560E+02 -0.45712656415E+03  0.48653425663E+03  0.12500000000E+03 0.  0.
         25    1    1    2    0    0 -0.85351757723E+02 -0.45302509787E+02 -0.38300897142E+03  0.41431643961E+03  0.12500000000E+03 0.  0.
</event>
<event>
 5    0  0.5735425E-005  0.2990581E+03  0.7546771E-02  0.1085712E+00
         21   -1    0    0  502  501  0.00000000000E+00  0.00000000000E+00  0.38579245948E+03  0.38579245948E+03  0.00000000000E+00 0. -1.
         21   -1    0    0  501  502 -0.00000000000E+00 -0.00000000000E+00 -0.23182353497E+03  0.23182353497E+03  0.00000000000E+00 0. -1.
         25    1    1    2    0    0 -0.19296233098E+02 -0.91589634615E+02  0.16529654937E+03  0.22739603122E+03  0.12500000000E+03 0.  0.
         25    1    1    2    0    0 -0.12000094324E+03  0.96122943830E+02  0.24324617394E+02  0.19964101212E+03  0.12500000000E+03 0.  0.
         25    1    1    2    0    0  0.13929717634E+03 -0.45333092149E+01 -0.35652242252E+02  0.19057895111E+03  0.12500000000E+03 0.  0.
</event>
<event>
 5    0  0.5735425E-005  0.3241529E+03  0.7546771E-02  0.1073754E+00
         21   -1    0    0  502  501  0.00000000000E+00  0.00000000000E+00  0.17131501238E+03  0.17131501238E+03  0.00000000000E+00 0. -1.
         21   -1    0    0  501  502 -0.00000000000E+00 -0.00000000000E+00 -0.61334429145E+03  0.61334429145E+03  0.00000000000E+00 0. -1.
         25    1    1    2    0    0  0.10773635223E+03 -0.87834485710E+02 -0.36891525836E+03  0.41357645765E+03  0.12500000000E+03 0.  0.
         25    1    1    2    0    0 -0.84430623124E+02  0.15258531063E+03 -0.78027186718E+02  0.22830691845E+03  0.12500000000E+03 0.  0.
         25    1    1    2    0    0 -0.23305729105E+02 -0.64750824925E+02  0.49131660144E+01  0.14277592773E+03  0.12500000000E+03 0.  0.
</event>
<event>
 5    0  0.5735425E-005  0.2941461E+03  0.7546771E-02  0.1088204E+00
         21   -1    0    0  502  501  0.00000000000E+00  0.00000000000E+00  0.47986970383E+02  0.47986970383E+02  0.00000000000E+00 0. -1.
         21   -1    0    0  501  502 -0.00000000000E+00 -0.00000000000E+00 -0.18030299134E+04  0.18030299134E+04  0.00000000000E+00 0. -1.
         25    1    1    2    0    0  0.60967497772E+01 -0.10074368899E+03 -0.31914589911E+03  0.35730318520E+03  0.12500000000E+03 0.  0.
         25    1    1    2    0    0 -0.28664745809E+02 -0.88552573390E+02 -0.86604567315E+03  0.87995643864E+03  0.12500000000E+03 0.  0.
         25    1    1    2    0    0  0.22567996031E+02  0.18929626238E+03 -0.56985137071E+03  0.61375725991E+03  0.12500000000E+03 0.  0.
</event>
<event>
 5    0  0.5735425E-005  0.3042707E+03  0.7546771E-02  0.1083125E+00
         21   -1    0    0  502  501  0.00000000000E+00  0.00000000000E+00  0.45077231099E+03  0.45077231099E+03  0.00000000000E+00 0.  1.
         21   -1    0    0  501  502 -0.00000000000E+00 -0.00000000000E+00 -0.20538233969E+03  0.20538233969E+03  0.00000000000E+00 0.  1.
         25    1    1    2    0    0  0.10529306808E+03 -0.98315028492E+02  0.64681678231E+02  0.20139809957E+03  0.12500000000E+03 0.  0.
         25    1    1    2    0    0 -0.80927890592E+02  0.16053310107E+03 -0.75649681542E+01  0.21909456579E+03  0.12500000000E+03 0.  0.
         25    1    1    2    0    0 -0.24365177489E+02 -0.62218072577E+02  0.18827326123E+03  0.23566198532E+03  0.12500000000E+03 0.  0.
</event>
<event>
 5    0  0.5735425E-005  0.3875706E+03  0.7546771E-02  0.1048171E+00
         21   -1    0    0  502  501  0.00000000000E+00  0.00000000000E+00  0.21680387016E+04  0.21680387016E+04  0.00000000000E+00 0. -1.
         21   -1    0    0  501  502 -0.00000000000E+00 -0.00000000000E+00 -0.69284275375E+02  0.69284275375E+02  0.00000000000E+00 0. -1.
         25    1    1    2    0    0  0.10684640937E+03 -0.12605074335E+03  0.35810451445E+03  0.41372549881E+03  0.12500000000E+03 0.  0.
         25    1    1    2    0    0  0.14475180977E+03 -0.59937899058E+02  0.51957349318E+03  0.55689070111E+03  0.12500000000E+03 0.  0.
         25    1    1    2    0    0 -0.25159821914E+03  0.18598864241E+03  0.12210764186E+04  0.12667067771E+04  0.12500000000E+03 0.  0.
</event>
<event>
 5    0  0.5735425E-005  0.2486514E+03  0.7546771E-02  0.1114160E+00
         21   -1    0    0  502  501  0.00000000000E+00  0.00000000000E+00  0.50318412996E+02  0.50318412996E+02  0.00000000000E+00 0.  1.
         21   -1    0    0  501  502 -0.00000000000E+00 -0.00000000000E+00 -0.12287251830E+04  0.12287251830E+04  0.00000000000E+00 0.  1.
         25    1    1    2    0    0 -0.80473816934E+02 -0.88185639567E+02 -0.71865077144E+03  0.73914590815E+03  0.12500000000E+03 0.  0.
         25    1    1    2    0    0  0.38884262154E+02  0.13683145863E+02 -0.22016738326E+03  0.25651099582E+03  0.12500000000E+03 0.  0.
         25    1    1    2    0    0  0.41589554781E+02  0.74502493704E+02 -0.23958861527E+03  0.28338669200E+03  0.12500000000E+03 0.  0.
</event>
<event>
 5    0  0.5735425E-005  0.2359267E+03  0.7546771E-02  0.1122536E+00
         21   -1    0    0  502  501  0.00000000000E+00  0.00000000000E+00  0.16737739257E+03  0.16737739257E+03  0.00000000000E+00 0. -1.
         21   -1    0    0  501  502 -0.00000000000E+00 -0.00000000000E+00 -0.33255023274E+03  0.33255023274E+03  0.00000000000E+00 0. -1.
         25    1    1    2    0    0  0.74572461359E+02 -0.49295029722E+02 -0.46628906223E+01  0.15374587636E+03  0.12500000000E+03 0.  0.
         25    1    1    2    0    0  0.57731464285E+01  0.23345057063E+02 -0.14741934867E+03  0.19477110995E+03  0.12500000000E+03 0.  0.
         25    1    1    2    0    0 -0.80345607788E+02  0.25949972659E+02 -0.13090600877E+02  0.15141063900E+03  0.12500000000E+03 0.  0.
</event>
<event>
 5    0  0.5735425E-005  0.2506610E+03  0.7546771E-02  0.1112888E+00
         21   -1    0    0  502  501  0.00000000000E+00  0.00000000000E+00  0.25249197136E+03  0.25249197136E+03  0.00000000000E+00 0. -1.
         21   -1    0    0  501  502 -0.00000000000E+00 -0.00000000000E+00 -0.24884334046E+03  0.24884334046E+03  0.00000000000E+00 0. -1.
         25    1    1    2    0    0  0.47375456175E+02  0.67332488787E+02 -0.38838806134E+02  0.15463360164E+03  0.12500000000E+03 0.  0.
         25    1    1    2    0    0  0.16159650953E+02 -0.11507143515E+03  0.87631518989E+02  0.19185112099E+03  0.12500000000E+03 0.  0.
         25    1    1    2    0    0 -0.63535107128E+02  0.47738946364E+02 -0.45144081953E+02  0.15485058919E+03  0.12500000000E+03 0.  0.
</event>
<event>
 5    0  0.5735425E-005  0.2762500E+03  0.7546771E-02  0.1097755E+00
         21   -1    0    0  502  501  0.00000000000E+00  0.00000000000E+00  0.68531995955E+03  0.68531995955E+03  0.00000000000E+00 0.  1.
         21   -1    0    0  501  502 -0.00000000000E+00 -0.00000000000E+00 -0.11135533818E+03  0.11135533818E+03  0.00000000000E+00 0.  1.
         25    1    1    2    0    0 -0.42629484153E+02  0.70989004584E+02  0.14096183590E+03  0.20579589615E+03  0.12500000000E+03 0.  0.
         25    1    1    2    0    0 -0.72189479636E+02  0.50512012574E+02  0.31727363047E+03  0.35220780937E+03  0.12500000000E+03 0.  0.
         25    1    1    2    0    0  0.11481896379E+03 -0.12150101716E+03  0.11572915500E+03  0.23867159222E+03  0.12500000000E+03 0.  0.
</event>
<event>
 5    0  0.5735425E-005  0.3198933E+03  0.7546771E-02  0.1075698E+00
         21   -1    0    0  502  501  0.00000000000E+00  0.00000000000E+00  0.70604280667E+02  0.70604280667E+02  0.00000000000E+00 0.  1.
         21   -1    0    0  501  502 -0.00000000000E+00 -0.00000000000E+00 -0.14493700952E+04  0.14493700952E+04  0.00000000000E+00 0. -1.
         25    1    1    2    0    0 -0.12069373243E+03  0.13586319391E+03 -0.32230656367E+03  0.39055384455E+03  0.12500000000E+03 0.  0.
         25    1    1    2    0    0  0.31726859511E+02  0.64048971751E+02 -0.45694972721E+03  0.47910011228E+03  0.12500000000E+03 0.  0.
         25    1    1    2    0    0  0.88966872923E+02 -0.19991216566E+03 -0.59950952364E+03  0.65032041902E+03  0.12500000000E+03 0.  0.
</event>
<event>
 5    0  0.5735425E-005  0.2747280E+03  0.7546771E-02  0.1098604E+00
         21   -1    0    0  502  501  0.00000000000E+00  0.00000000000E+00  0.32370317637E+03  0.32370317637E+03  0.00000000000E+00 0.  1.
         21   -1    0    0  501  502 -0.00000000000E+00 -0.00000000000E+00 -0.23316268093E+03  0.23316268093E+03  0.00000000000E+00 0.  1.
         25    1    1    2    0    0  0.68303546600E+02 -0.54932511568E+02  0.28320924732E+02  0.15527404832E+03  0.12500000000E+03 0.  0.
         25    1    1    2    0    0 -0.46232290832E+01  0.15516130388E+03 -0.36942343570E+02  0.20269716628E+03  0.12500000000E+03 0.  0.
         25    1    1    2    0    0 -0.63680317517E+02 -0.10022879232E+03  0.99161914275E+02  0.19889464269E+03  0.12500000000E+03 0.  0.
</event>
<event>
 5    0  0.5895472E-005  0.2785367E+03  0.7546771E-02  0.1096491E+00
         21   -1    0    0  502  501  0.00000000000E+00  0.00000000000E+00  0.11449270391E+03  0.11449270391E+03  0.00000000000E+00 0. -1.
         21   -1    0    0  501  502 -0.00000000000E+00 -0.00000000000E+00 -0.67762151410E+03  0.67762151410E+03  0.00000000000E+00 0. -1.
         25    1    1    2    0    0  0.56674082672E+02 -0.89953648793E+02 -0.95967932698E+02  0.19010116960E+03  0.12500000000E+03 0.  0.
         25    1    1    2    0    0  0.73202804241E+02 -0.47584816244E+02 -0.20311214762E+03  0.25397344310E+03  0.12500000000E+03 0.  0.
         25    1    1    2    0    0 -0.12987688691E+03  0.13753846504E+03 -0.26404872987E+03  0.34803960531E+03  0.12500000000E+03 0.  0.
</event>
<event>
 5    0  0.5735425E-005  0.4629308E+03  0.7546771E-02  0.1023935E+00
         21   -1    0    0  502  501  0.00000000000E+00  0.00000000000E+00  0.47864212942E+03  0.47864212942E+03  0.00000000000E+00 0.  1.
         21   -1    0    0  501  502 -0.00000000000E+00 -0.00000000000E+00 -0.44773518644E+03  0.44773518644E+03  0.00000000000E+00 0.  1.
         25    1    1    2    0    0 -0.35840859482E+03  0.55381089732E+02  0.18163894652E+03  0.42443078686E+03  0.12500000000E+03 0.  0.
         25    1    1    2    0    0  0.93325824809E+02  0.50307114123E+02 -0.24210754658E+02  0.16568547296E+03  0.12500000000E+03 0.  0.
         25    1    1    2    0    0  0.26508277001E+03 -0.10568820385E+03 -0.12652124889E+03  0.33626105604E+03  0.12500000000E+03 0.  0.
</event>
<event>
 5    0  0.5864719E-005  0.3359425E+03  0.7546771E-02  0.1068537E+00
         21   -1    0    0  502  501  0.00000000000E+00  0.00000000000E+00  0.14595076605E+03  0.14595076605E+03  0.00000000000E+00 0.  1.
         21   -1    0    0  501  502 -0.00000000000E+00 -0.00000000000E+00 -0.77325636641E+03  0.77325636641E+03  0.00000000000E+00 0.  1.
         25    1    1    2    0    0 -0.69018798919E+02 -0.13957481695E+03 -0.10931445070E+03  0.22763869017E+03  0.12500000000E+03 0.  0.
         25    1    1    2    0    0  0.12185607962E+03 -0.80939464295E+02 -0.16299087670E+03  0.25217281160E+03  0.12500000000E+03 0.  0.
         25    1    1    2    0    0 -0.52837280705E+02  0.22051428124E+03 -0.35500027296E+03  0.43939563069E+03  0.12500000000E+03 0.  0.
</event>
<event>
 5    0  0.5735425E-005  0.3642819E+03  0.7546771E-02  0.1056901E+00
         21   -1    0    0  502  501  0.00000000000E+00  0.00000000000E+00  0.41905540060E+03  0.41905540060E+03  0.00000000000E+00 0.  1.
         21   -1    0    0  501  502 -0.00000000000E+00 -0.00000000000E+00 -0.31666762411E+03  0.31666762411E+03  0.00000000000E+00 0.  1.
         25    1    1    2    0    0 -0.14794847275E+03  0.11929608626E+03  0.17978620865E+03  0.28994549075E+03  0.12500000000E+03 0.  0.
         25    1    1    2    0    0  0.88271226247E+01  0.79734001789E+02  0.31361271270E+02  0.15180236649E+03  0.12500000000E+03 0.  0.
         25    1    1    2    0    0  0.13912135012E+03 -0.19903008805E+03 -0.10875970343E+03  0.29397516749E+03  0.12500000000E+03 0.  0.
</event>
<event>
 5    0  0.5735425E-005  0.2085463E+03  0.7546771E-02  0.1142722E+00
         21   -1    0    0  502  501  0.00000000000E+00  0.00000000000E+00  0.77502424231E+02  0.77502424231E+02  0.00000000000E+00 0.  1.
         21   -1    0    0  501  502 -0.00000000000E+00 -0.00000000000E+00 -0.56116383859E+03  0.56116383859E+03  0.00000000000E+00 0.  1.
         25    1    1    2    0    0  0.80160915286E+01 -0.41394488130E+02 -0.12319869977E+03  0.18050119389E+03  0.12500000000E+03 0.  0.
         25    1    1    2    0    0 -0.39789668488E+01  0.19880404084E+02 -0.28157805091E+03  0.30874303457E+03  0.12500000000E+03 0.  0.
         25    1    1    2    0    0 -0.40371246797E+01  0.21514084046E+02 -0.78884663688E+02  0.14942203436E+03  0.12500000000E+03 0.  0.
</event>
<event>
 5    0  0.5735425E-005  0.3723470E+03  0.7546771E-02  0.1053799E+00
         21   -1    0    0  502  501  0.00000000000E+00  0.00000000000E+00  0.50408930839E+03  0.50408930839E+03  0.00000000000E+00 0. -1.
         21   -1    0    0  501  502 -0.00000000000E+00 -0.00000000000E+00 -0.27503516434E+03  0.27503516434E+03  0.00000000000E+00 0. -1.
         25    1    1    2    0    0  0.61251303577E+02 -0.21746260992E+03  0.29469910104E+03  0.39180897011E+03  0.12500000000E+03 0.  0.
         25    1    1    2    0    0  0.37362004074E+02  0.16039735275E+03 -0.69539487456E+02  0.21813750350E+03  0.12500000000E+03 0.  0.
         25    1    1    2    0    0 -0.98613307651E+02  0.57065257174E+02  0.38945304642E+01  0.16917799913E+03  0.12500000000E+03 0.  0.
</event>
<event>
 5    0  0.5735425E-005  0.2749092E+03  0.7546771E-02  0.1098502E+00
         21   -1    0    0  502  501  0.00000000000E+00  0.00000000000E+00  0.66574119718E+03  0.66574119718E+03  0.00000000000E+00 0.  1.
         21   -1    0    0  501  502 -0.00000000000E+00 -0.00000000000E+00 -0.11352020018E+03  0.11352020018E+03  0.00000000000E+00 0.  1.
         25    1    1    2    0    0 -0.96112367962E+02  0.12238426173E+03  0.14998340397E+03  0.24967081580E+03  0.12500000000E+03 0.  0.
         25    1    1    2    0    0  0.11248514728E+03 -0.13550651896E+03  0.22700452350E+03  0.31332248360E+03  0.12500000000E+03 0.  0.
         25    1    1    2    0    0 -0.16372779320E+02  0.13122257229E+02  0.17523306953E+03  0.21626809796E+03  0.12500000000E+03 0.  0.
</event>
<event>
 5    0  0.5735425E-005  0.3841964E+03  0.7546771E-02  0.1049394E+00
         21   -1    0    0  502  501  0.00000000000E+00  0.00000000000E+00  0.11961731122E+03  0.11961731122E+03  0.00000000000E+00 0.  1.
         21   -1    0    0  501  502 -0.00000000000E+00 -0.00000000000E+00 -0.12339922627E+04  0.12339922627E+04  0.00000000000E+00 0.  1.
         25    1    1    2    0    0  0.45577626188E+02  0.97560037885E+02 -0.91288314299E+03  0.92767230947E+03  0.12500000000E+03 0.  0.
         25    1    1    2    0    0 -0.11167798147E+03 -0.10944357840E+03 -0.20150078965E+03  0.28403773804E+03  0.12500000000E+03 0.  0.
         25    1    1    2    0    0  0.66100355283E+02  0.11883540518E+02  0.89812079454E-02  0.14189952637E+03  0.12500000000E+03 0.  0.
</event>
<event>
 5    0  0.5735425E-005  0.4396150E+03  0.7546771E-02  0.1030865E+00
         21   -1    0    0  502  501  0.00000000000E+00  0.00000000000E+00  0.19838731651E+03  0.19838731651E+03  0.00000000000E+00 0.  1.
         21   -1    0    0  501  502 -0.00000000000E+00 -0.00000000000E+00 -0.97416183646E+03  0.97416183646E+03  0.00000000000E+00 0.  1.
         25    1    1    2    0    0  0.18973230857E+03 -0.31480614088E+01 -0.61723866705E+03  0.65773614110E+03  0.12500000000E+03 0.  0.
         25    1    1    2    0    0 -0.35824903541E+02  0.36780136022E+01  0.11726578523E+03  0.17513770549E+03  0.12500000000E+03 0.  0.
         25    1    1    2    0    0 -0.15390740503E+03 -0.52995219346E+00 -0.27580163813E+03  0.33967530639E+03  0.12500000000E+03 0.  0.
</event>
<event>
 5    0  0.5735425E-005  0.7112837E+03  0.7546771E-02  0.9698128E-01
         21   -1    0    0  502  501  0.00000000000E+00  0.00000000000E+00  0.65327766928E+03  0.65327766928E+03  0.00000000000E+00 0.  1.
         21   -1    0    0  501  502 -0.00000000000E+00 -0.00000000000E+00 -0.77444028396E+03  0.77444028396E+03  0.00000000000E+00 0.  1.
         25    1    1    2    0    0  0.41538251096E+03 -0.11020392657E+03 -0.35212857852E+03  0.56947964990E+03  0.12500000000E+03 0.  0.
         25    1    1    2    0    0 -0.38487004464E+03 -0.56039691633E+02  0.41244620632E+03  0.58051896731E+03  0.12500000000E+03 0.  0.
         25    1    1    2    0    0 -0.30512466314E+02  0.16624361820E+03 -0.18148024247E+03  0.27771933602E+03  0.12500000000E+03 0.  0.
</event>
<event>
 5    0  0.5735425E-005  0.4109792E+03  0.7546771E-02  0.1040043E+00
         21   -1    0    0  502  501  0.00000000000E+00  0.00000000000E+00  0.11106285215E+04  0.11106285215E+04  0.00000000000E+00 0.  1.
         21   -1    0    0  501  502 -0.00000000000E+00 -0.00000000000E+00 -0.15207957308E+03  0.15207957308E+03  0.00000000000E+00 0.  1.
         25    1    1    2    0    0 -0.29463608439E+03  0.78613643671E+02  0.30714567116E+03  0.45050415149E+03  0.12500000000E+03 0.  0.
         25    1    1    2    0    0  0.29088067408E+03  0.23779089627E+02  0.48938270078E+03  0.58335018598E+03  0.12500000000E+03 0.  0.
         25    1    1    2    0    0  0.37554103112E+01 -0.10239273330E+03  0.16202057647E+03  0.22885375710E+03  0.12500000000E+03 0.  0.
</event>
<event>
 5    0  0.5735425E-005  0.3682492E+03  0.7546771E-02  0.1055364E+00
         21   -1    0    0  502  501  0.00000000000E+00  0.00000000000E+00  0.11525754880E+03  0.11525754880E+03  0.00000000000E+00 0.  1.
         21   -1    0    0  501  502 -0.00000000000E+00 -0.00000000000E+00 -0.11765604401E+04  0.11765604401E+04  0.00000000000E+00 0.  1.
         25    1    1    2    0    0  0.16827081074E+03  0.14627107097E+03 -0.17618345330E+03  0.31044468294E+03  0.12500000000E+03 0.  0.
         25    1    1    2    0    0 -0.88362814303E+02  0.62542995583E+02 -0.29792868901E+03  0.34074347680E+03  0.12500000000E+03 0.  0.
         25    1    1    2    0    0 -0.79907996437E+02 -0.20881406656E+03 -0.58719074896E+03  0.64062982912E+03  0.12500000000E+03 0.  0.
</event>
<event>
 5    0  0.5735425E-005  0.2117453E+03  0.7546771E-02  0.1140191E+00
         21   -1    0    0  502  501  0.00000000000E+00  0.00000000000E+00  0.60813685200E+02  0.60813685200E+02  0.00000000000E+00 0. -1.
         21   -1    0    0  501  502 -0.00000000000E+00 -0.00000000000E+00 -0.73726939932E+03  0.73726939932E+03  0.00000000000E+00 0. -1.
         25    1    1    2    0    0  0.39364155553E+01 -0.29754681876E+02 -0.19683880073E+03  0.23509859620E+03  0.12500000000E+03 0.  0.
         25    1    1    2    0    0 -0.51290860210E+02 -0.37996969021E+02 -0.28173908993E+03  0.31476409705E+03  0.12500000000E+03 0.  0.
         25    1    1    2    0    0  0.47354444654E+02  0.67751650896E+02 -0.19787782346E+03  0.24822039127E+03  0.12500000000E+03 0.  0.
</event>
<event>
 5    0  0.5735425E-005  0.2883152E+03  0.7546771E-02  0.1091232E+00
         21   -1    0    0  502  501  0.00000000000E+00  0.00000000000E+00  0.57806861939E+03  0.57806861939E+03  0.00000000000E+00 0.  1.
         21   -1    0    0  501  502 -0.00000000000E+00 -0.00000000000E+00 -0.14379892897E+03  0.14379892897E+03  0.00000000000E+00 0. -1.
         25    1    1    2    0    0  0.15366627725E+03 -0.33020601278E+02  0.28212617361E+02  0.20279210204E+03  0.12500000000E+03 0.  0.
         25    1    1    2    0    0 -0.15129710507E+03  0.27869066391E+02  0.24948977946E+03  0.31864972763E+03  0.12500000000E+03 0.  0.
         25    1    1    2    0    0 -0.23691721801E+01  0.51515348865E+01  0.15656729359E+03  0.20042571869E+03  0.12500000000E+03 0.  0.
</event>
<event>
 5    0  0.5735425E-005  0.4828737E+03  0.7546771E-02  0.1018348E+00
         21   -1    0    0  502  501  0.00000000000E+00  0.00000000000E+00  0.70072351331E+03  0.70072351331E+03  0.00000000000E+00 0. -1.
         21   -1    0    0  501  502 -0.00000000000E+00 -0.00000000000E+00 -0.33275176857E+03  0.33275176857E+03  0.00000000000E+00 0. -1.
         25    1    1    2    0    0 -0.49667358473E+00  0.56350093704E+02 -0.76707396334E+02  0.15711334888E+03  0.12500000000E+03 0.  0.
         25    1    1    2    0    0  0.25564938044E+03 -0.27050501693E+03  0.29143932889E+03  0.48896978672E+03  0.12500000000E+03 0.  0.
         25    1    1    2    0    0 -0.25515270685E+03  0.21415492323E+03  0.15323981218E+03  0.38739214627E+03  0.12500000000E+03 0.  0.
</event>
<event>
 5    0  0.5735425E-005  0.2473912E+03  0.7546771E-02  0.1114965E+00
         21   -1    0    0  502  501  0.00000000000E+00  0.00000000000E+00  0.57286317152E+03  0.57286317152E+03  0.00000000000E+00 0. -1.
         21   -1    0    0  501  502 -0.00000000000E+00 -0.00000000000E+00 -0.10683601236E+03  0.10683601236E+03  0.00000000000E+00 0. -1.
         25    1    1    2    0    0  0.19923885775E+02 -0.42072227206E+02  0.52723468345E+02  0.14342871972E+03  0.12500000000E+03 0.  0.
         25    1    1    2    0    0  0.20606790700E+02 -0.67603340120E+02  0.87260318499E+02  0.16803039785E+03  0.12500000000E+03 0.  0.
         25    1    1    2    0    0 -0.40530676475E+02  0.10967556733E+03  0.32604337231E+03  0.36824006631E+03  0.12500000000E+03 0.  0.
</event>
<event>
 5    0  0.5735425E-005  0.2628678E+03  0.7546771E-02  0.1105432E+00
         21   -1    0    0  502  501  0.00000000000E+00  0.00000000000E+00  0.11735925455E+03  0.11735925455E+03  0.00000000000E+00 0.  1.
         21   -1    0    0  501  502 -0.00000000000E+00 -0.00000000000E+00 -0.58878605230E+03  0.58878605230E+03  0.00000000000E+00 0.  1.
         25    1    1    2    0    0  0.21435820254E+02 -0.48374885577E+02 -0.40404351670E+02  0.14162321695E+03  0.12500000000E+03 0.  0.
         25    1    1    2    0    0  0.65586229837E+02 -0.82486875421E+02 -0.18284604910E+03  0.24528211478E+03  0.12500000000E+03 0.  0.
         25    1    1    2    0    0 -0.87022050090E+02  0.13086176100E+03 -0.24817639698E+03  0.31923997511E+03  0.12500000000E+03 0.  0.
</event>
<event>
 5    0  0.5735425E-005  0.4227312E+03  0.7546771E-02  0.1036181E+00
         21   -1    0    0  502  501  0.00000000000E+00  0.00000000000E+00  0.17644845273E+04  0.17644845273E+04  0.00000000000E+00 0. -1.
         21   -1    0    0  501  502 -0.00000000000E+00 -0.00000000000E+00 -0.10127698649E+03  0.10127698649E+03  0.00000000000E+00 0. -1.
         25    1    1    2    0    0  0.17293334533E+03 -0.49845566028E+02  0.44572534506E+03  0.49667555367E+03  0.12500000000E+03 0.  0.
         25    1    1    2    0    0 -0.13719690154E+02 -0.22793090598E+03  0.70952229489E+03  0.75576955135E+03  0.12500000000E+03 0.  0.
         25    1    1    2    0    0 -0.15921365517E+03  0.27777647201E+03  0.50795990087E+03  0.61331640879E+03  0.12500000000E+03 0.  0.
</event>
<event>
 5    0  0.5735425E-005  0.2693973E+03  0.7546771E-02  0.1101625E+00
         21   -1    0    0  502  501  0.00000000000E+00  0.00000000000E+00  0.90195568808E+03  0.90195568808E+03  0.00000000000E+00 0. -1.
         21   -1    0    0  501  502 -0.00000000000E+00 -0.00000000000E+00 -0.80463937925E+02  0.80463937925E+02  0.00000000000E+00 0. -1.
         25    1    1    2    0    0 -0.70366565761E+02 -0.93810931593E+02  0.47484018497E+03  0.50482684727E+03  0.12500000000E+03 0.  0.
         25    1    1    2    0    0  0.11530066520E+03  0.80384079835E+01  0.17228023079E+03  0.24220721980E+03  0.12500000000E+03 0.  0.
         25    1    1    2    0    0 -0.44934099444E+02  0.85772523610E+02  0.17437133440E+03  0.23538555894E+03  0.12500000000E+03 0.  0.
</event>
<event>
 5    0  0.5735425E-005  0.3919259E+03  0.7546771E-02  0.1046612E+00
         21   -1    0    0  502  501  0.00000000000E+00  0.00000000000E+00  0.35084647343E+03  0.35084647343E+03  0.00000000000E+00 0.  1.
         21   -1    0    0  501  502 -0.00000000000E+00 -0.00000000000E+00 -0.43781507885E+03  0.43781507885E+03  0.00000000000E+00 0.  1.
         25    1    1    2    0    0  0.26325542809E+03  0.36230975205E+02  0.13439482650E+03  0.32295986341E+03  0.12500000000E+03 0.  0.
         25    1    1    2    0    0 -0.72559657014E+02  0.67150205450E+02 -0.86708085101E+02  0.18143138080E+03  0.12500000000E+03 0.  0.
         25    1    1    2    0    0 -0.19069577108E+03 -0.10338118065E+03 -0.13465534682E+03  0.28427030806E+03  0.12500000000E+03 0.  0.
</event>
<event>
 5    0  0.5735425E-005  0.3498536E+03  0.7546771E-02  0.1062675E+00
         21   -1    0    0  502  501  0.00000000000E+00  0.00000000000E+00  0.65800321142E+03  0.65800321142E+03  0.00000000000E+00 0. -1.
         21   -1    0    0  501  502 -0.00000000000E+00 -0.00000000000E+00 -0.18601357094E+03  0.18601357094E+03  0.00000000000E+00 0. -1.
         25    1    1    2    0    0  0.71653642841E+02 -0.28215156677E+02  0.38710054930E+02  0.15183480481E+03  0.12500000000E+03 0.  0.
         25    1    1    2    0    0  0.17297076906E+03 -0.53409581063E+02  0.31019733142E+03  0.38028785771E+03  0.12500000000E+03 0.  0.
         25    1    1    2    0    0 -0.24462441190E+03  0.81624737740E+02  0.12308225413E+03  0.31189411984E+03  0.12500000000E+03 0.  0.
</event>
<event>
 5    0  0.5735425E-005  0.2996252E+03  0.7546771E-02  0.1085428E+00
         21   -1    0    0  502  501  0.00000000000E+00  0.00000000000E+00  0.19443747359E+03  0.19443747359E+03  0.00000000000E+00 0. -1.
         21   -1    0    0  501  502 -0.00000000000E+00 -0.00000000000E+00 -0.46171777038E+03  0.46171777038E+03  0.00000000000E+00 0. -1.
         25    1    1    2    0    0 -0.86820320119E+01  0.84924621654E+02  0.45201894639E+02  0.15797398622E+03  0.12500000000E+03 0.  0.
         25    1    1    2    0    0  0.76252680111E+02 -0.56386685220E+02 -0.31643057960E+03  0.35319575479E+03  0.12500000000E+03 0.  0.
         25    1    1    2    0    0 -0.67570648099E+02 -0.28537936434E+02  0.39483881748E+01  0.14498550296E+03  0.12500000000E+03 0.  0.
</event>
<event>
 5    0  0.5735425E-005  0.2885322E+03  0.7546771E-02  0.1091118E+00
         21   -1    0    0  502  501  0.00000000000E+00  0.00000000000E+00  0.75313736100E+02  0.75313736100E+02  0.00000000000E+00 0. -1.
         21   -1    0    0  501  502 -0.00000000000E+00 -0.00000000000E+00 -0.11053870459E+04  0.11053870459E+04  0.00000000000E+00 0. -1.
         25    1    1    2    0    0 -0.41032528215E+02 -0.16105276715E+03 -0.66965346278E+03  0.70120070051E+03  0.12500000000E+03 0.  0.
         25    1    1    2    0    0 -0.20280959167E+01  0.70477490130E+02 -0.23764417716E+03  0.27761654261E+03  0.12500000000E+03 0.  0.
         25    1    1    2    0    0  0.43060624132E+02  0.90575277021E+02 -0.12277566981E+03  0.20188353884E+03  0.12500000000E+03 0.  0.
</event>
<event>
 5    0  0.5735425E-005  0.3067317E+03  0.7546771E-02  0.1081923E+00
         21   -1    0    0  502  501  0.00000000000E+00  0.00000000000E+00  0.11836229614E+03  0.11836229614E+03  0.00000000000E+00 0. -1.
         21   -1    0    0  501  502 -0.00000000000E+00 -0.00000000000E+00 -0.79488424509E+03  0.79488424509E+03  0.00000000000E+00 0. -1.
         25    1    1    2    0    0 -0.19050131660E+03  0.70450485337E+02 -0.41708440526E+03  0.48045647422E+03  0.12500000000E+03 0.  0.
         25    1    1    2    0    0  0.86757364578E+02  0.25363270560E+02 -0.86211384481E+02  0.17671315349E+03  0.12500000000E+03 0.  0.
         25    1    1    2    0    0  0.10374395202E+03 -0.95813755896E+02 -0.17322615921E+03  0.25607691352E+03  0.12500000000E+03 0.  0.
</event>
<event>
 5    0  0.5735425E-005  0.3498009E+03  0.7546771E-02  0.1062697E+00
         21   -1    0    0  502  501  0.00000000000E+00  0.00000000000E+00  0.48887531380E+03  0.48887531380E+03  0.00000000000E+00 0.  1.
         21   -1    0    0  501  502 -0.00000000000E+00 -0.00000000000E+00 -0.25029009418E+03  0.25029009418E+03  0.00000000000E+00 0.  1.
         25    1    1    2    0    0 -0.26047537546E+02  0.19839063162E+03 -0.92238562913E+02  0.25331851376E+03  0.12500000000E+03 0.  0.
         25    1    1    2    0    0  0.58316771145E+02 -0.82508205983E+02  0.76536299362E+02  0.17802037797E+03  0.12500000000E+03 0.  0.
         25    1    1    2    0    0 -0.32269233599E+02 -0.11588242564E+03  0.25428748317E+03  0.30782651625E+03  0.12500000000E+03 0.  0.
</event>
<event>
 5    0  0.6157868E-005  0.2782852E+03  0.7546771E-02  0.1096629E+00
         21   -1    0    0  502  501  0.00000000000E+00  0.00000000000E+00  0.33870605705E+03  0.33870605705E+03  0.00000000000E+00 0. -1.
         21   -1    0    0  501  502 -0.00000000000E+00 -0.00000000000E+00 -0.22864272798E+03  0.22864272798E+03  0.00000000000E+00 0. -1.
         25    1    1    2    0    0  0.12455362964E+02 -0.40363682214E+02 -0.78495192032E+02  0.15352803679E+03  0.12500000000E+03 0.  0.
         25    1    1    2    0    0 -0.10730062837E+03 -0.17112529961E+02  0.51524471380E+01  0.16570398680E+03  0.12500000000E+03 0.  0.
         25    1    1    2    0    0  0.94845265408E+02  0.57476212175E+02  0.18340607397E+03  0.24811676144E+03  0.12500000000E+03 0.  0.
</event>
<event>
 5    0  0.5735425E-005  0.3096726E+03  0.7546771E-02  0.1080503E+00
         21   -1    0    0  502  501  0.00000000000E+00  0.00000000000E+00  0.29868614827E+03  0.29868614827E+03  0.00000000000E+00 0. -1.
         21   -1    0    0  501  502 -0.00000000000E+00 -0.00000000000E+00 -0.32106326361E+03  0.32106326361E+03  0.00000000000E+00 0. -1.
         25    1    1    2    0    0  0.12623856603E+03 -0.27353455258E+01 -0.12470676386E+03  0.21707241792E+03  0.12500000000E+03 0.  0.
         25    1    1    2    0    0  0.20775833568E+02 -0.10803878988E+03  0.34446399680E+02  0.17004578745E+03  0.12500000000E+03 0.  0.
         25    1    1    2    0    0 -0.14701439960E+03  0.11077413541E+03  0.67883248839E+02  0.23263120650E+03  0.12500000000E+03 0.  0.
</event>
<event>
 5    0  0.5735425E-005  0.2362164E+03  0.7546771E-02  0.1122339E+00
         21   -1    0    0  502  501  0.00000000000E+00  0.00000000000E+00  0.34170314234E+03  0.34170314234E+03  0.00000000000E+00 0.  1.
         21   -1    0    0  501  502 -0.00000000000E+00 -0.00000000000E+00 -0.16329438388E+03  0.16329438388E+03  0.00000000000E+00 0.  1.
         25    1    1    2    0    0 -0.12558572304E+03  0.29215060866E+02  0.41231129798E+02  0.18425607094E+03  0.12500000000E+03 0.  0.
         25    1    1    2    0    0  0.86706183816E+02 -0.26339790440E+02  0.45699059085E+02  0.16101289040E+03  0.12500000000E+03 0.  0.
         25    1    1    2    0    0  0.38879539223E+02 -0.28752704265E+01  0.91478569581E+02  0.15972856489E+03  0.12500000000E+03 0.  0.
</event>
<event>
 5    0  0.5735425E-005  0.3281075E+03  0.7546771E-02  0.1071977E+00
         21   -1    0    0  502  501  0.00000000000E+00  0.00000000000E+00  0.63121084046E+03  0.63121084046E+03  0.00000000000E+00 0.  1.
         21   -1    0    0  501  502 -0.00000000000E+00 -0.00000000000E+00 -0.17055241502E+03  0.17055241502E+03  0.00000000000E+00 0.  1.
         25    1    1    2    0    0  0.13411980706E+03  0.14983389792E+03  0.39136189109E+02  0.23998950166E+03  0.12500000000E+03 0.  0.
         25    1    1    2    0    0 -0.86008823170E+02 -0.11211904954E+03  0.36637417827E+03  0.41209615072E+03  0.12500000000E+03 0.  0.
         25    1    1    2    0    0 -0.48110983887E+02 -0.37714848374E+02  0.55148058057E+02  0.14967760309E+03  0.12500000000E+03 0.  0.
</event>
<event>
 5    0  0.5735425E-005  0.4547903E+03  0.7546771E-02  0.1026303E+00
         21   -1    0    0  502  501  0.00000000000E+00  0.00000000000E+00  0.64212186175E+03  0.64212186175E+03  0.00000000000E+00 0. -1.
         21   -1    0    0  501  502 -0.00000000000E+00 -0.00000000000E+00 -0.32211051464E+03  0.32211051464E+03  0.00000000000E+00 0. -1.
         25    1    1    2    0    0 -0.13869351700E+01  0.29888924926E+03  0.26149171473E+03  0.41634075441E+03  0.12500000000E+03 0.  0.
         25    1    1    2    0    0 -0.89082508250E+02 -0.21670930215E+03 -0.12579815160E+03  0.29385164601E+03  0.12500000000E+03 0.  0.
         25    1    1    2    0    0  0.90469443420E+02 -0.82179947109E+02  0.18431778398E+03  0.25403997597E+03  0.12500000000E+03 0.  0.
</event>
<event>
 5    0  0.8069950E-005  0.3356168E+03  0.7546771E-02  0.1068678E+00
         21   -1    0    0  502  501  0.00000000000E+00  0.00000000000E+00  0.87041777612E+03  0.87041777612E+03  0.00000000000E+00 0.  1.
         21   -1    0    0  501  502 -0.00000000000E+00 -0.00000000000E+00 -0.12940752974E+03  0.12940752974E+03  0.00000000000E+00 0.  1.
         25    1    1    2    0    0 -0.16353837207E+03 -0.75730161229E+02  0.72733251784E+02  0.23107354321E+03  0.12500000000E+03 0.  0.
         25    1    1    2    0    0 -0.22839594773E+02  0.30302179765E+02  0.37227198430E+03  0.39452667779E+03  0.12500000000E+03 0.  0.
         25    1    1    2    0    0  0.18637796684E+03  0.45427981463E+02  0.29600501029E+03  0.37422508486E+03  0.12500000000E+03 0.  0.
</event>
<event>
 5    0  0.5735425E-005  0.2565696E+03  0.7546771E-02  0.1109222E+00
         21   -1    0    0  502  501  0.00000000000E+00  0.00000000000E+00  0.20844950849E+03  0.20844950849E+03  0.00000000000E+00 0.  1.
         21   -1    0    0  501  502 -0.00000000000E+00 -0.00000000000E+00 -0.31579807938E+03  0.31579807938E+03  0.00000000000E+00 0.  1.
         25    1    1    2    0    0 -0.88634151062E+02 -0.65668117978E+02 -0.11566747005E+03  0.20290953177E+03  0.12500000000E+03 0.  0.
         25    1    1    2    0    0 -0.10135830096E+02 -0.11341494462E+02 -0.49322678921E+02  0.13523716651E+03  0.12500000000E+03 0.  0.
         25    1    1    2    0    0  0.98769981157E+02  0.77009612440E+02  0.57641578085E+02  0.18610088960E+03  0.12500000000E+03 0.  0.
</event>
<event>
 5    0  0.5735425E-005  0.2636480E+03  0.7546771E-02  0.1104971E+00
         21   -1    0    0  502  501  0.00000000000E+00  0.00000000000E+00  0.13177509018E+03  0.13177509018E+03  0.00000000000E+00 0.  1.
         21   -1    0    0  501  502 -0.00000000000E+00 -0.00000000000E+00 -0.52749168459E+03  0.52749168459E+03  0.00000000000E+00 0.  1.
         25    1    1    2    0    0  0.34978161543E+01  0.82878644425E+02 -0.11337859915E+03  0.18804470523E+03  0.12500000000E+03 0.  0.
         25    1    1    2    0    0 -0.12443534060E+03 -0.17959954250E+02 -0.73844629346E+02  0.19205401123E+03  0.12500000000E+03 0.  0.
         25    1    1    2    0    0  0.12093752445E+03 -0.64918690175E+02 -0.20849336590E+03  0.27916805831E+03  0.12500000000E+03 0.  0.
</event>
<event>
 5    0  0.5735425E-005  0.2673018E+03  0.7546771E-02  0.1102834E+00
         21   -1    0    0  502  501  0.00000000000E+00  0.00000000000E+00  0.16958623428E+03  0.16958623428E+03  0.00000000000E+00 0.  1.
         21   -1    0    0  501  502 -0.00000000000E+00 -0.00000000000E+00 -0.42132113466E+03  0.42132113466E+03  0.00000000000E+00 0.  1.
         25    1    1    2    0    0 -0.69388729043E+02 -0.77412066390E+02 -0.20308489206E+03  0.26014591507E+03  0.12500000000E+03 0.  0.
         25    1    1    2    0    0  0.28703669301E+02  0.66344745913E+02 -0.11359348530E+03  0.18372263291E+03  0.12500000000E+03 0.  0.
         25    1    1    2    0    0  0.40685059742E+02  0.11067320477E+02  0.64943476982E+02  0.14703882097E+03  0.12500000000E+03 0.  0.
</event>
<event>
 5    0  0.5735425E-005  0.2393678E+03  0.7546771E-02  0.1120215E+00
         21   -1    0    0  502  501  0.00000000000E+00  0.00000000000E+00  0.19445470617E+03  0.19445470617E+03  0.00000000000E+00 0.  1.
         21   -1    0    0  501  502 -0.00000000000E+00 -0.00000000000E+00 -0.29465435821E+03  0.29465435821E+03  0.00000000000E+00 0.  1.
         25    1    1    2    0    0 -0.22579647301E+02  0.50351606678E+02 -0.18373504853E+02  0.13786845342E+03  0.12500000000E+03 0.  0.
         25    1    1    2    0    0  0.62371846870E+02  0.25768087688E+02 -0.12953660519E+03  0.19224716827E+03  0.12500000000E+03 0.  0.
         25    1    1    2    0    0 -0.39792199569E+02 -0.76119694366E+02  0.47710458000E+02  0.15899344269E+03  0.12500000000E+03 0.  0.
</event>
<event>
 5    0  0.5735425E-005  0.2584692E+03  0.7546771E-02  0.1108066E+00
         21   -1    0    0  502  501  0.00000000000E+00  0.00000000000E+00  0.27132617139E+03  0.27132617139E+03  0.00000000000E+00 0. -1.
         21   -1    0    0  501  502 -0.00000000000E+00 -0.00000000000E+00 -0.24622146103E+03  0.24622146103E+03  0.00000000000E+00 0. -1.
         25    1    1    2    0    0  0.43189508541E+02  0.13635956021E+02 -0.13481930888E+03  0.18934761417E+03  0.12500000000E+03 0.  0.
         25    1    1    2    0    0 -0.10680919661E+01  0.28178562026E+02  0.13761625885E+03  0.18803831226E+03  0.12500000000E+03 0.  0.
         25    1    1    2    0    0 -0.42121416575E+02 -0.41814518047E+02  0.22307760391E+02  0.14016170600E+03  0.12500000000E+03 0.  0.
</event>
<event>
 5    0  0.5735425E-005  0.2739172E+03  0.7546771E-02  0.1099058E+00
         21   -1    0    0  502  501  0.00000000000E+00  0.00000000000E+00  0.80335707149E+02  0.80335707149E+02  0.00000000000E+00 0.  1.
         21   -1    0    0  501  502 -0.00000000000E+00 -0.00000000000E+00 -0.93396358470E+03  0.93396358470E+03  0.00000000000E+00 0.  1.
         25    1    1    2    0    0 -0.47114951359E+02 -0.48285140754E+02 -0.68433577309E+02  0.15766872855E+03  0.12500000000E+03 0.  0.
         25    1    1    2    0    0  0.99733684804E+02  0.99608224876E+02 -0.53811495411E+03  0.57014148261E+03  0.12500000000E+03 0.  0.
         25    1    1    2    0    0 -0.52618733444E+02 -0.51323084122E+02 -0.24707934612E+03  0.28648908069E+03  0.12500000000E+03 0.  0.
</event>
<event>
 5    0  0.5735425E-005  0.2649677E+03  0.7546771E-02  0.1104195E+00
         21   -1    0    0  502  501  0.00000000000E+00  0.00000000000E+00  0.42861831169E+03  0.42861831169E+03  0.00000000000E+00 0.  1.
         21   -1    0    0  501  502 -0.00000000000E+00 -0.00000000000E+00 -0.16380044374E+03  0.16380044374E+03  0.00000000000E+00 0.  1.
         25    1    1    2    0    0  0.24398708056E+02 -0.12941996422E+02 -0.63194774607E+02  0.14276334181E+03  0.12500000000E+03 0.  0.
         25    1    1    2    0    0  0.42256682257E+02  0.63056835809E+01  0.26159375206E+03  0.29305576254E+03  0.12500000000E+03 0.  0.
         25    1    1    2    0    0 -0.66655390313E+02  0.66363128406E+01  0.66418890491E+02  0.15659965108E+03  0.12500000000E+03 0.  0.
</event>
<event>
 5    0  0.5735425E-005  0.4044765E+03  0.7546771E-02  0.1042241E+00
         21   -1    0    0  502  501  0.00000000000E+00  0.00000000000E+00  0.81195025234E+03  0.81195025234E+03  0.00000000000E+00 0.  1.
         21   -1    0    0  501  502 -0.00000000000E+00 -0.00000000000E+00 -0.20149173785E+03  0.20149173785E+03  0.00000000000E+00 0.  1.
         25    1    1    2    0    0 -0.49033080975E+02  0.18576883195E+02  0.17785802983E+03  0.22362428847E+03  0.12500000000E+03 0.  0.
         25    1    1    2    0    0 -0.16910775279E+03 -0.19501901282E+03  0.38332104562E+03  0.47873778985E+03  0.12500000000E+03 0.  0.
         25    1    1    2    0    0  0.21814083376E+03  0.17644212963E+03  0.49279439040E+02  0.31107991188E+03  0.12500000000E+03 0.  0.
</event>
<event>
 5    0  0.5735425E-005  0.4042186E+03  0.7546771E-02  0.1042329E+00
         21   -1    0    0  502  501  0.00000000000E+00  0.00000000000E+00  0.59498572786E+03  0.59498572786E+03  0.00000000000E+00 0.  1.
         21   -1    0    0  501  502 -0.00000000000E+00 -0.00000000000E+00 -0.27461616735E+03  0.27461616735E+03  0.00000000000E+00 0.  1.
         25    1    1    2    0    0  0.97780774210E+02 -0.25546081259E+03 -0.52973559292E+02  0.30537273054E+03  0.12500000000E+03 0.  0.
         25    1    1    2    0    0  0.12978023267E+02  0.21704970987E+03  0.23941677649E+03  0.34673390159E+03  0.12500000000E+03 0.  0.
         25    1    1    2    0    0 -0.11075879748E+03  0.38411102719E+02  0.13392634331E+03  0.21749526308E+03  0.12500000000E+03 0.  0.
</event>
<event>
 5    0  0.5735425E-005  0.2817639E+03  0.7546771E-02  0.1094729E+00
         21   -1    0    0  502  501  0.00000000000E+00  0.00000000000E+00  0.19783360891E+03  0.19783360891E+03  0.00000000000E+00 0. -1.
         21   -1    0    0  501  502 -0.00000000000E+00 -0.00000000000E+00 -0.40130123203E+03  0.40130123203E+03  0.00000000000E+00 0. -1.
         25    1    1    2    0    0 -0.21779534984E+02  0.56870679266E+02 -0.17135044186E+03  0.22066852116E+03  0.12500000000E+03 0.  0.
         25    1    1    2    0    0 -0.25555603269E+02 -0.13156595545E+03 -0.10245747658E+03  0.20996481610E+03  0.12500000000E+03 0.  0.
         25    1    1    2    0    0  0.47335138253E+02  0.74695276186E+02  0.70340295324E+02  0.16850150369E+03  0.12500000000E+03 0.  0.
</event>
<event>
 5    0  0.5735425E-005  0.3096722E+03  0.7546771E-02  0.1080503E+00
         21   -1    0    0  502  501  0.00000000000E+00  0.00000000000E+00  0.27095505154E+03  0.27095505154E+03  0.00000000000E+00 0. -1.
         21   -1    0    0  501  502 -0.00000000000E+00 -0.00000000000E+00 -0.35392165071E+03  0.35392165071E+03  0.00000000000E+00 0. -1.
         25    1    1    2    0    0  0.96112285202E+02 -0.36241000030E+02  0.44667284915E+02  0.16784262805E+03  0.12500000000E+03 0.  0.
         25    1    1    2    0    0 -0.16341309219E+03 -0.68764963874E+02  0.31654141248E+02  0.21922464190E+03  0.12500000000E+03 0.  0.
         25    1    1    2    0    0  0.67300806992E+02  0.10500596390E+03 -0.15928802533E+03  0.23780943230E+03  0.12500000000E+03 0.  0.
</event>
<event>
 5    0  0.5735425E-005  0.4420599E+03  0.7546771E-02  0.1030117E+00
         21   -1    0    0  502  501  0.00000000000E+00  0.00000000000E+00  0.48528505711E+03  0.48528505711E+03  0.00000000000E+00 0.  1.
         21   -1    0    0  501  502 -0.00000000000E+00 -0.00000000000E+00 -0.40268489200E+03  0.40268489200E+03  0.00000000000E+00 0.  1.
         25    1    1    2    0    0  0.29932438877E+03 -0.41390064418E+02  0.18652184098E+03  0.37646198255E+03  0.12500000000E+03 0.  0.
         25    1    1    2    0    0 -0.28693424823E+03  0.28577699651E+02 -0.18187993972E+03  0.36311604233E+03  0.12500000000E+03 0.  0.
         25    1    1    2    0    0 -0.12390140543E+02  0.12812364767E+02  0.77958263846E+02  0.14839192423E+03  0.12500000000E+03 0.  0.
</event>
<event>
 5    0  0.6756188E-005  0.7558374E+03  0.7546771E-02  0.9626237E-01
         21   -1    0    0  502  501  0.00000000000E+00  0.00000000000E+00  0.54424165102E+03  0.54424165102E+03  0.00000000000E+00 0. -1.
         21   -1    0    0  501  502 -0.00000000000E+00 -0.00000000000E+00 -0.10496994790E+04  0.10496994790E+04  0.00000000000E+00 0.  1.
         25    1    1    2    0    0 -0.37542572684E+03  0.32941454237E+03  0.66965414997E+02  0.51919917556E+03  0.12500000000E+03 0.  0.
         25    1    1    2    0    0  0.47237268013E+03 -0.34491776083E+03 -0.14033723526E+03  0.61434823208E+03  0.12500000000E+03 0.  0.
         25    1    1    2    0    0 -0.96946953285E+02  0.15503218458E+02 -0.43208600767E+03  0.46039372233E+03  0.12500000000E+03 0.  0.
</event>
<event>
 5    0  0.5735425E-005  0.3275116E+03  0.7546771E-02  0.1072243E+00
         21   -1    0    0  502  501  0.00000000000E+00  0.00000000000E+00  0.13367647449E+03  0.13367647449E+03  0.00000000000E+00 0.  1.
         21   -1    0    0  501  502 -0.00000000000E+00 -0.00000000000E+00 -0.80241404072E+03  0.80241404072E+03  0.00000000000E+00 0.  1.
         25    1    1    2    0    0 -0.10960770452E+03  0.32417738155E+02 -0.36590087830E+03  0.40320368473E+03  0.12500000000E+03 0.  0.
         25    1    1    2    0    0  0.20670012001E+02 -0.13431406515E+03 -0.29566026491E+03  0.34857927325E+03  0.12500000000E+03 0.  0.
         25    1    1    2    0    0  0.88937692517E+02  0.10189632700E+03 -0.71764230282E+01  0.18430755723E+03  0.12500000000E+03 0.  0.
</event>
<event>
 5    0  0.5735425E-005  0.3549448E+03  0.7546771E-02  0.1060604E+00
         21   -1    0    0  502  501  0.00000000000E+00  0.00000000000E+00  0.13367232136E+04  0.13367232136E+04  0.00000000000E+00 0.  1.
         21   -1    0    0  501  502 -0.00000000000E+00 -0.00000000000E+00 -0.94249746816E+02  0.94249746816E+02  0.00000000000E+00 0.  1.
         25    1    1    2    0    0  0.15577429348E+03  0.19015648190E+03  0.24837930848E+03  0.37113663117E+03  0.12500000000E+03 0.  0.
         25    1    1    2    0    0 -0.47808031242E+02 -0.93272138743E+02  0.59850860536E+03  0.62034091467E+03  0.12500000000E+03 0.  0.
         25    1    1    2    0    0 -0.10796626224E+03 -0.96884343162E+02  0.39558555292E+03  0.43949541455E+03  0.12500000000E+03 0.  0.
</event>
<event>
 5    0  0.5735425E-005  0.3423943E+03  0.7546771E-02  0.1065781E+00
         21   -1    0    0  502  501  0.00000000000E+00  0.00000000000E+00  0.41954829143E+03  0.41954829143E+03  0.00000000000E+00 0. -1.
         21   -1    0    0  501  502 -0.00000000000E+00 -0.00000000000E+00 -0.27942879842E+03  0.27942879842E+03  0.00000000000E+00 0. -1.
         25    1    1    2    0    0  0.13018368449E+03 -0.12466491032E+03  0.11285854222E+03  0.24668032375E+03  0.12500000000E+03 0.  0.
         25    1    1    2    0    0  0.10445762790E+03  0.21561947632E+02 -0.10496570180E+02  0.16465567588E+03  0.12500000000E+03 0.  0.
         25    1    1    2    0    0 -0.23464131240E+03  0.10310296269E+03  0.37757520971E+02  0.28764109023E+03  0.12500000000E+03 0.  0.
</event>
<event>
 5    0  0.5735425E-005  0.2230353E+03  0.7546771E-02  0.1131640E+00
         21   -1    0    0  502  501  0.00000000000E+00  0.00000000000E+00  0.74492282221E+03  0.74492282221E+03  0.00000000000E+00 0.  1.
         21   -1    0    0  501  502 -0.00000000000E+00 -0.00000000000E+00 -0.66778390585E+02  0.66778390585E+02  0.00000000000E+00 0.  1.
         25    1    1    2    0    0 -0.67915888664E+01 -0.64362215412E+02  0.24127972462E+03  0.27933765583E+03  0.12500000000E+03 0.  0.
         25    1    1    2    0    0  0.19010398726E+02  0.31526520455E+02  0.35677888213E+03  0.37983086695E+03  0.12500000000E+03 0.  0.
         25    1    1    2    0    0 -0.12218809859E+02  0.32835694956E+02  0.80085824871E+02  0.15253269001E+03  0.12500000000E+03 0.  0.
</event>
<event>
 5    0  0.5735425E-005  0.2938562E+03  0.7546771E-02  0.1088353E+00
         21   -1    0    0  502  501  0.00000000000E+00  0.00000000000E+00  0.91320804082E+02  0.91320804082E+02  0.00000000000E+00 0.  1.
         21   -1    0    0  501  502 -0.00000000000E+00 -0.00000000000E+00 -0.94558396169E+03  0.94558396169E+03  0.00000000000E+00 0.  1.
         25    1    1    2    0    0  0.36239656523E+02  0.48042457439E+02 -0.24548809743E+03  0.28197658839E+03  0.12500000000E+03 0.  0.
         25    1    1    2    0    0  0.50582061951E+02 -0.11707066453E+03 -0.71662273383E+02  0.19241768867E+03  0.12500000000E+03 0.  0.
         25    1    1    2    0    0 -0.86821718474E+02  0.69028207092E+02 -0.53711278680E+03  0.56251048871E+03  0.12500000000E+03 0.  0.
</event>
<event>
 5    0  0.5735425E-005  0.3551098E+03  0.7546771E-02  0.1060537E+00
         21   -1    0    0  502  501  0.00000000000E+00  0.00000000000E+00  0.68943174234E+03  0.68943174234E+03  0.00000000000E+00 0.  1.
         21   -1    0    0  501  502 -0.00000000000E+00 -0.00000000000E+00 -0.18290856631E+03  0.18290856631E+03  0.00000000000E+00 0.  1.
         25    1    1    2    0    0 -0.77977883361E+02 -0.36218741746E+02  0.15728247183E+02  0.15252778536E+03  0.12500000000E+03 0.  0.
         25    1    1    2    0    0 -0.98753657411E+02  0.11671628947E+03  0.23907466897E+02  0.19892597632E+03  0.12500000000E+03 0.  0.
         25    1    1    2    0    0  0.17673154077E+03 -0.80497547727E+02  0.46688746195E+03  0.52088654697E+03  0.12500000000E+03 0.  0.
</event>
<event>
 5    0  0.5735425E-005  0.3257571E+03  0.7546771E-02  0.1073030E+00
         21   -1    0    0  502  501  0.00000000000E+00  0.00000000000E+00  0.70266245129E+02  0.70266245129E+02  0.00000000000E+00 0. -1.
         21   -1    0    0  501  502 -0.00000000000E+00 -0.00000000000E+00 -0.15102226640E+04  0.15102226640E+04  0.00000000000E+00 0. -1.
         25    1    1    2    0    0 -0.14181373359E+03 -0.75715076220E+02 -0.32529358345E+03  0.38377704886E+03  0.12500000000E+03 0.  0.
         25    1    1    2    0    0  0.22525870070E+03  0.40186876684E+02 -0.51186193320E+03  0.57444243050E+03  0.12500000000E+03 0.  0.
         25    1    1    2    0    0 -0.83444967111E+02  0.35528199536E+02 -0.60280090223E+03  0.62226942977E+03  0.12500000000E+03 0.  0.
</event>
<event>
 5    0  0.5735425E-005  0.2661796E+03  0.7546771E-02  0.1103486E+00
         21   -1    0    0  502  501  0.00000000000E+00  0.00000000000E+00  0.18005119221E+04  0.18005119221E+04  0.00000000000E+00 0. -1.
         21   -1    0    0  501  502 -0.00000000000E+00 -0.00000000000E+00 -0.39350792307E+02  0.39350792307E+02  0.00000000000E+00 0. -1.
         25    1    1    2    0    0 -0.11538654913E+03 -0.92452608110E+02  0.69862781810E+03  0.72496025318E+03  0.12500000000E+03 0.  0.
         25    1    1    2    0    0  0.50061376126E+02  0.12893450059E+03  0.49418001164E+03  0.52817528410E+03  0.12500000000E+03 0.  0.
         25    1    1    2    0    0  0.65325173007E+02 -0.36481892478E+02  0.56835330002E+03  0.58672717710E+03  0.12500000000E+03 0.  0.
</event>
<event>
 5    0  0.5735425E-005  0.2573235E+03  0.7546771E-02  0.1108762E+00
         21   -1    0    0  502  501  0.00000000000E+00  0.00000000000E+00  0.83494293906E+03  0.83494293906E+03  0.00000000000E+00 0.  1.
         21   -1    0    0  501  502 -0.00000000000E+00 -0.00000000000E+00 -0.79305259379E+02  0.79305259379E+02  0.00000000000E+00 0.  1.
         25    1    1    2    0    0  0.15284168406E+02  0.85580445236E+02  0.89723748630E+02  0.17672851914E+03  0.12500000000E+03 0.  0.
         25    1    1    2    0    0  0.47201762910E+01  0.42655468420E+02  0.22102988915E+03  0.25752860220E+03  0.12500000000E+03 0.  0.
         25    1    1    2    0    0 -0.20004344697E+02 -0.12823591366E+03  0.44488404190E+03  0.47999107710E+03  0.12500000000E+03 0.  0.
</event>
<event>
 5    0  0.5735425E-005  0.3718539E+03  0.7546771E-02  0.1053986E+00
         21   -1    0    0  502  501  0.00000000000E+00  0.00000000000E+00  0.30643077953E+03  0.30643077953E+03  0.00000000000E+00 0. -1.
         21   -1    0    0  501  502 -0.00000000000E+00 -0.00000000000E+00 -0.45124493610E+03  0.45124493610E+03  0.00000000000E+00 0. -1.
         25    1    1    2    0    0  0.21660634405E+03  0.19194101485E+02  0.53401294423E+02  0.25644379513E+03  0.12500000000E+03 0.  0.
         25    1    1    2    0    0 -0.27114088884E+03  0.47119828206E+02 -0.17062636897E+03  0.34709655371E+03  0.12500000000E+03 0.  0.
         25    1    1    2    0    0  0.54534544790E+02 -0.66313929691E+02 -0.27589082018E+02  0.15413536678E+03  0.12500000000E+03 0.  0.
</event>
<event>
 5    0  0.5735425E-005  0.4702775E+03  0.7546771E-02  0.1021842E+00
         21   -1    0    0  502  501  0.00000000000E+00  0.00000000000E+00  0.68534164544E+03  0.68534164544E+03  0.00000000000E+00 0. -1.
         21   -1    0    0  501  502 -0.00000000000E+00 -0.00000000000E+00 -0.32270170949E+03  0.32270170949E+03  0.00000000000E+00 0. -1.
         25    1    1    2    0    0  0.13938796856E+02 -0.27025590301E+03  0.25921329807E+03  0.39503047613E+03  0.12500000000E+03 0.  0.
         25    1    1    2    0    0 -0.36961768364E+02 -0.90916711099E+02  0.16053236358E+03  0.22589302874E+03  0.12500000000E+03 0.  0.
         25    1    1    2    0    0  0.23022971508E+02  0.36117261411E+03 -0.57105725693E+02  0.38711985006E+03  0.12500000000E+03 0.  0.
</event>
<event>
 5    0  0.5735425E-005  0.2296761E+03  0.7546771E-02  0.1126868E+00
         21   -1    0    0  502  501  0.00000000000E+00  0.00000000000E+00  0.61487121114E+03  0.61487121114E+03  0.00000000000E+00 0. -1.
         21   -1    0    0  501  502 -0.00000000000E+00 -0.00000000000E+00 -0.85792112392E+02  0.85792112392E+02  0.00000000000E+00 0. -1.
         25    1    1    2    0    0  0.45729293539E+02 -0.12196858282E+02  0.38993233426E+02  0.13923147594E+03  0.12500000000E+03 0.  0.
         25    1    1    2    0    0 -0.67793999583E+02 -0.17846759307E+02  0.24743651138E+03  0.28594468060E+03  0.12500000000E+03 0.  0.
         25    1    1    2    0    0  0.22064706044E+02  0.30043617589E+02  0.24264935394E+03  0.27548716699E+03  0.12500000000E+03 0.  0.
</event>
<event>
 5    0  0.5735425E-005  0.2952995E+03  0.7546771E-02  0.1087614E+00
         21   -1    0    0  502  501  0.00000000000E+00  0.00000000000E+00  0.29169973581E+04  0.29169973581E+04  0.00000000000E+00 0.  1.
         21   -1    0    0  501  502 -0.00000000000E+00 -0.00000000000E+00 -0.29894372291E+02  0.29894372291E+02  0.00000000000E+00 0.  1.
         25    1    1    2    0    0  0.25028734644E+02  0.61256042114E+02  0.17568494407E+04  0.17625333181E+04  0.12500000000E+03 0.  0.
         25    1    1    2    0    0  0.19310709763E+02  0.82380827713E+02  0.37571305419E+03  0.40490097972E+03  0.12500000000E+03 0.  0.
         25    1    1    2    0    0 -0.44339444407E+02 -0.14363686983E+03  0.75454049091E+03  0.77945743253E+03  0.12500000000E+03 0.  0.
</event>
<event>
 5    0  0.5735425E-005  0.4660396E+03  0.7546771E-02  0.1023044E+00
         21   -1    0    0  502  501  0.00000000000E+00  0.00000000000E+00  0.11848294874E+04  0.11848294874E+04  0.00000000000E+00 0. -1.
         21   -1    0    0  501  502 -0.00000000000E+00 -0.00000000000E+00 -0.18331154476E+03  0.18331154476E+03  0.00000000000E+00 0. -1.
         25    1    1    2    0    0  0.16494902565E+03 -0.10951640829E+03  0.64975353689E+03  0.69065670448E+03  0.12500000000E+03 0.  0.
         25    1    1    2    0    0 -0.20705009068E+03 -0.15221483926E+03  0.18130256982E+03  0.33842978469E+03  0.12500000000E+03 0.  0.
         25    1    1    2    0    0  0.42101065034E+02  0.26173124754E+03  0.17046183595E+03  0.33905454301E+03  0.12500000000E+03 0.  0.
</event>
<event>
 5    0  0.5735425E-005  0.2165433E+03  0.7546771E-02  0.1136487E+00
         21   -1    0    0  502  501  0.00000000000E+00  0.00000000000E+00  0.23576313748E+03  0.23576313748E+03  0.00000000000E+00 0. -1.
         21   -1    0    0  501  502 -0.00000000000E+00 -0.00000000000E+00 -0.19889033191E+03  0.19889033191E+03  0.00000000000E+00 0. -1.
         25    1    1    2    0    0  0.15658313728E+02  0.79832256094E+02  0.19180507913E+02  0.15037042191E+03  0.12500000000E+03 0.  0.
         25    1    1    2    0    0 -0.23758101704E+00 -0.41815384735E+02 -0.44023575125E+02  0.13896639166E+03  0.12500000000E+03 0.  0.
         25    1    1    2    0    0 -0.15420732711E+02 -0.38016871359E+02  0.61715872778E+02  0.14531665582E+03  0.12500000000E+03 0.  0.
</event>
<event>
 5    0  0.5735425E-005  0.2554751E+03  0.7546771E-02  0.1109893E+00
         21   -1    0    0  502  501  0.00000000000E+00  0.00000000000E+00  0.19609690571E+03  0.19609690571E+03  0.00000000000E+00 0.  1.
         21   -1    0    0  501  502 -0.00000000000E+00 -0.00000000000E+00 -0.33283309524E+03  0.33283309524E+03  0.00000000000E+00 0.  1.
         25    1    1    2    0    0  0.94455686359E+02 -0.45377423299E+02  0.65608485719E+02  0.17581371001E+03  0.12500000000E+03 0.  0.
         25    1    1    2    0    0 -0.10041796585E+03  0.26244566695E+02 -0.10543166498E+03  0.19368371415E+03  0.12500000000E+03 0.  0.
         25    1    1    2    0    0  0.59622794894E+01  0.19132856604E+02 -0.96913010276E+02  0.15943257678E+03  0.12500000000E+03 0.  0.
</event>
<event>
 5    0  0.7239064E-005  0.5940682E+03  0.7546771E-02  0.9917790E-01
         21   -1    0    0  502  501  0.00000000000E+00  0.00000000000E+00  0.37632100870E+03  0.37632100870E+03  0.00000000000E+00 0. -1.
         21   -1    0    0  501  502 -0.00000000000E+00 -0.00000000000E+00 -0.93780838261E+03  0.93780838261E+03  0.00000000000E+00 0. -1.
         25    1    1    2    0    0  0.44706033243E+02 -0.38629159803E+03 -0.28493706812E+03  0.49803008032E+03  0.12500000000E+03 0.  0.
         25    1    1    2    0    0  0.21821448734E+03  0.25946744286E+03  0.45059303030E+02  0.36413768987E+03  0.12500000000E+03 0.  0.
         25    1    1    2    0    0 -0.26292052059E+03  0.12682415516E+03 -0.32160960881E+03  0.45196162111E+03  0.12500000000E+03 0.  0.
</event>
<event>
 5    0  0.5735425E-005  0.3368116E+03  0.7546771E-02  0.1068162E+00
         21   -1    0    0  502  501  0.00000000000E+00  0.00000000000E+00  0.58445549719E+03  0.58445549719E+03  0.00000000000E+00 0. -1.
         21   -1    0    0  501  502 -0.00000000000E+00 -0.00000000000E+00 -0.19409866452E+03  0.19409866452E+03  0.00000000000E+00 0. -1.
         25    1    1    2    0    0 -0.26639730435E+01 -0.66364273069E+02  0.47919847298E+02  0.14944104275E+03  0.12500000000E+03 0.  0.
         25    1    1    2    0    0  0.76518893378E+02 -0.56216099158E+02 -0.72373212815E+02  0.17285332737E+03  0.12500000000E+03 0.  0.
         25    1    1    2    0    0 -0.73854920334E+02  0.12258037223E+03  0.41481019819E+03  0.45625979160E+03  0.12500000000E+03 0.  0.
</event>
<event>
 5    0  0.5735425E-005  0.3096495E+03  0.7546771E-02  0.1080514E+00
         21   -1    0    0  502  501  0.00000000000E+00  0.00000000000E+00  0.18992644217E+04  0.18992644217E+04  0.00000000000E+00 0. -1.
         21   -1    0    0  501  502 -0.00000000000E+00 -0.00000000000E+00 -0.50484185642E+02  0.50484185642E+02  0.00000000000E+00 0. -1.
         25    1    1    2    0    0  0.16471066612E+03  0.19193051556E+02  0.97716392989E+03  0.99898564687E+03  0.12500000000E+03 0.  0.
         25    1    1    2    0    0 -0.14748754639E+03 -0.11088603163E+03  0.54510909766E+03  0.58891189214E+03  0.12500000000E+03 0.  0.
         25    1    1    2    0    0 -0.17223119731E+02  0.91692980076E+02  0.32650720849E+03  0.36185106832E+03  0.12500000000E+03 0.  0.
</event>
<event>
 5    0  0.5735425E-005  0.3049040E+03  0.7546771E-02  0.1082815E+00
         21   -1    0    0  502  501  0.00000000000E+00  0.00000000000E+00  0.44614346779E+03  0.44614346779E+03  0.00000000000E+00 0. -1.
         21   -1    0    0  501  502 -0.00000000000E+00 -0.00000000000E+00 -0.20837793215E+03  0.20837793215E+03  0.00000000000E+00 0. -1.
         25    1    1    2    0    0  0.12283154763E+03 -0.15205182760E+02  0.18136358431E+03  0.25265893293E+03  0.12500000000E+03 0.  0.
         25    1    1    2    0    0 -0.59929502362E+01  0.12844421823E+03 -0.25119454800E+02  0.18107959482E+03  0.12500000000E+03 0.  0.
         25    1    1    2    0    0 -0.11683859740E+03 -0.11323903547E+03  0.81521406135E+02  0.22078287219E+03  0.12500000000E+03 0.  0.
</event>
<event>
 5    0  0.5735425E-005  0.3107099E+03  0.7546771E-02  0.1080006E+00
         21   -1    0    0  502  501  0.00000000000E+00  0.00000000000E+00  0.30973141210E+03  0.30973141210E+03  0.00000000000E+00 0. -1.
         21   -1    0    0  501  502 -0.00000000000E+00 -0.00000000000E+00 -0.31169157067E+03  0.31169157067E+03  0.00000000000E+00 0. -1.
         25    1    1    2    0    0  0.21053717117E+02 -0.11018664734E+03  0.24520590918E+02  0.16973690122E+03  0.12500000000E+03 0.  0.
         25    1    1    2    0    0 -0.59097768626E+01  0.60987509166E+02 -0.19251749992E+03  0.23757607100E+03  0.12500000000E+03 0.  0.
         25    1    1    2    0    0 -0.15143940254E+02  0.49199138175E+02  0.16603675043E+03  0.21411001055E+03  0.12500000000E+03 0.  0.
</event>
<event>
 5    0  0.5735425E-005  0.3240062E+03  0.7546771E-02  0.1073820E+00
         21   -1    0    0  502  501  0.00000000000E+00  0.00000000000E+00  0.14209997104E+03  0.14209997104E+03  0.00000000000E+00 0. -1.
         21   -1    0    0  501  502 -0.00000000000E+00 -0.00000000000E+00 -0.73877591122E+03  0.73877591122E+03  0.00000000000E+00 0. -1.
         25    1    1    2    0    0 -0.72419097686E+02 -0.41917782464E+01 -0.30455723371E+03  0.33710859574E+03  0.12500000000E+03 0.  0.
         25    1    1    2    0    0 -0.34286344839E+02 -0.16563986725E+03 -0.76360852186E+02  0.22375901951E+03  0.12500000000E+03 0.  0.
         25    1    1    2    0    0  0.10670544253E+03  0.16983164549E+03 -0.21575785429E+03  0.32000826702E+03  0.12500000000E+03 0.  0.
</event>
<event>
 5    0  0.5735425E-005  0.4889990E+03  0.7546771E-02  0.1016691E+00
         21   -1    0    0  502  501  0.00000000000E+00  0.00000000000E+00  0.48107862026E+03  0.48107862026E+03  0.00000000000E+00 0. -1.
         21   -1    0    0  501  502 -0.00000000000E+00 -0.00000000000E+00 -0.49704982088E+03  0.49704982088E+03  0.00000000000E+00 0.  1.
         25    1    1    2    0    0 -0.31026400853E+03 -0.14569196364E+03 -0.10338611611E+03  0.37921444100E+03  0.12500000000E+03 0.  0.
         25    1    1    2    0    0  0.13006913203E+03  0.25858371864E+01  0.23659534270E+03  0.29753490862E+03  0.12500000000E+03 0.  0.
         25    1    1    2    0    0  0.18019487650E+03  0.14310612645E+03 -0.14918042720E+03  0.30137909152E+03  0.12500000000E+03 0.  0.
</event>
<event>
 5    0  0.5735425E-005  0.3883095E+03  0.7546771E-02  0.1047905E+00
         21   -1    0    0  502  501  0.00000000000E+00  0.00000000000E+00  0.29399298746E+03  0.29399298746E+03  0.00000000000E+00 0.  1.
         21   -1    0    0  501  502 -0.00000000000E+00 -0.00000000000E+00 -0.51288387728E+03  0.51288387728E+03  0.00000000000E+00 0.  1.
         25    1    1    2    0    0  0.17312266453E+03 -0.36370462047E+02 -0.23863358801E+03  0.32228133177E+03  0.12500000000E+03 0.  0.
         25    1    1    2    0    0 -0.97883624392E+02 -0.13390808682E+03  0.11900509944E+03  0.23937375239E+03  0.12500000000E+03 0.  0.
         25    1    1    2    0    0 -0.75239040136E+02  0.17027854887E+03 -0.99262401254E+02  0.24522178058E+03  0.12500000000E+03 0.  0.
</event>
<event>
 5    0  0.5735425E-005  0.2382590E+03  0.7546771E-02  0.1120958E+00
         21   -1    0    0  502  501  0.00000000000E+00  0.00000000000E+00  0.13230008092E+03  0.13230008092E+03  0.00000000000E+00 0. -1.
         21   -1    0    0  501  502 -0.00000000000E+00 -0.00000000000E+00 -0.42908013439E+03  0.42908013439E+03  0.00000000000E+00 0. -1.
         25    1    1    2    0    0  0.17895509700E+02 -0.70814536413E+01 -0.26640906227E+03  0.29490538265E+03  0.12500000000E+03 0.  0.
         25    1    1    2    0    0  0.15768034235E+02 -0.21191741759E+02  0.94666700598E+01  0.12811065008E+03  0.12500000000E+03 0.  0.
         25    1    1    2    0    0 -0.33663543935E+02  0.28273195400E+02 -0.39837661259E+02  0.13836418259E+03  0.12500000000E+03 0.  0.
</event>
<event>
 5    0  0.5735425E-005  0.7747057E+03  0.7546771E-02  0.9597369E-01
         21   -1    0    0  502  501  0.00000000000E+00  0.00000000000E+00  0.12206931977E+04  0.12206931977E+04  0.00000000000E+00 0. -1.
         21   -1    0    0  501  502 -0.00000000000E+00 -0.00000000000E+00 -0.49166238812E+03  0.49166238812E+03  0.00000000000E+00 0. -1.
         25    1    1    2    0    0 -0.26022669728E+02 -0.28465248890E+03  0.74633609822E+03  0.80891704784E+03  0.12500000000E+03 0.  0.
         25    1    1    2    0    0 -0.19456806522E+03 -0.17500155682E+02  0.31258822440E+03  0.38922921972E+03  0.12500000000E+03 0.  0.
         25    1    1    2    0    0  0.22059073495E+03  0.30215264458E+03 -0.32989351309E+03  0.51420931822E+03  0.12500000000E+03 0.  0.
</event>
<event>
 5    0  0.5735425E-005  0.3159500E+03  0.7546771E-02  0.1077528E+00
         21   -1    0    0  502  501  0.00000000000E+00  0.00000000000E+00  0.88321509718E+03  0.88321509718E+03  0.00000000000E+00 0. -1.
         21   -1    0    0  501  502 -0.00000000000E+00 -0.00000000000E+00 -0.11302388570E+03  0.11302388570E+03  0.00000000000E+00 0. -1.
         25    1    1    2    0    0  0.11047050672E+03 -0.40376552989E+02  0.57211738141E+00  0.17163719354E+03  0.12500000000E+03 0.  0.
         25    1    1    2    0    0 -0.88824304869E+02  0.64512041968E+01  0.52485776304E+03  0.54683822708E+03  0.12500000000E+03 0.  0.
         25    1    1    2    0    0 -0.21646201853E+02  0.33925348792E+02  0.24476133106E+03  0.27776356227E+03  0.12500000000E+03 0.  0.
</event>
<event>
 5    0  0.5735425E-005  0.2514155E+03  0.7546771E-02  0.1112414E+00
         21   -1    0    0  502  501  0.00000000000E+00  0.00000000000E+00  0.51754239451E+03  0.51754239451E+03  0.00000000000E+00 0.  1.
         21   -1    0    0  501  502 -0.00000000000E+00 -0.00000000000E+00 -0.12213441294E+03  0.12213441294E+03  0.00000000000E+00 0.  1.
         25    1    1    2    0    0  0.80506889892E+02 -0.99421021312E+02  0.58479850986E+02  0.18817755384E+03  0.12500000000E+03 0.  0.
         25    1    1    2    0    0 -0.76967744576E+01  0.29509945751E+02  0.21194979636E+03  0.24794715851E+03  0.12500000000E+03 0.  0.
         25    1    1    2    0    0 -0.72810115434E+02  0.69911075561E+02  0.12497833422E+03  0.20355209510E+03  0.12500000000E+03 0.  0.
</event>
<event>
 5    0  0.5735425E-005  0.2529117E+03  0.7546771E-02  0.1111478E+00
         21   -1    0    0  502  501  0.00000000000E+00  0.00000000000E+00  0.28755020321E+03  0.28755020321E+03  0.00000000000E+00 0.  1.
         21   -1    0    0  501  502 -0.00000000000E+00 -0.00000000000E+00 -0.22244580664E+03  0.22244580664E+03  0.00000000000E+00 0.  1.
         25    1    1    2    0    0 -0.46649964400E+02  0.58911899281E+02  0.44249681975E+02  0.15241346860E+03  0.12500000000E+03 0.  0.
         25    1    1    2    0    0  0.41900798570E+02  0.59483733026E+02 -0.72376948924E+02  0.16173253894E+03  0.12500000000E+03 0.  0.
         25    1    1    2    0    0  0.47491658306E+01 -0.11839563231E+03  0.93231663521E+02  0.19585000232E+03  0.12500000000E+03 0.  0.
</event>
<event>
 5    0  0.5735425E-005  0.4590192E+03  0.7546771E-02  0.1025066E+00
         21   -1    0    0  502  501  0.00000000000E+00  0.00000000000E+00  0.56977407702E+03  0.56977407702E+03  0.00000000000E+00 0. -1.
         21   -1    0    0  501  502 -0.00000000000E+00 -0.00000000000E+00 -0.36979326698E+03  0.36979326698E+03  0.00000000000E+00 0. -1.
         25    1    1    2    0    0  0.15274562051E+03  0.19696776464E+03 -0.21955908664E+03  0.35490663197E+03  0.12500000000E+03 0.  0.
         25    1    1    2    0    0 -0.10345090642E+03  0.51095467788E+01  0.13890202125E+03  0.21365151302E+03  0.12500000000E+03 0.  0.
         25    1    1    2    0    0 -0.49294714092E+02 -0.20207731142E+03  0.28063787542E+03  0.37100919901E+03  0.12500000000E+03 0.  0.
</event>
<event>
 5    0  0.5735425E-005  0.4031719E+03  0.7546771E-02  0.1042687E+00
         21   -1    0    0  502  501  0.00000000000E+00  0.00000000000E+00  0.99086576768E+03  0.99086576768E+03  0.00000000000E+00 0.  1.
         21   -1    0    0  501  502 -0.00000000000E+00 -0.00000000000E+00 -0.16404600760E+03  0.16404600760E+03  0.00000000000E+00 0.  1.
         25    1    1    2    0    0 -0.25929632134E+03  0.18230102923E+03  0.19323894217E+03  0.39170720735E+03  0.12500000000E+03 0.  0.
         25    1    1    2    0    0  0.53537518147E+02 -0.31731089136E+02  0.24381914518E+03  0.28097313648E+03  0.12500000000E+03 0.  0.
         25    1    1    2    0    0  0.20575880319E+03 -0.15056994010E+03  0.38976167273E+03  0.48223143145E+03  0.12500000000E+03 0.  0.
</event>
<event>
 5    0  0.5735425E-005  0.5834636E+03  0.7546771E-02  0.9940320E-01
         21   -1    0    0  502  501  0.00000000000E+00  0.00000000000E+00  0.49181093242E+03  0.49181093242E+03  0.00000000000E+00 0.  1.
         21   -1    0    0  501  502 -0.00000000000E+00 -0.00000000000E+00 -0.69219636883E+03  0.69219636883E+03  0.00000000000E+00 0.  1.
         25    1    1    2    0    0 -0.20036294126E+03  0.23539283776E+03  0.33634115626E+02  0.33512885586E+03  0.12500000000E+03 0.  0.
         25    1    1    2    0    0 -0.26636505338E+02  0.20786387715E+03 -0.23013233833E+03  0.33541435268E+03  0.12500000000E+03 0.  0.
         25    1    1    2    0    0  0.22699944660E+03 -0.44325671491E+03 -0.38872137131E+01  0.51346409270E+03  0.12500000000E+03 0.  0.
</event>
<event>
 5    0  0.5735425E-005  0.1974720E+03  0.7546771E-02  0.1151890E+00
         21   -1    0    0  502  501  0.00000000000E+00  0.00000000000E+00  0.37929797660E+03  0.37929797660E+03  0.00000000000E+00 0.  1.
         21   -1    0    0  501  502 -0.00000000000E+00 -0.00000000000E+00 -0.10280887547E+03  0.10280887547E+03  0.00000000000E+00 0.  1.
         25    1    1    2    0    0  0.67625814608E+01 -0.29978156382E+02  0.67199336782E+02  0.14520734565E+03  0.12500000000E+03 0.  0.
         25    1    1    2    0    0 -0.26563787969E+01  0.53315745909E+02  0.94516085121E+02  0.16555336136E+03  0.12500000000E+03 0.  0.
         25    1    1    2    0    0 -0.41062026639E+01 -0.23337589527E+02  0.11477367922E+03  0.17134614506E+03  0.12500000000E+03 0.  0.
</event>
<event>
 5    0  0.5735425E-005  0.2285688E+03  0.7546771E-02  0.1127651E+00
         21   -1    0    0  502  501  0.00000000000E+00  0.00000000000E+00  0.32142462800E+03  0.32142462800E+03  0.00000000000E+00 0.  1.
         21   -1    0    0  501  502 -0.00000000000E+00 -0.00000000000E+00 -0.16253789349E+03  0.16253789349E+03  0.00000000000E+00 0.  1.
         25    1    1    2    0    0 -0.10524405974E+03 -0.48936916556E+02  0.37096336327E+02  0.17456308911E+03  0.12500000000E+03 0.  0.
         25    1    1    2    0    0  0.73682346715E+02  0.26771100115E+02  0.96102428743E+02  0.17608650382E+03  0.12500000000E+03 0.  0.
         25    1    1    2    0    0  0.31561713020E+02  0.22165816441E+02  0.25687969441E+02  0.13331292856E+03  0.12500000000E+03 0.  0.
</event>
<event>
 5    0  0.5735425E-005  0.3654382E+03  0.7546771E-02  0.1056451E+00
         21   -1    0    0  502  501  0.00000000000E+00  0.00000000000E+00  0.60201001072E+03  0.60201001072E+03  0.00000000000E+00 0. -1.
         21   -1    0    0  501  502 -0.00000000000E+00 -0.00000000000E+00 -0.22183196660E+03  0.22183196660E+03  0.00000000000E+00 0. -1.
         25    1    1    2    0    0 -0.63327735816E+02  0.10017666976E+03 -0.73755213406E+02  0.18737822390E+03  0.12500000000E+03 0.  0.
         25    1    1    2    0    0  0.19020176805E+03 -0.12426772293E+03  0.21122923249E+03  0.33445772257E+03  0.12500000000E+03 0.  0.
         25    1    1    2    0    0 -0.12687403223E+03  0.24091053174E+02  0.24270402504E+03  0.30200603084E+03  0.12500000000E+03 0.  0.
</event>
<event>
 5    0  0.5735425E-005  0.3124907E+03  0.7546771E-02  0.1079158E+00
         21   -1    0    0  502  501  0.00000000000E+00  0.00000000000E+00  0.49146268373E+03  0.49146268373E+03  0.00000000000E+00 0. -1.
         21   -1    0    0  501  502 -0.00000000000E+00 -0.00000000000E+00 -0.19869347195E+03  0.19869347195E+03  0.00000000000E+00 0. -1.
         25    1    1    2    0    0 -0.11844572247E+03  0.49676001634E+01  0.26477458818E+03  0.31588708231E+03  0.12500000000E+03 0.  0.
         25    1    1    2    0    0 -0.35030027559E+02  0.40328589517E+02  0.88722085387E+02  0.16232715854E+03  0.12500000000E+03 0.  0.
         25    1    1    2    0    0  0.15347575003E+03 -0.45296189680E+02 -0.60727461790E+02  0.21194191483E+03  0.12500000000E+03 0.  0.
</event>
<event>
 5    0  0.5735425E-005  0.3757019E+03  0.7546771E-02  0.1052534E+00
         21   -1    0    0  502  501  0.00000000000E+00  0.00000000000E+00  0.68178133126E+02  0.68178133126E+02  0.00000000000E+00 0.  1.
         21   -1    0    0  501  502 -0.00000000000E+00 -0.00000000000E+00 -0.20703395545E+04  0.20703395545E+04  0.00000000000E+00 0.  1.
         25    1    1    2    0    0 -0.80804439878E+02 -0.16970781829E+03 -0.21905125153E+03  0.31454499184E+03  0.12500000000E+03 0.  0.
         25    1    1    2    0    0  0.18945212094E+02  0.44955687817E+01 -0.11052503114E+04  0.11124668004E+04  0.12500000000E+03 0.  0.
         25    1    1    2    0    0  0.61859227783E+02  0.16521224951E+03 -0.67785985844E+03  0.71150589536E+03  0.12500000000E+03 0.  0.
</event>
<event>
 5    0  0.5735425E-005  0.2241534E+03  0.7546771E-02  0.1130824E+00
         21   -1    0    0  502  501  0.00000000000E+00  0.00000000000E+00  0.34388903709E+04  0.34388903709E+04  0.00000000000E+00 0. -1.
         21   -1    0    0  501  502 -0.00000000000E+00 -0.00000000000E+00 -0.14610749898E+02  0.14610749898E+02  0.00000000000E+00 0. -1.
         25    1    1    2    0    0  0.64715035954E+02  0.23251609956E+02  0.10290195857E+04  0.10388623494E+04  0.12500000000E+03 0.  0.
         25    1    1    2    0    0 -0.46227103718E+02  0.48615470269E+02  0.77552096105E+03  0.78838960552E+03  0.12500000000E+03 0.  0.
         25    1    1    2    0    0 -0.18487932237E+02 -0.71867080225E+02  0.16197390742E+04  0.16262491659E+04  0.12500000000E+03 0.  0.
</event>
<event>
 5    0  0.5735425E-005  0.2218922E+03  0.7546771E-02  0.1132480E+00
         21   -1    0    0  502  501  0.00000000000E+00  0.00000000000E+00  0.40395214829E+03  0.40395214829E+03  0.00000000000E+00 0.  1.
         21   -1    0    0  501  502 -0.00000000000E+00 -0.00000000000E+00 -0.12188604657E+03  0.12188604657E+03  0.00000000000E+00 0.  1.
         25    1    1    2    0    0 -0.52391617446E+02  0.65358712499E+02  0.31770483821E+02  0.15378883744E+03  0.12500000000E+03 0.  0.
         25    1    1    2    0    0  0.40005641407E+02 -0.92955054842E+01  0.16154707734E+03  0.20834902439E+03  0.12500000000E+03 0.  0.
         25    1    1    2    0    0  0.12385976039E+02 -0.56063207015E+02  0.88748540572E+02  0.16370033304E+03  0.12500000000E+03 0.  0.
</event>
<event>
 5    0  0.5735425E-005  0.4369828E+03  0.7546771E-02  0.1031677E+00
         21   -1    0    0  502  501  0.00000000000E+00  0.00000000000E+00  0.29798793217E+03  0.29798793217E+03  0.00000000000E+00 0. -1.
         21   -1    0    0  501  502 -0.00000000000E+00 -0.00000000000E+00 -0.64081110037E+03  0.64081110037E+03  0.00000000000E+00 0.  1.
         25    1    1    2    0    0  0.33196213173E+03 -0.47720593311E+02 -0.20857058934E+03  0.41424968638E+03  0.12500000000E+03 0.  0.
         25    1    1    2    0    0 -0.31414534886E+03  0.13054969916E+02 -0.18780864854E+01  0.33835818249E+03  0.12500000000E+03 0.  0.
         25    1    1    2    0    0 -0.17816782862E+02  0.34665623395E+02 -0.13237449237E+03  0.18619116367E+03  0.12500000000E+03 0.  0.
</event>
<event>
 5    0  0.5735425E-005  0.4638531E+03  0.7546771E-02  0.1023670E+00
         21   -1    0    0  502  501  0.00000000000E+00  0.00000000000E+00  0.18267701187E+03  0.18267701187E+03  0.00000000000E+00 0. -1.
         21   -1    0    0  501  502 -0.00000000000E+00 -0.00000000000E+00 -0.11778150267E+04  0.11778150267E+04  0.00000000000E+00 0. -1.
         25    1    1    2    0    0  0.20758540283E+03  0.30757885495E+02 -0.30238379604E+03  0.38871417146E+03  0.12500000000E+03 0.  0.
         25    1    1    2    0    0  0.34504071499E+02  0.23736993068E+03 -0.42972611560E+03  0.50776426555E+03  0.12500000000E+03 0.  0.
         25    1    1    2    0    0 -0.24208947433E+03 -0.26812781617E+03 -0.26302810323E+03  0.46401360160E+03  0.12500000000E+03 0.  0.
</event>
<event>
 5    0  0.5735425E-005  0.2392530E+03  0.7546771E-02  0.1120291E+00
         21   -1    0    0  502  501  0.00000000000E+00  0.00000000000E+00  0.12053558601E+03  0.12053558601E+03  0.00000000000E+00 0. -1.
         21   -1    0    0  501  502 -0.00000000000E+00 -0.00000000000E+00 -0.47489723772E+03  0.47489723772E+03  0.00000000000E+00 0. -1.
         25    1    1    2    0    0 -0.49341302384E+02 -0.37630995208E+01 -0.77626652883E+02  0.15524053039E+03  0.12500000000E+03 0.  0.
         25    1    1    2    0    0  0.24670855052E+02  0.60097544795E+02 -0.26533974467E+03  0.30041728659E+03  0.12500000000E+03 0.  0.
         25    1    1    2    0    0  0.24670447332E+02 -0.56334445275E+02 -0.11395254152E+02  0.13977500675E+03  0.12500000000E+03 0.  0.
</event>
<event>
 5    0  0.5735425E-005  0.2781175E+03  0.7546771E-02  0.1096722E+00
         21   -1    0    0  502  501  0.00000000000E+00  0.00000000000E+00  0.44902300344E+03  0.44902300344E+03  0.00000000000E+00 0. -1.
         21   -1    0    0  501  502 -0.00000000000E+00 -0.00000000000E+00 -0.17226144475E+03  0.17226144475E+03  0.00000000000E+00 0. -1.
         25    1    1    2    0    0  0.10788565391E+03 -0.13139987053E+03  0.10654355548E+03  0.23639325183E+03  0.12500000000E+03 0.  0.
         25    1    1    2    0    0 -0.12981443894E+03  0.11818119380E+03  0.86142504635E+02  0.23208643698E+03  0.12500000000E+03 0.  0.
         25    1    1    2    0    0  0.21928785024E+02  0.13218676729E+02  0.84075498579E+02  0.15280475938E+03  0.12500000000E+03 0.  0.
</event>
<event>
 5    0  0.6218824E-005  0.4650891E+03  0.7546771E-02  0.1023315E+00
         21   -1    0    0  502  501  0.00000000000E+00  0.00000000000E+00  0.60574615107E+03  0.60574615107E+03  0.00000000000E+00 0. -1.
         21   -1    0    0  501  502 -0.00000000000E+00 -0.00000000000E+00 -0.35709326934E+03  0.35709326934E+03  0.00000000000E+00 0. -1.
         25    1    1    2    0    0  0.55938941131E+02 -0.15582515505E+03 -0.17843168867E+03  0.27363024614E+03  0.12500000000E+03 0.  0.
         25    1    1    2    0    0  0.14041067277E+03  0.72633987880E+02  0.39035991178E+03  0.43931391276E+03  0.12500000000E+03 0.  0.
         25    1    1    2    0    0 -0.19634961390E+03  0.83191167166E+02  0.36724658615E+02  0.24989526150E+03  0.12500000000E+03 0.  0.
</event>
<event>
 5    0  0.5772293E-005  0.3561367E+03  0.7546771E-02  0.1060124E+00
         21   -1    0    0  502  501  0.00000000000E+00  0.00000000000E+00  0.26998053125E+03  0.26998053125E+03  0.00000000000E+00 0. -1.
         21   -1    0    0  501  502 -0.00000000000E+00 -0.00000000000E+00 -0.46978697289E+03  0.46978697289E+03  0.00000000000E+00 0. -1.
         25    1    1    2    0    0 -0.24779698699E+03 -0.62693092629E+02 -0.10162794528E+03  0.30213740233E+03  0.12500000000E+03 0.  0.
         25    1    1    2    0    0  0.50697574098E+02  0.11316277060E+03  0.81008876977E+01  0.17625742836E+03  0.12500000000E+03 0.  0.
         25    1    1    2    0    0  0.19709941289E+03 -0.50469677969E+02 -0.10627938406E+03  0.26137267346E+03  0.12500000000E+03 0.  0.
</event>
<event>
 5    0  0.5952838E-005  0.3406348E+03  0.7546771E-02  0.1066526E+00
         21   -1    0    0  502  501  0.00000000000E+00  0.00000000000E+00  0.16687442950E+03  0.16687442950E+03  0.00000000000E+00 0.  1.
         21   -1    0    0  501  502 -0.00000000000E+00 -0.00000000000E+00 -0.69532555125E+03  0.69532555125E+03  0.00000000000E+00 0.  1.
         25    1    1    2    0    0  0.22152231687E+03 -0.12400123638E+03 -0.14870982933E+03  0.31966866727E+03  0.12500000000E+03 0.  0.
         25    1    1    2    0    0 -0.14047526385E+03 -0.76177388854E+01 -0.17100557737E+03  0.25428180664E+03  0.12500000000E+03 0.  0.
         25    1    1    2    0    0 -0.81047053021E+02  0.13161897527E+03 -0.20873571505E+03  0.28824950684E+03  0.12500000000E+03 0.  0.
</event>
<event>
 5    0  0.5735425E-005  0.2661693E+03  0.7546771E-02  0.1103492E+00
         21   -1    0    0  502  501  0.00000000000E+00  0.00000000000E+00  0.26587015497E+03  0.26587015497E+03  0.00000000000E+00 0.  1.
         21   -1    0    0  501  502 -0.00000000000E+00 -0.00000000000E+00 -0.26646878799E+03  0.26646878799E+03  0.00000000000E+00 0.  1.
         25    1    1    2    0    0 -0.29640664796E+02  0.56452529560E+02  0.42645467598E+02  0.14665978661E+03  0.12500000000E+03 0.  0.
         25    1    1    2    0    0  0.11909002831E+03 -0.44023435533E+02 -0.11860631112E+03  0.21403961025E+03  0.12500000000E+03 0.  0.
         25    1    1    2    0    0 -0.89449363515E+02 -0.12429094027E+02  0.75362210510E+02  0.17163954610E+03  0.12500000000E+03 0.  0.
</event>
<event>
 5    0  0.5735425E-005  0.3331451E+03  0.7546771E-02  0.1069754E+00
         21   -1    0    0  502  501  0.00000000000E+00  0.00000000000E+00  0.14256510154E+04  0.14256510154E+04  0.00000000000E+00 0. -1.
         21   -1    0    0  501  502 -0.00000000000E+00 -0.00000000000E+00 -0.77849123235E+02  0.77849123235E+02  0.00000000000E+00 0. -1.
         25    1    1    2    0    0 -0.19778143882E+03 -0.15420053188E+03  0.46190728205E+03  0.54025793727E+03  0.12500000000E+03 0.  0.
         25    1    1    2    0    0  0.69386252216E+02  0.66380079026E+02  0.55386816834E+03  0.57586084672E+03  0.12500000000E+03 0.  0.
         25    1    1    2    0    0  0.12839518661E+03  0.87820452859E+02  0.33202644179E+03  0.38738135465E+03  0.12500000000E+03 0.  0.
</event>
<event>
 5    0  0.5735425E-005  0.2702918E+03  0.7546771E-02  0.1101113E+00
         21   -1    0    0  502  501  0.00000000000E+00  0.00000000000E+00  0.47762267159E+03  0.47762267159E+03  0.00000000000E+00 0. -1.
         21   -1    0    0  501  502 -0.00000000000E+00 -0.00000000000E+00 -0.15296107072E+03  0.15296107072E+03  0.00000000000E+00 0. -1.
         25    1    1    2    0    0  0.73872742170E+02  0.19022263701E+01  0.63331085014E+02  0.15841914919E+03  0.12500000000E+03 0.  0.
         25    1    1    2    0    0 -0.84634575091E+02  0.11740309943E+03  0.22494893928E+03  0.29525162885E+03  0.12500000000E+03 0.  0.
         25    1    1    2    0    0  0.10761832921E+02 -0.11930532580E+03  0.36381576580E+02  0.17691296427E+03  0.12500000000E+03 0.  0.
</event>
<event>
 5    0  0.5774506E-005  0.2928765E+03  0.7546771E-02  0.1088857E+00
         21   -1    0    0  502  501  0.00000000000E+00  0.00000000000E+00  0.74807619730E+03  0.74807619730E+03  0.00000000000E+00 0.  1.
         21   -1    0    0  501  502 -0.00000000000E+00 -0.00000000000E+00 -0.11466294325E+03  0.11466294325E+03  0.00000000000E+00 0.  1.
         25    1    1    2    0    0 -0.12852208059E+03 -0.68820405288E+02  0.26212405591E+03  0.32494337056E+03  0.12500000000E+03 0.  0.
         25    1    1    2    0    0 -0.27082412621E+02  0.10965797812E+03  0.91575325133E+02  0.19175340783E+03  0.12500000000E+03 0.  0.
         25    1    1    2    0    0  0.15560449321E+03 -0.40837572836E+02  0.27971387301E+03  0.34604236217E+03  0.12500000000E+03 0.  0.
</event>
<event>
 5    0  0.5735425E-005  0.3488013E+03  0.7546771E-02  0.1063108E+00
         21   -1    0    0  502  501  0.00000000000E+00  0.00000000000E+00  0.82526676030E+03  0.82526676030E+03  0.00000000000E+00 0.  1.
         21   -1    0    0  501  502 -0.00000000000E+00 -0.00000000000E+00 -0.14742183657E+03  0.14742183657E+03  0.00000000000E+00 0.  1.
         25    1    1    2    0    0  0.12560906689E+03 -0.12399284017E+03  0.23979702237E+03  0.32292332532E+03  0.12500000000E+03 0.  0.
         25    1    1    2    0    0 -0.87715883247E+02  0.27490206953E+02 -0.26717232509E+02  0.15744395246E+03  0.12500000000E+03 0.  0.
         25    1    1    2    0    0 -0.37893183641E+02  0.96502633216E+02  0.46476513387E+03  0.49232131910E+03  0.12500000000E+03 0.  0.
</event>
<event>
 5    0  0.5735425E-005  0.2553314E+03  0.7546771E-02  0.1109981E+00
         21   -1    0    0  502  501  0.00000000000E+00  0.00000000000E+00  0.10321878726E+03  0.10321878726E+03  0.00000000000E+00 0.  1.
         21   -1    0    0  501  502 -0.00000000000E+00 -0.00000000000E+00 -0.63161078184E+03  0.63161078184E+03  0.00000000000E+00 0.  1.
         25    1    1    2    0    0 -0.35523770078E+02  0.86375932728E+02 -0.19288592836E+03  0.24809820909E+03  0.12500000000E+03 0.  0.
         25    1    1    2    0    0 -0.30648432237E+02 -0.14405833113E+03 -0.13971167513E+03  0.23840402961E+03  0.12500000000E+03 0.  0.
         25    1    1    2    0    0  0.66172202315E+02  0.57682398401E+02 -0.19579439110E+03  0.24832733041E+03  0.12500000000E+03 0.  0.
</event>
<event>
 5    0  0.5735425E-005  0.7590059E+03  0.7546771E-02  0.9621326E-01
         21   -1    0    0  502  501  0.00000000000E+00  0.00000000000E+00  0.52658085588E+03  0.52658085588E+03  0.00000000000E+00 0.  1.
         21   -1    0    0  501  502 -0.00000000000E+00 -0.00000000000E+00 -0.10940200791E+04  0.10940200791E+04  0.00000000000E+00 0.  1.
         25    1    1    2    0    0  0.39086131020E+03 -0.42520599676E+03 -0.21060075719E+03  0.62733594065E+03  0.12500000000E+03 0.  0.
         25    1    1    2    0    0 -0.53083792963E+03  0.46156172270E+03 -0.18937790677E+03  0.73913268293E+03  0.12500000000E+03 0.  0.
         25    1    1    2    0    0  0.13997661943E+03 -0.36355725934E+02 -0.16746055927E+03  0.25413231142E+03  0.12500000000E+03 0.  0.
</event>
<event>
 5    0  0.5735425E-005  0.2927946E+03  0.7546771E-02  0.1088899E+00
         21   -1    0    0  502  501  0.00000000000E+00  0.00000000000E+00  0.12125517758E+04  0.12125517758E+04  0.00000000000E+00 0.  1.
         21   -1    0    0  501  502 -0.00000000000E+00 -0.00000000000E+00 -0.70701039230E+02  0.70701039230E+02  0.00000000000E+00 0.  1.
         25    1    1    2    0    0 -0.18925749895E+03 -0.23335416204E+02  0.63824766591E+03  0.67775218598E+03  0.12500000000E+03 0.  0.
         25    1    1    2    0    0  0.11855027537E+03  0.60065182504E+02  0.22277689322E+03  0.28795231913E+03  0.12500000000E+03 0.  0.
         25    1    1    2    0    0  0.70707223583E+02 -0.36729766300E+02  0.28082617744E+03  0.31754830992E+03  0.12500000000E+03 0.  0.
</event>
<event>
 5    0  0.5735425E-005  0.2190471E+03  0.7546771E-02  0.1134595E+00
         21   -1    0    0  502  501  0.00000000000E+00  0.00000000000E+00  0.75769641512E+03  0.75769641512E+03  0.00000000000E+00 0.  1.
         21   -1    0    0  501  502 -0.00000000000E+00 -0.00000000000E+00 -0.63325668855E+02  0.63325668855E+02  0.00000000000E+00 0.  1.
         25    1    1    2    0    0  0.41176856528E+01 -0.45863291833E+02  0.18084519144E+03  0.22461162067E+03  0.12500000000E+03 0.  0.
         25    1    1    2    0    0  0.77996724271E+02  0.21044735727E+02  0.29538324145E+03  0.33076068272E+03  0.12500000000E+03 0.  0.
         25    1    1    2    0    0 -0.82114409924E+02  0.24818556106E+02  0.21814231337E+03  0.26564978059E+03  0.12500000000E+03 0.  0.
</event>
<event>
 5    0  0.5836415E-005  0.3029121E+03  0.7546771E-02  0.1083794E+00
         21   -1    0    0  502  501  0.00000000000E+00  0.00000000000E+00  0.60873909734E+03  0.60873909734E+03  0.00000000000E+00 0. -1.
         21   -1    0    0  501  502 -0.00000000000E+00 -0.00000000000E+00 -0.15073077575E+03  0.15073077575E+03  0.00000000000E+00 0. -1.
         25    1    1    2    0    0 -0.84726168735E+02  0.14082774095E+02  0.26070351065E+03  0.30160929803E+03  0.12500000000E+03 0.  0.
         25    1    1    2    0    0  0.18337495700E+03  0.20437034426E+01  0.26053471297E+02  0.22345991798E+03  0.12500000000E+03 0.  0.
         25    1    1    2    0    0 -0.98648788266E+02 -0.16126477538E+02  0.17125133964E+03  0.23440065707E+03  0.12500000000E+03 0.  0.
</event>
<event>
 5    0  0.5735425E-005  0.2630826E+03  0.7546771E-02  0.1105305E+00
         21   -1    0    0  502  501  0.00000000000E+00  0.00000000000E+00  0.23130040943E+03  0.23130040943E+03  0.00000000000E+00 0. -1.
         21   -1    0    0  501  502 -0.00000000000E+00 -0.00000000000E+00 -0.29923195698E+03  0.29923195698E+03  0.00000000000E+00 0. -1.
         25    1    1    2    0    0 -0.91568317145E+02 -0.97431284355E+02 -0.23796236265E+02  0.18457755209E+03  0.12500000000E+03 0.  0.
         25    1    1    2    0    0  0.13280385117E+03  0.23210537492E+02  0.13225651611E+02  0.18432446880E+03  0.12500000000E+03 0.  0.
         25    1    1    2    0    0 -0.41235534026E+02  0.74220746863E+02 -0.57360962895E+02  0.16163034553E+03  0.12500000000E+03 0.  0.
</event>
<event>
 5    0  0.5735425E-005  0.4196813E+03  0.7546771E-02  0.1037170E+00
         21   -1    0    0  502  501  0.00000000000E+00  0.00000000000E+00  0.27981840881E+03  0.27981840881E+03  0.00000000000E+00 0.  1.
         21   -1    0    0  501  502 -0.00000000000E+00 -0.00000000000E+00 -0.62945257108E+03  0.62945257108E+03  0.00000000000E+00 0.  1.
         25    1    1    2    0    0 -0.77694434075E+02  0.32361163946E+03 -0.25858089597E+03  0.43960209058E+03  0.12500000000E+03 0.  0.
         25    1    1    2    0    0 -0.40103311554E+02 -0.92040202622E+02 -0.84603232159E+02  0.18127984275E+03  0.12500000000E+03 0.  0.
         25    1    1    2    0    0  0.11779774563E+03 -0.23157143684E+03 -0.64500341396E+01  0.28838904656E+03  0.12500000000E+03 0.  0.
</event>
<event>
 5    0  0.5735425E-005  0.3691091E+03  0.7546771E-02  0.1055034E+00
         21   -1    0    0  502  501  0.00000000000E+00  0.00000000000E+00  0.51716323978E+03  0.51716323978E+03  0.00000000000E+00 0. -1.
         21   -1    0    0  501  502 -0.00000000000E+00 -0.00000000000E+00 -0.26344008140E+03  0.26344008140E+03  0.00000000000E+00 0. -1.
         25    1    1    2    0    0  0.58206056345E+02  0.77005668531E+02 -0.21202558195E+02  0.15934982415E+03  0.12500000000E+03 0.  0.
         25    1    1    2    0    0 -0.13694855021E+03  0.67894061548E+02  0.34939316891E+03  0.40132916101E+03  0.12500000000E+03 0.  0.
         25    1    1    2    0    0  0.78742493868E+02 -0.14489973008E+03 -0.74467452333E+02  0.21992433602E+03  0.12500000000E+03 0.  0.
</event>
<event>
 5    0  0.5735425E-005  0.3339060E+03  0.7546771E-02  0.1069422E+00
         21   -1    0    0  502  501  0.00000000000E+00  0.00000000000E+00  0.10187419599E+04  0.10187419599E+04  0.00000000000E+00 0.  1.
         21   -1    0    0  501  502 -0.00000000000E+00 -0.00000000000E+00 -0.10944203646E+03  0.10944203646E+03  0.00000000000E+00 0.  1.
         25    1    1    2    0    0  0.13791696030E+02 -0.39195329936E+02 -0.12346586921E+02  0.13230239218E+03  0.12500000000E+03 0.  0.
         25    1    1    2    0    0  0.11071951174E+03  0.63474677009E+01  0.64366542141E+03  0.66500321454E+03  0.12500000000E+03 0.  0.
         25    1    1    2    0    0 -0.12451120777E+03  0.32847862236E+02  0.27798108890E+03  0.33087838960E+03  0.12500000000E+03 0.  0.
</event>
<event>
 5    0  0.5735425E-005  0.3494772E+03  0.7546771E-02  0.1062830E+00
         21   -1    0    0  502  501  0.00000000000E+00  0.00000000000E+00  0.79874594610E+02  0.79874594610E+02  0.00000000000E+00 0. -1.
         21   -1    0    0  501  502 -0.00000000000E+00 -0.00000000000E+00 -0.15290762040E+04  0.15290762040E+04  0.00000000000E+00 0. -1.
         25    1    1    2    0    0 -0.18148100623E+03 -0.12885488140E+03 -0.48026352477E+03  0.54389060417E+03  0.12500000000E+03 0.  0.
         25    1    1    2    0    0  0.95617120831E+02  0.64601484809E+02 -0.14116837361E+03  0.22106445970E+03  0.12500000000E+03 0.  0.
         25    1    1    2    0    0  0.85863885395E+02  0.64253396592E+02 -0.82776971100E+03  0.84399573472E+03  0.12500000000E+03 0.  0.
</event>
<event>
 5    0  0.5735425E-005  0.4878783E+03  0.7546771E-02  0.1016992E+00
         21   -1    0    0  502  501  0.00000000000E+00  0.00000000000E+00  0.12082478817E+04  0.12082478817E+04  0.00000000000E+00 0.  1.
         21   -1    0    0  501  502 -0.00000000000E+00 -0.00000000000E+00 -0.19700034599E+03  0.19700034599E+03  0.00000000000E+00 0.  1.
         25    1    1    2    0    0  0.34464463545E+03 -0.21905475365E+03  0.52551984318E+03  0.67717133387E+03  0.12500000000E+03 0.  0.
         25    1    1    2    0    0 -0.18599346326E+02  0.12295911969E+03  0.11941050014E+03  0.21295245559E+03  0.12500000000E+03 0.  0.
         25    1    1    2    0    0 -0.32604528912E+03  0.96095633960E+02  0.36631719241E+03  0.51512443825E+03  0.12500000000E+03 0.  0.
</event>
<event>
 5    0  0.5735425E-005  0.2771443E+03  0.7546771E-02  0.1097259E+00
         21   -1    0    0  502  501  0.00000000000E+00  0.00000000000E+00  0.10642736813E+04  0.10642736813E+04  0.00000000000E+00 0.  1.
         21   -1    0    0  501  502 -0.00000000000E+00 -0.00000000000E+00 -0.72170315392E+02  0.72170315392E+02  0.00000000000E+00 0.  1.
         25    1    1    2    0    0  0.30035918710E+01  0.15966446465E+03  0.35917489310E+03  0.41247226170E+03  0.12500000000E+03 0.  0.
         25    1    1    2    0    0  0.52161078389E+02 -0.77834549561E+02  0.15442826505E+03  0.21966357060E+03  0.12500000000E+03 0.  0.
         25    1    1    2    0    0 -0.55164670260E+02 -0.81829915086E+02  0.47850020773E+03  0.50430816437E+03  0.12500000000E+03 0.  0.
</event>
<event>
 5    0  0.5735425E-005  0.2699932E+03  0.7546771E-02  0.1101284E+00
         21   -1    0    0  502  501  0.00000000000E+00  0.00000000000E+00  0.45485973615E+03  0.45485973615E+03  0.00000000000E+00 0.  1.
         21   -1    0    0  501  502 -0.00000000000E+00 -0.00000000000E+00 -0.16026106681E+03  0.16026106681E+03  0.00000000000E+00 0.  1.
         25    1    1    2    0    0 -0.77179388888E+02 -0.48125909589E+02  0.23760918281E+03  0.28347113610E+03  0.12500000000E+03 0.  0.
         25    1    1    2    0    0  0.51192224248E+02  0.11096393748E+03  0.70966526288E+02  0.18866607299E+03  0.12500000000E+03 0.  0.
         25    1    1    2    0    0  0.25987164640E+02 -0.62838027894E+02 -0.13977039758E+02  0.14298359387E+03  0.12500000000E+03 0.  0.
</event>
<event>
 5    0  0.5735425E-005  0.3807583E+03  0.7546771E-02  0.1050654E+00
         21   -1    0    0  502  501  0.00000000000E+00  0.00000000000E+00  0.18011652883E+03  0.18011652883E+03  0.00000000000E+00 0.  1.
         21   -1    0    0  501  502 -0.00000000000E+00 -0.00000000000E+00 -0.80490605149E+03  0.80490605149E+03  0.00000000000E+00 0.  1.
         25    1    1    2    0    0 -0.21149467831E+03  0.43461428784E+02 -0.33932619234E+03  0.42117236324E+03  0.12500000000E+03 0.  0.
         25    1    1    2    0    0  0.15836733053E+03  0.13878615564E+03 -0.80447756346E+02  0.25775695893E+03  0.12500000000E+03 0.  0.
         25    1    1    2    0    0  0.53127347777E+02 -0.18224758443E+03 -0.20501557397E+03  0.30609325815E+03  0.12500000000E+03 0.  0.
</event>
<event>
 5    0  0.5735425E-005  0.2097420E+03  0.7546771E-02  0.1141770E+00
         21   -1    0    0  502  501  0.00000000000E+00  0.00000000000E+00  0.14900821612E+03  0.14900821612E+03  0.00000000000E+00 0.  1.
         21   -1    0    0  501  502 -0.00000000000E+00 -0.00000000000E+00 -0.29523005686E+03  0.29523005686E+03  0.00000000000E+00 0.  1.
         25    1    1    2    0    0 -0.70465670283E+02  0.19497286707E+02 -0.79490876234E+02  0.16519489787E+03  0.12500000000E+03 0.  0.
         25    1    1    2    0    0  0.15056811019E+02 -0.13025793204E+02  0.41955981129E+00  0.12657628086E+03  0.12500000000E+03 0.  0.
         25    1    1    2    0    0  0.55408859264E+02 -0.64714935035E+01 -0.67150524311E+02  0.15246709425E+03  0.12500000000E+03 0.  0.
</event>
<event>
 5    0  0.5735425E-005  0.3539267E+03  0.7546771E-02  0.1061015E+00
         21   -1    0    0  502  501  0.00000000000E+00  0.00000000000E+00  0.13978566801E+04  0.13978566801E+04  0.00000000000E+00 0. -1.
         21   -1    0    0  501  502 -0.00000000000E+00 -0.00000000000E+00 -0.89611556126E+02  0.89611556126E+02  0.00000000000E+00 0. -1.
         25    1    1    2    0    0  0.64032279903E+02 -0.18573470230E+03  0.56902831409E+03  0.61482984211E+03  0.12500000000E+03 0.  0.
         25    1    1    2    0    0 -0.24375298148E+02 -0.61738313589E+02  0.44265261396E+03  0.46472799697E+03  0.12500000000E+03 0.  0.
         25    1    1    2    0    0 -0.39656981755E+02  0.24747301588E+03  0.29656419590E+03  0.40791039712E+03  0.12500000000E+03 0.  0.
</event>
<event>
 5    0  0.5735425E-005  0.2500314E+03  0.7546771E-02  0.1113285E+00
         21   -1    0    0  502  501  0.00000000000E+00  0.00000000000E+00  0.16578928713E+03  0.16578928713E+03  0.00000000000E+00 0.  1.
         21   -1    0    0  501  502 -0.00000000000E+00 -0.00000000000E+00 -0.37707924881E+03  0.37707924881E+03  0.00000000000E+00 0.  1.
         25    1    1    2    0    0 -0.10042271108E+03 -0.25888520575E+02  0.34007796446E+02  0.16594115408E+03  0.12500000000E+03 0.  0.
         25    1    1    2    0    0  0.28837729411E+02  0.17914301920E+02 -0.17139091189E+03  0.21483105345E+03  0.12500000000E+03 0.  0.
         25    1    1    2    0    0  0.71584981668E+02  0.79742186551E+01 -0.73906846240E+02  0.16209632841E+03  0.12500000000E+03 0.  0.
</event>
<event>
 5    0  0.5735425E-005  0.6160806E+03  0.7546771E-02  0.9872594E-01
         21   -1    0    0  502  501  0.00000000000E+00  0.00000000000E+00  0.46050963548E+03  0.46050963548E+03  0.00000000000E+00 0. -1.
         21   -1    0    0  501  502 -0.00000000000E+00 -0.00000000000E+00 -0.82420698811E+03  0.82420698811E+03  0.00000000000E+00 0. -1.
         25    1    1    2    0    0  0.22053470529E+03  0.12209981532E+03 -0.25184996405E+03  0.37762061058E+03  0.12500000000E+03 0.  0.
         25    1    1    2    0    0  0.58994282014E+02 -0.96349093765E+02  0.32905122740E+03  0.36967983910E+03  0.12500000000E+03 0.  0.
         25    1    1    2    0    0 -0.27952898731E+03 -0.25750721558E+02 -0.44089861598E+03  0.53741617391E+03  0.12500000000E+03 0.  0.
</event>
<event>
 5    0  0.5735425E-005  0.3814482E+03  0.7546771E-02  0.1050400E+00
         21   -1    0    0  502  501  0.00000000000E+00  0.00000000000E+00  0.10133474262E+04  0.10133474262E+04  0.00000000000E+00 0.  1.
         21   -1    0    0  501  502 -0.00000000000E+00 -0.00000000000E+00 -0.14358619381E+03  0.14358619381E+03  0.00000000000E+00 0.  1.
         25    1    1    2    0    0 -0.16596097075E+03 -0.24757318746E+03  0.54560138552E+03  0.63414619674E+03  0.12500000000E+03 0.  0.
         25    1    1    2    0    0  0.28193683817E+02  0.55075563837E+02  0.14168695752E+03  0.19881749287E+03  0.12500000000E+03 0.  0.
         25    1    1    2    0    0  0.13776728694E+03  0.19249762362E+03  0.18247288935E+03  0.32396993039E+03  0.12500000000E+03 0.  0.
</event>
<event>
 5    0  0.5735425E-005  0.2993734E+03  0.7546771E-02  0.1085554E+00
         21   -1    0    0  502  501  0.00000000000E+00  0.00000000000E+00  0.16157984749E+03  0.16157984749E+03  0.00000000000E+00 0. -1.
         21   -1    0    0  501  502 -0.00000000000E+00 -0.00000000000E+00 -0.55467564473E+03  0.55467564473E+03  0.00000000000E+00 0. -1.
         25    1    1    2    0    0  0.37663680552E+02  0.43572103578E+01  0.72555927968E+02  0.14942188862E+03  0.12500000000E+03 0.  0.
         25    1    1    2    0    0  0.48923326715E+02  0.71352585516E+02 -0.24568929877E+03  0.28891679579E+03  0.12500000000E+03 0.  0.
         25    1    1    2    0    0 -0.86587007267E+02 -0.75709795873E+02 -0.21996242644E+03  0.27791680781E+03  0.12500000000E+03 0.  0.
</event>
<event>
 5    0  0.5735425E-005  0.2204234E+03  0.7546771E-02  0.1133568E+00
         21   -1    0    0  502  501  0.00000000000E+00  0.00000000000E+00  0.44647174794E+03  0.44647174794E+03  0.00000000000E+00 0. -1.
         21   -1    0    0  501  502 -0.00000000000E+00 -0.00000000000E+00 -0.10882314415E+03  0.10882314415E+03  0.00000000000E+00 0. -1.
         25    1    1    2    0    0  0.25333251680E+02 -0.74382054887E+02  0.39567877769E+02  0.15285640543E+03  0.12500000000E+03 0.  0.
         25    1    1    2    0    0  0.40880015546E+01  0.56876340374E+02  0.12156231634E+03  0.18345033825E+03  0.12500000000E+03 0.  0.
         25    1    1    2    0    0 -0.29421253235E+02  0.17505714513E+02  0.17651840968E+03  0.21898814840E+03  0.12500000000E+03 0.  0.
</event>
<event>
 5    0  0.5735425E-005  0.2503150E+03  0.7546771E-02  0.1113106E+00
         21   -1    0    0  502  501  0.00000000000E+00  0.00000000000E+00  0.60646136455E+03  0.60646136455E+03  0.00000000000E+00 0.  1.
         21   -1    0    0  501  502 -0.00000000000E+00 -0.00000000000E+00 -0.10331675995E+03  0.10331675995E+03  0.00000000000E+00 0.  1.
         25    1    1    2    0    0 -0.71254999557E+02 -0.11340183873E+03  0.27388958971E+03  0.32951139485E+03  0.12500000000E+03 0.  0.
         25    1    1    2    0    0  0.75042113483E+01  0.57867880082E+02  0.16805236733E+03  0.21742033690E+03  0.12500000000E+03 0.  0.
         25    1    1    2    0    0  0.63750788208E+02  0.55533958643E+02  0.61202647567E+02  0.16284639274E+03  0.12500000000E+03 0.  0.
</event>
<event>
 5    0  0.5735425E-005  0.2228686E+03  0.7546771E-02  0.1131762E+00
         21   -1    0    0  502  501  0.00000000000E+00  0.00000000000E+00  0.92867221044E+03  0.92867221044E+03  0.00000000000E+00 0.  1.
         21   -1    0    0  501  502 -0.00000000000E+00 -0.00000000000E+00 -0.53485392729E+02  0.53485392729E+02  0.00000000000E+00 0.  1.
         25    1    1    2    0    0 -0.33145031799E+02  0.11993490853E+02  0.18696694626E+03  0.22764901921E+03  0.12500000000E+03 0.  0.
         25    1    1    2    0    0  0.10429502617E+03  0.11178826042E+02  0.38238944537E+03  0.41575125564E+03  0.12500000000E+03 0.  0.
         25    1    1    2    0    0 -0.71149994371E+02 -0.23172316895E+02  0.30583042609E+03  0.33875732832E+03  0.12500000000E+03 0.  0.
</event>
<event>
 5    0  0.5735425E-005  0.3534084E+03  0.7546771E-02  0.1061225E+00
         21   -1    0    0  502  501  0.00000000000E+00  0.00000000000E+00  0.21735569833E+03  0.21735569833E+03  0.00000000000E+00 0. -1.
         21   -1    0    0  501  502 -0.00000000000E+00 -0.00000000000E+00 -0.57462273650E+03  0.57462273650E+03  0.00000000000E+00 0. -1.
         25    1    1    2    0    0 -0.46565725422E+02 -0.15175566179E+03 -0.12476259786E+03  0.23746337295E+03  0.12500000000E+03 0.  0.
         25    1    1    2    0    0  0.10481635922E+02 -0.13209937436E+03 -0.36335185799E+02  0.18575617116E+03  0.12500000000E+03 0.  0.
         25    1    1    2    0    0  0.36084089501E+02  0.28385503615E+03 -0.19616925451E+03  0.36875889071E+03  0.12500000000E+03 0.  0.
</event>
<event>
 5    0  0.5735425E-005  0.2319445E+03  0.7546771E-02  0.1125279E+00
         21   -1    0    0  502  501  0.00000000000E+00  0.00000000000E+00  0.61188074702E+03  0.61188074702E+03  0.00000000000E+00 0.  1.
         21   -1    0    0  501  502 -0.00000000000E+00 -0.00000000000E+00 -0.87922802577E+02  0.87922802577E+02  0.00000000000E+00 0.  1.
         25    1    1    2    0    0  0.89208550397E+02 -0.25296638977E+02  0.82414834258E+02  0.17611158484E+03  0.12500000000E+03 0.  0.
         25    1    1    2    0    0 -0.88181861411E+02  0.20203114414E+02  0.27582550535E+03  0.31605207785E+03  0.12500000000E+03 0.  0.
         25    1    1    2    0    0 -0.10266889860E+01  0.50935245628E+01  0.16571760483E+03  0.20763988691E+03  0.12500000000E+03 0.  0.
</event>
<event>
 5    0  0.5735425E-005  0.4258083E+03  0.7546771E-02  0.1035192E+00
         21   -1    0    0  502  501  0.00000000000E+00  0.00000000000E+00  0.20832888928E+03  0.20832888928E+03  0.00000000000E+00 0. -1.
         21   -1    0    0  501  502 -0.00000000000E+00 -0.00000000000E+00 -0.87031966240E+03  0.87031966240E+03  0.00000000000E+00 0. -1.
         25    1    1    2    0    0  0.86052345936E+02 -0.57643387936E+02 -0.16672435478E+03  0.23270104617E+03  0.12500000000E+03 0.  0.
         25    1    1    2    0    0  0.90428341352E+02 -0.20872986380E+03 -0.42148238710E+03  0.49499277126E+03  0.12500000000E+03 0.  0.
         25    1    1    2    0    0 -0.17648068729E+03  0.26637325174E+03 -0.73784031235E+02  0.35095473425E+03  0.12500000000E+03 0.  0.
</event>
<event>
 5    0  0.5735425E-005  0.2421855E+03  0.7546771E-02  0.1118345E+00
         21   -1    0    0  502  501  0.00000000000E+00  0.00000000000E+00  0.34943388052E+02  0.34943388052E+02  0.00000000000E+00 0. -1.
         21   -1    0    0  501  502 -0.00000000000E+00 -0.00000000000E+00 -0.16785376601E+04  0.16785376601E+04  0.00000000000E+00 0. -1.
         25    1    1    2    0    0  0.13342737291E+02 -0.52733166237E+00 -0.20089187766E+03  0.23698281210E+03  0.12500000000E+03 0.  0.
         25    1    1    2    0    0 -0.10135791094E+03  0.25374583617E+01 -0.71006444022E+03  0.72807717590E+03  0.12500000000E+03 0.  0.
         25    1    1    2    0    0  0.88015173645E+02 -0.20101266993E+01 -0.73263795417E+03  0.74842106016E+03  0.12500000000E+03 0.  0.
</event>
<event>
 5    0  0.5735425E-005  0.3284167E+03  0.7546771E-02  0.1071840E+00
         21   -1    0    0  502  501  0.00000000000E+00  0.00000000000E+00  0.10429884491E+04  0.10429884491E+04  0.00000000000E+00 0.  1.
         21   -1    0    0  501  502 -0.00000000000E+00 -0.00000000000E+00 -0.10341198521E+03  0.10341198521E+03  0.00000000000E+00 0.  1.
         25    1    1    2    0    0  0.39878850837E+02  0.22212892429E+03  0.24218632898E+03  0.35385138080E+03  0.12500000000E+03 0.  0.
         25    1    1    2    0    0  0.42168246067E+02 -0.12240555400E+03  0.23168546333E+03  0.29336740539E+03  0.12500000000E+03 0.  0.
         25    1    1    2    0    0 -0.82047096904E+02 -0.99723370291E+02  0.46570467158E+03  0.49918164812E+03  0.12500000000E+03 0.  0.
</event>
<event>
 5    0  0.5735425E-005  0.3243273E+03  0.7546771E-02  0.1073675E+00
         21   -1    0    0  502  501  0.00000000000E+00  0.00000000000E+00  0.16667881620E+03  0.16667881620E+03  0.00000000000E+00 0.  1.
         21   -1    0    0  501  502 -0.00000000000E+00 -0.00000000000E+00 -0.63108305655E+03  0.63108305655E+03  0.00000000000E+00 0.  1.
         25    1    1    2    0    0 -0.73911128131E+02 -0.12110876041E+03 -0.22948013022E+02  0.19047781501E+03  0.12500000000E+03 0.  0.
         25    1    1    2    0    0  0.15115059024E+03 -0.29694886572E+02 -0.15489425784E+03  0.25168535581E+03  0.12500000000E+03 0.  0.
         25    1    1    2    0    0 -0.77239462112E+02  0.15080364698E+03 -0.28656196950E+03  0.35559870193E+03  0.12500000000E+03 0.  0.
</event>
<event>
 5    0  0.5735425E-005  0.2048381E+03  0.7546771E-02  0.1145720E+00
         21   -1    0    0  502  501  0.00000000000E+00  0.00000000000E+00  0.18654858613E+02  0.18654858613E+02  0.00000000000E+00 0.  1.
         21   -1    0    0  501  502 -0.00000000000E+00 -0.00000000000E+00 -0.22492081818E+04  0.22492081818E+04  0.00000000000E+00 0.  1.
         25    1    1    2    0    0 -0.46266142421E+02  0.12296581241E+02 -0.63882660456E+03  0.65269915929E+03  0.12500000000E+03 0.  0.
         25    1    1    2    0    0  0.13110356418E+02 -0.35055762304E+02 -0.55380832004E+03  0.56897226932E+03  0.12500000000E+03 0.  0.
         25    1    1    2    0    0  0.33155786003E+02  0.22759181063E+02 -0.10379183986E+04  0.10461916118E+04  0.12500000000E+03 0.  0.
</event>
<event>
 5    0  0.5735425E-005  0.3522662E+03  0.7546771E-02  0.1061689E+00
         21   -1    0    0  502  501  0.00000000000E+00  0.00000000000E+00  0.43808511357E+03  0.43808511357E+03  0.00000000000E+00 0. -1.
         21   -1    0    0  501  502 -0.00000000000E+00 -0.00000000000E+00 -0.28325888799E+03  0.28325888799E+03  0.00000000000E+00 0. -1.
         25    1    1    2    0    0  0.13147286272E+02  0.15035981375E+03  0.29077716748E+03  0.35065265699E+03  0.12500000000E+03 0.  0.
         25    1    1    2    0    0  0.42058809805E+02 -0.10081674622E+03  0.78965330687E+01  0.16619360708E+03  0.12500000000E+03 0.  0.
         25    1    1    2    0    0 -0.55206096077E+02 -0.49543067528E+02 -0.14384747497E+03  0.20449773749E+03  0.12500000000E+03 0.  0.
</event>
<event>
 5    0  0.5735425E-005  0.2934530E+03  0.7546771E-02  0.1088560E+00
         21   -1    0    0  502  501  0.00000000000E+00  0.00000000000E+00  0.46656097728E+02  0.46656097728E+02  0.00000000000E+00 0. -1.
         21   -1    0    0  501  502 -0.00000000000E+00 -0.00000000000E+00 -0.18457323180E+04  0.18457323180E+04  0.00000000000E+00 0. -1.
         25    1    1    2    0    0 -0.49687813300E+01  0.32930075766E+02 -0.18487870514E+03  0.22564178313E+03  0.12500000000E+03 0.  0.
         25    1    1    2    0    0 -0.40402362239E+02 -0.17158997425E+03 -0.70079754232E+03  0.73336052898E+03  0.12500000000E+03 0.  0.
         25    1    1    2    0    0  0.45371143569E+02  0.13865989848E+03 -0.91339997285E+03  0.93338610366E+03  0.12500000000E+03 0.  0.
</event>
<event>
 5    0  0.5735425E-005  0.2917596E+03  0.7546771E-02  0.1089434E+00
         21   -1    0    0  502  501  0.00000000000E+00  0.00000000000E+00  0.31745894870E+03  0.31745894870E+03  0.00000000000E+00 0.  1.
         21   -1    0    0  501  502 -0.00000000000E+00 -0.00000000000E+00 -0.26814063253E+03  0.26814063253E+03  0.00000000000E+00 0.  1.
         25    1    1    2    0    0  0.11665982744E+03  0.98980197102E+02  0.84786127870E+02  0.21498902817E+03  0.12500000000E+03 0.  0.
         25    1    1    2    0    0 -0.61694813778E+02  0.63896410823E+02 -0.38277546806E+02  0.15804800522E+03  0.12500000000E+03 0.  0.
         25    1    1    2    0    0 -0.54965013658E+02 -0.16287660793E+03  0.28097351046E+01  0.21256254785E+03  0.12500000000E+03 0.  0.
</event>
<event>
 5    0  0.5735425E-005  0.2907826E+03  0.7546771E-02  0.1089941E+00
         21   -1    0    0  502  501  0.00000000000E+00  0.00000000000E+00  0.33133570024E+04  0.33133570024E+04  0.00000000000E+00 0. -1.
         21   -1    0    0  501  502 -0.00000000000E+00 -0.00000000000E+00 -0.25519284731E+02  0.25519284731E+02  0.00000000000E+00 0. -1.
         25    1    1    2    0    0 -0.16605922055E+02  0.38879494241E+02  0.53727556162E+03  0.55324262384E+03  0.12500000000E+03 0.  0.
         25    1    1    2    0    0 -0.60073264455E+02 -0.15694793132E+03  0.83598184836E+03  0.86181906514E+03  0.12500000000E+03 0.  0.
         25    1    1    2    0    0  0.76679186510E+02  0.11806843707E+03  0.19145803077E+04  0.19238145982E+04  0.12500000000E+03 0.  0.
</event>
<event>
 5    0  0.5735425E-005  0.3238695E+03  0.7546771E-02  0.1073882E+00
         21   -1    0    0  502  501  0.00000000000E+00  0.00000000000E+00  0.67568636666E+02  0.67568636666E+02  0.00000000000E+00 0. -1.
         21   -1    0    0  501  502 -0.00000000000E+00 -0.00000000000E+00 -0.15523693108E+04  0.15523693108E+04  0.00000000000E+00 0. -1.
         25    1    1    2    0    0 -0.14409095401E+03  0.12198301277E+03 -0.72332391125E+03  0.75793438965E+03  0.12500000000E+03 0.  0.
         25    1    1    2    0    0 -0.25369227459E+02 -0.62033702443E+01 -0.45482350570E+03  0.47241030984E+03  0.12500000000E+03 0.  0.
         25    1    1    2    0    0  0.16946018147E+03 -0.11577964252E+03 -0.30665325719E+03  0.38959324798E+03  0.12500000000E+03 0.  0.
</event>
<event>
 5    0  0.5735425E-005  0.4094978E+03  0.7546771E-02  0.1040540E+00
         21   -1    0    0  502  501  0.00000000000E+00  0.00000000000E+00  0.14867811761E+03  0.14867811761E+03  0.00000000000E+00 0. -1.
         21   -1    0    0  501  502 -0.00000000000E+00 -0.00000000000E+00 -0.11278624475E+04  0.11278624475E+04  0.00000000000E+00 0. -1.
         25    1    1    2    0    0 -0.90836256976E+01 -0.20287635858E+02  0.87538576821E+02  0.15421447032E+03  0.12500000000E+03 0.  0.
         25    1    1    2    0    0  0.85583612425E+02  0.76495506316E+02 -0.74850897280E+03  0.76750687265E+03  0.12500000000E+03 0.  0.
         25    1    1    2    0    0 -0.76499986727E+02 -0.56207870458E+02 -0.31821393391E+03  0.35481922215E+03  0.12500000000E+03 0.  0.
</event>
<event>
 5    0  0.5735425E-005  0.3103197E+03  0.7546771E-02  0.1080193E+00
         21   -1    0    0  502  501  0.00000000000E+00  0.00000000000E+00  0.21994083975E+03  0.21994083975E+03  0.00000000000E+00 0.  1.
         21   -1    0    0  501  502 -0.00000000000E+00 -0.00000000000E+00 -0.43783749082E+03  0.43783749082E+03  0.00000000000E+00 0.  1.
         25    1    1    2    0    0  0.90038730945E+02 -0.62482735828E+02 -0.30149233908E+03  0.34428722873E+03  0.12500000000E+03 0.  0.
         25    1    1    2    0    0 -0.14220964521E+02 -0.27050742297E+02  0.17991930079E+02  0.12993339847E+03  0.12500000000E+03 0.  0.
         25    1    1    2    0    0 -0.75817766424E+02  0.89533478124E+02  0.65603757933E+02  0.18355770337E+03  0.12500000000E+03 0.  0.
</event>
<event>
 5    0  0.5735425E-005  0.2578938E+03  0.7546771E-02  0.1108415E+00
         21   -1    0    0  502  501  0.00000000000E+00  0.00000000000E+00  0.16863075274E+04  0.16863075274E+04  0.00000000000E+00 0. -1.
         21   -1    0    0  501  502 -0.00000000000E+00 -0.00000000000E+00 -0.39440731087E+02  0.39440731087E+02  0.00000000000E+00 0. -1.
         25    1    1    2    0    0 -0.44954380370E+02 -0.28305897078E+02  0.44175645002E+03  0.46216434443E+03  0.12500000000E+03 0.  0.
         25    1    1    2    0    0 -0.11271679756E+03  0.49338433977E+02  0.49187206981E+03  0.52220924022E+03  0.12500000000E+03 0.  0.
         25    1    1    2    0    0  0.15767117793E+03 -0.21032536899E+02  0.71323827647E+03  0.74137467382E+03  0.12500000000E+03 0.  0.
</event>
<event>
 5    0  0.5735425E-005  0.2233173E+03  0.7546771E-02  0.1131434E+00
         21   -1    0    0  502  501  0.00000000000E+00  0.00000000000E+00  0.47272104929E+03  0.47272104929E+03  0.00000000000E+00 0.  1.
         21   -1    0    0  501  502 -0.00000000000E+00 -0.00000000000E+00 -0.10549693421E+03  0.10549693421E+03  0.00000000000E+00 0.  1.
         25    1    1    2    0    0 -0.56295159072E+02  0.56734149756E+02  0.11001875567E+03  0.18470797298E+03  0.12500000000E+03 0.  0.
         25    1    1    2    0    0  0.96294809002E+02 -0.40027819766E+02  0.16807181318E+03  0.23398301430E+03  0.12500000000E+03 0.  0.
         25    1    1    2    0    0 -0.39999649930E+02 -0.16706329990E+02  0.89133546227E+02  0.15952699621E+03  0.12500000000E+03 0.  0.
</event>
<event>
 5    0  0.5735425E-005  0.4199850E+03  0.7546771E-02  0.1037071E+00
         21   -1    0    0  502  501  0.00000000000E+00  0.00000000000E+00  0.85383893933E+02  0.85383893933E+02  0.00000000000E+00 0.  1.
         21   -1    0    0  501  502 -0.00000000000E+00 -0.00000000000E+00 -0.20658161596E+04  0.20658161596E+04  0.00000000000E+00 0.  1.
         25    1    1    2    0    0  0.20188409778E+03  0.20770700129E+03 -0.60419134474E+03  0.68159487115E+03  0.12500000000E+03 0.  0.
         25    1    1    2    0    0  0.44888154789E+02 -0.72544521526E+02 -0.18393883964E+03  0.23819351538E+03  0.12500000000E+03 0.  0.
         25    1    1    2    0    0 -0.24677225257E+03 -0.13516247976E+03 -0.11923020812E+04  0.12314116670E+04  0.12500000000E+03 0.  0.
</event>
<event>
 5    0  0.5735425E-005  0.2892051E+03  0.7546771E-02  0.1090765E+00
         21   -1    0    0  502  501  0.00000000000E+00  0.00000000000E+00  0.60896184374E+02  0.60896184374E+02  0.00000000000E+00 0. -1.
         21   -1    0    0  501  502 -0.00000000000E+00 -0.00000000000E+00 -0.13734781968E+04  0.13734781968E+04  0.00000000000E+00 0. -1.
         25    1    1    2    0    0 -0.50689460737E+02  0.63456321382E+02 -0.65719843905E+03  0.67389236117E+03  0.12500000000E+03 0.  0.
         25    1    1    2    0    0  0.16436141871E+03 -0.47310330683E+01 -0.36694997204E+03  0.42108709386E+03  0.12500000000E+03 0.  0.
         25    1    1    2    0    0 -0.11367195797E+03 -0.58725288314E+02 -0.28843360136E+03  0.33939492617E+03  0.12500000000E+03 0.  0.
</event>
<event>
 5    0  0.5735425E-005  0.2305693E+03  0.7546771E-02  0.1126240E+00
         21   -1    0    0  502  501  0.00000000000E+00  0.00000000000E+00  0.31889601485E+03  0.31889601485E+03  0.00000000000E+00 0. -1.
         21   -1    0    0  501  502 -0.00000000000E+00 -0.00000000000E+00 -0.16670706212E+03  0.16670706212E+03  0.00000000000E+00 0. -1.
         25    1    1    2    0    0 -0.23890475738E+02 -0.16138516798E+02 -0.35936284581E+02  0.13322020532E+03  0.12500000000E+03 0.  0.
         25    1    1    2    0    0  0.36364156813E+02  0.41349512644E+02  0.17728211506E+03  0.22379920111E+03  0.12500000000E+03 0.  0.
         25    1    1    2    0    0 -0.12473681075E+02 -0.25210995846E+02  0.10843122248E+02  0.12858367055E+03  0.12500000000E+03 0.  0.
</event>
<event>
 5    0  0.5806573E-005  0.3034899E+03  0.7546771E-02  0.1083509E+00
         21   -1    0    0  502  501  0.00000000000E+00  0.00000000000E+00  0.11779223472E+03  0.11779223472E+03  0.00000000000E+00 0. -1.
         21   -1    0    0  501  502 -0.00000000000E+00 -0.00000000000E+00 -0.78193710387E+03  0.78193710387E+03  0.00000000000E+00 0. -1.
         25    1    1    2    0    0 -0.61777400279E+02  0.31877891840E+02 -0.41076776161E+03  0.43495724060E+03  0.12500000000E+03 0.  0.
         25    1    1    2    0    0 -0.79362839776E+02 -0.93190416246E+02 -0.18607575353E+03  0.25540575575E+03  0.12500000000E+03 0.  0.
         25    1    1    2    0    0  0.14114024006E+03  0.61312524406E+02 -0.67301354012E+02  0.20936634224E+03  0.12500000000E+03 0.  0.
</event>
<event>
 5    0  0.5735425E-005  0.2818580E+03  0.7546771E-02  0.1094678E+00
         21   -1    0    0  502  501  0.00000000000E+00  0.00000000000E+00  0.14615164503E+03  0.14615164503E+03  0.00000000000E+00 0. -1.
         21   -1    0    0  501  502 -0.00000000000E+00 -0.00000000000E+00 -0.54357187302E+03  0.54357187302E+03  0.00000000000E+00 0. -1.
         25    1    1    2    0    0  0.10469394037E+03 -0.96002528806E+02 -0.25613897720E+03  0.31844855523E+03  0.12500000000E+03 0.  0.
         25    1    1    2    0    0 -0.12974110217E+03 -0.30932602309E+01 -0.56119149610E+02  0.18872382151E+03  0.12500000000E+03 0.  0.
         25    1    1    2    0    0  0.25047161802E+02  0.99095789037E+02 -0.85162101184E+02  0.18255114132E+03  0.12500000000E+03 0.  0.
</event>
<event>
 5    0  0.5735425E-005  0.2738167E+03  0.7546771E-02  0.1099115E+00
         21   -1    0    0  502  501  0.00000000000E+00  0.00000000000E+00  0.43650302675E+03  0.43650302675E+03  0.00000000000E+00 0. -1.
         21   -1    0    0  501  502 -0.00000000000E+00 -0.00000000000E+00 -0.17176415195E+03  0.17176415195E+03  0.00000000000E+00 0. -1.
         25    1    1    2    0    0  0.16129455365E+02  0.10334464790E+02  0.28019166413E+03  0.30740743182E+03  0.12500000000E+03 0.  0.
         25    1    1    2    0    0  0.13978766921E+02  0.38103582308E+02 -0.74771392912E+02  0.15120532434E+03  0.12500000000E+03 0.  0.
         25    1    1    2    0    0 -0.30108222286E+02 -0.48438047097E+02  0.59318603584E+02  0.14965442254E+03  0.12500000000E+03 0.  0.
</event>
<event>
 5    0  0.5735425E-005  0.2952998E+03  0.7546771E-02  0.1087614E+00
         21   -1    0    0  502  501  0.00000000000E+00  0.00000000000E+00  0.62908926142E+03  0.62908926142E+03  0.00000000000E+00 0.  1.
         21   -1    0    0  501  502 -0.00000000000E+00 -0.00000000000E+00 -0.13861617604E+03  0.13861617604E+03  0.00000000000E+00 0.  1.
         25    1    1    2    0    0 -0.47626301479E+02  0.76807818203E+02  0.18325882466E+03  0.23953392734E+03  0.12500000000E+03 0.  0.
         25    1    1    2    0    0 -0.36925179053E+02 -0.14490406316E+01 -0.44798059545E+02  0.13783118191E+03  0.12500000000E+03 0.  0.
         25    1    1    2    0    0  0.84551480532E+02 -0.75358777571E+02  0.35201232026E+03  0.39034032822E+03  0.12500000000E+03 0.  0.
</event>
<event>
 5    0  0.5735425E-005  0.2682476E+03  0.7546771E-02  0.1102287E+00
         21   -1    0    0  502  501  0.00000000000E+00  0.00000000000E+00  0.65182533697E+03  0.65182533697E+03  0.00000000000E+00 0.  1.
         21   -1    0    0  501  502 -0.00000000000E+00 -0.00000000000E+00 -0.11039271690E+03  0.11039271690E+03  0.00000000000E+00 0.  1.
         25    1    1    2    0    0  0.68349231121E+01 -0.40491114837E+02 -0.10652375166E+02  0.13200272592E+03  0.12500000000E+03 0.  0.
         25    1    1    2    0    0  0.91474891999E+01  0.88769614245E+01  0.44330081554E+03  0.46076359455E+03  0.12500000000E+03 0.  0.
         25    1    1    2    0    0 -0.15982412312E+02  0.31614153413E+02  0.10878417969E+03  0.16945173339E+03  0.12500000000E+03 0.  0.
</event>
<event>
 5    0  0.5735425E-005  0.2199282E+03  0.7546771E-02  0.1133937E+00
         21   -1    0    0  502  501  0.00000000000E+00  0.00000000000E+00  0.24566254021E+04  0.24566254021E+04  0.00000000000E+00 0. -1.
         21   -1    0    0  501  502 -0.00000000000E+00 -0.00000000000E+00 -0.19688968051E+02  0.19688968051E+02  0.00000000000E+00 0. -1.
         25    1    1    2    0    0  0.52475593649E+02 -0.18258149416E+02  0.58771484282E+03  0.60342421597E+03  0.12500000000E+03 0.  0.
         25    1    1    2    0    0 -0.22438536544E+02  0.10088375692E+02  0.13935206854E+04  0.13993320420E+04  0.12500000000E+03 0.  0.
         25    1    1    2    0    0 -0.30037057105E+02  0.81697737235E+01  0.45570090589E+03  0.47355811220E+03  0.12500000000E+03 0.  0.
</event>
<event>
 5    0  0.5930510E-005  0.3015553E+03  0.7546771E-02  0.1084466E+00
         21   -1    0    0  502  501  0.00000000000E+00  0.00000000000E+00  0.20970595264E+03  0.20970595264E+03  0.00000000000E+00 0.  1.
         21   -1    0    0  501  502 -0.00000000000E+00 -0.00000000000E+00 -0.43363387257E+03  0.43363387257E+03  0.00000000000E+00 0.  1.
         25    1    1    2    0    0 -0.60551419781E+02  0.16013546773E+03  0.40164707413E+02  0.21574996219E+03  0.12500000000E+03 0.  0.
         25    1    1    2    0    0  0.56697470378E+02 -0.75587351092E+02 -0.47791543955E+02  0.16382027489E+03  0.12500000000E+03 0.  0.
         25    1    1    2    0    0  0.38539494029E+01 -0.84548116636E+02 -0.21630108338E+03  0.26376958813E+03  0.12500000000E+03 0.  0.
</event>
<event>
 5    0  0.5735425E-005  0.2674706E+03  0.7546771E-02  0.1102736E+00
         21   -1    0    0  502  501  0.00000000000E+00  0.00000000000E+00  0.83960915909E+02  0.83960915909E+02  0.00000000000E+00 0. -1.
         21   -1    0    0  501  502 -0.00000000000E+00 -0.00000000000E+00 -0.85206949215E+03  0.85206949215E+03  0.00000000000E+00 0. -1.
         25    1    1    2    0    0  0.20667192397E+02 -0.55278838398E+01 -0.47377471238E+02  0.13537841454E+03  0.12500000000E+03 0.  0.
         25    1    1    2    0    0 -0.66990801858E+02 -0.32355126914E+02 -0.13400214684E+03  0.19777815129E+03  0.12500000000E+03 0.  0.
         25    1    1    2    0    0  0.46323609461E+02  0.37883010754E+02 -0.58672895816E+03  0.60287384223E+03  0.12500000000E+03 0.  0.
</event>
<event>
 5    0  0.5735425E-005  0.2902676E+03  0.7546771E-02  0.1090210E+00
         21   -1    0    0  502  501  0.00000000000E+00  0.00000000000E+00  0.24715584742E+03  0.24715584742E+03  0.00000000000E+00 0.  1.
         21   -1    0    0  501  502 -0.00000000000E+00 -0.00000000000E+00 -0.34089932776E+03  0.34089932776E+03  0.00000000000E+00 0.  1.
         25    1    1    2    0    0 -0.16639004673E+02 -0.10484162061E+03  0.66783372933E+02  0.17706959307E+03  0.12500000000E+03 0.  0.
         25    1    1    2    0    0  0.90187495832E+01  0.16803164420E+03 -0.17071945967E+03  0.27034441960E+03  0.12500000000E+03 0.  0.
         25    1    1    2    0    0  0.76202550901E+01 -0.63190023589E+02  0.10192606402E+02  0.14064116252E+03  0.12500000000E+03 0.  0.
</event>
<event>
 5    0  0.5735425E-005  0.5466050E+03  0.7546771E-02  0.1002283E+00
         21   -1    0    0  502  501  0.00000000000E+00  0.00000000000E+00  0.17615647193E+04  0.17615647193E+04  0.00000000000E+00 0.  1.
         21   -1    0    0  501  502 -0.00000000000E+00 -0.00000000000E+00 -0.16960885958E+03  0.16960885958E+03  0.00000000000E+00 0.  1.
         25    1    1    2    0    0 -0.78544068385E+02 -0.25942651112E+03  0.18705387789E+03  0.35225763099E+03  0.12500000000E+03 0.  0.
         25    1    1    2    0    0  0.24229413006E+03  0.20720794166E+03  0.12952882977E+04  0.13397904129E+04  0.12500000000E+03 0.  0.
         25    1    1    2    0    0 -0.16375006167E+03  0.52218569465E+02  0.10961368412E+03  0.23912553490E+03  0.12500000000E+03 0.  0.
</event>
<event>
 5    0  0.5735425E-005  0.2264318E+03  0.7546771E-02  0.1129177E+00
         21   -1    0    0  502  501  0.00000000000E+00  0.00000000000E+00  0.33655142491E+02  0.33655142491E+02  0.00000000000E+00 0. -1.
         21   -1    0    0  501  502 -0.00000000000E+00 -0.00000000000E+00 -0.15234333999E+04  0.15234333999E+04  0.00000000000E+00 0. -1.
         25    1    1    2    0    0  0.10562436790E+02  0.38895770449E+02 -0.26697249113E+03  0.29752942216E+03  0.12500000000E+03 0.  0.
         25    1    1    2    0    0 -0.19962672712E+02 -0.29358612939E+02 -0.28330184977E+03  0.31168152743E+03  0.12500000000E+03 0.  0.
         25    1    1    2    0    0  0.94002359218E+01 -0.95371575100E+01 -0.93950391656E+03  0.94787759285E+03  0.12500000000E+03 0.  0.
</event>
<event>
 5    0  0.5735425E-005  0.2482686E+03  0.7546771E-02  0.1114404E+00
         21   -1    0    0  502  501  0.00000000000E+00  0.00000000000E+00  0.26247724332E+02  0.26247724332E+02  0.00000000000E+00 0. -1.
         21   -1    0    0  501  502 -0.00000000000E+00 -0.00000000000E+00 -0.23482903141E+04  0.23482903141E+04  0.00000000000E+00 0. -1.
         25    1    1    2    0    0  0.12794532473E+02 -0.19506994690E+02 -0.44444713502E+03  0.46227965425E+03  0.12500000000E+03 0.  0.
         25    1    1    2    0    0 -0.11122088509E+03 -0.68179657944E+02 -0.95952421893E+03  0.97638633632E+03  0.12500000000E+03 0.  0.
         25    1    1    2    0    0  0.98426352618E+02  0.87686652634E+02 -0.91807123577E+03  0.93587204782E+03  0.12500000000E+03 0.  0.
</event>
<event>
 5    0  0.5735425E-005  0.3122887E+03  0.7546771E-02  0.1079254E+00
         21   -1    0    0  502  501  0.00000000000E+00  0.00000000000E+00  0.26076357437E+03  0.26076357437E+03  0.00000000000E+00 0.  1.
         21   -1    0    0  501  502 -0.00000000000E+00 -0.00000000000E+00 -0.37399474520E+03  0.37399474520E+03  0.00000000000E+00 0.  1.
         25    1    1    2    0    0  0.38379839509E+02 -0.11135658979E+02 -0.55030672168E+02  0.14230386453E+03  0.12500000000E+03 0.  0.
         25    1    1    2    0    0  0.10252709922E+03 -0.36242962015E+02  0.13855536995E+03  0.21598136242E+03  0.12500000000E+03 0.  0.
         25    1    1    2    0    0 -0.14090693873E+03  0.47378620995E+02 -0.19675586861E+03  0.27647309261E+03  0.12500000000E+03 0.  0.
</event>
<event>
 5    0  0.5735425E-005  0.2312052E+03  0.7546771E-02  0.1125794E+00
         21   -1    0    0  502  501  0.00000000000E+00  0.00000000000E+00  0.12283470198E+03  0.12283470198E+03  0.00000000000E+00 0. -1.
         21   -1    0    0  501  502 -0.00000000000E+00 -0.00000000000E+00 -0.43518510518E+03  0.43518510518E+03  0.00000000000E+00 0. -1.
         25    1    1    2    0    0  0.17746032919E+02 -0.16512011239E+02 -0.78852075403E+02  0.14976721268E+03  0.12500000000E+03 0.  0.
         25    1    1    2    0    0  0.44325537892E+02  0.10540803583E+03 -0.11720462236E+03  0.20600371557E+03  0.12500000000E+03 0.  0.
         25    1    1    2    0    0 -0.62071570811E+02 -0.88896024592E+02 -0.11629370544E+03  0.20224887890E+03  0.12500000000E+03 0.  0.
</event>
<event>
 5    0  0.5735425E-005  0.3185151E+03  0.7546771E-02  0.1076335E+00
         21   -1    0    0  502  501  0.00000000000E+00  0.00000000000E+00  0.24755862423E+03  0.24755862423E+03  0.00000000000E+00 0. -1.
         21   -1    0    0  501  502 -0.00000000000E+00 -0.00000000000E+00 -0.40980943228E+03  0.40980943228E+03  0.00000000000E+00 0. -1.
         25    1    1    2    0    0 -0.17840080781E+03 -0.11792281027E+03 -0.18306139334E+02  0.24838025716E+03  0.12500000000E+03 0.  0.
         25    1    1    2    0    0  0.10440138212E+03  0.87218404764E+00  0.15471960503E+02  0.16359948305E+03  0.12500000000E+03 0.  0.
         25    1    1    2    0    0  0.73999425693E+02  0.11705062622E+03 -0.15941662922E+03  0.24538831630E+03  0.12500000000E+03 0.  0.
</event>
<event>
 5    0  0.5735425E-005  0.2115539E+03  0.7546771E-02  0.1140341E+00
         21   -1    0    0  502  501  0.00000000000E+00  0.00000000000E+00  0.23254951080E+03  0.23254951080E+03  0.00000000000E+00 0.  1.
         21   -1    0    0  501  502 -0.00000000000E+00 -0.00000000000E+00 -0.19245391897E+03  0.19245391897E+03  0.00000000000E+00 0.  1.
         25    1    1    2    0    0 -0.10604636652E+02 -0.29321742839E+02  0.10040602731E+03  0.16333582963E+03  0.12500000000E+03 0.  0.
         25    1    1    2    0    0 -0.50055759003E+01  0.22889630003E+02 -0.17021695715E+02  0.12831106373E+03  0.12500000000E+03 0.  0.
         25    1    1    2    0    0  0.15610212552E+02  0.64321128365E+01 -0.43288739757E+02  0.13335653640E+03  0.12500000000E+03 0.  0.
</event>
<event>
 5    0  0.5735425E-005  0.2997541E+03  0.7546771E-02  0.1085364E+00
         21   -1    0    0  502  501  0.00000000000E+00  0.00000000000E+00  0.16139688730E+03  0.16139688730E+03  0.00000000000E+00 0.  1.
         21   -1    0    0  501  502 -0.00000000000E+00 -0.00000000000E+00 -0.55671786774E+03  0.55671786774E+03  0.00000000000E+00 0.  1.
         25    1    1    2    0    0  0.53767386010E+02  0.62416306053E+02 -0.23702014709E+03  0.28033957478E+03  0.12500000000E+03 0.  0.
         25    1    1    2    0    0  0.72800887451E+02 -0.14680884425E+03 -0.46233703951E+02  0.21122348673E+03  0.12500000000E+03 0.  0.
         25    1    1    2    0    0 -0.12656827346E+03  0.84392538197E+02 -0.11206712940E+03  0.22655169353E+03  0.12500000000E+03 0.  0.
</event>
<event>
 5    0  0.5735425E-005  0.4349361E+03  0.7546771E-02  0.1032312E+00
         21   -1    0    0  502  501  0.00000000000E+00  0.00000000000E+00  0.90701297264E+03  0.90701297264E+03  0.00000000000E+00 0.  1.
         21   -1    0    0  501  502 -0.00000000000E+00 -0.00000000000E+00 -0.20856307843E+03  0.20856307843E+03  0.00000000000E+00 0.  1.
         25    1    1    2    0    0  0.23695024433E+03  0.20578467957E+03  0.14591690908E+03  0.36798029429E+03  0.12500000000E+03 0.  0.
         25    1    1    2    0    0 -0.27842334412E+03 -0.67586420225E+02  0.35028482510E+03  0.46948050167E+03  0.12500000000E+03 0.  0.
         25    1    1    2    0    0  0.41473099791E+02 -0.13819825934E+03  0.20224816003E+03  0.27811525511E+03  0.12500000000E+03 0.  0.
</event>
<event>
 5    0  0.5735425E-005  0.3695963E+03  0.7546771E-02  0.1054847E+00
         21   -1    0    0  502  501  0.00000000000E+00  0.00000000000E+00  0.27103958947E+03  0.27103958947E+03  0.00000000000E+00 0. -1.
         21   -1    0    0  501  502 -0.00000000000E+00 -0.00000000000E+00 -0.50399066726E+03  0.50399066726E+03  0.00000000000E+00 0. -1.
         25    1    1    2    0    0 -0.11346094935E+03 -0.43952303658E+02 -0.23972407478E+03  0.29647567194E+03  0.12500000000E+03 0.  0.
         25    1    1    2    0    0  0.24636205880E+03  0.24059706196E+02  0.67201790619E+02  0.28533176154E+03  0.12500000000E+03 0.  0.
         25    1    1    2    0    0 -0.13290110945E+03  0.19892597463E+02 -0.60428793630E+02  0.19322282326E+03  0.12500000000E+03 0.  0.
</event>
<event>
 5    0  0.5735425E-005  0.4175932E+03  0.7546771E-02  0.1037852E+00
         21   -1    0    0  502  501  0.00000000000E+00  0.00000000000E+00  0.13812078344E+03  0.13812078344E+03  0.00000000000E+00 0.  1.
         21   -1    0    0  501  502 -0.00000000000E+00 -0.00000000000E+00 -0.12625475401E+04  0.12625475401E+04  0.00000000000E+00 0.  1.
         25    1    1    2    0    0  0.65078000328E+02  0.26952278672E+03 -0.22857289637E+03  0.38045794464E+03  0.12500000000E+03 0.  0.
         25    1    1    2    0    0  0.50043003395E+02  0.25728503200E+02 -0.36023874999E+03  0.38543899006E+03  0.12500000000E+03 0.  0.
         25    1    1    2    0    0 -0.11512100372E+03 -0.29525128992E+03 -0.53561511027E+03  0.63477138881E+03  0.12500000000E+03 0.  0.
</event>
<event>
 5    0  0.5735425E-005  0.4056663E+03  0.7546771E-02  0.1041835E+00
         21   -1    0    0  502  501  0.00000000000E+00  0.00000000000E+00  0.91553457645E+03  0.91553457645E+03  0.00000000000E+00 0.  1.
         21   -1    0    0  501  502 -0.00000000000E+00 -0.00000000000E+00 -0.17974760291E+03  0.17974760291E+03  0.00000000000E+00 0.  1.
         25    1    1    2    0    0 -0.94788429138E+02 -0.62221782184E+02  0.84087062412E+02  0.18855246098E+03  0.12500000000E+03 0.  0.
         25    1    1    2    0    0 -0.61611513253E+02 -0.15226080123E+03  0.16533812064E+02  0.20706930506E+03  0.12500000000E+03 0.  0.
         25    1    1    2    0    0  0.15639994239E+03  0.21448258342E+03  0.63516609907E+03  0.69966041332E+03  0.12500000000E+03 0.  0.
</event>
<event>
 5    0  0.5735425E-005  0.2323990E+03  0.7546771E-02  0.1124963E+00
         21   -1    0    0  502  501  0.00000000000E+00  0.00000000000E+00  0.19251845091E+04  0.19251845091E+04  0.00000000000E+00 0. -1.
         21   -1    0    0  501  502 -0.00000000000E+00 -0.00000000000E+00 -0.28054089575E+02  0.28054089575E+02  0.00000000000E+00 0. -1.
         25    1    1    2    0    0 -0.77271785586E+01 -0.31458614431E+02  0.57669099146E+03  0.59097111041E+03  0.12500000000E+03 0.  0.
         25    1    1    2    0    0  0.27186938987E+02  0.42625553041E+02  0.24757000350E+03  0.28190774033E+03  0.12500000000E+03 0.  0.
         25    1    1    2    0    0 -0.19459760429E+02 -0.11166938610E+02  0.10728694246E+04  0.10803597479E+04  0.12500000000E+03 0.  0.
</event>
<event>
 5    0  0.5735425E-005  0.2239872E+03  0.7546771E-02  0.1130945E+00
         21   -1    0    0  502  501  0.00000000000E+00  0.00000000000E+00  0.17617878527E+03  0.17617878527E+03  0.00000000000E+00 0.  1.
         21   -1    0    0  501  502 -0.00000000000E+00 -0.00000000000E+00 -0.28476893153E+03  0.28476893153E+03  0.00000000000E+00 0.  1.
         25    1    1    2    0    0 -0.17437098285E+02  0.49093190802E+02 -0.72487339817E+01  0.13561614183E+03  0.12500000000E+03 0.  0.
         25    1    1    2    0    0  0.54606778748E+02 -0.64453952929E+02  0.12713944710E+02  0.15140296141E+03  0.12500000000E+03 0.  0.
         25    1    1    2    0    0 -0.37169680463E+02  0.15360762127E+02 -0.11405535698E+03  0.17392861356E+03  0.12500000000E+03 0.  0.
</event>
<event>
 5    0  0.5735425E-005  0.3007652E+03  0.7546771E-02  0.1084859E+00
         21   -1    0    0  502  501  0.00000000000E+00  0.00000000000E+00  0.68090554144E+02  0.68090554144E+02  0.00000000000E+00 0.  1.
         21   -1    0    0  501  502 -0.00000000000E+00 -0.00000000000E+00 -0.13285201978E+04  0.13285201978E+04  0.00000000000E+00 0.  1.
         25    1    1    2    0    0 -0.16878937425E+03  0.13244987553E+02 -0.35573626539E+03  0.41332623080E+03  0.12500000000E+03 0.  0.
         25    1    1    2    0    0  0.85967524090E+02  0.10970706155E+03 -0.37331600158E+03  0.41763128664E+03  0.12500000000E+03 0.  0.
         25    1    1    2    0    0  0.82821850156E+02 -0.12295204910E+03 -0.53137737667E+03  0.56565323448E+03  0.12500000000E+03 0.  0.
</event>
<event>
 5    0  0.5735425E-005  0.3000290E+03  0.7546771E-02  0.1085226E+00
         21   -1    0    0  502  501  0.00000000000E+00  0.00000000000E+00  0.11087359844E+03  0.11087359844E+03  0.00000000000E+00 0. -1.
         21   -1    0    0  501  502 -0.00000000000E+00 -0.00000000000E+00 -0.81189212293E+03  0.81189212293E+03  0.00000000000E+00 0. -1.
         25    1    1    2    0    0  0.58628180173E+02  0.78206523859E+02 -0.20485163052E+03  0.25911911240E+03  0.12500000000E+03 0.  0.
         25    1    1    2    0    0 -0.96373011638E+02 -0.18169893487E+03 -0.41158919013E+03  0.47679442293E+03  0.12500000000E+03 0.  0.
         25    1    1    2    0    0  0.37744831466E+02  0.10349241101E+03 -0.84577703844E+02  0.18685218604E+03  0.12500000000E+03 0.  0.
</event>
<event>
 5    0  0.5735425E-005  0.4329706E+03  0.7546771E-02  0.1032926E+00
         21   -1    0    0  502  501  0.00000000000E+00  0.00000000000E+00  0.43110589448E+03  0.43110589448E+03  0.00000000000E+00 0. -1.
         21   -1    0    0  501  502 -0.00000000000E+00 -0.00000000000E+00 -0.43484343408E+03  0.43484343408E+03  0.00000000000E+00 0. -1.
         25    1    1    2    0    0 -0.16143875921E+03  0.17922371339E+03 -0.13686937386E+03  0.30420689985E+03  0.12500000000E+03 0.  0.
         25    1    1    2    0    0 -0.89200975031E+02  0.71171038798E+02  0.55443395548E+02  0.17810418530E+03  0.12500000000E+03 0.  0.
         25    1    1    2    0    0  0.25063973424E+03 -0.25039475219E+03  0.77688438708E+02  0.38363824342E+03  0.12500000000E+03 0.  0.
</event>
<event>
 5    0  0.5735425E-005  0.4939949E+03  0.7546771E-02  0.1015358E+00
         21   -1    0    0  502  501  0.00000000000E+00  0.00000000000E+00  0.90448695395E+03  0.90448695395E+03  0.00000000000E+00 0.  1.
         21   -1    0    0  501  502 -0.00000000000E+00 -0.00000000000E+00 -0.26980046839E+03  0.26980046839E+03  0.00000000000E+00 0.  1.
         25    1    1    2    0    0  0.22201414884E+03  0.24099062521E+03 -0.82543527205E+01  0.35079894250E+03  0.12500000000E+03 0.  0.
         25    1    1    2    0    0 -0.23850383873E+03 -0.57369888783E+02  0.45612524406E+03  0.53277633534E+03  0.12500000000E+03 0.  0.
         25    1    1    2    0    0  0.16489689893E+02 -0.18362073642E+03  0.18681559422E+03  0.29071214450E+03  0.12500000000E+03 0.  0.
</event>
<event>
 5    0  0.5735425E-005  0.3382694E+03  0.7546771E-02  0.1067535E+00
         21   -1    0    0  502  501  0.00000000000E+00  0.00000000000E+00  0.49073578845E+03  0.49073578845E+03  0.00000000000E+00 0.  1.
         21   -1    0    0  501  502 -0.00000000000E+00 -0.00000000000E+00 -0.23317275904E+03  0.23317275904E+03  0.00000000000E+00 0.  1.
         25    1    1    2    0    0  0.12375118381E+03 -0.82440781152E+02  0.20937110779E+03  0.28560829587E+03  0.12500000000E+03 0.  0.
         25    1    1    2    0    0 -0.57790288413E+02  0.39085556122E+02  0.18700626244E+03  0.23550741034E+03  0.12500000000E+03 0.  0.
         25    1    1    2    0    0 -0.65960895398E+02  0.43355225029E+02 -0.13881434082E+03  0.20279284129E+03  0.12500000000E+03 0.  0.
</event>
<event>
 5    0  0.5735425E-005  0.3258928E+03  0.7546771E-02  0.1072969E+00
         21   -1    0    0  502  501  0.00000000000E+00  0.00000000000E+00  0.10134306120E+04  0.10134306120E+04  0.00000000000E+00 0.  1.
         21   -1    0    0  501  502 -0.00000000000E+00 -0.00000000000E+00 -0.10479863178E+03  0.10479863178E+03  0.00000000000E+00 0.  1.
         25    1    1    2    0    0  0.46168799655E+02  0.16480574889E+03  0.28745945639E+03  0.35714203337E+03  0.12500000000E+03 0.  0.
         25    1    1    2    0    0  0.12868900181E+03 -0.10158594521E+03  0.37706515349E+03  0.42974840713E+03  0.12500000000E+03 0.  0.
         25    1    1    2    0    0 -0.17485780147E+03 -0.63219803680E+02  0.24410737035E+03  0.33133880330E+03  0.12500000000E+03 0.  0.
</event>
<event>
 5    0  0.5735425E-005  0.3064378E+03  0.7546771E-02  0.1082066E+00
         21   -1    0    0  502  501  0.00000000000E+00  0.00000000000E+00  0.28127108340E+03  0.28127108340E+03  0.00000000000E+00 0. -1.
         21   -1    0    0  501  502 -0.00000000000E+00 -0.00000000000E+00 -0.33385621882E+03  0.33385621882E+03  0.00000000000E+00 0. -1.
         25    1    1    2    0    0  0.13654899800E+03 -0.15190817942E+02 -0.12827592041E+03  0.22573458211E+03  0.12500000000E+03 0.  0.
         25    1    1    2    0    0  0.38074743334E+01 -0.98441637308E+02  0.71457861482E+01  0.15931514390E+03  0.12500000000E+03 0.  0.
         25    1    1    2    0    0 -0.14035647233E+03  0.11363245525E+03  0.68544998843E+02  0.23007757622E+03  0.12500000000E+03 0.  0.
</event>
<event>
 5    0  0.6093734E-005  0.5237114E+03  0.7546771E-02  0.1007769E+00
         21   -1    0    0  502  501  0.00000000000E+00  0.00000000000E+00  0.84548791902E+03  0.84548791902E+03  0.00000000000E+00 0.  1.
         21   -1    0    0  501  502 -0.00000000000E+00 -0.00000000000E+00 -0.32439689434E+03  0.32439689434E+03  0.00000000000E+00 0.  1.
         25    1    1    2    0    0  0.26143487593E+03  0.15631923096E+03  0.46946670385E+02  0.33258515628E+03  0.12500000000E+03 0.  0.
         25    1    1    2    0    0 -0.27518551051E+03 -0.25516863395E+03  0.68742229046E+02  0.40148298968E+03  0.12500000000E+03 0.  0.
         25    1    1    2    0    0  0.13750634576E+02  0.98849402995E+02  0.40540212525E+03  0.43581666740E+03  0.12500000000E+03 0.  0.
</event>
<event>
 5    0  0.5735425E-005  0.2396048E+03  0.7546771E-02  0.1120056E+00
         21   -1    0    0  502  501  0.00000000000E+00  0.00000000000E+00  0.94243866061E+02  0.94243866061E+02  0.00000000000E+00 0.  1.
         21   -1    0    0  501  502 -0.00000000000E+00 -0.00000000000E+00 -0.60916894359E+03  0.60916894359E+03  0.00000000000E+00 0.  1.
         25    1    1    2    0    0 -0.12463508145E+02  0.11265935731E+03 -0.30304529797E+03  0.34685576606E+03  0.12500000000E+03 0.  0.
         25    1    1    2    0    0  0.51360009137E+01 -0.18530027706E+02 -0.66717139453E+02  0.14298922032E+03  0.12500000000E+03 0.  0.
         25    1    1    2    0    0  0.73275072311E+01 -0.94129329604E+02 -0.14516264011E+03  0.21356782327E+03  0.12500000000E+03 0.  0.
</event>
<event>
 5    0  0.5735425E-005  0.3466423E+03  0.7546771E-02  0.1064002E+00
         21   -1    0    0  502  501  0.00000000000E+00  0.00000000000E+00  0.11297089047E+03  0.11297089047E+03  0.00000000000E+00 0. -1.
         21   -1    0    0  501  502 -0.00000000000E+00 -0.00000000000E+00 -0.10636443632E+04  0.10636443632E+04  0.00000000000E+00 0. -1.
         25    1    1    2    0    0  0.74399005500E+02 -0.12551226055E+03 -0.14759547828E+03  0.24227662862E+03  0.12500000000E+03 0.  0.
         25    1    1    2    0    0  0.97397398067E+02 -0.28200697648E+02 -0.11452766432E+03  0.19754270017E+03  0.12500000000E+03 0.  0.
         25    1    1    2    0    0 -0.17179640357E+03  0.15371295819E+03 -0.68855033009E+03  0.73679592484E+03  0.12500000000E+03 0.  0.
</event>
<event>
 5    0  0.5735425E-005  0.4719434E+03  0.7546771E-02  0.1021373E+00
         21   -1    0    0  502  501  0.00000000000E+00  0.00000000000E+00  0.17694361707E+03  0.17694361707E+03  0.00000000000E+00 0. -1.
         21   -1    0    0  501  502 -0.00000000000E+00 -0.00000000000E+00 -0.12587659713E+04  0.12587659713E+04  0.00000000000E+00 0. -1.
         25    1    1    2    0    0 -0.12469775187E+02  0.10809668814E+03 -0.84959578534E+03  0.86560868049E+03  0.12500000000E+03 0.  0.
         25    1    1    2    0    0 -0.93280546802E+02  0.12185768605E+02 -0.31422236478E+03  0.35101345829E+03  0.12500000000E+03 0.  0.
         25    1    1    2    0    0  0.10575032199E+03 -0.12028245675E+03  0.81995795933E+02  0.21908744955E+03  0.12500000000E+03 0.  0.
</event>
<event>
 5    0  0.6427754E-005  0.3664184E+03  0.7546771E-02  0.1056071E+00
         21   -1    0    0  502  501  0.00000000000E+00  0.00000000000E+00  0.49268634838E+03  0.49268634838E+03  0.00000000000E+00 0. -1.
         21   -1    0    0  501  502 -0.00000000000E+00 -0.00000000000E+00 -0.27251097717E+03  0.27251097717E+03  0.00000000000E+00 0. -1.
         25    1    1    2    0    0 -0.24000378607E+02  0.15280009913E+03  0.29437493973E+03  0.35525412539E+03  0.12500000000E+03 0.  0.
         25    1    1    2    0    0  0.16378939635E+02  0.42468886915E+02 -0.11324530495E+03  0.17470367801E+03  0.12500000000E+03 0.  0.
         25    1    1    2    0    0  0.76214389727E+01 -0.19526898605E+03  0.39045736428E+02  0.23523952214E+03  0.12500000000E+03 0.  0.
</event>
<event>
 5    0  0.5735425E-005  0.3794877E+03  0.7546771E-02  0.1051123E+00
         21   -1    0    0  502  501  0.00000000000E+00  0.00000000000E+00  0.53845351750E+03  0.53845351750E+03  0.00000000000E+00 0.  1.
         21   -1    0    0  501  502 -0.00000000000E+00 -0.00000000000E+00 -0.26745287802E+03  0.26745287802E+03  0.00000000000E+00 0.  1.
         25    1    1    2    0    0 -0.22425254968E+03  0.10816466421E+03 -0.85073991728E+02  0.29129261009E+03  0.12500000000E+03 0.  0.
         25    1    1    2    0    0  0.11542990686E+03  0.87616910283E+00  0.13206663402E+03  0.21538669154E+03  0.12500000000E+03 0.  0.
         25    1    1    2    0    0  0.10882264282E+03 -0.10904083331E+03  0.22400799718E+03  0.29922709390E+03  0.12500000000E+03 0.  0.
</event>
<event>
 5    0  0.5735425E-005  0.2831580E+03  0.7546771E-02  0.1093976E+00
         21   -1    0    0  502  501  0.00000000000E+00  0.00000000000E+00  0.18678174825E+03  0.18678174825E+03  0.00000000000E+00 0. -1.
         21   -1    0    0  501  502 -0.00000000000E+00 -0.00000000000E+00 -0.42926289984E+03  0.42926289984E+03  0.00000000000E+00 0. -1.
         25    1    1    2    0    0  0.52188472754E+02  0.68718499453E+02 -0.20653901495E+03  0.25637713150E+03  0.12500000000E+03 0.  0.
         25    1    1    2    0    0 -0.36713650444E+02  0.16900854845E+02  0.92309708056E+02  0.16056031024E+03  0.12500000000E+03 0.  0.
         25    1    1    2    0    0 -0.15474822310E+02 -0.85619354298E+02 -0.12825184469E+03  0.19910720636E+03  0.12500000000E+03 0.  0.
</event>
<event>
 5    0  0.6036512E-005  0.3452638E+03  0.7546771E-02  0.1064576E+00
         21   -1    0    0  502  501  0.00000000000E+00  0.00000000000E+00  0.15324709209E+03  0.15324709209E+03  0.00000000000E+00 0. -1.
         21   -1    0    0  501  502 -0.00000000000E+00 -0.00000000000E+00 -0.77787508614E+03  0.77787508614E+03  0.00000000000E+00 0. -1.
         25    1    1    2    0    0 -0.76313193577E+01 -0.97072392031E+02 -0.15878639571E+01  0.15845758941E+03  0.12500000000E+03 0.  0.
         25    1    1    2    0    0  0.15441461244E+03  0.13324601175E+03 -0.45634785917E+03  0.51524435053E+03  0.12500000000E+03 0.  0.
         25    1    1    2    0    0 -0.14678329308E+03 -0.36173619723E+02 -0.16669227092E+03  0.25742023828E+03  0.12500000000E+03 0.  0.
</event>
<event>
 5    0  0.5735425E-005  0.4427401E+03  0.7546771E-02  0.1029909E+00
         21   -1    0    0  502  501  0.00000000000E+00  0.00000000000E+00  0.14655923837E+03  0.14655923837E+03  0.00000000000E+00 0.  1.
         21   -1    0    0  501  502 -0.00000000000E+00 -0.00000000000E+00 -0.13374715159E+04  0.13374715159E+04  0.00000000000E+00 0. -1.
         25    1    1    2    0    0 -0.24326761672E+03 -0.24254855970E+03 -0.74884499506E+03  0.83330832457E+03  0.12500000000E+03 0.  0.
         25    1    1    2    0    0  0.84146358604E+02 -0.12389091625E+02 -0.15842976582E+03  0.21899563913E+03  0.12500000000E+03 0.  0.
         25    1    1    2    0    0  0.15912125812E+03  0.25493765133E+03 -0.28363751663E+03  0.43172679057E+03  0.12500000000E+03 0.  0.
</event>
<event>
 5    0  0.5735425E-005  0.3071601E+03  0.7546771E-02  0.1081715E+00
         21   -1    0    0  502  501  0.00000000000E+00  0.00000000000E+00  0.14595705547E+03  0.14595705547E+03  0.00000000000E+00 0.  1.
         21   -1    0    0  501  502 -0.00000000000E+00 -0.00000000000E+00 -0.64640477551E+03  0.64640477551E+03  0.00000000000E+00 0.  1.
         25    1    1    2    0    0 -0.27306008644E+02  0.13924648238E+02  0.17781104199E+01  0.12871548319E+03  0.12500000000E+03 0.  0.
         25    1    1    2    0    0  0.79348958853E+02  0.15685944292E+03 -0.25908970120E+03  0.33712551872E+03  0.12500000000E+03 0.  0.
         25    1    1    2    0    0 -0.52042950209E+02 -0.17078409116E+03 -0.24313612926E+03  0.32652082906E+03  0.12500000000E+03 0.  0.
</event>
<event>
 5    0  0.5735425E-005  0.2643408E+03  0.7546771E-02  0.1104563E+00
         21   -1    0    0  502  501  0.00000000000E+00  0.00000000000E+00  0.54553209681E+03  0.54553209681E+03  0.00000000000E+00 0. -1.
         21   -1    0    0  501  502 -0.00000000000E+00 -0.00000000000E+00 -0.12808785265E+03  0.12808785265E+03  0.00000000000E+00 0. -1.
         25    1    1    2    0    0 -0.41543171455E+02  0.31227236330E+02  0.15182698145E+02  0.13622220710E+03  0.12500000000E+03 0.  0.
         25    1    1    2    0    0  0.11855219930E+03  0.11220750209E+02  0.10211538014E+03  0.20058185375E+03  0.12500000000E+03 0.  0.
         25    1    1    2    0    0 -0.77009027841E+02 -0.42447986539E+02  0.30014616588E+03  0.33681588861E+03  0.12500000000E+03 0.  0.
</event>
<event>
 5    0  0.5735425E-005  0.6288947E+03  0.7546771E-02  0.9847208E-01
         21   -1    0    0  502  501  0.00000000000E+00  0.00000000000E+00  0.77763298259E+03  0.77763298259E+03  0.00000000000E+00 0.  1.
         21   -1    0    0  501  502 -0.00000000000E+00 -0.00000000000E+00 -0.50860571336E+03  0.50860571336E+03  0.00000000000E+00 0.  1.
         25    1    1    2    0    0 -0.38190859020E+03  0.43086346698E+03  0.10452574183E+03  0.59837123022E+03  0.12500000000E+03 0.  0.
         25    1    1    2    0    0  0.14345098990E+03 -0.26394455122E+03 -0.11306228847E+02  0.32557294640E+03  0.12500000000E+03 0.  0.
         25    1    1    2    0    0  0.23845760030E+03 -0.16691891576E+03  0.17580775624E+03  0.36229451933E+03  0.12500000000E+03 0.  0.
</event>
<event>
 5    0  0.5735425E-005  0.2751458E+03  0.7546771E-02  0.1098370E+00
         21   -1    0    0  502  501  0.00000000000E+00  0.00000000000E+00  0.71009431141E+02  0.71009431141E+02  0.00000000000E+00 0.  1.
         21   -1    0    0  501  502 -0.00000000000E+00 -0.00000000000E+00 -0.10661292373E+04  0.10661292373E+04  0.00000000000E+00 0.  1.
         25    1    1    2    0    0 -0.63933594055E+02 -0.35359235063E+02 -0.15589443883E+03  0.21275774019E+03  0.12500000000E+03 0.  0.
         25    1    1    2    0    0  0.10465667076E+03  0.80286384696E+01 -0.14831858168E+03  0.22054677382E+03  0.12500000000E+03 0.  0.
         25    1    1    2    0    0 -0.40723076709E+02  0.27330596593E+02 -0.69090678562E+03  0.70383415440E+03  0.12500000000E+03 0.  0.
</event>
<event>
 5    0  0.5735425E-005  0.3704574E+03  0.7546771E-02  0.1054518E+00
         21   -1    0    0  502  501  0.00000000000E+00  0.00000000000E+00  0.42958155864E+03  0.42958155864E+03  0.00000000000E+00 0.  1.
         21   -1    0    0  501  502 -0.00000000000E+00 -0.00000000000E+00 -0.31947067617E+03  0.31947067617E+03  0.00000000000E+00 0.  1.
         25    1    1    2    0    0  0.34928429332E+02  0.27172103328E+03 -0.63313637030E+01  0.30119329552E+03  0.12500000000E+03 0.  0.
         25    1    1    2    0    0  0.32554399694E+02 -0.25416484069E+03  0.47674523896E+02  0.28906299557E+03  0.12500000000E+03 0.  0.
         25    1    1    2    0    0 -0.67482829026E+02 -0.17556192587E+02  0.68767722283E+02  0.15879594371E+03  0.12500000000E+03 0.  0.
</event>
<event>
 5    0  0.5735425E-005  0.3251201E+03  0.7546771E-02  0.1073317E+00
         21   -1    0    0  502  501  0.00000000000E+00  0.00000000000E+00  0.19363847824E+04  0.19363847824E+04  0.00000000000E+00 0.  1.
         21   -1    0    0  501  502 -0.00000000000E+00 -0.00000000000E+00 -0.54587852242E+02  0.54587852242E+02  0.00000000000E+00 0.  1.
         25    1    1    2    0    0 -0.11374217179E+03 -0.35139445188E+02  0.78932372622E+03  0.80797834564E+03  0.12500000000E+03 0.  0.
         25    1    1    2    0    0  0.14162696967E+03 -0.37219213769E+02  0.97753580745E+03  0.99631557413E+03  0.12500000000E+03 0.  0.
         25    1    1    2    0    0 -0.27884797880E+02  0.72358658957E+02  0.11493739653E+03  0.18667871491E+03  0.12500000000E+03 0.  0.
</event>
<event>
 5    0  0.5735425E-005  0.3631187E+03  0.7546771E-02  0.1057356E+00
         21   -1    0    0  502  501  0.00000000000E+00  0.00000000000E+00  0.24495487145E+03  0.24495487145E+03  0.00000000000E+00 0.  1.
         21   -1    0    0  501  502 -0.00000000000E+00 -0.00000000000E+00 -0.53828369493E+03  0.53828369493E+03  0.00000000000E+00 0.  1.
         25    1    1    2    0    0 -0.19805024533E+02  0.16764019167E+03 -0.29879232014E+03  0.36523598322E+03  0.12500000000E+03 0.  0.
         25    1    1    2    0    0 -0.99492866194E+02 -0.14592964077E+03 -0.71107482101E+02  0.22776207869E+03  0.12500000000E+03 0.  0.
         25    1    1    2    0    0  0.11929789073E+03 -0.21710550896E+02  0.76570978763E+02  0.19024050447E+03  0.12500000000E+03 0.  0.
</event>
<event>
 5    0  0.5735425E-005  0.2539734E+03  0.7546771E-02  0.1110819E+00
         21   -1    0    0  502  501  0.00000000000E+00  0.00000000000E+00  0.83718958387E+03  0.83718958387E+03  0.00000000000E+00 0.  1.
         21   -1    0    0  501  502 -0.00000000000E+00 -0.00000000000E+00 -0.77046457840E+02  0.77046457840E+02  0.00000000000E+00 0.  1.
         25    1    1    2    0    0  0.47720619808E+02  0.98367060464E+01  0.75239200217E+02  0.15381793000E+03  0.12500000000E+03 0.  0.
         25    1    1    2    0    0 -0.30100482712E+02 -0.80074407717E+02  0.17998107173E+03  0.23523634076E+03  0.12500000000E+03 0.  0.
         25    1    1    2    0    0 -0.17620137097E+02  0.70237701671E+02  0.50492285408E+03  0.52518177095E+03  0.12500000000E+03 0.  0.
</event>
<event>
 5    0  0.5735425E-005  0.3147090E+03  0.7546771E-02  0.1078110E+00
         21   -1    0    0  502  501  0.00000000000E+00  0.00000000000E+00  0.20008157164E+03  0.20008157164E+03  0.00000000000E+00 0.  1.
         21   -1    0    0  501  502 -0.00000000000E+00 -0.00000000000E+00 -0.49500695798E+03  0.49500695798E+03  0.00000000000E+00 0.  1.
         25    1    1    2    0    0  0.82144655611E+02  0.82831629817E+02  0.22856364575E+02  0.17249996158E+03  0.12500000000E+03 0.  0.
         25    1    1    2    0    0  0.98342076411E+02 -0.80312825728E+02 -0.69756284911E+02  0.19134328641E+03  0.12500000000E+03 0.  0.
         25    1    1    2    0    0 -0.18048673202E+03 -0.25188040888E+01 -0.24802546601E+03  0.33124528162E+03  0.12500000000E+03 0.  0.
</event>
<event>
 5    0  0.5735425E-005  0.3925192E+03  0.7546771E-02  0.1046401E+00
         21   -1    0    0  502  501  0.00000000000E+00  0.00000000000E+00  0.16991233297E+03  0.16991233297E+03  0.00000000000E+00 0.  1.
         21   -1    0    0  501  502 -0.00000000000E+00 -0.00000000000E+00 -0.90676949583E+03  0.90676949583E+03  0.00000000000E+00 0.  1.
         25    1    1    2    0    0  0.57423854255E+02  0.82796564168E+02 -0.69106354260E+03  0.70946923118E+03  0.12500000000E+03 0.  0.
         25    1    1    2    0    0 -0.72888776778E+02  0.38258674978E+01  0.83408175387E+02  0.16706087143E+03  0.12500000000E+03 0.  0.
         25    1    1    2    0    0  0.15464922523E+02 -0.86622431666E+02 -0.12920179565E+03  0.20015172618E+03  0.12500000000E+03 0.  0.
</event>
<event>
 5    0  0.5735425E-005  0.2547516E+03  0.7546771E-02  0.1110338E+00
         21   -1    0    0  502  501  0.00000000000E+00  0.00000000000E+00  0.17642876875E+03  0.17642876875E+03  0.00000000000E+00 0.  1.
         21   -1    0    0  501  502 -0.00000000000E+00 -0.00000000000E+00 -0.36784473638E+03  0.36784473638E+03  0.00000000000E+00 0.  1.
         25    1    1    2    0    0 -0.50768975798E+02 -0.11726793327E+03 -0.18136668220E+03  0.25465296089E+03  0.12500000000E+03 0.  0.
         25    1    1    2    0    0 -0.46337230387E+01  0.66776194056E+02  0.11604479137E+02  0.14226804075E+03  0.12500000000E+03 0.  0.
         25    1    1    2    0    0  0.55402698836E+02  0.50491739213E+02 -0.21653764561E+02  0.14735250350E+03  0.12500000000E+03 0.  0.
</event>
<event>
 5    0  0.5735425E-005  0.2798148E+03  0.7546771E-02  0.1095790E+00
         21   -1    0    0  502  501  0.00000000000E+00  0.00000000000E+00  0.75956514418E+03  0.75956514418E+03  0.00000000000E+00 0.  1.
         21   -1    0    0  501  502 -0.00000000000E+00 -0.00000000000E+00 -0.10308044029E+03  0.10308044029E+03  0.00000000000E+00 0.  1.
         25    1    1    2    0    0 -0.75957811795E+02  0.13507208096E+03  0.17796692454E+03  0.26704172419E+03  0.12500000000E+03 0.  0.
         25    1    1    2    0    0  0.62817788720E+02 -0.17353007442E+03  0.31262204958E+03  0.38394831317E+03  0.12500000000E+03 0.  0.
         25    1    1    2    0    0  0.13140023075E+02  0.38457993464E+02  0.16589572977E+03  0.21165554711E+03  0.12500000000E+03 0.  0.
</event>
<event>
 5    0  0.5735425E-005  0.4037815E+03  0.7546771E-02  0.1042478E+00
         21   -1    0    0  502  501  0.00000000000E+00  0.00000000000E+00  0.29634688388E+04  0.29634688388E+04  0.00000000000E+00 0.  1.
         21   -1    0    0  501  502 -0.00000000000E+00 -0.00000000000E+00 -0.55016445413E+02  0.55016445413E+02  0.00000000000E+00 0.  1.
         25    1    1    2    0    0  0.77902109208E+02 -0.23859435463E+03  0.16625610162E+04  0.16860397793E+04  0.12500000000E+03 0.  0.
         25    1    1    2    0    0 -0.69563339806E+01 -0.54428352400E+02  0.25579416819E+03  0.28994222288E+03  0.12500000000E+03 0.  0.
         25    1    1    2    0    0 -0.70945775228E+02  0.29302270703E+03  0.99009720896E+03  0.10425032820E+04  0.12500000000E+03 0.  0.
</event>
<event>
 5    0  0.5735425E-005  0.2754344E+03  0.7546771E-02  0.1098209E+00
         21   -1    0    0  502  501  0.00000000000E+00  0.00000000000E+00  0.11155147575E+04  0.11155147575E+04  0.00000000000E+00 0. -1.
         21   -1    0    0  501  502 -0.00000000000E+00 -0.00000000000E+00 -0.68008157567E+02  0.68008157567E+02  0.00000000000E+00 0. -1.
         25    1    1    2    0    0  0.13716745888E+03 -0.68684397241E+02  0.32341124116E+03  0.37914679097E+03  0.12500000000E+03 0.  0.
         25    1    1    2    0    0 -0.55164601536E+01 -0.48284382849E+02  0.29138505134E+03  0.32076792406E+03  0.12500000000E+03 0.  0.
         25    1    1    2    0    0 -0.13165099872E+03  0.11696878009E+03  0.43271030745E+03  0.48360820005E+03  0.12500000000E+03 0.  0.
</event>
<event>
 5    0  0.5735425E-005  0.3225891E+03  0.7546771E-02  0.1074464E+00
         21   -1    0    0  502  501  0.00000000000E+00  0.00000000000E+00  0.23305416470E+03  0.23305416470E+03  0.00000000000E+00 0. -1.
         21   -1    0    0  501  502 -0.00000000000E+00 -0.00000000000E+00 -0.44652170406E+03  0.44652170406E+03  0.00000000000E+00 0. -1.
         25    1    1    2    0    0  0.49568263261E+02 -0.75513997520E+02  0.87085393455E+02  0.17711081926E+03  0.12500000000E+03 0.  0.
         25    1    1    2    0    0 -0.69647787799E+02  0.18264836641E+03 -0.13657230240E+03  0.26923639033E+03  0.12500000000E+03 0.  0.
         25    1    1    2    0    0  0.20079524539E+02 -0.10713436889E+03 -0.16398063042E+03  0.23322865917E+03  0.12500000000E+03 0.  0.
</event>
<event>
 5    0  0.5735425E-005  0.2168254E+03  0.7546771E-02  0.1136272E+00
         21   -1    0    0  502  501  0.00000000000E+00  0.00000000000E+00  0.10240404467E+03  0.10240404467E+03  0.00000000000E+00 0.  1.
         21   -1    0    0  501  502 -0.00000000000E+00 -0.00000000000E+00 -0.45909563405E+03  0.45909563405E+03  0.00000000000E+00 0.  1.
         25    1    1    2    0    0  0.43105749789E+02 -0.62092838667E+01 -0.21242893341E+03  0.25029525089E+03  0.12500000000E+03 0.  0.
         25    1    1    2    0    0 -0.64934414967E+02  0.35652262000E+02 -0.70406569486E+02  0.16146097689E+03  0.12500000000E+03 0.  0.
         25    1    1    2    0    0  0.21828665178E+02 -0.29442978134E+02 -0.73856086492E+02  0.14974345093E+03  0.12500000000E+03 0.  0.
</event>
<event>
 5    0  0.5735425E-005  0.3475525E+03  0.7546771E-02  0.1063624E+00
         21   -1    0    0  502  501  0.00000000000E+00  0.00000000000E+00  0.68833004126E+02  0.68833004126E+02  0.00000000000E+00 0.  1.
         21   -1    0    0  501  502 -0.00000000000E+00 -0.00000000000E+00 -0.17548671076E+04  0.17548671076E+04  0.00000000000E+00 0.  1.
         25    1    1    2    0    0 -0.93754924973E+02  0.71952048942E+02 -0.30448697605E+03  0.34972046249E+03  0.12500000000E+03 0.  0.
         25    1    1    2    0    0 -0.34233905328E+02  0.16468618554E+03 -0.45147636352E+03  0.49774431870E+03  0.12500000000E+03 0.  0.
         25    1    1    2    0    0  0.12798883030E+03 -0.23663823449E+03 -0.93007076392E+03  0.97623533054E+03  0.12500000000E+03 0.  0.
</event>
<event>
 5    0  0.5735425E-005  0.5953694E+03  0.7546771E-02  0.9915060E-01
         21   -1    0    0  502  501  0.00000000000E+00  0.00000000000E+00  0.28028821936E+03  0.28028821936E+03  0.00000000000E+00 0. -1.
         21   -1    0    0  501  502 -0.00000000000E+00 -0.00000000000E+00 -0.12646434796E+04  0.12646434796E+04  0.00000000000E+00 0. -1.
         25    1    1    2    0    0 -0.45414293508E+02 -0.29117232867E+03 -0.10055155628E+04  0.10552394657E+04  0.12500000000E+03 0.  0.
         25    1    1    2    0    0  0.19518811951E+02  0.12639970942E+03  0.15941311638E+03  0.23957339634E+03  0.12500000000E+03 0.  0.
         25    1    1    2    0    0  0.25895481558E+02  0.16477261926E+03 -0.13825281379E+03  0.25011883684E+03  0.12500000000E+03 0.  0.
</event>
<event>
 5    0  0.5735425E-005  0.5988179E+03  0.7546771E-02  0.9907862E-01
         21   -1    0    0  502  501  0.00000000000E+00  0.00000000000E+00  0.23207470955E+04  0.23207470955E+04  0.00000000000E+00 0. -1.
         21   -1    0    0  501  502 -0.00000000000E+00 -0.00000000000E+00 -0.15451181342E+03  0.15451181342E+03  0.00000000000E+00 0. -1.
         25    1    1    2    0    0 -0.42440554365E+02  0.23231401981E+03  0.28666754117E+03  0.39188554913E+03  0.12500000000E+03 0.  0.
         25    1    1    2    0    0  0.19670301595E+03  0.26979469851E+03  0.67642538203E+03  0.76462902985E+03  0.12500000000E+03 0.  0.
         25    1    1    2    0    0 -0.15426246158E+03 -0.50210871832E+03  0.12031423589E+04  0.13187443300E+04  0.12500000000E+03 0.  0.
</event>
<event>
 5    0  0.5735425E-005  0.3909858E+03  0.7546771E-02  0.1046946E+00
         21   -1    0    0  502  501  0.00000000000E+00  0.00000000000E+00  0.15402080015E+03  0.15402080015E+03  0.00000000000E+00 0. -1.
         21   -1    0    0  501  502 -0.00000000000E+00 -0.00000000000E+00 -0.99252775367E+03  0.99252775367E+03  0.00000000000E+00 0. -1.
         25    1    1    2    0    0  0.15473710442E+03 -0.67049355605E+02 -0.44094746371E+03  0.48836344389E+03  0.12500000000E+03 0.  0.
         25    1    1    2    0    0  0.10800454600E+03 -0.17066917718E+02 -0.10084860877E+02  0.16638198837E+03  0.12500000000E+03 0.  0.
         25    1    1    2    0    0 -0.26274165042E+03  0.84116273323E+02 -0.38747462893E+03  0.49180312155E+03  0.12500000000E+03 0.  0.
</event>
<event>
 5    0  0.5735425E-005  0.2544182E+03  0.7546771E-02  0.1110544E+00
         21   -1    0    0  502  501  0.00000000000E+00  0.00000000000E+00  0.53202002053E+02  0.53202002053E+02  0.00000000000E+00 0. -1.
         21   -1    0    0  501  502 -0.00000000000E+00 -0.00000000000E+00 -0.12166572281E+04  0.12166572281E+04  0.00000000000E+00 0. -1.
         25    1    1    2    0    0 -0.32491997281E+02 -0.56334739503E+02 -0.70257000050E+03  0.71656049177E+03  0.12500000000E+03 0.  0.
         25    1    1    2    0    0 -0.10522281184E+02 -0.48315879890E+02 -0.16585346905E+03  0.21348891270E+03  0.12500000000E+03 0.  0.
         25    1    1    2    0    0  0.43014278464E+02  0.10465061939E+03 -0.29503175653E+03  0.33980982572E+03  0.12500000000E+03 0.  0.
</event>
<event>
 5    0  0.5735425E-005  0.3663378E+03  0.7546771E-02  0.1056102E+00
         21   -1    0    0  502  501  0.00000000000E+00  0.00000000000E+00  0.13607992155E+04  0.13607992155E+04  0.00000000000E+00 0.  1.
         21   -1    0    0  501  502 -0.00000000000E+00 -0.00000000000E+00 -0.98620994921E+02  0.98620994921E+02  0.00000000000E+00 0.  1.
         25    1    1    2    0    0  0.18914889931E+03 -0.12208234975E+03  0.57203293996E+03  0.62731817336E+03  0.12500000000E+03 0.  0.
         25    1    1    2    0    0 -0.20951706387E+03  0.13459609547E+03  0.25145299761E+03  0.37532268646E+03  0.12500000000E+03 0.  0.
         25    1    1    2    0    0  0.20368164562E+02 -0.12513745721E+02  0.43869228302E+03  0.45677935061E+03  0.12500000000E+03 0.  0.
</event>
<event>
 5    0  0.5735425E-005  0.2831824E+03  0.7546771E-02  0.1093963E+00
         21   -1    0    0  502  501  0.00000000000E+00  0.00000000000E+00  0.14187674592E+03  0.14187674592E+03  0.00000000000E+00 0.  1.
         21   -1    0    0  501  502 -0.00000000000E+00 -0.00000000000E+00 -0.56522486155E+03  0.56522486155E+03  0.00000000000E+00 0.  1.
         25    1    1    2    0    0 -0.28798825439E+02 -0.12711322243E+03 -0.11838508434E+03  0.21593325788E+03  0.12500000000E+03 0.  0.
         25    1    1    2    0    0 -0.56544508819E+02  0.55849511908E+02 -0.28692615995E+03  0.32290566846E+03  0.12500000000E+03 0.  0.
         25    1    1    2    0    0  0.85343334258E+02  0.71263710518E+02 -0.18036871337E+02  0.16826268115E+03  0.12500000000E+03 0.  0.
</event>
<event>
 5    0  0.5735425E-005  0.2903807E+03  0.7546771E-02  0.1090151E+00
         21   -1    0    0  502  501  0.00000000000E+00  0.00000000000E+00  0.43262236861E+03  0.43262236861E+03  0.00000000000E+00 0.  1.
         21   -1    0    0  501  502 -0.00000000000E+00 -0.00000000000E+00 -0.19490659678E+03  0.19490659678E+03  0.00000000000E+00 0.  1.
         25    1    1    2    0    0 -0.43840783285E+02  0.46662658839E+02 -0.99360775920E+02  0.17203773365E+03  0.12500000000E+03 0.  0.
         25    1    1    2    0    0  0.89050465534E+02  0.20043863908E+02  0.20282090583E+03  0.25513341948E+03  0.12500000000E+03 0.  0.
         25    1    1    2    0    0 -0.45209682249E+02 -0.66706522747E+02  0.13425564192E+03  0.20035781226E+03  0.12500000000E+03 0.  0.
</event>
<event>
 5    0  0.6486089E-005  0.2894842E+03  0.7546771E-02  0.1090619E+00
         21   -1    0    0  502  501  0.00000000000E+00  0.00000000000E+00  0.38527959200E+03  0.38527959200E+03  0.00000000000E+00 0. -1.
         21   -1    0    0  501  502 -0.00000000000E+00 -0.00000000000E+00 -0.21750725048E+03  0.21750725048E+03  0.00000000000E+00 0. -1.
         25    1    1    2    0    0 -0.26438960921E+02 -0.58633018465E+02 -0.12104562240E+03  0.18550981702E+03  0.12500000000E+03 0.  0.
         25    1    1    2    0    0  0.21444112667E+02  0.10422155226E+03  0.12592939140E+03  0.20689416024E+03  0.12500000000E+03 0.  0.
         25    1    1    2    0    0  0.49948482545E+01 -0.45588533796E+02  0.16288857252E+03  0.21038286523E+03  0.12500000000E+03 0.  0.
</event>
<event>
 5    0  0.5960047E-005  0.3715650E+03  0.7546771E-02  0.1054096E+00
         21   -1    0    0  502  501  0.00000000000E+00  0.00000000000E+00  0.55849774465E+03  0.55849774465E+03  0.00000000000E+00 0.  1.
         21   -1    0    0  501  502 -0.00000000000E+00 -0.00000000000E+00 -0.24719982372E+03  0.24719982372E+03  0.00000000000E+00 0.  1.
         25    1    1    2    0    0 -0.54408941173E+02 -0.91898927534E+02 -0.86051399049E+02  0.18556828673E+03  0.12500000000E+03 0.  0.
         25    1    1    2    0    0 -0.55097204946E+02  0.20064911608E+03  0.99940737521E+02  0.26250508717E+03  0.12500000000E+03 0.  0.
         25    1    1    2    0    0  0.10950614612E+03 -0.10875018854E+03  0.29740858246E+03  0.35762419446E+03  0.12500000000E+03 0.  0.
</event>
<event>
 5    0  0.5735425E-005  0.3718239E+03  0.7546771E-02  0.1053998E+00
         21   -1    0    0  502  501  0.00000000000E+00  0.00000000000E+00  0.25451060826E+03  0.25451060826E+03  0.00000000000E+00 0.  1.
         21   -1    0    0  501  502 -0.00000000000E+00 -0.00000000000E+00 -0.54321113225E+03  0.54321113225E+03  0.00000000000E+00 0.  1.
         25    1    1    2    0    0  0.11868675765E+03  0.20687312200E+03  0.16196489400E+02  0.26975982154E+03  0.12500000000E+03 0.  0.
         25    1    1    2    0    0  0.51235503445E+02 -0.80085950480E+02 -0.21433303483E+03  0.26571128335E+03  0.12500000000E+03 0.  0.
         25    1    1    2    0    0 -0.16992226109E+03 -0.12678717152E+03 -0.90563978563E+02  0.26225063563E+03  0.12500000000E+03 0.  0.
</event>
<event>
 5    0  0.5735425E-005  0.2251991E+03  0.7546771E-02  0.1130065E+00
         21   -1    0    0  502  501  0.00000000000E+00  0.00000000000E+00  0.43906254525E+02  0.43906254525E+02  0.00000000000E+00 0. -1.
         21   -1    0    0  501  502 -0.00000000000E+00 -0.00000000000E+00 -0.11550665228E+04  0.11550665228E+04  0.00000000000E+00 0. -1.
         25    1    1    2    0    0  0.48646739170E+02  0.20971649208E+02 -0.60178500812E+03  0.61690883548E+03  0.12500000000E+03 0.  0.
         25    1    1    2    0    0 -0.76676618196E+02 -0.39214339563E+02 -0.29170449674E+03  0.32883670967E+03  0.12500000000E+03 0.  0.
         25    1    1    2    0    0  0.28029879026E+02  0.18242690356E+02 -0.21767076343E+03  0.25322723219E+03  0.12500000000E+03 0.  0.
</event>
<event>
 5    0  0.5735425E-005  0.3749753E+03  0.7546771E-02  0.1052807E+00
         21   -1    0    0  502  501  0.00000000000E+00  0.00000000000E+00  0.70292451595E+03  0.70292451595E+03  0.00000000000E+00 0.  1.
         21   -1    0    0  501  502 -0.00000000000E+00 -0.00000000000E+00 -0.20003073055E+03  0.20003073055E+03  0.00000000000E+00 0.  1.
         25    1    1    2    0    0  0.17291430776E+02 -0.16260878932E+03  0.16935622118E+03  0.26654669684E+03  0.12500000000E+03 0.  0.
         25    1    1    2    0    0 -0.19801720014E+03  0.12552459014E+03  0.41277969291E+02  0.26887935032E+03  0.12500000000E+03 0.  0.
         25    1    1    2    0    0  0.18072576936E+03  0.37084199185E+02  0.29225959493E+03  0.36752919934E+03  0.12500000000E+03 0.  0.
</event>
<event>
 5    0  0.5735425E-005  0.4354031E+03  0.7546771E-02  0.1032167E+00
         21   -1    0    0  502  501  0.00000000000E+00  0.00000000000E+00  0.18641714268E+04  0.18641714268E+04  0.00000000000E+00 0.  1.
         21   -1    0    0  501  502 -0.00000000000E+00 -0.00000000000E+00 -0.10169442885E+03  0.10169442885E+03  0.00000000000E+00 0.  1.
         25    1    1    2    0    0 -0.11807240452E+03  0.28745284985E+03  0.81377572016E+03  0.88001486142E+03  0.12500000000E+03 0.  0.
         25    1    1    2    0    0 -0.33274712656E+02 -0.12007371147E+03  0.10904917130E+03  0.20746475472E+03  0.12500000000E+03 0.  0.
         25    1    1    2    0    0  0.15134711717E+03 -0.16737913838E+03  0.83965210649E+03  0.87838623952E+03  0.12500000000E+03 0.  0.
</event>
<event>
 5    0  0.5735425E-005  0.2683606E+03  0.7546771E-02  0.1102222E+00
         21   -1    0    0  502  501  0.00000000000E+00  0.00000000000E+00  0.85317027801E+03  0.85317027801E+03  0.00000000000E+00 0. -1.
         21   -1    0    0  501  502 -0.00000000000E+00 -0.00000000000E+00 -0.84411539835E+02  0.84411539835E+02  0.00000000000E+00 0. -1.
         25    1    1    2    0    0 -0.56718817584E+02 -0.27115184138E+02  0.11156463361E+03  0.17895229797E+03  0.12500000000E+03 0.  0.
         25    1    1    2    0    0  0.14212691168E+03  0.96142448195E+02  0.38299728021E+03  0.43789878513E+03  0.12500000000E+03 0.  0.
         25    1    1    2    0    0 -0.85408094093E+02 -0.69027264057E+02  0.27419682435E+03  0.32073073474E+03  0.12500000000E+03 0.  0.
</event>
<event>
 5    0  0.5735425E-005  0.7704618E+03  0.7546771E-02  0.9603785E-01
         21   -1    0    0  502  501  0.00000000000E+00  0.00000000000E+00  0.38660602045E+03  0.38660602045E+03  0.00000000000E+00 0. -1.
         21   -1    0    0  501  502 -0.00000000000E+00 -0.00000000000E+00 -0.15354424963E+04  0.15354424963E+04  0.00000000000E+00 0. -1.
         25    1    1    2    0    0 -0.37298123715E+03  0.24438871940E+03 -0.76649100618E+03  0.89553018485E+03  0.12500000000E+03 0.  0.
         25    1    1    2    0    0  0.19219963622E+03  0.27183697145E+03 -0.28792793556E+03  0.45756260259E+03  0.12500000000E+03 0.  0.
         25    1    1    2    0    0  0.18078160092E+03 -0.51622569085E+03 -0.94417534074E+02  0.56895572927E+03  0.12500000000E+03 0.  0.
</event>
<event>
 5    0  0.5735425E-005  0.3113206E+03  0.7546771E-02  0.1079715E+00
         21   -1    0    0  502  501  0.00000000000E+00  0.00000000000E+00  0.18013421429E+04  0.18013421429E+04  0.00000000000E+00 0.  1.
         21   -1    0    0  501  502 -0.00000000000E+00 -0.00000000000E+00 -0.53804613214E+02  0.53804613214E+02  0.00000000000E+00 0.  1.
         25    1    1    2    0    0 -0.91272123111E+02  0.21649760183E+02  0.46999117705E+03  0.49529387143E+03  0.12500000000E+03 0.  0.
         25    1    1    2    0    0  0.65938966333E+02  0.15511080092E+03  0.89780048867E+03  0.92199675992E+03  0.12500000000E+03 0.  0.
         25    1    1    2    0    0  0.25333156778E+02 -0.17676056110E+03  0.37974586397E+03  0.43785612477E+03  0.12500000000E+03 0.  0.
</event>
<event>
 5    0  0.5735425E-005  0.4854441E+03  0.7546771E-02  0.1017650E+00
         21   -1    0    0  502  501  0.00000000000E+00  0.00000000000E+00  0.12800023018E+04  0.12800023018E+04  0.00000000000E+00 0.  1.
         21   -1    0    0  501  502 -0.00000000000E+00 -0.00000000000E+00 -0.18410588394E+03  0.18410588394E+03  0.00000000000E+00 0.  1.
         25    1    1    2    0    0 -0.26000933188E+03  0.10782812215E+03  0.83175154125E+02  0.31902172787E+03  0.12500000000E+03 0.  0.
         25    1    1    2    0    0  0.24361965821E+03 -0.23045698346E+03  0.70552008119E+03  0.79110337128E+03  0.12500000000E+03 0.  0.
         25    1    1    2    0    0  0.16389673667E+02  0.12262886131E+03  0.30720118250E+03  0.35398308655E+03  0.12500000000E+03 0.  0.
</event>
<event>
 5    0  0.5735425E-005  0.2824349E+03  0.7546771E-02  0.1094366E+00
         21   -1    0    0  502  501  0.00000000000E+00  0.00000000000E+00  0.12261154945E+04  0.12261154945E+04  0.00000000000E+00 0. -1.
         21   -1    0    0  501  502 -0.00000000000E+00 -0.00000000000E+00 -0.65058706958E+02  0.65058706958E+02  0.00000000000E+00 0. -1.
         25    1    1    2    0    0  0.79496736652E+01 -0.24158644987E+02  0.28991378303E+03  0.31673622942E+03  0.12500000000E+03 0.  0.
         25    1    1    2    0    0 -0.40637232098E+02 -0.15427964846E+03  0.29780523526E+03  0.36023124893E+03  0.12500000000E+03 0.  0.
         25    1    1    2    0    0  0.32687558433E+02  0.17843829345E+03  0.57333776921E+03  0.61420672306E+03  0.12500000000E+03 0.  0.
</event>
<event>
 5    0  0.5735425E-005  0.9146569E+03  0.7546771E-02  0.9407443E-01
         21   -1    0    0  502  501  0.00000000000E+00  0.00000000000E+00  0.44678243170E+03  0.44678243170E+03  0.00000000000E+00 0.  1.
         21   -1    0    0  501  502 -0.00000000000E+00 -0.00000000000E+00 -0.18724934149E+04  0.18724934149E+04  0.00000000000E+00 0.  1.
         25    1    1    2    0    0 -0.60369049105E+03 -0.23387254585E+03 -0.14014448162E+04  0.15488095911E+04  0.12500000000E+03 0.  0.
         25    1    1    2    0    0  0.24743000332E+03  0.27456500063E+03 -0.20490224961E+02  0.39070755743E+03  0.12500000000E+03 0.  0.
         25    1    1    2    0    0  0.35626048773E+03 -0.40692454782E+02 -0.37759420235E+01  0.37975869803E+03  0.12500000000E+03 0.  0.
</event>
<event>
 5    0  0.5735425E-005  0.2744623E+03  0.7546771E-02  0.1098753E+00
         21   -1    0    0  502  501  0.00000000000E+00  0.00000000000E+00  0.12577493597E+03  0.12577493597E+03  0.00000000000E+00 0.  1.
         21   -1    0    0  501  502 -0.00000000000E+00 -0.00000000000E+00 -0.59892325894E+03  0.59892325894E+03  0.00000000000E+00 0.  1.
         25    1    1    2    0    0  0.44418402346E+02 -0.41077698011E+02 -0.98269906573E+01  0.13921904139E+03  0.12500000000E+03 0.  0.
         25    1    1    2    0    0 -0.32312884990E+02 -0.23619887818E+02 -0.37009329085E+02  0.13636976232E+03  0.12500000000E+03 0.  0.
         25    1    1    2    0    0 -0.12105517356E+02  0.64697585829E+02 -0.42631200323E+03  0.44910939120E+03  0.12500000000E+03 0.  0.
</event>
<event>
 5    0  0.5735425E-005  0.4754272E+03  0.7546771E-02  0.1020400E+00
         21   -1    0    0  502  501  0.00000000000E+00  0.00000000000E+00  0.23713591844E+03  0.23713591844E+03  0.00000000000E+00 0. -1.
         21   -1    0    0  501  502 -0.00000000000E+00 -0.00000000000E+00 -0.95317066666E+03  0.95317066666E+03  0.00000000000E+00 0.  1.
         25    1    1    2    0    0  0.21063612029E+02  0.15070726553E+03 -0.47904917186E+03  0.51794735707E+03  0.12500000000E+03 0.  0.
         25    1    1    2    0    0  0.19303246316E+03  0.58966977363E+02  0.45798310408E+02  0.24178734766E+03  0.12500000000E+03 0.  0.
         25    1    1    2    0    0 -0.21409607519E+03 -0.20967424289E+03 -0.28278388677E+03  0.43057188037E+03  0.12500000000E+03 0.  0.
</event>
<event>
 5    0  0.5735425E-005  0.3158480E+03  0.7546771E-02  0.1077576E+00
         21   -1    0    0  502  501  0.00000000000E+00  0.00000000000E+00  0.15779245621E+03  0.15779245621E+03  0.00000000000E+00 0. -1.
         21   -1    0    0  501  502 -0.00000000000E+00 -0.00000000000E+00 -0.63222258851E+03  0.63222258851E+03  0.00000000000E+00 0. -1.
         25    1    1    2    0    0  0.10610078065E+03 -0.83645899752E+01 -0.16851994448E+03  0.23526859907E+03  0.12500000000E+03 0.  0.
         25    1    1    2    0    0 -0.14936749705E+02  0.16980459684E+03 -0.24380004711E+03  0.32267657270E+03  0.12500000000E+03 0.  0.
         25    1    1    2    0    0 -0.91164030944E+02 -0.16144000686E+03 -0.62110140700E+02  0.23206987295E+03  0.12500000000E+03 0.  0.
</event>
<event>
 5    0  0.5735425E-005  0.4277737E+03  0.7546771E-02  0.1034566E+00
         21   -1    0    0  502  501  0.00000000000E+00  0.00000000000E+00  0.13485035871E+04  0.13485035871E+04  0.00000000000E+00 0. -1.
         21   -1    0    0  501  502 -0.00000000000E+00 -0.00000000000E+00 -0.13569881877E+03  0.13569881877E+03  0.00000000000E+00 0. -1.
         25    1    1    2    0    0  0.94990496325E+02  0.27128416980E+03  0.20336974218E+03  0.37363424256E+03  0.12500000000E+03 0.  0.
         25    1    1    2    0    0 -0.16269183870E+03 -0.17180302454E+03  0.43708859567E+03  0.51250010155E+03  0.12500000000E+03 0.  0.
         25    1    1    2    0    0  0.67701342372E+02 -0.99481145263E+02  0.57234643048E+03  0.59806806176E+03  0.12500000000E+03 0.  0.
</event>
<event>
 5    0  0.5735425E-005  0.2971366E+03  0.7546771E-02  0.1086681E+00
         21   -1    0    0  502  501  0.00000000000E+00  0.00000000000E+00  0.29836483578E+03  0.29836483578E+03  0.00000000000E+00 0. -1.
         21   -1    0    0  501  502 -0.00000000000E+00 -0.00000000000E+00 -0.29591337340E+03  0.29591337340E+03  0.00000000000E+00 0. -1.
         25    1    1    2    0    0  0.38706416206E+02 -0.15170069807E+03 -0.12894594020E+03  0.23825059065E+03  0.12500000000E+03 0.  0.
         25    1    1    2    0    0 -0.45559013810E+02 -0.66962765395E+00  0.42079667025E+02  0.13954128607E+03  0.12500000000E+03 0.  0.
         25    1    1    2    0    0  0.68525976046E+01  0.15237032573E+03  0.89317735552E+02  0.21648633246E+03  0.12500000000E+03 0.  0.
</event>
<event>
 5    0  0.5735425E-005  0.3844397E+03  0.7546771E-02  0.1049305E+00
         21   -1    0    0  502  501  0.00000000000E+00  0.00000000000E+00  0.28367676033E+03  0.28367676033E+03  0.00000000000E+00 0. -1.
         21   -1    0    0  501  502 -0.00000000000E+00 -0.00000000000E+00 -0.52099392290E+03  0.52099392290E+03  0.00000000000E+00 0. -1.
         25    1    1    2    0    0  0.25854468521E+03 -0.17773717193E+03 -0.21167542415E+03  0.39858166255E+03  0.12500000000E+03 0.  0.
         25    1    1    2    0    0 -0.91299536152E+02  0.63895312032E+02 -0.98639090190E+01  0.16775134248E+03  0.12500000000E+03 0.  0.
         25    1    1    2    0    0 -0.16724514906E+03  0.11384185990E+03 -0.15777829412E+02  0.23833767820E+03  0.12500000000E+03 0.  0.
</event>
<event>
 5    0  0.5735425E-005  0.2188276E+03  0.7546771E-02  0.1134760E+00
         21   -1    0    0  502  501  0.00000000000E+00  0.00000000000E+00  0.12504566952E+03  0.12504566952E+03  0.00000000000E+00 0. -1.
         21   -1    0    0  501  502 -0.00000000000E+00 -0.00000000000E+00 -0.38294418587E+03  0.38294418587E+03  0.00000000000E+00 0. -1.
         25    1    1    2    0    0  0.60065156610E+02  0.54872345690E+02 -0.15567244645E+03  0.21558689186E+03  0.12500000000E+03 0.  0.
         25    1    1    2    0    0 -0.28352241915E+01 -0.45362262421E+02 -0.72289156010E+02  0.15138195211E+03  0.12500000000E+03 0.  0.
         25    1    1    2    0    0 -0.57229932418E+02 -0.95100832684E+01 -0.29936913895E+02  0.14102101142E+03  0.12500000000E+03 0.  0.
</event>
<event>
 5    0  0.5735425E-005  0.5624606E+03  0.7546771E-02  0.9986502E-01
         21   -1    0    0  502  501  0.00000000000E+00  0.00000000000E+00  0.23014590360E+04  0.23014590360E+04  0.00000000000E+00 0. -1.
         21   -1    0    0  501  502 -0.00000000000E+00 -0.00000000000E+00 -0.13746147891E+03  0.13746147891E+03  0.00000000000E+00 0. -1.
         25    1    1    2    0    0  0.19312371509E+03 -0.60461029522E+02  0.27798928890E+03  0.36586247439E+03  0.12500000000E+03 0.  0.
         25    1    1    2    0    0  0.12522651332E+03  0.25751417460E+03  0.28096551521E+03  0.42019263499E+03  0.12500000000E+03 0.  0.
         25    1    1    2    0    0 -0.31835022841E+03 -0.19705314508E+03  0.16050427530E+04  0.16528654055E+04  0.12500000000E+03 0.  0.
</event>
<event>
 5    0  0.5735425E-005  0.3054267E+03  0.7546771E-02  0.1082559E+00
         21   -1    0    0  502  501  0.00000000000E+00  0.00000000000E+00  0.16367902904E+03  0.16367902904E+03  0.00000000000E+00 0. -1.
         21   -1    0    0  501  502 -0.00000000000E+00 -0.00000000000E+00 -0.56992924154E+03  0.56992924154E+03  0.00000000000E+00 0. -1.
         25    1    1    2    0    0 -0.56202518039E+02  0.66815568031E+01 -0.26337967989E+03  0.29698017108E+03  0.12500000000E+03 0.  0.
         25    1    1    2    0    0  0.73143616805E+01  0.14845155368E+02  0.98236254610E+02  0.15984129706E+03  0.12500000000E+03 0.  0.
         25    1    1    2    0    0  0.48888156359E+02 -0.21526712171E+02 -0.24110678722E+03  0.27678680245E+03  0.12500000000E+03 0.  0.
</event>
<event>
 5    0  0.5735425E-005  0.3498090E+03  0.7546771E-02  0.1062693E+00
         21   -1    0    0  502  501  0.00000000000E+00  0.00000000000E+00  0.76954824431E+03  0.76954824431E+03  0.00000000000E+00 0. -1.
         21   -1    0    0  501  502 -0.00000000000E+00 -0.00000000000E+00 -0.15901065313E+03  0.15901065313E+03  0.00000000000E+00 0. -1.
         25    1    1    2    0    0  0.63215847801E+02 -0.24027886867E+02  0.28124670360E+03  0.31511631352E+03  0.12500000000E+03 0.  0.
         25    1    1    2    0    0 -0.22994854700E+03  0.14875250502E+02  0.30695475995E+03  0.40366301787E+03  0.12500000000E+03 0.  0.
         25    1    1    2    0    0  0.16673269920E+03  0.91526363649E+01  0.22336127639E+02  0.20977956605E+03  0.12500000000E+03 0.  0.
</event>
<event>
 5    0  0.5735425E-005  0.2627854E+03  0.7546771E-02  0.1105481E+00
         21   -1    0    0  502  501  0.00000000000E+00  0.00000000000E+00  0.75280493899E+03  0.75280493899E+03  0.00000000000E+00 0. -1.
         21   -1    0    0  501  502 -0.00000000000E+00 -0.00000000000E+00 -0.91731843010E+02  0.91731843010E+02  0.00000000000E+00 0. -1.
         25    1    1    2    0    0 -0.46755728795E+02  0.26400898132E+02  0.24070466227E+03  0.27649021689E+03  0.12500000000E+03 0.  0.
         25    1    1    2    0    0  0.92253875264E+02  0.99062103022E+02  0.13225232326E+03  0.22680333940E+03  0.12500000000E+03 0.  0.
         25    1    1    2    0    0 -0.45498146469E+02 -0.12546300115E+03  0.28811611045E+03  0.34124322571E+03  0.12500000000E+03 0.  0.
</event>
<event>
 5    0  0.5735425E-005  0.3385789E+03  0.7546771E-02  0.1067403E+00
         21   -1    0    0  502  501  0.00000000000E+00  0.00000000000E+00  0.13320680310E+03  0.13320680310E+03  0.00000000000E+00 0.  1.
         21   -1    0    0  501  502 -0.00000000000E+00 -0.00000000000E+00 -0.86058430348E+03  0.86058430348E+03  0.00000000000E+00 0.  1.
         25    1    1    2    0    0 -0.60716125240E+01 -0.88583268225E+02 -0.96102021463E+00  0.15332900394E+03  0.12500000000E+03 0.  0.
         25    1    1    2    0    0 -0.20562204039E+02  0.76262694656E+02 -0.56402597152E+02  0.15825629781E+03  0.12500000000E+03 0.  0.
         25    1    1    2    0    0  0.26633816563E+02  0.12320573569E+02 -0.67001388301E+03  0.68220580483E+03  0.12500000000E+03 0.  0.
</event>
<event>
 5    0  0.5735425E-005  0.4701182E+03  0.7546771E-02  0.1021887E+00
         21   -1    0    0  502  501  0.00000000000E+00  0.00000000000E+00  0.69186866368E+03  0.69186866368E+03  0.00000000000E+00 0. -1.
         21   -1    0    0  501  502 -0.00000000000E+00 -0.00000000000E+00 -0.31944089699E+03  0.31944089699E+03  0.00000000000E+00 0. -1.
         25    1    1    2    0    0 -0.13164821715E+03 -0.14194422360E+03 -0.39564644680E+01  0.23047791500E+03  0.12500000000E+03 0.  0.
         25    1    1    2    0    0 -0.17285327174E+02  0.41461534236E+02  0.50824306886E+03  0.52531310511E+03  0.12500000000E+03 0.  0.
         25    1    1    2    0    0  0.14893354433E+03  0.10048268937E+03 -0.13185883770E+03  0.25551854056E+03  0.12500000000E+03 0.  0.
</event>
<event>
 5    0  0.5735425E-005  0.4475634E+03  0.7546771E-02  0.1028451E+00
         21   -1    0    0  502  501  0.00000000000E+00  0.00000000000E+00  0.48826590334E+03  0.48826590334E+03  0.00000000000E+00 0.  1.
         21   -1    0    0  501  502 -0.00000000000E+00 -0.00000000000E+00 -0.41025383846E+03  0.41025383846E+03  0.00000000000E+00 0.  1.
         25    1    1    2    0    0  0.72663594929E+02  0.75994168730E+02 -0.56997571785E+02  0.17299952283E+03  0.12500000000E+03 0.  0.
         25    1    1    2    0    0 -0.29856860455E+03 -0.23728247916E+03  0.26028026587E+02  0.40217986611E+03  0.12500000000E+03 0.  0.
         25    1    1    2    0    0  0.22590500962E+03  0.16128831043E+03  0.10898161008E+03  0.32334035286E+03  0.12500000000E+03 0.  0.
</event>
<event>
 5    0  0.5735425E-005  0.2578065E+03  0.7546771E-02  0.1108468E+00
         21   -1    0    0  502  501  0.00000000000E+00  0.00000000000E+00  0.17180904023E+03  0.17180904023E+03  0.00000000000E+00 0. -1.
         21   -1    0    0  501  502 -0.00000000000E+00 -0.00000000000E+00 -0.38684924546E+03  0.38684924546E+03  0.00000000000E+00 0. -1.
         25    1    1    2    0    0  0.11163655650E+03 -0.58354134157E+02 -0.99582411742E+02  0.20349344571E+03  0.12500000000E+03 0.  0.
         25    1    1    2    0    0 -0.67189160801E+02  0.90223933685E+02  0.11811976508E+02  0.16858014215E+03  0.12500000000E+03 0.  0.
         25    1    1    2    0    0 -0.44447395699E+02 -0.31869799528E+02 -0.12726977000E+03  0.18658469783E+03  0.12500000000E+03 0.  0.
</event>
<event>
 5    0  0.5735425E-005  0.3610443E+03  0.7546771E-02  0.1058171E+00
         21   -1    0    0  502  501  0.00000000000E+00  0.00000000000E+00  0.63979693878E+02  0.63979693878E+02  0.00000000000E+00 0. -1.
         21   -1    0    0  501  502 -0.00000000000E+00 -0.00000000000E+00 -0.20374116194E+04  0.20374116194E+04  0.00000000000E+00 0. -1.
         25    1    1    2    0    0 -0.23293099818E+03 -0.96900534384E+02 -0.78781938224E+03  0.83661875577E+03  0.12500000000E+03 0.  0.
         25    1    1    2    0    0  0.21690092604E+02 -0.68671650348E+02 -0.37686862621E+03  0.40353589320E+03  0.12500000000E+03 0.  0.
         25    1    1    2    0    0  0.21124090558E+03  0.16557218473E+03 -0.80874391709E+03  0.86123666433E+03  0.12500000000E+03 0.  0.
</event>
<event>
 5    0  0.5735425E-005  0.5980785E+03  0.7546771E-02  0.9909401E-01
         21   -1    0    0  502  501  0.00000000000E+00  0.00000000000E+00  0.30184803575E+03  0.30184803575E+03  0.00000000000E+00 0.  1.
         21   -1    0    0  501  502 -0.00000000000E+00 -0.00000000000E+00 -0.11850263515E+04  0.11850263515E+04  0.00000000000E+00 0.  1.
         25    1    1    2    0    0  0.29136071308E+03 -0.40590383498E+03 -0.64216125075E+03  0.82319199483E+03  0.12500000000E+03 0.  0.
         25    1    1    2    0    0 -0.92312334099E+02  0.89391118435E+01 -0.80425472734E+02  0.17519911932E+03  0.12500000000E+03 0.  0.
         25    1    1    2    0    0 -0.19904837898E+03  0.39696472314E+03 -0.16059159227E+03  0.48848327310E+03  0.12500000000E+03 0.  0.
</event>
<event>
 5    0  0.5735425E-005  0.3573476E+03  0.7546771E-02  0.1059639E+00
         21   -1    0    0  502  501  0.00000000000E+00  0.00000000000E+00  0.55238230507E+03  0.55238230507E+03  0.00000000000E+00 0. -1.
         21   -1    0    0  501  502 -0.00000000000E+00 -0.00000000000E+00 -0.23117559764E+03  0.23117559764E+03  0.00000000000E+00 0. -1.
         25    1    1    2    0    0  0.21611835915E+03 -0.75995499633E+02  0.82371599039E+02  0.27366501686E+03  0.12500000000E+03 0.  0.
         25    1    1    2    0    0 -0.27154067033E+03  0.78635721165E+02  0.19833999102E+03  0.36726239165E+03  0.12500000000E+03 0.  0.
         25    1    1    2    0    0  0.55422311177E+02 -0.26402215314E+01  0.40495117375E+02  0.14263049421E+03  0.12500000000E+03 0.  0.
</event>
<event>
 5    0  0.5735425E-005  0.7453813E+03  0.7546771E-02  0.9642624E-01
         21   -1    0    0  502  501  0.00000000000E+00  0.00000000000E+00  0.78844262593E+03  0.78844262593E+03  0.00000000000E+00 0. -1.
         21   -1    0    0  501  502 -0.00000000000E+00 -0.00000000000E+00 -0.70467172321E+03  0.70467172321E+03  0.00000000000E+00 0. -1.
         25    1    1    2    0    0 -0.37160401130E+03 -0.39326322664E+03  0.34829328188E+02  0.55640236228E+03  0.12500000000E+03 0.  0.
         25    1    1    2    0    0 -0.59133483633E+02 -0.10575189800E+03 -0.15745932666E+03  0.23473106392E+03  0.12500000000E+03 0.  0.
         25    1    1    2    0    0  0.43073749494E+03  0.49901512464E+03  0.20640090120E+03  0.70198092294E+03  0.12500000000E+03 0.  0.
</event>
<event>
 5    0  0.5746397E-005  0.5046316E+03  0.7546771E-02  0.1012577E+00
         21   -1    0    0  502  501  0.00000000000E+00  0.00000000000E+00  0.21164804442E+03  0.21164804442E+03  0.00000000000E+00 0. -1.
         21   -1    0    0  501  502 -0.00000000000E+00 -0.00000000000E+00 -0.12031910415E+04  0.12031910415E+04  0.00000000000E+00 0. -1.
         25    1    1    2    0    0  0.95190159160E+02  0.49092382982E+02 -0.84439353149E+03  0.86028870996E+03  0.12500000000E+03 0.  0.
         25    1    1    2    0    0  0.55281504064E+02  0.18410834678E+03 -0.46554597839E+02  0.23397491025E+03  0.12500000000E+03 0.  0.
         25    1    1    2    0    0 -0.15047166322E+03 -0.23320072976E+03 -0.10059486775E+03  0.32057546570E+03  0.12500000000E+03 0.  0.
</event>
<event>
 5    0  0.5735425E-005  0.3330565E+03  0.7546771E-02  0.1069792E+00
         21   -1    0    0  502  501  0.00000000000E+00  0.00000000000E+00  0.20329879005E+04  0.20329879005E+04  0.00000000000E+00 0. -1.
         21   -1    0    0  501  502 -0.00000000000E+00 -0.00000000000E+00 -0.54563343044E+02  0.54563343044E+02  0.00000000000E+00 0. -1.
         25    1    1    2    0    0  0.14841242978E+03  0.19673100126E+03  0.10638368028E+04  0.10991374250E+04  0.12500000000E+03 0.  0.
         25    1    1    2    0    0 -0.13518257185E+03 -0.14220435346E+03  0.49328750208E+03  0.54539340442E+03  0.12500000000E+03 0.  0.
         25    1    1    2    0    0 -0.13229857929E+02 -0.54526647797E+02  0.42130025258E+03  0.44302041407E+03  0.12500000000E+03 0.  0.
</event>
<event>
 5    0  0.5735425E-005  0.3809632E+03  0.7546771E-02  0.1050578E+00
         21   -1    0    0  502  501  0.00000000000E+00  0.00000000000E+00  0.42705857427E+03  0.42705857427E+03  0.00000000000E+00 0.  1.
         21   -1    0    0  501  502 -0.00000000000E+00 -0.00000000000E+00 -0.33984319771E+03  0.33984319771E+03  0.00000000000E+00 0.  1.
         25    1    1    2    0    0  0.44282811609E+02 -0.19400903341E+02  0.87005638789E+02  0.15978843399E+03  0.12500000000E+03 0.  0.
         25    1    1    2    0    0  0.21742387657E+03  0.14003668560E+03  0.41758009245E+02  0.29026220345E+03  0.12500000000E+03 0.  0.
         25    1    1    2    0    0 -0.26170668818E+03 -0.12063578225E+03 -0.41548271472E+02  0.31685113454E+03  0.12500000000E+03 0.  0.
</event>
<event>
 5    0  0.5735425E-005  0.2846927E+03  0.7546771E-02  0.1093153E+00
         21   -1    0    0  502  501  0.00000000000E+00  0.00000000000E+00  0.36578736518E+02  0.36578736518E+02  0.00000000000E+00 0.  1.
         21   -1    0    0  501  502 -0.00000000000E+00 -0.00000000000E+00 -0.22157660147E+04  0.22157660147E+04  0.00000000000E+00 0.  1.
         25    1    1    2    0    0  0.57496288953E+02 -0.49247282280E+02 -0.16720912216E+03  0.22206982818E+03  0.12500000000E+03 0.  0.
         25    1    1    2    0    0 -0.62480127052E+02  0.36708515373E+02 -0.11894389478E+04  0.11981824953E+04  0.12500000000E+03 0.  0.
         25    1    1    2    0    0  0.49838380990E+01  0.12538766907E+02 -0.82253920819E+03  0.83209242776E+03  0.12500000000E+03 0.  0.
</event>
<event>
 5    0  0.5735425E-005  0.3283770E+03  0.7546771E-02  0.1071857E+00
         21   -1    0    0  502  501  0.00000000000E+00  0.00000000000E+00  0.34181484512E+03  0.34181484512E+03  0.00000000000E+00 0. -1.
         21   -1    0    0  501  502 -0.00000000000E+00 -0.00000000000E+00 -0.31546742879E+03  0.31546742879E+03  0.00000000000E+00 0. -1.
         25    1    1    2    0    0  0.15575558322E+03 -0.58385735304E+02  0.28365730965E+02  0.20999597730E+03  0.12500000000E+03 0.  0.
         25    1    1    2    0    0 -0.20925438523E+03  0.10839495381E+03  0.82917539507E+02  0.27935135959E+03  0.12500000000E+03 0.  0.
         25    1    1    2    0    0  0.53498802008E+02 -0.50009218502E+02 -0.84935854143E+02  0.16793493702E+03  0.12500000000E+03 0.  0.
</event>
<event>
 5    0  0.5735425E-005  0.2540714E+03  0.7546771E-02  0.1110759E+00
         21   -1    0    0  502  501  0.00000000000E+00  0.00000000000E+00  0.78556962505E+02  0.78556962505E+02  0.00000000000E+00 0. -1.
         21   -1    0    0  501  502 -0.00000000000E+00 -0.00000000000E+00 -0.82172539366E+03  0.82172539366E+03  0.00000000000E+00 0. -1.
         25    1    1    2    0    0 -0.58783933454E+02  0.99372910995E+01 -0.59755342943E+02  0.15083103658E+03  0.12500000000E+03 0.  0.
         25    1    1    2    0    0  0.23828591978E+02  0.77922493762E+02 -0.37226175087E+03  0.40105302391E+03  0.12500000000E+03 0.  0.
         25    1    1    2    0    0  0.34955341476E+02 -0.87859784861E+02 -0.31115133734E+03  0.34839829566E+03  0.12500000000E+03 0.  0.
</event>
<event>
 5    0  0.5735425E-005  0.2249938E+03  0.7546771E-02  0.1130214E+00
         21   -1    0    0  502  501  0.00000000000E+00  0.00000000000E+00  0.74422130169E+02  0.74422130169E+02  0.00000000000E+00 0. -1.
         21   -1    0    0  501  502 -0.00000000000E+00 -0.00000000000E+00 -0.68020370774E+03  0.68020370774E+03  0.00000000000E+00 0. -1.
         25    1    1    2    0    0  0.23885107714E+02 -0.35413864566E+02 -0.18494820190E+03  0.22727841419E+03  0.12500000000E+03 0.  0.
         25    1    1    2    0    0 -0.35083612583E+02 -0.31515372191E+02 -0.74552082698E+02  0.15299376324E+03  0.12500000000E+03 0.  0.
         25    1    1    2    0    0  0.11198504869E+02  0.66929236757E+02 -0.34628129298E+03  0.37435366048E+03  0.12500000000E+03 0.  0.
</event>
<event>
 5    0  0.5735425E-005  0.2395354E+03  0.7546771E-02  0.1120103E+00
         21   -1    0    0  502  501  0.00000000000E+00  0.00000000000E+00  0.91065896059E+02  0.91065896059E+02  0.00000000000E+00 0.  1.
         21   -1    0    0  501  502 -0.00000000000E+00 -0.00000000000E+00 -0.63006272952E+03  0.63006272952E+03  0.00000000000E+00 0.  1.
         25    1    1    2    0    0  0.38863270672E+02 -0.99223606694E+02 -0.11372844085E+03  0.19978697703E+03  0.12500000000E+03 0.  0.
         25    1    1    2    0    0 -0.49100549704E+02  0.39641495214E+02 -0.11419985611E+03  0.18069011943E+03  0.12500000000E+03 0.  0.
         25    1    1    2    0    0  0.10237279031E+02  0.59582111480E+02 -0.31106853649E+03  0.34065152911E+03  0.12500000000E+03 0.  0.
</event>
<event>
 5    0  0.5735425E-005  0.3162462E+03  0.7546771E-02  0.1077390E+00
         21   -1    0    0  502  501  0.00000000000E+00  0.00000000000E+00  0.98658022287E+02  0.98658022287E+02  0.00000000000E+00 0.  1.
         21   -1    0    0  501  502 -0.00000000000E+00 -0.00000000000E+00 -0.10137207520E+04  0.10137207520E+04  0.00000000000E+00 0.  1.
         25    1    1    2    0    0 -0.51772994965E+02  0.82632079932E+02 -0.80119842185E+02  0.17763077648E+03  0.12500000000E+03 0.  0.
         25    1    1    2    0    0 -0.68945047561E+02  0.27852933497E+02 -0.62099206315E+03  0.63779726245E+03  0.12500000000E+03 0.  0.
         25    1    1    2    0    0  0.12071804253E+03 -0.11048501343E+03 -0.21395082441E+03  0.29695073539E+03  0.12500000000E+03 0.  0.
</event>
<event>
 5    0  0.5735425E-005  0.4516177E+03  0.7546771E-02  0.1027241E+00
         21   -1    0    0  502  501  0.00000000000E+00  0.00000000000E+00  0.56138273473E+03  0.56138273473E+03  0.00000000000E+00 0. -1.
         21   -1    0    0  501  502 -0.00000000000E+00 -0.00000000000E+00 -0.36331457272E+03  0.36331457272E+03  0.00000000000E+00 0.  1.
         25    1    1    2    0    0  0.14085788515E+02 -0.14147103020E+02  0.25844318224E+03  0.28777843631E+03  0.12500000000E+03 0.  0.
         25    1    1    2    0    0  0.21465119261E+03 -0.33486172940E+02 -0.21491482836E+03  0.33016638490E+03  0.12500000000E+03 0.  0.
         25    1    1    2    0    0 -0.22873698113E+03  0.47633275961E+02  0.15453980814E+03  0.30675248624E+03  0.12500000000E+03 0.  0.
</event>
<event>
 5    0  0.5735425E-005  0.2347510E+03  0.7546771E-02  0.1123340E+00
         21   -1    0    0  502  501  0.00000000000E+00  0.00000000000E+00  0.94284023491E+03  0.94284023491E+03  0.00000000000E+00 0.  1.
         21   -1    0    0  501  502 -0.00000000000E+00 -0.00000000000E+00 -0.58448938341E+02  0.58448938341E+02  0.00000000000E+00 0.  1.
         25    1    1    2    0    0  0.19989895486E+02  0.53279675547E+02  0.56550475308E+03  0.58194410858E+03  0.12500000000E+03 0.  0.
         25    1    1    2    0    0 -0.83610424625E+01 -0.37473789839E+02  0.93096151176E+02  0.16051817754E+03  0.12500000000E+03 0.  0.
         25    1    1    2    0    0 -0.11628853024E+02 -0.15805885708E+02  0.22579039232E+03  0.25882688714E+03  0.12500000000E+03 0.  0.
</event>
<event>
 5    0  0.5735425E-005  0.2909715E+03  0.7546771E-02  0.1089843E+00
         21   -1    0    0  502  501  0.00000000000E+00  0.00000000000E+00  0.12163328521E+03  0.12163328521E+03  0.00000000000E+00 0.  1.
         21   -1    0    0  501  502 -0.00000000000E+00 -0.00000000000E+00 -0.69606263765E+03  0.69606263765E+03  0.00000000000E+00 0.  1.
         25    1    1    2    0    0 -0.90534883626E+01 -0.77596138551E+02 -0.17301204904E+03  0.22729121295E+03  0.12500000000E+03 0.  0.
         25    1    1    2    0    0 -0.78186960193E+02  0.18855217091E+03 -0.17933349647E+03  0.29908297320E+03  0.12500000000E+03 0.  0.
         25    1    1    2    0    0  0.87240448555E+02 -0.11095603236E+03 -0.22208380693E+03  0.29132173672E+03  0.12500000000E+03 0.  0.
</event>
<event>
 5    0  0.8055072E-005  0.2634309E+03  0.7546771E-02  0.1105099E+00
         21   -1    0    0  502  501  0.00000000000E+00  0.00000000000E+00  0.45247592194E+03  0.45247592194E+03  0.00000000000E+00 0.  1.
         21   -1    0    0  501  502 -0.00000000000E+00 -0.00000000000E+00 -0.15336909069E+03  0.15336909069E+03  0.00000000000E+00 0.  1.
         25    1    1    2    0    0 -0.57751046222E+02 -0.81091108153E+02  0.98767928682E+02  0.18785913578E+03  0.12500000000E+03 0.  0.
         25    1    1    2    0    0  0.46317380530E+02 -0.77502928905E+02  0.38452139119E+02  0.15892001363E+03  0.12500000000E+03 0.  0.
         25    1    1    2    0    0  0.11433665692E+02  0.15859403706E+03  0.16188676345E+03  0.25906586321E+03  0.12500000000E+03 0.  0.
</event>
<event>
 5    0  0.5735425E-005  0.6641287E+03  0.7546771E-02  0.9780623E-01
         21   -1    0    0  502  501  0.00000000000E+00  0.00000000000E+00  0.25366345709E+03  0.25366345709E+03  0.00000000000E+00 0.  1.
         21   -1    0    0  501  502 -0.00000000000E+00 -0.00000000000E+00 -0.17387879111E+04  0.17387879111E+04  0.00000000000E+00 0.  1.
         25    1    1    2    0    0  0.10263598052E+03  0.31639519351E+03  0.65797241271E+02  0.36137838885E+03  0.12500000000E+03 0.  0.
         25    1    1    2    0    0 -0.55244589476E+02 -0.49003737343E+01 -0.23214189000E+03  0.26942686470E+03  0.12500000000E+03 0.  0.
         25    1    1    2    0    0 -0.47391391042E+02 -0.31149481977E+03 -0.13187798052E+04  0.13616461146E+04  0.12500000000E+03 0.  0.
</event>
<event>
 5    0  0.5735425E-005  0.4312478E+03  0.7546771E-02  0.1033467E+00
         21   -1    0    0  502  501  0.00000000000E+00  0.00000000000E+00  0.33643810223E+03  0.33643810223E+03  0.00000000000E+00 0. -1.
         21   -1    0    0  501  502 -0.00000000000E+00 -0.00000000000E+00 -0.55277522408E+03  0.55277522408E+03  0.00000000000E+00 0. -1.
         25    1    1    2    0    0  0.44948503843E+02  0.19486767330E+03  0.21947885907E+02  0.23685541538E+03  0.12500000000E+03 0.  0.
         25    1    1    2    0    0 -0.17012465361E+03 -0.23338003167E+03  0.43230638421E+02  0.31765157807E+03  0.12500000000E+03 0.  0.
         25    1    1    2    0    0  0.12517614977E+03  0.38512358370E+02 -0.28151564618E+03  0.33470633287E+03  0.12500000000E+03 0.  0.
</event>
<event>
 5    0  0.5735425E-005  0.2382037E+03  0.7546771E-02  0.1120995E+00
         21   -1    0    0  502  501  0.00000000000E+00  0.00000000000E+00  0.20195090464E+03  0.20195090464E+03  0.00000000000E+00 0. -1.
         21   -1    0    0  501  502 -0.00000000000E+00 -0.00000000000E+00 -0.28096433707E+03  0.28096433707E+03  0.00000000000E+00 0. -1.
         25    1    1    2    0    0  0.14432770304E+02  0.11205884232E+03  0.25241414255E+02  0.17037493359E+03  0.12500000000E+03 0.  0.
         25    1    1    2    0    0 -0.19185605485E+02 -0.11277547304E+03 -0.64048933611E+02  0.18114541306E+03  0.12500000000E+03 0.  0.
         25    1    1    2    0    0  0.47528351810E+01  0.71663071360E+00 -0.40205913080E+02  0.13139489506E+03  0.12500000000E+03 0.  0.
</event>
<event>
 5    0  0.5815641E-005  0.3467937E+03  0.7546771E-02  0.1063939E+00
         21   -1    0    0  502  501  0.00000000000E+00  0.00000000000E+00  0.71375275784E+03  0.71375275784E+03  0.00000000000E+00 0.  1.
         21   -1    0    0  501  502 -0.00000000000E+00 -0.00000000000E+00 -0.16849795263E+03  0.16849795263E+03  0.00000000000E+00 0.  1.
         25    1    1    2    0    0 -0.90888950781E+01 -0.70061400716E+02  0.11431137564E+02  0.14403776862E+03  0.12500000000E+03 0.  0.
         25    1    1    2    0    0  0.15573903203E+03 -0.10890122441E+03  0.34975522653E+03  0.41721438285E+03  0.12500000000E+03 0.  0.
         25    1    1    2    0    0 -0.14665013695E+03  0.17896262513E+03  0.18406844111E+03  0.32099855899E+03  0.12500000000E+03 0.  0.
</event>
<event>
 5    0  0.5735425E-005  0.4175072E+03  0.7546771E-02  0.1037881E+00
         21   -1    0    0  502  501  0.00000000000E+00  0.00000000000E+00  0.12600920468E+04  0.12600920468E+04  0.00000000000E+00 0. -1.
         21   -1    0    0  501  502 -0.00000000000E+00 -0.00000000000E+00 -0.13833295107E+03  0.13833295107E+03  0.00000000000E+00 0. -1.
         25    1    1    2    0    0  0.30472801907E+02 -0.39326760177E+02  0.78060063063E+03  0.79210954436E+03  0.12500000000E+03 0.  0.
         25    1    1    2    0    0  0.34202410282E+02 -0.14586033074E+02  0.41748282848E+03  0.43737794790E+03  0.12500000000E+03 0.  0.
         25    1    1    2    0    0 -0.64675212189E+02  0.53912793251E+02 -0.76324363404E+02  0.16893750560E+03  0.12500000000E+03 0.  0.
</event>
<event>
 5    0  0.5868435E-005  0.3029408E+03  0.7546771E-02  0.1083780E+00
         21   -1    0    0  502  501  0.00000000000E+00  0.00000000000E+00  0.50650212489E+03  0.50650212489E+03  0.00000000000E+00 0.  1.
         21   -1    0    0  501  502 -0.00000000000E+00 -0.00000000000E+00 -0.18119002988E+03  0.18119002988E+03  0.00000000000E+00 0.  1.
         25    1    1    2    0    0 -0.84400776676E+02  0.39176394493E+02  0.81747316967E+02  0.17597131817E+03  0.12500000000E+03 0.  0.
         25    1    1    2    0    0 -0.50016534505E+02  0.13688915202E+03  0.13742590160E+03  0.23611686110E+03  0.12500000000E+03 0.  0.
         25    1    1    2    0    0  0.13441731118E+03 -0.17606554651E+03  0.10613887645E+03  0.27560397549E+03  0.12500000000E+03 0.  0.
</event>
<event>
 5    0  0.5735425E-005  0.2476727E+03  0.7546771E-02  0.1114784E+00
         21   -1    0    0  502  501  0.00000000000E+00  0.00000000000E+00  0.99943578531E+03  0.99943578531E+03  0.00000000000E+00 0.  1.
         21   -1    0    0  501  502 -0.00000000000E+00 -0.00000000000E+00 -0.61376411797E+02  0.61376411797E+02  0.00000000000E+00 0.  1.
         25    1    1    2    0    0  0.85010116200E+02 -0.26310187808E+02  0.37945858466E+03  0.40930766340E+03  0.12500000000E+03 0.  0.
         25    1    1    2    0    0 -0.35159631786E+02 -0.74619309061E+02  0.16155067737E+03  0.22029040458E+03  0.12500000000E+03 0.  0.
         25    1    1    2    0    0 -0.49850484414E+02  0.10092949687E+03  0.39705011148E+03  0.43121412913E+03  0.12500000000E+03 0.  0.
</event>
<event>
 5    0  0.5735425E-005  0.4595820E+03  0.7546771E-02  0.1024903E+00
         21   -1    0    0  502  501  0.00000000000E+00  0.00000000000E+00  0.12366966076E+04  0.12366966076E+04  0.00000000000E+00 0. -1.
         21   -1    0    0  501  502 -0.00000000000E+00 -0.00000000000E+00 -0.17079016535E+03  0.17079016535E+03  0.00000000000E+00 0. -1.
         25    1    1    2    0    0 -0.15648802773E+03  0.25165831101E+03  0.68697188226E+03  0.75853528286E+03  0.12500000000E+03 0.  0.
         25    1    1    2    0    0 -0.36225173717E+02 -0.12067342659E+03 -0.10993410806E+02  0.17782067984E+03  0.12500000000E+03 0.  0.
         25    1    1    2    0    0  0.19271320145E+03 -0.13098488442E+03  0.38992797082E+03  0.47113081027E+03  0.12500000000E+03 0.  0.
</event>
<event>
 5    0  0.5778143E-005  0.2444816E+03  0.7546771E-02  0.1116843E+00
         21   -1    0    0  502  501  0.00000000000E+00  0.00000000000E+00  0.10364594643E+03  0.10364594643E+03  0.00000000000E+00 0. -1.
         21   -1    0    0  501  502 -0.00000000000E+00 -0.00000000000E+00 -0.57668689564E+03  0.57668689564E+03  0.00000000000E+00 0. -1.
         25    1    1    2    0    0 -0.68937505798E+01 -0.91247939652E+02 -0.23557309274E+03  0.28194572583E+03  0.12500000000E+03 0.  0.
         25    1    1    2    0    0  0.31556076480E+02  0.12093183816E+03 -0.81010347552E+02  0.19444272127E+03  0.12500000000E+03 0.  0.
         25    1    1    2    0    0 -0.24662325900E+02 -0.29683898508E+02 -0.15645750891E+03  0.20394439498E+03  0.12500000000E+03 0.  0.
</event>
<event>
 5    0  0.5735425E-005  0.2418988E+03  0.7546771E-02  0.1118534E+00
         21   -1    0    0  502  501  0.00000000000E+00  0.00000000000E+00  0.21738408702E+03  0.21738408702E+03  0.00000000000E+00 0.  1.
         21   -1    0    0  501  502 -0.00000000000E+00 -0.00000000000E+00 -0.26917810391E+03  0.26917810391E+03  0.00000000000E+00 0.  1.
         25    1    1    2    0    0 -0.50225002958E+02  0.14718947539E+02 -0.14031639992E+03  0.19507150080E+03  0.12500000000E+03 0.  0.
         25    1    1    2    0    0  0.16078228134E+02  0.45331475838E+02  0.55022224782E+02  0.14479605430E+03  0.12500000000E+03 0.  0.
         25    1    1    2    0    0  0.34146774824E+02 -0.60050423376E+02  0.33500158245E+02  0.14669463583E+03  0.12500000000E+03 0.  0.
</event>
<event>
 5    0  0.5735425E-005  0.2586519E+03  0.7546771E-02  0.1107956E+00
         21   -1    0    0  502  501  0.00000000000E+00  0.00000000000E+00  0.18038702682E+04  0.18038702682E+04  0.00000000000E+00 0. -1.
         21   -1    0    0  501  502 -0.00000000000E+00 -0.00000000000E+00 -0.37087383125E+02  0.37087383125E+02  0.00000000000E+00 0. -1.
         25    1    1    2    0    0 -0.70280209432E+00 -0.52026591567E+02  0.90964883643E+03  0.91967019402E+03  0.12500000000E+03 0.  0.
         25    1    1    2    0    0 -0.49176295774E+00  0.12823141710E+03  0.59109341018E+03  0.61762444715E+03  0.12500000000E+03 0.  0.
         25    1    1    2    0    0  0.11945650521E+01 -0.76204825529E+02  0.26604063850E+03  0.30366301018E+03  0.12500000000E+03 0.  0.
</event>
<event>
 5    0  0.5735425E-005  0.3702220E+03  0.7546771E-02  0.1054608E+00
         21   -1    0    0  502  501  0.00000000000E+00  0.00000000000E+00  0.15491689256E+03  0.15491689256E+03  0.00000000000E+00 0.  1.
         21   -1    0    0  501  502 -0.00000000000E+00 -0.00000000000E+00 -0.88476048503E+03  0.88476048503E+03  0.00000000000E+00 0.  1.
         25    1    1    2    0    0  0.61747857869E+02  0.25355316639E+03 -0.20911642176E+03  0.35701076173E+03  0.12500000000E+03 0.  0.
         25    1    1    2    0    0 -0.12292147305E+03 -0.23646927582E+03 -0.40607740085E+03  0.50154886344E+03  0.12500000000E+03 0.  0.
         25    1    1    2    0    0  0.61173615180E+02 -0.17083890570E+02 -0.11464976987E+03  0.18111775242E+03  0.12500000000E+03 0.  0.
</event>
<event>
 5    0  0.5735425E-005  0.3030220E+03  0.7546771E-02  0.1083740E+00
         21   -1    0    0  502  501  0.00000000000E+00  0.00000000000E+00  0.70012237238E+02  0.70012237238E+02  0.00000000000E+00 0. -1.
         21   -1    0    0  501  502 -0.00000000000E+00 -0.00000000000E+00 -0.13115186653E+04  0.13115186653E+04  0.00000000000E+00 0. -1.
         25    1    1    2    0    0  0.99230887357E+02  0.18687218830E+03 -0.61122231548E+03  0.65877591237E+03  0.12500000000E+03 0.  0.
         25    1    1    2    0    0 -0.73183862610E+02 -0.16973025825E+03 -0.36411348659E+03  0.42704551213E+03  0.12500000000E+03 0.  0.
         25    1    1    2    0    0 -0.26047024747E+02 -0.17141930049E+02 -0.26617062595E+03  0.29570947801E+03  0.12500000000E+03 0.  0.
</event>
<event>
 5    0  0.5735425E-005  0.2448098E+03  0.7546771E-02  0.1116630E+00
         21   -1    0    0  502  501  0.00000000000E+00  0.00000000000E+00  0.10589455352E+03  0.10589455352E+03  0.00000000000E+00 0.  1.
         21   -1    0    0  501  502 -0.00000000000E+00 -0.00000000000E+00 -0.56595756418E+03  0.56595756418E+03  0.00000000000E+00 0.  1.
         25    1    1    2    0    0 -0.29712109315E+02 -0.92290435097E+01 -0.28859380942E+03  0.31603697809E+03  0.12500000000E+03 0.  0.
         25    1    1    2    0    0  0.66708472361E+02  0.64287964496E+01 -0.18160676695E+01  0.14184374435E+03  0.12500000000E+03 0.  0.
         25    1    1    2    0    0 -0.36996363047E+02  0.28002470601E+01 -0.16965313357E+03  0.21397139526E+03  0.12500000000E+03 0.  0.
</event>
<event>
 5    0  0.5735425E-005  0.2578031E+03  0.7546771E-02  0.1108470E+00
         21   -1    0    0  502  501  0.00000000000E+00  0.00000000000E+00  0.20066177638E+04  0.20066177638E+04  0.00000000000E+00 0.  1.
         21   -1    0    0  501  502 -0.00000000000E+00 -0.00000000000E+00 -0.33121630631E+02  0.33121630631E+02  0.00000000000E+00 0.  1.
         25    1    1    2    0    0  0.92420657825E+02  0.27170709034E+02  0.11832654672E+04  0.11937428498E+04  0.12500000000E+03 0.  0.
         25    1    1    2    0    0 -0.94804397663E+01 -0.40451725670E+02  0.22191127198E+03  0.25806168541E+03  0.12500000000E+03 0.  0.
         25    1    1    2    0    0 -0.82940218058E+02  0.13281016635E+02  0.56831939400E+03  0.58793485929E+03  0.12500000000E+03 0.  0.
</event>
<event>
 5    0  0.5735425E-005  0.4075954E+03  0.7546771E-02  0.1041181E+00
         21   -1    0    0  502  501  0.00000000000E+00  0.00000000000E+00  0.31606563302E+04  0.31606563302E+04  0.00000000000E+00 0.  1.
         21   -1    0    0  501  502 -0.00000000000E+00 -0.00000000000E+00 -0.52563125738E+02  0.52563125738E+02  0.00000000000E+00 0.  1.
         25    1    1    2    0    0  0.97360074038E+02  0.25552770739E+03  0.12845244154E+04  0.13192427248E+04  0.12500000000E+03 0.  0.
         25    1    1    2    0    0 -0.21966507174E+03 -0.13368897973E+03  0.12446620460E+04  0.12770803013E+04  0.12500000000E+03 0.  0.
         25    1    1    2    0    0  0.12230499771E+03 -0.12183872766E+03  0.57890674299E+03  0.61689642980E+03  0.12500000000E+03 0.  0.
</event>
<event>
 5    0  0.5735425E-005  0.5200716E+03  0.7546771E-02  0.1008669E+00
         21   -1    0    0  502  501  0.00000000000E+00  0.00000000000E+00  0.37245191134E+03  0.37245191134E+03  0.00000000000E+00 0. -1.
         21   -1    0    0  501  502 -0.00000000000E+00 -0.00000000000E+00 -0.72619975834E+03  0.72619975834E+03  0.00000000000E+00 0. -1.
         25    1    1    2    0    0 -0.21264688503E+03 -0.19660576012E+03  0.10650997537E+03  0.33292926798E+03  0.12500000000E+03 0.  0.
         25    1    1    2    0    0 -0.14945885590E+03  0.54768044467E+02 -0.17414549685E+03  0.26700026662E+03  0.12500000000E+03 0.  0.
         25    1    1    2    0    0  0.36210574093E+03  0.14183771565E+03 -0.28611232552E+03  0.49872213507E+03  0.12500000000E+03 0.  0.
</event>
<event>
 5    0  0.5735425E-005  0.3867780E+03  0.7546771E-02  0.1048457E+00
         21   -1    0    0  502  501  0.00000000000E+00  0.00000000000E+00  0.45336459274E+03  0.45336459274E+03  0.00000000000E+00 0.  1.
         21   -1    0    0  501  502 -0.00000000000E+00 -0.00000000000E+00 -0.32997108263E+03  0.32997108263E+03  0.00000000000E+00 0.  1.
         25    1    1    2    0    0  0.17705524462E+03 -0.13846188187E+03 -0.40207259464E+02  0.26031111404E+03  0.12500000000E+03 0.  0.
         25    1    1    2    0    0 -0.16324764848E+03 -0.68021025091E+02 -0.22771266501E+02  0.21776176240E+03  0.12500000000E+03 0.  0.
         25    1    1    2    0    0 -0.13807596144E+02  0.20648290696E+03  0.18637203607E+03  0.30526279893E+03  0.12500000000E+03 0.  0.
</event>
<event>
 5    0  0.5735425E-005  0.2945364E+03  0.7546771E-02  0.1088004E+00
         21   -1    0    0  502  501  0.00000000000E+00  0.00000000000E+00  0.10787158736E+03  0.10787158736E+03  0.00000000000E+00 0.  1.
         21   -1    0    0  501  502 -0.00000000000E+00 -0.00000000000E+00 -0.80421246196E+03  0.80421246196E+03  0.00000000000E+00 0.  1.
         25    1    1    2    0    0  0.20082045341E+03 -0.83393069324E+02 -0.35832340352E+03  0.43738303583E+03  0.12500000000E+03 0.  0.
         25    1    1    2    0    0 -0.91548515625E+02  0.30531314111E+02 -0.14120840229E+03  0.21184452962E+03  0.12500000000E+03 0.  0.
         25    1    1    2    0    0 -0.10927193779E+03  0.52861755213E+02 -0.19680906880E+03  0.26285648387E+03  0.12500000000E+03 0.  0.
</event>
<event>
 5    0  0.5735425E-005  0.5234437E+03  0.7546771E-02  0.1007835E+00
         21   -1    0    0  502  501  0.00000000000E+00  0.00000000000E+00  0.22780878376E+03  0.22780878376E+03  0.00000000000E+00 0.  1.
         21   -1    0    0  501  502 -0.00000000000E+00 -0.00000000000E+00 -0.12027338556E+04  0.12027338556E+04  0.00000000000E+00 0.  1.
         25    1    1    2    0    0 -0.46320684371E+01  0.62161663737E+02 -0.23209532704E+03  0.27088515893E+03  0.12500000000E+03 0.  0.
         25    1    1    2    0    0 -0.33783327429E+03  0.38720619843E+02 -0.68783654848E+03  0.77741541343E+03  0.12500000000E+03 0.  0.
         25    1    1    2    0    0  0.34246534273E+03 -0.10088228358E+03 -0.54993196285E+02  0.38224206695E+03  0.12500000000E+03 0.  0.
</event>
<event>
 5    0  0.5735425E-005  0.4735594E+03  0.7546771E-02  0.1020920E+00
         21   -1    0    0  502  501  0.00000000000E+00  0.00000000000E+00  0.15018730797E+04  0.15018730797E+04  0.00000000000E+00 0. -1.
         21   -1    0    0  501  502 -0.00000000000E+00 -0.00000000000E+00 -0.14931920207E+03  0.14931920207E+03  0.00000000000E+00 0. -1.
         25    1    1    2    0    0  0.17555885679E+03 -0.95379978695E+02  0.22102695698E+03  0.32310395888E+03  0.12500000000E+03 0.  0.
         25    1    1    2    0    0 -0.14615977763E+03  0.35296880236E+03  0.74036033348E+03  0.84244173652E+03  0.12500000000E+03 0.  0.
         25    1    1    2    0    0 -0.29399079165E+02 -0.25758882367E+03  0.39116658714E+03  0.48564658635E+03  0.12500000000E+03 0.  0.
</event>
<event>
 5    0  0.5735425E-005  0.3046303E+03  0.7546771E-02  0.1082949E+00
         21   -1    0    0  502  501  0.00000000000E+00  0.00000000000E+00  0.37030614965E+03  0.37030614965E+03  0.00000000000E+00 0.  1.
         21   -1    0    0  501  502 -0.00000000000E+00 -0.00000000000E+00 -0.25060237560E+03  0.25060237560E+03  0.00000000000E+00 0.  1.
         25    1    1    2    0    0  0.20960066910E+02 -0.16088921303E+01  0.13622300273E+03  0.18607423092E+03  0.12500000000E+03 0.  0.
         25    1    1    2    0    0  0.12921353471E+03 -0.10780946972E+03 -0.22359193112E+02  0.21081734471E+03  0.12500000000E+03 0.  0.
         25    1    1    2    0    0 -0.15017360162E+03  0.10941836185E+03  0.58399644302E+01  0.22401694962E+03  0.12500000000E+03 0.  0.
</event>
<event>
 5    0  0.5735425E-005  0.2246777E+03  0.7546771E-02  0.1130443E+00
         21   -1    0    0  502  501  0.00000000000E+00  0.00000000000E+00  0.19818748835E+03  0.19818748835E+03  0.00000000000E+00 0.  1.
         21   -1    0    0  501  502 -0.00000000000E+00 -0.00000000000E+00 -0.25470870816E+03  0.25470870816E+03  0.00000000000E+00 0.  1.
         25    1    1    2    0    0 -0.43059917559E+02  0.46221061244E+02  0.18453380708E+02  0.14126595578E+03  0.12500000000E+03 0.  0.
         25    1    1    2    0    0  0.25598511380E+01 -0.86457097303E+01 -0.11409019220E+03  0.16947823781E+03  0.12500000000E+03 0.  0.
         25    1    1    2    0    0  0.40500066421E+02 -0.37575351514E+02  0.39115591684E+02  0.14215200292E+03  0.12500000000E+03 0.  0.
</event>
<event>
 5    0  0.5735425E-005  0.3064839E+03  0.7546771E-02  0.1082044E+00
         21   -1    0    0  502  501  0.00000000000E+00  0.00000000000E+00  0.18772359461E+03  0.18772359461E+03  0.00000000000E+00 0.  1.
         21   -1    0    0  501  502 -0.00000000000E+00 -0.00000000000E+00 -0.50037604225E+03  0.50037604225E+03  0.00000000000E+00 0.  1.
         25    1    1    2    0    0 -0.13206154067E+03 -0.18171111938E+03 -0.15306184101E+03  0.29918574265E+03  0.12500000000E+03 0.  0.
         25    1    1    2    0    0  0.13696997315E+02  0.52873525834E+02 -0.87795319982E+02  0.16222279643E+03  0.12500000000E+03 0.  0.
         25    1    1    2    0    0  0.11836454335E+03  0.12883759354E+03 -0.71795286645E+02  0.22669109779E+03  0.12500000000E+03 0.  0.
</event>
<event>
 5    0  0.5735425E-005  0.3238196E+03  0.7546771E-02  0.1073905E+00
         21   -1    0    0  502  501  0.00000000000E+00  0.00000000000E+00  0.12212758831E+03  0.12212758831E+03  0.00000000000E+00 0.  1.
         21   -1    0    0  501  502 -0.00000000000E+00 -0.00000000000E+00 -0.85860340308E+03  0.85860340308E+03  0.00000000000E+00 0.  1.
         25    1    1    2    0    0  0.10429128310E+03  0.30671555850E+02 -0.77894438290E+02  0.18305725767E+03  0.12500000000E+03 0.  0.
         25    1    1    2    0    0  0.21020718003E+02 -0.16680698169E+03 -0.42893262721E+03  0.47736216693E+03  0.12500000000E+03 0.  0.
         25    1    1    2    0    0 -0.12531200110E+03  0.13613542584E+03 -0.22964874926E+03  0.32031156680E+03  0.12500000000E+03 0.  0.
</event>
<event>
 5    0  0.5735425E-005  0.2478114E+03  0.7546771E-02  0.1114696E+00
         21   -1    0    0  502  501  0.00000000000E+00  0.00000000000E+00  0.39185756297E+03  0.39185756297E+03  0.00000000000E+00 0.  1.
         21   -1    0    0  501  502 -0.00000000000E+00 -0.00000000000E+00 -0.15671634653E+03  0.15671634653E+03  0.00000000000E+00 0.  1.
         25    1    1    2    0    0  0.12040104716E+01  0.65808040455E+02  0.75380360382E+02  0.16012291079E+03  0.12500000000E+03 0.  0.
         25    1    1    2    0    0  0.86443102834E+02  0.25753589567E+02  0.77133421389E+01  0.15433778880E+03  0.12500000000E+03 0.  0.
         25    1    1    2    0    0 -0.87647113306E+02 -0.91561630022E+02  0.15204751392E+03  0.23411320990E+03  0.12500000000E+03 0.  0.
</event>
<event>
 5    0  0.5735425E-005  0.3538034E+03  0.7546771E-02  0.1061065E+00
         21   -1    0    0  502  501  0.00000000000E+00  0.00000000000E+00  0.19630856207E+04  0.19630856207E+04  0.00000000000E+00 0. -1.
         21   -1    0    0  501  502 -0.00000000000E+00 -0.00000000000E+00 -0.63765344178E+02  0.63765344178E+02  0.00000000000E+00 0. -1.
         25    1    1    2    0    0  0.10786116886E+03 -0.15193400115E+03  0.70631543019E+03  0.74109679487E+03  0.12500000000E+03 0.  0.
         25    1    1    2    0    0  0.36468324162E+02 -0.75732735012E+02  0.20737133628E+03  0.25630695841E+03  0.12500000000E+03 0.  0.
         25    1    1    2    0    0 -0.14432949302E+03  0.22766673616E+03  0.98563351005E+03  0.10294472116E+04  0.12500000000E+03 0.  0.
</event>
<event>
 5    0  0.5735425E-005  0.3107847E+03  0.7546771E-02  0.1079970E+00
         21   -1    0    0  502  501  0.00000000000E+00  0.00000000000E+00  0.15114970855E+03  0.15114970855E+03  0.00000000000E+00 0. -1.
         21   -1    0    0  501  502 -0.00000000000E+00 -0.00000000000E+00 -0.63901631640E+03  0.63901631640E+03  0.00000000000E+00 0.  1.
         25    1    1    2    0    0 -0.81202583659E+02 -0.16390420738E+03 -0.17394110241E+03  0.28167171654E+03  0.12500000000E+03 0.  0.
         25    1    1    2    0    0  0.58596272582E+02  0.21993190659E+03 -0.22528118776E+03  0.34377344321E+03  0.12500000000E+03 0.  0.
         25    1    1    2    0    0  0.22606311076E+02 -0.56027699208E+02 -0.88644317673E+02  0.16472086521E+03  0.12500000000E+03 0.  0.
</event>
<event>
 5    0  0.5735425E-005  0.5160118E+03  0.7546771E-02  0.1009682E+00
         21   -1    0    0  502  501  0.00000000000E+00  0.00000000000E+00  0.28101229814E+03  0.28101229814E+03  0.00000000000E+00 0.  1.
         21   -1    0    0  501  502 -0.00000000000E+00 -0.00000000000E+00 -0.94753226900E+03  0.94753226900E+03  0.00000000000E+00 0.  1.
         25    1    1    2    0    0 -0.23939661118E+02  0.69639786792E+02 -0.22522146505E+01  0.14509610522E+03  0.12500000000E+03 0.  0.
         25    1    1    2    0    0 -0.23102674286E+03  0.49050748955E+02  0.79275078553E+02  0.27872723220E+03  0.12500000000E+03 0.  0.
         25    1    1    2    0    0  0.25496640397E+03 -0.11869053575E+03 -0.74354283477E+03  0.80472122972E+03  0.12500000000E+03 0.  0.
</event>
<event>
 5    0  0.5735425E-005  0.2185467E+03  0.7546771E-02  0.1134971E+00
         21   -1    0    0  502  501  0.00000000000E+00  0.00000000000E+00  0.37762090394E+03  0.37762090394E+03  0.00000000000E+00 0. -1.
         21   -1    0    0  501  502 -0.00000000000E+00 -0.00000000000E+00 -0.12648315131E+03  0.12648315131E+03  0.00000000000E+00 0. -1.
         25    1    1    2    0    0 -0.15492761381E+02 -0.79781927738E+02  0.98163025649E+02  0.17851095556E+03  0.12500000000E+03 0.  0.
         25    1    1    2    0    0  0.35706337808E+02  0.85783951259E+02  0.54288607695E+02  0.16494266209E+03  0.12500000000E+03 0.  0.
         25    1    1    2    0    0 -0.20213576427E+02 -0.60020235209E+01  0.98686119286E+02  0.16065043759E+03  0.12500000000E+03 0.  0.
</event>
<event>
 5    0  0.5735425E-005  0.3775761E+03  0.7546771E-02  0.1051833E+00
         21   -1    0    0  502  501  0.00000000000E+00  0.00000000000E+00  0.41583085495E+03  0.41583085495E+03  0.00000000000E+00 0. -1.
         21   -1    0    0  501  502 -0.00000000000E+00 -0.00000000000E+00 -0.34284067459E+03  0.34284067459E+03  0.00000000000E+00 0. -1.
         25    1    1    2    0    0 -0.14233612213E+03  0.30039961517E+02 -0.99406021543E+02  0.21602899822E+03  0.12500000000E+03 0.  0.
         25    1    1    2    0    0 -0.78910995638E+02  0.66724626283E+02  0.21299220745E+03  0.26771216151E+03  0.12500000000E+03 0.  0.
         25    1    1    2    0    0  0.22124711777E+03 -0.96764587799E+02 -0.40596005548E+02  0.27493036980E+03  0.12500000000E+03 0.  0.
</event>
<event>
 5    0  0.5735425E-005  0.2358422E+03  0.7546771E-02  0.1122594E+00
         21   -1    0    0  502  501  0.00000000000E+00  0.00000000000E+00  0.58158367496E+03  0.58158367496E+03  0.00000000000E+00 0.  1.
         21   -1    0    0  501  502 -0.00000000000E+00 -0.00000000000E+00 -0.95638088467E+02  0.95638088467E+02  0.00000000000E+00 0.  1.
         25    1    1    2    0    0 -0.92407145102E+02  0.41935961410E+02  0.11274898524E+03  0.19655797872E+03  0.12500000000E+03 0.  0.
         25    1    1    2    0    0 -0.20641839373E+02  0.74354662997E+01  0.16867807899E+03  0.21108923711E+03  0.12500000000E+03 0.  0.
         25    1    1    2    0    0  0.11304898447E+03 -0.49371427709E+02  0.20451852226E+03  0.26957454760E+03  0.12500000000E+03 0.  0.
</event>
<event>
 5    0  0.5735425E-005  0.2773322E+03  0.7546771E-02  0.1097155E+00
         21   -1    0    0  502  501  0.00000000000E+00  0.00000000000E+00  0.40831990817E+03  0.40831990817E+03  0.00000000000E+00 0. -1.
         21   -1    0    0  501  502 -0.00000000000E+00 -0.00000000000E+00 -0.18836492809E+03  0.18836492809E+03  0.00000000000E+00 0. -1.
         25    1    1    2    0    0 -0.52874317283E+02  0.12078379122E+03  0.49422024216E+02  0.18828689314E+03  0.12500000000E+03 0.  0.
         25    1    1    2    0    0  0.12525938425E+03 -0.74729016239E+02  0.17041303550E+03  0.25678773701E+03  0.12500000000E+03 0.  0.
         25    1    1    2    0    0 -0.72385066967E+02 -0.46054774983E+02  0.11992036441E+00  0.15161020612E+03  0.12500000000E+03 0.  0.
</event>
<event>
 5    0  0.5735425E-005  0.2684274E+03  0.7546771E-02  0.1102183E+00
         21   -1    0    0  502  501  0.00000000000E+00  0.00000000000E+00  0.86962544328E+02  0.86962544328E+02  0.00000000000E+00 0. -1.
         21   -1    0    0  501  502 -0.00000000000E+00 -0.00000000000E+00 -0.82855497568E+03  0.82855497568E+03  0.00000000000E+00 0.  1.
         25    1    1    2    0    0  0.31101641455E+01  0.89831933432E+02 -0.11809708352E+03  0.19403961070E+03  0.12500000000E+03 0.  0.
         25    1    1    2    0    0  0.54587610254E+02 -0.15329344149E+03 -0.42281246730E+03  0.46997241292E+03  0.12500000000E+03 0.  0.
         25    1    1    2    0    0 -0.57697774400E+02  0.63461508058E+02 -0.20068288053E+03  0.25150549639E+03  0.12500000000E+03 0.  0.
</event>
<event>
 5    0  0.5735425E-005  0.2908942E+03  0.7546771E-02  0.1089883E+00
         21   -1    0    0  502  501  0.00000000000E+00  0.00000000000E+00  0.47385798842E+03  0.47385798842E+03  0.00000000000E+00 0. -1.
         21   -1    0    0  501  502 -0.00000000000E+00 -0.00000000000E+00 -0.17857548132E+03  0.17857548132E+03  0.00000000000E+00 0. -1.
         25    1    1    2    0    0 -0.10214573568E+03 -0.86026754092E+02  0.11597218965E+03  0.21658463129E+03  0.12500000000E+03 0.  0.
         25    1    1    2    0    0  0.41331916140E+02 -0.25600171837E+02 -0.51963220400E+02  0.14383626929E+03  0.12500000000E+03 0.  0.
         25    1    1    2    0    0  0.60813819543E+02  0.11162692593E+03  0.23127353784E+03  0.29201256916E+03  0.12500000000E+03 0.  0.
</event>
<event>
 5    0  0.5735425E-005  0.5530572E+03  0.7546771E-02  0.1000789E+00
         21   -1    0    0  502  501  0.00000000000E+00  0.00000000000E+00  0.36286809961E+03  0.36286809961E+03  0.00000000000E+00 0. -1.
         21   -1    0    0  501  502 -0.00000000000E+00 -0.00000000000E+00 -0.84292960372E+03  0.84292960372E+03  0.00000000000E+00 0. -1.
         25    1    1    2    0    0  0.27236992291E+02  0.13393375586E+03 -0.87892446131E+02  0.20501265033E+03  0.12500000000E+03 0.  0.
         25    1    1    2    0    0  0.15097731471E+02 -0.46639602767E+03 -0.18411996708E+02  0.48344306567E+03  0.12500000000E+03 0.  0.
         25    1    1    2    0    0 -0.42334723762E+02  0.33246227181E+03 -0.37375706127E+03  0.51734198734E+03  0.12500000000E+03 0.  0.
</event>
<event>
 5    0  0.5735425E-005  0.2703322E+03  0.7546771E-02  0.1101090E+00
         21   -1    0    0  502  501  0.00000000000E+00  0.00000000000E+00  0.79511630095E+03  0.79511630095E+03  0.00000000000E+00 0.  1.
         21   -1    0    0  501  502 -0.00000000000E+00 -0.00000000000E+00 -0.91910450384E+02  0.91910450384E+02  0.00000000000E+00 0.  1.
         25    1    1    2    0    0  0.58748227470E+02  0.10350449004E+03  0.45629136752E+03  0.48784356690E+03  0.12500000000E+03 0.  0.
         25    1    1    2    0    0  0.40878077632E+02 -0.47791063930E+02  0.14543162985E+03  0.20181764537E+03  0.12500000000E+03 0.  0.
         25    1    1    2    0    0 -0.99626305103E+02 -0.55713426110E+02  0.10148285320E+03  0.19736553906E+03  0.12500000000E+03 0.  0.
</event>
<event>
 5    0  0.5735425E-005  0.2986541E+03  0.7546771E-02  0.1085915E+00
         21   -1    0    0  502  501  0.00000000000E+00  0.00000000000E+00  0.15940946265E+03  0.15940946265E+03  0.00000000000E+00 0. -1.
         21   -1    0    0  501  502 -0.00000000000E+00 -0.00000000000E+00 -0.55952950509E+03  0.55952950509E+03  0.00000000000E+00 0. -1.
         25    1    1    2    0    0 -0.80147845003E+02 -0.64141159470E+02 -0.81660492096E+02  0.18119382265E+03  0.12500000000E+03 0.  0.
         25    1    1    2    0    0  0.79766113851E+02 -0.22601245173E+02 -0.35139743235E+03  0.38207146539E+03  0.12500000000E+03 0.  0.
         25    1    1    2    0    0  0.38173115142E+00  0.86742404643E+02  0.32937882001E+02  0.15567367970E+03  0.12500000000E+03 0.  0.
</event>
<event>
 5    0  0.5735425E-005  0.3007430E+03  0.7546771E-02  0.1084870E+00
         21   -1    0    0  502  501  0.00000000000E+00  0.00000000000E+00  0.20609513257E+03  0.20609513257E+03  0.00000000000E+00 0. -1.
         21   -1    0    0  501  502 -0.00000000000E+00 -0.00000000000E+00 -0.43885720872E+03  0.43885720872E+03  0.00000000000E+00 0. -1.
         25    1    1    2    0    0  0.62023097528E+02 -0.15413672555E+03  0.13686231558E+02  0.20836820229E+03  0.12500000000E+03 0.  0.
         25    1    1    2    0    0 -0.13117133285E+03  0.96205067344E+02 -0.12394931438E+03  0.23968680831E+03  0.12500000000E+03 0.  0.
         25    1    1    2    0    0  0.69148235321E+02  0.57931658203E+02 -0.12249899333E+03  0.19689733070E+03  0.12500000000E+03 0.  0.
</event>
<event>
 5    0  0.5735425E-005  0.3519597E+03  0.7546771E-02  0.1061814E+00
         21   -1    0    0  502  501  0.00000000000E+00  0.00000000000E+00  0.82392916179E+03  0.82392916179E+03  0.00000000000E+00 0.  1.
         21   -1    0    0  501  502 -0.00000000000E+00 -0.00000000000E+00 -0.15034745973E+03  0.15034745973E+03  0.00000000000E+00 0.  1.
         25    1    1    2    0    0  0.28676208755E+02 -0.86462059129E+02  0.18034842410E+03  0.23758907107E+03  0.12500000000E+03 0.  0.
         25    1    1    2    0    0  0.68394419799E+02  0.22120797098E+03  0.81495048949E+02  0.27545817484E+03  0.12500000000E+03 0.  0.
         25    1    1    2    0    0 -0.97070628553E+02 -0.13474591185E+03  0.41173822902E+03  0.46122937560E+03  0.12500000000E+03 0.  0.
</event>
<event>
 5    0  0.5735425E-005  0.4098569E+03  0.7546771E-02  0.1040419E+00
         21   -1    0    0  502  501  0.00000000000E+00  0.00000000000E+00  0.60940148193E+02  0.60940148193E+02  0.00000000000E+00 0.  1.
         21   -1    0    0  501  502 -0.00000000000E+00 -0.00000000000E+00 -0.27565194812E+04  0.27565194812E+04  0.00000000000E+00 0.  1.
         25    1    1    2    0    0  0.10642738911E+03 -0.73236538314E+02 -0.28701661540E+03  0.33866490402E+03  0.12500000000E+03 0.  0.
         25    1    1    2    0    0  0.55037787085E+02 -0.17560185861E+03 -0.14659742579E+04  0.14827578008E+04  0.12500000000E+03 0.  0.
         25    1    1    2    0    0 -0.16146517620E+03  0.24883839692E+03 -0.94258845963E+03  0.99603692458E+03  0.12500000000E+03 0.  0.
</event>
<event>
 5    0  0.5735425E-005  0.2794607E+03  0.7546771E-02  0.1095984E+00
         21   -1    0    0  502  501  0.00000000000E+00  0.00000000000E+00  0.14709724600E+03  0.14709724600E+03  0.00000000000E+00 0.  1.
         21   -1    0    0  501  502 -0.00000000000E+00 -0.00000000000E+00 -0.53092974254E+03  0.53092974254E+03  0.00000000000E+00 0.  1.
         25    1    1    2    0    0  0.21165128656E+02  0.12478522754E+03 -0.10772795261E+03  0.20796544775E+03  0.12500000000E+03 0.  0.
         25    1    1    2    0    0 -0.72050730569E+02 -0.16533301531E+03 -0.91327925119E+02  0.23768067577E+03  0.12500000000E+03 0.  0.
         25    1    1    2    0    0  0.50885601913E+02  0.40547787767E+02 -0.18477661881E+03  0.23238086503E+03  0.12500000000E+03 0.  0.
</event>
<event>
 5    0  0.5735425E-005  0.2335194E+03  0.7546771E-02  0.1124187E+00
         21   -1    0    0  502  501  0.00000000000E+00  0.00000000000E+00  0.27228401956E+03  0.27228401956E+03  0.00000000000E+00 0. -1.
         21   -1    0    0  501  502 -0.00000000000E+00 -0.00000000000E+00 -0.20027355698E+03  0.20027355698E+03  0.00000000000E+00 0. -1.
         25    1    1    2    0    0  0.12959714967E+02  0.37490622389E+01  0.73609139899E+02  0.14568910445E+03  0.12500000000E+03 0.  0.
         25    1    1    2    0    0 -0.79986660154E+02  0.72707974495E+02 -0.96439604074E+01  0.16553646526E+03  0.12500000000E+03 0.  0.
         25    1    1    2    0    0  0.67026945187E+02 -0.76457036734E+02  0.80452830890E+01  0.16133200683E+03  0.12500000000E+03 0.  0.
</event>
<event>
 5    0  0.5735425E-005  0.3475872E+03  0.7546771E-02  0.1063610E+00
         21   -1    0    0  502  501  0.00000000000E+00  0.00000000000E+00  0.20475772008E+03  0.20475772008E+03  0.00000000000E+00 0.  1.
         21   -1    0    0  501  502 -0.00000000000E+00 -0.00000000000E+00 -0.59004803402E+03  0.59004803402E+03  0.00000000000E+00 0.  1.
         25    1    1    2    0    0 -0.10254760077E+03 -0.54220983557E+02 -0.10143365116E+03  0.19841802103E+03  0.12500000000E+03 0.  0.
         25    1    1    2    0    0  0.27482445655E+03  0.73168720931E+02 -0.16097746979E+03  0.34988696663E+03  0.12500000000E+03 0.  0.
         25    1    1    2    0    0 -0.17227685577E+03 -0.18947737375E+02 -0.12287919300E+03  0.24650076645E+03  0.12500000000E+03 0.  0.
</event>
<event>
 5    0  0.5735425E-005  0.3870743E+03  0.7546771E-02  0.1048350E+00
         21   -1    0    0  502  501  0.00000000000E+00  0.00000000000E+00  0.26762536300E+03  0.26762536300E+03  0.00000000000E+00 0. -1.
         21   -1    0    0  501  502 -0.00000000000E+00 -0.00000000000E+00 -0.55983688611E+03  0.55983688611E+03  0.00000000000E+00 0. -1.
         25    1    1    2    0    0 -0.11797322557E+03 -0.29266633348E+03 -0.82281725079E+02  0.34923709280E+03  0.12500000000E+03 0.  0.
         25    1    1    2    0    0  0.49562831381E+02  0.80515070354E+02 -0.14733083443E+03  0.21510584739E+03  0.12500000000E+03 0.  0.
         25    1    1    2    0    0  0.68410394191E+02  0.21215126312E+03 -0.62598963602E+02  0.26311930891E+03  0.12500000000E+03 0.  0.
</event>
<event>
 5    0  0.5735425E-005  0.4004206E+03  0.7546771E-02  0.1043634E+00
         21   -1    0    0  502  501  0.00000000000E+00  0.00000000000E+00  0.40992398066E+03  0.40992398066E+03  0.00000000000E+00 0. -1.
         21   -1    0    0  501  502 -0.00000000000E+00 -0.00000000000E+00 -0.39113758080E+03  0.39113758080E+03  0.00000000000E+00 0. -1.
         25    1    1    2    0    0  0.19848415020E+03  0.24134215756E+03 -0.11502199102E+03  0.35566424238E+03  0.12500000000E+03 0.  0.
         25    1    1    2    0    0 -0.18846939151E+02 -0.81302118486E+02  0.74984376476E+02  0.16796695598E+03  0.12500000000E+03 0.  0.
         25    1    1    2    0    0 -0.17963721105E+03 -0.16004003907E+03  0.58824014406E+02  0.27743036310E+03  0.12500000000E+03 0.  0.
</event>
<event>
 5    0  0.5735425E-005  0.6513584E+03  0.7546771E-02  0.9804234E-01
         21   -1    0    0  502  501  0.00000000000E+00  0.00000000000E+00  0.24091524983E+03  0.24091524983E+03  0.00000000000E+00 0.  1.
         21   -1    0    0  501  502 -0.00000000000E+00 -0.00000000000E+00 -0.17610664415E+04  0.17610664415E+04  0.00000000000E+00 0.  1.
         25    1    1    2    0    0 -0.34529509613E+03  0.43127588588E+03 -0.74754590250E+03  0.93791122687E+03  0.12500000000E+03 0.  0.
         25    1    1    2    0    0  0.17503331838E+03 -0.46625727635E+03 -0.59472529708E+03  0.78571985420E+03  0.12500000000E+03 0.  0.
         25    1    1    2    0    0  0.17026177775E+03  0.34981390474E+02 -0.17787999207E+03  0.27835061024E+03  0.12500000000E+03 0.  0.
</event>
<event>
 5    0  0.5735425E-005  0.3779798E+03  0.7546771E-02  0.1051683E+00
         21   -1    0    0  502  501  0.00000000000E+00  0.00000000000E+00  0.24669621064E+03  0.24669621064E+03  0.00000000000E+00 0.  1.
         21   -1    0    0  501  502 -0.00000000000E+00 -0.00000000000E+00 -0.57912811942E+03  0.57912811942E+03  0.00000000000E+00 0.  1.
         25    1    1    2    0    0 -0.26727887073E+03 -0.78531606309E+02  0.69540964296E+01  0.30541540135E+03  0.12500000000E+03 0.  0.
         25    1    1    2    0    0  0.14886400993E+03 -0.21132639431E+02 -0.17183712636E+03  0.26030766393E+03  0.12500000000E+03 0.  0.
         25    1    1    2    0    0  0.11841486079E+03  0.99664245740E+02 -0.16754887885E+03  0.26010126478E+03  0.12500000000E+03 0.  0.
</event>
<event>
 5    0  0.5735425E-005  0.2676905E+03  0.7546771E-02  0.1102609E+00
         21   -1    0    0  502  501  0.00000000000E+00  0.00000000000E+00  0.76725199898E+03  0.76725199898E+03  0.00000000000E+00 0.  1.
         21   -1    0    0  501  502 -0.00000000000E+00 -0.00000000000E+00 -0.93395915855E+02  0.93395915855E+02  0.00000000000E+00 0.  1.
         25    1    1    2    0    0 -0.43468805049E+01  0.86730336624E+02  0.42163284402E+03  0.44826365213E+03  0.12500000000E+03 0.  0.
         25    1    1    2    0    0  0.73486361820E+02  0.18588596564E+02  0.88276807403E+02  0.17077346404E+03  0.12500000000E+03 0.  0.
         25    1    1    2    0    0 -0.69139481315E+02 -0.10531893319E+03  0.16394643170E+03  0.24161079867E+03  0.12500000000E+03 0.  0.
</event>
<event>
 5    0  0.5735425E-005  0.3301098E+03  0.7546771E-02  0.1071088E+00
         21   -1    0    0  502  501  0.00000000000E+00  0.00000000000E+00  0.22417284758E+03  0.22417284758E+03  0.00000000000E+00 0. -1.
         21   -1    0    0  501  502 -0.00000000000E+00 -0.00000000000E+00 -0.48610931733E+03  0.48610931733E+03  0.00000000000E+00 0.  1.
         25    1    1    2    0    0 -0.11025929830E+03 -0.16588608881E+03 -0.75092604644E+02  0.24685867737E+03  0.12500000000E+03 0.  0.
         25    1    1    2    0    0 -0.65775571121E+02  0.29721960394E+02 -0.14530487114E+03  0.20481290551E+03  0.12500000000E+03 0.  0.
         25    1    1    2    0    0  0.17603486942E+03  0.13616412841E+03 -0.41538993968E+02  0.25861058203E+03  0.12500000000E+03 0.  0.
</event>
<event>
 5    0  0.5735425E-005  0.2239609E+03  0.7546771E-02  0.1130964E+00
         21   -1    0    0  502  501  0.00000000000E+00  0.00000000000E+00  0.91070319749E+03  0.91070319749E+03  0.00000000000E+00 0.  1.
         21   -1    0    0  501  502 -0.00000000000E+00 -0.00000000000E+00 -0.55076647391E+02  0.55076647391E+02  0.00000000000E+00 0.  1.
         25    1    1    2    0    0  0.70061549373E+02  0.12030982441E+02  0.22462230923E+03  0.26670873072E+03  0.12500000000E+03 0.  0.
         25    1    1    2    0    0  0.46514817981E+01  0.45909529589E+02  0.19876842354E+03  0.23929732006E+03  0.12500000000E+03 0.  0.
         25    1    1    2    0    0 -0.74713031171E+02 -0.57940512029E+02  0.43223581733E+03  0.45977379410E+03  0.12500000000E+03 0.  0.
</event>
<event>
 5    0  0.5735425E-005  0.3520752E+03  0.7546771E-02  0.1061766E+00
         21   -1    0    0  502  501  0.00000000000E+00  0.00000000000E+00  0.25677213662E+03  0.25677213662E+03  0.00000000000E+00 0. -1.
         21   -1    0    0  501  502 -0.00000000000E+00 -0.00000000000E+00 -0.48275087668E+03  0.48275087668E+03  0.00000000000E+00 0. -1.
         25    1    1    2    0    0  0.12759579404E+03 -0.42322867946E+02  0.44554906096E+02  0.18889693344E+03  0.12500000000E+03 0.  0.
         25    1    1    2    0    0  0.10702396636E+03  0.27384516378E+02  0.57561076307E+01  0.16691966297E+03  0.12500000000E+03 0.  0.
         25    1    1    2    0    0 -0.23461976039E+03  0.14938351568E+02 -0.27628975378E+03  0.38370641689E+03  0.12500000000E+03 0.  0.
</event>
<event>
 5    0  0.6267317E-005  0.3099254E+03  0.7546771E-02  0.1080382E+00
         21   -1    0    0  502  501  0.00000000000E+00  0.00000000000E+00  0.57021595685E+03  0.57021595685E+03  0.00000000000E+00 0. -1.
         21   -1    0    0  501  502 -0.00000000000E+00 -0.00000000000E+00 -0.16845158952E+03  0.16845158952E+03  0.00000000000E+00 0. -1.
         25    1    1    2    0    0  0.17867725636E+02  0.10472452219E+03  0.39469541549E+03  0.42742947041E+03  0.12500000000E+03 0.  0.
         25    1    1    2    0    0  0.34516063411E+02 -0.11736847625E+03  0.84700420604E+01  0.17510984971E+03  0.12500000000E+03 0.  0.
         25    1    1    2    0    0 -0.52383789047E+02  0.12643954060E+02 -0.14010902190E+01  0.13612822625E+03  0.12500000000E+03 0.  0.
</event>
<event>
 5    0  0.5735425E-005  0.2477766E+03  0.7546771E-02  0.1114718E+00
         21   -1    0    0  502  501  0.00000000000E+00  0.00000000000E+00  0.31637121382E+03  0.31637121382E+03  0.00000000000E+00 0.  1.
         21   -1    0    0  501  502 -0.00000000000E+00 -0.00000000000E+00 -0.19405450027E+03  0.19405450027E+03  0.00000000000E+00 0.  1.
         25    1    1    2    0    0 -0.53162477332E+02  0.93771862436E+02  0.70241426536E+02  0.17938302367E+03  0.12500000000E+03 0.  0.
         25    1    1    2    0    0 -0.44087740965E+02  0.14079194411E+02  0.39490866872E+02  0.13901971509E+03  0.12500000000E+03 0.  0.
         25    1    1    2    0    0  0.97250218297E+02 -0.10785105685E+03  0.12584420148E+02  0.19202297532E+03  0.12500000000E+03 0.  0.
</event>
<event>
 5    0  0.5735425E-005  0.5112663E+03  0.7546771E-02  0.1010879E+00
         21   -1    0    0  502  501  0.00000000000E+00  0.00000000000E+00  0.30228092856E+03  0.30228092856E+03  0.00000000000E+00 0.  1.
         21   -1    0    0  501  502 -0.00000000000E+00 -0.00000000000E+00 -0.86473598296E+03  0.86473598296E+03  0.00000000000E+00 0.  1.
         25    1    1    2    0    0 -0.24321742360E+03 -0.13017708838E+03 -0.32936854396E+02  0.30464836428E+03  0.12500000000E+03 0.  0.
         25    1    1    2    0    0 -0.14986179764E+03  0.14902163245E+03 -0.95897328512E+02  0.26360444409E+03  0.12500000000E+03 0.  0.
         25    1    1    2    0    0  0.39307922124E+03 -0.18844544066E+02 -0.43362087149E+03  0.59876410314E+03  0.12500000000E+03 0.  0.
</event>
<event>
 5    0  0.5735425E-005  0.2892696E+03  0.7546771E-02  0.1090731E+00
         21   -1    0    0  502  501  0.00000000000E+00  0.00000000000E+00  0.10988429905E+03  0.10988429905E+03  0.00000000000E+00 0.  1.
         21   -1    0    0  501  502 -0.00000000000E+00 -0.00000000000E+00 -0.76150007692E+03  0.76150007692E+03  0.00000000000E+00 0.  1.
         25    1    1    2    0    0 -0.28803350677E+02 -0.10564264963E+03 -0.26268203824E+03  0.31083252025E+03  0.12500000000E+03 0.  0.
         25    1    1    2    0    0 -0.12916701117E+03  0.91557368891E+02 -0.19646736760E+03  0.28158710039E+03  0.12500000000E+03 0.  0.
         25    1    1    2    0    0  0.15797036185E+03  0.14085280739E+02 -0.19246637202E+03  0.27896475533E+03  0.12500000000E+03 0.  0.
</event>
<event>
 5    0  0.5735425E-005  0.2247707E+03  0.7546771E-02  0.1130375E+00
         21   -1    0    0  502  501  0.00000000000E+00  0.00000000000E+00  0.77706374366E+02  0.77706374366E+02  0.00000000000E+00 0.  1.
         21   -1    0    0  501  502 -0.00000000000E+00 -0.00000000000E+00 -0.65016378256E+03  0.65016378256E+03  0.00000000000E+00 0.  1.
         25    1    1    2    0    0 -0.59950113209E+02  0.16231228683E+02 -0.25034025000E+03  0.28662293982E+03  0.12500000000E+03 0.  0.
         25    1    1    2    0    0  0.49852646987E+02 -0.81577933296E+02 -0.13965184576E+03  0.21039934324E+03  0.12500000000E+03 0.  0.
         25    1    1    2    0    0  0.10097466222E+02  0.65346704613E+02 -0.18246531243E+03  0.23084787387E+03  0.12500000000E+03 0.  0.
</event>
<event>
 5    0  0.5735425E-005  0.2685192E+03  0.7546771E-02  0.1102130E+00
         21   -1    0    0  502  501  0.00000000000E+00  0.00000000000E+00  0.92749019957E+03  0.92749019957E+03  0.00000000000E+00 0. -1.
         21   -1    0    0  501  502 -0.00000000000E+00 -0.00000000000E+00 -0.77739416851E+02  0.77739416851E+02  0.00000000000E+00 0. -1.
         25    1    1    2    0    0 -0.20455205965E+02  0.11007030197E+03  0.38574007622E+03  0.42065935533E+03  0.12500000000E+03 0.  0.
         25    1    1    2    0    0 -0.59244282584E+02  0.28911627827E+02  0.12175095086E+03  0.18653166293E+03  0.12500000000E+03 0.  0.
         25    1    1    2    0    0  0.79699488549E+02 -0.13898192980E+03  0.34225975564E+03  0.39803859815E+03  0.12500000000E+03 0.  0.
</event>
<event>
 5    0  0.5735425E-005  0.3482055E+03  0.7546771E-02  0.1063354E+00
         21   -1    0    0  502  501  0.00000000000E+00  0.00000000000E+00  0.87930929424E+02  0.87930929424E+02  0.00000000000E+00 0. -1.
         21   -1    0    0  501  502 -0.00000000000E+00 -0.00000000000E+00 -0.13788899150E+04  0.13788899150E+04  0.00000000000E+00 0. -1.
         25    1    1    2    0    0 -0.42709544652E+02  0.95393536102E+02 -0.22233008372E+03  0.27564415115E+03  0.12500000000E+03 0.  0.
         25    1    1    2    0    0  0.51456854216E+02 -0.25503477632E+03 -0.82532067681E+03  0.87433961626E+03  0.12500000000E+03 0.  0.
         25    1    1    2    0    0 -0.87473095641E+01  0.15964124022E+03 -0.24330822505E+03  0.31683707703E+03  0.12500000000E+03 0.  0.
</event>
<event>
 5    0  0.5735425E-005  0.3444681E+03  0.7546771E-02  0.1064909E+00
         21   -1    0    0  502  501  0.00000000000E+00  0.00000000000E+00  0.17540157963E+03  0.17540157963E+03  0.00000000000E+00 0. -1.
         21   -1    0    0  501  502 -0.00000000000E+00 -0.00000000000E+00 -0.67649507920E+03  0.67649507920E+03  0.00000000000E+00 0. -1.
         25    1    1    2    0    0  0.19297993393E+03  0.16163581509E+02 -0.27990432641E+03  0.36259336482E+03  0.12500000000E+03 0.  0.
         25    1    1    2    0    0  0.44745333786E+02 -0.25899525575E+02 -0.16738104719E+03  0.21520767942E+03  0.12500000000E+03 0.  0.
         25    1    1    2    0    0 -0.23772526771E+03  0.97359440655E+01 -0.53808125964E+02  0.27409561459E+03  0.12500000000E+03 0.  0.
</event>
<event>
 5    0  0.5735425E-005  0.3242475E+03  0.7546771E-02  0.1073711E+00
         21   -1    0    0  502  501  0.00000000000E+00  0.00000000000E+00  0.14269338533E+03  0.14269338533E+03  0.00000000000E+00 0.  1.
         21   -1    0    0  501  502 -0.00000000000E+00 -0.00000000000E+00 -0.73679986759E+03  0.73679986759E+03  0.00000000000E+00 0.  1.
         25    1    1    2    0    0 -0.91556862452E+02  0.21789123496E+02 -0.13609151040E+03  0.20737242866E+03  0.12500000000E+03 0.  0.
         25    1    1    2    0    0  0.19122994639E+03 -0.57880134277E+02 -0.62248996957E+02  0.24376000485E+03  0.12500000000E+03 0.  0.
         25    1    1    2    0    0 -0.99673083943E+02  0.36091010781E+02 -0.39576597490E+03  0.42836081941E+03  0.12500000000E+03 0.  0.
</event>
<event>
 5    0  0.5735425E-005  0.2789090E+03  0.7546771E-02  0.1096286E+00
         21   -1    0    0  502  501  0.00000000000E+00  0.00000000000E+00  0.28218355073E+03  0.28218355073E+03  0.00000000000E+00 0.  1.
         21   -1    0    0  501  502 -0.00000000000E+00 -0.00000000000E+00 -0.27567240765E+03  0.27567240765E+03  0.00000000000E+00 0.  1.
         25    1    1    2    0    0  0.94758901337E+02  0.13585269774E+03  0.53238621682E+02  0.21423014658E+03  0.12500000000E+03 0.  0.
         25    1    1    2    0    0 -0.13007884863E+03 -0.90360158139E+02 -0.40902017003E+02  0.20587238774E+03  0.12500000000E+03 0.  0.
         25    1    1    2    0    0  0.35319947293E+02 -0.45492539606E+02 -0.58254615999E+01  0.13775342406E+03  0.12500000000E+03 0.  0.
</event>
<event>
 5    0  0.6188042E-005  0.2921885E+03  0.7546771E-02  0.1089212E+00
         21   -1    0    0  502  501  0.00000000000E+00  0.00000000000E+00  0.63199341610E+03  0.63199341610E+03  0.00000000000E+00 0. -1.
         21   -1    0    0  501  502 -0.00000000000E+00 -0.00000000000E+00 -0.13508705924E+03  0.13508705924E+03  0.00000000000E+00 0. -1.
         25    1    1    2    0    0  0.23841701497E+02 -0.11955354835E+03  0.14898377132E+03  0.22952699573E+03  0.12500000000E+03 0.  0.
         25    1    1    2    0    0 -0.56058993502E+02 -0.65490978696E+02  0.42213489345E+02  0.15760284809E+03  0.12500000000E+03 0.  0.
         25    1    1    2    0    0  0.32217292005E+02  0.18504452705E+03  0.30570909620E+03  0.37995063152E+03  0.12500000000E+03 0.  0.
</event>
<event>
 5    0  0.5993210E-005  0.2746029E+03  0.7546771E-02  0.1098674E+00
         21   -1    0    0  502  501  0.00000000000E+00  0.00000000000E+00  0.15597917906E+03  0.15597917906E+03  0.00000000000E+00 0.  1.
         21   -1    0    0  501  502 -0.00000000000E+00 -0.00000000000E+00 -0.48344115489E+03  0.48344115489E+03  0.00000000000E+00 0.  1.
         25    1    1    2    0    0 -0.11381515818E+03  0.13639222415E+03 -0.15497617688E+03  0.26683205288E+03  0.12500000000E+03 0.  0.
         25    1    1    2    0    0  0.91146991540E+02 -0.36266281320E+02 -0.40908580002E+02  0.16407781430E+03  0.12500000000E+03 0.  0.
         25    1    1    2    0    0  0.22668166638E+02 -0.10012594283E+03 -0.13157721895E+03  0.20851046677E+03  0.12500000000E+03 0.  0.
</event>
<event>
 5    0  0.6952706E-005  0.3290861E+03  0.7546771E-02  0.1071542E+00
         21   -1    0    0  502  501  0.00000000000E+00  0.00000000000E+00  0.14680619796E+03  0.14680619796E+03  0.00000000000E+00 0.  1.
         21   -1    0    0  501  502 -0.00000000000E+00 -0.00000000000E+00 -0.73769148594E+03  0.73769148594E+03  0.00000000000E+00 0.  1.
         25    1    1    2    0    0 -0.95895140859E+02 -0.13172113349E+03 -0.28218989110E+03  0.34900210556E+03  0.12500000000E+03 0.  0.
         25    1    1    2    0    0  0.10704542215E+03  0.10712826910E+03 -0.34981698080E+03  0.40116344362E+03  0.12500000000E+03 0.  0.
         25    1    1    2    0    0 -0.11150281292E+02  0.24592864395E+02  0.41121583913E+02  0.13433213471E+03  0.12500000000E+03 0.  0.
</event>
<event>
 5    0  0.5735425E-005  0.4653582E+03  0.7546771E-02  0.1023239E+00
         21   -1    0    0  502  501  0.00000000000E+00  0.00000000000E+00  0.15374750443E+03  0.15374750443E+03  0.00000000000E+00 0. -1.
         21   -1    0    0  501  502 -0.00000000000E+00 -0.00000000000E+00 -0.14085320146E+04  0.14085320146E+04  0.00000000000E+00 0. -1.
         25    1    1    2    0    0 -0.18655979203E+03  0.10101046336E+03 -0.45080710257E+03  0.51367276883E+03  0.12500000000E+03 0.  0.
         25    1    1    2    0    0  0.99403190781E+02 -0.27955776481E+03 -0.15273500068E+03  0.35635167831E+03  0.12500000000E+03 0.  0.
         25    1    1    2    0    0  0.87156601249E+02  0.17854730145E+03 -0.65124240696E+03  0.69225507193E+03  0.12500000000E+03 0.  0.
</event>
<event>
 5    0  0.6561900E-005  0.3588258E+03  0.7546771E-02  0.1059050E+00
         21   -1    0    0  502  501  0.00000000000E+00  0.00000000000E+00  0.17635267283E+03  0.17635267283E+03  0.00000000000E+00 0.  1.
         21   -1    0    0  501  502 -0.00000000000E+00 -0.00000000000E+00 -0.73010479013E+03  0.73010479013E+03  0.00000000000E+00 0.  1.
         25    1    1    2    0    0  0.59347648876E+02 -0.14088619671E+03 -0.11475137456E+02  0.19780733715E+03  0.12500000000E+03 0.  0.
         25    1    1    2    0    0  0.34401271994E+02  0.18162713923E+02 -0.48429846491E+03  0.50168051069E+03  0.12500000000E+03 0.  0.
         25    1    1    2    0    0 -0.93748920870E+02  0.12272348279E+03 -0.57978514931E+02  0.20696961513E+03  0.12500000000E+03 0.  0.
</event>
<event>
 5    0  0.5735425E-005  0.2939201E+03  0.7546771E-02  0.1088320E+00
         21   -1    0    0  502  501  0.00000000000E+00  0.00000000000E+00  0.88502400189E+02  0.88502400189E+02  0.00000000000E+00 0. -1.
         21   -1    0    0  501  502 -0.00000000000E+00 -0.00000000000E+00 -0.97612072980E+03  0.97612072980E+03  0.00000000000E+00 0. -1.
         25    1    1    2    0    0  0.37109775469E+02 -0.29049261517E+02 -0.10088415646E+03  0.16740253300E+03  0.12500000000E+03 0.  0.
         25    1    1    2    0    0 -0.11823849528E+03  0.56293656687E+02 -0.12907438424E+03  0.22233873755E+03  0.12500000000E+03 0.  0.
         25    1    1    2    0    0  0.81128719809E+02 -0.27244395170E+02 -0.65765978892E+03  0.67488185944E+03  0.12500000000E+03 0.  0.
</event>
<event>
 5    0  0.5735425E-005  0.3110962E+03  0.7546771E-02  0.1079822E+00
         21   -1    0    0  502  501  0.00000000000E+00  0.00000000000E+00  0.72055110453E+02  0.72055110453E+02  0.00000000000E+00 0. -1.
         21   -1    0    0  501  502 -0.00000000000E+00 -0.00000000000E+00 -0.13431507140E+04  0.13431507140E+04  0.00000000000E+00 0. -1.
         25    1    1    2    0    0 -0.14156677434E+03 -0.91330703257E+01 -0.65682007413E+03  0.68349262933E+03  0.12500000000E+03 0.  0.
         25    1    1    2    0    0  0.77138471178E+02 -0.12916995692E+03 -0.24957778858E+03  0.31709508678E+03  0.12500000000E+03 0.  0.
         25    1    1    2    0    0  0.64428303165E+02  0.13830302724E+03 -0.36469774082E+03  0.41461810833E+03  0.12500000000E+03 0.  0.
</event>
<event>
 5    0  0.5735425E-005  0.2829317E+03  0.7546771E-02  0.1094098E+00
         21   -1    0    0  502  501  0.00000000000E+00  0.00000000000E+00  0.68324532908E+03  0.68324532908E+03  0.00000000000E+00 0.  1.
         21   -1    0    0  501  502 -0.00000000000E+00 -0.00000000000E+00 -0.11716195215E+03  0.11716195215E+03  0.00000000000E+00 0.  1.
         25    1    1    2    0    0  0.76165658531E+02  0.32229411502E+02  0.41029130470E+01  0.14993924236E+03  0.12500000000E+03 0.  0.
         25    1    1    2    0    0 -0.86635737750E+02  0.24936502449E+02  0.14619867695E+03  0.21243030234E+03  0.12500000000E+03 0.  0.
         25    1    1    2    0    0  0.10470079219E+02 -0.57165913951E+02  0.41578178693E+03  0.43803773653E+03  0.12500000000E+03 0.  0.
</event>
<event>
 5    0  0.5735425E-005  0.4200165E+03  0.7546771E-02  0.1037061E+00
         21   -1    0    0  502  501  0.00000000000E+00  0.00000000000E+00  0.51208345896E+03  0.51208345896E+03  0.00000000000E+00 0. -1.
         21   -1    0    0  501  502 -0.00000000000E+00 -0.00000000000E+00 -0.34450210507E+03  0.34450210507E+03  0.00000000000E+00 0. -1.
         25    1    1    2    0    0 -0.23236780867E+03 -0.13590765660E+03 -0.57302355522E+02  0.30228173874E+03  0.12500000000E+03 0.  0.
         25    1    1    2    0    0  0.36392350844E+02  0.21337839744E+03  0.54398284185E+02  0.25581031452E+03  0.12500000000E+03 0.  0.
         25    1    1    2    0    0  0.19597545783E+03 -0.77470740840E+02  0.17048542523E+03  0.29849351077E+03  0.12500000000E+03 0.  0.
</event>
<event>
 5    0  0.5735425E-005  0.2875302E+03  0.7546771E-02  0.1091646E+00
         21   -1    0    0  502  501  0.00000000000E+00  0.00000000000E+00  0.78985566681E+03  0.78985566681E+03  0.00000000000E+00 0.  1.
         21   -1    0    0  501  502 -0.00000000000E+00 -0.00000000000E+00 -0.10466923909E+03  0.10466923909E+03  0.00000000000E+00 0.  1.
         25    1    1    2    0    0 -0.97060905237E+02  0.13203143032E+02  0.30819758739E+03  0.34670721824E+03  0.12500000000E+03 0.  0.
         25    1    1    2    0    0 -0.57515267103E+02 -0.92851988493E+01  0.20220956506E+02  0.13938474791E+03  0.12500000000E+03 0.  0.
         25    1    1    2    0    0  0.15457617234E+03 -0.39179441825E+01  0.35676788383E+03  0.40843293975E+03  0.12500000000E+03 0.  0.
</event>
<event>
 5    0  0.5735425E-005  0.2587048E+03  0.7546771E-02  0.1107924E+00
         21   -1    0    0  502  501  0.00000000000E+00  0.00000000000E+00  0.52781055953E+02  0.52781055953E+02  0.00000000000E+00 0.  1.
         21   -1    0    0  501  502 -0.00000000000E+00 -0.00000000000E+00 -0.12680339040E+04  0.12680339040E+04  0.00000000000E+00 0.  1.
         25    1    1    2    0    0  0.27392785193E+02  0.16661441342E+03 -0.48035607008E+03  0.52428778500E+03  0.12500000000E+03 0.  0.
         25    1    1    2    0    0  0.11040148043E+02 -0.83440040152E+02 -0.32255483443E+03  0.35602071061E+03  0.12500000000E+03 0.  0.
         25    1    1    2    0    0 -0.38432933236E+02 -0.83174373265E+02 -0.41234194351E+03  0.44050646431E+03  0.12500000000E+03 0.  0.
</event>
<event>
 5    0  0.5735425E-005  0.2761596E+03  0.7546771E-02  0.1097805E+00
         21   -1    0    0  502  501  0.00000000000E+00  0.00000000000E+00  0.57122634091E+03  0.57122634091E+03  0.00000000000E+00 0. -1.
         21   -1    0    0  501  502 -0.00000000000E+00 -0.00000000000E+00 -0.13350943751E+03  0.13350943751E+03  0.00000000000E+00 0. -1.
         25    1    1    2    0    0 -0.10981383029E+02  0.50528220528E+02  0.15388799588E+03  0.20489071994E+03  0.12500000000E+03 0.  0.
         25    1    1    2    0    0 -0.80608350362E+02  0.72648440679E+02  0.15298548167E+02  0.16623642097E+03  0.12500000000E+03 0.  0.
         25    1    1    2    0    0  0.91589733391E+02 -0.12317666121E+03  0.26853035935E+03  0.33360863751E+03  0.12500000000E+03 0.  0.
</event>
<event>
 5    0  0.5735425E-005  0.2321803E+03  0.7546771E-02  0.1125115E+00
         21   -1    0    0  502  501  0.00000000000E+00  0.00000000000E+00  0.24230119199E+03  0.24230119199E+03  0.00000000000E+00 0.  1.
         21   -1    0    0  501  502 -0.00000000000E+00 -0.00000000000E+00 -0.22248214251E+03  0.22248214251E+03  0.00000000000E+00 0.  1.
         25    1    1    2    0    0 -0.24548453418E+02  0.20648255853E+02  0.12813099749E+03  0.18185579329E+03  0.12500000000E+03 0.  0.
         25    1    1    2    0    0  0.66964071625E+01 -0.31974976283E+01 -0.89869591129E+02  0.15413179189E+03  0.12500000000E+03 0.  0.
         25    1    1    2    0    0  0.17852046255E+02 -0.17450758225E+02 -0.18442356877E+02  0.12879574933E+03  0.12500000000E+03 0.  0.
</event>
<event>
 5    0  0.5735425E-005  0.2136690E+03  0.7546771E-02  0.1138693E+00
         21   -1    0    0  502  501  0.00000000000E+00  0.00000000000E+00  0.12361572266E+03  0.12361572266E+03  0.00000000000E+00 0.  1.
         21   -1    0    0  501  502 -0.00000000000E+00 -0.00000000000E+00 -0.36932564452E+03  0.36932564452E+03  0.00000000000E+00 0.  1.
         25    1    1    2    0    0 -0.76401684747E+01  0.62891515683E+02 -0.27285219694E+02  0.14276973816E+03  0.12500000000E+03 0.  0.
         25    1    1    2    0    0  0.45755624433E+02 -0.49039403763E+02 -0.10360157437E+03  0.17566082802E+03  0.12500000000E+03 0.  0.
         25    1    1    2    0    0 -0.38115455959E+02 -0.13852111920E+02 -0.11482312781E+03  0.17451080100E+03  0.12500000000E+03 0.  0.
</event>
<event>
 5    0  0.5735425E-005  0.2732506E+03  0.7546771E-02  0.1099434E+00
         21   -1    0    0  502  501  0.00000000000E+00  0.00000000000E+00  0.63921404713E+02  0.63921404713E+02  0.00000000000E+00 0. -1.
         21   -1    0    0  501  502 -0.00000000000E+00 -0.00000000000E+00 -0.11680887918E+04  0.11680887918E+04  0.00000000000E+00 0. -1.
         25    1    1    2    0    0  0.18086079732E+03  0.31486060372E+02 -0.48016528882E+03  0.52904225218E+03  0.12500000000E+03 0.  0.
         25    1    1    2    0    0 -0.66347804918E+02  0.23861095347E+02 -0.31605776694E+03  0.34711510358E+03  0.12500000000E+03 0.  0.
         25    1    1    2    0    0 -0.11451299240E+03 -0.55347155719E+02 -0.30794433131E+03  0.35585284074E+03  0.12500000000E+03 0.  0.
</event>
<event>
 5    0  0.5735425E-005  0.2230819E+03  0.7546771E-02  0.1131606E+00
         21   -1    0    0  502  501  0.00000000000E+00  0.00000000000E+00  0.64515979352E+02  0.64515979352E+02  0.00000000000E+00 0.  1.
         21   -1    0    0  501  502 -0.00000000000E+00 -0.00000000000E+00 -0.77136761785E+03  0.77136761785E+03  0.00000000000E+00 0.  1.
         25    1    1    2    0    0 -0.14496503287E+02  0.14384356391E+02 -0.11985954379E+03  0.17437995456E+03  0.12500000000E+03 0.  0.
         25    1    1    2    0    0  0.12705320995E+02 -0.86315599976E+02 -0.37795495091E+03  0.40753742515E+03  0.12500000000E+03 0.  0.
         25    1    1    2    0    0  0.17911822917E+01  0.71931243584E+02 -0.20903714380E+03  0.25396621749E+03  0.12500000000E+03 0.  0.
</event>
<event>
 5    0  0.5735425E-005  0.2266094E+03  0.7546771E-02  0.1129049E+00
         21   -1    0    0  502  501  0.00000000000E+00  0.00000000000E+00  0.18713682026E+04  0.18713682026E+04  0.00000000000E+00 0. -1.
         21   -1    0    0  501  502 -0.00000000000E+00 -0.00000000000E+00 -0.27440778187E+02  0.27440778187E+02  0.00000000000E+00 0. -1.
         25    1    1    2    0    0  0.87024482299E+02 -0.58832075185E+02  0.75315394928E+03  0.77064930086E+03  0.12500000000E+03 0.  0.
         25    1    1    2    0    0 -0.50973922794E+02  0.63507050425E+02  0.71726745159E+03  0.73261796550E+03  0.12500000000E+03 0.  0.
         25    1    1    2    0    0 -0.36050559506E+02 -0.46749752400E+01  0.37350602350E+03  0.39554171439E+03  0.12500000000E+03 0.  0.
</event>
<event>
 5    0  0.5735425E-005  0.2165643E+03  0.7546771E-02  0.1136471E+00
         21   -1    0    0  502  501  0.00000000000E+00  0.00000000000E+00  0.33485769810E+03  0.33485769810E+03  0.00000000000E+00 0.  1.
         21   -1    0    0  501  502 -0.00000000000E+00 -0.00000000000E+00 -0.14005974009E+03  0.14005974009E+03  0.00000000000E+00 0.  1.
         25    1    1    2    0    0  0.10977507603E+02  0.41118877446E+02 -0.15894459688E+02  0.13299963009E+03  0.12500000000E+03 0.  0.
         25    1    1    2    0    0  0.29344476191E+02 -0.12109182301E+02  0.13854751463E+03  0.18928323853E+03  0.12500000000E+03 0.  0.
         25    1    1    2    0    0 -0.40321983794E+02 -0.29009695145E+02  0.72144903069E+02  0.15263456957E+03  0.12500000000E+03 0.  0.
</event>
<event>
 5    0  0.5735425E-005  0.4497535E+03  0.7546771E-02  0.1027796E+00
         21   -1    0    0  502  501  0.00000000000E+00  0.00000000000E+00  0.43795534603E+03  0.43795534603E+03  0.00000000000E+00 0.  1.
         21   -1    0    0  501  502 -0.00000000000E+00 -0.00000000000E+00 -0.46186958571E+03  0.46186958571E+03  0.00000000000E+00 0.  1.
         25    1    1    2    0    0  0.72387023457E+02 -0.22944711216E+03 -0.25772753498E+03  0.37407798750E+03  0.12500000000E+03 0.  0.
         25    1    1    2    0    0 -0.19554291557E+02 -0.12806928501E+02 -0.42437656404E+02  0.13406096530E+03  0.12500000000E+03 0.  0.
         25    1    1    2    0    0 -0.52832731900E+02  0.24225404066E+03  0.27625095171E+03  0.39168597894E+03  0.12500000000E+03 0.  0.
</event>
<event>
 5    0  0.5735425E-005  0.2455314E+03  0.7546771E-02  0.1116162E+00
         21   -1    0    0  502  501  0.00000000000E+00  0.00000000000E+00  0.54676392592E+03  0.54676392592E+03  0.00000000000E+00 0.  1.
         21   -1    0    0  501  502 -0.00000000000E+00 -0.00000000000E+00 -0.11025903564E+03  0.11025903564E+03  0.00000000000E+00 0.  1.
         25    1    1    2    0    0  0.37335874915E+02 -0.12049453156E+03  0.14605160435E+03  0.22993253537E+03  0.12500000000E+03 0.  0.
         25    1    1    2    0    0 -0.38789264108E+02  0.70662615094E+02  0.24200883375E+03  0.28406176757E+03  0.12500000000E+03 0.  0.
         25    1    1    2    0    0  0.14533891933E+01  0.49831916465E+02  0.48444452176E+02  0.14302865862E+03  0.12500000000E+03 0.  0.
</event>
<event>
 5    0  0.5735425E-005  0.2437274E+03  0.7546771E-02  0.1117334E+00
         21   -1    0    0  502  501  0.00000000000E+00  0.00000000000E+00  0.13881495116E+03  0.13881495116E+03  0.00000000000E+00 0.  1.
         21   -1    0    0  501  502 -0.00000000000E+00 -0.00000000000E+00 -0.42792986813E+03  0.42792986813E+03  0.00000000000E+00 0.  1.
         25    1    1    2    0    0 -0.33649246654E+02 -0.78123122380E+02 -0.27961458059E+01  0.15122272475E+03  0.12500000000E+03 0.  0.
         25    1    1    2    0    0  0.38147409502E+02  0.23677856605E+02 -0.48579090240E+02  0.14142416255E+03  0.12500000000E+03 0.  0.
         25    1    1    2    0    0 -0.44981628484E+01  0.54445265775E+02 -0.23773968092E+03  0.27409793198E+03  0.12500000000E+03 0.  0.
</event>
<event>
 5    0  0.5735425E-005  0.2480710E+03  0.7546771E-02  0.1114530E+00
         21   -1    0    0  502  501  0.00000000000E+00  0.00000000000E+00  0.44179464741E+03  0.44179464741E+03  0.00000000000E+00 0. -1.
         21   -1    0    0  501  502 -0.00000000000E+00 -0.00000000000E+00 -0.13929369813E+03  0.13929369813E+03  0.00000000000E+00 0. -1.
         25    1    1    2    0    0 -0.20194763817E+01  0.66279600684E+02  0.18112363596E+03  0.22984306658E+03  0.12500000000E+03 0.  0.
         25    1    1    2    0    0 -0.58871852063E+02 -0.73298161263E+02 -0.14030086311E+02  0.15703617014E+03  0.12500000000E+03 0.  0.
         25    1    1    2    0    0  0.60891328445E+02  0.70185605795E+01  0.13540739963E+03  0.19420910882E+03  0.12500000000E+03 0.  0.
</event>
<event>
 5    0  0.5735425E-005  0.3172708E+03  0.7546771E-02  0.1076912E+00
         21   -1    0    0  502  501  0.00000000000E+00  0.00000000000E+00  0.22365348090E+03  0.22365348090E+03  0.00000000000E+00 0.  1.
         21   -1    0    0  501  502 -0.00000000000E+00 -0.00000000000E+00 -0.45007467402E+03  0.45007467402E+03  0.00000000000E+00 0.  1.
         25    1    1    2    0    0  0.28795309174E+02  0.16540718373E+03 -0.15422200826E+03  0.25999641169E+03  0.12500000000E+03 0.  0.
         25    1    1    2    0    0 -0.10623698489E+03 -0.23401002400E+02 -0.11901509307E+03  0.20401837234E+03  0.12500000000E+03 0.  0.
         25    1    1    2    0    0  0.77441675712E+02 -0.14200618133E+03  0.46815908215E+02  0.20971337090E+03  0.12500000000E+03 0.  0.
</event>
<event>
 5    0  0.6040252E-005  0.3492058E+03  0.7546771E-02  0.1062941E+00
         21   -1    0    0  502  501  0.00000000000E+00  0.00000000000E+00  0.29060100404E+03  0.29060100404E+03  0.00000000000E+00 0. -1.
         21   -1    0    0  501  502 -0.00000000000E+00 -0.00000000000E+00 -0.41962925390E+03  0.41962925390E+03  0.00000000000E+00 0. -1.
         25    1    1    2    0    0 -0.97871531249E+00  0.10900508876E+03  0.97330148269E+02  0.19230503119E+03  0.12500000000E+03 0.  0.
         25    1    1    2    0    0 -0.14734049946E+03  0.12431017109E+02  0.33898059352E+01  0.19364979667E+03  0.12500000000E+03 0.  0.
         25    1    1    2    0    0  0.14831921477E+03 -0.12143610587E+03 -0.22974820406E+03  0.32427543007E+03  0.12500000000E+03 0.  0.
</event>
<event>
 5    0  0.5735425E-005  0.2174053E+03  0.7546771E-02  0.1135832E+00
         21   -1    0    0  502  501  0.00000000000E+00  0.00000000000E+00  0.20994753725E+04  0.20994753725E+04  0.00000000000E+00 0.  1.
         21   -1    0    0  501  502 -0.00000000000E+00 -0.00000000000E+00 -0.22512796694E+02  0.22512796694E+02  0.00000000000E+00 0.  1.
         25    1    1    2    0    0  0.50257214589E+02 -0.30749266450E+02  0.89595295714E+03  0.90654729960E+03  0.12500000000E+03 0.  0.
         25    1    1    2    0    0 -0.79864939585E+02  0.34733013068E+02  0.76535522654E+03  0.78037068984E+03  0.12500000000E+03 0.  0.
         25    1    1    2    0    0  0.29607724996E+02 -0.39837466175E+01  0.41565439217E+03  0.43507017979E+03  0.12500000000E+03 0.  0.
</event>
<event>
 5    0  0.5735425E-005  0.3311323E+03  0.7546771E-02  0.1070637E+00
         21   -1    0    0  502  501  0.00000000000E+00  0.00000000000E+00  0.18600598359E+03  0.18600598359E+03  0.00000000000E+00 0. -1.
         21   -1    0    0  501  502 -0.00000000000E+00 -0.00000000000E+00 -0.58948978759E+03  0.58948978759E+03  0.00000000000E+00 0. -1.
         25    1    1    2    0    0 -0.15173811426E+03  0.11347492461E+03 -0.34824221093E+02  0.22964916767E+03  0.12500000000E+03 0.  0.
         25    1    1    2    0    0  0.66341266732E+02  0.16604278245E+02 -0.30450881498E+03  0.33619560397E+03  0.12500000000E+03 0.  0.
         25    1    1    2    0    0  0.85396847529E+02 -0.13007920286E+03 -0.64150767935E+02  0.20965099955E+03  0.12500000000E+03 0.  0.
</event>
<event>
 5    0  0.5735425E-005  0.3502709E+03  0.7546771E-02  0.1062504E+00
         21   -1    0    0  502  501  0.00000000000E+00  0.00000000000E+00  0.64408278806E+03  0.64408278806E+03  0.00000000000E+00 0.  1.
         21   -1    0    0  501  502 -0.00000000000E+00 -0.00000000000E+00 -0.19048743484E+03  0.19048743484E+03  0.00000000000E+00 0.  1.
         25    1    1    2    0    0  0.97249758123E+02 -0.12984580958E+03 -0.34513312954E+01  0.20482763829E+03  0.12500000000E+03 0.  0.
         25    1    1    2    0    0 -0.70788244463E+02  0.14733071986E+03  0.45655114456E+03  0.50078065475E+03  0.12500000000E+03 0.  0.
         25    1    1    2    0    0 -0.26461513660E+02 -0.17484910278E+02  0.49553994573E+00  0.12896192986E+03  0.12500000000E+03 0.  0.
</event>
<event>
 5    0  0.5735425E-005  0.4216816E+03  0.7546771E-02  0.1036520E+00
         21   -1    0    0  502  501  0.00000000000E+00  0.00000000000E+00  0.14707673943E+04  0.14707673943E+04  0.00000000000E+00 0.  1.
         21   -1    0    0  501  502 -0.00000000000E+00 -0.00000000000E+00 -0.12089973107E+03  0.12089973107E+03  0.00000000000E+00 0.  1.
         25    1    1    2    0    0  0.18688018735E+03 -0.15865665549E+03  0.77659034023E+03  0.82390150824E+03  0.12500000000E+03 0.  0.
         25    1    1    2    0    0 -0.24174513002E+03 -0.25844232667E+02  0.24422277054E+03  0.36657658668E+03  0.12500000000E+03 0.  0.
         25    1    1    2    0    0  0.54864942666E+02  0.18450088815E+03  0.32905455247E+03  0.40118903046E+03  0.12500000000E+03 0.  0.
</event>
<event>
 5    0  0.6237229E-005  0.3136502E+03  0.7546771E-02  0.1078609E+00
         21   -1    0    0  502  501  0.00000000000E+00  0.00000000000E+00  0.39585166686E+03  0.39585166686E+03  0.00000000000E+00 0.  1.
         21   -1    0    0  501  502 -0.00000000000E+00 -0.00000000000E+00 -0.24851853478E+03  0.24851853478E+03  0.00000000000E+00 0.  1.
         25    1    1    2    0    0 -0.14079574733E+03  0.73557480686E+02  0.28508098744E+02  0.20413685881E+03  0.12500000000E+03 0.  0.
         25    1    1    2    0    0 -0.46507642891E+02 -0.19065539957E+02  0.15541115406E+03  0.20567956259E+03  0.12500000000E+03 0.  0.
         25    1    1    2    0    0  0.18730339022E+03 -0.54491940729E+02 -0.36586120719E+02  0.23455378023E+03  0.12500000000E+03 0.  0.
</event>
<event>
 5    0  0.5735425E-005  0.5111423E+03  0.7546771E-02  0.1010911E+00
         21   -1    0    0  502  501  0.00000000000E+00  0.00000000000E+00  0.81091580692E+02  0.81091580692E+02  0.00000000000E+00 0. -1.
         21   -1    0    0  501  502 -0.00000000000E+00 -0.00000000000E+00 -0.32218689209E+04  0.32218689209E+04  0.00000000000E+00 0. -1.
         25    1    1    2    0    0 -0.97971657100E+02  0.10668759630E+03 -0.48779019059E+02  0.19744640159E+03  0.12500000000E+03 0.  0.
         25    1    1    2    0    0  0.46885550096E+02 -0.61647634713E+02 -0.15524048693E+04  0.15593538931E+04  0.12500000000E+03 0.  0.
         25    1    1    2    0    0  0.51086107005E+02 -0.45039961586E+02 -0.15395934518E+04  0.15461602069E+04  0.12500000000E+03 0.  0.
</event>
<event>
 5    0  0.5735425E-005  0.2960111E+03  0.7546771E-02  0.1087252E+00
         21   -1    0    0  502  501  0.00000000000E+00  0.00000000000E+00  0.78991661481E+03  0.78991661481E+03  0.00000000000E+00 0.  1.
         21   -1    0    0  501  502 -0.00000000000E+00 -0.00000000000E+00 -0.11092634209E+03  0.11092634209E+03  0.00000000000E+00 0.  1.
         25    1    1    2    0    0 -0.90857569276E+02  0.14251617259E+03  0.25788165679E+03  0.33270693749E+03  0.12500000000E+03 0.  0.
         25    1    1    2    0    0  0.10044561561E+03 -0.10882082074E+03  0.92347037199E+02  0.21467246680E+03  0.12500000000E+03 0.  0.
         25    1    1    2    0    0 -0.95880463371E+01 -0.33695351854E+02  0.32876157873E+03  0.35346355260E+03  0.12500000000E+03 0.  0.
</event>
<event>
 5    0  0.5735425E-005  0.3582835E+03  0.7546771E-02  0.1059266E+00
         21   -1    0    0  502  501  0.00000000000E+00  0.00000000000E+00  0.16109173865E+03  0.16109173865E+03  0.00000000000E+00 0.  1.
         21   -1    0    0  501  502 -0.00000000000E+00 -0.00000000000E+00 -0.79685698812E+03  0.79685698812E+03  0.00000000000E+00 0.  1.
         25    1    1    2    0    0 -0.64976727523E+02 -0.49075974312E+01 -0.23994487103E+03  0.27828870039E+03  0.12500000000E+03 0.  0.
         25    1    1    2    0    0 -0.57406921997E+02 -0.16684547143E+03 -0.25699631869E+01  0.21625117512E+03  0.12500000000E+03 0.  0.
         25    1    1    2    0    0  0.12238364952E+03  0.17175306886E+03 -0.39325041525E+03  0.46340885126E+03  0.12500000000E+03 0.  0.
</event>
<event>
 5    0  0.5735425E-005  0.3210068E+03  0.7546771E-02  0.1075187E+00
         21   -1    0    0  502  501  0.00000000000E+00  0.00000000000E+00  0.19109288835E+04  0.19109288835E+04  0.00000000000E+00 0. -1.
         21   -1    0    0  501  502 -0.00000000000E+00 -0.00000000000E+00 -0.53924232045E+02  0.53924232045E+02  0.00000000000E+00 0. -1.
         25    1    1    2    0    0 -0.14318031320E+02 -0.56092781213E+02  0.44708297898E+03  0.46782432196E+03  0.12500000000E+03 0.  0.
         25    1    1    2    0    0  0.13207625196E+03  0.87873214983E+02  0.12292960379E+04  0.12457767003E+04  0.12500000000E+03 0.  0.
         25    1    1    2    0    0 -0.11775822064E+03 -0.31780433771E+02  0.18062563452E+03  0.25125209321E+03  0.12500000000E+03 0.  0.
</event>
<event>
 5    0  0.5735425E-005  0.2445865E+03  0.7546771E-02  0.1116775E+00
         21   -1    0    0  502  501  0.00000000000E+00  0.00000000000E+00  0.74395528324E+03  0.74395528324E+03  0.00000000000E+00 0.  1.
         21   -1    0    0  501  502 -0.00000000000E+00 -0.00000000000E+00 -0.80411482792E+02  0.80411482792E+02  0.00000000000E+00 0.  1.
         25    1    1    2    0    0  0.18603815735E+02  0.37705308854E+02  0.56486421570E+02  0.14346953718E+03  0.12500000000E+03 0.  0.
         25    1    1    2    0    0 -0.89085915219E+02 -0.18275650584E+02  0.39444785466E+03  0.42365600402E+03  0.12500000000E+03 0.  0.
         25    1    1    2    0    0  0.70482099483E+02 -0.19429658270E+02  0.21260952422E+03  0.25724122484E+03  0.12500000000E+03 0.  0.
</event>
<event>
 5    0  0.5735425E-005  0.3686242E+03  0.7546771E-02  0.1055220E+00
         21   -1    0    0  502  501  0.00000000000E+00  0.00000000000E+00  0.89342671535E+03  0.89342671535E+03  0.00000000000E+00 0. -1.
         21   -1    0    0  501  502 -0.00000000000E+00 -0.00000000000E+00 -0.15209283973E+03  0.15209283973E+03  0.00000000000E+00 0. -1.
         25    1    1    2    0    0 -0.70942045844E+02  0.41557895929E+02  0.22666855090E+03  0.27159430139E+03  0.12500000000E+03 0.  0.
         25    1    1    2    0    0 -0.11638350219E+03  0.19890259799E+02  0.51239872521E+03  0.54047959777E+03  0.12500000000E+03 0.  0.
         25    1    1    2    0    0  0.18732554803E+03 -0.61448155728E+02  0.22665995170E+01  0.23344565591E+03  0.12500000000E+03 0.  0.
</event>
<event>
 5    0  0.5735425E-005  0.2863983E+03  0.7546771E-02  0.1092245E+00
         21   -1    0    0  502  501  0.00000000000E+00  0.00000000000E+00  0.31317667346E+03  0.31317667346E+03  0.00000000000E+00 0.  1.
         21   -1    0    0  501  502 -0.00000000000E+00 -0.00000000000E+00 -0.26190956659E+03  0.26190956659E+03  0.00000000000E+00 0.  1.
         25    1    1    2    0    0  0.23127754593E+02  0.11451005135E+03  0.91597742463E+02  0.19406852222E+03  0.12500000000E+03 0.  0.
         25    1    1    2    0    0  0.42013135860E+02  0.67360183305E+02 -0.45090081946E+01  0.14814799707E+03  0.12500000000E+03 0.  0.
         25    1    1    2    0    0 -0.65140890452E+02 -0.18187023465E+03 -0.35821627398E+02  0.23286972077E+03  0.12500000000E+03 0.  0.
</event>
<event>
 5    0  0.5735425E-005  0.4169043E+03  0.7546771E-02  0.1038079E+00
         21   -1    0    0  502  501  0.00000000000E+00  0.00000000000E+00  0.20639084428E+04  0.20639084428E+04  0.00000000000E+00 0. -1.
         21   -1    0    0  501  502 -0.00000000000E+00 -0.00000000000E+00 -0.84213621017E+02  0.84213621017E+02  0.00000000000E+00 0. -1.
         25    1    1    2    0    0  0.25693086114E+03 -0.13358185908E+03  0.73567976423E+03  0.80044193792E+03  0.12500000000E+03 0.  0.
         25    1    1    2    0    0 -0.23368587331E+03 -0.66294016141E+02  0.78440366063E+03  0.83061307886E+03  0.12500000000E+03 0.  0.
         25    1    1    2    0    0 -0.23244987830E+02  0.19987587522E+03  0.45961139694E+03  0.51706704705E+03  0.12500000000E+03 0.  0.
</event>
<event>
 5    0  0.5735425E-005  0.3265569E+03  0.7546771E-02  0.1072671E+00
         21   -1    0    0  502  501  0.00000000000E+00  0.00000000000E+00  0.61080419311E+02  0.61080419311E+02  0.00000000000E+00 0.  1.
         21   -1    0    0  501  502 -0.00000000000E+00 -0.00000000000E+00 -0.17458853415E+04  0.17458853415E+04  0.00000000000E+00 0.  1.
         25    1    1    2    0    0  0.18368339369E+03  0.25890913025E+02 -0.58431921650E+03  0.62567074030E+03  0.12500000000E+03 0.  0.
         25    1    1    2    0    0 -0.14239748510E+02 -0.14099299426E+03 -0.51253796843E+03  0.54626180899E+03  0.12500000000E+03 0.  0.
         25    1    1    2    0    0 -0.16944364518E+03  0.11510208124E+03 -0.58794773723E+03  0.63503321150E+03  0.12500000000E+03 0.  0.
</event>
<event>
 5    0  0.5814012E-005  0.3310391E+03  0.7546771E-02  0.1070678E+00
         21   -1    0    0  502  501  0.00000000000E+00  0.00000000000E+00  0.31904619393E+03  0.31904619393E+03  0.00000000000E+00 0.  1.
         21   -1    0    0  501  502 -0.00000000000E+00 -0.00000000000E+00 -0.34348287820E+03  0.34348287820E+03  0.00000000000E+00 0.  1.
         25    1    1    2    0    0 -0.89516147158E+02  0.65705251606E+02  0.91402969492E+02  0.19055136715E+03  0.12500000000E+03 0.  0.
         25    1    1    2    0    0  0.60899350648E+02  0.15095938718E+03 -0.40685730653E+02  0.20923144163E+03  0.12500000000E+03 0.  0.
         25    1    1    2    0    0  0.28616796510E+02 -0.21666463879E+03 -0.75153923108E+02  0.26274626335E+03  0.12500000000E+03 0.  0.
</event>
<event>
 5    0  0.5735425E-005  0.4435000E+03  0.7546771E-02  0.1029678E+00
         21   -1    0    0  502  501  0.00000000000E+00  0.00000000000E+00  0.54477709317E+03  0.54477709317E+03  0.00000000000E+00 0.  1.
         21   -1    0    0  501  502 -0.00000000000E+00 -0.00000000000E+00 -0.36105091190E+03  0.36105091190E+03  0.00000000000E+00 0.  1.
         25    1    1    2    0    0 -0.16603445232E+03  0.10322618293E+03 -0.59565493661E+02  0.23957489900E+03  0.12500000000E+03 0.  0.
         25    1    1    2    0    0 -0.16007545543E+03  0.37830942832E+02  0.19926767132E+03  0.28703298852E+03  0.12500000000E+03 0.  0.
         25    1    1    2    0    0  0.32610990775E+03 -0.14105712576E+03  0.44024003617E+02  0.37922011755E+03  0.12500000000E+03 0.  0.
</event>
<event>
 5    0  0.5735425E-005  0.3538648E+03  0.7546771E-02  0.1061040E+00
         21   -1    0    0  502  501  0.00000000000E+00  0.00000000000E+00  0.85587678781E+03  0.85587678781E+03  0.00000000000E+00 0. -1.
         21   -1    0    0  501  502 -0.00000000000E+00 -0.00000000000E+00 -0.14630645089E+03  0.14630645089E+03  0.00000000000E+00 0.  1.
         25    1    1    2    0    0  0.79253610495E+02  0.81777793105E+02  0.33222403055E+03  0.37278217325E+03  0.12500000000E+03 0.  0.
         25    1    1    2    0    0 -0.23704485258E+03 -0.12102038961E+03  0.26347576606E+03  0.39481726930E+03  0.12500000000E+03 0.  0.
         25    1    1    2    0    0  0.15779124209E+03  0.39242596508E+02  0.11387054030E+03  0.23458379614E+03  0.12500000000E+03 0.  0.
</event>
<event>
 5    0  0.5735425E-005  0.5265814E+03  0.7546771E-02  0.1007065E+00
         21   -1    0    0  502  501  0.00000000000E+00  0.00000000000E+00  0.28345189097E+03  0.28345189097E+03  0.00000000000E+00 0. -1.
         21   -1    0    0  501  502 -0.00000000000E+00 -0.00000000000E+00 -0.97825400517E+03  0.97825400517E+03  0.00000000000E+00 0. -1.
         25    1    1    2    0    0 -0.15004209173E+03  0.15919695290E+03 -0.64701209723E+03  0.69433850035E+03  0.12500000000E+03 0.  0.
         25    1    1    2    0    0  0.14506587591E+03 -0.28320455355E+03 -0.13895321642E+03  0.36902835102E+03  0.12500000000E+03 0.  0.
         25    1    1    2    0    0  0.49762158257E+01  0.12400760065E+03  0.91163199454E+02  0.19833904476E+03  0.12500000000E+03 0.  0.
</event>
<event>
 5    0  0.5735425E-005  0.2392789E+03  0.7546771E-02  0.1120274E+00
         21   -1    0    0  502  501  0.00000000000E+00  0.00000000000E+00  0.25818604652E+03  0.25818604652E+03  0.00000000000E+00 0. -1.
         21   -1    0    0  501  502 -0.00000000000E+00 -0.00000000000E+00 -0.22175639898E+03  0.22175639898E+03  0.00000000000E+00 0. -1.
         25    1    1    2    0    0 -0.58232338255E+02  0.55729361038E+02  0.77405546069E+02  0.16767046688E+03  0.12500000000E+03 0.  0.
         25    1    1    2    0    0  0.11082628799E+03 -0.47386798349E+02 -0.25923108563E+02  0.17557044832E+03  0.12500000000E+03 0.  0.
         25    1    1    2    0    0 -0.52593949732E+02 -0.83425626895E+01 -0.15052789969E+02  0.13670153030E+03  0.12500000000E+03 0.  0.
</event>
<event>
 5    0  0.5735425E-005  0.2426679E+03  0.7546771E-02  0.1118028E+00
         21   -1    0    0  502  501  0.00000000000E+00  0.00000000000E+00  0.26437382300E+03  0.26437382300E+03  0.00000000000E+00 0. -1.
         21   -1    0    0  501  502 -0.00000000000E+00 -0.00000000000E+00 -0.22274407966E+03  0.22274407966E+03  0.00000000000E+00 0. -1.
         25    1    1    2    0    0 -0.32377309064E+02  0.36067173419E+02 -0.44703114494E+02  0.14132409415E+03  0.12500000000E+03 0.  0.
         25    1    1    2    0    0 -0.69284594611E+02 -0.42312697581E+02  0.10665102629E+03  0.18327618731E+03  0.12500000000E+03 0.  0.
         25    1    1    2    0    0  0.10166190368E+03  0.62455241627E+01 -0.20318168459E+02  0.16251762120E+03  0.12500000000E+03 0.  0.
</event>
<event>
 5    0  0.5735425E-005  0.4066986E+03  0.7546771E-02  0.1041485E+00
         21   -1    0    0  502  501  0.00000000000E+00  0.00000000000E+00  0.62124613681E+02  0.62124613681E+02  0.00000000000E+00 0.  1.
         21   -1    0    0  501  502 -0.00000000000E+00 -0.00000000000E+00 -0.26624511687E+04  0.26624511687E+04  0.00000000000E+00 0.  1.
         25    1    1    2    0    0 -0.52762277784E+02  0.85448477278E+02 -0.71916114267E+03  0.73681955006E+03  0.12500000000E+03 0.  0.
         25    1    1    2    0    0  0.17343242214E+03  0.12443751803E+03 -0.14939237241E+04  0.15142643740E+04  0.12500000000E+03 0.  0.
         25    1    1    2    0    0 -0.12067014435E+03 -0.20988599531E+03 -0.38724168819E+03  0.47349185826E+03  0.12500000000E+03 0.  0.
</event>
<event>
 5    0  0.5735425E-005  0.2859110E+03  0.7546771E-02  0.1092504E+00
         21   -1    0    0  502  501  0.00000000000E+00  0.00000000000E+00  0.43480016487E+02  0.43480016487E+02  0.00000000000E+00 0. -1.
         21   -1    0    0  501  502 -0.00000000000E+00 -0.00000000000E+00 -0.18800616496E+04  0.18800616496E+04  0.00000000000E+00 0. -1.
         25    1    1    2    0    0 -0.10606636778E+03 -0.92378297172E+02 -0.42172639951E+03  0.46180296687E+03  0.12500000000E+03 0.  0.
         25    1    1    2    0    0 -0.13139497186E+02  0.13901708382E+03 -0.77524645786E+03  0.79757787482E+03  0.12500000000E+03 0.  0.
         25    1    1    2    0    0  0.11920586497E+03 -0.46638786646E+02 -0.63960877579E+03  0.66416082444E+03  0.12500000000E+03 0.  0.
</event>
<event>
 5    0  0.5735425E-005  0.3053639E+03  0.7546771E-02  0.1082590E+00
         21   -1    0    0  502  501  0.00000000000E+00  0.00000000000E+00  0.70738994569E+03  0.70738994569E+03  0.00000000000E+00 0. -1.
         21   -1    0    0  501  502 -0.00000000000E+00 -0.00000000000E+00 -0.13181855098E+03  0.13181855098E+03  0.00000000000E+00 0. -1.
         25    1    1    2    0    0 -0.57444824321E+02  0.15888378831E+03  0.18680123490E+03  0.28118262285E+03  0.12500000000E+03 0.  0.
         25    1    1    2    0    0 -0.48677303333E+02 -0.18442814423E+03  0.27281271984E+03  0.35557699638E+03  0.12500000000E+03 0.  0.
         25    1    1    2    0    0  0.10612212765E+03  0.25544355919E+02  0.11595743997E+03  0.20244887745E+03  0.12500000000E+03 0.  0.
</event>
<event>
 5    0  0.5735425E-005  0.2620554E+03  0.7546771E-02  0.1105915E+00
         21   -1    0    0  502  501  0.00000000000E+00  0.00000000000E+00  0.11808724571E+03  0.11808724571E+03  0.00000000000E+00 0.  1.
         21   -1    0    0  501  502 -0.00000000000E+00 -0.00000000000E+00 -0.58154483145E+03  0.58154483145E+03  0.00000000000E+00 0.  1.
         25    1    1    2    0    0 -0.13890274802E+02 -0.73583586781E+02 -0.10536615994E+03  0.17981799587E+03  0.12500000000E+03 0.  0.
         25    1    1    2    0    0  0.63053246376E+02  0.63814433060E+02 -0.35296423742E+03  0.38504122720E+03  0.12500000000E+03 0.  0.
         25    1    1    2    0    0 -0.49162971575E+02  0.97691537213E+01 -0.51271883707E+01  0.13477285409E+03  0.12500000000E+03 0.  0.
</event>
<event>
 5    0  0.5735425E-005  0.2722953E+03  0.7546771E-02  0.1099973E+00
         21   -1    0    0  502  501  0.00000000000E+00  0.00000000000E+00  0.15573877592E+04  0.15573877592E+04  0.00000000000E+00 0. -1.
         21   -1    0    0  501  502 -0.00000000000E+00 -0.00000000000E+00 -0.47608377991E+02  0.47608377991E+02  0.00000000000E+00 0. -1.
         25    1    1    2    0    0  0.33532515932E+02 -0.29987042697E+01  0.30881029949E+03  0.33484656624E+03  0.12500000000E+03 0.  0.
         25    1    1    2    0    0  0.13761496595E+03 -0.34187597392E+02  0.69677946447E+03  0.72196488334E+03  0.12500000000E+03 0.  0.
         25    1    1    2    0    0 -0.17114748188E+03  0.37186301662E+02  0.50418961720E+03  0.54818468757E+03  0.12500000000E+03 0.  0.
</event>
<event>
 5    0  0.5735425E-005  0.3061819E+03  0.7546771E-02  0.1082191E+00
         21   -1    0    0  502  501  0.00000000000E+00  0.00000000000E+00  0.39202708459E+02  0.39202708459E+02  0.00000000000E+00 0.  1.
         21   -1    0    0  501  502 -0.00000000000E+00 -0.00000000000E+00 -0.23913495764E+04  0.23913495764E+04  0.00000000000E+00 0.  1.
         25    1    1    2    0    0  0.29741067405E+02  0.48471811461E+02 -0.51514351700E+03  0.53313402696E+03  0.12500000000E+03 0.  0.
         25    1    1    2    0    0  0.13165714894E+03 -0.22377587025E+02 -0.14268501062E+04  0.14385272284E+04  0.12500000000E+03 0.  0.
         25    1    1    2    0    0 -0.16139821634E+03 -0.26094224436E+02 -0.41015324475E+03  0.45889102951E+03  0.12500000000E+03 0.  0.
</event>
<event>
 5    0  0.5735425E-005  0.5559891E+03  0.7546771E-02  0.1000117E+00
         21   -1    0    0  502  501  0.00000000000E+00  0.00000000000E+00  0.70482592112E+03  0.70482592112E+03  0.00000000000E+00 0.  1.
         21   -1    0    0  501  502 -0.00000000000E+00 -0.00000000000E+00 -0.43858186187E+03  0.43858186187E+03  0.00000000000E+00 0.  1.
         25    1    1    2    0    0  0.46522887431E+01 -0.19778520953E+03 -0.35081931183E+03  0.42171059087E+03  0.12500000000E+03 0.  0.
         25    1    1    2    0    0 -0.94507065308E+02  0.11815321881E+03  0.27033613070E+03  0.33406345516E+03  0.12500000000E+03 0.  0.
         25    1    1    2    0    0  0.89854776565E+02  0.79631990720E+02  0.34672724038E+03  0.38763373697E+03  0.12500000000E+03 0.  0.
</event>
<event>
 5    0  0.5735425E-005  0.2335176E+03  0.7546771E-02  0.1124188E+00
         21   -1    0    0  502  501  0.00000000000E+00  0.00000000000E+00  0.19043136671E+03  0.19043136671E+03  0.00000000000E+00 0.  1.
         21   -1    0    0  501  502 -0.00000000000E+00 -0.00000000000E+00 -0.28635238042E+03  0.28635238042E+03  0.00000000000E+00 0.  1.
         25    1    1    2    0    0  0.35603775050E+02 -0.14918555105E+02  0.38411746964E+02  0.13634754999E+03  0.12500000000E+03 0.  0.
         25    1    1    2    0    0 -0.46964177151E+02 -0.46689357115E+02 -0.14196123473E+03  0.20040838847E+03  0.12500000000E+03 0.  0.
         25    1    1    2    0    0  0.11360402101E+02  0.61607912220E+02  0.76284740507E+01  0.14002780867E+03  0.12500000000E+03 0.  0.
</event>
<event>
 5    0  0.5735425E-005  0.2825771E+03  0.7546771E-02  0.1094290E+00
         21   -1    0    0  502  501  0.00000000000E+00  0.00000000000E+00  0.20981714397E+03  0.20981714397E+03  0.00000000000E+00 0.  1.
         21   -1    0    0  501  502 -0.00000000000E+00 -0.00000000000E+00 -0.38056851144E+03  0.38056851144E+03  0.00000000000E+00 0.  1.
         25    1    1    2    0    0 -0.42539478048E+01  0.16370506771E+03 -0.11102731735E+03  0.23402886673E+03  0.12500000000E+03 0.  0.
         25    1    1    2    0    0 -0.64978051611E+02 -0.15266709455E+03 -0.42103804335E+02  0.21196018326E+03  0.12500000000E+03 0.  0.
         25    1    1    2    0    0  0.69231999416E+02 -0.11037973161E+02 -0.17620245787E+02  0.14439660542E+03  0.12500000000E+03 0.  0.
</event>
<event>
 5    0  0.5735425E-005  0.2714549E+03  0.7546771E-02  0.1100450E+00
         21   -1    0    0  502  501  0.00000000000E+00  0.00000000000E+00  0.13054758606E+04  0.13054758606E+04  0.00000000000E+00 0.  1.
         21   -1    0    0  501  502 -0.00000000000E+00 -0.00000000000E+00 -0.56445143638E+02  0.56445143638E+02  0.00000000000E+00 0.  1.
         25    1    1    2    0    0  0.44693317152E+01 -0.94739624144E+02  0.11693222506E+03  0.19568780383E+03  0.12500000000E+03 0.  0.
         25    1    1    2    0    0  0.28566080024E+02  0.17629357732E+02  0.54080684228E+03  0.55607900143E+03  0.12500000000E+03 0.  0.
         25    1    1    2    0    0 -0.33035411739E+02  0.77110266412E+02  0.59129164962E+03  0.61015419898E+03  0.12500000000E+03 0.  0.
</event>
<event>
 5    0  0.5735425E-005  0.4654268E+03  0.7546771E-02  0.1023219E+00
         21   -1    0    0  502  501  0.00000000000E+00  0.00000000000E+00  0.21614934800E+04  0.21614934800E+04  0.00000000000E+00 0. -1.
         21   -1    0    0  501  502 -0.00000000000E+00 -0.00000000000E+00 -0.10021872342E+03  0.10021872342E+03  0.00000000000E+00 0. -1.
         25    1    1    2    0    0  0.10553337432E+03  0.67539843086E+02  0.10184681096E+04  0.10337316933E+04  0.12500000000E+03 0.  0.
         25    1    1    2    0    0 -0.16640632961E+03  0.20339027662E+03  0.26852058499E+03  0.39596335149E+03  0.12500000000E+03 0.  0.
         25    1    1    2    0    0  0.60872955293E+02 -0.27093011971E+03  0.77428606204E+03  0.83201715867E+03  0.12500000000E+03 0.  0.
</event>
<event>
 5    0  0.5787778E-005  0.3643807E+03  0.7546771E-02  0.1056863E+00
         21   -1    0    0  502  501  0.00000000000E+00  0.00000000000E+00  0.17824831357E+03  0.17824831357E+03  0.00000000000E+00 0. -1.
         21   -1    0    0  501  502 -0.00000000000E+00 -0.00000000000E+00 -0.74487808895E+03  0.74487808895E+03  0.00000000000E+00 0. -1.
         25    1    1    2    0    0 -0.13093879714E+03  0.19023119315E+03 -0.29479890141E+03  0.39479648898E+03  0.12500000000E+03 0.  0.
         25    1    1    2    0    0  0.11740269128E+03  0.25422861229E+02 -0.21306850891E+02  0.17466738587E+03  0.12500000000E+03 0.  0.
         25    1    1    2    0    0  0.13536105855E+02 -0.21565405438E+03 -0.25052402308E+03  0.35366252766E+03  0.12500000000E+03 0.  0.
</event>
<event>
 5    0  0.5735425E-005  0.2460618E+03  0.7546771E-02  0.1115819E+00
         21   -1    0    0  502  501  0.00000000000E+00  0.00000000000E+00  0.11550929219E+03  0.11550929219E+03  0.00000000000E+00 0. -1.
         21   -1    0    0  501  502 -0.00000000000E+00 -0.00000000000E+00 -0.52416907905E+03  0.52416907905E+03  0.00000000000E+00 0. -1.
         25    1    1    2    0    0 -0.77082280822E+02  0.41809834179E+02 -0.10881338850E+03  0.18749691669E+03  0.12500000000E+03 0.  0.
         25    1    1    2    0    0  0.21294301410E+01 -0.55263295352E+02 -0.27024884930E+03  0.30284980904E+03  0.12500000000E+03 0.  0.
         25    1    1    2    0    0  0.74952850681E+02  0.13453461173E+02 -0.29597549056E+02  0.14933164552E+03  0.12500000000E+03 0.  0.
</event>
<event>
 5    0  0.5735425E-005  0.2446459E+03  0.7546771E-02  0.1116736E+00
         21   -1    0    0  502  501  0.00000000000E+00  0.00000000000E+00  0.62801735378E+02  0.62801735378E+02  0.00000000000E+00 0. -1.
         21   -1    0    0  501  502 -0.00000000000E+00 -0.00000000000E+00 -0.95302507104E+03  0.95302507104E+03  0.00000000000E+00 0. -1.
         25    1    1    2    0    0  0.12661508081E+03 -0.71211241372E+02 -0.29707568939E+03  0.35352706376E+03  0.12500000000E+03 0.  0.
         25    1    1    2    0    0 -0.77773451980E+02  0.11534367067E+02 -0.28865018545E+03  0.32423090694E+03  0.12500000000E+03 0.  0.
         25    1    1    2    0    0 -0.48841628827E+02  0.59676874306E+02 -0.30449746083E+03  0.33806883572E+03  0.12500000000E+03 0.  0.
</event>
<event>
 5    0  0.5735425E-005  0.4375736E+03  0.7546771E-02  0.1031494E+00
         21   -1    0    0  502  501  0.00000000000E+00  0.00000000000E+00  0.35599980252E+03  0.35599980252E+03  0.00000000000E+00 0. -1.
         21   -1    0    0  501  502 -0.00000000000E+00 -0.00000000000E+00 -0.53783932147E+03  0.53783932147E+03  0.00000000000E+00 0. -1.
         25    1    1    2    0    0 -0.20189493537E+03  0.30047845838E+02  0.30388312787E+02  0.24127347041E+03  0.12500000000E+03 0.  0.
         25    1    1    2    0    0 -0.13956900383E+03 -0.11645309062E+02  0.60968653244E+02  0.19737602877E+03  0.12500000000E+03 0.  0.
         25    1    1    2    0    0  0.34146393920E+03 -0.18402536776E+02 -0.27319648498E+03  0.45518962482E+03  0.12500000000E+03 0.  0.
</event>
<event>
 5    0  0.5735425E-005  0.2985846E+03  0.7546771E-02  0.1085950E+00
         21   -1    0    0  502  501  0.00000000000E+00  0.00000000000E+00  0.48794204287E+03  0.48794204287E+03  0.00000000000E+00 0. -1.
         21   -1    0    0  501  502 -0.00000000000E+00 -0.00000000000E+00 -0.18271179254E+03  0.18271179254E+03  0.00000000000E+00 0. -1.
         25    1    1    2    0    0  0.34737289378E+02  0.15243806105E+03  0.40196611656E+02  0.20416858064E+03  0.12500000000E+03 0.  0.
         25    1    1    2    0    0 -0.79226260891E+02 -0.14021797100E+03  0.44258553319E+02  0.20861854987E+03  0.12500000000E+03 0.  0.
         25    1    1    2    0    0  0.44488971512E+02 -0.12220090051E+02  0.22077508536E+03  0.25786670491E+03  0.12500000000E+03 0.  0.
</event>
<event>
 5    0  0.5735425E-005  0.2304994E+03  0.7546771E-02  0.1126289E+00
         21   -1    0    0  502  501  0.00000000000E+00  0.00000000000E+00  0.58306022901E+03  0.58306022901E+03  0.00000000000E+00 0. -1.
         21   -1    0    0  501  502 -0.00000000000E+00 -0.00000000000E+00 -0.91122588440E+02  0.91122588440E+02  0.00000000000E+00 0. -1.
         25    1    1    2    0    0 -0.31925777989E+02  0.37505109741E+02  0.92049611270E+02  0.16286196453E+03  0.12500000000E+03 0.  0.
         25    1    1    2    0    0 -0.55605780317E+01  0.26194267921E+02  0.32219072433E+03  0.34662504604E+03  0.12500000000E+03 0.  0.
         25    1    1    2    0    0  0.37486356020E+02 -0.63699377662E+02  0.77697304970E+02  0.16469580687E+03  0.12500000000E+03 0.  0.
</event>
<event>
 5    0  0.5735425E-005  0.2484422E+03  0.7546771E-02  0.1114293E+00
         21   -1    0    0  502  501  0.00000000000E+00  0.00000000000E+00  0.33220805902E+02  0.33220805902E+02  0.00000000000E+00 0.  1.
         21   -1    0    0  501  502 -0.00000000000E+00 -0.00000000000E+00 -0.18579783991E+04  0.18579783991E+04  0.00000000000E+00 0.  1.
         25    1    1    2    0    0 -0.63709352084E+02 -0.39314618742E+02 -0.96575492979E+03  0.97668424028E+03  0.12500000000E+03 0.  0.
         25    1    1    2    0    0 -0.33015729703E+02 -0.32348835309E+02 -0.47057014775E+03  0.48907846968E+03  0.12500000000E+03 0.  0.
         25    1    1    2    0    0  0.96725081787E+02  0.71663454051E+02 -0.38843251564E+03  0.42543649503E+03  0.12500000000E+03 0.  0.
</event>
<event>
 5    0  0.5735425E-005  0.3070040E+03  0.7546771E-02  0.1081791E+00
         21   -1    0    0  502  501  0.00000000000E+00  0.00000000000E+00  0.50316057087E+02  0.50316057087E+02  0.00000000000E+00 0. -1.
         21   -1    0    0  501  502 -0.00000000000E+00 -0.00000000000E+00 -0.18731879158E+04  0.18731879158E+04  0.00000000000E+00 0. -1.
         25    1    1    2    0    0 -0.71688221560E+02  0.25934932381E+02 -0.63459050783E+03  0.65126180177E+03  0.12500000000E+03 0.  0.
         25    1    1    2    0    0 -0.12952358743E+02 -0.17783664199E+03 -0.40051168685E+03  0.45588183352E+03  0.12500000000E+03 0.  0.
         25    1    1    2    0    0  0.84640580303E+02  0.15190170961E+03 -0.78776966405E+03  0.81636033760E+03  0.12500000000E+03 0.  0.
</event>
<event>
 5    0  0.6240154E-005  0.3107606E+03  0.7546771E-02  0.1079982E+00
         21   -1    0    0  502  501  0.00000000000E+00  0.00000000000E+00  0.23135925289E+03  0.23135925289E+03  0.00000000000E+00 0.  1.
         21   -1    0    0  501  502 -0.00000000000E+00 -0.00000000000E+00 -0.41741221040E+03  0.41741221040E+03  0.00000000000E+00 0.  1.
         25    1    1    2    0    0  0.96909185862E+02 -0.55329222672E+02 -0.24578344167E+03  0.29746800397E+03  0.12500000000E+03 0.  0.
         25    1    1    2    0    0  0.38861290701E+02  0.34182067635E+01  0.87644190454E+02  0.15757026424E+03  0.12500000000E+03 0.  0.
         25    1    1    2    0    0 -0.13577047656E+03  0.51911015909E+02 -0.27913706295E+02  0.19373319508E+03  0.12500000000E+03 0.  0.
</event>
<event>
 5    0  0.5735425E-005  0.2471147E+03  0.7546771E-02  0.1115142E+00
         21   -1    0    0  502  501  0.00000000000E+00  0.00000000000E+00  0.12211049585E+03  0.12211049585E+03  0.00000000000E+00 0. -1.
         21   -1    0    0  501  502 -0.00000000000E+00 -0.00000000000E+00 -0.50008523953E+03  0.50008523953E+03  0.00000000000E+00 0. -1.
         25    1    1    2    0    0 -0.26753240940E+02 -0.84596131280E+02 -0.17248724178E+03  0.23075764322E+03  0.12500000000E+03 0.  0.
         25    1    1    2    0    0  0.23214963151E+02 -0.73884576191E+00 -0.20359744242E+03  0.24003416208E+03  0.12500000000E+03 0.  0.
         25    1    1    2    0    0  0.35382777884E+01  0.85334977042E+02 -0.18900594824E+01  0.15140393007E+03  0.12500000000E+03 0.  0.
</event>
<event>
 5    0  0.5735425E-005  0.4395333E+03  0.7546771E-02  0.1030890E+00
         21   -1    0    0  502  501  0.00000000000E+00  0.00000000000E+00  0.57407958292E+03  0.57407958292E+03  0.00000000000E+00 0.  1.
         21   -1    0    0  501  502 -0.00000000000E+00 -0.00000000000E+00 -0.33652039035E+03  0.33652039035E+03  0.00000000000E+00 0.  1.
         25    1    1    2    0    0  0.20049514254E+02 -0.83440850777E+01 -0.11778648581E+03  0.17311921620E+03  0.12500000000E+03 0.  0.
         25    1    1    2    0    0 -0.27144323625E+03  0.11967373535E+03  0.27891557950E+03  0.42593677222E+03  0.12500000000E+03 0.  0.
         25    1    1    2    0    0  0.25139372200E+03 -0.11132965027E+03  0.76430098880E+02  0.31154398486E+03  0.12500000000E+03 0.  0.
</event>
<event>
 5    0  0.5735425E-005  0.3596926E+03  0.7546771E-02  0.1058706E+00
         21   -1    0    0  502  501  0.00000000000E+00  0.00000000000E+00  0.16252456138E+04  0.16252456138E+04  0.00000000000E+00 0. -1.
         21   -1    0    0  501  502 -0.00000000000E+00 -0.00000000000E+00 -0.79605690658E+02  0.79605690658E+02  0.00000000000E+00 0. -1.
         25    1    1    2    0    0  0.95367518436E+02  0.25685387187E+03  0.57817965379E+03  0.65190918626E+03  0.12500000000E+03 0.  0.
         25    1    1    2    0    0 -0.95646021216E+02 -0.17819199051E+03  0.77311386653E+03  0.80884522467E+03  0.12500000000E+03 0.  0.
         25    1    1    2    0    0  0.27850278034E+00 -0.78661881360E+02  0.19434640283E+03  0.24409689354E+03  0.12500000000E+03 0.  0.
</event>
<event>
 5    0  0.5735425E-005  0.2866934E+03  0.7546771E-02  0.1092088E+00
         21   -1    0    0  502  501  0.00000000000E+00  0.00000000000E+00  0.56227600062E+03  0.56227600062E+03  0.00000000000E+00 0. -1.
         21   -1    0    0  501  502 -0.00000000000E+00 -0.00000000000E+00 -0.14617928396E+03  0.14617928396E+03  0.00000000000E+00 0. -1.
         25    1    1    2    0    0 -0.80545607071E+02  0.12857647249E+02 -0.44579653817E+02  0.15577310245E+03  0.12500000000E+03 0.  0.
         25    1    1    2    0    0  0.61552310082E+02 -0.12959557699E+02  0.37418392990E+03  0.39949374264E+03  0.12500000000E+03 0.  0.
         25    1    1    2    0    0  0.18993296989E+02  0.10191045062E+00  0.86492440579E+02  0.15318843949E+03  0.12500000000E+03 0.  0.
</event>
<event>
 5    0  0.5735425E-005  0.2670069E+03  0.7546771E-02  0.1103005E+00
         21   -1    0    0  502  501  0.00000000000E+00  0.00000000000E+00  0.45971933992E+03  0.45971933992E+03  0.00000000000E+00 0. -1.
         21   -1    0    0  501  502 -0.00000000000E+00 -0.00000000000E+00 -0.15507872198E+03  0.15507872198E+03  0.00000000000E+00 0. -1.
         25    1    1    2    0    0 -0.12441233010E+02  0.10068769539E+02  0.27086239599E+03  0.29874337141E+03  0.12500000000E+03 0.  0.
         25    1    1    2    0    0  0.81477881000E+02 -0.32758639298E+02  0.68401343643E+02  0.16737836585E+03  0.12500000000E+03 0.  0.
         25    1    1    2    0    0 -0.69036647990E+02  0.22689869759E+02 -0.34623121684E+02  0.14867632465E+03  0.12500000000E+03 0.  0.
</event>
<event>
 5    0  0.6438680E-005  0.3422484E+03  0.7546771E-02  0.1065842E+00
         21   -1    0    0  502  501  0.00000000000E+00  0.00000000000E+00  0.57922364091E+03  0.57922364091E+03  0.00000000000E+00 0. -1.
         21   -1    0    0  501  502 -0.00000000000E+00 -0.00000000000E+00 -0.20222585692E+03  0.20222585692E+03  0.00000000000E+00 0. -1.
         25    1    1    2    0    0  0.10688794954E+03 -0.10873350698E+02 -0.24376926383E+02  0.16662082119E+03  0.12500000000E+03 0.  0.
         25    1    1    2    0    0 -0.90749553134E+02 -0.18508936598E+01 -0.36722469686E+02  0.15878427813E+03  0.12500000000E+03 0.  0.
         25    1    1    2    0    0 -0.16138396411E+02  0.12724244358E+02  0.43809718007E+03  0.45604439851E+03  0.12500000000E+03 0.  0.
</event>
<event>
 5    0  0.5735425E-005  0.3190360E+03  0.7546771E-02  0.1076094E+00
         21   -1    0    0  502  501  0.00000000000E+00  0.00000000000E+00  0.34638419805E+03  0.34638419805E+03  0.00000000000E+00 0.  1.
         21   -1    0    0  501  502 -0.00000000000E+00 -0.00000000000E+00 -0.29384697625E+03  0.29384697625E+03  0.00000000000E+00 0.  1.
         25    1    1    2    0    0  0.10998926018E+02  0.75178502649E+00 -0.52110220677E+02  0.13587500378E+03  0.12500000000E+03 0.  0.
         25    1    1    2    0    0  0.18294918008E+03 -0.94785699066E+02  0.22712993700E+02  0.24206530384E+03  0.12500000000E+03 0.  0.
         25    1    1    2    0    0 -0.19394810610E+03  0.94033914039E+02  0.81934448773E+02  0.26229086668E+03  0.12500000000E+03 0.  0.
</event>
<event>
 5    0  0.5735425E-005  0.2203251E+03  0.7546771E-02  0.1133641E+00
         21   -1    0    0  502  501  0.00000000000E+00  0.00000000000E+00  0.54386154393E+03  0.54386154393E+03  0.00000000000E+00 0. -1.
         21   -1    0    0  501  502 -0.00000000000E+00 -0.00000000000E+00 -0.89256452510E+02  0.89256452510E+02  0.00000000000E+00 0. -1.
         25    1    1    2    0    0  0.31996200843E+02 -0.91694983656E+01  0.13851389435E+03  0.18952291549E+03  0.12500000000E+03 0.  0.
         25    1    1    2    0    0 -0.38504401185E+02 -0.78142723558E+02  0.20216030139E+03  0.25314553445E+03  0.12500000000E+03 0.  0.
         25    1    1    2    0    0  0.65082003418E+01  0.87312221924E+02  0.11393089568E+03  0.19044954649E+03  0.12500000000E+03 0.  0.
</event>
<event>
 5    0  0.5735425E-005  0.2727803E+03  0.7546771E-02  0.1099699E+00
         21   -1    0    0  502  501  0.00000000000E+00  0.00000000000E+00  0.86987928405E+03  0.86987928405E+03  0.00000000000E+00 0.  1.
         21   -1    0    0  501  502 -0.00000000000E+00 -0.00000000000E+00 -0.85539559830E+02  0.85539559830E+02  0.00000000000E+00 0.  1.
         25    1    1    2    0    0 -0.53049643564E+02 -0.25132959951E+02  0.10155888042E+02  0.13847047490E+03  0.12500000000E+03 0.  0.
         25    1    1    2    0    0  0.12578016889E+02 -0.15619826608E+01  0.41273644424E+03  0.43143599607E+03  0.12500000000E+03 0.  0.
         25    1    1    2    0    0  0.40471626675E+02  0.26694942612E+02  0.36144739193E+03  0.38551237291E+03  0.12500000000E+03 0.  0.
</event>
<event>
 5    0  0.5735425E-005  0.3194161E+03  0.7546771E-02  0.1075918E+00
         21   -1    0    0  502  501  0.00000000000E+00  0.00000000000E+00  0.28746343963E+03  0.28746343963E+03  0.00000000000E+00 0.  1.
         21   -1    0    0  501  502 -0.00000000000E+00 -0.00000000000E+00 -0.35492038359E+03  0.35492038359E+03  0.00000000000E+00 0.  1.
         25    1    1    2    0    0  0.19900164737E+03  0.70122873574E+02  0.17421972279E+02  0.24586052585E+03  0.12500000000E+03 0.  0.
         25    1    1    2    0    0 -0.10702074867E+03  0.49023632671E+02 -0.10267432592E+03  0.20005942720E+03  0.12500000000E+03 0.  0.
         25    1    1    2    0    0 -0.91980898698E+02 -0.11914650624E+03  0.17795409692E+02  0.19646387017E+03  0.12500000000E+03 0.  0.
</event>
<event>
 5    0  0.5735425E-005  0.4851883E+03  0.7546771E-02  0.1017719E+00
         21   -1    0    0  502  501  0.00000000000E+00  0.00000000000E+00  0.36553233296E+03  0.36553233296E+03  0.00000000000E+00 0. -1.
         21   -1    0    0  501  502 -0.00000000000E+00 -0.00000000000E+00 -0.64401339371E+03  0.64401339371E+03  0.00000000000E+00 0. -1.
         25    1    1    2    0    0 -0.30193074583E+03 -0.20941019544E+03 -0.13610836943E+03  0.41129708662E+03  0.12500000000E+03 0.  0.
         25    1    1    2    0    0  0.24506129138E+03  0.61152288381E+02 -0.24334531702E+03  0.37233933746E+03  0.12500000000E+03 0.  0.
         25    1    1    2    0    0  0.56869454452E+02  0.14825790706E+03  0.10097262570E+03  0.22590930259E+03  0.12500000000E+03 0.  0.
</event>
<event>
 5    0  0.5735425E-005  0.2079351E+03  0.7546771E-02  0.1143212E+00
         21   -1    0    0  502  501  0.00000000000E+00  0.00000000000E+00  0.93552601945E+03  0.93552601945E+03  0.00000000000E+00 0. -1.
         21   -1    0    0  501  502 -0.00000000000E+00 -0.00000000000E+00 -0.46216767143E+02  0.46216767143E+02  0.00000000000E+00 0. -1.
         25    1    1    2    0    0 -0.52462944430E+02 -0.10392799401E+00  0.24643640306E+03  0.28126192792E+03  0.12500000000E+03 0.  0.
         25    1    1    2    0    0 -0.14231190793E+01  0.45046940847E+02  0.35091997157E+03  0.37523469802E+03  0.12500000000E+03 0.  0.
         25    1    1    2    0    0  0.53886063509E+02 -0.44943012853E+02  0.29195287767E+03  0.32524616066E+03  0.12500000000E+03 0.  0.
</event>
<event>
 5    0  0.5735425E-005  0.2964475E+03  0.7546771E-02  0.1087030E+00
         21   -1    0    0  502  501  0.00000000000E+00  0.00000000000E+00  0.16019920700E+03  0.16019920700E+03  0.00000000000E+00 0.  1.
         21   -1    0    0  501  502 -0.00000000000E+00 -0.00000000000E+00 -0.54857406782E+03  0.54857406782E+03  0.00000000000E+00 0.  1.
         25    1    1    2    0    0  0.79737964144E+02 -0.15306521475E+03 -0.10867511250E+02  0.21337808157E+03  0.12500000000E+03 0.  0.
         25    1    1    2    0    0 -0.42372528501E+02  0.19767448322E+02 -0.17495536562E+03  0.22004672945E+03  0.12500000000E+03 0.  0.
         25    1    1    2    0    0 -0.37365435643E+02  0.13329776643E+03 -0.20255198394E+03  0.27534846380E+03  0.12500000000E+03 0.  0.
</event>
<event>
 5    0  0.5735425E-005  0.2726870E+03  0.7546771E-02  0.1099752E+00
         21   -1    0    0  502  501  0.00000000000E+00  0.00000000000E+00  0.12877723059E+03  0.12877723059E+03  0.00000000000E+00 0. -1.
         21   -1    0    0  501  502 -0.00000000000E+00 -0.00000000000E+00 -0.57741734154E+03  0.57741734154E+03  0.00000000000E+00 0. -1.
         25    1    1    2    0    0 -0.49354119567E+02  0.41819422593E+02 -0.15620213432E+03  0.21025888802E+03  0.12500000000E+03 0.  0.
         25    1    1    2    0    0  0.18779798300E+02  0.33216767036E+02 -0.31889778160E+03  0.34464014500E+03  0.12500000000E+03 0.  0.
         25    1    1    2    0    0  0.30574321267E+02 -0.75036189629E+02  0.26459804968E+02  0.15129553911E+03  0.12500000000E+03 0.  0.
</event>
<event>
 5    0  0.5735425E-005  0.3158079E+03  0.7546771E-02  0.1077595E+00
         21   -1    0    0  502  501  0.00000000000E+00  0.00000000000E+00  0.91687490220E+03  0.91687490220E+03  0.00000000000E+00 0.  1.
         21   -1    0    0  501  502 -0.00000000000E+00 -0.00000000000E+00 -0.10877671262E+03  0.10877671262E+03  0.00000000000E+00 0.  1.
         25    1    1    2    0    0 -0.26392761409E+02  0.20726090911E+02  0.32903500882E+03  0.35357486581E+03  0.12500000000E+03 0.  0.
         25    1    1    2    0    0 -0.13067414813E+03  0.77461789516E+02  0.37945355652E+03  0.42741790250E+03  0.12500000000E+03 0.  0.
         25    1    1    2    0    0  0.15706690954E+03 -0.98187880427E+02  0.99609624242E+02  0.24465884651E+03  0.12500000000E+03 0.  0.
</event>
<event>
 5    0  0.5735425E-005  0.3482665E+03  0.7546771E-02  0.1063329E+00
         21   -1    0    0  502  501  0.00000000000E+00  0.00000000000E+00  0.21458235812E+03  0.21458235812E+03  0.00000000000E+00 0. -1.
         21   -1    0    0  501  502 -0.00000000000E+00 -0.00000000000E+00 -0.56523535258E+03  0.56523535258E+03  0.00000000000E+00 0. -1.
         25    1    1    2    0    0 -0.14728372572E+03  0.11073429224E+03 -0.14475861343E+03  0.26558357536E+03  0.12500000000E+03 0.  0.
         25    1    1    2    0    0 -0.72826976479E+02  0.44782468781E+02 -0.14762638765E+03  0.21148945209E+03  0.12500000000E+03 0.  0.
         25    1    1    2    0    0  0.22011070220E+03 -0.15551676102E+03 -0.58267993376E+02  0.30274468325E+03  0.12500000000E+03 0.  0.
</event>
