<event>
 5    0  0.5641283E-005  0.2536863E+03  0.7546771E-02  0.1110997E+00
         21   -1    0    0  502  501  0.00000000000E+00  0.00000000000E+00  0.34586034034E+03  0.34586034034E+03  0.00000000000E+00 0.  1.
         21   -1    0    0  501  502 -0.00000000000E+00 -0.00000000000E+00 -0.18607724110E+03  0.18607724110E+03  0.00000000000E+00 0.  1.
         25    1    1    2    0    0  0.38914493466E+02  0.80369906664E+02 -0.12010947750E+02  0.15408738613E+03  0.12500000000E+03 0.  0.
         25    1    1    2    0    0  0.13171015709E+02 -0.11437401418E+02 -0.25562047875E+02  0.12877386419E+03  0.12500000000E+03 0.  0.
         25    1    1    2    0    0 -0.52085509175E+02 -0.68932505246E+02  0.19735609486E+03  0.24907633112E+03  0.12500000000E+03 0.  0.
</event>
<event>
 5    0  0.5641283E-005  0.2964204E+03  0.7546771E-02  0.1087044E+00
         21   -1    0    0  502  501  0.00000000000E+00  0.00000000000E+00  0.30544715301E+03  0.30544715301E+03  0.00000000000E+00 0.  1.
         21   -1    0    0  501  502 -0.00000000000E+00 -0.00000000000E+00 -0.28766033434E+03  0.28766033434E+03  0.00000000000E+00 0.  1.
         25    1    1    2    0    0 -0.53547333097E+02 -0.97380640592E+01  0.16529666664E+02  0.13733308652E+03  0.12500000000E+03 0.  0.
         25    1    1    2    0    0 -0.11209356676E+03 -0.59510940695E+02 -0.11100340902E+03  0.20988872429E+03  0.12500000000E+03 0.  0.
         25    1    1    2    0    0  0.16564089986E+03  0.69249004755E+02  0.11226056103E+03  0.24588567654E+03  0.12500000000E+03 0.  0.
</event>
<event>
 5    0  0.5641283E-005  0.3088375E+03  0.7546771E-02  0.1080904E+00
         21   -1    0    0  502  501  0.00000000000E+00  0.00000000000E+00  0.28703153377E+04  0.28703153377E+04  0.00000000000E+00 0. -1.
         21   -1    0    0  501  502 -0.00000000000E+00 -0.00000000000E+00 -0.33230018468E+02  0.33230018468E+02  0.00000000000E+00 0. -1.
         25    1    1    2    0    0  0.83243013110E+02  0.60799264752E+02  0.33819821182E+03  0.37500530704E+03  0.12500000000E+03 0.  0.
         25    1    1    2    0    0  0.76534646889E+02  0.49912628968E+02  0.96670301693E+03  0.97902428246E+03  0.12500000000E+03 0.  0.
         25    1    1    2    0    0 -0.15977766000E+03 -0.11071189372E+03  0.15321840905E+04  0.15495157667E+04  0.12500000000E+03 0.  0.
</event>
<event>
 5    0  0.5641283E-005  0.2662461E+03  0.7546771E-02  0.1103447E+00
         21   -1    0    0  502  501  0.00000000000E+00  0.00000000000E+00  0.31156202256E+02  0.31156202256E+02  0.00000000000E+00 0.  1.
         21   -1    0    0  501  502 -0.00000000000E+00 -0.00000000000E+00 -0.22752120003E+04  0.22752120003E+04  0.00000000000E+00 0.  1.
         25    1    1    2    0    0 -0.56221660902E+02  0.81169677378E+02 -0.10383650514E+04  0.10505124329E+04  0.12500000000E+03 0.  0.
         25    1    1    2    0    0  0.19207130967E+02 -0.72327932947E+02 -0.10106182591E+04  0.10210653796E+04  0.12500000000E+03 0.  0.
         25    1    1    2    0    0  0.37014529935E+02 -0.88417444309E+01 -0.19507248745E+03  0.23479038999E+03  0.12500000000E+03 0.  0.
</event>
<event>
 5    0  0.5641283E-005  0.3275485E+03  0.7546771E-02  0.1072227E+00
         21   -1    0    0  502  501  0.00000000000E+00  0.00000000000E+00  0.11823050082E+04  0.11823050082E+04  0.00000000000E+00 0. -1.
         21   -1    0    0  501  502 -0.00000000000E+00 -0.00000000000E+00 -0.90744762746E+02  0.90744762746E+02  0.00000000000E+00 0. -1.
         25    1    1    2    0    0 -0.18295006139E+03 -0.15174127051E+02  0.36721840292E+03  0.42915653850E+03  0.12500000000E+03 0.  0.
         25    1    1    2    0    0  0.17148373228E+01  0.71513706511E+02  0.51553525278E+03  0.53527446020E+03  0.12500000000E+03 0.  0.
         25    1    1    2    0    0  0.18123522407E+03 -0.56339579460E+02  0.20880658977E+03  0.30861877226E+03  0.12500000000E+03 0.  0.
</event>
<event>
 5    0  0.5927161E-005  0.3772581E+03  0.7546771E-02  0.1051952E+00
         21   -1    0    0  502  501  0.00000000000E+00  0.00000000000E+00  0.36933113783E+03  0.36933113783E+03  0.00000000000E+00 0.  1.
         21   -1    0    0  501  502 -0.00000000000E+00 -0.00000000000E+00 -0.38535510693E+03  0.38535510693E+03  0.00000000000E+00 0.  1.
         25    1    1    2    0    0  0.13566057588E+03  0.69453732399E+02  0.13564517566E+03  0.23927437488E+03  0.12500000000E+03 0.  0.
         25    1    1    2    0    0 -0.19663220692E+03  0.10239147503E+03 -0.14779055020E+03  0.29430474968E+03  0.12500000000E+03 0.  0.
         25    1    1    2    0    0  0.60971631033E+02 -0.17184520743E+03 -0.38785945591E+01  0.22110712020E+03  0.12500000000E+03 0.  0.
</event>
<event>
 5    0  0.5641283E-005  0.4064452E+03  0.7546771E-02  0.1041571E+00
         21   -1    0    0  502  501  0.00000000000E+00  0.00000000000E+00  0.53977825187E+03  0.53977825187E+03  0.00000000000E+00 0.  1.
         21   -1    0    0  501  502 -0.00000000000E+00 -0.00000000000E+00 -0.30604732516E+03  0.30604732516E+03  0.00000000000E+00 0.  1.
         25    1    1    2    0    0  0.13430365678E+03  0.92405713163E+02  0.12128682998E+02  0.20578725179E+03  0.12500000000E+03 0.  0.
         25    1    1    2    0    0  0.65166789599E+02  0.18657096003E+03  0.10936977781E+03  0.25815147083E+03  0.12500000000E+03 0.  0.
         25    1    1    2    0    0 -0.19947044638E+03 -0.27897667319E+03  0.11223246590E+03  0.38188685440E+03  0.12500000000E+03 0.  0.
</event>
<event>
 5    0  0.5766773E-005  0.3255132E+03  0.7546771E-02  0.1073140E+00
         21   -1    0    0  502  501  0.00000000000E+00  0.00000000000E+00  0.35197524162E+03  0.35197524162E+03  0.00000000000E+00 0. -1.
         21   -1    0    0  501  502 -0.00000000000E+00 -0.00000000000E+00 -0.30104064001E+03  0.30104064001E+03  0.00000000000E+00 0. -1.
         25    1    1    2    0    0 -0.52685534430E+01 -0.15032770873E+03  0.11996699540E+03  0.22944118561E+03  0.12500000000E+03 0.  0.
         25    1    1    2    0    0 -0.67302376308E+02 -0.55837856502E+02  0.25419738368E+02  0.15465651999E+03  0.12500000000E+03 0.  0.
         25    1    1    2    0    0  0.72570929751E+02  0.20616556524E+03 -0.94452132155E+02  0.26891817604E+03  0.12500000000E+03 0.  0.
</event>
<event>
 5    0  0.5641283E-005  0.2553632E+03  0.7546771E-02  0.1109962E+00
         21   -1    0    0  502  501  0.00000000000E+00  0.00000000000E+00  0.40542963896E+03  0.40542963896E+03  0.00000000000E+00 0. -1.
         21   -1    0    0  501  502 -0.00000000000E+00 -0.00000000000E+00 -0.16084259248E+03  0.16084259248E+03  0.00000000000E+00 0. -1.
         25    1    1    2    0    0 -0.31507126823E+02 -0.43921539224E+02  0.13374877525E+03  0.19088094596E+03  0.12500000000E+03 0.  0.
         25    1    1    2    0    0  0.83979506428E+02  0.18670666244E+01  0.16506596748E+03  0.22344533349E+03  0.12500000000E+03 0.  0.
         25    1    1    2    0    0 -0.52472379605E+02  0.42054472599E+02 -0.54227696251E+02  0.15194595200E+03  0.12500000000E+03 0.  0.
</event>
<event>
 5    0  0.5641283E-005  0.2651748E+03  0.7546771E-02  0.1104073E+00
         21   -1    0    0  502  501  0.00000000000E+00  0.00000000000E+00  0.66443027891E+03  0.66443027891E+03  0.00000000000E+00 0.  1.
         21   -1    0    0  501  502 -0.00000000000E+00 -0.00000000000E+00 -0.10583157048E+03  0.10583157048E+03  0.00000000000E+00 0. -1.
         25    1    1    2    0    0 -0.95600857311E+02 -0.41347211708E+02  0.16884482601E+03  0.23448388240E+03  0.12500000000E+03 0.  0.
         25    1    1    2    0    0  0.14618226868E+03  0.10015216262E+03  0.19442967717E+03  0.29125179951E+03  0.12500000000E+03 0.  0.
         25    1    1    2    0    0 -0.50581411369E+02 -0.58804950909E+02  0.19532420525E+03  0.24452616748E+03  0.12500000000E+03 0.  0.
</event>
<event>
 5    0  0.5641283E-005  0.3074519E+03  0.7546771E-02  0.1081574E+00
         21   -1    0    0  502  501  0.00000000000E+00  0.00000000000E+00  0.15354776899E+03  0.15354776899E+03  0.00000000000E+00 0.  1.
         21   -1    0    0  501  502 -0.00000000000E+00 -0.00000000000E+00 -0.61561754711E+03  0.61561754711E+03  0.00000000000E+00 0. -1.
         25    1    1    2    0    0  0.49820740533E+02 -0.20564667955E+03 -0.29012251735E+03  0.38022195896E+03  0.12500000000E+03 0.  0.
         25    1    1    2    0    0 -0.23600170575E+02  0.12374123399E+03 -0.15617496179E+03  0.23639898420E+03  0.12500000000E+03 0.  0.
         25    1    1    2    0    0 -0.26220569958E+02  0.81905445560E+02 -0.15772298968E+02  0.15254437294E+03  0.12500000000E+03 0.  0.
</event>
<event>
 5    0  0.5641283E-005  0.4274439E+03  0.7546771E-02  0.1034670E+00
         21   -1    0    0  502  501  0.00000000000E+00  0.00000000000E+00  0.72442751363E+03  0.72442751363E+03  0.00000000000E+00 0.  1.
         21   -1    0    0  501  502 -0.00000000000E+00 -0.00000000000E+00 -0.25221055758E+03  0.25221055758E+03  0.00000000000E+00 0.  1.
         25    1    1    2    0    0  0.25491831114E+03  0.10852970094E+03  0.97333090385E+00  0.30395392531E+03  0.12500000000E+03 0.  0.
         25    1    1    2    0    0 -0.24324323427E+03 -0.18375690635E+03  0.28370989983E+03  0.43479900978E+03  0.12500000000E+03 0.  0.
         25    1    1    2    0    0 -0.11675076869E+02  0.75227205408E+02  0.18753372532E+03  0.23788513612E+03  0.12500000000E+03 0.  0.
</event>
<event>
 5    0  0.5641283E-005  0.2508267E+03  0.7546771E-02  0.1112783E+00
         21   -1    0    0  502  501  0.00000000000E+00  0.00000000000E+00  0.74215633963E+02  0.74215633963E+02  0.00000000000E+00 0.  1.
         21   -1    0    0  501  502 -0.00000000000E+00 -0.00000000000E+00 -0.84771966498E+03  0.84771966498E+03  0.00000000000E+00 0.  1.
         25    1    1    2    0    0  0.45349616892E+02  0.20707512856E+02 -0.20026525518E+03  0.24128108354E+03  0.12500000000E+03 0.  0.
         25    1    1    2    0    0  0.61196112411E+02 -0.58124093468E+02 -0.10702356085E+03  0.18493895477E+03  0.12500000000E+03 0.  0.
         25    1    1    2    0    0 -0.10654572930E+03  0.37416580611E+02 -0.46621521498E+03  0.49571526063E+03  0.12500000000E+03 0.  0.
</event>
<event>
 5    0  0.6039693E-005  0.2870887E+03  0.7546771E-02  0.1091879E+00
         21   -1    0    0  502  501  0.00000000000E+00  0.00000000000E+00  0.74821892540E+02  0.74821892540E+02  0.00000000000E+00 0.  1.
         21   -1    0    0  501  502 -0.00000000000E+00 -0.00000000000E+00 -0.11015481352E+04  0.11015481352E+04  0.00000000000E+00 0.  1.
         25    1    1    2    0    0  0.19888823219E+02 -0.15374357836E+01 -0.54815671817E+03  0.56258218660E+03  0.12500000000E+03 0.  0.
         25    1    1    2    0    0  0.47040384885E+01  0.14293336977E+03 -0.28356252262E+03  0.34129866746E+03  0.12500000000E+03 0.  0.
         25    1    1    2    0    0 -0.24592861708E+02 -0.14139593399E+03 -0.19500700184E+03  0.27248917366E+03  0.12500000000E+03 0.  0.
</event>
<event>
 5    0  0.5641283E-005  0.3412018E+03  0.7546771E-02  0.1066285E+00
         21   -1    0    0  502  501  0.00000000000E+00  0.00000000000E+00  0.12782332830E+04  0.12782332830E+04  0.00000000000E+00 0.  1.
         21   -1    0    0  501  502 -0.00000000000E+00 -0.00000000000E+00 -0.91077807263E+02  0.91077807263E+02  0.00000000000E+00 0.  1.
         25    1    1    2    0    0  0.66736276422E+02 -0.53381578545E+02  0.42313865157E+03  0.44941588976E+03  0.12500000000E+03 0.  0.
         25    1    1    2    0    0 -0.11785524933E+03  0.21917638481E+03  0.55460854056E+03  0.62059953329E+03  0.12500000000E+03 0.  0.
         25    1    1    2    0    0  0.51118972908E+02 -0.16579480627E+03  0.20940828365E+03  0.29929566725E+03  0.12500000000E+03 0.  0.
</event>
<event>
 5    0  0.5641283E-005  0.3540044E+03  0.7546771E-02  0.1060983E+00
         21   -1    0    0  502  501  0.00000000000E+00  0.00000000000E+00  0.21006997674E+03  0.21006997674E+03  0.00000000000E+00 0. -1.
         21   -1    0    0  501  502 -0.00000000000E+00 -0.00000000000E+00 -0.59655890292E+03  0.59655890292E+03  0.00000000000E+00 0. -1.
         25    1    1    2    0    0 -0.63410009439E+02 -0.46973051085E+01 -0.23446865356E+03  0.27320952303E+03  0.12500000000E+03 0.  0.
         25    1    1    2    0    0 -0.13522958454E+03  0.71581067599E+02  0.63816281307E+02  0.20762564277E+03  0.12500000000E+03 0.  0.
         25    1    1    2    0    0  0.19863959398E+03 -0.66883762490E+02 -0.21583655394E+03  0.32579371387E+03  0.12500000000E+03 0.  0.
</event>
<event>
 5    0  0.5641283E-005  0.2365458E+03  0.7546771E-02  0.1122116E+00
         21   -1    0    0  502  501  0.00000000000E+00  0.00000000000E+00  0.14889907785E+03  0.14889907785E+03  0.00000000000E+00 0. -1.
         21   -1    0    0  501  502 -0.00000000000E+00 -0.00000000000E+00 -0.37578404300E+03  0.37578404300E+03  0.00000000000E+00 0. -1.
         25    1    1    2    0    0 -0.13009354869E+03 -0.24775347941E+02 -0.95073335917E+02  0.20543146905E+03  0.12500000000E+03 0.  0.
         25    1    1    2    0    0  0.37479955818E+02 -0.36204177459E+00 -0.81362916335E+02  0.15378492227E+03  0.12500000000E+03 0.  0.
         25    1    1    2    0    0  0.92613592868E+02  0.25137389716E+02 -0.50448712899E+02  0.16546672952E+03  0.12500000000E+03 0.  0.
</event>
<event>
 5    0  0.5641283E-005  0.3234717E+03  0.7546771E-02  0.1074063E+00
         21   -1    0    0  502  501  0.00000000000E+00  0.00000000000E+00  0.35767948598E+03  0.35767948598E+03  0.00000000000E+00 0. -1.
         21   -1    0    0  501  502 -0.00000000000E+00 -0.00000000000E+00 -0.29253550296E+03  0.29253550296E+03  0.00000000000E+00 0. -1.
         25    1    1    2    0    0  0.10293651244E+03  0.15792602040E+03 -0.48898933356E+02  0.23141447491E+03  0.12500000000E+03 0.  0.
         25    1    1    2    0    0 -0.29634354326E+02  0.58325831613E+02  0.57885212553E+02  0.15249850957E+03  0.12500000000E+03 0.  0.
         25    1    1    2    0    0 -0.73302158117E+02 -0.21625185201E+03  0.56157703823E+02  0.26630200446E+03  0.12500000000E+03 0.  0.
</event>
<event>
 5    0  0.5641283E-005  0.2327255E+03  0.7546771E-02  0.1124736E+00
         21   -1    0    0  502  501  0.00000000000E+00  0.00000000000E+00  0.20209512848E+03  0.20209512848E+03  0.00000000000E+00 0.  1.
         21   -1    0    0  501  502 -0.00000000000E+00 -0.00000000000E+00 -0.26799843946E+03  0.26799843946E+03  0.00000000000E+00 0.  1.
         25    1    1    2    0    0 -0.42262813386E+02 -0.98127047166E+02 -0.75907186966E+02  0.18111312436E+03  0.12500000000E+03 0.  0.
         25    1    1    2    0    0 -0.22538890268E+02  0.69942575505E+02 -0.55416692290E+00  0.14500093980E+03  0.12500000000E+03 0.  0.
         25    1    1    2    0    0  0.64801703655E+02  0.28184471661E+02  0.10558042902E+02  0.14397950378E+03  0.12500000000E+03 0.  0.
</event>
<event>
 5    0  0.5641283E-005  0.3211698E+03  0.7546771E-02  0.1075112E+00
         21   -1    0    0  502  501  0.00000000000E+00  0.00000000000E+00  0.33853628819E+03  0.33853628819E+03  0.00000000000E+00 0.  1.
         21   -1    0    0  501  502 -0.00000000000E+00 -0.00000000000E+00 -0.30469410654E+03  0.30469410654E+03  0.00000000000E+00 0.  1.
         25    1    1    2    0    0  0.45698485391E+02  0.19980567382E+03  0.11730299575E+02  0.24036068477E+03  0.12500000000E+03 0.  0.
         25    1    1    2    0    0 -0.66497966802E+02 -0.22595740438E+03  0.47939962283E+02  0.27092797597E+03  0.12500000000E+03 0.  0.
         25    1    1    2    0    0  0.20799481411E+02  0.26151730562E+02 -0.25828080205E+02  0.13194173398E+03  0.12500000000E+03 0.  0.
</event>
<event>
 5    0  0.5641283E-005  0.2141391E+03  0.7546771E-02  0.1138330E+00
         21   -1    0    0  502  501  0.00000000000E+00  0.00000000000E+00  0.90595115796E+03  0.90595115796E+03  0.00000000000E+00 0. -1.
         21   -1    0    0  501  502 -0.00000000000E+00 -0.00000000000E+00 -0.50615937381E+02  0.50615937381E+02  0.00000000000E+00 0. -1.
         25    1    1    2    0    0  0.35970142744E+02  0.47226342219E+02  0.26477694378E+03  0.29875744095E+03  0.12500000000E+03 0.  0.
         25    1    1    2    0    0 -0.79255145921E+01  0.43530755299E+02  0.28101145383E+03  0.31072524458E+03  0.12500000000E+03 0.  0.
         25    1    1    2    0    0 -0.28044628152E+02 -0.90757097518E+02  0.30954682298E+03  0.34708440981E+03  0.12500000000E+03 0.  0.
</event>
<event>
 5    0  0.5641283E-005  0.2814629E+03  0.7546771E-02  0.1094893E+00
         21   -1    0    0  502  501  0.00000000000E+00  0.00000000000E+00  0.93255685941E+02  0.93255685941E+02  0.00000000000E+00 0.  1.
         21   -1    0    0  501  502 -0.00000000000E+00 -0.00000000000E+00 -0.84950713422E+03  0.84950713422E+03  0.00000000000E+00 0.  1.
         25    1    1    2    0    0 -0.18464175925E+02 -0.51834568453E+02 -0.48979811847E+03  0.50848298412E+03  0.12500000000E+03 0.  0.
         25    1    1    2    0    0  0.90949339732E+02 -0.45175346319E+02 -0.82166751245E+02  0.18080091074E+03  0.12500000000E+03 0.  0.
         25    1    1    2    0    0 -0.72485163808E+02  0.97009914772E+02 -0.18428657856E+03  0.25347892530E+03  0.12500000000E+03 0.  0.
</event>
<event>
 5    0  0.6183467E-005  0.2750231E+03  0.7546771E-02  0.1098439E+00
         21   -1    0    0  502  501  0.00000000000E+00  0.00000000000E+00  0.15183014952E+03  0.15183014952E+03  0.00000000000E+00 0. -1.
         21   -1    0    0  501  502 -0.00000000000E+00 -0.00000000000E+00 -0.49817304392E+03  0.49817304392E+03  0.00000000000E+00 0. -1.
         25    1    1    2    0    0 -0.77296073611E+02 -0.59053079516E+01 -0.18987095495E+03  0.24017813221E+03  0.12500000000E+03 0.  0.
         25    1    1    2    0    0  0.49871335833E+02  0.19050984068E+02 -0.22589993418E+03  0.26363966013E+03  0.12500000000E+03 0.  0.
         25    1    1    2    0    0  0.27424737778E+02 -0.13145676117E+02  0.69427994733E+02  0.14618540110E+03  0.12500000000E+03 0.  0.
</event>
<event>
 5    0  0.5641283E-005  0.2843053E+03  0.7546771E-02  0.1093360E+00
         21   -1    0    0  502  501  0.00000000000E+00  0.00000000000E+00  0.26330492229E+03  0.26330492229E+03  0.00000000000E+00 0.  1.
         21   -1    0    0  501  502 -0.00000000000E+00 -0.00000000000E+00 -0.30698063797E+03  0.30698063797E+03  0.00000000000E+00 0.  1.
         25    1    1    2    0    0 -0.61772970855E+02 -0.80799130438E+02 -0.97569061792E+02  0.18838556534E+03  0.12500000000E+03 0.  0.
         25    1    1    2    0    0  0.40652861780E+01  0.13917681093E+03  0.11580114094E+03  0.22004912064E+03  0.12500000000E+03 0.  0.
         25    1    1    2    0    0  0.57707684677E+02 -0.58377680489E+02 -0.61907794824E+02  0.16185087429E+03  0.12500000000E+03 0.  0.
</event>
<event>
 5    0  0.5641283E-005  0.4608049E+03  0.7546771E-02  0.1024548E+00
         21   -1    0    0  502  501  0.00000000000E+00  0.00000000000E+00  0.12373025740E+03  0.12373025740E+03  0.00000000000E+00 0. -1.
         21   -1    0    0  501  502 -0.00000000000E+00 -0.00000000000E+00 -0.17161617103E+04  0.17161617103E+04  0.00000000000E+00 0. -1.
         25    1    1    2    0    0  0.72842674705E+02  0.24470292282E+02  0.38026951620E+02  0.15157803110E+03  0.12500000000E+03 0.  0.
         25    1    1    2    0    0  0.64628296714E+02  0.13374843835E+03 -0.71781660472E+03  0.74360684472E+03  0.12500000000E+03 0.  0.
         25    1    1    2    0    0 -0.13747097142E+03 -0.15821873063E+03 -0.91264179980E+03  0.94470709188E+03  0.12500000000E+03 0.  0.
</event>
<event>
 5    0  0.5641283E-005  0.3230252E+03  0.7546771E-02  0.1074265E+00
         21   -1    0    0  502  501  0.00000000000E+00  0.00000000000E+00  0.19750017988E+04  0.19750017988E+04  0.00000000000E+00 0. -1.
         21   -1    0    0  501  502 -0.00000000000E+00 -0.00000000000E+00 -0.52833003451E+02  0.52833003451E+02  0.00000000000E+00 0. -1.
         25    1    1    2    0    0  0.18711338750E+02  0.89139533107E+01  0.15297840832E+03  0.19863777630E+03  0.12500000000E+03 0.  0.
         25    1    1    2    0    0 -0.89044895426E+02 -0.10206473134E+03  0.14930660292E+04  0.15043993388E+04  0.12500000000E+03 0.  0.
         25    1    1    2    0    0  0.70333556677E+02  0.93150778027E+02  0.27612435779E+03  0.32479768719E+03  0.12500000000E+03 0.  0.
</event>
<event>
 5    0  0.5641283E-005  0.3140614E+03  0.7546771E-02  0.1078415E+00
         21   -1    0    0  502  501  0.00000000000E+00  0.00000000000E+00  0.78168358887E+02  0.78168358887E+02  0.00000000000E+00 0. -1.
         21   -1    0    0  501  502 -0.00000000000E+00 -0.00000000000E+00 -0.12618222779E+04  0.12618222779E+04  0.00000000000E+00 0. -1.
         25    1    1    2    0    0 -0.11559996042E+03  0.17260535897E+03 -0.65461529951E+03  0.69807030531E+03  0.12500000000E+03 0.  0.
         25    1    1    2    0    0  0.98735915774E+02 -0.10305510323E+03 -0.42130015405E+03  0.46204756808E+03  0.12500000000E+03 0.  0.
         25    1    1    2    0    0  0.16864044646E+02 -0.69550255741E+02 -0.10773846545E+03  0.17987276340E+03  0.12500000000E+03 0.  0.
</event>
<event>
 5    0  0.5641283E-005  0.3572204E+03  0.7546771E-02  0.1059690E+00
         21   -1    0    0  502  501  0.00000000000E+00  0.00000000000E+00  0.19330856856E+03  0.19330856856E+03  0.00000000000E+00 0.  1.
         21   -1    0    0  501  502 -0.00000000000E+00 -0.00000000000E+00 -0.66011782602E+03  0.66011782602E+03  0.00000000000E+00 0.  1.
         25    1    1    2    0    0  0.36420376054E+02 -0.32333833471E+00 -0.26308389660E+03  0.29353821725E+03  0.12500000000E+03 0.  0.
         25    1    1    2    0    0  0.18788248555E+03 -0.25578250850E+02 -0.19868729521E+03  0.30175439777E+03  0.12500000000E+03 0.  0.
         25    1    1    2    0    0 -0.22430286160E+03  0.25901589185E+02 -0.50380656474E+01  0.25813377956E+03  0.12500000000E+03 0.  0.
</event>
<event>
 5    0  0.5641283E-005  0.3508238E+03  0.7546771E-02  0.1062277E+00
         21   -1    0    0  502  501  0.00000000000E+00  0.00000000000E+00  0.94437881062E+02  0.94437881062E+02  0.00000000000E+00 0. -1.
         21   -1    0    0  501  502 -0.00000000000E+00 -0.00000000000E+00 -0.13032625418E+04  0.13032625418E+04  0.00000000000E+00 0. -1.
         25    1    1    2    0    0 -0.10586151439E+03 -0.66151165837E+02 -0.74912153412E+03  0.76966922107E+03  0.12500000000E+03 0.  0.
         25    1    1    2    0    0  0.79720303894E+02  0.15281356922E+03 -0.41649924473E+03  0.46776482836E+03  0.12500000000E+03 0.  0.
         25    1    1    2    0    0  0.26141210500E+02 -0.86662403378E+02 -0.43203881892E+02  0.16026637344E+03  0.12500000000E+03 0.  0.
</event>
<event>
 5    0  0.5641283E-005  0.2339046E+03  0.7546771E-02  0.1123921E+00
         21   -1    0    0  502  501  0.00000000000E+00  0.00000000000E+00  0.75904679701E+02  0.75904679701E+02  0.00000000000E+00 0.  1.
         21   -1    0    0  501  502 -0.00000000000E+00 -0.00000000000E+00 -0.72079064626E+03  0.72079064626E+03  0.00000000000E+00 0.  1.
         25    1    1    2    0    0  0.10233198149E+03 -0.10218664736E+02 -0.11481177672E+03  0.19845150445E+03  0.12500000000E+03 0.  0.
         25    1    1    2    0    0 -0.34553536732E+02  0.12703952614E+02 -0.19840807512E+03  0.23737333799E+03  0.12500000000E+03 0.  0.
         25    1    1    2    0    0 -0.67778444755E+02 -0.24852878785E+01 -0.33166611472E+03  0.36087048353E+03  0.12500000000E+03 0.  0.
</event>
<event>
 5    0  0.5641283E-005  0.2239096E+03  0.7546771E-02  0.1131001E+00
         21   -1    0    0  502  501  0.00000000000E+00  0.00000000000E+00  0.14171675848E+03  0.14171675848E+03  0.00000000000E+00 0. -1.
         21   -1    0    0  501  502 -0.00000000000E+00 -0.00000000000E+00 -0.35377264650E+03  0.35377264650E+03  0.00000000000E+00 0. -1.
         25    1    1    2    0    0  0.43133916422E+02  0.59154555684E+02 -0.78780032536E+02  0.16489720959E+03  0.12500000000E+03 0.  0.
         25    1    1    2    0    0  0.20002430087E+00  0.78893267245E+01 -0.13242486790E+03  0.18227349540E+03  0.12500000000E+03 0.  0.
         25    1    1    2    0    0 -0.43333940723E+02 -0.67043882408E+02 -0.85098757676E+00  0.14831869999E+03  0.12500000000E+03 0.  0.
</event>
<event>
 5    0  0.5641283E-005  0.2774421E+03  0.7546771E-02  0.1097094E+00
         21   -1    0    0  502  501  0.00000000000E+00  0.00000000000E+00  0.15283095203E+03  0.15283095203E+03  0.00000000000E+00 0. -1.
         21   -1    0    0  501  502 -0.00000000000E+00 -0.00000000000E+00 -0.50365542729E+03  0.50365542729E+03  0.00000000000E+00 0. -1.
         25    1    1    2    0    0  0.80173767918E+01 -0.25272205801E+02 -0.24293229532E+03  0.27448872987E+03  0.12500000000E+03 0.  0.
         25    1    1    2    0    0  0.32151777529E+02  0.11437602904E+02  0.80058697672E+02  0.15231201736E+03  0.12500000000E+03 0.  0.
         25    1    1    2    0    0 -0.40169154321E+02  0.13834602898E+02 -0.18795087761E+03  0.22968563210E+03  0.12500000000E+03 0.  0.
</event>
<event>
 5    0  0.5641283E-005  0.3275842E+03  0.7546771E-02  0.1072211E+00
         21   -1    0    0  502  501  0.00000000000E+00  0.00000000000E+00  0.69790716034E+02  0.69790716034E+02  0.00000000000E+00 0. -1.
         21   -1    0    0  501  502 -0.00000000000E+00 -0.00000000000E+00 -0.15376175207E+04  0.15376175207E+04  0.00000000000E+00 0. -1.
         25    1    1    2    0    0  0.69430627480E+02 -0.66350105431E+01 -0.53146868447E+03  0.55040766525E+03  0.12500000000E+03 0.  0.
         25    1    1    2    0    0  0.63736774319E+02  0.93417731424E+02 -0.78896567343E+03  0.80677201413E+03  0.12500000000E+03 0.  0.
         25    1    1    2    0    0 -0.13316740180E+03 -0.86782720881E+02 -0.14739244676E+03  0.25022855734E+03  0.12500000000E+03 0.  0.
</event>
<event>
 5    0  0.5641283E-005  0.2996038E+03  0.7546771E-02  0.1085439E+00
         21   -1    0    0  502  501  0.00000000000E+00  0.00000000000E+00  0.23018757248E+03  0.23018757248E+03  0.00000000000E+00 0. -1.
         21   -1    0    0  501  502 -0.00000000000E+00 -0.00000000000E+00 -0.38995351503E+03  0.38995351503E+03  0.00000000000E+00 0. -1.
         25    1    1    2    0    0  0.21170995998E+02 -0.18711743386E+03 -0.49751953156E+02  0.23143336399E+03  0.12500000000E+03 0.  0.
         25    1    1    2    0    0 -0.16202685922E+01 -0.23182124704E+02 -0.30841397082E+02  0.13082900271E+03  0.12500000000E+03 0.  0.
         25    1    1    2    0    0 -0.19550727406E+02  0.21029955856E+03 -0.79172592310E+02  0.25787872081E+03  0.12500000000E+03 0.  0.
</event>
<event>
 5    0  0.5641283E-005  0.3722702E+03  0.7546771E-02  0.1053828E+00
         21   -1    0    0  502  501  0.00000000000E+00  0.00000000000E+00  0.34850257755E+03  0.34850257755E+03  0.00000000000E+00 0. -1.
         21   -1    0    0  501  502 -0.00000000000E+00 -0.00000000000E+00 -0.39765877157E+03  0.39765877157E+03  0.00000000000E+00 0. -1.
         25    1    1    2    0    0 -0.26369956320E+03 -0.60681775689E+02  0.16922261392E+02  0.29854832182E+03  0.12500000000E+03 0.  0.
         25    1    1    2    0    0  0.22745135067E+03 -0.47489402662E+02 -0.85300665680E+02  0.27729147815E+03  0.12500000000E+03 0.  0.
         25    1    1    2    0    0  0.36248212527E+02  0.10817117835E+03  0.19222210265E+02  0.17032154915E+03  0.12500000000E+03 0.  0.
</event>
<event>
 5    0  0.5641283E-005  0.3203210E+03  0.7546771E-02  0.1075502E+00
         21   -1    0    0  502  501  0.00000000000E+00  0.00000000000E+00  0.12337060578E+03  0.12337060578E+03  0.00000000000E+00 0. -1.
         21   -1    0    0  501  502 -0.00000000000E+00 -0.00000000000E+00 -0.83168528749E+03  0.83168528749E+03  0.00000000000E+00 0. -1.
         25    1    1    2    0    0  0.14676853921E+03  0.52141358081E+01 -0.56036274626E+03  0.59262095703E+03  0.12500000000E+03 0.  0.
         25    1    1    2    0    0 -0.11327797884E+01  0.28622533415E+02 -0.21260606198E+02  0.12999056114E+03  0.12500000000E+03 0.  0.
         25    1    1    2    0    0 -0.14563575942E+03 -0.33836669223E+02 -0.12669132926E+03  0.23244437510E+03  0.12500000000E+03 0.  0.
</event>
<event>
 5    0  0.5641283E-005  0.3621988E+03  0.7546771E-02  0.1057717E+00
         21   -1    0    0  502  501  0.00000000000E+00  0.00000000000E+00  0.11513220761E+04  0.11513220761E+04  0.00000000000E+00 0.  1.
         21   -1    0    0  501  502 -0.00000000000E+00 -0.00000000000E+00 -0.11394549381E+03  0.11394549381E+03  0.00000000000E+00 0.  1.
         25    1    1    2    0    0 -0.55548682473E+02  0.48636347503E+02  0.81781392769E+03  0.83059964528E+03  0.12500000000E+03 0.  0.
         25    1    1    2    0    0  0.15544722594E+03  0.13252435664E+02  0.14819616083E+03  0.24885049566E+03  0.12500000000E+03 0.  0.
         25    1    1    2    0    0 -0.99898543469E+02 -0.61888783167E+02  0.71366493736E+02  0.18581742894E+03  0.12500000000E+03 0.  0.
</event>
<event>
 5    0  0.5641283E-005  0.4144164E+03  0.7546771E-02  0.1038899E+00
         21   -1    0    0  502  501  0.00000000000E+00  0.00000000000E+00  0.20386733060E+04  0.20386733060E+04  0.00000000000E+00 0.  1.
         21   -1    0    0  501  502 -0.00000000000E+00 -0.00000000000E+00 -0.84241532721E+02  0.84241532721E+02  0.00000000000E+00 0.  1.
         25    1    1    2    0    0 -0.13872346873E+03  0.15905007548E+03  0.21863479992E+03  0.32858378387E+03  0.12500000000E+03 0.  0.
         25    1    1    2    0    0  0.10714397041E+03 -0.17434156982E+03  0.53189197645E+03  0.58344570268E+03  0.12500000000E+03 0.  0.
         25    1    1    2    0    0  0.31579498322E+02  0.15291494334E+02  0.12039049969E+04  0.12108853521E+04  0.12500000000E+03 0.  0.
</event>
<event>
 5    0  0.5641283E-005  0.2292411E+03  0.7546771E-02  0.1127175E+00
         21   -1    0    0  502  501  0.00000000000E+00  0.00000000000E+00  0.26999639552E+03  0.26999639552E+03  0.00000000000E+00 0.  1.
         21   -1    0    0  501  502 -0.00000000000E+00 -0.00000000000E+00 -0.19463779048E+03  0.19463779048E+03  0.00000000000E+00 0.  1.
         25    1    1    2    0    0 -0.36743364058E+02  0.53593554440E+02 -0.10330553629E+02  0.14125885536E+03  0.12500000000E+03 0.  0.
         25    1    1    2    0    0  0.20641082226E+01  0.63219772848E+01  0.12320983431E+03  0.17564137101E+03  0.12500000000E+03 0.  0.
         25    1    1    2    0    0  0.34679255836E+02 -0.59915531725E+02 -0.37520675635E+02  0.14773395963E+03  0.12500000000E+03 0.  0.
</event>
<event>
 5    0  0.5641283E-005  0.4292366E+03  0.7546771E-02  0.1034101E+00
         21   -1    0    0  502  501  0.00000000000E+00  0.00000000000E+00  0.27890693605E+03  0.27890693605E+03  0.00000000000E+00 0.  1.
         21   -1    0    0  501  502 -0.00000000000E+00 -0.00000000000E+00 -0.66059333651E+03  0.66059333651E+03  0.00000000000E+00 0.  1.
         25    1    1    2    0    0 -0.14647006383E+03 -0.63320925954E+02 -0.22198842033E+03  0.30061084149E+03  0.12500000000E+03 0.  0.
         25    1    1    2    0    0 -0.53702227697E+02  0.27128876102E+03 -0.64796118834E+02  0.31033056268E+03  0.12500000000E+03 0.  0.
         25    1    1    2    0    0  0.20017229153E+03 -0.20796783507E+03 -0.94901861290E+02  0.32855886839E+03  0.12500000000E+03 0.  0.
</event>
<event>
 5    0  0.6863501E-005  0.4788390E+03  0.7546771E-02  0.1019455E+00
         21   -1    0    0  502  501  0.00000000000E+00  0.00000000000E+00  0.85754572828E+03  0.85754572828E+03  0.00000000000E+00 0.  1.
         21   -1    0    0  501  502 -0.00000000000E+00 -0.00000000000E+00 -0.26737558152E+03  0.26737558152E+03  0.00000000000E+00 0.  1.
         25    1    1    2    0    0  0.58073050770E+02 -0.13563491801E+03  0.54849996965E+03  0.58158965510E+03  0.12500000000E+03 0.  0.
         25    1    1    2    0    0 -0.88064089342E+02  0.21982197181E+03  0.19111782864E+03  0.32898025403E+03  0.12500000000E+03 0.  0.
         25    1    1    2    0    0  0.29991038572E+02 -0.84187053792E+02 -0.14944765153E+03  0.21435140067E+03  0.12500000000E+03 0.  0.
</event>
<event>
 5    0  0.5641283E-005  0.3349816E+03  0.7546771E-02  0.1068954E+00
         21   -1    0    0  502  501  0.00000000000E+00  0.00000000000E+00  0.43386381047E+03  0.43386381047E+03  0.00000000000E+00 0. -1.
         21   -1    0    0  501  502 -0.00000000000E+00 -0.00000000000E+00 -0.25863575693E+03  0.25863575693E+03  0.00000000000E+00 0. -1.
         25    1    1    2    0    0 -0.12186527000E+03  0.51913682377E+01 -0.15204674608E+03  0.23156275031E+03  0.12500000000E+03 0.  0.
         25    1    1    2    0    0  0.10576484183E+03  0.32204601153E+02  0.27028679381E+03  0.31765278058E+03  0.12500000000E+03 0.  0.
         25    1    1    2    0    0  0.16100428177E+02 -0.37395969390E+02  0.56988005807E+02  0.14328403651E+03  0.12500000000E+03 0.  0.
</event>
<event>
 5    0  0.5641283E-005  0.2663354E+03  0.7546771E-02  0.1103395E+00
         21   -1    0    0  502  501  0.00000000000E+00  0.00000000000E+00  0.81341925693E+02  0.81341925693E+02  0.00000000000E+00 0. -1.
         21   -1    0    0  501  502 -0.00000000000E+00 -0.00000000000E+00 -0.87205375770E+03  0.87205375770E+03  0.00000000000E+00 0. -1.
         25    1    1    2    0    0 -0.66510826543E+02  0.49925344740E+02 -0.47322128828E+03  0.49646713665E+03  0.12500000000E+03 0.  0.
         25    1    1    2    0    0  0.79173576116E+02  0.39057574969E+02 -0.76832765952E+02  0.17123733016E+03  0.12500000000E+03 0.  0.
         25    1    1    2    0    0 -0.12662749573E+02 -0.88982919709E+02 -0.24065777778E+03  0.28569121658E+03  0.12500000000E+03 0.  0.
</event>
<event>
 5    0  0.5641283E-005  0.2315568E+03  0.7546771E-02  0.1125549E+00
         21   -1    0    0  502  501  0.00000000000E+00  0.00000000000E+00  0.10643237747E+04  0.10643237747E+04  0.00000000000E+00 0.  1.
         21   -1    0    0  501  502 -0.00000000000E+00 -0.00000000000E+00 -0.50378061151E+02  0.50378061151E+02  0.00000000000E+00 0.  1.
         25    1    1    2    0    0 -0.77717175391E+02  0.12303930164E+02  0.38254551673E+03  0.41007001649E+03  0.12500000000E+03 0.  0.
         25    1    1    2    0    0  0.26671966104E+02 -0.45111342721E+02  0.14375855945E+03  0.19758023796E+03  0.12500000000E+03 0.  0.
         25    1    1    2    0    0  0.51045209287E+02  0.32807412557E+02  0.48764163732E+03  0.50705158136E+03  0.12500000000E+03 0.  0.
</event>
<event>
 5    0  0.5641283E-005  0.3405512E+03  0.7546771E-02  0.1066561E+00
         21   -1    0    0  502  501  0.00000000000E+00  0.00000000000E+00  0.12154200786E+03  0.12154200786E+03  0.00000000000E+00 0.  1.
         21   -1    0    0  501  502 -0.00000000000E+00 -0.00000000000E+00 -0.95419804030E+03  0.95419804030E+03  0.00000000000E+00 0.  1.
         25    1    1    2    0    0 -0.31753629668E+02  0.24937044195E+02 -0.33857216530E+03  0.36316147963E+03  0.12500000000E+03 0.  0.
         25    1    1    2    0    0  0.40673508585E+02  0.19301047447E+03 -0.35597153246E+03  0.42573243884E+03  0.12500000000E+03 0.  0.
         25    1    1    2    0    0 -0.89198789166E+01 -0.21794751866E+03 -0.13811233469E+03  0.28684612970E+03  0.12500000000E+03 0.  0.
</event>
<event>
 5    0  0.5641283E-005  0.2816115E+03  0.7546771E-02  0.1094812E+00
         21   -1    0    0  502  501  0.00000000000E+00  0.00000000000E+00  0.11377413231E+03  0.11377413231E+03  0.00000000000E+00 0. -1.
         21   -1    0    0  501  502 -0.00000000000E+00 -0.00000000000E+00 -0.69703905810E+03  0.69703905810E+03  0.00000000000E+00 0. -1.
         25    1    1    2    0    0 -0.12868749612E+03 -0.12133222895E+03 -0.11091054606E+03  0.24332720905E+03  0.12500000000E+03 0.  0.
         25    1    1    2    0    0  0.10218056498E+03  0.73739111319E+02 -0.28537065500E+03  0.33606507574E+03  0.12500000000E+03 0.  0.
         25    1    1    2    0    0  0.26506931136E+02  0.47593117633E+02 -0.18698372473E+03  0.23142090562E+03  0.12500000000E+03 0.  0.
</event>
<event>
 5    0  0.5641283E-005  0.2807489E+03  0.7546771E-02  0.1095281E+00
         21   -1    0    0  502  501  0.00000000000E+00  0.00000000000E+00  0.10010474046E+03  0.10010474046E+03  0.00000000000E+00 0. -1.
         21   -1    0    0  501  502 -0.00000000000E+00 -0.00000000000E+00 -0.78737477642E+03  0.78737477642E+03  0.00000000000E+00 0. -1.
         25    1    1    2    0    0  0.17101238515E+03 -0.25390774045E+02 -0.18030535835E+03  0.27932946413E+03  0.12500000000E+03 0.  0.
         25    1    1    2    0    0 -0.10485080135E+03 -0.56182144012E+02 -0.26727821120E+03  0.31813953861E+03  0.12500000000E+03 0.  0.
         25    1    1    2    0    0 -0.66161583799E+02  0.81572918057E+02 -0.23968646641E+03  0.29001051414E+03  0.12500000000E+03 0.  0.
</event>
<event>
 5    0  0.5641283E-005  0.3975322E+03  0.7546771E-02  0.1044638E+00
         21   -1    0    0  502  501  0.00000000000E+00  0.00000000000E+00  0.72232816074E+03  0.72232816074E+03  0.00000000000E+00 0.  1.
         21   -1    0    0  501  502 -0.00000000000E+00 -0.00000000000E+00 -0.21878118656E+03  0.21878118656E+03  0.00000000000E+00 0.  1.
         25    1    1    2    0    0 -0.13090366679E+03 -0.35901826597E+02  0.39450772693E+03  0.43552962900E+03  0.12500000000E+03 0.  0.
         25    1    1    2    0    0 -0.12793948690E+03  0.50481972291E+02  0.11342429746E+03  0.21773151607E+03  0.12500000000E+03 0.  0.
         25    1    1    2    0    0  0.25884315369E+03 -0.14580145694E+02 -0.43850502111E+01  0.28784820222E+03  0.12500000000E+03 0.  0.
</event>
<event>
 5    0  0.5641283E-005  0.2797917E+03  0.7546771E-02  0.1095803E+00
         21   -1    0    0  502  501  0.00000000000E+00  0.00000000000E+00  0.24119351223E+03  0.24119351223E+03  0.00000000000E+00 0. -1.
         21   -1    0    0  501  502 -0.00000000000E+00 -0.00000000000E+00 -0.32456686254E+03  0.32456686254E+03  0.00000000000E+00 0. -1.
         25    1    1    2    0    0  0.15469461307E+02  0.11040993601E+02  0.84475379385E+02  0.15206017722E+03  0.12500000000E+03 0.  0.
         25    1    1    2    0    0 -0.10853260315E+03  0.91741768908E+02 -0.10664400153E+03  0.21724138917E+03  0.12500000000E+03 0.  0.
         25    1    1    2    0    0  0.93063141840E+02 -0.10278276251E+03 -0.61204728163E+02  0.19645880837E+03  0.12500000000E+03 0.  0.
</event>
<event>
 5    0  0.5641283E-005  0.4052976E+03  0.7546771E-02  0.1041961E+00
         21   -1    0    0  502  501  0.00000000000E+00  0.00000000000E+00  0.28197026305E+04  0.28197026305E+04  0.00000000000E+00 0. -1.
         21   -1    0    0  501  502 -0.00000000000E+00 -0.00000000000E+00 -0.58256557710E+02  0.58256557710E+02  0.00000000000E+00 0. -1.
         25    1    1    2    0    0  0.50137895559E+02  0.71101067163E+02  0.21059525129E+04  0.21114521441E+04  0.12500000000E+03 0.  0.
         25    1    1    2    0    0 -0.11547540851E+03  0.70315235465E+02  0.41413524647E+03  0.45322379094E+03  0.12500000000E+03 0.  0.
         25    1    1    2    0    0  0.65337512952E+02 -0.14141630263E+03  0.24135831344E+03  0.31328325317E+03  0.12500000000E+03 0.  0.
</event>
<event>
 5    0  0.5641283E-005  0.3515143E+03  0.7546771E-02  0.1061995E+00
         21   -1    0    0  502  501  0.00000000000E+00  0.00000000000E+00  0.11448969994E+04  0.11448969994E+04  0.00000000000E+00 0.  1.
         21   -1    0    0  501  502 -0.00000000000E+00 -0.00000000000E+00 -0.10792438916E+03  0.10792438916E+03  0.00000000000E+00 0.  1.
         25    1    1    2    0    0  0.95206762548E+02 -0.55059794105E+02  0.40711310819E+03  0.43984314411E+03  0.12500000000E+03 0.  0.
         25    1    1    2    0    0 -0.16930820001E+03  0.62110715812E+02  0.63039557290E+03  0.66749276097E+03  0.12500000000E+03 0.  0.
         25    1    1    2    0    0  0.74101437466E+02 -0.70509217063E+01 -0.53607084534E+00  0.14548548348E+03  0.12500000000E+03 0.  0.
</event>
<event>
 5    0  0.7740529E-005  0.6284456E+03  0.7546771E-02  0.9848087E-01
         21   -1    0    0  502  501  0.00000000000E+00  0.00000000000E+00  0.96795438010E+03  0.96795438010E+03  0.00000000000E+00 0.  1.
         21   -1    0    0  501  502 -0.00000000000E+00 -0.00000000000E+00 -0.40801907159E+03  0.40801907159E+03  0.00000000000E+00 0.  1.
         25    1    1    2    0    0  0.33964124630E+03  0.23468349177E+03  0.24530600421E+03  0.49621825158E+03  0.12500000000E+03 0.  0.
         25    1    1    2    0    0 -0.26350409318E+02 -0.25430989596E+03  0.43606606580E+03  0.52071727549E+03  0.12500000000E+03 0.  0.
         25    1    1    2    0    0 -0.31329083698E+03  0.19626404187E+02 -0.12143676149E+03  0.35903792463E+03  0.12500000000E+03 0.  0.
</event>
<event>
 5    0  0.6392696E-005  0.3253703E+03  0.7546771E-02  0.1073204E+00
         21   -1    0    0  502  501  0.00000000000E+00  0.00000000000E+00  0.16234629555E+03  0.16234629555E+03  0.00000000000E+00 0.  1.
         21   -1    0    0  501  502 -0.00000000000E+00 -0.00000000000E+00 -0.65209897987E+03  0.65209897987E+03  0.00000000000E+00 0.  1.
         25    1    1    2    0    0 -0.62438038766E+02  0.37365882205E+02  0.24951244430E+02  0.14677289408E+03  0.12500000000E+03 0.  0.
         25    1    1    2    0    0  0.16919665242E+03  0.58365978947E+02 -0.18112265093E+03  0.28366266827E+03  0.12500000000E+03 0.  0.
         25    1    1    2    0    0 -0.10675861365E+03 -0.95731861152E+02 -0.33358127781E+03  0.38400971308E+03  0.12500000000E+03 0.  0.
</event>
<event>
 5    0  0.5641283E-005  0.4588080E+03  0.7546771E-02  0.1025127E+00
         21   -1    0    0  502  501  0.00000000000E+00  0.00000000000E+00  0.69433625512E+02  0.69433625512E+02  0.00000000000E+00 0.  1.
         21   -1    0    0  501  502 -0.00000000000E+00 -0.00000000000E+00 -0.30317411757E+04  0.30317411757E+04  0.00000000000E+00 0.  1.
         25    1    1    2    0    0  0.87694984484E+02  0.30250123766E+03 -0.81130305996E+03  0.87922412626E+03  0.12500000000E+03 0.  0.
         25    1    1    2    0    0  0.18991686220E+02 -0.13169221650E+03 -0.26912542463E+03  0.32520304152E+03  0.12500000000E+03 0.  0.
         25    1    1    2    0    0 -0.10668667070E+03 -0.17080902116E+03 -0.18818790656E+04  0.18967476334E+04  0.12500000000E+03 0.  0.
</event>
<event>
 5    0  0.5641283E-005  0.2547956E+03  0.7546771E-02  0.1110311E+00
         21   -1    0    0  502  501  0.00000000000E+00  0.00000000000E+00  0.42523402723E+03  0.42523402723E+03  0.00000000000E+00 0. -1.
         21   -1    0    0  501  502 -0.00000000000E+00 -0.00000000000E+00 -0.15267080067E+03  0.15267080067E+03  0.00000000000E+00 0. -1.
         25    1    1    2    0    0  0.47715008973E+02 -0.22210284967E+02  0.70200802528E+02  0.15271925719E+03  0.12500000000E+03 0.  0.
         25    1    1    2    0    0 -0.13883011652E+03  0.86979770763E+02  0.10506197635E+03  0.23130564336E+03  0.12500000000E+03 0.  0.
         25    1    1    2    0    0  0.91115107548E+02 -0.64769485797E+02  0.97300447677E+02  0.19387992736E+03  0.12500000000E+03 0.  0.
</event>
<event>
 5    0  0.5641283E-005  0.3342345E+03  0.7546771E-02  0.1069278E+00
         21   -1    0    0  502  501  0.00000000000E+00  0.00000000000E+00  0.80138159681E+03  0.80138159681E+03  0.00000000000E+00 0.  1.
         21   -1    0    0  501  502 -0.00000000000E+00 -0.00000000000E+00 -0.13940011423E+03  0.13940011423E+03  0.00000000000E+00 0.  1.
         25    1    1    2    0    0 -0.12021150226E+03  0.70524226336E+02  0.17898428931E+02  0.18806867239E+03  0.12500000000E+03 0.  0.
         25    1    1    2    0    0  0.18152745188E+03  0.53537403742E+01  0.28614843173E+03  0.36122957147E+03  0.12500000000E+03 0.  0.
         25    1    1    2    0    0 -0.61315949627E+02 -0.75877966710E+02  0.35793462192E+03  0.39148346719E+03  0.12500000000E+03 0.  0.
</event>
<event>
 5    0  0.5641283E-005  0.3067605E+03  0.7546771E-02  0.1081909E+00
         21   -1    0    0  502  501  0.00000000000E+00  0.00000000000E+00  0.21920836005E+04  0.21920836005E+04  0.00000000000E+00 0. -1.
         21   -1    0    0  501  502 -0.00000000000E+00 -0.00000000000E+00 -0.42928120275E+02  0.42928120275E+02  0.00000000000E+00 0. -1.
         25    1    1    2    0    0 -0.58566705405E+02  0.71645103094E+02  0.22040068917E+03  0.26974903812E+03  0.12500000000E+03 0.  0.
         25    1    1    2    0    0  0.12304251984E+03  0.47636690646E+02  0.11920317125E+04  0.12058081604E+04  0.12500000000E+03 0.  0.
         25    1    1    2    0    0 -0.64475814432E+02 -0.11928179374E+03  0.73672307858E+03  0.75945452233E+03  0.12500000000E+03 0.  0.
</event>
<event>
 5    0  0.5641283E-005  0.2928350E+03  0.7546771E-02  0.1088878E+00
         21   -1    0    0  502  501  0.00000000000E+00  0.00000000000E+00  0.79322701295E+02  0.79322701295E+02  0.00000000000E+00 0.  1.
         21   -1    0    0  501  502 -0.00000000000E+00 -0.00000000000E+00 -0.10810564404E+04  0.10810564404E+04  0.00000000000E+00 0.  1.
         25    1    1    2    0    0 -0.29244379312E+02 -0.68115050843E+01 -0.52116939839E+03  0.53679062225E+03  0.12500000000E+03 0.  0.
         25    1    1    2    0    0 -0.54565498955E+02 -0.65075769355E+02 -0.41964694635E+03  0.44602781193E+03  0.12500000000E+03 0.  0.
         25    1    1    2    0    0  0.83809878266E+02  0.71887274439E+02 -0.60917394390E+02  0.17756070754E+03  0.12500000000E+03 0.  0.
</event>
<event>
 5    0  0.5641283E-005  0.2269161E+03  0.7546771E-02  0.1128829E+00
         21   -1    0    0  502  501  0.00000000000E+00  0.00000000000E+00  0.42327054118E+03  0.42327054118E+03  0.00000000000E+00 0.  1.
         21   -1    0    0  501  502 -0.00000000000E+00 -0.00000000000E+00 -0.12165008881E+03  0.12165008881E+03  0.00000000000E+00 0.  1.
         25    1    1    2    0    0  0.28435963386E+02 -0.46448162601E+01  0.11989862312E+03  0.17558718108E+03  0.12500000000E+03 0.  0.
         25    1    1    2    0    0 -0.10329216522E+03 -0.17981948467E+02  0.14284908168E+03  0.21684898433E+03  0.12500000000E+03 0.  0.
         25    1    1    2    0    0  0.74856201831E+02  0.22626764727E+02  0.38872747565E+02  0.15248446458E+03  0.12500000000E+03 0.  0.
</event>
<event>
 5    0  0.5641283E-005  0.2257936E+03  0.7546771E-02  0.1129636E+00
         21   -1    0    0  502  501  0.00000000000E+00  0.00000000000E+00  0.12138838927E+04  0.12138838927E+04  0.00000000000E+00 0.  1.
         21   -1    0    0  501  502 -0.00000000000E+00 -0.00000000000E+00 -0.41999675965E+02  0.41999675965E+02  0.00000000000E+00 0.  1.
         25    1    1    2    0    0  0.32068094475E+02 -0.83730411392E+02  0.48247348716E+03  0.50640380161E+03  0.12500000000E+03 0.  0.
         25    1    1    2    0    0  0.28852803652E+02  0.50620317387E+02  0.22831020028E+03  0.26673104124E+03  0.12500000000E+03 0.  0.
         25    1    1    2    0    0 -0.60920898127E+02  0.33110094005E+02  0.46110052928E+03  0.48274872580E+03  0.12500000000E+03 0.  0.
</event>
<event>
 5    0  0.5641283E-005  0.1967335E+03  0.7546771E-02  0.1152525E+00
         21   -1    0    0  502  501  0.00000000000E+00  0.00000000000E+00  0.23705817526E+04  0.23705817526E+04  0.00000000000E+00 0.  1.
         21   -1    0    0  501  502 -0.00000000000E+00 -0.00000000000E+00 -0.16326821128E+02  0.16326821128E+02  0.00000000000E+00 0.  1.
         25    1    1    2    0    0  0.39808615012E+02  0.23612335259E+01  0.65450511190E+03  0.66752696032E+03  0.12500000000E+03 0.  0.
         25    1    1    2    0    0 -0.45274458442E+02 -0.75525368452E+01  0.81295880306E+03  0.82379234816E+03  0.12500000000E+03 0.  0.
         25    1    1    2    0    0  0.54658434306E+01  0.51913033192E+01  0.88679101654E+03  0.89558926528E+03  0.12500000000E+03 0.  0.
</event>
<event>
 5    0  0.5641283E-005  0.3399302E+03  0.7546771E-02  0.1066826E+00
         21   -1    0    0  502  501  0.00000000000E+00  0.00000000000E+00  0.18894033164E+03  0.18894033164E+03  0.00000000000E+00 0. -1.
         21   -1    0    0  501  502 -0.00000000000E+00 -0.00000000000E+00 -0.61158206999E+03  0.61158206999E+03  0.00000000000E+00 0. -1.
         25    1    1    2    0    0 -0.24617148634E+02 -0.68259157291E+02 -0.25520483898E+03  0.29329136775E+03  0.12500000000E+03 0.  0.
         25    1    1    2    0    0  0.24987025559E+02  0.23135836691E+03 -0.44789573669E+02  0.26792191268E+03  0.12500000000E+03 0.  0.
         25    1    1    2    0    0 -0.36987692489E+00 -0.16309920962E+03 -0.12264732571E+03  0.23930912120E+03  0.12500000000E+03 0.  0.
</event>
<event>
 5    0  0.5641283E-005  0.3701496E+03  0.7546771E-02  0.1054636E+00
         21   -1    0    0  502  501  0.00000000000E+00  0.00000000000E+00  0.26506678889E+03  0.26506678889E+03  0.00000000000E+00 0.  1.
         21   -1    0    0  501  502 -0.00000000000E+00 -0.00000000000E+00 -0.51689124341E+03  0.51689124341E+03  0.00000000000E+00 0.  1.
         25    1    1    2    0    0 -0.18970449021E+03  0.90242974329E+02  0.91599717043E+02  0.26104998790E+03  0.12500000000E+03 0.  0.
         25    1    1    2    0    0  0.99865554356E+02  0.50660403048E+02 -0.22586204618E+03  0.28138633458E+03  0.12500000000E+03 0.  0.
         25    1    1    2    0    0  0.89838935855E+02 -0.14090337738E+03 -0.11756212538E+03  0.23952170982E+03  0.12500000000E+03 0.  0.
</event>
<event>
 5    0  0.5641283E-005  0.3046504E+03  0.7546771E-02  0.1082939E+00
         21   -1    0    0  502  501  0.00000000000E+00  0.00000000000E+00  0.42069738195E+03  0.42069738195E+03  0.00000000000E+00 0. -1.
         21   -1    0    0  501  502 -0.00000000000E+00 -0.00000000000E+00 -0.22061435693E+03  0.22061435693E+03  0.00000000000E+00 0. -1.
         25    1    1    2    0    0 -0.29185588205E+02  0.57790859956E+02  0.11514170895E+03  0.18186312214E+03  0.12500000000E+03 0.  0.
         25    1    1    2    0    0 -0.11310926389E+03  0.54909367648E+02 -0.69389411932E+02  0.19039074222E+03  0.12500000000E+03 0.  0.
         25    1    1    2    0    0  0.14229485210E+03 -0.11270022760E+03  0.15433072801E+03  0.26905787452E+03  0.12500000000E+03 0.  0.
</event>
<event>
 5    0  0.6106717E-005  0.5139710E+03  0.7546771E-02  0.1010195E+00
         21   -1    0    0  502  501  0.00000000000E+00  0.00000000000E+00  0.65049566334E+03  0.65049566334E+03  0.00000000000E+00 0.  1.
         21   -1    0    0  501  502 -0.00000000000E+00 -0.00000000000E+00 -0.40609989767E+03  0.40609989767E+03  0.00000000000E+00 0.  1.
         25    1    1    2    0    0 -0.21105210122E+03  0.15024302540E+03  0.30155404005E+03  0.41674428032E+03  0.12500000000E+03 0.  0.
         25    1    1    2    0    0  0.39613134156E+02 -0.29228670019E+03  0.10530668913E+03  0.33721686535E+03  0.12500000000E+03 0.  0.
         25    1    1    2    0    0  0.17143896707E+03  0.14204367479E+03 -0.16246496351E+03  0.30263441533E+03  0.12500000000E+03 0.  0.
</event>
<event>
 5    0  0.5641283E-005  0.2229771E+03  0.7546771E-02  0.1131683E+00
         21   -1    0    0  502  501  0.00000000000E+00  0.00000000000E+00  0.54937797612E+03  0.54937797612E+03  0.00000000000E+00 0.  1.
         21   -1    0    0  501  502 -0.00000000000E+00 -0.00000000000E+00 -0.90500106154E+02  0.90500106154E+02  0.00000000000E+00 0.  1.
         25    1    1    2    0    0  0.16726444782E+02  0.15650693654E+02  0.10193257124E+03  0.16291091813E+03  0.12500000000E+03 0.  0.
         25    1    1    2    0    0 -0.89524979184E+02 -0.17058191549E+02  0.10672101127E+03  0.18793636701E+03  0.12500000000E+03 0.  0.
         25    1    1    2    0    0  0.72798534402E+02  0.14074978949E+01  0.25022428745E+03  0.28903079713E+03  0.12500000000E+03 0.  0.
</event>
<event>
 5    0  0.5641283E-005  0.4527315E+03  0.7546771E-02  0.1026911E+00
         21   -1    0    0  502  501  0.00000000000E+00  0.00000000000E+00  0.11925386326E+03  0.11925386326E+03  0.00000000000E+00 0.  1.
         21   -1    0    0  501  502 -0.00000000000E+00 -0.00000000000E+00 -0.17187352729E+04  0.17187352729E+04  0.00000000000E+00 0.  1.
         25    1    1    2    0    0 -0.19395048262E+03  0.69337507182E+02 -0.29594699460E+03  0.38162036532E+03  0.12500000000E+03 0.  0.
         25    1    1    2    0    0  0.37073388979E+03 -0.10556312948E+03 -0.64038035602E+03  0.75782530423E+03  0.12500000000E+03 0.  0.
         25    1    1    2    0    0 -0.17678340717E+03  0.36225622301E+02 -0.66315405906E+03  0.69854346666E+03  0.12500000000E+03 0.  0.
</event>
<event>
 5    0  0.8978627E-005  0.5228887E+03  0.7546771E-02  0.1007971E+00
         21   -1    0    0  502  501  0.00000000000E+00  0.00000000000E+00  0.30876188261E+03  0.30876188261E+03  0.00000000000E+00 0.  1.
         21   -1    0    0  501  502 -0.00000000000E+00 -0.00000000000E+00 -0.88551281398E+03  0.88551281398E+03  0.00000000000E+00 0.  1.
         25    1    1    2    0    0  0.31862527535E+03  0.89715581859E+01 -0.41036327169E+03  0.53443949115E+03  0.12500000000E+03 0.  0.
         25    1    1    2    0    0 -0.27796864215E+03 -0.34257035294E+01 -0.33043778816E+03  0.44954692003E+03  0.12500000000E+03 0.  0.
         25    1    1    2    0    0 -0.40656633197E+02 -0.55458546566E+01  0.16405012848E+03  0.21028828541E+03  0.12500000000E+03 0.  0.
</event>
<event>
 5    0  0.5641283E-005  0.3453500E+03  0.7546771E-02  0.1064540E+00
         21   -1    0    0  502  501  0.00000000000E+00  0.00000000000E+00  0.69588637251E+03  0.69588637251E+03  0.00000000000E+00 0. -1.
         21   -1    0    0  501  502 -0.00000000000E+00 -0.00000000000E+00 -0.17138810917E+03  0.17138810917E+03  0.00000000000E+00 0. -1.
         25    1    1    2    0    0 -0.23214595451E+03 -0.98040785174E+02  0.26797271020E+03  0.38850754582E+03  0.12500000000E+03 0.  0.
         25    1    1    2    0    0  0.19324219953E+03  0.12038072539E+02  0.82876298172E+02  0.24491007261E+03  0.12500000000E+03 0.  0.
         25    1    1    2    0    0  0.38903754984E+02  0.86002712635E+02  0.17364925497E+03  0.23385686324E+03  0.12500000000E+03 0.  0.
</event>
<event>
 5    0  0.5641283E-005  0.2670277E+03  0.7546771E-02  0.1102993E+00
         21   -1    0    0  502  501  0.00000000000E+00  0.00000000000E+00  0.61133977272E+03  0.61133977272E+03  0.00000000000E+00 0. -1.
         21   -1    0    0  501  502 -0.00000000000E+00 -0.00000000000E+00 -0.11663531341E+03  0.11663531341E+03  0.00000000000E+00 0. -1.
         25    1    1    2    0    0 -0.22981921791E+02  0.22365298971E+02  0.16126891901E+03  0.20654549031E+03  0.12500000000E+03 0.  0.
         25    1    1    2    0    0  0.26672599913E+02 -0.16600699700E+03  0.19229993832E+03  0.28438357357E+03  0.12500000000E+03 0.  0.
         25    1    1    2    0    0 -0.36906781219E+01  0.14364169803E+03  0.14113560198E+03  0.23704602225E+03  0.12500000000E+03 0.  0.
</event>
<event>
 5    0  0.5641283E-005  0.4155016E+03  0.7546771E-02  0.1038540E+00
         21   -1    0    0  502  501  0.00000000000E+00  0.00000000000E+00  0.62995525245E+03  0.62995525245E+03  0.00000000000E+00 0.  1.
         21   -1    0    0  501  502 -0.00000000000E+00 -0.00000000000E+00 -0.27405369782E+03  0.27405369782E+03  0.00000000000E+00 0.  1.
         25    1    1    2    0    0  0.23420770192E+03  0.83804985742E+02 -0.53198081270E+02  0.28342822570E+03  0.12500000000E+03 0.  0.
         25    1    1    2    0    0 -0.83186046173E+02 -0.12380869247E+03  0.36804520104E+03  0.41633013417E+03  0.12500000000E+03 0.  0.
         25    1    1    2    0    0 -0.15102165575E+03  0.40003706726E+02  0.41054434866E+02  0.20425059040E+03  0.12500000000E+03 0.  0.
</event>
<event>
 5    0  0.5641283E-005  0.3316483E+03  0.7546771E-02  0.1070410E+00
         21   -1    0    0  502  501  0.00000000000E+00  0.00000000000E+00  0.42639231104E+03  0.42639231104E+03  0.00000000000E+00 0.  1.
         21   -1    0    0  501  502 -0.00000000000E+00 -0.00000000000E+00 -0.25795629369E+03  0.25795629369E+03  0.00000000000E+00 0.  1.
         25    1    1    2    0    0 -0.86638471480E+02  0.21090528252E+03  0.77102531746E+02  0.27121405446E+03  0.12500000000E+03 0.  0.
         25    1    1    2    0    0  0.99937626236E+02 -0.39990798242E+01  0.48506902010E+02  0.16727654145E+03  0.12500000000E+03 0.  0.
         25    1    1    2    0    0 -0.13299154756E+02 -0.20690620270E+03  0.42826583596E+02  0.24585800881E+03  0.12500000000E+03 0.  0.
</event>
<event>
 5    0  0.5641283E-005  0.2769784E+03  0.7546771E-02  0.1097351E+00
         21   -1    0    0  502  501  0.00000000000E+00  0.00000000000E+00  0.46861603258E+03  0.46861603258E+03  0.00000000000E+00 0.  1.
         21   -1    0    0  501  502 -0.00000000000E+00 -0.00000000000E+00 -0.16370985204E+03  0.16370985204E+03  0.00000000000E+00 0.  1.
         25    1    1    2    0    0 -0.10749975415E+03  0.35616415673E+02 -0.38404230344E+00  0.16867090352E+03  0.12500000000E+03 0.  0.
         25    1    1    2    0    0  0.38729079489E+02 -0.53994266774E+02  0.18443003694E+02  0.14276017241E+03  0.12500000000E+03 0.  0.
         25    1    1    2    0    0  0.68770674658E+02  0.18377851101E+02  0.28684721915E+03  0.32089480868E+03  0.12500000000E+03 0.  0.
</event>
<event>
 5    0  0.5641283E-005  0.3884418E+03  0.7546771E-02  0.1047857E+00
         21   -1    0    0  502  501  0.00000000000E+00  0.00000000000E+00  0.12424882817E+04  0.12424882817E+04  0.00000000000E+00 0.  1.
         21   -1    0    0  501  502 -0.00000000000E+00 -0.00000000000E+00 -0.12143938184E+03  0.12143938184E+03  0.00000000000E+00 0.  1.
         25    1    1    2    0    0 -0.17144360126E+03  0.19558061740E+03  0.48038104885E+03  0.56038882788E+03  0.12500000000E+03 0.  0.
         25    1    1    2    0    0  0.21833970856E+02 -0.21308218816E+03  0.19071771731E+03  0.31285617924E+03  0.12500000000E+03 0.  0.
         25    1    1    2    0    0  0.14960963040E+03  0.17501570755E+02  0.44995013367E+03  0.49068265639E+03  0.12500000000E+03 0.  0.
</event>
<event>
 5    0  0.5641283E-005  0.4219328E+03  0.7546771E-02  0.1036439E+00
         21   -1    0    0  502  501  0.00000000000E+00  0.00000000000E+00  0.49212325521E+03  0.49212325521E+03  0.00000000000E+00 0. -1.
         21   -1    0    0  501  502 -0.00000000000E+00 -0.00000000000E+00 -0.36175339995E+03  0.36175339995E+03  0.00000000000E+00 0. -1.
         25    1    1    2    0    0 -0.61940994402E+01  0.23850749980E+03 -0.10211841803E+03  0.28805792061E+03  0.12500000000E+03 0.  0.
         25    1    1    2    0    0 -0.31028404445E+02 -0.33057151097E+03  0.17957790216E+03  0.39763489370E+03  0.12500000000E+03 0.  0.
         25    1    1    2    0    0  0.37222503885E+02  0.92064011169E+02  0.52910371128E+02  0.16818384084E+03  0.12500000000E+03 0.  0.
</event>
<event>
 5    0  0.5641283E-005  0.4921569E+03  0.7546771E-02  0.1015847E+00
         21   -1    0    0  502  501  0.00000000000E+00  0.00000000000E+00  0.56507984572E+03  0.56507984572E+03  0.00000000000E+00 0. -1.
         21   -1    0    0  501  502 -0.00000000000E+00 -0.00000000000E+00 -0.42864463321E+03  0.42864463321E+03  0.00000000000E+00 0. -1.
         25    1    1    2    0    0 -0.34741021302E+02 -0.40045539026E+02 -0.21853512434E+03  0.25728036133E+03  0.12500000000E+03 0.  0.
         25    1    1    2    0    0  0.14216603695E+03 -0.60500866775E+02 -0.11412298557E+03  0.22917371746E+03  0.12500000000E+03 0.  0.
         25    1    1    2    0    0 -0.10742501564E+03  0.10054640580E+03  0.46909332242E+03  0.50727040013E+03  0.12500000000E+03 0.  0.
</event>
<event>
 5    0  0.5641283E-005  0.5048839E+03  0.7546771E-02  0.1012512E+00
         21   -1    0    0  502  501  0.00000000000E+00  0.00000000000E+00  0.73206815763E+03  0.73206815763E+03  0.00000000000E+00 0.  1.
         21   -1    0    0  501  502 -0.00000000000E+00 -0.00000000000E+00 -0.34820225055E+03  0.34820225055E+03  0.00000000000E+00 0.  1.
         25    1    1    2    0    0  0.26896545005E+02  0.26002375166E+02  0.42136024454E+02  0.13711306358E+03  0.12500000000E+03 0.  0.
         25    1    1    2    0    0 -0.70426336043E+02  0.14358121596E+03  0.58452736688E+03  0.61876706200E+03  0.12500000000E+03 0.  0.
         25    1    1    2    0    0  0.43529791038E+02 -0.16958359112E+03 -0.24279748426E+03  0.32439028260E+03  0.12500000000E+03 0.  0.
</event>
<event>
 5    0  0.5641283E-005  0.3475966E+03  0.7546771E-02  0.1063606E+00
         21   -1    0    0  502  501  0.00000000000E+00  0.00000000000E+00  0.11406855455E+04  0.11406855455E+04  0.00000000000E+00 0.  1.
         21   -1    0    0  501  502 -0.00000000000E+00 -0.00000000000E+00 -0.10592171889E+03  0.10592171889E+03  0.00000000000E+00 0.  1.
         25    1    1    2    0    0 -0.40165018442E+02 -0.64743821630E+02  0.11890756843E+02  0.14687198931E+03  0.12500000000E+03 0.  0.
         25    1    1    2    0    0 -0.89750077980E+02  0.10224428321E+03  0.73609008169E+03  0.75892198434E+03  0.12500000000E+03 0.  0.
         25    1    1    2    0    0  0.12991509642E+03 -0.37500461578E+02  0.28678298810E+03  0.34081329077E+03  0.12500000000E+03 0.  0.
</event>
<event>
 5    0  0.5641283E-005  0.2156677E+03  0.7546771E-02  0.1137155E+00
         21   -1    0    0  502  501  0.00000000000E+00  0.00000000000E+00  0.16266195091E+03  0.16266195091E+03  0.00000000000E+00 0. -1.
         21   -1    0    0  501  502 -0.00000000000E+00 -0.00000000000E+00 -0.28594604320E+03  0.28594604320E+03  0.00000000000E+00 0. -1.
         25    1    1    2    0    0  0.82975934396E+01 -0.36371944625E+02 -0.16842940663E+02  0.13153118665E+03  0.12500000000E+03 0.  0.
         25    1    1    2    0    0  0.15109455898E+02  0.62887265493E+01  0.28478978649E+02  0.12924355289E+03  0.12500000000E+03 0.  0.
         25    1    1    2    0    0 -0.23407049337E+02  0.30083218075E+02 -0.13492013027E+03  0.18783325456E+03  0.12500000000E+03 0.  0.
</event>
<event>
 5    0  0.6856342E-005  0.3019567E+03  0.7546771E-02  0.1084267E+00
         21   -1    0    0  502  501  0.00000000000E+00  0.00000000000E+00  0.60268066486E+03  0.60268066486E+03  0.00000000000E+00 0.  1.
         21   -1    0    0  501  502 -0.00000000000E+00 -0.00000000000E+00 -0.15128717667E+03  0.15128717667E+03  0.00000000000E+00 0.  1.
         25    1    1    2    0    0 -0.12747791898E+03 -0.12278875344E+03  0.29249472039E+03  0.36401354268E+03  0.12500000000E+03 0.  0.
         25    1    1    2    0    0  0.23606653316E+02  0.80954930680E+02 -0.10948630275E+02  0.15118150478E+03  0.12500000000E+03 0.  0.
         25    1    1    2    0    0  0.10387126566E+03  0.41833822755E+02  0.16984739807E+03  0.23877279407E+03  0.12500000000E+03 0.  0.
</event>
<event>
 5    0  0.5641283E-005  0.3521086E+03  0.7546771E-02  0.1061753E+00
         21   -1    0    0  502  501  0.00000000000E+00  0.00000000000E+00  0.17936760493E+03  0.17936760493E+03  0.00000000000E+00 0.  1.
         21   -1    0    0  501  502 -0.00000000000E+00 -0.00000000000E+00 -0.69120892302E+03  0.69120892302E+03  0.00000000000E+00 0.  1.
         25    1    1    2    0    0  0.10249794742E+02 -0.14832351386E+03 -0.24756595116E+02  0.19581320706E+03  0.12500000000E+03 0.  0.
         25    1    1    2    0    0 -0.65155196329E+02 -0.10384734643E+03 -0.23432148771E+03  0.29250817180E+03  0.12500000000E+03 0.  0.
         25    1    1    2    0    0  0.54905401587E+02  0.25217086029E+03 -0.25276323526E+03  0.38225514908E+03  0.12500000000E+03 0.  0.
</event>
<event>
 5    0  0.5641283E-005  0.2844428E+03  0.7546771E-02  0.1093287E+00
         21   -1    0    0  502  501  0.00000000000E+00  0.00000000000E+00  0.32497582826E+03  0.32497582826E+03  0.00000000000E+00 0. -1.
         21   -1    0    0  501  502 -0.00000000000E+00 -0.00000000000E+00 -0.24896531848E+03  0.24896531848E+03  0.00000000000E+00 0. -1.
         25    1    1    2    0    0 -0.12563862734E+01 -0.13421388549E+02 -0.28500375696E+02  0.12891463684E+03  0.12500000000E+03 0.  0.
         25    1    1    2    0    0 -0.52656398368E+02  0.15979009811E+03  0.12508237204E+03  0.24408230484E+03  0.12500000000E+03 0.  0.
         25    1    1    2    0    0  0.53912784642E+02 -0.14636870956E+03 -0.20571486556E+02  0.20094420505E+03  0.12500000000E+03 0.  0.
</event>
<event>
 5    0  0.5641283E-005  0.3531517E+03  0.7546771E-02  0.1061329E+00
         21   -1    0    0  502  501  0.00000000000E+00  0.00000000000E+00  0.53291806693E+03  0.53291806693E+03  0.00000000000E+00 0. -1.
         21   -1    0    0  501  502 -0.00000000000E+00 -0.00000000000E+00 -0.23402491991E+03  0.23402491991E+03  0.00000000000E+00 0. -1.
         25    1    1    2    0    0  0.15978974471E+03  0.15856495296E+03  0.18104909114E+03  0.31476877263E+03  0.12500000000E+03 0.  0.
         25    1    1    2    0    0  0.61077766782E+00  0.12281197376E+01  0.14578698467E+03  0.19204355294E+03  0.12500000000E+03 0.  0.
         25    1    1    2    0    0 -0.16040052238E+03 -0.15979307270E+03 -0.27942928791E+02  0.26013066127E+03  0.12500000000E+03 0.  0.
</event>
<event>
 5    0  0.5641283E-005  0.2880122E+03  0.7546771E-02  0.1091392E+00
         21   -1    0    0  502  501  0.00000000000E+00  0.00000000000E+00  0.51511884551E+03  0.51511884551E+03  0.00000000000E+00 0.  1.
         21   -1    0    0  501  502 -0.00000000000E+00 -0.00000000000E+00 -0.16103274946E+03  0.16103274946E+03  0.00000000000E+00 0.  1.
         25    1    1    2    0    0 -0.97503129344E+01  0.10781163684E+03  0.26325747421E+02  0.16744092277E+03  0.12500000000E+03 0.  0.
         25    1    1    2    0    0 -0.12814578150E+03 -0.50706178312E+02  0.21260013557E+03  0.28251774365E+03  0.12500000000E+03 0.  0.
         25    1    1    2    0    0  0.13789609444E+03 -0.57105458524E+02  0.11516021306E+03  0.22619292855E+03  0.12500000000E+03 0.  0.
</event>
<event>
 5    0  0.5735560E-005  0.2886157E+03  0.7546771E-02  0.1091074E+00
         21   -1    0    0  502  501  0.00000000000E+00  0.00000000000E+00  0.18633915570E+03  0.18633915570E+03  0.00000000000E+00 0. -1.
         21   -1    0    0  501  502 -0.00000000000E+00 -0.00000000000E+00 -0.44702904952E+03  0.44702904952E+03  0.00000000000E+00 0. -1.
         25    1    1    2    0    0  0.31825751052E+02  0.86281773631E+02 -0.10615106040E+03  0.18801720803E+03  0.12500000000E+03 0.  0.
         25    1    1    2    0    0  0.13677149884E+03  0.64775021944E+01 -0.43518841798E+02  0.19043972937E+03  0.12500000000E+03 0.  0.
         25    1    1    2    0    0 -0.16859724989E+03 -0.92759275826E+02 -0.11101999162E+03  0.25491126782E+03  0.12500000000E+03 0.  0.
</event>
<event>
 5    0  0.5641283E-005  0.2496705E+03  0.7546771E-02  0.1113513E+00
         21   -1    0    0  502  501  0.00000000000E+00  0.00000000000E+00  0.88585290551E+02  0.88585290551E+02  0.00000000000E+00 0.  1.
         21   -1    0    0  501  502 -0.00000000000E+00 -0.00000000000E+00 -0.70367637470E+03  0.70367637470E+03  0.00000000000E+00 0.  1.
         25    1    1    2    0    0 -0.78216782461E+02 -0.88839608579E+01 -0.10226329890E+03  0.17966516669E+03  0.12500000000E+03 0.  0.
         25    1    1    2    0    0  0.10495352522E+03 -0.92109643243E+01 -0.13086500306E+03  0.20940566694E+03  0.12500000000E+03 0.  0.
         25    1    1    2    0    0 -0.26736742756E+02  0.18094925182E+02 -0.38196278219E+03  0.40319083163E+03  0.12500000000E+03 0.  0.
</event>
<event>
 5    0  0.5641283E-005  0.3152721E+03  0.7546771E-02  0.1077846E+00
         21   -1    0    0  502  501  0.00000000000E+00  0.00000000000E+00  0.75013292721E+02  0.75013292721E+02  0.00000000000E+00 0.  1.
         21   -1    0    0  501  502 -0.00000000000E+00 -0.00000000000E+00 -0.13250517718E+04  0.13250517718E+04  0.00000000000E+00 0. -1.
         25    1    1    2    0    0 -0.13812872771E+03  0.50633808529E+02 -0.31934842317E+03  0.37316449907E+03  0.12500000000E+03 0.  0.
         25    1    1    2    0    0 -0.18169105027E+02  0.12295681920E+02 -0.71437213359E+03  0.72555760999E+03  0.12500000000E+03 0.  0.
         25    1    1    2    0    0  0.15629783273E+03 -0.62929490448E+02 -0.21631792231E+03  0.30134295545E+03  0.12500000000E+03 0.  0.
</event>
<event>
 5    0  0.5641283E-005  0.3884803E+03  0.7546771E-02  0.1047843E+00
         21   -1    0    0  502  501  0.00000000000E+00  0.00000000000E+00  0.10549096246E+04  0.10549096246E+04  0.00000000000E+00 0.  1.
         21   -1    0    0  501  502 -0.00000000000E+00 -0.00000000000E+00 -0.14306150996E+03  0.14306150996E+03  0.00000000000E+00 0.  1.
         25    1    1    2    0    0 -0.80220873014E+02 -0.65757379009E+02  0.46756810101E+03  0.49497914142E+03  0.12500000000E+03 0.  0.
         25    1    1    2    0    0  0.16709633568E+03 -0.14506129374E+03  0.33606353870E+03  0.42134032134E+03  0.12500000000E+03 0.  0.
         25    1    1    2    0    0 -0.86875462661E+02  0.21081867275E+03  0.10821647495E+03  0.28165167183E+03  0.12500000000E+03 0.  0.
</event>
<event>
 5    0  0.5641283E-005  0.2316566E+03  0.7546771E-02  0.1125479E+00
         21   -1    0    0  502  501  0.00000000000E+00  0.00000000000E+00  0.60006552140E+03  0.60006552140E+03  0.00000000000E+00 0.  1.
         21   -1    0    0  501  502 -0.00000000000E+00 -0.00000000000E+00 -0.89431569366E+02  0.89431569366E+02  0.00000000000E+00 0.  1.
         25    1    1    2    0    0 -0.32418976630E+02 -0.30163068328E+02  0.24080823472E+03  0.27490799669E+03  0.12500000000E+03 0.  0.
         25    1    1    2    0    0 -0.50317859667E+02 -0.31850259269E+02  0.18632320880E+03  0.23213716668E+03  0.12500000000E+03 0.  0.
         25    1    1    2    0    0  0.82736836296E+02  0.62013327597E+02  0.83502508507E+02  0.18245192739E+03  0.12500000000E+03 0.  0.
</event>
<event>
 5    0  0.5641283E-005  0.3294399E+03  0.7546771E-02  0.1071385E+00
         21   -1    0    0  502  501  0.00000000000E+00  0.00000000000E+00  0.43064019066E+03  0.43064019066E+03  0.00000000000E+00 0. -1.
         21   -1    0    0  501  502 -0.00000000000E+00 -0.00000000000E+00 -0.25202157925E+03  0.25202157925E+03  0.00000000000E+00 0. -1.
         25    1    1    2    0    0 -0.20251272600E+03  0.10174808582E+03 -0.46498245914E+02  0.26296608913E+03  0.12500000000E+03 0.  0.
         25    1    1    2    0    0  0.64997568559E+02 -0.19992114444E+01  0.11434020548E+03  0.18145898532E+03  0.12500000000E+03 0.  0.
         25    1    1    2    0    0  0.13751515744E+03 -0.99748874372E+02  0.11077665184E+03  0.23823669545E+03  0.12500000000E+03 0.  0.
</event>
<event>
 5    0  0.5641283E-005  0.2884967E+03  0.7546771E-02  0.1091137E+00
         21   -1    0    0  502  501  0.00000000000E+00  0.00000000000E+00  0.45474381578E+02  0.45474381578E+02  0.00000000000E+00 0. -1.
         21   -1    0    0  501  502 -0.00000000000E+00 -0.00000000000E+00 -0.18302684574E+04  0.18302684574E+04  0.00000000000E+00 0. -1.
         25    1    1    2    0    0 -0.51141080722E+02 -0.10355954599E+03 -0.45718859097E+03  0.48783849522E+03  0.12500000000E+03 0.  0.
         25    1    1    2    0    0  0.66598454128E+01 -0.32573852569E+02 -0.16397921868E+03  0.20885304300E+03  0.12500000000E+03 0.  0.
         25    1    1    2    0    0  0.44481235310E+02  0.13613339856E+03 -0.11636262662E+04  0.11790513008E+04  0.12500000000E+03 0.  0.
</event>
<event>
 5    0  0.5641283E-005  0.2244937E+03  0.7546771E-02  0.1130576E+00
         21   -1    0    0  502  501  0.00000000000E+00  0.00000000000E+00  0.52175469361E+03  0.52175469361E+03  0.00000000000E+00 0.  1.
         21   -1    0    0  501  502 -0.00000000000E+00 -0.00000000000E+00 -0.96592168891E+02  0.96592168891E+02  0.00000000000E+00 0.  1.
         25    1    1    2    0    0  0.33428451906E+02 -0.18704608111E+02  0.83404808694E+02  0.15507638722E+03  0.12500000000E+03 0.  0.
         25    1    1    2    0    0  0.51268195969E+02  0.92780015223E+01  0.25537353880E+03  0.28905908314E+03  0.12500000000E+03 0.  0.
         25    1    1    2    0    0 -0.84696647875E+02  0.94266065887E+01  0.86384177226E+02  0.17421139213E+03  0.12500000000E+03 0.  0.
</event>
<event>
 5    0  0.5641283E-005  0.6076111E+03  0.7546771E-02  0.9889740E-01
         21   -1    0    0  502  501  0.00000000000E+00  0.00000000000E+00  0.33423397608E+03  0.33423397608E+03  0.00000000000E+00 0. -1.
         21   -1    0    0  501  502 -0.00000000000E+00 -0.00000000000E+00 -0.11045893187E+04  0.11045893187E+04  0.00000000000E+00 0. -1.
         25    1    1    2    0    0 -0.66574608251E+02  0.16587982498E+03  0.14878174453E+03  0.26402519255E+03  0.12500000000E+03 0.  0.
         25    1    1    2    0    0 -0.16736383877E+03 -0.34275932078E+03 -0.61353690967E+03  0.73317606755E+03  0.12500000000E+03 0.  0.
         25    1    1    2    0    0  0.23393844703E+03  0.17687949580E+03 -0.30560017750E+03  0.44162203468E+03  0.12500000000E+03 0.  0.
</event>
<event>
 5    0  0.5641283E-005  0.5308358E+03  0.7546771E-02  0.1006030E+00
         21   -1    0    0  502  501  0.00000000000E+00  0.00000000000E+00  0.73282647771E+03  0.73282647771E+03  0.00000000000E+00 0. -1.
         21   -1    0    0  501  502 -0.00000000000E+00 -0.00000000000E+00 -0.38452021723E+03  0.38452021723E+03  0.00000000000E+00 0. -1.
         25    1    1    2    0    0 -0.75267708834E+01 -0.10153848695E+03  0.23402280117E+03  0.28418020353E+03  0.12500000000E+03 0.  0.
         25    1    1    2    0    0  0.20719739842E+03  0.36384333151E+03 -0.57944766695E+02  0.44078943702E+03  0.12500000000E+03 0.  0.
         25    1    1    2    0    0 -0.19967062754E+03 -0.26230484456E+03  0.17222822600E+03  0.39237705439E+03  0.12500000000E+03 0.  0.
</event>
<event>
 5    0  0.5641283E-005  0.3016050E+03  0.7546771E-02  0.1084441E+00
         21   -1    0    0  502  501  0.00000000000E+00  0.00000000000E+00  0.87338060763E+02  0.87338060763E+02  0.00000000000E+00 0. -1.
         21   -1    0    0  501  502 -0.00000000000E+00 -0.00000000000E+00 -0.10415343732E+04  0.10415343732E+04  0.00000000000E+00 0. -1.
         25    1    1    2    0    0 -0.45048959756E+02 -0.26905735963E+02  0.20109580988E+01  0.13558160404E+03  0.12500000000E+03 0.  0.
         25    1    1    2    0    0  0.58503791682E+01  0.48585958765E+02 -0.53889645723E+03  0.55536403731E+03  0.12500000000E+03 0.  0.
         25    1    1    2    0    0  0.39198580587E+02 -0.21680222802E+02 -0.41731081332E+03  0.43792679262E+03  0.12500000000E+03 0.  0.
</event>
<event>
 5    0  0.5641283E-005  0.2336561E+03  0.7546771E-02  0.1124093E+00
         21   -1    0    0  502  501  0.00000000000E+00  0.00000000000E+00  0.11627935322E+04  0.11627935322E+04  0.00000000000E+00 0.  1.
         21   -1    0    0  501  502 -0.00000000000E+00 -0.00000000000E+00 -0.46951745857E+02  0.46951745857E+02  0.00000000000E+00 0.  1.
         25    1    1    2    0    0 -0.76035695057E+01 -0.12029079299E+03  0.45765621469E+03  0.48949147080E+03  0.12500000000E+03 0.  0.
         25    1    1    2    0    0  0.37885033008E+02  0.90502805743E+02  0.32200317047E+03  0.35907809091E+03  0.12500000000E+03 0.  0.
         25    1    1    2    0    0 -0.30281463502E+02  0.29787987246E+02  0.33618240119E+03  0.36117571635E+03  0.12500000000E+03 0.  0.
</event>
<event>
 5    0  0.5641283E-005  0.4079428E+03  0.7546771E-02  0.1041064E+00
         21   -1    0    0  502  501  0.00000000000E+00  0.00000000000E+00  0.70106462643E+03  0.70106462643E+03  0.00000000000E+00 0.  1.
         21   -1    0    0  501  502 -0.00000000000E+00 -0.00000000000E+00 -0.23737801908E+03  0.23737801908E+03  0.00000000000E+00 0.  1.
         25    1    1    2    0    0 -0.14664494136E+03 -0.14424320181E+03 -0.88878074850E+02  0.25658361655E+03  0.12500000000E+03 0.  0.
         25    1    1    2    0    0 -0.19740374813E+00  0.11719483600E+03  0.39775291228E+03  0.43309011507E+03  0.12500000000E+03 0.  0.
         25    1    1    2    0    0  0.14684234510E+03  0.27048365813E+02  0.15481176992E+03  0.24876891388E+03  0.12500000000E+03 0.  0.
</event>
<event>
 5    0  0.6072334E-005  0.3465129E+03  0.7546771E-02  0.1064055E+00
         21   -1    0    0  502  501  0.00000000000E+00  0.00000000000E+00  0.50700403686E+03  0.50700403686E+03  0.00000000000E+00 0. -1.
         21   -1    0    0  501  502 -0.00000000000E+00 -0.00000000000E+00 -0.23682488014E+03  0.23682488014E+03  0.00000000000E+00 0. -1.
         25    1    1    2    0    0 -0.16062440396E+03 -0.76712240693E+02 -0.10528334351E+03  0.24164964192E+03  0.12500000000E+03 0.  0.
         25    1    1    2    0    0  0.14420196649E+03  0.34312441445E+02  0.17255668815E+03  0.25956186431E+03  0.12500000000E+03 0.  0.
         25    1    1    2    0    0  0.16422437473E+02  0.42399799248E+02  0.20290581209E+03  0.24261741077E+03  0.12500000000E+03 0.  0.
</event>
<event>
 5    0  0.5641283E-005  0.2371503E+03  0.7546771E-02  0.1121706E+00
         21   -1    0    0  502  501  0.00000000000E+00  0.00000000000E+00  0.91832653679E+02  0.91832653679E+02  0.00000000000E+00 0.  1.
         21   -1    0    0  501  502 -0.00000000000E+00 -0.00000000000E+00 -0.61242115854E+03  0.61242115854E+03  0.00000000000E+00 0.  1.
         25    1    1    2    0    0 -0.28876388513E+02  0.93033334979E+02 -0.76872869626E+02  0.17613484980E+03  0.12500000000E+03 0.  0.
         25    1    1    2    0    0  0.50126221009E+02 -0.85048427907E+02 -0.24081807313E+03  0.28872862253E+03  0.12500000000E+03 0.  0.
         25    1    1    2    0    0 -0.21249832496E+02 -0.79849070728E+01 -0.20289756210E+03  0.23939033988E+03  0.12500000000E+03 0.  0.
</event>
<event>
 5    0  0.5641283E-005  0.2093509E+03  0.7546771E-02  0.1142081E+00
         21   -1    0    0  502  501  0.00000000000E+00  0.00000000000E+00  0.11472528465E+03  0.11472528465E+03  0.00000000000E+00 0.  1.
         21   -1    0    0  501  502 -0.00000000000E+00 -0.00000000000E+00 -0.38202371522E+03  0.38202371522E+03  0.00000000000E+00 0.  1.
         25    1    1    2    0    0 -0.52125445192E+02  0.18619643572E+02 -0.15685655088E+03  0.20806905276E+03  0.12500000000E+03 0.  0.
         25    1    1    2    0    0 -0.10794197708E+02 -0.15969529237E+02 -0.58956866576E+02  0.13954373037E+03  0.12500000000E+03 0.  0.
         25    1    1    2    0    0  0.62919642899E+02 -0.26501143354E+01 -0.51485013117E+02  0.14913621674E+03  0.12500000000E+03 0.  0.
</event>
<event>
 5    0  0.5641283E-005  0.2914695E+03  0.7546771E-02  0.1089584E+00
         21   -1    0    0  502  501  0.00000000000E+00  0.00000000000E+00  0.11634363601E+04  0.11634363601E+04  0.00000000000E+00 0.  1.
         21   -1    0    0  501  502 -0.00000000000E+00 -0.00000000000E+00 -0.73020274262E+02  0.73020274262E+02  0.00000000000E+00 0.  1.
         25    1    1    2    0    0 -0.61326641355E+02 -0.49621493125E+02  0.23584349331E+03  0.27833505502E+03  0.12500000000E+03 0.  0.
         25    1    1    2    0    0 -0.91831184796E+02 -0.57950909292E+02  0.16918694471E+03  0.23672874065E+03  0.12500000000E+03 0.  0.
         25    1    1    2    0    0  0.15315782615E+03  0.10757240242E+03  0.68538564782E+03  0.72139283869E+03  0.12500000000E+03 0.  0.
</event>
<event>
 5    0  0.5641283E-005  0.3349943E+03  0.7546771E-02  0.1068948E+00
         21   -1    0    0  502  501  0.00000000000E+00  0.00000000000E+00  0.45257680734E+03  0.45257680734E+03  0.00000000000E+00 0. -1.
         21   -1    0    0  501  502 -0.00000000000E+00 -0.00000000000E+00 -0.24796047228E+03  0.24796047228E+03  0.00000000000E+00 0. -1.
         25    1    1    2    0    0 -0.10901669989E+03 -0.20096300644E+02 -0.13182869102E+02  0.16759263168E+03  0.12500000000E+03 0.  0.
         25    1    1    2    0    0  0.49847988224E+02  0.17803100243E+03  0.23278874116E+03  0.32248326742E+03  0.12500000000E+03 0.  0.
         25    1    1    2    0    0  0.59168711669E+02 -0.15793470179E+03 -0.14989536987E+02  0.21046138052E+03  0.12500000000E+03 0.  0.
</event>
<event>
 5    0  0.5641283E-005  0.2749495E+03  0.7546771E-02  0.1098480E+00
         21   -1    0    0  502  501  0.00000000000E+00  0.00000000000E+00  0.22440326058E+04  0.22440326058E+04  0.00000000000E+00 0. -1.
         21   -1    0    0  501  502 -0.00000000000E+00 -0.00000000000E+00 -0.33688108743E+02  0.33688108743E+02  0.00000000000E+00 0. -1.
         25    1    1    2    0    0 -0.64317370380E+02 -0.45557278334E+02  0.25522275793E+03  0.29491667621E+03  0.12500000000E+03 0.  0.
         25    1    1    2    0    0  0.75662027560E+02  0.89595918576E+02  0.70106828912E+03  0.72171595316E+03  0.12500000000E+03 0.  0.
         25    1    1    2    0    0 -0.11344657179E+02 -0.44038640242E+02  0.12540534500E+04  0.12610880852E+04  0.12500000000E+03 0.  0.
</event>
<event>
 5    0  0.5641283E-005  0.2586996E+03  0.7546771E-02  0.1107927E+00
         21   -1    0    0  502  501  0.00000000000E+00  0.00000000000E+00  0.11251044401E+03  0.11251044401E+03  0.00000000000E+00 0. -1.
         21   -1    0    0  501  502 -0.00000000000E+00 -0.00000000000E+00 -0.59483782320E+03  0.59483782320E+03  0.00000000000E+00 0. -1.
         25    1    1    2    0    0 -0.47636828166E+02  0.96288570170E+01 -0.19691916298E+03  0.23825225924E+03  0.12500000000E+03 0.  0.
         25    1    1    2    0    0  0.11928159666E+03  0.88157189970E+02 -0.11521222694E+03  0.22560728419E+03  0.12500000000E+03 0.  0.
         25    1    1    2    0    0 -0.71644768497E+02 -0.97786046987E+02 -0.17019598927E+03  0.24348872377E+03  0.12500000000E+03 0.  0.
</event>
<event>
 5    0  0.5641283E-005  0.3306077E+03  0.7546771E-02  0.1070868E+00
         21   -1    0    0  502  501  0.00000000000E+00  0.00000000000E+00  0.14632693024E+04  0.14632693024E+04  0.00000000000E+00 0. -1.
         21   -1    0    0  501  502 -0.00000000000E+00 -0.00000000000E+00 -0.74696733165E+02  0.74696733165E+02  0.00000000000E+00 0. -1.
         25    1    1    2    0    0 -0.75065917851E+01 -0.16574606014E+03  0.14776928611E+03  0.25492914171E+03  0.12500000000E+03 0.  0.
         25    1    1    2    0    0  0.24928555010E+02  0.95269153463E+02  0.88145737399E+03  0.89570628367E+03  0.12500000000E+03 0.  0.
         25    1    1    2    0    0 -0.17421963225E+02  0.70476906676E+02  0.35934590918E+03  0.38733061023E+03  0.12500000000E+03 0.  0.
</event>
<event>
 5    0  0.5641283E-005  0.4006696E+03  0.7546771E-02  0.1043548E+00
         21   -1    0    0  502  501  0.00000000000E+00  0.00000000000E+00  0.69774092392E+03  0.69774092392E+03  0.00000000000E+00 0. -1.
         21   -1    0    0  501  502 -0.00000000000E+00 -0.00000000000E+00 -0.23007989105E+03  0.23007989105E+03  0.00000000000E+00 0. -1.
         25    1    1    2    0    0  0.10169690965E+03 -0.25167668644E+02  0.35086456700E+03  0.38691939387E+03  0.12500000000E+03 0.  0.
         25    1    1    2    0    0 -0.35534988716E+02 -0.13599403191E+02  0.28753483956E+03  0.31583059249E+03  0.12500000000E+03 0.  0.
         25    1    1    2    0    0 -0.66161920937E+02  0.38767071835E+02 -0.17073837369E+03  0.22507082861E+03  0.12500000000E+03 0.  0.
</event>
<event>
 5    0  0.5641283E-005  0.2212668E+03  0.7546771E-02  0.1132942E+00
         21   -1    0    0  502  501  0.00000000000E+00  0.00000000000E+00  0.60612960955E+03  0.60612960955E+03  0.00000000000E+00 0.  1.
         21   -1    0    0  501  502 -0.00000000000E+00 -0.00000000000E+00 -0.80773123541E+02  0.80773123541E+02  0.00000000000E+00 0.  1.
         25    1    1    2    0    0  0.61932786518E+02  0.39428804008E+02  0.28594732703E+03  0.32059503188E+03  0.12500000000E+03 0.  0.
         25    1    1    2    0    0 -0.47631692117E+01 -0.24204081314E+02  0.16745313344E+03  0.21041406139E+03  0.12500000000E+03 0.  0.
         25    1    1    2    0    0 -0.57169617306E+02 -0.15224722694E+02  0.71956025541E+02  0.15589363982E+03  0.12500000000E+03 0.  0.
</event>
<event>
 5    0  0.5641283E-005  0.2682801E+03  0.7546771E-02  0.1102268E+00
         21   -1    0    0  502  501  0.00000000000E+00  0.00000000000E+00  0.49144360381E+02  0.49144360381E+02  0.00000000000E+00 0.  1.
         21   -1    0    0  501  502 -0.00000000000E+00 -0.00000000000E+00 -0.14645469867E+04  0.14645469867E+04  0.00000000000E+00 0.  1.
         25    1    1    2    0    0  0.56617880837E+02  0.10646481750E+03 -0.30017637641E+03  0.34680138228E+03  0.12500000000E+03 0.  0.
         25    1    1    2    0    0 -0.65857130051E+02  0.42278930836E+02 -0.53329067823E+03  0.55330698265E+03  0.12500000000E+03 0.  0.
         25    1    1    2    0    0  0.92392492132E+01 -0.14874374833E+03 -0.58193557170E+03  0.61358298217E+03  0.12500000000E+03 0.  0.
</event>
<event>
 5    0  0.5641283E-005  0.3455738E+03  0.7546771E-02  0.1064447E+00
         21   -1    0    0  502  501  0.00000000000E+00  0.00000000000E+00  0.93337393524E+02  0.93337393524E+02  0.00000000000E+00 0.  1.
         21   -1    0    0  501  502 -0.00000000000E+00 -0.00000000000E+00 -0.12794577738E+04  0.12794577738E+04  0.00000000000E+00 0.  1.
         25    1    1    2    0    0  0.85972150791E+02  0.96619828552E+00 -0.89365640498E+03  0.90644300119E+03  0.12500000000E+03 0.  0.
         25    1    1    2    0    0  0.25917189024E+02  0.66058847783E+02 -0.28576899476E+02  0.14655071218E+03  0.12500000000E+03 0.  0.
         25    1    1    2    0    0 -0.11188933982E+03 -0.67025046069E+02 -0.26388707584E+03  0.31980145397E+03  0.12500000000E+03 0.  0.
</event>
<event>
 5    0  0.5641283E-005  0.2340198E+03  0.7546771E-02  0.1123842E+00
         21   -1    0    0  502  501  0.00000000000E+00  0.00000000000E+00  0.82207909817E+02  0.82207909817E+02  0.00000000000E+00 0.  1.
         21   -1    0    0  501  502 -0.00000000000E+00 -0.00000000000E+00 -0.66617973373E+03  0.66617973373E+03  0.00000000000E+00 0.  1.
         25    1    1    2    0    0 -0.29993170093E+02  0.52561442252E+02 -0.38227280936E+03  0.40671832543E+03  0.12500000000E+03 0.  0.
         25    1    1    2    0    0 -0.17190851391E+02 -0.62230580990E+02 -0.11877890720E+03  0.18412386966E+03  0.12500000000E+03 0.  0.
         25    1    1    2    0    0  0.47184021484E+02  0.96691387383E+01 -0.82920107351E+02  0.15754544846E+03  0.12500000000E+03 0.  0.
</event>
<event>
 5    0  0.5641283E-005  0.4583277E+03  0.7546771E-02  0.1025267E+00
         21   -1    0    0  502  501  0.00000000000E+00  0.00000000000E+00  0.30763826536E+03  0.30763826536E+03  0.00000000000E+00 0. -1.
         21   -1    0    0  501  502 -0.00000000000E+00 -0.00000000000E+00 -0.68282897278E+03  0.68282897278E+03  0.00000000000E+00 0. -1.
         25    1    1    2    0    0 -0.33358082655E+01 -0.98414197772E+02  0.92235772883E+01  0.15939434218E+03  0.12500000000E+03 0.  0.
         25    1    1    2    0    0 -0.73054955263E+02 -0.25407042119E+03 -0.44182021025E+01  0.29246081092E+03  0.12500000000E+03 0.  0.
         25    1    1    2    0    0  0.76390763529E+02  0.35248461896E+03 -0.37999608261E+03  0.53861208505E+03  0.12500000000E+03 0.  0.
</event>
<event>
 5    0  0.5641283E-005  0.4914057E+03  0.7546771E-02  0.1016047E+00
         21   -1    0    0  502  501  0.00000000000E+00  0.00000000000E+00  0.10692865726E+03  0.10692865726E+03  0.00000000000E+00 0. -1.
         21   -1    0    0  501  502 -0.00000000000E+00 -0.00000000000E+00 -0.22583238376E+04  0.22583238376E+04  0.00000000000E+00 0. -1.
         25    1    1    2    0    0 -0.23599808775E+03  0.16263301704E+03 -0.30447054626E+03  0.43643087562E+03  0.12500000000E+03 0.  0.
         25    1    1    2    0    0  0.20195138408E+03  0.97066040478E+02 -0.69337628584E+03  0.73932526774E+03  0.12500000000E+03 0.  0.
         25    1    1    2    0    0  0.34046703670E+02 -0.25969905752E+03 -0.11535483482E+04  0.11894963515E+04  0.12500000000E+03 0.  0.
</event>
<event>
 5    0  0.5641283E-005  0.3698178E+03  0.7546771E-02  0.1054763E+00
         21   -1    0    0  502  501  0.00000000000E+00  0.00000000000E+00  0.59439717759E+03  0.59439717759E+03  0.00000000000E+00 0.  1.
         21   -1    0    0  501  502 -0.00000000000E+00 -0.00000000000E+00 -0.23009057720E+03  0.23009057720E+03  0.00000000000E+00 0.  1.
         25    1    1    2    0    0  0.13004817417E+03 -0.11803352853E+03  0.39934817450E+03  0.45381538750E+03  0.12500000000E+03 0.  0.
         25    1    1    2    0    0  0.30706163518E+02  0.52407351829E+02 -0.67115231854E+02  0.15433357817E+03  0.12500000000E+03 0.  0.
         25    1    1    2    0    0 -0.16075433768E+03  0.65626176703E+02  0.32073657749E+02  0.21633878911E+03  0.12500000000E+03 0.  0.
</event>
<event>
 5    0  0.5641283E-005  0.6148200E+03  0.7546771E-02  0.9875127E-01
         21   -1    0    0  502  501  0.00000000000E+00  0.00000000000E+00  0.23127741119E+03  0.23127741119E+03  0.00000000000E+00 0.  1.
         21   -1    0    0  501  502 -0.00000000000E+00 -0.00000000000E+00 -0.16344166585E+04  0.16344166585E+04  0.00000000000E+00 0.  1.
         25    1    1    2    0    0  0.15337003390E+02  0.25159564914E+03 -0.99785945773E+03  0.10367661702E+04  0.12500000000E+03 0.  0.
         25    1    1    2    0    0  0.27144667131E+03 -0.26329911916E+03 -0.15225072128E+03  0.42639770596E+03  0.12500000000E+03 0.  0.
         25    1    1    2    0    0 -0.28678367470E+03  0.11703470024E+02 -0.25302906830E+03  0.40253019352E+03  0.12500000000E+03 0.  0.
</event>
<event>
 5    0  0.5641283E-005  0.3201571E+03  0.7546771E-02  0.1075577E+00
         21   -1    0    0  502  501  0.00000000000E+00  0.00000000000E+00  0.75782159794E+02  0.75782159794E+02  0.00000000000E+00 0. -1.
         21   -1    0    0  501  502 -0.00000000000E+00 -0.00000000000E+00 -0.13525684354E+04  0.13525684354E+04  0.00000000000E+00 0. -1.
         25    1    1    2    0    0  0.15110605535E+03  0.10682008456E+03 -0.53549138614E+03  0.58018927520E+03  0.12500000000E+03 0.  0.
         25    1    1    2    0    0 -0.17566772700E+03 -0.44911985349E+02 -0.63195863483E+03  0.66923310802E+03  0.12500000000E+03 0.  0.
         25    1    1    2    0    0  0.24561671649E+02 -0.61908099207E+02 -0.10933625464E+03  0.17892821198E+03  0.12500000000E+03 0.  0.
</event>
<event>
 5    0  0.5641283E-005  0.3033588E+03  0.7546771E-02  0.1083574E+00
         21   -1    0    0  502  501  0.00000000000E+00  0.00000000000E+00  0.15382959812E+04  0.15382959812E+04  0.00000000000E+00 0. -1.
         21   -1    0    0  501  502 -0.00000000000E+00 -0.00000000000E+00 -0.59823700831E+02  0.59823700831E+02  0.00000000000E+00 0. -1.
         25    1    1    2    0    0 -0.82678900746E+02 -0.61220700010E+02  0.13779755101E+03  0.21259571915E+03  0.12500000000E+03 0.  0.
         25    1    1    2    0    0  0.33021432394E+01 -0.47355954490E+02  0.87152550667E+03  0.88172285859E+03  0.12500000000E+03 0.  0.
         25    1    1    2    0    0  0.79376757506E+02  0.10857665450E+03  0.46914922268E+03  0.50380110429E+03  0.12500000000E+03 0.  0.
</event>
<event>
 5    0  0.5641283E-005  0.3217045E+03  0.7546771E-02  0.1074868E+00
         21   -1    0    0  502  501  0.00000000000E+00  0.00000000000E+00  0.14114181511E+03  0.14114181511E+03  0.00000000000E+00 0. -1.
         21   -1    0    0  501  502 -0.00000000000E+00 -0.00000000000E+00 -0.73326078146E+03  0.73326078146E+03  0.00000000000E+00 0. -1.
         25    1    1    2    0    0  0.60970396692E+01 -0.62687611068E+02 -0.16984979995E+03  0.22009285544E+03  0.12500000000E+03 0.  0.
         25    1    1    2    0    0  0.16179906930E+03 -0.10368936162E+03 -0.15842298033E+03  0.27866335108E+03  0.12500000000E+03 0.  0.
         25    1    1    2    0    0 -0.16789610897E+03  0.16637697269E+03 -0.26384618609E+03  0.37564639005E+03  0.12500000000E+03 0.  0.
</event>
<event>
 5    0  0.5641283E-005  0.2385898E+03  0.7546771E-02  0.1120736E+00
         21   -1    0    0  502  501  0.00000000000E+00  0.00000000000E+00  0.45823418391E+02  0.45823418391E+02  0.00000000000E+00 0.  1.
         21   -1    0    0  501  502 -0.00000000000E+00 -0.00000000000E+00 -0.12422704185E+04  0.12422704185E+04  0.00000000000E+00 0.  1.
         25    1    1    2    0    0 -0.82316551562E+02  0.12537770419E+02 -0.25485668411E+03  0.29582112802E+03  0.12500000000E+03 0.  0.
         25    1    1    2    0    0 -0.42324261209E+01  0.81887654639E+01 -0.20832246453E+03  0.24312181831E+03  0.12500000000E+03 0.  0.
         25    1    1    2    0    0  0.86548977683E+02 -0.20726535883E+02 -0.73326785149E+03  0.74915089058E+03  0.12500000000E+03 0.  0.
</event>
<event>
 5    0  0.5641283E-005  0.3388894E+03  0.7546771E-02  0.1067270E+00
         21   -1    0    0  502  501  0.00000000000E+00  0.00000000000E+00  0.81311781476E+02  0.81311781476E+02  0.00000000000E+00 0. -1.
         21   -1    0    0  501  502 -0.00000000000E+00 -0.00000000000E+00 -0.14124153031E+04  0.14124153031E+04  0.00000000000E+00 0. -1.
         25    1    1    2    0    0  0.19301918934E+03  0.16579981250E+01 -0.57720686897E+03  0.62133077020E+03  0.12500000000E+03 0.  0.
         25    1    1    2    0    0 -0.54808942992E+02  0.71947003706E+02 -0.60064441546E+03  0.62014442301E+03  0.12500000000E+03 0.  0.
         25    1    1    2    0    0 -0.13821024635E+03 -0.73605001831E+02 -0.15325223720E+03  0.25225189137E+03  0.12500000000E+03 0.  0.
</event>
<event>
 5    0  0.5934117E-005  0.4026285E+03  0.7546771E-02  0.1042873E+00
         21   -1    0    0  502  501  0.00000000000E+00  0.00000000000E+00  0.58646947884E+03  0.58646947884E+03  0.00000000000E+00 0.  1.
         21   -1    0    0  501  502 -0.00000000000E+00 -0.00000000000E+00 -0.27641631322E+03  0.27641631322E+03  0.00000000000E+00 0.  1.
         25    1    1    2    0    0 -0.97314041947E+01 -0.25021747299E+03  0.78568679597E+02  0.29069145400E+03  0.12500000000E+03 0.  0.
         25    1    1    2    0    0 -0.63388039299E+02  0.24675866517E+02 -0.78400121295E+02  0.16247621652E+03  0.12500000000E+03 0.  0.
         25    1    1    2    0    0  0.73119443493E+02  0.22554160647E+03  0.30988460732E+03  0.40971812154E+03  0.12500000000E+03 0.  0.
</event>
<event>
 5    0  0.5641283E-005  0.2121695E+03  0.7546771E-02  0.1139859E+00
         21   -1    0    0  502  501  0.00000000000E+00  0.00000000000E+00  0.28913880658E+02  0.28913880658E+02  0.00000000000E+00 0.  1.
         21   -1    0    0  501  502 -0.00000000000E+00 -0.00000000000E+00 -0.15568954041E+04  0.15568954041E+04  0.00000000000E+00 0.  1.
         25    1    1    2    0    0  0.73559399806E+02  0.53025175782E+02 -0.52091186783E+03  0.54332018977E+03  0.12500000000E+03 0.  0.
         25    1    1    2    0    0 -0.25950632097E+02 -0.15241824882E+02 -0.42297092794E+03  0.44208048409E+03  0.12500000000E+03 0.  0.
         25    1    1    2    0    0 -0.47608767709E+02 -0.37783350900E+02 -0.58409872765E+03  0.60040861087E+03  0.12500000000E+03 0.  0.
</event>
<event>
 5    0  0.5641283E-005  0.2670080E+03  0.7546771E-02  0.1103004E+00
         21   -1    0    0  502  501  0.00000000000E+00  0.00000000000E+00  0.22736841366E+03  0.22736841366E+03  0.00000000000E+00 0.  1.
         21   -1    0    0  501  502 -0.00000000000E+00 -0.00000000000E+00 -0.31355836779E+03  0.31355836779E+03  0.00000000000E+00 0.  1.
         25    1    1    2    0    0  0.73967678463E+02  0.43992864535E+02 -0.71334064360E+02  0.16769060297E+03  0.12500000000E+03 0.  0.
         25    1    1    2    0    0  0.44808098483E+02 -0.35907355611E+02 -0.11000003968E+03  0.17613095301E+03  0.12500000000E+03 0.  0.
         25    1    1    2    0    0 -0.11877577695E+03 -0.80855089239E+01  0.95144149912E+02  0.19710522547E+03  0.12500000000E+03 0.  0.
</event>
<event>
 5    0  0.6365663E-005  0.3857889E+03  0.7546771E-02  0.1048815E+00
         21   -1    0    0  502  501  0.00000000000E+00  0.00000000000E+00  0.57700380280E+03  0.57700380280E+03  0.00000000000E+00 0.  1.
         21   -1    0    0  501  502 -0.00000000000E+00 -0.00000000000E+00 -0.25794125088E+03  0.25794125088E+03  0.00000000000E+00 0.  1.
         25    1    1    2    0    0 -0.11175472063E+03  0.15657229550E+03  0.67107048967E+02  0.23902375891E+03  0.12500000000E+03 0.  0.
         25    1    1    2    0    0 -0.13828745484E+03 -0.10676447827E+03  0.22438432965E+03  0.31063708951E+03  0.12500000000E+03 0.  0.
         25    1    1    2    0    0  0.25004217547E+03 -0.49807817234E+02  0.27571173306E+02  0.28528420526E+03  0.12500000000E+03 0.  0.
</event>
<event>
 5    0  0.5641283E-005  0.3112134E+03  0.7546771E-02  0.1079766E+00
         21   -1    0    0  502  501  0.00000000000E+00  0.00000000000E+00  0.13285615255E+04  0.13285615255E+04  0.00000000000E+00 0.  1.
         21   -1    0    0  501  502 -0.00000000000E+00 -0.00000000000E+00 -0.72901238245E+02  0.72901238245E+02  0.00000000000E+00 0.  1.
         25    1    1    2    0    0  0.11300699464E+03 -0.15128017535E+02  0.59577838459E+03  0.61933538677E+03  0.12500000000E+03 0.  0.
         25    1    1    2    0    0 -0.45849922302E+02  0.15046710510E+03  0.20628838554E+03  0.28796260713E+03  0.12500000000E+03 0.  0.
         25    1    1    2    0    0 -0.67157072342E+02 -0.13533908757E+03  0.45359351708E+03  0.49416476981E+03  0.12500000000E+03 0.  0.
</event>
<event>
 5    0  0.5641283E-005  0.4190852E+03  0.7546771E-02  0.1037364E+00
         21   -1    0    0  502  501  0.00000000000E+00  0.00000000000E+00  0.35514078977E+03  0.35514078977E+03  0.00000000000E+00 0.  1.
         21   -1    0    0  501  502 -0.00000000000E+00 -0.00000000000E+00 -0.49454310764E+03  0.49454310764E+03  0.00000000000E+00 0.  1.
         25    1    1    2    0    0 -0.22038889047E+03 -0.26779770541E+02  0.22170302228E+03  0.33773606446E+03  0.12500000000E+03 0.  0.
         25    1    1    2    0    0  0.37669367013E+02  0.50928068614E+02 -0.13482811668E+03  0.19446405948E+03  0.12500000000E+03 0.  0.
         25    1    1    2    0    0  0.18271952345E+03 -0.24148298073E+02 -0.22627722347E+03  0.31748377347E+03  0.12500000000E+03 0.  0.
</event>
<event>
 5    0  0.5641283E-005  0.2840780E+03  0.7546771E-02  0.1093482E+00
         21   -1    0    0  502  501  0.00000000000E+00  0.00000000000E+00  0.21012989025E+03  0.21012989025E+03  0.00000000000E+00 0. -1.
         21   -1    0    0  501  502 -0.00000000000E+00 -0.00000000000E+00 -0.38404964439E+03  0.38404964439E+03  0.00000000000E+00 0. -1.
         25    1    1    2    0    0 -0.17893978180E+03  0.63319704626E+01 -0.42697448910E+02  0.22250305954E+03  0.12500000000E+03 0.  0.
         25    1    1    2    0    0  0.34113946850E+02 -0.56234056735E+02 -0.96177329070E+02  0.17088332023E+03  0.12500000000E+03 0.  0.
         25    1    1    2    0    0  0.14482583495E+03  0.49902086272E+02 -0.35044976162E+02  0.20079315486E+03  0.12500000000E+03 0.  0.
</event>
<event>
 5    0  0.5641283E-005  0.4015094E+03  0.7546771E-02  0.1043258E+00
         21   -1    0    0  502  501  0.00000000000E+00  0.00000000000E+00  0.21333106470E+03  0.21333106470E+03  0.00000000000E+00 0. -1.
         21   -1    0    0  501  502 -0.00000000000E+00 -0.00000000000E+00 -0.75567885637E+03  0.75567885637E+03  0.00000000000E+00 0. -1.
         25    1    1    2    0    0  0.16267365972E+03 -0.10060861359E+03 -0.20782881840E+03  0.30887316240E+03  0.12500000000E+03 0.  0.
         25    1    1    2    0    0 -0.63759816584E+02 -0.17522174152E+03 -0.43525985870E+02  0.22866456734E+03  0.12500000000E+03 0.  0.
         25    1    1    2    0    0 -0.98913843132E+02  0.27583035511E+03 -0.29099298740E+03  0.43147219132E+03  0.12500000000E+03 0.  0.
</event>
<event>
 5    0  0.5641283E-005  0.2402458E+03  0.7546771E-02  0.1119629E+00
         21   -1    0    0  502  501  0.00000000000E+00  0.00000000000E+00  0.45805135799E+02  0.45805135799E+02  0.00000000000E+00 0. -1.
         21   -1    0    0  501  502 -0.00000000000E+00 -0.00000000000E+00 -0.12600777230E+04  0.12600777230E+04  0.00000000000E+00 0. -1.
         25    1    1    2    0    0  0.31726548105E+01 -0.36607751491E+02 -0.15643698112E+03  0.20358713680E+03  0.12500000000E+03 0.  0.
         25    1    1    2    0    0  0.56919592530E+02  0.72416807994E+02 -0.69662682906E+03  0.71372121523E+03  0.12500000000E+03 0.  0.
         25    1    1    2    0    0 -0.60092247341E+02 -0.35809056503E+02 -0.36120877697E+03  0.38857450673E+03  0.12500000000E+03 0.  0.
</event>
<event>
 5    0  0.5641283E-005  0.2575807E+03  0.7546771E-02  0.1108606E+00
         21   -1    0    0  502  501  0.00000000000E+00  0.00000000000E+00  0.12819970244E+03  0.12819970244E+03  0.00000000000E+00 0. -1.
         21   -1    0    0  501  502 -0.00000000000E+00 -0.00000000000E+00 -0.51753478638E+03  0.51753478638E+03  0.00000000000E+00 0. -1.
         25    1    1    2    0    0  0.87259008366E+02  0.10470194517E+03 -0.16346604713E+03  0.24682540475E+03  0.12500000000E+03 0.  0.
         25    1    1    2    0    0  0.29981433872E+02 -0.77847067642E+02 -0.70341176445E+02  0.16592749447E+03  0.12500000000E+03 0.  0.
         25    1    1    2    0    0 -0.11724044224E+03 -0.26854877530E+02 -0.15552786037E+03  0.23298158960E+03  0.12500000000E+03 0.  0.
</event>
<event>
 5    0  0.5641283E-005  0.3898783E+03  0.7546771E-02  0.1047342E+00
         21   -1    0    0  502  501  0.00000000000E+00  0.00000000000E+00  0.18121843876E+03  0.18121843876E+03  0.00000000000E+00 0. -1.
         21   -1    0    0  501  502 -0.00000000000E+00 -0.00000000000E+00 -0.83879480507E+03  0.83879480507E+03  0.00000000000E+00 0. -1.
         25    1    1    2    0    0  0.11613799304E+02 -0.23125173032E+03 -0.62302581624E+02  0.27040498292E+03  0.12500000000E+03 0.  0.
         25    1    1    2    0    0  0.68662300462E+02  0.40683103800E+02 -0.55734350180E+02  0.15843277511E+03  0.12500000000E+03 0.  0.
         25    1    1    2    0    0 -0.80276099765E+02  0.19056862653E+03 -0.53953943451E+03  0.59117548579E+03  0.12500000000E+03 0.  0.
</event>
<event>
 5    0  0.5641283E-005  0.3240911E+03  0.7546771E-02  0.1073782E+00
         21   -1    0    0  502  501  0.00000000000E+00  0.00000000000E+00  0.27874470608E+04  0.27874470608E+04  0.00000000000E+00 0.  1.
         21   -1    0    0  501  502 -0.00000000000E+00 -0.00000000000E+00 -0.37681458794E+02  0.37681458794E+02  0.00000000000E+00 0.  1.
         25    1    1    2    0    0 -0.48225903416E+02  0.99757164021E+02  0.12368363312E+04  0.12480650383E+04  0.12500000000E+03 0.  0.
         25    1    1    2    0    0  0.19395401284E+03 -0.88505831175E+02  0.72350430397E+03  0.76454883370E+03  0.12500000000E+03 0.  0.
         25    1    1    2    0    0 -0.14572810943E+03 -0.11251332846E+02  0.78942496689E+03  0.81251464769E+03  0.12500000000E+03 0.  0.
</event>
<event>
 5    0  0.5641283E-005  0.4678184E+03  0.7546771E-02  0.1022538E+00
         21   -1    0    0  502  501  0.00000000000E+00  0.00000000000E+00  0.16647697405E+04  0.16647697405E+04  0.00000000000E+00 0.  1.
         21   -1    0    0  501  502 -0.00000000000E+00 -0.00000000000E+00 -0.13146207615E+03  0.13146207615E+03  0.00000000000E+00 0.  1.
         25    1    1    2    0    0 -0.15998035652E+03 -0.94857686461E+01  0.16450668133E+03  0.26147876105E+03  0.12500000000E+03 0.  0.
         25    1    1    2    0    0  0.53522503782E+02 -0.21178822552E+03  0.11654157879E+04  0.11922826299E+04  0.12500000000E+03 0.  0.
         25    1    1    2    0    0  0.10645785273E+03  0.22127399416E+03  0.20338519518E+03  0.34247042576E+03  0.12500000000E+03 0.  0.
</event>
<event>
 5    0  0.5641283E-005  0.2539765E+03  0.7546771E-02  0.1110817E+00
         21   -1    0    0  502  501  0.00000000000E+00  0.00000000000E+00  0.85885714781E+02  0.85885714781E+02  0.00000000000E+00 0. -1.
         21   -1    0    0  501  502 -0.00000000000E+00 -0.00000000000E+00 -0.75104529671E+03  0.75104529671E+03  0.00000000000E+00 0. -1.
         25    1    1    2    0    0  0.37623667811E+02 -0.31461639293E+02 -0.29935470193E+02  0.13757364392E+03  0.12500000000E+03 0.  0.
         25    1    1    2    0    0 -0.73405939789E+02 -0.30017246583E+02 -0.34636813959E+03  0.37667672507E+03  0.12500000000E+03 0.  0.
         25    1    1    2    0    0  0.35782271978E+02  0.61478885876E+02 -0.28885597215E+03  0.32268064250E+03  0.12500000000E+03 0.  0.
</event>
<event>
 5    0  0.5641283E-005  0.2551107E+03  0.7546771E-02  0.1110117E+00
         21   -1    0    0  502  501  0.00000000000E+00  0.00000000000E+00  0.11226009635E+04  0.11226009635E+04  0.00000000000E+00 0.  1.
         21   -1    0    0  501  502 -0.00000000000E+00 -0.00000000000E+00 -0.57973808267E+02  0.57973808267E+02  0.00000000000E+00 0.  1.
         25    1    1    2    0    0 -0.11692900614E+03  0.37196214084E+02  0.51249759991E+03  0.54160385960E+03  0.12500000000E+03 0.  0.
         25    1    1    2    0    0  0.46654458354E+02  0.41463693470E+02  0.36282544778E+03  0.38879709608E+03  0.12500000000E+03 0.  0.
         25    1    1    2    0    0  0.70274547789E+02 -0.78659907554E+02  0.18930410753E+03  0.25017381607E+03  0.12500000000E+03 0.  0.
</event>
<event>
 5    0  0.5641283E-005  0.2604528E+03  0.7546771E-02  0.1106872E+00
         21   -1    0    0  502  501  0.00000000000E+00  0.00000000000E+00  0.35905678028E+03  0.35905678028E+03  0.00000000000E+00 0. -1.
         21   -1    0    0  501  502 -0.00000000000E+00 -0.00000000000E+00 -0.18892734762E+03  0.18892734762E+03  0.00000000000E+00 0. -1.
         25    1    1    2    0    0  0.48534642959E+02  0.19430869448E+02  0.13175848580E+03  0.18899330367E+03  0.12500000000E+03 0.  0.
         25    1    1    2    0    0  0.69083009161E+02 -0.91840385913E+02  0.30662535303E+02  0.17254654361E+03  0.12500000000E+03 0.  0.
         25    1    1    2    0    0 -0.11761765212E+03  0.72409516465E+02  0.77084115610E+01  0.18644428061E+03  0.12500000000E+03 0.  0.
</event>
<event>
 5    0  0.5641283E-005  0.2968555E+03  0.7546771E-02  0.1086823E+00
         21   -1    0    0  502  501  0.00000000000E+00  0.00000000000E+00  0.61182598641E+02  0.61182598641E+02  0.00000000000E+00 0. -1.
         21   -1    0    0  501  502 -0.00000000000E+00 -0.00000000000E+00 -0.14403311056E+04  0.14403311056E+04  0.00000000000E+00 0. -1.
         25    1    1    2    0    0 -0.68263641702E+02 -0.21316180854E+02 -0.65088133090E+03  0.66662269033E+03  0.12500000000E+03 0.  0.
         25    1    1    2    0    0  0.60522878092E+02  0.15998777393E+03 -0.29637194036E+03  0.36430815749E+03  0.12500000000E+03 0.  0.
         25    1    1    2    0    0  0.77407636099E+01 -0.13867159307E+03 -0.43189523574E+03  0.47058285647E+03  0.12500000000E+03 0.  0.
</event>
<event>
 5    0  0.5641283E-005  0.3390885E+03  0.7546771E-02  0.1067185E+00
         21   -1    0    0  502  501  0.00000000000E+00  0.00000000000E+00  0.16990558970E+03  0.16990558970E+03  0.00000000000E+00 0. -1.
         21   -1    0    0  501  502 -0.00000000000E+00 -0.00000000000E+00 -0.67673461268E+03  0.67673461268E+03  0.00000000000E+00 0. -1.
         25    1    1    2    0    0  0.13944033920E+03 -0.14909361738E+03 -0.32467523003E+03  0.40337516028E+03  0.12500000000E+03 0.  0.
         25    1    1    2    0    0 -0.12669098670E+03  0.19587511057E+03 -0.15422047250E+03  0.30631131091E+03  0.12500000000E+03 0.  0.
         25    1    1    2    0    0 -0.12749352500E+02 -0.46781493191E+02 -0.27933320446E+02  0.13695373118E+03  0.12500000000E+03 0.  0.
</event>
<event>
 5    0  0.5641283E-005  0.3256831E+03  0.7546771E-02  0.1073063E+00
         21   -1    0    0  502  501  0.00000000000E+00  0.00000000000E+00  0.17521735614E+03  0.17521735614E+03  0.00000000000E+00 0.  1.
         21   -1    0    0  501  502 -0.00000000000E+00 -0.00000000000E+00 -0.60535960316E+03  0.60535960316E+03  0.00000000000E+00 0.  1.
         25    1    1    2    0    0  0.99861843832E+02  0.14326054334E+03 -0.43278316070E+02  0.21907529247E+03  0.12500000000E+03 0.  0.
         25    1    1    2    0    0 -0.15053648642E+03  0.17805037542E+02 -0.17446591004E+03  0.26275769612E+03  0.12500000000E+03 0.  0.
         25    1    1    2    0    0  0.50674642587E+02 -0.16106558088E+03 -0.21239802090E+03  0.29874397070E+03  0.12500000000E+03 0.  0.
</event>
<event>
 5    0  0.5641283E-005  0.3594711E+03  0.7546771E-02  0.1058793E+00
         21   -1    0    0  502  501  0.00000000000E+00  0.00000000000E+00  0.51916957870E+03  0.51916957870E+03  0.00000000000E+00 0.  1.
         21   -1    0    0  501  502 -0.00000000000E+00 -0.00000000000E+00 -0.24889643383E+03  0.24889643383E+03  0.00000000000E+00 0.  1.
         25    1    1    2    0    0 -0.63231156166E+02 -0.79354014277E+02  0.66541328943E+02  0.17420673681E+03  0.12500000000E+03 0.  0.
         25    1    1    2    0    0  0.22297068999E+03 -0.76964261957E+02  0.53338253038E+00  0.26695451056E+03  0.12500000000E+03 0.  0.
         25    1    1    2    0    0 -0.15973953382E+03  0.15631827623E+03  0.20319843340E+03  0.32690476516E+03  0.12500000000E+03 0.  0.
</event>
<event>
 5    0  0.5641283E-005  0.3008381E+03  0.7546771E-02  0.1084822E+00
         21   -1    0    0  502  501  0.00000000000E+00  0.00000000000E+00  0.42582072488E+03  0.42582072488E+03  0.00000000000E+00 0.  1.
         21   -1    0    0  501  502 -0.00000000000E+00 -0.00000000000E+00 -0.21253911391E+03  0.21253911391E+03  0.00000000000E+00 0.  1.
         25    1    1    2    0    0 -0.95816491039E+02 -0.74409330254E+02 -0.96962951399E+02  0.19935988144E+03  0.12500000000E+03 0.  0.
         25    1    1    2    0    0  0.12985823642E+02  0.35062358242E+02  0.57686252952E+02  0.14265589494E+03  0.12500000000E+03 0.  0.
         25    1    1    2    0    0  0.82830667397E+02  0.39346972012E+02  0.25255830942E+03  0.29634406241E+03  0.12500000000E+03 0.  0.
</event>
<event>
 5    0  0.5641283E-005  0.3603683E+03  0.7546771E-02  0.1058438E+00
         21   -1    0    0  502  501  0.00000000000E+00  0.00000000000E+00  0.74089933449E+03  0.74089933449E+03  0.00000000000E+00 0. -1.
         21   -1    0    0  501  502 -0.00000000000E+00 -0.00000000000E+00 -0.17528065788E+03  0.17528065788E+03  0.00000000000E+00 0. -1.
         25    1    1    2    0    0 -0.96043404802E+02 -0.86365187602E+02  0.29617272527E+03  0.34644850184E+03  0.12500000000E+03 0.  0.
         25    1    1    2    0    0 -0.53969912307E+02  0.22424849006E+03  0.15490184319E+03  0.30466328587E+03  0.12500000000E+03 0.  0.
         25    1    1    2    0    0  0.15001331711E+03 -0.13788330246E+03  0.11454410815E+03  0.26506820466E+03  0.12500000000E+03 0.  0.
</event>
<event>
 5    0  0.5641283E-005  0.2061568E+03  0.7546771E-02  0.1144646E+00
         21   -1    0    0  502  501  0.00000000000E+00  0.00000000000E+00  0.35721815033E+03  0.35721815033E+03  0.00000000000E+00 0.  1.
         21   -1    0    0  501  502 -0.00000000000E+00 -0.00000000000E+00 -0.11897667491E+03  0.11897667491E+03  0.00000000000E+00 0.  1.
         25    1    1    2    0    0  0.50749565341E+02  0.15785965302E+01  0.53918568956E+02  0.14529357325E+03  0.12500000000E+03 0.  0.
         25    1    1    2    0    0 -0.11430757714E+02  0.20710981880E+02  0.14367668276E+03  0.19190517492E+03  0.12500000000E+03 0.  0.
         25    1    1    2    0    0 -0.39318807626E+02 -0.22289578410E+02  0.40646223702E+02  0.13899607707E+03  0.12500000000E+03 0.  0.
</event>
<event>
 5    0  0.5641283E-005  0.3600282E+03  0.7546771E-02  0.1058573E+00
         21   -1    0    0  502  501  0.00000000000E+00  0.00000000000E+00  0.22729422034E+04  0.22729422034E+04  0.00000000000E+00 0. -1.
         21   -1    0    0  501  502 -0.00000000000E+00 -0.00000000000E+00 -0.57027548369E+02  0.57027548369E+02  0.00000000000E+00 0. -1.
         25    1    1    2    0    0 -0.17811247565E+03  0.18397242096E+03  0.54750088478E+03  0.61721319209E+03  0.12500000000E+03 0.  0.
         25    1    1    2    0    0  0.69639297625E+02 -0.51672300811E+02  0.10016158589E+04  0.10131036410E+04  0.12500000000E+03 0.  0.
         25    1    1    2    0    0  0.10847317802E+03 -0.13230012015E+03  0.66679791128E+03  0.69965291869E+03  0.12500000000E+03 0.  0.
</event>
<event>
 5    0  0.5641283E-005  0.2619064E+03  0.7546771E-02  0.1106003E+00
         21   -1    0    0  502  501  0.00000000000E+00  0.00000000000E+00  0.34925791657E+03  0.34925791657E+03  0.00000000000E+00 0.  1.
         21   -1    0    0  501  502 -0.00000000000E+00 -0.00000000000E+00 -0.19640205676E+03  0.19640205676E+03  0.00000000000E+00 0.  1.
         25    1    1    2    0    0 -0.33554091678E+02  0.61198980828E+02  0.20417032695E+03  0.24936261695E+03  0.12500000000E+03 0.  0.
         25    1    1    2    0    0 -0.12077319481E+02 -0.52628148754E+02  0.30925830543E+02  0.13963162493E+03  0.12500000000E+03 0.  0.
         25    1    1    2    0    0  0.45631411159E+02 -0.85708320746E+01 -0.82240297680E+02  0.15666573145E+03  0.12500000000E+03 0.  0.
</event>
<event>
 5    0  0.5641283E-005  0.3787359E+03  0.7546771E-02  0.1051402E+00
         21   -1    0    0  502  501  0.00000000000E+00  0.00000000000E+00  0.45513832473E+03  0.45513832473E+03  0.00000000000E+00 0. -1.
         21   -1    0    0  501  502 -0.00000000000E+00 -0.00000000000E+00 -0.31515894734E+03  0.31515894734E+03  0.00000000000E+00 0. -1.
         25    1    1    2    0    0 -0.14577572844E+02 -0.52007999256E+02  0.31341271239E+03  0.34171606035E+03  0.12500000000E+03 0.  0.
         25    1    1    2    0    0 -0.50739775248E+02  0.12066909396E+03 -0.19971754298E+03  0.26953228379E+03  0.12500000000E+03 0.  0.
         25    1    1    2    0    0  0.65317348092E+02 -0.68661094706E+02  0.26284207986E+02  0.15904892794E+03  0.12500000000E+03 0.  0.
</event>
<event>
 5    0  0.6037989E-005  0.3115553E+03  0.7546771E-02  0.1079603E+00
         21   -1    0    0  502  501  0.00000000000E+00  0.00000000000E+00  0.45211031150E+03  0.45211031150E+03  0.00000000000E+00 0.  1.
         21   -1    0    0  501  502 -0.00000000000E+00 -0.00000000000E+00 -0.21469695626E+03  0.21469695626E+03  0.00000000000E+00 0.  1.
         25    1    1    2    0    0 -0.47983512965E+02  0.91920588215E+02  0.17612833392E+03  0.23957880137E+03  0.12500000000E+03 0.  0.
         25    1    1    2    0    0  0.26630667508E+02  0.78260486890E+01 -0.12626693333E+03  0.17982985832E+03  0.12500000000E+03 0.  0.
         25    1    1    2    0    0  0.21352845457E+02 -0.99746636904E+02  0.18755195465E+03  0.24739860807E+03  0.12500000000E+03 0.  0.
</event>
<event>
 5    0  0.5641283E-005  0.3143658E+03  0.7546771E-02  0.1078272E+00
         21   -1    0    0  502  501  0.00000000000E+00  0.00000000000E+00  0.87668927293E+03  0.87668927293E+03  0.00000000000E+00 0.  1.
         21   -1    0    0  501  502 -0.00000000000E+00 -0.00000000000E+00 -0.11272620481E+03  0.11272620481E+03  0.00000000000E+00 0.  1.
         25    1    1    2    0    0  0.96816136102E+02 -0.72476983544E+02  0.48235981428E+03  0.51275946387E+03  0.12500000000E+03 0.  0.
         25    1    1    2    0    0 -0.17938339396E+02  0.87703321203E+02 -0.49944255909E+01  0.15382977884E+03  0.12500000000E+03 0.  0.
         25    1    1    2    0    0 -0.78877796706E+02 -0.15226337659E+02  0.28659767943E+03  0.32282623503E+03  0.12500000000E+03 0.  0.
</event>
<event>
 5    0  0.5641283E-005  0.2212529E+03  0.7546771E-02  0.1132952E+00
         21   -1    0    0  502  501  0.00000000000E+00  0.00000000000E+00  0.44584351890E+03  0.44584351890E+03  0.00000000000E+00 0. -1.
         21   -1    0    0  501  502 -0.00000000000E+00 -0.00000000000E+00 -0.10979826110E+03  0.10979826110E+03  0.00000000000E+00 0. -1.
         25    1    1    2    0    0 -0.99009970113E+00  0.49569388309E+01  0.26112488907E+03  0.28954578089E+03  0.12500000000E+03 0.  0.
         25    1    1    2    0    0  0.24435656291E+02 -0.85055672470E+01  0.29606664151E+02  0.13103816442E+03  0.12500000000E+03 0.  0.
         25    1    1    2    0    0 -0.23445556590E+02  0.35486284161E+01  0.45313704583E+02  0.13505783469E+03  0.12500000000E+03 0.  0.
</event>
<event>
 5    0  0.5641283E-005  0.2959461E+03  0.7546771E-02  0.1087285E+00
         21   -1    0    0  502  501  0.00000000000E+00  0.00000000000E+00  0.56645912756E+03  0.56645912756E+03  0.00000000000E+00 0. -1.
         21   -1    0    0  501  502 -0.00000000000E+00 -0.00000000000E+00 -0.15461677713E+03  0.15461677713E+03  0.00000000000E+00 0. -1.
         25    1    1    2    0    0  0.85579731935E+02  0.59821817576E+02  0.79312566130E+02  0.18115745506E+03  0.12500000000E+03 0.  0.
         25    1    1    2    0    0  0.15146016771E+00 -0.13698078244E+03  0.23167088591E+02  0.18688357791E+03  0.12500000000E+03 0.  0.
         25    1    1    2    0    0 -0.85731192103E+02  0.77158964863E+02  0.30936269571E+03  0.35303487173E+03  0.12500000000E+03 0.  0.
</event>
<event>
 5    0  0.5641283E-005  0.2181926E+03  0.7546771E-02  0.1135238E+00
         21   -1    0    0  502  501  0.00000000000E+00  0.00000000000E+00  0.40458428238E+02  0.40458428238E+02  0.00000000000E+00 0.  1.
         21   -1    0    0  501  502 -0.00000000000E+00 -0.00000000000E+00 -0.11767140716E+04  0.11767140716E+04  0.00000000000E+00 0.  1.
         25    1    1    2    0    0 -0.37493768933E+02 -0.78773379410E+02 -0.42791473343E+03  0.45425438589E+03  0.12500000000E+03 0.  0.
         25    1    1    2    0    0  0.12720304204E+02  0.41111789119E+02 -0.48818997257E+03  0.50577310591E+03  0.12500000000E+03 0.  0.
         25    1    1    2    0    0  0.24773464730E+02  0.37661590291E+02 -0.22015093736E+03  0.25714500804E+03  0.12500000000E+03 0.  0.
</event>
<event>
 5    0  0.6914318E-005  0.2879905E+03  0.7546771E-02  0.1091403E+00
         21   -1    0    0  502  501  0.00000000000E+00  0.00000000000E+00  0.53601422257E+03  0.53601422257E+03  0.00000000000E+00 0. -1.
         21   -1    0    0  501  502 -0.00000000000E+00 -0.00000000000E+00 -0.15473199784E+03  0.15473199784E+03  0.00000000000E+00 0.  1.
         25    1    1    2    0    0 -0.98753904534E+02  0.83762399190E+02  0.15466039604E+03  0.23730425888E+03  0.12500000000E+03 0.  0.
         25    1    1    2    0    0  0.11737172360E+03 -0.17106953055E+02 -0.14752657865E+02  0.17294915512E+03  0.12500000000E+03 0.  0.
         25    1    1    2    0    0 -0.18617819067E+02 -0.66655446135E+02  0.24137448656E+03  0.28049280641E+03  0.12500000000E+03 0.  0.
</event>
<event>
 5    0  0.5641283E-005  0.2858670E+03  0.7546771E-02  0.1092527E+00
         21   -1    0    0  502  501  0.00000000000E+00  0.00000000000E+00  0.36217804860E+03  0.36217804860E+03  0.00000000000E+00 0.  1.
         21   -1    0    0  501  502 -0.00000000000E+00 -0.00000000000E+00 -0.22563479234E+03  0.22563479234E+03  0.00000000000E+00 0.  1.
         25    1    1    2    0    0 -0.43830867372E+02 -0.17484035509E+02  0.58742501620E+02  0.14595382122E+03  0.12500000000E+03 0.  0.
         25    1    1    2    0    0  0.23437253331E+02 -0.21719217265E+02 -0.13778945649E+03  0.18876430691E+03  0.12500000000E+03 0.  0.
         25    1    1    2    0    0  0.20393614041E+02  0.39203252774E+02  0.21559021113E+03  0.25309471282E+03  0.12500000000E+03 0.  0.
</event>
<event>
 5    0  0.5641283E-005  0.2780630E+03  0.7546771E-02  0.1096752E+00
         21   -1    0    0  502  501  0.00000000000E+00  0.00000000000E+00  0.23994323766E+03  0.23994323766E+03  0.00000000000E+00 0.  1.
         21   -1    0    0  501  502 -0.00000000000E+00 -0.00000000000E+00 -0.32223885207E+03  0.32223885207E+03  0.00000000000E+00 0.  1.
         25    1    1    2    0    0 -0.14380720502E+03  0.68409553602E+02  0.25812858858E+02  0.20408743941E+03  0.12500000000E+03 0.  0.
         25    1    1    2    0    0  0.84375644981E+02 -0.11517860643E+03 -0.92673569108E+02  0.21118416431E+03  0.12500000000E+03 0.  0.
         25    1    1    2    0    0  0.59431560043E+02  0.46769052830E+02 -0.15434904158E+02  0.14691048600E+03  0.12500000000E+03 0.  0.
</event>
<event>
 5    0  0.5641283E-005  0.4133692E+03  0.7546771E-02  0.1039246E+00
         21   -1    0    0  502  501  0.00000000000E+00  0.00000000000E+00  0.21662730799E+04  0.21662730799E+04  0.00000000000E+00 0.  1.
         21   -1    0    0  501  502 -0.00000000000E+00 -0.00000000000E+00 -0.78879309810E+02  0.78879309810E+02  0.00000000000E+00 0.  1.
         25    1    1    2    0    0  0.17409506752E+03  0.12484543143E+03  0.41201234536E+03  0.48091022760E+03  0.12500000000E+03 0.  0.
         25    1    1    2    0    0  0.28785652692E+02 -0.25145182748E+03  0.81112902464E+03  0.85884336753E+03  0.12500000000E+03 0.  0.
         25    1    1    2    0    0 -0.20288072021E+03  0.12660639605E+03  0.86425240009E+03  0.90539879457E+03  0.12500000000E+03 0.  0.
</event>
<event>
 5    0  0.5641283E-005  0.3248813E+03  0.7546771E-02  0.1073424E+00
         21   -1    0    0  502  501  0.00000000000E+00  0.00000000000E+00  0.60749786016E+02  0.60749786016E+02  0.00000000000E+00 0.  1.
         21   -1    0    0  501  502 -0.00000000000E+00 -0.00000000000E+00 -0.17374199079E+04  0.17374199079E+04  0.00000000000E+00 0.  1.
         25    1    1    2    0    0 -0.72903053780E+02  0.14034668030E+03 -0.57369896492E+03  0.60808514887E+03  0.12500000000E+03 0.  0.
         25    1    1    2    0    0  0.57929396413E+02  0.14466988509E+02 -0.10896620754E+03  0.17624909393E+03  0.12500000000E+03 0.  0.
         25    1    1    2    0    0  0.14973657367E+02 -0.15481366881E+03 -0.99400494944E+03  0.10138354511E+04  0.12500000000E+03 0.  0.
</event>
<event>
 5    0  0.5641283E-005  0.2766326E+03  0.7546771E-02  0.1097543E+00
         21   -1    0    0  502  501  0.00000000000E+00  0.00000000000E+00  0.10647084832E+04  0.10647084832E+04  0.00000000000E+00 0.  1.
         21   -1    0    0  501  502 -0.00000000000E+00 -0.00000000000E+00 -0.71874675841E+02  0.71874675841E+02  0.00000000000E+00 0.  1.
         25    1    1    2    0    0 -0.75224990030E+02  0.12838809840E+02  0.67063051058E+03  0.68643566041E+03  0.12500000000E+03 0.  0.
         25    1    1    2    0    0  0.71535570051E+02 -0.86864824322E+02  0.18920079881E+03  0.25314971412E+03  0.12500000000E+03 0.  0.
         25    1    1    2    0    0  0.36894199792E+01  0.74026014482E+02  0.13300249799E+03  0.19699778453E+03  0.12500000000E+03 0.  0.
</event>
<event>
 5    0  0.5689477E-005  0.3102417E+03  0.7546771E-02  0.1080230E+00
         21   -1    0    0  502  501  0.00000000000E+00  0.00000000000E+00  0.16371936281E+03  0.16371936281E+03  0.00000000000E+00 0.  1.
         21   -1    0    0  501  502 -0.00000000000E+00 -0.00000000000E+00 -0.58789574766E+03  0.58789574766E+03  0.00000000000E+00 0.  1.
         25    1    1    2    0    0 -0.10433210278E+03  0.71878488672E+02 -0.10543164415E+03  0.20686356951E+03  0.12500000000E+03 0.  0.
         25    1    1    2    0    0 -0.91835416477E+02 -0.66609219827E+02 -0.25982537066E+02  0.17079409860E+03  0.12500000000E+03 0.  0.
         25    1    1    2    0    0  0.19616751926E+03 -0.52692688450E+01 -0.29276220364E+03  0.37395744235E+03  0.12500000000E+03 0.  0.
</event>
<event>
 5    0  0.5641283E-005  0.2250105E+03  0.7546771E-02  0.1130202E+00
         21   -1    0    0  502  501  0.00000000000E+00  0.00000000000E+00  0.11028909011E+03  0.11028909011E+03  0.00000000000E+00 0.  1.
         21   -1    0    0  501  502 -0.00000000000E+00 -0.00000000000E+00 -0.45906365589E+03  0.45906365589E+03  0.00000000000E+00 0.  1.
         25    1    1    2    0    0  0.33522615250E+02  0.24609576897E+02  0.60178943691E+01  0.13187346989E+03  0.12500000000E+03 0.  0.
         25    1    1    2    0    0 -0.31845161004E+02 -0.22246254739E+02 -0.17875958953E+03  0.22156037772E+03  0.12500000000E+03 0.  0.
         25    1    1    2    0    0 -0.16774542460E+01 -0.23633221579E+01 -0.17603287062E+03  0.21591889839E+03  0.12500000000E+03 0.  0.
</event>
<event>
 5    0  0.5641283E-005  0.5573851E+03  0.7546771E-02  0.9997989E-01
         21   -1    0    0  502  501  0.00000000000E+00  0.00000000000E+00  0.25440263549E+04  0.25440263549E+04  0.00000000000E+00 0.  1.
         21   -1    0    0  501  502 -0.00000000000E+00 -0.00000000000E+00 -0.12212066446E+03  0.12212066446E+03  0.00000000000E+00 0.  1.
         25    1    1    2    0    0  0.15157989176E+03  0.23594140994E+03  0.18335415692E+04  0.18590708697E+04  0.12500000000E+03 0.  0.
         25    1    1    2    0    0 -0.26274696665E+03 -0.83250867578E+02  0.44791673065E+03  0.54057476174E+03  0.12500000000E+03 0.  0.
         25    1    1    2    0    0  0.11116707489E+03 -0.15269054236E+03  0.14044739066E+03  0.26650138801E+03  0.12500000000E+03 0.  0.
</event>
<event>
 5    0  0.5641283E-005  0.2830206E+03  0.7546771E-02  0.1094051E+00
         21   -1    0    0  502  501  0.00000000000E+00  0.00000000000E+00  0.34682678557E+03  0.34682678557E+03  0.00000000000E+00 0.  1.
         21   -1    0    0  501  502 -0.00000000000E+00 -0.00000000000E+00 -0.23095286798E+03  0.23095286798E+03  0.00000000000E+00 0.  1.
         25    1    1    2    0    0  0.25166851127E+02 -0.58145732909E+02  0.14521779233E+03  0.20181056429E+03  0.12500000000E+03 0.  0.
         25    1    1    2    0    0 -0.28677531259E+02  0.42012423155E+02 -0.14977741763E+03  0.20160783549E+03  0.12500000000E+03 0.  0.
         25    1    1    2    0    0  0.35106801320E+01  0.16133309754E+02  0.12043354290E+03  0.17436125376E+03  0.12500000000E+03 0.  0.
</event>
<event>
 5    0  0.5641283E-005  0.3285428E+03  0.7546771E-02  0.1071783E+00
         21   -1    0    0  502  501  0.00000000000E+00  0.00000000000E+00  0.11698604502E+03  0.11698604502E+03  0.00000000000E+00 0. -1.
         21   -1    0    0  501  502 -0.00000000000E+00 -0.00000000000E+00 -0.92267723534E+03  0.92267723534E+03  0.00000000000E+00 0. -1.
         25    1    1    2    0    0 -0.76183932423E+02 -0.22320521420E+02 -0.12750021042E+03  0.19540598991E+03  0.12500000000E+03 0.  0.
         25    1    1    2    0    0 -0.98786281174E+02 -0.84449470246E+02 -0.75464050040E+02  0.19547446181E+03  0.12500000000E+03 0.  0.
         25    1    1    2    0    0  0.17497021360E+03  0.10676999167E+03 -0.60272692985E+03  0.64878282864E+03  0.12500000000E+03 0.  0.
</event>
<event>
 5    0  0.5641283E-005  0.3672712E+03  0.7546771E-02  0.1055741E+00
         21   -1    0    0  502  501  0.00000000000E+00  0.00000000000E+00  0.14011037470E+04  0.14011037470E+04  0.00000000000E+00 0. -1.
         21   -1    0    0  501  502 -0.00000000000E+00 -0.00000000000E+00 -0.96272776062E+02  0.96272776062E+02  0.00000000000E+00 0. -1.
         25    1    1    2    0    0 -0.53910331603E+02 -0.15873072657E+03  0.70213778129E+03  0.73261465404E+03  0.12500000000E+03 0.  0.
         25    1    1    2    0    0 -0.33878610694E+02  0.10135214439E+03  0.57650762552E+03  0.59950484545E+03  0.12500000000E+03 0.  0.
         25    1    1    2    0    0  0.87788942297E+02  0.57378582174E+02  0.26185564176E+02  0.16525702361E+03  0.12500000000E+03 0.  0.
</event>
<event>
 5    0  0.5641283E-005  0.3775331E+03  0.7546771E-02  0.1051849E+00
         21   -1    0    0  502  501  0.00000000000E+00  0.00000000000E+00  0.14521065904E+03  0.14521065904E+03  0.00000000000E+00 0. -1.
         21   -1    0    0  501  502 -0.00000000000E+00 -0.00000000000E+00 -0.98154810315E+03  0.98154810315E+03  0.00000000000E+00 0. -1.
         25    1    1    2    0    0 -0.61315296559E+02  0.15883633110E+03 -0.20439289395E+03  0.29392175960E+03  0.12500000000E+03 0.  0.
         25    1    1    2    0    0 -0.94465161997E+02  0.10805913066E+03 -0.13078028161E+03  0.23093056231E+03  0.12500000000E+03 0.  0.
         25    1    1    2    0    0  0.15578045856E+03 -0.26689546177E+03 -0.50116426855E+03  0.60190644028E+03  0.12500000000E+03 0.  0.
</event>
<event>
 5    0  0.5641283E-005  0.2582698E+03  0.7546771E-02  0.1108187E+00
         21   -1    0    0  502  501  0.00000000000E+00  0.00000000000E+00  0.11184689818E+03  0.11184689818E+03  0.00000000000E+00 0. -1.
         21   -1    0    0  501  502 -0.00000000000E+00 -0.00000000000E+00 -0.59638053287E+03  0.59638053287E+03  0.00000000000E+00 0. -1.
         25    1    1    2    0    0  0.36043987802E+02  0.40626129947E+02 -0.20133505648E+02  0.13776795542E+03  0.12500000000E+03 0.  0.
         25    1    1    2    0    0  0.50769184583E+02  0.32829144814E+02 -0.10760207760E+03  0.17566579051E+03  0.12500000000E+03 0.  0.
         25    1    1    2    0    0 -0.86813172385E+02 -0.73455274761E+02 -0.35679805145E+03  0.39479368511E+03  0.12500000000E+03 0.  0.
</event>
<event>
 5    0  0.5641283E-005  0.2925401E+03  0.7546771E-02  0.1089030E+00
         21   -1    0    0  502  501  0.00000000000E+00  0.00000000000E+00  0.98865232187E+02  0.98865232187E+02  0.00000000000E+00 0.  1.
         21   -1    0    0  501  502 -0.00000000000E+00 -0.00000000000E+00 -0.86561975504E+03  0.86561975504E+03  0.00000000000E+00 0.  1.
         25    1    1    2    0    0  0.23697150048E+02 -0.56711531837E+02 -0.36948018051E+03  0.39486498522E+03  0.12500000000E+03 0.  0.
         25    1    1    2    0    0  0.65704611200E+02  0.16275254165E+03 -0.26105233463E+03  0.33849491453E+03  0.12500000000E+03 0.  0.
         25    1    1    2    0    0 -0.89401761248E+02 -0.10604100981E+03 -0.13622200771E+03  0.23112508747E+03  0.12500000000E+03 0.  0.
</event>
<event>
 5    0  0.5641283E-005  0.7551790E+03  0.7546771E-02  0.9627260E-01
         21   -1    0    0  502  501  0.00000000000E+00  0.00000000000E+00  0.19296138052E+04  0.19296138052E+04  0.00000000000E+00 0. -1.
         21   -1    0    0  501  502 -0.00000000000E+00 -0.00000000000E+00 -0.29554897286E+03  0.29554897286E+03  0.00000000000E+00 0. -1.
         25    1    1    2    0    0 -0.11436031055E+03  0.14097060487E+03  0.38083329686E+03  0.44001135447E+03  0.12500000000E+03 0.  0.
         25    1    1    2    0    0 -0.18690846620E+02 -0.20196779491E+03  0.14734977984E+04  0.14926356220E+04  0.12500000000E+03 0.  0.
         25    1    1    2    0    0  0.13305115717E+03  0.60997190036E+02 -0.22026626294E+03  0.29251580164E+03  0.12500000000E+03 0.  0.
</event>
<event>
 5    0  0.5641283E-005  0.3954807E+03  0.7546771E-02  0.1045356E+00
         21   -1    0    0  502  501  0.00000000000E+00  0.00000000000E+00  0.14675445713E+03  0.14675445713E+03  0.00000000000E+00 0.  1.
         21   -1    0    0  501  502 -0.00000000000E+00 -0.00000000000E+00 -0.10657595493E+04  0.10657595493E+04  0.00000000000E+00 0.  1.
         25    1    1    2    0    0  0.18999498633E+03  0.14306075453E+03 -0.52563912005E+03  0.59032699315E+03  0.12500000000E+03 0.  0.
         25    1    1    2    0    0 -0.27888308072E+03 -0.81198768154E+02 -0.24536929695E+03  0.40025005253E+03  0.12500000000E+03 0.  0.
         25    1    1    2    0    0  0.88888094384E+02 -0.61861986378E+02 -0.14799667515E+03  0.22193696073E+03  0.12500000000E+03 0.  0.
</event>
<event>
 5    0  0.5641283E-005  0.2394602E+03  0.7546771E-02  0.1120153E+00
         21   -1    0    0  502  501  0.00000000000E+00  0.00000000000E+00  0.12468312478E+03  0.12468312478E+03  0.00000000000E+00 0. -1.
         21   -1    0    0  501  502 -0.00000000000E+00 -0.00000000000E+00 -0.45989541226E+03  0.45989541226E+03  0.00000000000E+00 0. -1.
         25    1    1    2    0    0 -0.30444712985E+02  0.66881270647E+02  0.15779891834E+02  0.14585605883E+03  0.12500000000E+03 0.  0.
         25    1    1    2    0    0  0.25415802462E+02 -0.23800000316E+02 -0.19423235970E+03  0.23358855405E+03  0.12500000000E+03 0.  0.
         25    1    1    2    0    0  0.50289105232E+01 -0.43081270330E+02 -0.15675981962E+03  0.20513392416E+03  0.12500000000E+03 0.  0.
</event>
<event>
 5    0  0.5641283E-005  0.2316511E+03  0.7546771E-02  0.1125483E+00
         21   -1    0    0  502  501  0.00000000000E+00  0.00000000000E+00  0.97713100222E+03  0.97713100222E+03  0.00000000000E+00 0.  1.
         21   -1    0    0  501  502 -0.00000000000E+00 -0.00000000000E+00 -0.54918147019E+02  0.54918147019E+02  0.00000000000E+00 0.  1.
         25    1    1    2    0    0 -0.34843284836E+02 -0.20933788078E+02  0.40574770619E+03  0.42650730247E+03  0.12500000000E+03 0.  0.
         25    1    1    2    0    0  0.96103503411E+02  0.64305477890E+02  0.28377941459E+03  0.33094838571E+03  0.12500000000E+03 0.  0.
         25    1    1    2    0    0 -0.61260218575E+02 -0.43371689812E+02  0.23268573442E+03  0.27459346106E+03  0.12500000000E+03 0.  0.
</event>
<event>
 5    0  0.5641283E-005  0.2898731E+03  0.7546771E-02  0.1090415E+00
         21   -1    0    0  502  501  0.00000000000E+00  0.00000000000E+00  0.12103893097E+03  0.12103893097E+03  0.00000000000E+00 0. -1.
         21   -1    0    0  501  502 -0.00000000000E+00 -0.00000000000E+00 -0.69420974386E+03  0.69420974386E+03  0.00000000000E+00 0. -1.
         25    1    1    2    0    0  0.18077602408E+02  0.10817861122E+03 -0.11916945866E+03  0.20458683123E+03  0.12500000000E+03 0.  0.
         25    1    1    2    0    0 -0.14366839212E+03 -0.12060322835E+03 -0.20425451443E+03  0.30418851433E+03  0.12500000000E+03 0.  0.
         25    1    1    2    0    0  0.12559078971E+03  0.12424617138E+02 -0.24974683979E+03  0.30647332927E+03  0.12500000000E+03 0.  0.
</event>
<event>
 5    0  0.5641283E-005  0.4384238E+03  0.7546771E-02  0.1031232E+00
         21   -1    0    0  502  501  0.00000000000E+00  0.00000000000E+00  0.29893812648E+03  0.29893812648E+03  0.00000000000E+00 0. -1.
         21   -1    0    0  501  502 -0.00000000000E+00 -0.00000000000E+00 -0.64299415383E+03  0.64299415383E+03  0.00000000000E+00 0. -1.
         25    1    1    2    0    0  0.14365966094E+03  0.19212356183E+03 -0.41530868984E+03  0.49563683181E+03  0.12500000000E+03 0.  0.
         25    1    1    2    0    0 -0.11584609907E+03 -0.14415382394E+01 -0.61274481855E+02  0.18111311060E+03  0.12500000000E+03 0.  0.
         25    1    1    2    0    0 -0.27813561866E+02 -0.19068202359E+03  0.13252714435E+03  0.26518233790E+03  0.12500000000E+03 0.  0.
</event>
<event>
 5    0  0.5641283E-005  0.2837451E+03  0.7546771E-02  0.1093661E+00
         21   -1    0    0  502  501  0.00000000000E+00  0.00000000000E+00  0.18869105377E+03  0.18869105377E+03  0.00000000000E+00 0. -1.
         21   -1    0    0  501  502 -0.00000000000E+00 -0.00000000000E+00 -0.42668320349E+03  0.42668320349E+03  0.00000000000E+00 0. -1.
         25    1    1    2    0    0 -0.57088474682E+02 -0.12572786167E+02 -0.23034040400E+03  0.26851232860E+03  0.12500000000E+03 0.  0.
         25    1    1    2    0    0  0.27300226136E+02  0.11398766201E+03  0.40790599489E+02  0.17614585560E+03  0.12500000000E+03 0.  0.
         25    1    1    2    0    0  0.29788248546E+02 -0.10141487584E+03 -0.48442345199E+02  0.17071607306E+03  0.12500000000E+03 0.  0.
</event>
<event>
 5    0  0.5641283E-005  0.3076643E+03  0.7546771E-02  0.1081471E+00
         21   -1    0    0  502  501  0.00000000000E+00  0.00000000000E+00  0.17429652480E+03  0.17429652480E+03  0.00000000000E+00 0. -1.
         21   -1    0    0  501  502 -0.00000000000E+00 -0.00000000000E+00 -0.54308216150E+03  0.54308216150E+03  0.00000000000E+00 0. -1.
         25    1    1    2    0    0  0.39774134218E+02 -0.93408419061E+01 -0.97808965691E+02  0.16389272970E+03  0.12500000000E+03 0.  0.
         25    1    1    2    0    0 -0.12691255862E+03 -0.69417162399E+01  0.60536844572E+02  0.18826761408E+03  0.12500000000E+03 0.  0.
         25    1    1    2    0    0  0.87138424398E+02  0.16282558146E+02 -0.33151351558E+03  0.36521834252E+03  0.12500000000E+03 0.  0.
</event>
<event>
 5    0  0.5661332E-005  0.2474430E+03  0.7546771E-02  0.1114932E+00
         21   -1    0    0  502  501  0.00000000000E+00  0.00000000000E+00  0.17403510568E+03  0.17403510568E+03  0.00000000000E+00 0. -1.
         21   -1    0    0  501  502 -0.00000000000E+00 -0.00000000000E+00 -0.35181434752E+03  0.35181434752E+03  0.00000000000E+00 0. -1.
         25    1    1    2    0    0  0.73298112349E+02  0.21936106916E+02 -0.19640604286E+03  0.24505946162E+03  0.12500000000E+03 0.  0.
         25    1    1    2    0    0 -0.35612626830E+02 -0.51995102224E+02 -0.19880210768E+02  0.14139297233E+03  0.12500000000E+03 0.  0.
         25    1    1    2    0    0 -0.37685485520E+02  0.30058995308E+02  0.38507011786E+02  0.13939701925E+03  0.12500000000E+03 0.  0.
</event>
<event>
 5    0  0.5641283E-005  0.2261856E+03  0.7546771E-02  0.1129354E+00
         21   -1    0    0  502  501  0.00000000000E+00  0.00000000000E+00  0.96587708194E+03  0.96587708194E+03  0.00000000000E+00 0. -1.
         21   -1    0    0  501  502 -0.00000000000E+00 -0.00000000000E+00 -0.52967307913E+02  0.52967307913E+02  0.00000000000E+00 0. -1.
         25    1    1    2    0    0  0.62771350290E+02  0.30990234616E+02  0.31132070659E+03  0.34270427399E+03  0.12500000000E+03 0.  0.
         25    1    1    2    0    0  0.19901907019E+02 -0.79634665760E+02  0.32663357199E+03  0.35923843926E+03  0.12500000000E+03 0.  0.
         25    1    1    2    0    0 -0.82673257309E+02  0.48644431144E+02  0.27495549545E+03  0.31690167660E+03  0.12500000000E+03 0.  0.
</event>
<event>
 5    0  0.5641283E-005  0.3688873E+03  0.7546771E-02  0.1055119E+00
         21   -1    0    0  502  501  0.00000000000E+00  0.00000000000E+00  0.84561660750E+03  0.84561660750E+03  0.00000000000E+00 0. -1.
         21   -1    0    0  501  502 -0.00000000000E+00 -0.00000000000E+00 -0.16092142350E+03  0.16092142350E+03  0.00000000000E+00 0. -1.
         25    1    1    2    0    0 -0.17052167990E+02  0.14919034007E+03  0.21769321296E+03  0.29251302360E+03  0.12500000000E+03 0.  0.
         25    1    1    2    0    0 -0.15006486116E+03 -0.15330655815E+03  0.43773511339E+03  0.50324883788E+03  0.12500000000E+03 0.  0.
         25    1    1    2    0    0  0.16711702915E+03  0.41162180825E+01  0.29266857646E+02  0.21077616953E+03  0.12500000000E+03 0.  0.
</event>
<event>
 5    0  0.5641283E-005  0.3242650E+03  0.7546771E-02  0.1073703E+00
         21   -1    0    0  502  501  0.00000000000E+00  0.00000000000E+00  0.11922208403E+04  0.11922208403E+04  0.00000000000E+00 0. -1.
         21   -1    0    0  501  502 -0.00000000000E+00 -0.00000000000E+00 -0.88194884135E+02  0.88194884135E+02  0.00000000000E+00 0. -1.
         25    1    1    2    0    0 -0.78799180453E+02 -0.31931068707E+02  0.18932260270E+03  0.24227453825E+03  0.12500000000E+03 0.  0.
         25    1    1    2    0    0  0.18878755392E+02 -0.17100608809E+03  0.61399326544E+03  0.64977859274E+03  0.12500000000E+03 0.  0.
         25    1    1    2    0    0  0.59920425061E+02  0.20293715680E+03  0.30071008799E+03  0.38836259342E+03  0.12500000000E+03 0.  0.
</event>
<event>
 5    0  0.5641283E-005  0.3827460E+03  0.7546771E-02  0.1049923E+00
         21   -1    0    0  502  501  0.00000000000E+00  0.00000000000E+00  0.11349884999E+03  0.11349884999E+03  0.00000000000E+00 0. -1.
         21   -1    0    0  501  502 -0.00000000000E+00 -0.00000000000E+00 -0.12907132270E+04  0.12907132270E+04  0.00000000000E+00 0. -1.
         25    1    1    2    0    0  0.15631669135E+03  0.19591159509E+03 -0.19223124642E+03  0.33969709034E+03  0.12500000000E+03 0.  0.
         25    1    1    2    0    0 -0.76256245291E+02 -0.15879960508E+03 -0.34942797769E+03  0.41080073163E+03  0.12500000000E+03 0.  0.
         25    1    1    2    0    0 -0.80060446061E+02 -0.37111990012E+02 -0.63555515289E+03  0.65371425500E+03  0.12500000000E+03 0.  0.
</event>
<event>
 5    0  0.5641283E-005  0.3900785E+03  0.7546771E-02  0.1047270E+00
         21   -1    0    0  502  501  0.00000000000E+00  0.00000000000E+00  0.17563982517E+03  0.17563982517E+03  0.00000000000E+00 0. -1.
         21   -1    0    0  501  502 -0.00000000000E+00 -0.00000000000E+00 -0.86632517653E+03  0.86632517653E+03  0.00000000000E+00 0. -1.
         25    1    1    2    0    0 -0.15456167974E+03 -0.39888210409E+02 -0.61159792422E+02  0.21176851131E+03  0.12500000000E+03 0.  0.
         25    1    1    2    0    0  0.22608715445E+03  0.17359414547E+03 -0.23693799140E+03  0.39117124194E+03  0.12500000000E+03 0.  0.
         25    1    1    2    0    0 -0.71525474712E+02 -0.13370593506E+03 -0.39258756753E+03  0.43902524846E+03  0.12500000000E+03 0.  0.
</event>
<event>
 5    0  0.5641283E-005  0.3662707E+03  0.7546771E-02  0.1056128E+00
         21   -1    0    0  502  501  0.00000000000E+00  0.00000000000E+00  0.53076141350E+02  0.53076141350E+02  0.00000000000E+00 0. -1.
         21   -1    0    0  501  502 -0.00000000000E+00 -0.00000000000E+00 -0.25275806218E+04  0.25275806218E+04  0.00000000000E+00 0. -1.
         25    1    1    2    0    0  0.67647708532E+02 -0.13630780111E+03 -0.14351820595E+04  0.14486298952E+04  0.12500000000E+03 0.  0.
         25    1    1    2    0    0  0.12712647948E+03  0.10727796632E+02 -0.32705783986E+03  0.37265004766E+03  0.12500000000E+03 0.  0.
         25    1    1    2    0    0 -0.19477418801E+03  0.12558000448E+03 -0.71226458101E+03  0.75937682030E+03  0.12500000000E+03 0.  0.
</event>
<event>
 5    0  0.5641283E-005  0.2882831E+03  0.7546771E-02  0.1091249E+00
         21   -1    0    0  502  501  0.00000000000E+00  0.00000000000E+00  0.27549746745E+03  0.27549746745E+03  0.00000000000E+00 0. -1.
         21   -1    0    0  501  502 -0.00000000000E+00 -0.00000000000E+00 -0.30166214450E+03  0.30166214450E+03  0.00000000000E+00 0. -1.
         25    1    1    2    0    0  0.42086485762E+02 -0.74205782463E+02 -0.19359107010E+03  0.24572397697E+03  0.12500000000E+03 0.  0.
         25    1    1    2    0    0 -0.86311611744E+01 -0.18451350175E+02  0.80905623379E+02  0.15028529256E+03  0.12500000000E+03 0.  0.
         25    1    1    2    0    0 -0.33455324588E+02  0.92657132638E+02  0.86520769671E+02  0.18115034241E+03  0.12500000000E+03 0.  0.
</event>
<event>
 5    0  0.5641283E-005  0.3189732E+03  0.7546771E-02  0.1076123E+00
         21   -1    0    0  502  501  0.00000000000E+00  0.00000000000E+00  0.19543995402E+03  0.19543995402E+03  0.00000000000E+00 0.  1.
         21   -1    0    0  501  502 -0.00000000000E+00 -0.00000000000E+00 -0.52058922473E+03  0.52058922473E+03  0.00000000000E+00 0.  1.
         25    1    1    2    0    0  0.10724916157E+03  0.10995269741E+03 -0.12283014742E+03  0.23303266603E+03  0.12500000000E+03 0.  0.
         25    1    1    2    0    0 -0.11181246830E+03 -0.39907591035E+02  0.61258598105E+02  0.18295425585E+03  0.12500000000E+03 0.  0.
         25    1    1    2    0    0  0.45633067381E+01 -0.70045106370E+02 -0.26357772139E+03  0.30004225687E+03  0.12500000000E+03 0.  0.
</event>
<event>
 5    0  0.5641283E-005  0.3159181E+03  0.7546771E-02  0.1077543E+00
         21   -1    0    0  502  501  0.00000000000E+00  0.00000000000E+00  0.56888218835E+02  0.56888218835E+02  0.00000000000E+00 0. -1.
         21   -1    0    0  501  502 -0.00000000000E+00 -0.00000000000E+00 -0.17543918789E+04  0.17543918789E+04  0.00000000000E+00 0. -1.
         25    1    1    2    0    0 -0.57136095331E+02  0.13887404989E+03 -0.86811772221E+03  0.88983364442E+03  0.12500000000E+03 0.  0.
         25    1    1    2    0    0 -0.91509487606E+02 -0.10802451827E+03 -0.27836665431E+03  0.33638709414E+03  0.12500000000E+03 0.  0.
         25    1    1    2    0    0  0.14864558294E+03 -0.30849531626E+02 -0.55101928353E+03  0.58505935917E+03  0.12500000000E+03 0.  0.
</event>
<event>
 5    0  0.5641283E-005  0.4288379E+03  0.7546771E-02  0.1034228E+00
         21   -1    0    0  502  501  0.00000000000E+00  0.00000000000E+00  0.31452112547E+03  0.31452112547E+03  0.00000000000E+00 0. -1.
         21   -1    0    0  501  502 -0.00000000000E+00 -0.00000000000E+00 -0.58470447078E+03  0.58470447078E+03  0.00000000000E+00 0. -1.
         25    1    1    2    0    0 -0.51987682507E+02 -0.23745400370E+02  0.11334449779E+03  0.17815313174E+03  0.12500000000E+03 0.  0.
         25    1    1    2    0    0  0.19138157219E+03  0.23440095758E+03 -0.18195014034E+03  0.37456850997E+03  0.12500000000E+03 0.  0.
         25    1    1    2    0    0 -0.13939388968E+03 -0.21065555721E+03 -0.20157770276E+03  0.34650395454E+03  0.12500000000E+03 0.  0.
</event>
<event>
 5    0  0.5641283E-005  0.3375110E+03  0.7546771E-02  0.1067861E+00
         21   -1    0    0  502  501  0.00000000000E+00  0.00000000000E+00  0.54499889505E+02  0.54499889505E+02  0.00000000000E+00 0.  1.
         21   -1    0    0  501  502 -0.00000000000E+00 -0.00000000000E+00 -0.20901634405E+04  0.20901634405E+04  0.00000000000E+00 0.  1.
         25    1    1    2    0    0  0.70557121731E+02 -0.19712793069E+03 -0.89545182867E+03  0.92806072320E+03  0.12500000000E+03 0.  0.
         25    1    1    2    0    0  0.30779492658E+02  0.48969376993E+02 -0.15479003309E+03  0.20719635951E+03  0.12500000000E+03 0.  0.
         25    1    1    2    0    0 -0.10133661439E+03  0.14815855370E+03 -0.98542168924E+03  0.10094062473E+04  0.12500000000E+03 0.  0.
</event>
<event>
 5    0  0.6403059E-005  0.2919221E+03  0.7546771E-02  0.1089350E+00
         21   -1    0    0  502  501  0.00000000000E+00  0.00000000000E+00  0.36189041509E+03  0.36189041509E+03  0.00000000000E+00 0.  1.
         21   -1    0    0  501  502 -0.00000000000E+00 -0.00000000000E+00 -0.23548152239E+03  0.23548152239E+03  0.00000000000E+00 0.  1.
         25    1    1    2    0    0 -0.15407871736E+03 -0.23240228394E+02 -0.20225773074E+02  0.20078456428E+03  0.12500000000E+03 0.  0.
         25    1    1    2    0    0  0.98022872812E+02  0.64951969969E+02 -0.24593204227E+02  0.17336974272E+03  0.12500000000E+03 0.  0.
         25    1    1    2    0    0  0.56055844544E+02 -0.41711741575E+02  0.17122787000E+03  0.22321763048E+03  0.12500000000E+03 0.  0.
</event>
<event>
 5    0  0.5917040E-005  0.5076082E+03  0.7546771E-02  0.1011812E+00
         21   -1    0    0  502  501  0.00000000000E+00  0.00000000000E+00  0.10099794107E+04  0.10099794107E+04  0.00000000000E+00 0. -1.
         21   -1    0    0  501  502 -0.00000000000E+00 -0.00000000000E+00 -0.25512015927E+03  0.25512015927E+03  0.00000000000E+00 0. -1.
         25    1    1    2    0    0 -0.85741842590E+01 -0.20542386162E+03 -0.72690519030E+02  0.25135908799E+03  0.12500000000E+03 0.  0.
         25    1    1    2    0    0 -0.18496096521E+03  0.22975501158E+03  0.30582387171E+03  0.44288956242E+03  0.12500000000E+03 0.  0.
         25    1    1    2    0    0  0.19353514947E+03 -0.24331149953E+02  0.52172589873E+03  0.57085091954E+03  0.12500000000E+03 0.  0.
</event>
<event>
 5    0  0.5641283E-005  0.4742815E+03  0.7546771E-02  0.1020719E+00
         21   -1    0    0  502  501  0.00000000000E+00  0.00000000000E+00  0.10702343255E+04  0.10702343255E+04  0.00000000000E+00 0.  1.
         21   -1    0    0  501  502 -0.00000000000E+00 -0.00000000000E+00 -0.21018101904E+03  0.21018101904E+03  0.00000000000E+00 0.  1.
         25    1    1    2    0    0  0.20969167850E+03  0.15947021956E+03  0.56602514438E+03  0.63671878803E+03  0.12500000000E+03 0.  0.
         25    1    1    2    0    0  0.68711975213E+02 -0.21178807465E+03  0.81081733572E+02  0.26790814026E+03  0.12500000000E+03 0.  0.
         25    1    1    2    0    0 -0.27840365371E+03  0.52317855087E+02  0.21294642847E+03  0.37578841621E+03  0.12500000000E+03 0.  0.
</event>
<event>
 5    0  0.5641283E-005  0.3187383E+03  0.7546771E-02  0.1076231E+00
         21   -1    0    0  502  501  0.00000000000E+00  0.00000000000E+00  0.16078266615E+04  0.16078266615E+04  0.00000000000E+00 0.  1.
         21   -1    0    0  501  502 -0.00000000000E+00 -0.00000000000E+00 -0.63187204634E+02  0.63187204634E+02  0.00000000000E+00 0.  1.
         25    1    1    2    0    0  0.10255876421E+03  0.11944264704E+03  0.47240639653E+03  0.51339813939E+03  0.12500000000E+03 0.  0.
         25    1    1    2    0    0 -0.82356280624E+02 -0.22183656866E+03  0.57120249034E+03  0.63078625946E+03  0.12500000000E+03 0.  0.
         25    1    1    2    0    0 -0.20202483587E+02  0.10239392162E+03  0.50103057004E+03  0.52682946733E+03  0.12500000000E+03 0.  0.
</event>
<event>
 5    0  0.5641283E-005  0.4085310E+03  0.7546771E-02  0.1040865E+00
         21   -1    0    0  502  501  0.00000000000E+00  0.00000000000E+00  0.77278568045E+02  0.77278568045E+02  0.00000000000E+00 0. -1.
         21   -1    0    0  501  502 -0.00000000000E+00 -0.00000000000E+00 -0.21596881460E+04  0.21596881460E+04  0.00000000000E+00 0. -1.
         25    1    1    2    0    0  0.12023055857E+03  0.11693332585E+03 -0.14454625659E+04  0.14605190239E+04  0.12500000000E+03 0.  0.
         25    1    1    2    0    0  0.63645568688E+02  0.60268469485E+02 -0.15973913550E+03  0.22096297934E+03  0.12500000000E+03 0.  0.
         25    1    1    2    0    0 -0.18387612725E+03 -0.17720179534E+03 -0.47720787660E+03  0.55548471080E+03  0.12500000000E+03 0.  0.
</event>
<event>
 5    0  0.5641283E-005  0.3368428E+03  0.7546771E-02  0.1068149E+00
         21   -1    0    0  502  501  0.00000000000E+00  0.00000000000E+00  0.30861458341E+03  0.30861458341E+03  0.00000000000E+00 0. -1.
         21   -1    0    0  501  502 -0.00000000000E+00 -0.00000000000E+00 -0.36765298612E+03  0.36765298612E+03  0.00000000000E+00 0. -1.
         25    1    1    2    0    0 -0.12878870117E+03 -0.87621805577E+02 -0.54504222433E+01  0.19979694058E+03  0.12500000000E+03 0.  0.
         25    1    1    2    0    0  0.73305576876E+01  0.21971590415E+03 -0.76507141409E+01  0.25300661857E+03  0.12500000000E+03 0.  0.
         25    1    1    2    0    0  0.12145814348E+03 -0.13209409857E+03 -0.45937266323E+02  0.22346401038E+03  0.12500000000E+03 0.  0.
</event>
<event>
 5    0  0.5641283E-005  0.2447643E+03  0.7546771E-02  0.1116659E+00
         21   -1    0    0  502  501  0.00000000000E+00  0.00000000000E+00  0.30078330210E+03  0.30078330210E+03  0.00000000000E+00 0. -1.
         21   -1    0    0  501  502 -0.00000000000E+00 -0.00000000000E+00 -0.19917846288E+03  0.19917846288E+03  0.00000000000E+00 0. -1.
         25    1    1    2    0    0  0.97453666668E+02  0.51568115828E+01  0.46214148956E+02  0.16518037842E+03  0.12500000000E+03 0.  0.
         25    1    1    2    0    0 -0.49378937456E+02  0.83459951011E+02  0.71055468458E+02  0.17342930111E+03  0.12500000000E+03 0.  0.
         25    1    1    2    0    0 -0.48074729213E+02 -0.88616762594E+02 -0.15664778196E+02  0.16135208544E+03  0.12500000000E+03 0.  0.
</event>
<event>
 5    0  0.5641283E-005  0.2959072E+03  0.7546771E-02  0.1087305E+00
         21   -1    0    0  502  501  0.00000000000E+00  0.00000000000E+00  0.32380957741E+03  0.32380957741E+03  0.00000000000E+00 0. -1.
         21   -1    0    0  501  502 -0.00000000000E+00 -0.00000000000E+00 -0.27040918975E+03  0.27040918975E+03  0.00000000000E+00 0. -1.
         25    1    1    2    0    0  0.69416039682E+02  0.15721847460E+03  0.61834801926E+01  0.21260167156E+03  0.12500000000E+03 0.  0.
         25    1    1    2    0    0  0.57806316212E+01  0.22205926237E+02  0.76798923473E+02  0.14849105532E+03  0.12500000000E+03 0.  0.
         25    1    1    2    0    0 -0.75196671304E+02 -0.17942440084E+03 -0.29582016009E+02  0.23312604029E+03  0.12500000000E+03 0.  0.
</event>
<event>
 5    0  0.5641283E-005  0.4131672E+03  0.7546771E-02  0.1039313E+00
         21   -1    0    0  502  501  0.00000000000E+00  0.00000000000E+00  0.23044716860E+03  0.23044716860E+03  0.00000000000E+00 0. -1.
         21   -1    0    0  501  502 -0.00000000000E+00 -0.00000000000E+00 -0.74076460082E+03  0.74076460082E+03  0.00000000000E+00 0. -1.
         25    1    1    2    0    0  0.21577986385E+02  0.23365461043E+02 -0.56712813412E+03  0.58161058689E+03  0.12500000000E+03 0.  0.
         25    1    1    2    0    0 -0.12455905152E+03 -0.78972189137E+01  0.12163305770E+03  0.21446893506E+03  0.12500000000E+03 0.  0.
         25    1    1    2    0    0  0.10298106514E+03 -0.15468242129E+02 -0.64822355799E+02  0.17513224747E+03  0.12500000000E+03 0.  0.
</event>
<event>
 5    0  0.5641283E-005  0.2767554E+03  0.7546771E-02  0.1097474E+00
         21   -1    0    0  502  501  0.00000000000E+00  0.00000000000E+00  0.20401587096E+03  0.20401587096E+03  0.00000000000E+00 0. -1.
         21   -1    0    0  501  502 -0.00000000000E+00 -0.00000000000E+00 -0.37542938361E+03  0.37542938361E+03  0.00000000000E+00 0. -1.
         25    1    1    2    0    0  0.97224040680E+00 -0.45694169847E+02 -0.24671099181E+02  0.13536087154E+03  0.12500000000E+03 0.  0.
         25    1    1    2    0    0  0.16960072227E+02  0.34743920878E+02 -0.24896107352E+03  0.28124971150E+03  0.12500000000E+03 0.  0.
         25    1    1    2    0    0 -0.17932312633E+02  0.10950248968E+02  0.10221866006E+03  0.16283467153E+03  0.12500000000E+03 0.  0.
</event>
<event>
 5    0  0.5641283E-005  0.2172376E+03  0.7546771E-02  0.1135959E+00
         21   -1    0    0  502  501  0.00000000000E+00  0.00000000000E+00  0.26576205864E+03  0.26576205864E+03  0.00000000000E+00 0. -1.
         21   -1    0    0  501  502 -0.00000000000E+00 -0.00000000000E+00 -0.17757304115E+03  0.17757304115E+03  0.00000000000E+00 0. -1.
         25    1    1    2    0    0  0.51227168944E+02 -0.18980195777E+01  0.54444931865E+02  0.14566082494E+03  0.12500000000E+03 0.  0.
         25    1    1    2    0    0 -0.68376196535E+02  0.60479001407E+02  0.10980407626E+01  0.15478765958E+03  0.12500000000E+03 0.  0.
         25    1    1    2    0    0  0.17149027591E+02 -0.58580981829E+02  0.32646044869E+02  0.14288661528E+03  0.12500000000E+03 0.  0.
</event>
<event>
 5    0  0.5859612E-005  0.5289805E+03  0.7546771E-02  0.1006480E+00
         21   -1    0    0  502  501  0.00000000000E+00  0.00000000000E+00  0.87338274282E+03  0.87338274282E+03  0.00000000000E+00 0.  1.
         21   -1    0    0  501  502 -0.00000000000E+00 -0.00000000000E+00 -0.32038684432E+03  0.32038684432E+03  0.00000000000E+00 0.  1.
         25    1    1    2    0    0 -0.23100981284E+03  0.19348313925E+03 -0.98210361483E+02  0.34069272652E+03  0.12500000000E+03 0.  0.
         25    1    1    2    0    0  0.14543131095E+03 -0.15119807846E+02  0.57600522361E+03  0.60727744271E+03  0.12500000000E+03 0.  0.
         25    1    1    2    0    0  0.85578501891E+02 -0.17836333140E+03  0.75201036374E+02  0.24579941791E+03  0.12500000000E+03 0.  0.
</event>
<event>
 5    0  0.5641283E-005  0.2534273E+03  0.7546771E-02  0.1111158E+00
         21   -1    0    0  502  501  0.00000000000E+00  0.00000000000E+00  0.12429084784E+03  0.12429084784E+03  0.00000000000E+00 0.  1.
         21   -1    0    0  501  502 -0.00000000000E+00 -0.00000000000E+00 -0.51673465759E+03  0.51673465759E+03  0.00000000000E+00 0.  1.
         25    1    1    2    0    0  0.23189825208E+02  0.89800342177E+02 -0.25147698037E+02  0.15766824717E+03  0.12500000000E+03 0.  0.
         25    1    1    2    0    0  0.96571639821E+01  0.22673105023E+02 -0.23340995856E+03  0.26591829433E+03  0.12500000000E+03 0.  0.
         25    1    1    2    0    0 -0.32846989190E+02 -0.11247344720E+03 -0.13388615316E+03  0.21743896392E+03  0.12500000000E+03 0.  0.
</event>
<event>
 5    0  0.5641283E-005  0.2438137E+03  0.7546771E-02  0.1117278E+00
         21   -1    0    0  502  501  0.00000000000E+00  0.00000000000E+00  0.11351572806E+04  0.11351572806E+04  0.00000000000E+00 0.  1.
         21   -1    0    0  501  502 -0.00000000000E+00 -0.00000000000E+00 -0.52367308294E+02  0.52367308294E+02  0.00000000000E+00 0.  1.
         25    1    1    2    0    0  0.45118572486E+02 -0.46097752377E+02  0.18440410687E+03  0.23192792628E+03  0.12500000000E+03 0.  0.
         25    1    1    2    0    0 -0.10511067943E+03 -0.11886682491E+02  0.59359858826E+03  0.61577092505E+03  0.12500000000E+03 0.  0.
         25    1    1    2    0    0  0.59992106944E+02  0.57984434868E+02  0.30478727715E+03  0.33982573754E+03  0.12500000000E+03 0.  0.
</event>
<event>
 5    0  0.5641283E-005  0.2734825E+03  0.7546771E-02  0.1099303E+00
         21   -1    0    0  502  501  0.00000000000E+00  0.00000000000E+00  0.84107436269E+03  0.84107436269E+03  0.00000000000E+00 0. -1.
         21   -1    0    0  501  502 -0.00000000000E+00 -0.00000000000E+00 -0.88925164807E+02  0.88925164807E+02  0.00000000000E+00 0. -1.
         25    1    1    2    0    0  0.95206816434E+02  0.72323639469E+02  0.43569534769E+03  0.46877551421E+03  0.12500000000E+03 0.  0.
         25    1    1    2    0    0  0.33290244567E+02  0.20693935720E+02  0.15287590558E+03  0.20132690298E+03  0.12500000000E+03 0.  0.
         25    1    1    2    0    0 -0.12849706100E+03 -0.93017575189E+02  0.16357794461E+03  0.25989711030E+03  0.12500000000E+03 0.  0.
</event>
<event>
 5    0  0.5641283E-005  0.4561341E+03  0.7546771E-02  0.1025908E+00
         21   -1    0    0  502  501  0.00000000000E+00  0.00000000000E+00  0.46965074910E+03  0.46965074910E+03  0.00000000000E+00 0.  1.
         21   -1    0    0  501  502 -0.00000000000E+00 -0.00000000000E+00 -0.44300637392E+03  0.44300637392E+03  0.00000000000E+00 0.  1.
         25    1    1    2    0    0  0.33935068645E+02 -0.15305205793E+03 -0.64773673666E+02  0.21070631249E+03  0.12500000000E+03 0.  0.
         25    1    1    2    0    0 -0.24889265052E+03  0.24468145710E+03  0.19322367953E+03  0.41806334121E+03  0.12500000000E+03 0.  0.
         25    1    1    2    0    0  0.21495758188E+03 -0.91629399172E+02 -0.10180563068E+03  0.28388746932E+03  0.12500000000E+03 0.  0.
</event>
<event>
 5    0  0.5641283E-005  0.5279508E+03  0.7546771E-02  0.1006730E+00
         21   -1    0    0  502  501  0.00000000000E+00  0.00000000000E+00  0.54472109076E+03  0.54472109076E+03  0.00000000000E+00 0.  1.
         21   -1    0    0  501  502 -0.00000000000E+00 -0.00000000000E+00 -0.51169680714E+03  0.51169680714E+03  0.00000000000E+00 0.  1.
         25    1    1    2    0    0 -0.24990418646E+02 -0.34908819643E+03 -0.39253570832E+02  0.37370166274E+03  0.12500000000E+03 0.  0.
         25    1    1    2    0    0  0.10529257487E+03  0.30615444805E+03 -0.17683495650E+03  0.38950311196E+03  0.12500000000E+03 0.  0.
         25    1    1    2    0    0 -0.80302156226E+02  0.42933748380E+02  0.24911281096E+03  0.29321312322E+03  0.12500000000E+03 0.  0.
</event>
<event>
 5    0  0.5641283E-005  0.3888198E+03  0.7546771E-02  0.1047721E+00
         21   -1    0    0  502  501  0.00000000000E+00  0.00000000000E+00  0.11044514715E+04  0.11044514715E+04  0.00000000000E+00 0.  1.
         21   -1    0    0  501  502 -0.00000000000E+00 -0.00000000000E+00 -0.13688317973E+03  0.13688317973E+03  0.00000000000E+00 0.  1.
         25    1    1    2    0    0  0.11617129809E+03 -0.17642372967E+02  0.65510112074E+03  0.67719236722E+03  0.12500000000E+03 0.  0.
         25    1    1    2    0    0 -0.23983655244E+03 -0.36990444659E+02  0.12126535934E+03  0.29869742593E+03  0.12500000000E+03 0.  0.
         25    1    1    2    0    0  0.12366525435E+03  0.54632817626E+02  0.19120181174E+03  0.26544485813E+03  0.12500000000E+03 0.  0.
</event>
<event>
 5    0  0.5641283E-005  0.2211387E+03  0.7546771E-02  0.1133037E+00
         21   -1    0    0  502  501  0.00000000000E+00  0.00000000000E+00  0.16512854131E+04  0.16512854131E+04  0.00000000000E+00 0.  1.
         21   -1    0    0  501  502 -0.00000000000E+00 -0.00000000000E+00 -0.29614688246E+02  0.29614688246E+02  0.00000000000E+00 0.  1.
         25    1    1    2    0    0  0.51901469470E+02  0.12970724888E+01  0.52737535618E+03  0.54446782387E+03  0.12500000000E+03 0.  0.
         25    1    1    2    0    0 -0.35404389575E+02  0.73109559719E+02  0.70332131862E+03  0.71894669882E+03  0.12500000000E+03 0.  0.
         25    1    1    2    0    0 -0.16497079896E+02 -0.74406632208E+02  0.39097405005E+03  0.41748557864E+03  0.12500000000E+03 0.  0.
</event>
<event>
 5    0  0.5641283E-005  0.3268723E+03  0.7546771E-02  0.1072529E+00
         21   -1    0    0  502  501  0.00000000000E+00  0.00000000000E+00  0.14803726906E+03  0.14803726906E+03  0.00000000000E+00 0.  1.
         21   -1    0    0  501  502 -0.00000000000E+00 -0.00000000000E+00 -0.72174725384E+03  0.72174725384E+03  0.00000000000E+00 0.  1.
         25    1    1    2    0    0  0.53419680912E+02  0.46035276591E+02 -0.14046508770E+03  0.20081919695E+03  0.12500000000E+03 0.  0.
         25    1    1    2    0    0  0.16193084203E+03  0.92742519986E+02 -0.19565683654E+03  0.29787475607E+03  0.12500000000E+03 0.  0.
         25    1    1    2    0    0 -0.21535052295E+03 -0.13877779658E+03 -0.23758806053E+03  0.37109056990E+03  0.12500000000E+03 0.  0.
</event>
<event>
 5    0  0.5641283E-005  0.3166721E+03  0.7546771E-02  0.1077191E+00
         21   -1    0    0  502  501  0.00000000000E+00  0.00000000000E+00  0.37703050555E+03  0.37703050555E+03  0.00000000000E+00 0. -1.
         21   -1    0    0  501  502 -0.00000000000E+00 -0.00000000000E+00 -0.26597647940E+03  0.26597647940E+03  0.00000000000E+00 0. -1.
         25    1    1    2    0    0  0.26669335915E+02 -0.13020104551E+03 -0.13966653522E+03  0.22977229335E+03  0.12500000000E+03 0.  0.
         25    1    1    2    0    0  0.13415413660E+02  0.14883498331E+03  0.16542402836E+03  0.25558156181E+03  0.12500000000E+03 0.  0.
         25    1    1    2    0    0 -0.40084749574E+02 -0.18633937792E+02  0.85296533016E+02  0.15765312978E+03  0.12500000000E+03 0.  0.
</event>
<event>
 5    0  0.5641283E-005  0.3035420E+03  0.7546771E-02  0.1083483E+00
         21   -1    0    0  502  501  0.00000000000E+00  0.00000000000E+00  0.33857660459E+03  0.33857660459E+03  0.00000000000E+00 0.  1.
         21   -1    0    0  501  502 -0.00000000000E+00 -0.00000000000E+00 -0.27213262061E+03  0.27213262061E+03  0.00000000000E+00 0.  1.
         25    1    1    2    0    0 -0.53138973332E+02 -0.71805178069E+02  0.17353175529E+03  0.23177144815E+03  0.12500000000E+03 0.  0.
         25    1    1    2    0    0  0.14464280606E+03  0.62264048364E+02 -0.22863243556E+02  0.20235137995E+03  0.12500000000E+03 0.  0.
         25    1    1    2    0    0 -0.91503832728E+02  0.95411297049E+01 -0.84224527755E+02  0.17658639709E+03  0.12500000000E+03 0.  0.
</event>
<event>
 5    0  0.5641283E-005  0.3524468E+03  0.7546771E-02  0.1061615E+00
         21   -1    0    0  502  501  0.00000000000E+00  0.00000000000E+00  0.13544818696E+04  0.13544818696E+04  0.00000000000E+00 0.  1.
         21   -1    0    0  501  502 -0.00000000000E+00 -0.00000000000E+00 -0.91709402851E+02  0.91709402851E+02  0.00000000000E+00 0.  1.
         25    1    1    2    0    0 -0.11097118734E+03  0.70377025937E+02  0.19097014425E+03  0.26336690414E+03  0.12500000000E+03 0.  0.
         25    1    1    2    0    0  0.71149088310E+02  0.15417166577E+02  0.56186835761E+02  0.15518325395E+03  0.12500000000E+03 0.  0.
         25    1    1    2    0    0  0.39822099028E+02 -0.85794192515E+02  0.10156154867E+04  0.10276411144E+04  0.12500000000E+03 0.  0.
</event>
<event>
 5    0  0.5641283E-005  0.3181170E+03  0.7546771E-02  0.1076519E+00
         21   -1    0    0  502  501  0.00000000000E+00  0.00000000000E+00  0.18694493880E+04  0.18694493880E+04  0.00000000000E+00 0. -1.
         21   -1    0    0  501  502 -0.00000000000E+00 -0.00000000000E+00 -0.54132728185E+02  0.54132728185E+02  0.00000000000E+00 0. -1.
         25    1    1    2    0    0 -0.30687229783E+02  0.92258121740E+02  0.14389485505E+03  0.21397195239E+03  0.12500000000E+03 0.  0.
         25    1    1    2    0    0 -0.35803988747E+02 -0.50085593212E+02  0.30613781841E+03  0.33635673937E+03  0.12500000000E+03 0.  0.
         25    1    1    2    0    0  0.66491218530E+02 -0.42172528528E+02  0.13652839863E+04  0.13732534244E+04  0.12500000000E+03 0.  0.
</event>
<event>
 5    0  0.5641283E-005  0.3457261E+03  0.7546771E-02  0.1064383E+00
         21   -1    0    0  502  501  0.00000000000E+00  0.00000000000E+00  0.31320985787E+03  0.31320985787E+03  0.00000000000E+00 0. -1.
         21   -1    0    0  501  502 -0.00000000000E+00 -0.00000000000E+00 -0.38161796675E+03  0.38161796675E+03  0.00000000000E+00 0. -1.
         25    1    1    2    0    0 -0.48294930057E+02  0.68687071882E+02  0.16412923973E+03  0.22274137794E+03  0.12500000000E+03 0.  0.
         25    1    1    2    0    0  0.33505096889E+01 -0.10818902044E+03 -0.28035575484E+03  0.32548492950E+03  0.12500000000E+03 0.  0.
         25    1    1    2    0    0  0.44944420368E+02  0.39501948562E+02  0.47818406236E+02  0.14660151717E+03  0.12500000000E+03 0.  0.
</event>
<event>
 5    0  0.5641283E-005  0.2347013E+03  0.7546771E-02  0.1123374E+00
         21   -1    0    0  502  501  0.00000000000E+00  0.00000000000E+00  0.17768041142E+03  0.17768041142E+03  0.00000000000E+00 0. -1.
         21   -1    0    0  501  502 -0.00000000000E+00 -0.00000000000E+00 -0.31002115734E+03  0.31002115734E+03  0.00000000000E+00 0. -1.
         25    1    1    2    0    0 -0.14543679679E+01 -0.60477643191E+02 -0.10537035610E+03  0.17432031568E+03  0.12500000000E+03 0.  0.
         25    1    1    2    0    0 -0.16618767168E+02 -0.28463402164E+02 -0.77656859949E+02  0.15080429895E+03  0.12500000000E+03 0.  0.
         25    1    1    2    0    0  0.18073135136E+02  0.88941045356E+02  0.50686470130E+02  0.16257695414E+03  0.12500000000E+03 0.  0.
</event>
<event>
 5    0  0.5641283E-005  0.2475823E+03  0.7546771E-02  0.1114842E+00
         21   -1    0    0  502  501  0.00000000000E+00  0.00000000000E+00  0.29372110936E+02  0.29372110936E+02  0.00000000000E+00 0.  1.
         21   -1    0    0  501  502 -0.00000000000E+00 -0.00000000000E+00 -0.20869113411E+04  0.20869113411E+04  0.00000000000E+00 0.  1.
         25    1    1    2    0    0  0.77153214551E+02  0.74181300934E+01 -0.95764216465E+03  0.96887107640E+03  0.12500000000E+03 0.  0.
         25    1    1    2    0    0 -0.11604631828E+03  0.56867876224E+02 -0.65445289617E+03  0.67870044691E+03  0.12500000000E+03 0.  0.
         25    1    1    2    0    0  0.38893103726E+02 -0.64286006317E+02 -0.44544416931E+03  0.46871192870E+03  0.12500000000E+03 0.  0.
</event>
<event>
 5    0  0.5641283E-005  0.3270825E+03  0.7546771E-02  0.1072435E+00
         21   -1    0    0  502  501  0.00000000000E+00  0.00000000000E+00  0.10942635785E+03  0.10942635785E+03  0.00000000000E+00 0. -1.
         21   -1    0    0  501  502 -0.00000000000E+00 -0.00000000000E+00 -0.97767099333E+03  0.97767099333E+03  0.00000000000E+00 0. -1.
         25    1    1    2    0    0 -0.90253052921E+02 -0.77091435468E+02 -0.24327579177E+02  0.17408484740E+03  0.12500000000E+03 0.  0.
         25    1    1    2    0    0  0.10468680152E+03  0.20342251554E+02 -0.22334781895E+03  0.27727672431E+03  0.12500000000E+03 0.  0.
         25    1    1    2    0    0 -0.14433748602E+02  0.56749183915E+02 -0.62056923734E+03  0.63573577948E+03  0.12500000000E+03 0.  0.
</event>
<event>
 5    0  0.5810663E-005  0.3000895E+03  0.7546771E-02  0.1085196E+00
         21   -1    0    0  502  501  0.00000000000E+00  0.00000000000E+00  0.38625805072E+03  0.38625805072E+03  0.00000000000E+00 0.  1.
         21   -1    0    0  501  502 -0.00000000000E+00 -0.00000000000E+00 -0.23314382335E+03  0.23314382335E+03  0.00000000000E+00 0.  1.
         25    1    1    2    0    0  0.10289964078E+03  0.11832011043E+03  0.11960208031E+03  0.23349013302E+03  0.12500000000E+03 0.  0.
         25    1    1    2    0    0  0.61247065910E+02 -0.20946095190E+02  0.65988734025E+02  0.15546528553E+03  0.12500000000E+03 0.  0.
         25    1    1    2    0    0 -0.16414670669E+03 -0.97374015239E+02 -0.32476586965E+02  0.23044645552E+03  0.12500000000E+03 0.  0.
</event>
<event>
 5    0  0.5887649E-005  0.2875728E+03  0.7546771E-02  0.1091623E+00
         21   -1    0    0  502  501  0.00000000000E+00  0.00000000000E+00  0.21236247205E+03  0.21236247205E+03  0.00000000000E+00 0. -1.
         21   -1    0    0  501  502 -0.00000000000E+00 -0.00000000000E+00 -0.38941959116E+03  0.38941959116E+03  0.00000000000E+00 0. -1.
         25    1    1    2    0    0 -0.19232564444E+03 -0.23540660982E+01 -0.10283597684E+02  0.22962022454E+03  0.12500000000E+03 0.  0.
         25    1    1    2    0    0  0.65534095170E+02 -0.45525580158E+02 -0.76878918629E+02  0.16704090579E+03  0.12500000000E+03 0.  0.
         25    1    1    2    0    0  0.12679154927E+03  0.47879646256E+02 -0.89894602795E+02  0.20512093288E+03  0.12500000000E+03 0.  0.
</event>
<event>
 5    0  0.5641283E-005  0.2785932E+03  0.7546771E-02  0.1096460E+00
         21   -1    0    0  502  501  0.00000000000E+00  0.00000000000E+00  0.70981346965E+02  0.70981346965E+02  0.00000000000E+00 0. -1.
         21   -1    0    0  501  502 -0.00000000000E+00 -0.00000000000E+00 -0.10934443411E+04  0.10934443411E+04  0.00000000000E+00 0. -1.
         25    1    1    2    0    0  0.33385773355E+01  0.94541128049E+01 -0.96850344838E+02  0.15844720144E+03  0.12500000000E+03 0.  0.
         25    1    1    2    0    0  0.12374804609E+03  0.18483781264E+02 -0.24702318027E+03  0.30381027084E+03  0.12500000000E+03 0.  0.
         25    1    1    2    0    0 -0.12708662343E+03 -0.27937894068E+02 -0.67858946904E+03  0.70216821579E+03  0.12500000000E+03 0.  0.
</event>
<event>
 5    0  0.5641283E-005  0.3767757E+03  0.7546771E-02  0.1052132E+00
         21   -1    0    0  502  501  0.00000000000E+00  0.00000000000E+00  0.32896305952E+03  0.32896305952E+03  0.00000000000E+00 0.  1.
         21   -1    0    0  501  502 -0.00000000000E+00 -0.00000000000E+00 -0.43153749784E+03  0.43153749784E+03  0.00000000000E+00 0.  1.
         25    1    1    2    0    0 -0.64810825520E+02  0.21398601733E+03  0.13193957948E+03  0.28813800747E+03  0.12500000000E+03 0.  0.
         25    1    1    2    0    0  0.18355950423E+02 -0.22552684873E+03 -0.86007297834E+02  0.27243633329E+03  0.12500000000E+03 0.  0.
         25    1    1    2    0    0  0.46454875097E+02  0.11540831400E+02 -0.14850671996E+03  0.19992621660E+03  0.12500000000E+03 0.  0.
</event>
<event>
 5    0  0.5641283E-005  0.2386406E+03  0.7546771E-02  0.1120702E+00
         21   -1    0    0  502  501  0.00000000000E+00  0.00000000000E+00  0.15318254299E+03  0.15318254299E+03  0.00000000000E+00 0.  1.
         21   -1    0    0  501  502 -0.00000000000E+00 -0.00000000000E+00 -0.37177426099E+03  0.37177426099E+03  0.00000000000E+00 0.  1.
         25    1    1    2    0    0 -0.74568380186E+02  0.59432056511E+02 -0.16103462412E+03  0.22505502179E+03  0.12500000000E+03 0.  0.
         25    1    1    2    0    0  0.99712107192E+02 -0.37120276710E+02 -0.21647160261E+02  0.16557179352E+03  0.12500000000E+03 0.  0.
         25    1    1    2    0    0 -0.25143727005E+02 -0.22311779801E+02 -0.35909933616E+02  0.13432998868E+03  0.12500000000E+03 0.  0.
</event>
<event>
 5    0  0.5641283E-005  0.3779202E+03  0.7546771E-02  0.1051705E+00
         21   -1    0    0  502  501  0.00000000000E+00  0.00000000000E+00  0.80948165041E+03  0.80948165041E+03  0.00000000000E+00 0. -1.
         21   -1    0    0  501  502 -0.00000000000E+00 -0.00000000000E+00 -0.17643839720E+03  0.17643839720E+03  0.00000000000E+00 0. -1.
         25    1    1    2    0    0 -0.11361814675E+03  0.74080845495E+02  0.14870316503E+03  0.23692759702E+03  0.12500000000E+03 0.  0.
         25    1    1    2    0    0  0.14174587366E+03 -0.26794287044E+03  0.20959096604E+03  0.38915118857E+03  0.12500000000E+03 0.  0.
         25    1    1    2    0    0 -0.28127726909E+02  0.19386202495E+03  0.27474912213E+03  0.35984126202E+03  0.12500000000E+03 0.  0.
</event>
<event>
 5    0  0.5641283E-005  0.3055566E+03  0.7546771E-02  0.1082495E+00
         21   -1    0    0  502  501  0.00000000000E+00  0.00000000000E+00  0.13744079095E+03  0.13744079095E+03  0.00000000000E+00 0.  1.
         21   -1    0    0  501  502 -0.00000000000E+00 -0.00000000000E+00 -0.67930934274E+03  0.67930934274E+03  0.00000000000E+00 0.  1.
         25    1    1    2    0    0  0.13640096116E+03  0.88378220264E+02 -0.33634097221E+03  0.39391138802E+03  0.12500000000E+03 0.  0.
         25    1    1    2    0    0 -0.12214023123E+03 -0.39188167319E+02 -0.26781864792E+01  0.17912599260E+03  0.12500000000E+03 0.  0.
         25    1    1    2    0    0 -0.14260729930E+02 -0.49190052945E+02 -0.20284939311E+03  0.24371275307E+03  0.12500000000E+03 0.  0.
</event>
<event>
 5    0  0.5641283E-005  0.2712665E+03  0.7546771E-02  0.1100557E+00
         21   -1    0    0  502  501  0.00000000000E+00  0.00000000000E+00  0.14470745974E+03  0.14470745974E+03  0.00000000000E+00 0.  1.
         21   -1    0    0  501  502 -0.00000000000E+00 -0.00000000000E+00 -0.50851231480E+03  0.50851231480E+03  0.00000000000E+00 0.  1.
         25    1    1    2    0    0  0.41446514593E+02  0.16065463312E+03 -0.21467696389E+03  0.29872884618E+03  0.12500000000E+03 0.  0.
         25    1    1    2    0    0 -0.52074593240E+01 -0.14258358190E+03 -0.97886854507E+02  0.21345733004E+03  0.12500000000E+03 0.  0.
         25    1    1    2    0    0 -0.36239055269E+02 -0.18071051219E+02 -0.51241036668E+02  0.14103359833E+03  0.12500000000E+03 0.  0.
</event>
<event>
 5    0  0.5641283E-005  0.2816740E+03  0.7546771E-02  0.1094778E+00
         21   -1    0    0  502  501  0.00000000000E+00  0.00000000000E+00  0.94709237028E+02  0.94709237028E+02  0.00000000000E+00 0. -1.
         21   -1    0    0  501  502 -0.00000000000E+00 -0.00000000000E+00 -0.83772445081E+03  0.83772445081E+03  0.00000000000E+00 0. -1.
         25    1    1    2    0    0  0.13177774773E+03 -0.27494760689E+02 -0.88690644170E+02  0.20399109546E+03  0.12500000000E+03 0.  0.
         25    1    1    2    0    0 -0.92376449344E+02 -0.53992939074E+02 -0.30520231589E+03  0.34673058632E+03  0.12500000000E+03 0.  0.
         25    1    1    2    0    0 -0.39401298390E+02  0.81487699763E+02 -0.34912225372E+03  0.38171200606E+03  0.12500000000E+03 0.  0.
</event>
<event>
 5    0  0.5641283E-005  0.2923258E+03  0.7546771E-02  0.1089141E+00
         21   -1    0    0  502  501  0.00000000000E+00  0.00000000000E+00  0.26359075388E+03  0.26359075388E+03  0.00000000000E+00 0.  1.
         21   -1    0    0  501  502 -0.00000000000E+00 -0.00000000000E+00 -0.32419344896E+03  0.32419344896E+03  0.00000000000E+00 0.  1.
         25    1    1    2    0    0 -0.97199695633E+01 -0.93258963375E+02 -0.49612518088E+01  0.15633721911E+03  0.12500000000E+03 0.  0.
         25    1    1    2    0    0  0.13745027668E+03  0.15147081821E+03 -0.25066342588E+02  0.24101723768E+03  0.12500000000E+03 0.  0.
         25    1    1    2    0    0 -0.12773030712E+03 -0.58211854840E+02 -0.30575100676E+02  0.19042974605E+03  0.12500000000E+03 0.  0.
</event>
<event>
 5    0  0.5641283E-005  0.4820677E+03  0.7546771E-02  0.1018568E+00
         21   -1    0    0  502  501  0.00000000000E+00  0.00000000000E+00  0.33904353972E+03  0.33904353972E+03  0.00000000000E+00 0. -1.
         21   -1    0    0  501  502 -0.00000000000E+00 -0.00000000000E+00 -0.68542596242E+03  0.68542596242E+03  0.00000000000E+00 0. -1.
         25    1    1    2    0    0 -0.35754029787E+03 -0.43114059985E+02 -0.32581980832E+03  0.50147525787E+03  0.12500000000E+03 0.  0.
         25    1    1    2    0    0  0.76442098026E+02  0.57948971710E+02 -0.12140396658E+03  0.19891053460E+03  0.12500000000E+03 0.  0.
         25    1    1    2    0    0  0.28109819984E+03 -0.14834911725E+02  0.10084135220E+03  0.32408370967E+03  0.12500000000E+03 0.  0.
</event>
<event>
 5    0  0.5641283E-005  0.2149575E+03  0.7546771E-02  0.1137699E+00
         21   -1    0    0  502  501  0.00000000000E+00  0.00000000000E+00  0.30919074399E+03  0.30919074399E+03  0.00000000000E+00 0.  1.
         21   -1    0    0  501  502 -0.00000000000E+00 -0.00000000000E+00 -0.14944413079E+03  0.14944413079E+03  0.00000000000E+00 0.  1.
         25    1    1    2    0    0  0.26615574143E+02  0.66984677577E+02  0.70534348972E+02  0.16060955825E+03  0.12500000000E+03 0.  0.
         25    1    1    2    0    0  0.20370988925E+01 -0.40775612136E+02 -0.12737504610E+02  0.13211375530E+03  0.12500000000E+03 0.  0.
         25    1    1    2    0    0 -0.28652673036E+02 -0.26209065441E+02  0.10194976883E+03  0.16591156123E+03  0.12500000000E+03 0.  0.
</event>
<event>
 5    0  0.5641283E-005  0.4134548E+03  0.7546771E-02  0.1039218E+00
         21   -1    0    0  502  501  0.00000000000E+00  0.00000000000E+00  0.35612688423E+03  0.35612688423E+03  0.00000000000E+00 0. -1.
         21   -1    0    0  501  502 -0.00000000000E+00 -0.00000000000E+00 -0.48001124375E+03  0.48001124375E+03  0.00000000000E+00 0. -1.
         25    1    1    2    0    0 -0.12140897767E+03  0.14060860778E+03  0.24419930570E+03  0.33131438445E+03  0.12500000000E+03 0.  0.
         25    1    1    2    0    0  0.56136484362E+02 -0.10722563701E+03 -0.29508583423E+03  0.34256282880E+03  0.12500000000E+03 0.  0.
         25    1    1    2    0    0  0.65272493304E+02 -0.33382970771E+02 -0.72997830984E+02  0.16226091473E+03  0.12500000000E+03 0.  0.
</event>
<event>
 5    0  0.5641283E-005  0.3311271E+03  0.7546771E-02  0.1070639E+00
         21   -1    0    0  502  501  0.00000000000E+00  0.00000000000E+00  0.26400923341E+03  0.26400923341E+03  0.00000000000E+00 0.  1.
         21   -1    0    0  501  502 -0.00000000000E+00 -0.00000000000E+00 -0.41530812516E+03  0.41530812516E+03  0.00000000000E+00 0.  1.
         25    1    1    2    0    0 -0.15901538111E+03 -0.13615346417E+03  0.39618484102E+02  0.24701878778E+03  0.12500000000E+03 0.  0.
         25    1    1    2    0    0 -0.15823087188E+02 -0.12369400863E+02 -0.62857554439E+02  0.14134866224E+03  0.12500000000E+03 0.  0.
         25    1    1    2    0    0  0.17483846829E+03  0.14852286503E+03 -0.12805982141E+03  0.29094990856E+03  0.12500000000E+03 0.  0.
</event>
<event>
 5    0  0.5641283E-005  0.3352280E+03  0.7546771E-02  0.1068847E+00
         21   -1    0    0  502  501  0.00000000000E+00  0.00000000000E+00  0.53830838758E+02  0.53830838758E+02  0.00000000000E+00 0.  1.
         21   -1    0    0  501  502 -0.00000000000E+00 -0.00000000000E+00 -0.20876098851E+04  0.20876098851E+04  0.00000000000E+00 0.  1.
         25    1    1    2    0    0 -0.86625271058E+02 -0.49434220838E+02 -0.28476934350E+03  0.32659800791E+03  0.12500000000E+03 0.  0.
         25    1    1    2    0    0  0.94652415582E+02  0.14559122256E+03 -0.37466978202E+03  0.43146069279E+03  0.12500000000E+03 0.  0.
         25    1    1    2    0    0 -0.80271445238E+01 -0.96157001717E+02 -0.13743399208E+04  0.13833820232E+04  0.12500000000E+03 0.  0.
</event>
<event>
 5    0  0.5641283E-005  0.5111096E+03  0.7546771E-02  0.1010919E+00
         21   -1    0    0  502  501  0.00000000000E+00  0.00000000000E+00  0.73200495997E+03  0.73200495997E+03  0.00000000000E+00 0.  1.
         21   -1    0    0  501  502 -0.00000000000E+00 -0.00000000000E+00 -0.35687332520E+03  0.35687332520E+03  0.00000000000E+00 0.  1.
         25    1    1    2    0    0 -0.25572972034E+03  0.93633271583E+02  0.44862465832E+02  0.30298930716E+03  0.12500000000E+03 0.  0.
         25    1    1    2    0    0  0.34954146393E+03 -0.39020635945E+01  0.43938056421E+03  0.57521712536E+03  0.12500000000E+03 0.  0.
         25    1    1    2    0    0 -0.93811743593E+02 -0.89731207989E+02 -0.10911139527E+03  0.21067185265E+03  0.12500000000E+03 0.  0.
</event>
<event>
 5    0  0.5641283E-005  0.4107466E+03  0.7546771E-02  0.1040121E+00
         21   -1    0    0  502  501  0.00000000000E+00  0.00000000000E+00  0.44290519676E+03  0.44290519676E+03  0.00000000000E+00 0. -1.
         21   -1    0    0  501  502 -0.00000000000E+00 -0.00000000000E+00 -0.38092300779E+03  0.38092300779E+03  0.00000000000E+00 0. -1.
         25    1    1    2    0    0 -0.13668133609E+03  0.16365409947E+03 -0.77368768716E+02  0.25898914704E+03  0.12500000000E+03 0.  0.
         25    1    1    2    0    0  0.26234760198E+03 -0.42927968947E+02 -0.24751413985E+02  0.29479943568E+03  0.12500000000E+03 0.  0.
         25    1    1    2    0    0 -0.12566626589E+03 -0.12072613053E+03  0.16410237168E+03  0.27003962184E+03  0.12500000000E+03 0.  0.
</event>
<event>
 5    0  0.5641283E-005  0.3366942E+03  0.7546771E-02  0.1068213E+00
         21   -1    0    0  502  501  0.00000000000E+00  0.00000000000E+00  0.37990188976E+03  0.37990188976E+03  0.00000000000E+00 0.  1.
         21   -1    0    0  501  502 -0.00000000000E+00 -0.00000000000E+00 -0.29840067719E+03  0.29840067719E+03  0.00000000000E+00 0.  1.
         25    1    1    2    0    0 -0.90851006919E+02  0.17419050695E+02  0.50286821598E+02  0.16343528754E+03  0.12500000000E+03 0.  0.
         25    1    1    2    0    0 -0.39873093815E+02  0.12220076617E+03  0.17037400526E+03  0.24733619333E+03  0.12500000000E+03 0.  0.
         25    1    1    2    0    0  0.13072410073E+03 -0.13961981686E+03 -0.13915961429E+03  0.26753108609E+03  0.12500000000E+03 0.  0.
</event>
<event>
 5    0  0.5641283E-005  0.2923472E+03  0.7546771E-02  0.1089130E+00
         21   -1    0    0  502  501  0.00000000000E+00  0.00000000000E+00  0.45806840556E+02  0.45806840556E+02  0.00000000000E+00 0.  1.
         21   -1    0    0  501  502 -0.00000000000E+00 -0.00000000000E+00 -0.18658101605E+04  0.18658101605E+04  0.00000000000E+00 0.  1.
         25    1    1    2    0    0  0.99813052702E+01  0.13278350132E+03 -0.78622393132E+03  0.80715807303E+03  0.12500000000E+03 0.  0.
         25    1    1    2    0    0  0.50744127851E+02 -0.19119138802E+03 -0.70374468270E+03  0.74162705708E+03  0.12500000000E+03 0.  0.
         25    1    1    2    0    0 -0.60725433121E+02  0.58407886701E+02 -0.33003470589E+03  0.36283187091E+03  0.12500000000E+03 0.  0.
</event>
<event>
 5    0  0.5641283E-005  0.2476768E+03  0.7546771E-02  0.1114782E+00
         21   -1    0    0  502  501  0.00000000000E+00  0.00000000000E+00  0.87798182119E+03  0.87798182119E+03  0.00000000000E+00 0. -1.
         21   -1    0    0  501  502 -0.00000000000E+00 -0.00000000000E+00 -0.69869109820E+02  0.69869109820E+02  0.00000000000E+00 0. -1.
         25    1    1    2    0    0  0.66126850799E+02  0.50180557783E+02  0.13448570562E+03  0.20150000941E+03  0.12500000000E+03 0.  0.
         25    1    1    2    0    0 -0.90369237449E+02  0.46755479406E+02  0.32677140679E+03  0.36435865055E+03  0.12500000000E+03 0.  0.
         25    1    1    2    0    0  0.24242386651E+02 -0.96936037190E+02  0.34685559895E+03  0.38199227105E+03  0.12500000000E+03 0.  0.
</event>
<event>
 5    0  0.5641283E-005  0.3759818E+03  0.7546771E-02  0.1052429E+00
         21   -1    0    0  502  501  0.00000000000E+00  0.00000000000E+00  0.15979503140E+03  0.15979503140E+03  0.00000000000E+00 0.  1.
         21   -1    0    0  501  502 -0.00000000000E+00 -0.00000000000E+00 -0.88464777685E+03  0.88464777685E+03  0.00000000000E+00 0.  1.
         25    1    1    2    0    0  0.17415328563E+03  0.55715064474E+02 -0.21205549560E+03  0.30663670445E+03  0.12500000000E+03 0.  0.
         25    1    1    2    0    0 -0.26657002588E+02 -0.16342074250E+03 -0.33865565416E+02  0.21021134933E+03  0.12500000000E+03 0.  0.
         25    1    1    2    0    0 -0.14749628304E+03  0.10770567803E+03 -0.47893168443E+03  0.52759475446E+03  0.12500000000E+03 0.  0.
</event>
<event>
 5    0  0.5641283E-005  0.2157748E+03  0.7546771E-02  0.1137073E+00
         21   -1    0    0  502  501  0.00000000000E+00  0.00000000000E+00  0.30700518253E+02  0.30700518253E+02  0.00000000000E+00 0. -1.
         21   -1    0    0  501  502 -0.00000000000E+00 -0.00000000000E+00 -0.15165462368E+04  0.15165462368E+04  0.00000000000E+00 0. -1.
         25    1    1    2    0    0 -0.64280005612E+02  0.30991218441E+02 -0.46981913149E+03  0.49137296532E+03  0.12500000000E+03 0.  0.
         25    1    1    2    0    0  0.14003507032E+02 -0.51402648562E+02 -0.33802073329E+03  0.36430941056E+03  0.12500000000E+03 0.  0.
         25    1    1    2    0    0  0.50276498580E+02  0.20411430121E+02 -0.67800585382E+03  0.69156437922E+03  0.12500000000E+03 0.  0.
</event>
<event>
 5    0  0.5641283E-005  0.2938748E+03  0.7546771E-02  0.1088343E+00
         21   -1    0    0  502  501  0.00000000000E+00  0.00000000000E+00  0.21904167291E+03  0.21904167291E+03  0.00000000000E+00 0. -1.
         21   -1    0    0  501  502 -0.00000000000E+00 -0.00000000000E+00 -0.39427382171E+03  0.39427382171E+03  0.00000000000E+00 0. -1.
         25    1    1    2    0    0 -0.69712408725E+02 -0.76508385066E+01 -0.26207534319E+02  0.14570583418E+03  0.12500000000E+03 0.  0.
         25    1    1    2    0    0 -0.10492348718E+03 -0.82407738437E+02 -0.14720582740E+03  0.23472223827E+03  0.12500000000E+03 0.  0.
         25    1    1    2    0    0  0.17463589590E+03  0.90058576944E+02 -0.18187870789E+01  0.23288742217E+03  0.12500000000E+03 0.  0.
</event>
<event>
 5    0  0.5641283E-005  0.2878083E+03  0.7546771E-02  0.1091499E+00
         21   -1    0    0  502  501  0.00000000000E+00  0.00000000000E+00  0.49474789691E+02  0.49474789691E+02  0.00000000000E+00 0.  1.
         21   -1    0    0  501  502 -0.00000000000E+00 -0.00000000000E+00 -0.16742595219E+04  0.16742595219E+04  0.00000000000E+00 0.  1.
         25    1    1    2    0    0 -0.99893650746E+02  0.67373869129E+02 -0.78320072839E+03  0.80221341341E+03  0.12500000000E+03 0.  0.
         25    1    1    2    0    0  0.66972054409E+02 -0.11542499752E+03 -0.70153465180E+03  0.72497176069E+03  0.12500000000E+03 0.  0.
         25    1    1    2    0    0  0.32921596337E+02  0.48051128392E+02 -0.14004935200E+03  0.19654913747E+03  0.12500000000E+03 0.  0.
</event>
<event>
 5    0  0.5641283E-005  0.2140056E+03  0.7546771E-02  0.1138433E+00
         21   -1    0    0  502  501  0.00000000000E+00  0.00000000000E+00  0.24265314604E+03  0.24265314604E+03  0.00000000000E+00 0.  1.
         21   -1    0    0  501  502 -0.00000000000E+00 -0.00000000000E+00 -0.18874011939E+03  0.18874011939E+03  0.00000000000E+00 0.  1.
         25    1    1    2    0    0 -0.47485295947E+02  0.30901431376E+02 -0.58008800929E+02  0.14899588175E+03  0.12500000000E+03 0.  0.
         25    1    1    2    0    0  0.41583768467E+02 -0.16136799924E+02  0.48264610716E+02  0.14122350640E+03  0.12500000000E+03 0.  0.
         25    1    1    2    0    0  0.59015274806E+01 -0.14764631452E+02  0.63657216866E+02  0.14117387728E+03  0.12500000000E+03 0.  0.
</event>
<event>
 5    0  0.7276375E-005  0.2684726E+03  0.7546771E-02  0.1102157E+00
         21   -1    0    0  502  501  0.00000000000E+00  0.00000000000E+00  0.35802690115E+03  0.35802690115E+03  0.00000000000E+00 0. -1.
         21   -1    0    0  501  502 -0.00000000000E+00 -0.00000000000E+00 -0.20131875256E+03  0.20131875256E+03  0.00000000000E+00 0. -1.
         25    1    1    2    0    0 -0.11469920406E+03  0.95312806525E+02  0.11118995612E+03  0.22411748000E+03  0.12500000000E+03 0.  0.
         25    1    1    2    0    0  0.62718956403E+02 -0.56732065558E+02  0.10348520548E+03  0.18299284825E+03  0.12500000000E+03 0.  0.
         25    1    1    2    0    0  0.51980247660E+02 -0.38580740967E+02 -0.57967013012E+02  0.15223532546E+03  0.12500000000E+03 0.  0.
</event>
<event>
 5    0  0.5641283E-005  0.2532743E+03  0.7546771E-02  0.1111253E+00
         21   -1    0    0  502  501  0.00000000000E+00  0.00000000000E+00  0.15132621658E+03  0.15132621658E+03  0.00000000000E+00 0. -1.
         21   -1    0    0  501  502 -0.00000000000E+00 -0.00000000000E+00 -0.42390464473E+03  0.42390464473E+03  0.00000000000E+00 0. -1.
         25    1    1    2    0    0  0.12210006402E+03  0.53795726545E+02 -0.15376648581E+03  0.23889650057E+03  0.12500000000E+03 0.  0.
         25    1    1    2    0    0 -0.12970987722E+03 -0.52233020515E+01 -0.72565773424E+02  0.19427487384E+03  0.12500000000E+03 0.  0.
         25    1    1    2    0    0  0.76098132052E+01 -0.48572424493E+02 -0.46246168920E+02  0.14205948690E+03  0.12500000000E+03 0.  0.
</event>
<event>
 5    0  0.5641283E-005  0.3692986E+03  0.7546771E-02  0.1054961E+00
         21   -1    0    0  502  501  0.00000000000E+00  0.00000000000E+00  0.49184511700E+03  0.49184511700E+03  0.00000000000E+00 0. -1.
         21   -1    0    0  501  502 -0.00000000000E+00 -0.00000000000E+00 -0.27728542655E+03  0.27728542655E+03  0.00000000000E+00 0. -1.
         25    1    1    2    0    0  0.44872712997E+02 -0.47713092590E+02 -0.12986548024E+03  0.19178149685E+03  0.12500000000E+03 0.  0.
         25    1    1    2    0    0  0.13628958265E+03 -0.23119139515E+02  0.28170445174E+03  0.33777469278E+03  0.12500000000E+03 0.  0.
         25    1    1    2    0    0 -0.18116229565E+03  0.70832232105E+02  0.62720718955E+02  0.23957435392E+03  0.12500000000E+03 0.  0.
</event>
<event>
 5    0  0.5641283E-005  0.4950689E+03  0.7546771E-02  0.1015074E+00
         21   -1    0    0  502  501  0.00000000000E+00  0.00000000000E+00  0.31900131498E+04  0.31900131498E+04  0.00000000000E+00 0. -1.
         21   -1    0    0  501  502 -0.00000000000E+00 -0.00000000000E+00 -0.76831404936E+02  0.76831404936E+02  0.00000000000E+00 0. -1.
         25    1    1    2    0    0 -0.22094477982E+03 -0.91928864945E+02  0.12216572668E+04  0.12511350804E+04  0.12500000000E+03 0.  0.
         25    1    1    2    0    0 -0.19892735912E+02  0.76696073427E+02  0.52990317862E+02  0.15719727227E+03  0.12500000000E+03 0.  0.
         25    1    1    2    0    0  0.24083751573E+03  0.15232791517E+02  0.18385341602E+04  0.18585122020E+04  0.12500000000E+03 0.  0.
</event>
<event>
 5    0  0.5641283E-005  0.2668120E+03  0.7546771E-02  0.1103118E+00
         21   -1    0    0  502  501  0.00000000000E+00  0.00000000000E+00  0.14762787201E+03  0.14762787201E+03  0.00000000000E+00 0. -1.
         21   -1    0    0  501  502 -0.00000000000E+00 -0.00000000000E+00 -0.48221672585E+03  0.48221672585E+03  0.00000000000E+00 0. -1.
         25    1    1    2    0    0  0.88970325475E+02  0.99918278638E+01 -0.16531900337E+02  0.15464106559E+03  0.12500000000E+03 0.  0.
         25    1    1    2    0    0  0.57138397909E+02  0.16334322729E+02 -0.21436066716E+03  0.25516093400E+03  0.12500000000E+03 0.  0.
         25    1    1    2    0    0 -0.14610872338E+03 -0.26326150593E+02 -0.10369628634E+03  0.22004259827E+03  0.12500000000E+03 0.  0.
</event>
<event>
 5    0  0.6664409E-005  0.3514995E+03  0.7546771E-02  0.1062001E+00
         21   -1    0    0  502  501  0.00000000000E+00  0.00000000000E+00  0.60131390312E+03  0.60131390312E+03  0.00000000000E+00 0.  1.
         21   -1    0    0  501  502 -0.00000000000E+00 -0.00000000000E+00 -0.20546993318E+03  0.20546993318E+03  0.00000000000E+00 0.  1.
         25    1    1    2    0    0 -0.20643355303E+03  0.10898828534E+03  0.16325143898E+02  0.26530127870E+03  0.12500000000E+03 0.  0.
         25    1    1    2    0    0  0.10389828232E+03 -0.14154098624E+03  0.16801701323E+03  0.27328267524E+03  0.12500000000E+03 0.  0.
         25    1    1    2    0    0  0.10253527071E+03  0.32552700900E+02  0.21150181281E+03  0.26819988236E+03  0.12500000000E+03 0.  0.
</event>
<event>
 5    0  0.5641283E-005  0.2414105E+03  0.7546771E-02  0.1118857E+00
         21   -1    0    0  502  501  0.00000000000E+00  0.00000000000E+00  0.61073333100E+02  0.61073333100E+02  0.00000000000E+00 0. -1.
         21   -1    0    0  501  502 -0.00000000000E+00 -0.00000000000E+00 -0.95424662132E+03  0.95424662132E+03  0.00000000000E+00 0. -1.
         25    1    1    2    0    0  0.20176558985E+02 -0.11047534267E+03 -0.47998055285E+03  0.50854520545E+03  0.12500000000E+03 0.  0.
         25    1    1    2    0    0 -0.48969437445E+02  0.47516730327E+02 -0.26544214484E+03  0.30123143548E+03  0.12500000000E+03 0.  0.
         25    1    1    2    0    0  0.28792878460E+02  0.62958612344E+02 -0.14775059052E+03  0.20554331349E+03  0.12500000000E+03 0.  0.
</event>
<event>
 5    0  0.5641283E-005  0.2354215E+03  0.7546771E-02  0.1122881E+00
         21   -1    0    0  502  501  0.00000000000E+00  0.00000000000E+00  0.99907633354E+02  0.99907633354E+02  0.00000000000E+00 0.  1.
         21   -1    0    0  501  502 -0.00000000000E+00 -0.00000000000E+00 -0.55474503225E+03  0.55474503225E+03  0.00000000000E+00 0.  1.
         25    1    1    2    0    0 -0.83591498983E+01 -0.70424134537E+02 -0.11573066933E+03  0.18452106095E+03  0.12500000000E+03 0.  0.
         25    1    1    2    0    0 -0.65729176713E+01 -0.91722335590E+01 -0.28544337943E+03  0.31181766463E+03  0.12500000000E+03 0.  0.
         25    1    1    2    0    0  0.14932067570E+02  0.79596368097E+02 -0.53663350135E+02  0.15831394002E+03  0.12500000000E+03 0.  0.
</event>
<event>
 5    0  0.5641283E-005  0.3653208E+03  0.7546771E-02  0.1056497E+00
         21   -1    0    0  502  501  0.00000000000E+00  0.00000000000E+00  0.21167190400E+03  0.21167190400E+03  0.00000000000E+00 0. -1.
         21   -1    0    0  501  502 -0.00000000000E+00 -0.00000000000E+00 -0.63050068305E+03  0.63050068305E+03  0.00000000000E+00 0. -1.
         25    1    1    2    0    0 -0.70146351871E+02  0.17436583417E+03 -0.81400220110E+02  0.23994780816E+03  0.12500000000E+03 0.  0.
         25    1    1    2    0    0  0.17820468801E+02  0.35338471687E+02  0.50822632139E+02  0.14062118129E+03  0.12500000000E+03 0.  0.
         25    1    1    2    0    0  0.52325883070E+02 -0.20970430586E+03 -0.38825119108E+03  0.46160359759E+03  0.12500000000E+03 0.  0.
</event>
<event>
 5    0  0.5641283E-005  0.2470539E+03  0.7546771E-02  0.1115181E+00
         21   -1    0    0  502  501  0.00000000000E+00  0.00000000000E+00  0.85155244016E+03  0.85155244016E+03  0.00000000000E+00 0.  1.
         21   -1    0    0  501  502 -0.00000000000E+00 -0.00000000000E+00 -0.71675708574E+02  0.71675708574E+02  0.00000000000E+00 0.  1.
         25    1    1    2    0    0  0.93423578570E+02  0.45878406131E+02  0.16479739194E+03  0.23155123315E+03  0.12500000000E+03 0.  0.
         25    1    1    2    0    0  0.14824706466E+02  0.28399224038E+02  0.19127590676E+03  0.23073309332E+03  0.12500000000E+03 0.  0.
         25    1    1    2    0    0 -0.10824828504E+03 -0.74277630170E+02  0.42380343288E+03  0.46094382226E+03  0.12500000000E+03 0.  0.
</event>
<event>
 5    0  0.5641283E-005  0.2763730E+03  0.7546771E-02  0.1097687E+00
         21   -1    0    0  502  501  0.00000000000E+00  0.00000000000E+00  0.23955418098E+03  0.23955418098E+03  0.00000000000E+00 0. -1.
         21   -1    0    0  501  502 -0.00000000000E+00 -0.00000000000E+00 -0.31885071066E+03  0.31885071066E+03  0.00000000000E+00 0. -1.
         25    1    1    2    0    0  0.49567172998E+02  0.71147300153E+02 -0.17799284502E+03  0.23414802121E+03  0.12500000000E+03 0.  0.
         25    1    1    2    0    0 -0.56198666460E+02 -0.31151931329E+02  0.12745951353E+03  0.18973576502E+03  0.12500000000E+03 0.  0.
         25    1    1    2    0    0  0.66314934621E+01 -0.39995368824E+02 -0.28763198180E+02  0.13452110542E+03  0.12500000000E+03 0.  0.
</event>
<event>
 5    0  0.5641283E-005  0.2509913E+03  0.7546771E-02  0.1112680E+00
         21   -1    0    0  502  501  0.00000000000E+00  0.00000000000E+00  0.33508538160E+03  0.33508538160E+03  0.00000000000E+00 0. -1.
         21   -1    0    0  501  502 -0.00000000000E+00 -0.00000000000E+00 -0.18800172801E+03  0.18800172801E+03  0.00000000000E+00 0. -1.
         25    1    1    2    0    0  0.88255103040E+02  0.53112759775E+01  0.25072122113E+02  0.15514762058E+03  0.12500000000E+03 0.  0.
         25    1    1    2    0    0  0.33805272103E+01 -0.44812222295E+02  0.15551562142E+03  0.20452303473E+03  0.12500000000E+03 0.  0.
         25    1    1    2    0    0 -0.91635630250E+02  0.39500946317E+02 -0.33504089946E+02  0.16341645430E+03  0.12500000000E+03 0.  0.
</event>
<event>
 5    0  0.5641283E-005  0.2738622E+03  0.7546771E-02  0.1099089E+00
         21   -1    0    0  502  501  0.00000000000E+00  0.00000000000E+00  0.45568511731E+03  0.45568511731E+03  0.00000000000E+00 0. -1.
         21   -1    0    0  501  502 -0.00000000000E+00 -0.00000000000E+00 -0.16458848995E+03  0.16458848995E+03  0.00000000000E+00 0. -1.
         25    1    1    2    0    0 -0.32160584962E+02  0.40469119552E+02 -0.32317905788E+02  0.13907372109E+03  0.12500000000E+03 0.  0.
         25    1    1    2    0    0  0.13498901290E+03 -0.13765041258E+02  0.12088814878E+03  0.22056848025E+03  0.12500000000E+03 0.  0.
         25    1    1    2    0    0 -0.10282842793E+03 -0.26704078293E+02  0.20252638438E+03  0.26063140593E+03  0.12500000000E+03 0.  0.
</event>
<event>
 5    0  0.5641283E-005  0.3383723E+03  0.7546771E-02  0.1067491E+00
         21   -1    0    0  502  501  0.00000000000E+00  0.00000000000E+00  0.86363992038E+03  0.86363992038E+03  0.00000000000E+00 0. -1.
         21   -1    0    0  501  502 -0.00000000000E+00 -0.00000000000E+00 -0.13257352363E+03  0.13257352363E+03  0.00000000000E+00 0. -1.
         25    1    1    2    0    0 -0.62553692899E+01 -0.53028324284E+02  0.77945888313E+02  0.15668980288E+03  0.12500000000E+03 0.  0.
         25    1    1    2    0    0 -0.25199582157E+02  0.13116152919E+02  0.68825417354E+03  0.70008989409E+03  0.12500000000E+03 0.  0.
         25    1    1    2    0    0  0.31454951447E+02  0.39912171364E+02 -0.35133665103E+02  0.13943374705E+03  0.12500000000E+03 0.  0.
</event>
<event>
 5    0  0.5641283E-005  0.3214827E+03  0.7546771E-02  0.1074969E+00
         21   -1    0    0  502  501  0.00000000000E+00  0.00000000000E+00  0.10103446361E+04  0.10103446361E+04  0.00000000000E+00 0. -1.
         21   -1    0    0  501  502 -0.00000000000E+00 -0.00000000000E+00 -0.10229295200E+03  0.10229295200E+03  0.00000000000E+00 0. -1.
         25    1    1    2    0    0  0.14266440475E+03  0.24469956890E+02  0.10082255277E+03  0.21619920981E+03  0.12500000000E+03 0.  0.
         25    1    1    2    0    0 -0.11086916680E+03 -0.92233349953E+02  0.21926281220E+03  0.29068908443E+03  0.12500000000E+03 0.  0.
         25    1    1    2    0    0 -0.31795237950E+02  0.67763393062E+02  0.58796631908E+03  0.60574929383E+03  0.12500000000E+03 0.  0.
</event>
<event>
 5    0  0.5641283E-005  0.3574435E+03  0.7546771E-02  0.1059601E+00
         21   -1    0    0  502  501  0.00000000000E+00  0.00000000000E+00  0.11440085762E+03  0.11440085762E+03  0.00000000000E+00 0. -1.
         21   -1    0    0  501  502 -0.00000000000E+00 -0.00000000000E+00 -0.11168260355E+04  0.11168260355E+04  0.00000000000E+00 0. -1.
         25    1    1    2    0    0  0.22341298255E+03 -0.13104408726E+03 -0.45309527135E+03  0.53666212695E+03  0.12500000000E+03 0.  0.
         25    1    1    2    0    0 -0.12871826521E+03  0.13686132458E+03 -0.16535930575E+03  0.27976439009E+03  0.12500000000E+03 0.  0.
         25    1    1    2    0    0 -0.94694717339E+02 -0.58172373167E+01 -0.38397060080E+03  0.41480037611E+03  0.12500000000E+03 0.  0.
</event>
<event>
 5    0  0.5641283E-005  0.2979615E+03  0.7546771E-02  0.1086264E+00
         21   -1    0    0  502  501  0.00000000000E+00  0.00000000000E+00  0.76377097413E+03  0.76377097413E+03  0.00000000000E+00 0. -1.
         21   -1    0    0  501  502 -0.00000000000E+00 -0.00000000000E+00 -0.11624038209E+03  0.11624038209E+03  0.00000000000E+00 0. -1.
         25    1    1    2    0    0  0.20070714853E+02 -0.12839567692E+01  0.29725423154E+03  0.32309373300E+03  0.12500000000E+03 0.  0.
         25    1    1    2    0    0  0.19419883350E+02 -0.17194743181E+03  0.14518693420E+03  0.25816137789E+03  0.12500000000E+03 0.  0.
         25    1    1    2    0    0 -0.39490598203E+02  0.17323138858E+03  0.20508942631E+03  0.29875624532E+03  0.12500000000E+03 0.  0.
</event>
<event>
 5    0  0.5641283E-005  0.3281391E+03  0.7546771E-02  0.1071963E+00
         21   -1    0    0  502  501  0.00000000000E+00  0.00000000000E+00  0.56940344385E+03  0.56940344385E+03  0.00000000000E+00 0.  1.
         21   -1    0    0  501  502 -0.00000000000E+00 -0.00000000000E+00 -0.18910184805E+03  0.18910184805E+03  0.00000000000E+00 0.  1.
         25    1    1    2    0    0  0.82481522248E+02  0.19480277974E+02 -0.47117498740E+02  0.15820158479E+03  0.12500000000E+03 0.  0.
         25    1    1    2    0    0 -0.94579532699E+02 -0.50686443157E+02  0.44044564422E+03  0.47024649817E+03  0.12500000000E+03 0.  0.
         25    1    1    2    0    0  0.12098010451E+02  0.31206165183E+02 -0.13026549678E+02  0.13005720895E+03  0.12500000000E+03 0.  0.
</event>
<event>
 5    0  0.5641283E-005  0.2206596E+03  0.7546771E-02  0.1133392E+00
         21   -1    0    0  502  501  0.00000000000E+00  0.00000000000E+00  0.44028890548E+03  0.44028890548E+03  0.00000000000E+00 0. -1.
         21   -1    0    0  501  502 -0.00000000000E+00 -0.00000000000E+00 -0.11058795755E+03  0.11058795755E+03  0.00000000000E+00 0. -1.
         25    1    1    2    0    0  0.50031047758E+02 -0.84230453969E+02  0.10221554549E+03  0.18886739490E+03  0.12500000000E+03 0.  0.
         25    1    1    2    0    0 -0.39146897779E+01  0.71946381254E+02  0.14645014697E+03  0.20558271357E+03  0.12500000000E+03 0.  0.
         25    1    1    2    0    0 -0.46116357980E+02  0.12284072715E+02  0.81035255475E+02  0.15642675457E+03  0.12500000000E+03 0.  0.
</event>
<event>
 5    0  0.5641283E-005  0.2980278E+03  0.7546771E-02  0.1086231E+00
         21   -1    0    0  502  501  0.00000000000E+00  0.00000000000E+00  0.19908438913E+03  0.19908438913E+03  0.00000000000E+00 0. -1.
         21   -1    0    0  501  502 -0.00000000000E+00 -0.00000000000E+00 -0.44614540175E+03  0.44614540175E+03  0.00000000000E+00 0. -1.
         25    1    1    2    0    0  0.54007713543E+02 -0.14296534362E+03 -0.25096675013E+03  0.31931995282E+03  0.12500000000E+03 0.  0.
         25    1    1    2    0    0 -0.32831201767E+01 -0.18381884636E+01 -0.19714869509E+02  0.12660108173E+03  0.12500000000E+03 0.  0.
         25    1    1    2    0    0 -0.50724593366E+02  0.14480353208E+03  0.23620607025E+02  0.19930875634E+03  0.12500000000E+03 0.  0.
</event>
<event>
 5    0  0.5641283E-005  0.3229459E+03  0.7546771E-02  0.1074301E+00
         21   -1    0    0  502  501  0.00000000000E+00  0.00000000000E+00  0.77108330553E+03  0.77108330553E+03  0.00000000000E+00 0.  1.
         21   -1    0    0  501  502 -0.00000000000E+00 -0.00000000000E+00 -0.13525655503E+03  0.13525655503E+03  0.00000000000E+00 0.  1.
         25    1    1    2    0    0  0.12216462882E+02  0.65261472586E+02 -0.74680319332E+01  0.14173592794E+03  0.12500000000E+03 0.  0.
         25    1    1    2    0    0  0.40897094689E+01  0.10908867548E+03  0.43315376688E+03  0.46385800694E+03  0.12500000000E+03 0.  0.
         25    1    1    2    0    0 -0.16306172351E+02 -0.17435014807E+03  0.21014101556E+03  0.30074592567E+03  0.12500000000E+03 0.  0.
</event>
<event>
 5    0  0.5708922E-005  0.2961741E+03  0.7546771E-02  0.1087169E+00
         21   -1    0    0  502  501  0.00000000000E+00  0.00000000000E+00  0.12974483871E+03  0.12974483871E+03  0.00000000000E+00 0.  1.
         21   -1    0    0  501  502 -0.00000000000E+00 -0.00000000000E+00 -0.67608932353E+03  0.67608932353E+03  0.00000000000E+00 0.  1.
         25    1    1    2    0    0 -0.84616903432E+02  0.15666373034E+03 -0.31222500748E+03  0.38054303311E+03  0.12500000000E+03 0.  0.
         25    1    1    2    0    0  0.10728421262E+03 -0.23278555111E+02 -0.77604193025E+02  0.18357342994E+03  0.12500000000E+03 0.  0.
         25    1    1    2    0    0 -0.22667309190E+02 -0.13338517523E+03 -0.15651528432E+03  0.24171769919E+03  0.12500000000E+03 0.  0.
</event>
<event>
 5    0  0.5641283E-005  0.3845091E+03  0.7546771E-02  0.1049280E+00
         21   -1    0    0  502  501  0.00000000000E+00  0.00000000000E+00  0.77293395934E+03  0.77293395934E+03  0.00000000000E+00 0.  1.
         21   -1    0    0  501  502 -0.00000000000E+00 -0.00000000000E+00 -0.19128061502E+03  0.19128061502E+03  0.00000000000E+00 0.  1.
         25    1    1    2    0    0 -0.24132021338E+02 -0.14378493193E+03  0.10108002213E+03  0.21702219236E+03  0.12500000000E+03 0.  0.
         25    1    1    2    0    0 -0.13557388926E+03  0.19552402606E+03  0.57021826743E+02  0.27474790798E+03  0.12500000000E+03 0.  0.
         25    1    1    2    0    0  0.15970591059E+03 -0.51739094127E+02  0.42355149545E+03  0.47244447403E+03  0.12500000000E+03 0.  0.
</event>
<event>
 5    0  0.5641283E-005  0.2368274E+03  0.7546771E-02  0.1121925E+00
         21   -1    0    0  502  501  0.00000000000E+00  0.00000000000E+00  0.55776796890E+02  0.55776796890E+02  0.00000000000E+00 0. -1.
         21   -1    0    0  501  502 -0.00000000000E+00 -0.00000000000E+00 -0.10055651900E+04  0.10055651900E+04  0.00000000000E+00 0. -1.
         25    1    1    2    0    0 -0.64650555674E+02  0.36573270214E+02 -0.40613709977E+03  0.43138108703E+03  0.12500000000E+03 0.  0.
         25    1    1    2    0    0 -0.56121923958E+02 -0.16870267230E+02 -0.18407670869E+03  0.23009456957E+03  0.12500000000E+03 0.  0.
         25    1    1    2    0    0  0.12077247963E+03 -0.19703002984E+02 -0.35957458463E+03  0.39986633025E+03  0.12500000000E+03 0.  0.
</event>
<event>
 5    0  0.5641283E-005  0.3915907E+03  0.7546771E-02  0.1046731E+00
         21   -1    0    0  502  501  0.00000000000E+00  0.00000000000E+00  0.29677176955E+03  0.29677176955E+03  0.00000000000E+00 0. -1.
         21   -1    0    0  501  502 -0.00000000000E+00 -0.00000000000E+00 -0.51670441639E+03  0.51670441639E+03  0.00000000000E+00 0. -1.
         25    1    1    2    0    0  0.11768916420E+03  0.64218249414E+02  0.57041350273E+02  0.19197249431E+03  0.12500000000E+03 0.  0.
         25    1    1    2    0    0  0.58992364162E+02  0.75089729832E+01 -0.35458898240E+03  0.38065053546E+03  0.12500000000E+03 0.  0.
         25    1    1    2    0    0 -0.17668152837E+03 -0.71727222397E+02  0.77614985287E+02  0.24085315618E+03  0.12500000000E+03 0.  0.
</event>
<event>
 5    0  0.5641283E-005  0.2057300E+03  0.7546771E-02  0.1144993E+00
         21   -1    0    0  502  501  0.00000000000E+00  0.00000000000E+00  0.76680791460E+03  0.76680791460E+03  0.00000000000E+00 0.  1.
         21   -1    0    0  501  502 -0.00000000000E+00 -0.00000000000E+00 -0.55196123567E+02  0.55196123567E+02  0.00000000000E+00 0.  1.
         25    1    1    2    0    0  0.42816635396E+02  0.15329285579E+02  0.26633891023E+03  0.29770735020E+03  0.12500000000E+03 0.  0.
         25    1    1    2    0    0  0.27637133064E+02 -0.36981319612E+01  0.25846109886E+03  0.28845212242E+03  0.12500000000E+03 0.  0.
         25    1    1    2    0    0 -0.70453768460E+02 -0.11631153618E+02  0.18681178195E+03  0.23584456555E+03  0.12500000000E+03 0.  0.
</event>
<event>
 5    0  0.5641283E-005  0.2455700E+03  0.7546771E-02  0.1116137E+00
         21   -1    0    0  502  501  0.00000000000E+00  0.00000000000E+00  0.24705862749E+03  0.24705862749E+03  0.00000000000E+00 0.  1.
         21   -1    0    0  501  502 -0.00000000000E+00 -0.00000000000E+00 -0.24409035180E+03  0.24409035180E+03  0.00000000000E+00 0.  1.
         25    1    1    2    0    0  0.11113106658E+02  0.20790443939E+02  0.85265410595E+02  0.15313697771E+03  0.12500000000E+03 0.  0.
         25    1    1    2    0    0 -0.30279025681E+02 -0.55857459916E+02  0.52646813937E+02  0.14977837709E+03  0.12500000000E+03 0.  0.
         25    1    1    2    0    0  0.19165919023E+02  0.35067015978E+02 -0.13494394884E+03  0.18823362449E+03  0.12500000000E+03 0.  0.
</event>
<event>
 5    0  0.5641283E-005  0.2948091E+03  0.7546771E-02  0.1087865E+00
         21   -1    0    0  502  501  0.00000000000E+00  0.00000000000E+00  0.27131593981E+03  0.27131593981E+03  0.00000000000E+00 0. -1.
         21   -1    0    0  501  502 -0.00000000000E+00 -0.00000000000E+00 -0.32033654005E+03  0.32033654005E+03  0.00000000000E+00 0. -1.
         25    1    1    2    0    0 -0.19954451632E+03 -0.31751723631E+02 -0.66684661382E+02  0.24677526215E+03  0.12500000000E+03 0.  0.
         25    1    1    2    0    0  0.51191160107E+02  0.24524588425E+02  0.53734540874E+02  0.14742588373E+03  0.12500000000E+03 0.  0.
         25    1    1    2    0    0  0.14835335621E+03  0.72271352059E+01 -0.36070479733E+02  0.19745133398E+03  0.12500000000E+03 0.  0.
</event>
<event>
 5    0  0.5641283E-005  0.3060997E+03  0.7546771E-02  0.1082231E+00
         21   -1    0    0  502  501  0.00000000000E+00  0.00000000000E+00  0.12006707938E+03  0.12006707938E+03  0.00000000000E+00 0.  1.
         21   -1    0    0  501  502 -0.00000000000E+00 -0.00000000000E+00 -0.78037238057E+03  0.78037238057E+03  0.00000000000E+00 0.  1.
         25    1    1    2    0    0 -0.17171922714E+03  0.65945806457E+02 -0.15479819414E+03  0.27096830676E+03  0.12500000000E+03 0.  0.
         25    1    1    2    0    0  0.21070513746E+02 -0.11369566921E+03 -0.27354169858E+03  0.32221224776E+03  0.12500000000E+03 0.  0.
         25    1    1    2    0    0  0.15064871339E+03  0.47749862750E+02 -0.23196540847E+03  0.30725890543E+03  0.12500000000E+03 0.  0.
</event>
<event>
 5    0  0.5641283E-005  0.2239927E+03  0.7546771E-02  0.1130941E+00
         21   -1    0    0  502  501  0.00000000000E+00  0.00000000000E+00  0.53870196597E+02  0.53870196597E+02  0.00000000000E+00 0.  1.
         21   -1    0    0  501  502 -0.00000000000E+00 -0.00000000000E+00 -0.93136372524E+03  0.93136372524E+03  0.00000000000E+00 0.  1.
         25    1    1    2    0    0 -0.82195731300E+02  0.39643089016E+02 -0.30743171441E+03  0.34419031331E+03  0.12500000000E+03 0.  0.
         25    1    1    2    0    0  0.69628117090E+02  0.33317854046E+02 -0.26005239681E+03  0.29868110616E+03  0.12500000000E+03 0.  0.
         25    1    1    2    0    0  0.12567614210E+02 -0.72960943062E+02 -0.31000941742E+03  0.34236250237E+03  0.12500000000E+03 0.  0.
</event>
<event>
 5    0  0.5641283E-005  0.2567812E+03  0.7546771E-02  0.1109093E+00
         21   -1    0    0  502  501  0.00000000000E+00  0.00000000000E+00  0.44458602329E+02  0.44458602329E+02  0.00000000000E+00 0.  1.
         21   -1    0    0  501  502 -0.00000000000E+00 -0.00000000000E+00 -0.14831009248E+04  0.14831009248E+04  0.00000000000E+00 0.  1.
         25    1    1    2    0    0 -0.15034387745E+02  0.56946372722E+01 -0.21642155473E+03  0.25044310943E+03  0.12500000000E+03 0.  0.
         25    1    1    2    0    0  0.10956901629E+02 -0.13367444306E+02 -0.14328944469E+03  0.19093351518E+03  0.12500000000E+03 0.  0.
         25    1    1    2    0    0  0.40774861156E+01  0.76728070339E+01 -0.10789313230E+04  0.10861829025E+04  0.12500000000E+03 0.  0.
</event>
<event>
 5    0  0.5641283E-005  0.3688352E+03  0.7546771E-02  0.1055139E+00
         21   -1    0    0  502  501  0.00000000000E+00  0.00000000000E+00  0.85725463962E+03  0.85725463962E+03  0.00000000000E+00 0. -1.
         21   -1    0    0  501  502 -0.00000000000E+00 -0.00000000000E+00 -0.15869190429E+03  0.15869190429E+03  0.00000000000E+00 0. -1.
         25    1    1    2    0    0  0.13250967533E+02  0.72815026714E+02 -0.39350421919E+02  0.15050273074E+03  0.12500000000E+03 0.  0.
         25    1    1    2    0    0  0.72477568772E+02  0.10163067238E+03  0.51461288604E+03  0.54408934378E+03  0.12500000000E+03 0.  0.
         25    1    1    2    0    0 -0.85728536304E+02 -0.17444569910E+03  0.22330027122E+03  0.32135446939E+03  0.12500000000E+03 0.  0.
</event>
<event>
 5    0  0.5641283E-005  0.2661529E+03  0.7546771E-02  0.1103502E+00
         21   -1    0    0  502  501  0.00000000000E+00  0.00000000000E+00  0.17985646482E+03  0.17985646482E+03  0.00000000000E+00 0. -1.
         21   -1    0    0  501  502 -0.00000000000E+00 -0.00000000000E+00 -0.39385511462E+03  0.39385511462E+03  0.00000000000E+00 0. -1.
         25    1    1    2    0    0 -0.90249581486E+02 -0.44231617830E+02  0.49719008808E+02  0.16792380061E+03  0.12500000000E+03 0.  0.
         25    1    1    2    0    0  0.87245624166E+02  0.76568545822E+02 -0.10172806963E+03  0.19861556156E+03  0.12500000000E+03 0.  0.
         25    1    1    2    0    0  0.30039573200E+01 -0.32336927992E+02 -0.16198958898E+03  0.20717221727E+03  0.12500000000E+03 0.  0.
</event>
<event>
 5    0  0.5641283E-005  0.2415468E+03  0.7546771E-02  0.1118767E+00
         21   -1    0    0  502  501  0.00000000000E+00  0.00000000000E+00  0.34227633690E+03  0.34227633690E+03  0.00000000000E+00 0. -1.
         21   -1    0    0  501  502 -0.00000000000E+00 -0.00000000000E+00 -0.17046121947E+03  0.17046121947E+03  0.00000000000E+00 0. -1.
         25    1    1    2    0    0 -0.57579801656E+02  0.19846735880E+02  0.16680310905E+03  0.21715801545E+03  0.12500000000E+03 0.  0.
         25    1    1    2    0    0  0.90388557406E+01  0.32362047617E+02  0.58523476115E+02  0.14205280812E+03  0.12500000000E+03 0.  0.
         25    1    1    2    0    0  0.48540945916E+02 -0.52208783497E+02 -0.53511467742E+02  0.15352673280E+03  0.12500000000E+03 0.  0.
</event>
<event>
 5    0  0.5641283E-005  0.3430768E+03  0.7546771E-02  0.1065493E+00
         21   -1    0    0  502  501  0.00000000000E+00  0.00000000000E+00  0.37424583971E+03  0.37424583971E+03  0.00000000000E+00 0. -1.
         21   -1    0    0  501  502 -0.00000000000E+00 -0.00000000000E+00 -0.31450361885E+03  0.31450361885E+03  0.00000000000E+00 0. -1.
         25    1    1    2    0    0  0.35257146002E+02  0.70425997548E+02 -0.12700641427E+03  0.19482945553E+03  0.12500000000E+03 0.  0.
         25    1    1    2    0    0  0.52098556929E+02  0.11133544441E+03 -0.23530975202E+02  0.17688569080E+03  0.12500000000E+03 0.  0.
         25    1    1    2    0    0 -0.87355702932E+02 -0.18176144196E+03  0.21027961033E+03  0.31703431224E+03  0.12500000000E+03 0.  0.
</event>
<event>
 5    0  0.5641283E-005  0.4251132E+03  0.7546771E-02  0.1035415E+00
         21   -1    0    0  502  501  0.00000000000E+00  0.00000000000E+00  0.53309571763E+03  0.53309571763E+03  0.00000000000E+00 0.  1.
         21   -1    0    0  501  502 -0.00000000000E+00 -0.00000000000E+00 -0.33900338590E+03  0.33900338590E+03  0.00000000000E+00 0.  1.
         25    1    1    2    0    0 -0.20798972889E+03 -0.25965912563E+03 -0.91585301732E+01  0.35551577675E+03  0.12500000000E+03 0.  0.
         25    1    1    2    0    0  0.72104049989E+02 -0.13647746308E+02  0.67875008160E+02  0.16005396508E+03  0.12500000000E+03 0.  0.
         25    1    1    2    0    0  0.13588567890E+03  0.27330687193E+03  0.13537585374E+03  0.35652936170E+03  0.12500000000E+03 0.  0.
</event>
<event>
 5    0  0.5641283E-005  0.3389462E+03  0.7546771E-02  0.1067246E+00
         21   -1    0    0  502  501  0.00000000000E+00  0.00000000000E+00  0.23743185131E+03  0.23743185131E+03  0.00000000000E+00 0.  1.
         21   -1    0    0  501  502 -0.00000000000E+00 -0.00000000000E+00 -0.48386322123E+03  0.48386322123E+03  0.00000000000E+00 0.  1.
         25    1    1    2    0    0 -0.14440961648E+02  0.86886744709E+02  0.11876983019E+03  0.19362107412E+03  0.12500000000E+03 0.  0.
         25    1    1    2    0    0  0.12977726942E+03 -0.62952079417E+01 -0.11224299560E+03  0.21237998814E+03  0.12500000000E+03 0.  0.
         25    1    1    2    0    0 -0.11533630778E+03 -0.80591536768E+02 -0.25295820451E+03  0.31529401028E+03  0.12500000000E+03 0.  0.
</event>
<event>
 5    0  0.5641283E-005  0.2528492E+03  0.7546771E-02  0.1111517E+00
         21   -1    0    0  502  501  0.00000000000E+00  0.00000000000E+00  0.19118324535E+03  0.19118324535E+03  0.00000000000E+00 0.  1.
         21   -1    0    0  501  502 -0.00000000000E+00 -0.00000000000E+00 -0.33440552428E+03  0.33440552428E+03  0.00000000000E+00 0.  1.
         25    1    1    2    0    0  0.39114867619E+01  0.52595816111E+02 -0.14843289254E+03  0.20109436389E+03  0.12500000000E+03 0.  0.
         25    1    1    2    0    0 -0.59366048452E+02  0.12003017043E+02  0.75082887759E+02  0.15789502893E+03  0.12500000000E+03 0.  0.
         25    1    1    2    0    0  0.55454561690E+02 -0.64598833154E+02 -0.69872274155E+02  0.16659937681E+03  0.12500000000E+03 0.  0.
</event>
<event>
 5    0  0.5763564E-005  0.2968423E+03  0.7546771E-02  0.1086830E+00
         21   -1    0    0  502  501  0.00000000000E+00  0.00000000000E+00  0.42736508562E+03  0.42736508562E+03  0.00000000000E+00 0. -1.
         21   -1    0    0  501  502 -0.00000000000E+00 -0.00000000000E+00 -0.20618279193E+03  0.20618279193E+03  0.00000000000E+00 0. -1.
         25    1    1    2    0    0 -0.93644350041E+02 -0.83583860134E+02  0.35396325831E+02  0.18064724147E+03  0.12500000000E+03 0.  0.
         25    1    1    2    0    0  0.54979402281E+02 -0.10329092519E+03  0.23248561585E+02  0.17279249266E+03  0.12500000000E+03 0.  0.
         25    1    1    2    0    0  0.38664947760E+02  0.18687478533E+03  0.16253740628E+03  0.28010814343E+03  0.12500000000E+03 0.  0.
</event>
<event>
 5    0  0.6553157E-005  0.3256800E+03  0.7546771E-02  0.1073064E+00
         21   -1    0    0  502  501  0.00000000000E+00  0.00000000000E+00  0.18109457848E+03  0.18109457848E+03  0.00000000000E+00 0.  1.
         21   -1    0    0  501  502 -0.00000000000E+00 -0.00000000000E+00 -0.58570208778E+03  0.58570208778E+03  0.00000000000E+00 0.  1.
         25    1    1    2    0    0 -0.32120481916E+02 -0.14728349696E+03 -0.54569486785E+02  0.20329039014E+03  0.12500000000E+03 0.  0.
         25    1    1    2    0    0 -0.79382568460E+02  0.14480542703E+03 -0.39761519625E+02  0.21089377021E+03  0.12500000000E+03 0.  0.
         25    1    1    2    0    0  0.11150305038E+03  0.24780699372E+01 -0.31027650289E+03  0.35261250590E+03  0.12500000000E+03 0.  0.
</event>
<event>
 5    0  0.5641283E-005  0.4135519E+03  0.7546771E-02  0.1039186E+00
         21   -1    0    0  502  501  0.00000000000E+00  0.00000000000E+00  0.57776647635E+03  0.57776647635E+03  0.00000000000E+00 0. -1.
         21   -1    0    0  501  502 -0.00000000000E+00 -0.00000000000E+00 -0.29601093144E+03  0.29601093144E+03  0.00000000000E+00 0. -1.
         25    1    1    2    0    0  0.21228259605E+03 -0.18456291387E+03  0.30955914504E+03  0.43655381574E+03  0.12500000000E+03 0.  0.
         25    1    1    2    0    0 -0.89824163825E+02 -0.12750319773E+02  0.49849556088E+02  0.16229888879E+03  0.12500000000E+03 0.  0.
         25    1    1    2    0    0 -0.12245843222E+03  0.19731323364E+03 -0.77653156217E+02  0.27492470326E+03  0.12500000000E+03 0.  0.
</event>
<event>
 5    0  0.5641283E-005  0.2372855E+03  0.7546771E-02  0.1121614E+00
         21   -1    0    0  502  501  0.00000000000E+00  0.00000000000E+00  0.35226827535E+02  0.35226827535E+02  0.00000000000E+00 0.  1.
         21   -1    0    0  501  502 -0.00000000000E+00 -0.00000000000E+00 -0.15983384203E+04  0.15983384203E+04  0.00000000000E+00 0.  1.
         25    1    1    2    0    0  0.28470984128E+02  0.11368827256E+03 -0.54856972865E+03  0.57470807150E+03  0.12500000000E+03 0.  0.
         25    1    1    2    0    0 -0.54025917296E+02 -0.45121332861E+02 -0.34153096216E+03  0.37043640822E+03  0.12500000000E+03 0.  0.
         25    1    1    2    0    0  0.25554933168E+02 -0.68566939696E+02 -0.67301090200E+03  0.68842076816E+03  0.12500000000E+03 0.  0.
</event>
<event>
 5    0  0.5641283E-005  0.2384875E+03  0.7546771E-02  0.1120805E+00
         21   -1    0    0  502  501  0.00000000000E+00  0.00000000000E+00  0.17467533015E+03  0.17467533015E+03  0.00000000000E+00 0.  1.
         21   -1    0    0  501  502 -0.00000000000E+00 -0.00000000000E+00 -0.32561143631E+03  0.32561143631E+03  0.00000000000E+00 0.  1.
         25    1    1    2    0    0  0.54886359159E+00  0.21100621714E+02 -0.42773219955E+01  0.12684176351E+03  0.12500000000E+03 0.  0.
         25    1    1    2    0    0  0.74924685916E+02 -0.77827348771E+02 -0.14016418331E+03  0.21666057108E+03  0.12500000000E+03 0.  0.
         25    1    1    2    0    0 -0.75473549508E+02  0.56726727057E+02 -0.64946008623E+01  0.15678443187E+03  0.12500000000E+03 0.  0.
</event>
<event>
 5    0  0.5641283E-005  0.4737020E+03  0.7546771E-02  0.1020881E+00
         21   -1    0    0  502  501  0.00000000000E+00  0.00000000000E+00  0.22333121201E+03  0.22333121201E+03  0.00000000000E+00 0. -1.
         21   -1    0    0  501  502 -0.00000000000E+00 -0.00000000000E+00 -0.10047569258E+04  0.10047569258E+04  0.00000000000E+00 0. -1.
         25    1    1    2    0    0  0.21522054034E+03  0.50524364099E+02 -0.83281572991E+03  0.87067768568E+03  0.12500000000E+03 0.  0.
         25    1    1    2    0    0 -0.54686719314E+02  0.84294308178E+01  0.50059555863E+02  0.14557696145E+03  0.12500000000E+03 0.  0.
         25    1    1    2    0    0 -0.16053382103E+03 -0.58953794917E+02  0.13304602965E+01  0.21183349063E+03  0.12500000000E+03 0.  0.
</event>
<event>
 5    0  0.5641283E-005  0.3475216E+03  0.7546771E-02  0.1063637E+00
         21   -1    0    0  502  501  0.00000000000E+00  0.00000000000E+00  0.45030870257E+03  0.45030870257E+03  0.00000000000E+00 0.  1.
         21   -1    0    0  501  502 -0.00000000000E+00 -0.00000000000E+00 -0.26819653241E+03  0.26819653241E+03  0.00000000000E+00 0.  1.
         25    1    1    2    0    0  0.76497028622E+02 -0.49628074277E+02  0.11800414766E+03  0.19458859168E+03  0.12500000000E+03 0.  0.
         25    1    1    2    0    0  0.24944547064E+02  0.21894417593E+03  0.12496619525E+03  0.28248952646E+03  0.12500000000E+03 0.  0.
         25    1    1    2    0    0 -0.10144157569E+03 -0.16931610165E+03 -0.60858172761E+02  0.24142711685E+03  0.12500000000E+03 0.  0.
</event>
<event>
 5    0  0.5641283E-005  0.3076545E+03  0.7546771E-02  0.1081476E+00
         21   -1    0    0  502  501  0.00000000000E+00  0.00000000000E+00  0.14574890109E+04  0.14574890109E+04  0.00000000000E+00 0. -1.
         21   -1    0    0  501  502 -0.00000000000E+00 -0.00000000000E+00 -0.64941330051E+02  0.64941330051E+02  0.00000000000E+00 0. -1.
         25    1    1    2    0    0 -0.60510296893E+02  0.18490781693E+03  0.32794140248E+03  0.40127666299E+03  0.12500000000E+03 0.  0.
         25    1    1    2    0    0 -0.12000665118E+02 -0.27959343676E+02  0.53365806447E+03  0.54894596331E+03  0.12500000000E+03 0.  0.
         25    1    1    2    0    0  0.72510962011E+02 -0.15694847326E+03  0.53094821388E+03  0.57220771464E+03  0.12500000000E+03 0.  0.
</event>
<event>
 5    0  0.5641283E-005  0.2257467E+03  0.7546771E-02  0.1129670E+00
         21   -1    0    0  502  501  0.00000000000E+00  0.00000000000E+00  0.10398237167E+03  0.10398237167E+03  0.00000000000E+00 0.  1.
         21   -1    0    0  501  502 -0.00000000000E+00 -0.00000000000E+00 -0.49009828731E+03  0.49009828731E+03  0.00000000000E+00 0.  1.
         25    1    1    2    0    0 -0.41850122585E+02 -0.86541285010E+02 -0.99459245344E+02  0.18643489013E+03  0.12500000000E+03 0.  0.
         25    1    1    2    0    0  0.14639522720E+02  0.86366048711E+02 -0.20610024387E+03  0.25646777676E+03  0.12500000000E+03 0.  0.
         25    1    1    2    0    0  0.27210599866E+02  0.17523629964E+00 -0.80556426440E+02  0.15117799209E+03  0.12500000000E+03 0.  0.
</event>
<event>
 5    0  0.5641283E-005  0.2438823E+03  0.7546771E-02  0.1117233E+00
         21   -1    0    0  502  501  0.00000000000E+00  0.00000000000E+00  0.16342861755E+03  0.16342861755E+03  0.00000000000E+00 0.  1.
         21   -1    0    0  501  502 -0.00000000000E+00 -0.00000000000E+00 -0.36394230756E+03  0.36394230756E+03  0.00000000000E+00 0.  1.
         25    1    1    2    0    0  0.45729876056E+02 -0.42813505545E+02 -0.14204195111E+03  0.19931164967E+03  0.12500000000E+03 0.  0.
         25    1    1    2    0    0  0.45255820166E+02  0.38774418742E+02 -0.96507901344E+02  0.16879075754E+03  0.12500000000E+03 0.  0.
         25    1    1    2    0    0 -0.90985696221E+02  0.40390868025E+01  0.38036162442E+02  0.15926851789E+03  0.12500000000E+03 0.  0.
</event>
<event>
 5    0  0.6556514E-005  0.3016010E+03  0.7546771E-02  0.1084443E+00
         21   -1    0    0  502  501  0.00000000000E+00  0.00000000000E+00  0.81270003319E+03  0.81270003319E+03  0.00000000000E+00 0. -1.
         21   -1    0    0  501  502 -0.00000000000E+00 -0.00000000000E+00 -0.11192714089E+03  0.11192714089E+03  0.00000000000E+00 0. -1.
         25    1    1    2    0    0  0.81237896951E+02 -0.12131300253E+03  0.30362499410E+03  0.35934604147E+03  0.12500000000E+03 0.  0.
         25    1    1    2    0    0 -0.60722818315E+02  0.75816681856E+02  0.13699514132E+02  0.15889652796E+03  0.12500000000E+03 0.  0.
         25    1    1    2    0    0 -0.20515078636E+02  0.45496320672E+02  0.38344838407E+03  0.40638460464E+03  0.12500000000E+03 0.  0.
</event>
<event>
 5    0  0.5641283E-005  0.3500024E+03  0.7546771E-02  0.1062614E+00
         21   -1    0    0  502  501  0.00000000000E+00  0.00000000000E+00  0.96615964924E+02  0.96615964924E+02  0.00000000000E+00 0.  1.
         21   -1    0    0  501  502 -0.00000000000E+00 -0.00000000000E+00 -0.12679235762E+04  0.12679235762E+04  0.00000000000E+00 0.  1.
         25    1    1    2    0    0  0.33545165318E+02  0.14542437967E+03 -0.91570335922E+03  0.93616834512E+03  0.12500000000E+03 0.  0.
         25    1    1    2    0    0 -0.61791821116E+02 -0.11327999524E+02 -0.43284549506E+02  0.14644147280E+03  0.12500000000E+03 0.  0.
         25    1    1    2    0    0  0.28246655799E+02 -0.13409638014E+03 -0.21231970252E+03  0.28192972318E+03  0.12500000000E+03 0.  0.
</event>
<event>
 5    0  0.5641283E-005  0.3479812E+03  0.7546771E-02  0.1063447E+00
         21   -1    0    0  502  501  0.00000000000E+00  0.00000000000E+00  0.30771697511E+03  0.30771697511E+03  0.00000000000E+00 0. -1.
         21   -1    0    0  501  502 -0.00000000000E+00 -0.00000000000E+00 -0.39351393709E+03  0.39351393709E+03  0.00000000000E+00 0. -1.
         25    1    1    2    0    0 -0.64513286909E+02  0.15976776101E+03 -0.24234590802E+03  0.32255889506E+03  0.12500000000E+03 0.  0.
         25    1    1    2    0    0 -0.28892175597E+02 -0.87199582982E+02  0.15004898415E+02  0.15584823406E+03  0.12500000000E+03 0.  0.
         25    1    1    2    0    0  0.93405462506E+02 -0.72568178027E+02  0.14154404763E+03  0.22282378308E+03  0.12500000000E+03 0.  0.
</event>
<event>
 5    0  0.5641283E-005  0.2033212E+03  0.7546771E-02  0.1146967E+00
         21   -1    0    0  502  501  0.00000000000E+00  0.00000000000E+00  0.16543907830E+03  0.16543907830E+03  0.00000000000E+00 0.  1.
         21   -1    0    0  501  502 -0.00000000000E+00 -0.00000000000E+00 -0.24987755181E+03  0.24987755181E+03  0.00000000000E+00 0.  1.
         25    1    1    2    0    0  0.34793548790E+02  0.93053951594E+01  0.27156705857E+02  0.13288968391E+03  0.12500000000E+03 0.  0.
         25    1    1    2    0    0  0.80654044415E+00  0.37893040840E+01 -0.30681356554E+02  0.12876861020E+03  0.12500000000E+03 0.  0.
         25    1    1    2    0    0 -0.35600089234E+02 -0.13094699243E+02 -0.80913822813E+02  0.15365833601E+03  0.12500000000E+03 0.  0.
</event>
<event>
 5    0  0.5641283E-005  0.3402461E+03  0.7546771E-02  0.1066691E+00
         21   -1    0    0  502  501  0.00000000000E+00  0.00000000000E+00  0.77988784586E+03  0.77988784586E+03  0.00000000000E+00 0. -1.
         21   -1    0    0  501  502 -0.00000000000E+00 -0.00000000000E+00 -0.14844105567E+03  0.14844105567E+03  0.00000000000E+00 0. -1.
         25    1    1    2    0    0 -0.14506151561E+03 -0.15820051976E+03  0.11851200300E+03  0.27520963394E+03  0.12500000000E+03 0.  0.
         25    1    1    2    0    0  0.14119731405E+03 -0.15628294867E+02  0.26290685704E+03  0.32392273859E+03  0.12500000000E+03 0.  0.
         25    1    1    2    0    0  0.38642015576E+01  0.17382881462E+03  0.25002793015E+03  0.32919652900E+03  0.12500000000E+03 0.  0.
</event>
<event>
 5    0  0.5678803E-005  0.5427829E+03  0.7546771E-02  0.1003178E+00
         21   -1    0    0  502  501  0.00000000000E+00  0.00000000000E+00  0.99315343618E+03  0.99315343618E+03  0.00000000000E+00 0.  1.
         21   -1    0    0  501  502 -0.00000000000E+00 -0.00000000000E+00 -0.29664427410E+03  0.29664427410E+03  0.00000000000E+00 0.  1.
         25    1    1    2    0    0  0.23518146059E+03  0.47351007019E+02 -0.12658841293E+03  0.29866714510E+03  0.12500000000E+03 0.  0.
         25    1    1    2    0    0 -0.16482645653E+03  0.15313974132E+03  0.21640847952E+03  0.33626949185E+03  0.12500000000E+03 0.  0.
         25    1    1    2    0    0 -0.70355004068E+02 -0.20049074834E+03  0.60668909550E+03  0.65486107333E+03  0.12500000000E+03 0.  0.
</event>
<event>
 5    0  0.8053146E-005  0.2801917E+03  0.7546771E-02  0.1095584E+00
         21   -1    0    0  502  501  0.00000000000E+00  0.00000000000E+00  0.51684922204E+03  0.51684922204E+03  0.00000000000E+00 0. -1.
         21   -1    0    0  501  502 -0.00000000000E+00 -0.00000000000E+00 -0.15189616210E+03  0.15189616210E+03  0.00000000000E+00 0. -1.
         25    1    1    2    0    0  0.94138626257E+02  0.65595751894E+02  0.97892726767E+02  0.19588994250E+03  0.12500000000E+03 0.  0.
         25    1    1    2    0    0  0.52315906275E+02 -0.10279958434E+01  0.22921559624E+03  0.26627579759E+03  0.12500000000E+03 0.  0.
         25    1    1    2    0    0 -0.14645453253E+03 -0.64567756051E+02  0.37844736932E+02  0.20657964405E+03  0.12500000000E+03 0.  0.
</event>
<event>
 5    0  0.5641283E-005  0.2732144E+03  0.7546771E-02  0.1099454E+00
         21   -1    0    0  502  501  0.00000000000E+00  0.00000000000E+00  0.55842263563E+02  0.55842263563E+02  0.00000000000E+00 0.  1.
         21   -1    0    0  501  502 -0.00000000000E+00 -0.00000000000E+00 -0.13367317483E+04  0.13367317483E+04  0.00000000000E+00 0.  1.
         25    1    1    2    0    0 -0.39678782836E+01 -0.91730679708E+02 -0.76915973224E+03  0.78464129088E+03  0.12500000000E+03 0.  0.
         25    1    1    2    0    0  0.14595415222E+02 -0.33351468300E+02 -0.11605825773E+03  0.17441291744E+03  0.12500000000E+03 0.  0.
         25    1    1    2    0    0 -0.10627536938E+02  0.12508214801E+03 -0.39567149481E+03  0.43351980358E+03  0.12500000000E+03 0.  0.
</event>
<event>
 5    0  0.5641283E-005  0.3255340E+03  0.7546771E-02  0.1073130E+00
         21   -1    0    0  502  501  0.00000000000E+00  0.00000000000E+00  0.63274994289E+03  0.63274994289E+03  0.00000000000E+00 0. -1.
         21   -1    0    0  501  502 -0.00000000000E+00 -0.00000000000E+00 -0.16747911258E+03  0.16747911258E+03  0.00000000000E+00 0. -1.
         25    1    1    2    0    0  0.19231749098E+03 -0.89425168492E+00  0.11038331713E+03  0.25455116131E+03  0.12500000000E+03 0.  0.
         25    1    1    2    0    0  0.16870521475E+02 -0.63056437848E+02  0.21609479786E+03  0.25803621938E+03  0.12500000000E+03 0.  0.
         25    1    1    2    0    0 -0.20918801246E+03  0.63950689532E+02  0.13879271531E+03  0.28764167478E+03  0.12500000000E+03 0.  0.
</event>
<event>
 5    0  0.5641283E-005  0.3012404E+03  0.7546771E-02  0.1084622E+00
         21   -1    0    0  502  501  0.00000000000E+00  0.00000000000E+00  0.60277715261E+03  0.60277715261E+03  0.00000000000E+00 0. -1.
         21   -1    0    0  501  502 -0.00000000000E+00 -0.00000000000E+00 -0.15054613140E+03  0.15054613140E+03  0.00000000000E+00 0. -1.
         25    1    1    2    0    0 -0.63235683826E+02 -0.74249260493E+02  0.65645149038E+02  0.17159833911E+03  0.12500000000E+03 0.  0.
         25    1    1    2    0    0  0.67580179445E+02 -0.10004000776E+03  0.46950014637E+02  0.18001218759E+03  0.12500000000E+03 0.  0.
         25    1    1    2    0    0 -0.43444956196E+01  0.17428926825E+03  0.33963585753E+03  0.40171275732E+03  0.12500000000E+03 0.  0.
</event>
<event>
 5    0  0.5641283E-005  0.2733849E+03  0.7546771E-02  0.1099358E+00
         21   -1    0    0  502  501  0.00000000000E+00  0.00000000000E+00  0.16361357986E+03  0.16361357986E+03  0.00000000000E+00 0. -1.
         21   -1    0    0  501  502 -0.00000000000E+00 -0.00000000000E+00 -0.45680387941E+03  0.45680387941E+03  0.00000000000E+00 0. -1.
         25    1    1    2    0    0  0.40293391737E+02 -0.48921431566E+02 -0.24341513823E+03  0.28087860973E+03  0.12500000000E+03 0.  0.
         25    1    1    2    0    0 -0.12779403524E+03  0.30809204361E+02 -0.38741156018E+02  0.18548962150E+03  0.12500000000E+03 0.  0.
         25    1    1    2    0    0  0.87500643503E+02  0.18112227205E+02 -0.11034005312E+02  0.15404922804E+03  0.12500000000E+03 0.  0.
</event>
<event>
 5    0  0.5680310E-005  0.3053502E+03  0.7546771E-02  0.1082596E+00
         21   -1    0    0  502  501  0.00000000000E+00  0.00000000000E+00  0.18582726802E+03  0.18582726802E+03  0.00000000000E+00 0. -1.
         21   -1    0    0  501  502 -0.00000000000E+00 -0.00000000000E+00 -0.50174948346E+03  0.50174948346E+03  0.00000000000E+00 0. -1.
         25    1    1    2    0    0  0.16747481500E+03 -0.98704951480E+02 -0.94736492748E+01  0.23131197794E+03  0.12500000000E+03 0.  0.
         25    1    1    2    0    0 -0.35288639990E+02  0.46434993138E+02 -0.18725390379E+03  0.23257368979E+03  0.12500000000E+03 0.  0.
         25    1    1    2    0    0 -0.13218617501E+03  0.52269958343E+02 -0.11919466238E+03  0.22369108375E+03  0.12500000000E+03 0.  0.
</event>
<event>
 5    0  0.5641283E-005  0.3516534E+03  0.7546771E-02  0.1061938E+00
         21   -1    0    0  502  501  0.00000000000E+00  0.00000000000E+00  0.12505768500E+04  0.12505768500E+04  0.00000000000E+00 0.  1.
         21   -1    0    0  501  502 -0.00000000000E+00 -0.00000000000E+00 -0.98882469404E+02  0.98882469404E+02  0.00000000000E+00 0.  1.
         25    1    1    2    0    0 -0.24439674089E+03 -0.10284747725E+02  0.71072024547E+03  0.76196050443E+03  0.12500000000E+03 0.  0.
         25    1    1    2    0    0  0.17702396112E+03  0.49806629671E+02  0.34881821632E+03  0.41366330658E+03  0.12500000000E+03 0.  0.
         25    1    1    2    0    0  0.67372779778E+02 -0.39521881946E+02  0.92155918797E+02  0.17383550839E+03  0.12500000000E+03 0.  0.
</event>
<event>
 5    0  0.5641283E-005  0.2773122E+03  0.7546771E-02  0.1097166E+00
         21   -1    0    0  502  501  0.00000000000E+00  0.00000000000E+00  0.18551239551E+03  0.18551239551E+03  0.00000000000E+00 0. -1.
         21   -1    0    0  501  502 -0.00000000000E+00 -0.00000000000E+00 -0.41453867171E+03  0.41453867171E+03  0.00000000000E+00 0. -1.
         25    1    1    2    0    0  0.20168552167E+01 -0.57221278285E+02 -0.13787950853E+03  0.19471543664E+03  0.12500000000E+03 0.  0.
         25    1    1    2    0    0 -0.17468903300E+02 -0.26869439927E+02  0.98716171959E+02  0.16247157287E+03  0.12500000000E+03 0.  0.
         25    1    1    2    0    0  0.15452048083E+02  0.84090718212E+02 -0.18986293964E+03  0.24286405771E+03  0.12500000000E+03 0.  0.
</event>
<event>
 5    0  0.5641283E-005  0.2838654E+03  0.7546771E-02  0.1093596E+00
         21   -1    0    0  502  501  0.00000000000E+00  0.00000000000E+00  0.49271698334E+02  0.49271698334E+02  0.00000000000E+00 0.  1.
         21   -1    0    0  501  502 -0.00000000000E+00 -0.00000000000E+00 -0.16354123708E+04  0.16354123708E+04  0.00000000000E+00 0.  1.
         25    1    1    2    0    0 -0.21753447479E+02 -0.11931378222E+03 -0.42269354829E+03  0.45716936344E+03  0.12500000000E+03 0.  0.
         25    1    1    2    0    0 -0.68460511501E+02  0.16288820883E+03 -0.49695682191E+03  0.54204288857E+03  0.12500000000E+03 0.  0.
         25    1    1    2    0    0  0.90213958980E+02 -0.43574426609E+02 -0.66649030228E+03  0.68547181713E+03  0.12500000000E+03 0.  0.
</event>
<event>
 5    0  0.5641283E-005  0.2963694E+03  0.7546771E-02  0.1087070E+00
         21   -1    0    0  502  501  0.00000000000E+00  0.00000000000E+00  0.33626452041E+04  0.33626452041E+04  0.00000000000E+00 0.  1.
         21   -1    0    0  501  502 -0.00000000000E+00 -0.00000000000E+00 -0.26120744181E+02  0.26120744181E+02  0.00000000000E+00 0.  1.
         25    1    1    2    0    0  0.50039318038E+02  0.16976298058E+03  0.12978464689E+04  0.13158092034E+04  0.12500000000E+03 0.  0.
         25    1    1    2    0    0 -0.69417213065E+02 -0.20884241239E+02  0.45805057585E+03  0.48030222885E+03  0.12500000000E+03 0.  0.
         25    1    1    2    0    0  0.19377895027E+02 -0.14887873934E+03  0.15806274152E+04  0.15926545160E+04  0.12500000000E+03 0.  0.
</event>
<event>
 5    0  0.5641283E-005  0.3391983E+03  0.7546771E-02  0.1067138E+00
         21   -1    0    0  502  501  0.00000000000E+00  0.00000000000E+00  0.24930228133E+03  0.24930228133E+03  0.00000000000E+00 0.  1.
         21   -1    0    0  501  502 -0.00000000000E+00 -0.00000000000E+00 -0.46151003159E+03  0.46151003159E+03  0.00000000000E+00 0.  1.
         25    1    1    2    0    0 -0.10276481322E+02  0.12382620175E+03 -0.19245802490E+03  0.26096671370E+03  0.12500000000E+03 0.  0.
         25    1    1    2    0    0  0.12597444734E+03  0.69230811938E+02  0.95427798835E+01  0.19073156884E+03  0.12500000000E+03 0.  0.
         25    1    1    2    0    0 -0.11569796602E+03 -0.19305701369E+03 -0.29292505242E+02  0.25911403038E+03  0.12500000000E+03 0.  0.
</event>
<event>
 5    0  0.5641283E-005  0.3558570E+03  0.7546771E-02  0.1060236E+00
         21   -1    0    0  502  501  0.00000000000E+00  0.00000000000E+00  0.86579376434E+03  0.86579376434E+03  0.00000000000E+00 0. -1.
         21   -1    0    0  501  502 -0.00000000000E+00 -0.00000000000E+00 -0.14626371771E+03  0.14626371771E+03  0.00000000000E+00 0. -1.
         25    1    1    2    0    0 -0.19511489317E+02 -0.61581577244E+02  0.35414256254E+03  0.38107078539E+03  0.12500000000E+03 0.  0.
         25    1    1    2    0    0  0.13786453337E+03  0.94420551541E+02 -0.17991929820E+02  0.20945304881E+03  0.12500000000E+03 0.  0.
         25    1    1    2    0    0 -0.11835304406E+03 -0.32838974297E+02  0.38337941391E+03  0.42153364786E+03  0.12500000000E+03 0.  0.
</event>
<event>
 5    0  0.5641283E-005  0.4268319E+03  0.7546771E-02  0.1034865E+00
         21   -1    0    0  502  501  0.00000000000E+00  0.00000000000E+00  0.22638166244E+03  0.22638166244E+03  0.00000000000E+00 0. -1.
         21   -1    0    0  501  502 -0.00000000000E+00 -0.00000000000E+00 -0.80477114688E+03  0.80477114688E+03  0.00000000000E+00 0. -1.
         25    1    1    2    0    0 -0.18354463011E+03  0.18138007902E+03  0.21804563120E+01  0.28673527634E+03  0.12500000000E+03 0.  0.
         25    1    1    2    0    0 -0.32636677869E+02 -0.63090534452E+02 -0.61482880561E+02  0.15636723724E+03  0.12500000000E+03 0.  0.
         25    1    1    2    0    0  0.21618130798E+03 -0.11828954457E+03 -0.51908706018E+03  0.58805029574E+03  0.12500000000E+03 0.  0.
</event>
<event>
 5    0  0.5641283E-005  0.4547596E+03  0.7546771E-02  0.1026312E+00
         21   -1    0    0  502  501  0.00000000000E+00  0.00000000000E+00  0.58470359722E+03  0.58470359722E+03  0.00000000000E+00 0. -1.
         21   -1    0    0  501  502 -0.00000000000E+00 -0.00000000000E+00 -0.35369422807E+03  0.35369422807E+03  0.00000000000E+00 0. -1.
         25    1    1    2    0    0 -0.22742937790E+03 -0.59093172822E+02  0.92241362152E+02  0.28169059959E+03  0.12500000000E+03 0.  0.
         25    1    1    2    0    0  0.23572605530E+03  0.20036063779E+03  0.26794218354E+03  0.42793594385E+03  0.12500000000E+03 0.  0.
         25    1    1    2    0    0 -0.82966773954E+01 -0.14126746497E+03 -0.12917417653E+03  0.22877128185E+03  0.12500000000E+03 0.  0.
</event>
<event>
 5    0  0.5641283E-005  0.2281983E+03  0.7546771E-02  0.1127914E+00
         21   -1    0    0  502  501  0.00000000000E+00  0.00000000000E+00  0.33222242419E+02  0.33222242419E+02  0.00000000000E+00 0. -1.
         21   -1    0    0  501  502 -0.00000000000E+00 -0.00000000000E+00 -0.15674583403E+04  0.15674583403E+04  0.00000000000E+00 0. -1.
         25    1    1    2    0    0  0.61006369631E+02 -0.24410220741E+02 -0.36842715445E+03  0.39456457539E+03  0.12500000000E+03 0.  0.
         25    1    1    2    0    0 -0.49748259221E+02 -0.20691607680E+02 -0.29174829503E+03  0.32193958995E+03  0.12500000000E+03 0.  0.
         25    1    1    2    0    0 -0.11258110409E+02  0.45101828421E+02 -0.87406064835E+03  0.88417641734E+03  0.12500000000E+03 0.  0.
</event>
<event>
 5    0  0.5641283E-005  0.2681588E+03  0.7546771E-02  0.1102338E+00
         21   -1    0    0  502  501  0.00000000000E+00  0.00000000000E+00  0.38051768358E+03  0.38051768358E+03  0.00000000000E+00 0. -1.
         21   -1    0    0  501  502 -0.00000000000E+00 -0.00000000000E+00 -0.18897720115E+03  0.18897720115E+03  0.00000000000E+00 0. -1.
         25    1    1    2    0    0 -0.18488957592E+01 -0.16245568881E+03  0.15692753335E+03  0.25815987288E+03  0.12500000000E+03 0.  0.
         25    1    1    2    0    0 -0.29307144223E+02  0.10535047497E+03  0.38034191600E+02  0.17037966724E+03  0.12500000000E+03 0.  0.
         25    1    1    2    0    0  0.31156039982E+02  0.57105213846E+02 -0.34212425188E+01  0.14095534462E+03  0.12500000000E+03 0.  0.
</event>
<event>
 5    0  0.5641283E-005  0.2436971E+03  0.7546771E-02  0.1117354E+00
         21   -1    0    0  502  501  0.00000000000E+00  0.00000000000E+00  0.58969844289E+03  0.58969844289E+03  0.00000000000E+00 0. -1.
         21   -1    0    0  501  502 -0.00000000000E+00 -0.00000000000E+00 -0.10070953310E+03  0.10070953310E+03  0.00000000000E+00 0. -1.
         25    1    1    2    0    0 -0.26374373342E+02 -0.10392680813E+03  0.11768930659E+03  0.20241581436E+03  0.12500000000E+03 0.  0.
         25    1    1    2    0    0 -0.87635379788E+01  0.18963746495E+02  0.60122611581E+02  0.14027170671E+03  0.12500000000E+03 0.  0.
         25    1    1    2    0    0  0.35137911320E+02  0.84963061638E+02  0.31117699162E+03  0.34772045492E+03  0.12500000000E+03 0.  0.
</event>
<event>
 5    0  0.5641283E-005  0.6021171E+03  0.7546771E-02  0.9901023E-01
         21   -1    0    0  502  501  0.00000000000E+00  0.00000000000E+00  0.10388652052E+04  0.10388652052E+04  0.00000000000E+00 0.  1.
         21   -1    0    0  501  502 -0.00000000000E+00 -0.00000000000E+00 -0.34898179302E+03  0.34898179302E+03  0.00000000000E+00 0.  1.
         25    1    1    2    0    0 -0.21169079705E+03  0.16399082055E+03 -0.23355984124E+03  0.37667118581E+03  0.12500000000E+03 0.  0.
         25    1    1    2    0    0  0.61272512365E+02 -0.68777462499E+02  0.18585495065E+03  0.24218117763E+03  0.12500000000E+03 0.  0.
         25    1    1    2    0    0  0.15041828468E+03 -0.95213358055E+02  0.73758830277E+03  0.76899463477E+03  0.12500000000E+03 0.  0.
</event>
<event>
 5    0  0.5641283E-005  0.3771720E+03  0.7546771E-02  0.1051984E+00
         21   -1    0    0  502  501  0.00000000000E+00  0.00000000000E+00  0.14947681799E+03  0.14947681799E+03  0.00000000000E+00 0. -1.
         21   -1    0    0  501  502 -0.00000000000E+00 -0.00000000000E+00 -0.95171065852E+03  0.95171065852E+03  0.00000000000E+00 0. -1.
         25    1    1    2    0    0  0.27207486920E+03  0.48922030830E+02 -0.25944290518E+03  0.39919133332E+03  0.12500000000E+03 0.  0.
         25    1    1    2    0    0 -0.88469631836E+02 -0.83396135271E+02 -0.89427162450E+02  0.19596940710E+03  0.12500000000E+03 0.  0.
         25    1    1    2    0    0 -0.18360523736E+03  0.34474104441E+02 -0.45336377289E+03  0.50602673609E+03  0.12500000000E+03 0.  0.
</event>
<event>
 5    0  0.5641283E-005  0.2783984E+03  0.7546771E-02  0.1096567E+00
         21   -1    0    0  502  501  0.00000000000E+00  0.00000000000E+00  0.41270520064E+03  0.41270520064E+03  0.00000000000E+00 0. -1.
         21   -1    0    0  501  502 -0.00000000000E+00 -0.00000000000E+00 -0.18779910395E+03  0.18779910395E+03  0.00000000000E+00 0. -1.
         25    1    1    2    0    0 -0.98039723711E+02  0.11634092592E+03  0.12759404018E+03  0.23463213241E+03  0.12500000000E+03 0.  0.
         25    1    1    2    0    0  0.13782789367E+03 -0.19058767091E+02  0.30934757294E+02  0.18958302689E+03  0.12500000000E+03 0.  0.
         25    1    1    2    0    0 -0.39788169955E+02 -0.97282158830E+02  0.66377299214E+02  0.17628914529E+03  0.12500000000E+03 0.  0.
</event>
<event>
 5    0  0.5641283E-005  0.3549071E+03  0.7546771E-02  0.1060619E+00
         21   -1    0    0  502  501  0.00000000000E+00  0.00000000000E+00  0.18304524676E+04  0.18304524676E+04  0.00000000000E+00 0.  1.
         21   -1    0    0  501  502 -0.00000000000E+00 -0.00000000000E+00 -0.68813052716E+02  0.68813052716E+02  0.00000000000E+00 0.  1.
         25    1    1    2    0    0  0.47742864368E+02  0.27695176102E+02  0.36473601381E+02  0.14142746365E+03  0.12500000000E+03 0.  0.
         25    1    1    2    0    0 -0.11053161905E+02  0.56794088953E+02  0.38872482421E+03  0.41240723791E+03  0.12500000000E+03 0.  0.
         25    1    1    2    0    0 -0.36689702463E+02 -0.84489265055E+02  0.13364409893E+04  0.13454308187E+04  0.12500000000E+03 0.  0.
</event>
<event>
 5    0  0.6274709E-005  0.4103910E+03  0.7546771E-02  0.1040240E+00
         21   -1    0    0  502  501  0.00000000000E+00  0.00000000000E+00  0.49359182620E+03  0.49359182620E+03  0.00000000000E+00 0. -1.
         21   -1    0    0  501  502 -0.00000000000E+00 -0.00000000000E+00 -0.34121469017E+03  0.34121469017E+03  0.00000000000E+00 0. -1.
         25    1    1    2    0    0 -0.12020948446E+03 -0.21619180313E+03  0.14834374981E+02  0.27755049013E+03  0.12500000000E+03 0.  0.
         25    1    1    2    0    0 -0.11222787240E+03  0.14180500113E+03  0.17436871024E+03  0.28059437058E+03  0.12500000000E+03 0.  0.
         25    1    1    2    0    0  0.23243735686E+03  0.74386802000E+02 -0.36825949191E+02  0.27666165566E+03  0.12500000000E+03 0.  0.
</event>
<event>
 5    0  0.5641283E-005  0.4532283E+03  0.7546771E-02  0.1026764E+00
         21   -1    0    0  502  501  0.00000000000E+00  0.00000000000E+00  0.10537889245E+04  0.10537889245E+04  0.00000000000E+00 0.  1.
         21   -1    0    0  501  502 -0.00000000000E+00 -0.00000000000E+00 -0.19493079004E+03  0.19493079004E+03  0.00000000000E+00 0.  1.
         25    1    1    2    0    0  0.13609288488E+03  0.30989943713E+03  0.93092471381E+02  0.37262600913E+03  0.12500000000E+03 0.  0.
         25    1    1    2    0    0 -0.87606367987E+02 -0.12644392236E+03  0.36917137074E+03  0.41901723376E+03  0.12500000000E+03 0.  0.
         25    1    1    2    0    0 -0.48486516896E+02 -0.18345551477E+03  0.39659429230E+03  0.45707647162E+03  0.12500000000E+03 0.  0.
</event>
<event>
 5    0  0.5641283E-005  0.2201554E+03  0.7546771E-02  0.1133767E+00
         21   -1    0    0  502  501  0.00000000000E+00  0.00000000000E+00  0.64879626646E+03  0.64879626646E+03  0.00000000000E+00 0.  1.
         21   -1    0    0  501  502 -0.00000000000E+00 -0.00000000000E+00 -0.74705092410E+02  0.74705092410E+02  0.00000000000E+00 0.  1.
         25    1    1    2    0    0 -0.80360115812E+02  0.16529485877E+02  0.20248363387E+03  0.25170537162E+03  0.12500000000E+03 0.  0.
         25    1    1    2    0    0  0.39044624989E+02  0.17908566889E+02  0.27436077216E+03  0.30453904973E+03  0.12500000000E+03 0.  0.
         25    1    1    2    0    0  0.41315490823E+02 -0.34438052766E+02  0.97246768024E+02  0.16725693753E+03  0.12500000000E+03 0.  0.
</event>
<event>
 5    0  0.5641283E-005  0.4365105E+03  0.7546771E-02  0.1031823E+00
         21   -1    0    0  502  501  0.00000000000E+00  0.00000000000E+00  0.40446754587E+03  0.40446754587E+03  0.00000000000E+00 0.  1.
         21   -1    0    0  501  502 -0.00000000000E+00 -0.00000000000E+00 -0.47109198134E+03  0.47109198134E+03  0.00000000000E+00 0.  1.
         25    1    1    2    0    0 -0.12688213279E+03 -0.24347472359E+03 -0.20874101048E+03  0.36684714270E+03  0.12500000000E+03 0.  0.
         25    1    1    2    0    0  0.19458330377E+03  0.25638525580E+03  0.11023437621E+03  0.36245369249E+03  0.12500000000E+03 0.  0.
         25    1    1    2    0    0 -0.67701170984E+02 -0.12910532216E+02  0.31882198804E+02  0.14625869203E+03  0.12500000000E+03 0.  0.
</event>
<event>
 5    0  0.5641283E-005  0.3486828E+03  0.7546771E-02  0.1063157E+00
         21   -1    0    0  502  501  0.00000000000E+00  0.00000000000E+00  0.57761937734E+02  0.57761937734E+02  0.00000000000E+00 0. -1.
         21   -1    0    0  501  502 -0.00000000000E+00 -0.00000000000E+00 -0.21048409141E+04  0.21048409141E+04  0.00000000000E+00 0. -1.
         25    1    1    2    0    0  0.75542410587E+01 -0.47834376588E+02 -0.70105703245E+03  0.71375847237E+03  0.12500000000E+03 0.  0.
         25    1    1    2    0    0 -0.11454273009E+03 -0.18216495007E+03 -0.72347064135E+03  0.76507442445E+03  0.12500000000E+03 0.  0.
         25    1    1    2    0    0  0.10698848903E+03  0.22999932666E+03 -0.62255130261E+03  0.68376995505E+03  0.12500000000E+03 0.  0.
</event>
<event>
 5    0  0.5641283E-005  0.3031044E+03  0.7546771E-02  0.1083699E+00
         21   -1    0    0  502  501  0.00000000000E+00  0.00000000000E+00  0.24628859672E+03  0.24628859672E+03  0.00000000000E+00 0. -1.
         21   -1    0    0  501  502 -0.00000000000E+00 -0.00000000000E+00 -0.37302692722E+03  0.37302692722E+03  0.00000000000E+00 0. -1.
         25    1    1    2    0    0 -0.13007222556E+03  0.10992256173E+02  0.64251771613E+01  0.18084771622E+03  0.12500000000E+03 0.  0.
         25    1    1    2    0    0  0.10541316199E+03 -0.12608358263E+03  0.21224418820E+02  0.20756801412E+03  0.12500000000E+03 0.  0.
         25    1    1    2    0    0  0.24659063568E+02  0.11509132646E+03 -0.15438792648E+03  0.23089979360E+03  0.12500000000E+03 0.  0.
</event>
<event>
 5    0  0.5641283E-005  0.3467082E+03  0.7546771E-02  0.1063974E+00
         21   -1    0    0  502  501  0.00000000000E+00  0.00000000000E+00  0.15868170783E+03  0.15868170783E+03  0.00000000000E+00 0. -1.
         21   -1    0    0  501  502 -0.00000000000E+00 -0.00000000000E+00 -0.75753265935E+03  0.75753265935E+03  0.00000000000E+00 0. -1.
         25    1    1    2    0    0  0.92220263202E+02 -0.56353961827E+02 -0.22488356934E+03  0.27906623894E+03  0.12500000000E+03 0.  0.
         25    1    1    2    0    0  0.11549904093E+03 -0.95197906200E+02 -0.42812972367E+02  0.19965124693E+03  0.12500000000E+03 0.  0.
         25    1    1    2    0    0 -0.20771930413E+03  0.15155186803E+03 -0.33115440981E+03  0.43749688130E+03  0.12500000000E+03 0.  0.
</event>
<event>
 5    0  0.5641283E-005  0.3601779E+03  0.7546771E-02  0.1058513E+00
         21   -1    0    0  502  501  0.00000000000E+00  0.00000000000E+00  0.17134651344E+04  0.17134651344E+04  0.00000000000E+00 0. -1.
         21   -1    0    0  501  502 -0.00000000000E+00 -0.00000000000E+00 -0.75710995515E+02  0.75710995515E+02  0.00000000000E+00 0. -1.
         25    1    1    2    0    0 -0.60498883627E+02 -0.28687941527E+00  0.12464670008E+04  0.12541790866E+04  0.12500000000E+03 0.  0.
         25    1    1    2    0    0  0.89705283651E+02 -0.11374594684E+03  0.17953766941E+03  0.26238131236E+03  0.12500000000E+03 0.  0.
         25    1    1    2    0    0 -0.29206400025E+02  0.11403282626E+03  0.21174946862E+03  0.27261573089E+03  0.12500000000E+03 0.  0.
</event>
<event>
 5    0  0.5641283E-005  0.4222355E+03  0.7546771E-02  0.1036341E+00
         21   -1    0    0  502  501  0.00000000000E+00  0.00000000000E+00  0.69135647996E+03  0.69135647996E+03  0.00000000000E+00 0.  1.
         21   -1    0    0  501  502 -0.00000000000E+00 -0.00000000000E+00 -0.25787395576E+03  0.25787395576E+03  0.00000000000E+00 0.  1.
         25    1    1    2    0    0 -0.14954438581E+03 -0.19199716114E+03 -0.71142287066E+01  0.27368238062E+03  0.12500000000E+03 0.  0.
         25    1    1    2    0    0  0.93161725308E+02 -0.32174367796E+02 -0.38442845869E+01  0.15922963144E+03  0.12500000000E+03 0.  0.
         25    1    1    2    0    0  0.56382660503E+02  0.22417152894E+03  0.44444103750E+03  0.51631842365E+03  0.12500000000E+03 0.  0.
</event>
<event>
 5    0  0.5641283E-005  0.2450258E+03  0.7546771E-02  0.1116489E+00
         21   -1    0    0  502  501  0.00000000000E+00  0.00000000000E+00  0.14180156292E+03  0.14180156292E+03  0.00000000000E+00 0. -1.
         21   -1    0    0  501  502 -0.00000000000E+00 -0.00000000000E+00 -0.42339192387E+03  0.42339192387E+03  0.00000000000E+00 0. -1.
         25    1    1    2    0    0 -0.24506701991E+02  0.42956810766E+02 -0.42536405783E+02  0.14099720512E+03  0.12500000000E+03 0.  0.
         25    1    1    2    0    0 -0.14411733421E+02 -0.12948968559E+03 -0.70323034543E+02  0.19376688552E+03  0.12500000000E+03 0.  0.
         25    1    1    2    0    0  0.38918435412E+02  0.86532874828E+02 -0.16873092062E+03  0.23042939616E+03  0.12500000000E+03 0.  0.
</event>
<event>
 5    0  0.5641283E-005  0.3205963E+03  0.7546771E-02  0.1075375E+00
         21   -1    0    0  502  501  0.00000000000E+00  0.00000000000E+00  0.68157167370E+03  0.68157167370E+03  0.00000000000E+00 0.  1.
         21   -1    0    0  501  502 -0.00000000000E+00 -0.00000000000E+00 -0.15080141125E+03  0.15080141125E+03  0.00000000000E+00 0.  1.
         25    1    1    2    0    0 -0.30326041148E+02 -0.35503358125E+02  0.70911615839E+02  0.15110795634E+03  0.12500000000E+03 0.  0.
         25    1    1    2    0    0 -0.36905877730E+02 -0.97272407840E+02  0.45894305995E+03  0.48690625116E+03  0.12500000000E+03 0.  0.
         25    1    1    2    0    0  0.67231918878E+02  0.13277576597E+03  0.91558666750E+00  0.19435887745E+03  0.12500000000E+03 0.  0.
</event>
<event>
 5    0  0.5641283E-005  0.4025508E+03  0.7546771E-02  0.1042900E+00
         21   -1    0    0  502  501  0.00000000000E+00  0.00000000000E+00  0.72848479804E+02  0.72848479804E+02  0.00000000000E+00 0. -1.
         21   -1    0    0  501  502 -0.00000000000E+00 -0.00000000000E+00 -0.22244405464E+04  0.22244405464E+04  0.00000000000E+00 0. -1.
         25    1    1    2    0    0  0.12867697603E+03  0.33405883538E+02 -0.19257662354E+03  0.26530072211E+03  0.12500000000E+03 0.  0.
         25    1    1    2    0    0 -0.15686360455E+02  0.40235914877E+02 -0.17442360340E+04  0.17492425027E+04  0.12500000000E+03 0.  0.
         25    1    1    2    0    0 -0.11299061558E+03 -0.73641798415E+02 -0.21477940904E+03  0.28274580143E+03  0.12500000000E+03 0.  0.
</event>
<event>
 5    0  0.5641283E-005  0.2461318E+03  0.7546771E-02  0.1115774E+00
         21   -1    0    0  502  501  0.00000000000E+00  0.00000000000E+00  0.66303797490E+02  0.66303797490E+02  0.00000000000E+00 0.  1.
         21   -1    0    0  501  502 -0.00000000000E+00 -0.00000000000E+00 -0.91368617041E+03  0.91368617041E+03  0.00000000000E+00 0.  1.
         25    1    1    2    0    0  0.22098832664E+02 -0.77846866536E+02 -0.30850723877E+03  0.34256416831E+03  0.12500000000E+03 0.  0.
         25    1    1    2    0    0 -0.11788846324E+03  0.22646564935E+02 -0.26128570455E+03  0.31353751940E+03  0.12500000000E+03 0.  0.
         25    1    1    2    0    0  0.95789630571E+02  0.55200301601E+02 -0.27758942960E+03  0.32388828019E+03  0.12500000000E+03 0.  0.
</event>
<event>
 5    0  0.5641283E-005  0.2688079E+03  0.7546771E-02  0.1101964E+00
         21   -1    0    0  502  501  0.00000000000E+00  0.00000000000E+00  0.14558950364E+03  0.14558950364E+03  0.00000000000E+00 0.  1.
         21   -1    0    0  501  502 -0.00000000000E+00 -0.00000000000E+00 -0.49631099765E+03  0.49631099765E+03  0.00000000000E+00 0.  1.
         25    1    1    2    0    0 -0.12002209783E+03  0.28781201701E+02 -0.19505951264E+03  0.26250119049E+03  0.12500000000E+03 0.  0.
         25    1    1    2    0    0  0.29677934276E+02 -0.28677005095E+02  0.33008378688E+02  0.13571183982E+03  0.12500000000E+03 0.  0.
         25    1    1    2    0    0  0.90344163557E+02 -0.10419660602E+00 -0.18867036006E+03  0.24368747098E+03  0.12500000000E+03 0.  0.
</event>
<event>
 5    0  0.5641283E-005  0.3032822E+03  0.7546771E-02  0.1083611E+00
         21   -1    0    0  502  501  0.00000000000E+00  0.00000000000E+00  0.66150938835E+02  0.66150938835E+02  0.00000000000E+00 0. -1.
         21   -1    0    0  501  502 -0.00000000000E+00 -0.00000000000E+00 -0.13904578294E+04  0.13904578294E+04  0.00000000000E+00 0. -1.
         25    1    1    2    0    0  0.13104465321E+03  0.12610124928E+03 -0.28833347035E+03  0.36309147102E+03  0.12500000000E+03 0.  0.
         25    1    1    2    0    0  0.16961289628E+02 -0.82523133545E+02 -0.41202630334E+03  0.43873503115E+03  0.12500000000E+03 0.  0.
         25    1    1    2    0    0 -0.14800594284E+03 -0.43578115736E+02 -0.62394711686E+03  0.65478226605E+03  0.12500000000E+03 0.  0.
</event>
<event>
 5    0  0.5641283E-005  0.2986742E+03  0.7546771E-02  0.1085905E+00
         21   -1    0    0  502  501  0.00000000000E+00  0.00000000000E+00  0.37548440310E+03  0.37548440310E+03  0.00000000000E+00 0.  1.
         21   -1    0    0  501  502 -0.00000000000E+00 -0.00000000000E+00 -0.23757645420E+03  0.23757645420E+03  0.00000000000E+00 0.  1.
         25    1    1    2    0    0  0.13406511541E+03 -0.70525224534E+02  0.96586092704E+02  0.21886328100E+03  0.12500000000E+03 0.  0.
         25    1    1    2    0    0  0.61885874611E+02  0.49876976364E+02 -0.28049860843E+02  0.15076262448E+03  0.12500000000E+03 0.  0.
         25    1    1    2    0    0 -0.19595099002E+03  0.20648248170E+02  0.69371717036E+02  0.24343495182E+03  0.12500000000E+03 0.  0.
</event>
<event>
 5    0  0.5641283E-005  0.2997850E+03  0.7546771E-02  0.1085348E+00
         21   -1    0    0  502  501  0.00000000000E+00  0.00000000000E+00  0.15220512485E+03  0.15220512485E+03  0.00000000000E+00 0.  1.
         21   -1    0    0  501  502 -0.00000000000E+00 -0.00000000000E+00 -0.59045989204E+03  0.59045989204E+03  0.00000000000E+00 0.  1.
         25    1    1    2    0    0  0.12255811984E+00 -0.57986982166E+02 -0.13829635007E+03  0.19522649811E+03  0.12500000000E+03 0.  0.
         25    1    1    2    0    0 -0.36004062188E+02  0.20619507062E+03 -0.23812537989E+03  0.34079524086E+03  0.12500000000E+03 0.  0.
         25    1    1    2    0    0  0.35881504068E+02 -0.14820808846E+03 -0.61833037228E+02  0.20664327792E+03  0.12500000000E+03 0.  0.
</event>
<event>
 5    0  0.5641283E-005  0.3507551E+03  0.7546771E-02  0.1062306E+00
         21   -1    0    0  502  501  0.00000000000E+00  0.00000000000E+00  0.17106493134E+03  0.17106493134E+03  0.00000000000E+00 0.  1.
         21   -1    0    0  501  502 -0.00000000000E+00 -0.00000000000E+00 -0.71919571524E+03  0.71919571524E+03  0.00000000000E+00 0.  1.
         25    1    1    2    0    0  0.11390696794E+03  0.79790493069E+02 -0.12285155356E+03  0.22373829431E+03  0.12500000000E+03 0.  0.
         25    1    1    2    0    0  0.69773490354E+02  0.71634266455E+02  0.38439169518E+01  0.16012365155E+03  0.12500000000E+03 0.  0.
         25    1    1    2    0    0 -0.18368045830E+03 -0.15142475952E+03 -0.42912314729E+03  0.50639870073E+03  0.12500000000E+03 0.  0.
</event>
<event>
 5    0  0.5641283E-005  0.3747520E+03  0.7546771E-02  0.1052891E+00
         21   -1    0    0  502  501  0.00000000000E+00  0.00000000000E+00  0.15372989599E+03  0.15372989599E+03  0.00000000000E+00 0.  1.
         21   -1    0    0  501  502 -0.00000000000E+00 -0.00000000000E+00 -0.91354429731E+03  0.91354429731E+03  0.00000000000E+00 0.  1.
         25    1    1    2    0    0 -0.11551834473E+03  0.22745465669E+03 -0.26061826035E+03  0.38552170684E+03  0.12500000000E+03 0.  0.
         25    1    1    2    0    0  0.83119057498E+02 -0.33487315413E+02 -0.28339322955E+02  0.15639148071E+03  0.12500000000E+03 0.  0.
         25    1    1    2    0    0  0.32399287232E+02 -0.19396734127E+03 -0.47085681801E+03  0.52536100575E+03  0.12500000000E+03 0.  0.
</event>
<event>
 5    0  0.5641283E-005  0.3093998E+03  0.7546771E-02  0.1080634E+00
         21   -1    0    0  502  501  0.00000000000E+00  0.00000000000E+00  0.20397823257E+03  0.20397823257E+03  0.00000000000E+00 0.  1.
         21   -1    0    0  501  502 -0.00000000000E+00 -0.00000000000E+00 -0.46930600838E+03  0.46930600838E+03  0.00000000000E+00 0.  1.
         25    1    1    2    0    0  0.83808806722E+02  0.14690330703E+03  0.45326200226E+02  0.21513707753E+03  0.12500000000E+03 0.  0.
         25    1    1    2    0    0  0.24275090041E+02 -0.21162481043E+02 -0.11752082504E+03  0.17456596151E+03  0.12500000000E+03 0.  0.
         25    1    1    2    0    0 -0.10808389676E+03 -0.12574082599E+03 -0.19313315099E+03  0.28358120190E+03  0.12500000000E+03 0.  0.
</event>
<event>
 5    0  0.5641283E-005  0.3138106E+03  0.7546771E-02  0.1078534E+00
         21   -1    0    0  502  501  0.00000000000E+00  0.00000000000E+00  0.19353899356E+03  0.19353899356E+03  0.00000000000E+00 0.  1.
         21   -1    0    0  501  502 -0.00000000000E+00 -0.00000000000E+00 -0.50882292390E+03  0.50882292390E+03  0.00000000000E+00 0.  1.
         25    1    1    2    0    0  0.20864477866E+02  0.11436886617E+02 -0.18842393095E+03  0.22736469947E+03  0.12500000000E+03 0.  0.
         25    1    1    2    0    0 -0.14059239964E+02 -0.19442123303E+03 -0.97884912416E+02  0.25140352854E+03  0.12500000000E+03 0.  0.
         25    1    1    2    0    0 -0.68052379016E+01  0.18298434642E+03 -0.28975086969E+02  0.22359368945E+03  0.12500000000E+03 0.  0.
</event>
<event>
 5    0  0.5641283E-005  0.3237293E+03  0.7546771E-02  0.1073946E+00
         21   -1    0    0  502  501  0.00000000000E+00  0.00000000000E+00  0.50423367382E+03  0.50423367382E+03  0.00000000000E+00 0. -1.
         21   -1    0    0  501  502 -0.00000000000E+00 -0.00000000000E+00 -0.20784151062E+03  0.20784151062E+03  0.00000000000E+00 0. -1.
         25    1    1    2    0    0  0.15007353506E+03 -0.17585030555E+03  0.79242851056E+02  0.27449922647E+03  0.12500000000E+03 0.  0.
         25    1    1    2    0    0  0.50364101947E+01  0.19406996687E+02  0.72332536837E+02  0.14580463927E+03  0.12500000000E+03 0.  0.
         25    1    1    2    0    0 -0.15510994526E+03  0.15644330886E+03  0.14481677531E+03  0.29177131870E+03  0.12500000000E+03 0.  0.
</event>
<event>
 5    0  0.5641283E-005  0.2793525E+03  0.7546771E-02  0.1096043E+00
         21   -1    0    0  502  501  0.00000000000E+00  0.00000000000E+00  0.35880496366E+03  0.35880496366E+03  0.00000000000E+00 0.  1.
         21   -1    0    0  501  502 -0.00000000000E+00 -0.00000000000E+00 -0.21749377258E+03  0.21749377258E+03  0.00000000000E+00 0.  1.
         25    1    1    2    0    0 -0.68577649424E+02 -0.18393500770E+02  0.86332879191E+02  0.16768894090E+03  0.12500000000E+03 0.  0.
         25    1    1    2    0    0 -0.10972720296E+03  0.37539352944E+02  0.80444705232E+02  0.18853544147E+03  0.12500000000E+03 0.  0.
         25    1    1    2    0    0  0.17830485238E+03 -0.19145852174E+02 -0.25466393344E+02  0.22007435387E+03  0.12500000000E+03 0.  0.
</event>
<event>
 5    0  0.5641283E-005  0.4754501E+03  0.7546771E-02  0.1020393E+00
         21   -1    0    0  502  501  0.00000000000E+00  0.00000000000E+00  0.21654880362E+03  0.21654880362E+03  0.00000000000E+00 0.  1.
         21   -1    0    0  501  502 -0.00000000000E+00 -0.00000000000E+00 -0.10438884361E+04  0.10438884361E+04  0.00000000000E+00 0.  1.
         25    1    1    2    0    0 -0.24970412135E+03  0.72909630201E+02 -0.16422151753E+03  0.33205672590E+03  0.12500000000E+03 0.  0.
         25    1    1    2    0    0  0.20540295806E+03  0.19472355048E+03 -0.50016950329E+03  0.58813448149E+03  0.12500000000E+03 0.  0.
         25    1    1    2    0    0  0.44301163284E+02 -0.26763318069E+03 -0.16294861163E+03  0.34024603231E+03  0.12500000000E+03 0.  0.
</event>
<event>
 5    0  0.5641283E-005  0.2605969E+03  0.7546771E-02  0.1106785E+00
         21   -1    0    0  502  501  0.00000000000E+00  0.00000000000E+00  0.65256791939E+03  0.65256791939E+03  0.00000000000E+00 0.  1.
         21   -1    0    0  501  502 -0.00000000000E+00 -0.00000000000E+00 -0.10406695405E+03  0.10406695405E+03  0.00000000000E+00 0.  1.
         25    1    1    2    0    0 -0.48479847875E+02  0.11193725946E+03  0.20908607056E+03  0.27243757195E+03  0.12500000000E+03 0.  0.
         25    1    1    2    0    0  0.76553788719E+02 -0.82999976678E+02  0.66081348512E+02  0.18094536003E+03  0.12500000000E+03 0.  0.
         25    1    1    2    0    0 -0.28073940844E+02 -0.28937282779E+02  0.27333354627E+03  0.30325194147E+03  0.12500000000E+03 0.  0.
</event>
<event>
 5    0  0.5641283E-005  0.2504580E+03  0.7546771E-02  0.1113016E+00
         21   -1    0    0  502  501  0.00000000000E+00  0.00000000000E+00  0.17241386655E+03  0.17241386655E+03  0.00000000000E+00 0.  1.
         21   -1    0    0  501  502 -0.00000000000E+00 -0.00000000000E+00 -0.36382917638E+03  0.36382917638E+03  0.00000000000E+00 0.  1.
         25    1    1    2    0    0  0.37755778363E+02 -0.54442699589E+02  0.59559687295E+02  0.15349873840E+03  0.12500000000E+03 0.  0.
         25    1    1    2    0    0  0.16175307506E+02 -0.16451382817E+02 -0.15989697422E+03  0.20426534443E+03  0.12500000000E+03 0.  0.
         25    1    1    2    0    0 -0.53931085868E+02  0.70894082405E+02 -0.91078022904E+02  0.17847896010E+03  0.12500000000E+03 0.  0.
</event>
<event>
 5    0  0.5641283E-005  0.4002288E+03  0.7546771E-02  0.1043700E+00
         21   -1    0    0  502  501  0.00000000000E+00  0.00000000000E+00  0.11477356339E+04  0.11477356339E+04  0.00000000000E+00 0.  1.
         21   -1    0    0  501  502 -0.00000000000E+00 -0.00000000000E+00 -0.13956446654E+03  0.13956446654E+03  0.00000000000E+00 0.  1.
         25    1    1    2    0    0  0.51376276813E+02  0.17489111998E+03  0.20919084171E+02  0.22201133698E+03  0.12500000000E+03 0.  0.
         25    1    1    2    0    0  0.54728313239E+02  0.13090111065E+02  0.49237675598E+03  0.51110312962E+03  0.12500000000E+03 0.  0.
         25    1    1    2    0    0 -0.10610459005E+03 -0.18798123104E+03  0.49487532718E+03  0.55418563380E+03  0.12500000000E+03 0.  0.
</event>
<event>
 5    0  0.5641283E-005  0.7180618E+03  0.7546771E-02  0.9686833E-01
         21   -1    0    0  502  501  0.00000000000E+00  0.00000000000E+00  0.16157251267E+04  0.16157251267E+04  0.00000000000E+00 0. -1.
         21   -1    0    0  501  502 -0.00000000000E+00 -0.00000000000E+00 -0.31912157057E+03  0.31912157057E+03  0.00000000000E+00 0. -1.
         25    1    1    2    0    0  0.14193133995E+03 -0.12258735229E+03  0.26644605481E+03  0.34898519213E+03  0.12500000000E+03 0.  0.
         25    1    1    2    0    0 -0.11418253063E+03  0.32675981534E+03  0.12230212143E+04  0.12771904783E+04  0.12500000000E+03 0.  0.
         25    1    1    2    0    0 -0.27748809319E+02 -0.20417246305E+03 -0.19286371292E+03  0.30867102690E+03  0.12500000000E+03 0.  0.
</event>
<event>
 5    0  0.5641283E-005  0.3557957E+03  0.7546771E-02  0.1060261E+00
         21   -1    0    0  502  501  0.00000000000E+00  0.00000000000E+00  0.11059099727E+03  0.11059099727E+03  0.00000000000E+00 0.  1.
         21   -1    0    0  501  502 -0.00000000000E+00 -0.00000000000E+00 -0.11446733257E+04  0.11446733257E+04  0.00000000000E+00 0.  1.
         25    1    1    2    0    0  0.31771562612E+02  0.98091075083E+02 -0.13651721168E+03  0.21188024987E+03  0.12500000000E+03 0.  0.
         25    1    1    2    0    0 -0.16124882436E+03 -0.30992236431E+02 -0.80338212802E+03  0.82946340830E+03  0.12500000000E+03 0.  0.
         25    1    1    2    0    0  0.12947726175E+03 -0.67098838652E+02 -0.94182988723E+02  0.21392066479E+03  0.12500000000E+03 0.  0.
</event>
<event>
 5    0  0.5723996E-005  0.2859064E+03  0.7546771E-02  0.1092506E+00
         21   -1    0    0  502  501  0.00000000000E+00  0.00000000000E+00  0.55100035315E+03  0.55100035315E+03  0.00000000000E+00 0.  1.
         21   -1    0    0  501  502 -0.00000000000E+00 -0.00000000000E+00 -0.14835283513E+03  0.14835283513E+03  0.00000000000E+00 0.  1.
         25    1    1    2    0    0  0.23243862396E+02 -0.70051351266E+02  0.31734088681E+03  0.34896662791E+03  0.12500000000E+03 0.  0.
         25    1    1    2    0    0  0.86622418009E+02  0.48217501458E+02 -0.53336014830E+01  0.15963025419E+03  0.12500000000E+03 0.  0.
         25    1    1    2    0    0 -0.10986628040E+03  0.21833849808E+02  0.90640232691E+02  0.19075630619E+03  0.12500000000E+03 0.  0.
</event>
<event>
 5    0  0.5641283E-005  0.2542513E+03  0.7546771E-02  0.1110647E+00
         21   -1    0    0  502  501  0.00000000000E+00  0.00000000000E+00  0.26047463745E+03  0.26047463745E+03  0.00000000000E+00 0. -1.
         21   -1    0    0  501  502 -0.00000000000E+00 -0.00000000000E+00 -0.24817661365E+03  0.24817661365E+03  0.00000000000E+00 0. -1.
         25    1    1    2    0    0 -0.38476860776E+02  0.10753687989E+03 -0.73025229104E+02  0.18439721646E+03  0.12500000000E+03 0.  0.
         25    1    1    2    0    0  0.87670794415E+02 -0.76380795872E+02  0.20716046333E+02  0.17197194174E+03  0.12500000000E+03 0.  0.
         25    1    1    2    0    0 -0.49193933639E+02 -0.31156084018E+02  0.64607206571E+02  0.15228209290E+03  0.12500000000E+03 0.  0.
</event>
<event>
 5    0  0.5641283E-005  0.3898527E+03  0.7546771E-02  0.1047351E+00
         21   -1    0    0  502  501  0.00000000000E+00  0.00000000000E+00  0.30169716763E+03  0.30169716763E+03  0.00000000000E+00 0. -1.
         21   -1    0    0  501  502 -0.00000000000E+00 -0.00000000000E+00 -0.50376713926E+03  0.50376713926E+03  0.00000000000E+00 0. -1.
         25    1    1    2    0    0  0.15584961971E+03  0.21314877798E+03 -0.22285799771E+03  0.36744005315E+03  0.12500000000E+03 0.  0.
         25    1    1    2    0    0 -0.17762190479E+03 -0.58686435041E+02  0.63171505906E+02  0.23368628089E+03  0.12500000000E+03 0.  0.
         25    1    1    2    0    0  0.21772285076E+02 -0.15446234294E+03 -0.42383479832E+02  0.20433797285E+03  0.12500000000E+03 0.  0.
</event>
<event>
 5    0  0.5641283E-005  0.3012979E+03  0.7546771E-02  0.1084594E+00
         21   -1    0    0  502  501  0.00000000000E+00  0.00000000000E+00  0.22571949720E+03  0.22571949720E+03  0.00000000000E+00 0.  1.
         21   -1    0    0  501  502 -0.00000000000E+00 -0.00000000000E+00 -0.40218242262E+03  0.40218242262E+03  0.00000000000E+00 0.  1.
         25    1    1    2    0    0 -0.88355274772E+02  0.42382590130E+01 -0.35377957247E+02  0.15716620909E+03  0.12500000000E+03 0.  0.
         25    1    1    2    0    0  0.55192876695E+02  0.17338007548E+03 -0.11662720327E+03  0.24966739626E+03  0.12500000000E+03 0.  0.
         25    1    1    2    0    0  0.33162398077E+02 -0.17761833450E+03 -0.24457764899E+02  0.22106831446E+03  0.12500000000E+03 0.  0.
</event>
<event>
 5    0  0.5641283E-005  0.4133569E+03  0.7546771E-02  0.1039250E+00
         21   -1    0    0  502  501  0.00000000000E+00  0.00000000000E+00  0.10397687548E+04  0.10397687548E+04  0.00000000000E+00 0.  1.
         21   -1    0    0  501  502 -0.00000000000E+00 -0.00000000000E+00 -0.16432874087E+03  0.16432874087E+03  0.00000000000E+00 0.  1.
         25    1    1    2    0    0 -0.18142732358E+03  0.24090764258E+03  0.29938227538E+03  0.44295272074E+03  0.12500000000E+03 0.  0.
         25    1    1    2    0    0  0.22976804503E+02 -0.22509165324E+03  0.17581438557E+03  0.31261779233E+03  0.12500000000E+03 0.  0.
         25    1    1    2    0    0  0.15845051908E+03 -0.15815989336E+02  0.40024335294E+03  0.44852698257E+03  0.12500000000E+03 0.  0.
</event>
<event>
 5    0  0.5641283E-005  0.2874552E+03  0.7546771E-02  0.1091685E+00
         21   -1    0    0  502  501  0.00000000000E+00  0.00000000000E+00  0.90619920810E+03  0.90619920810E+03  0.00000000000E+00 0.  1.
         21   -1    0    0  501  502 -0.00000000000E+00 -0.00000000000E+00 -0.91183609543E+02  0.91183609543E+02  0.00000000000E+00 0.  1.
         25    1    1    2    0    0 -0.88967286727E+02 -0.14081941173E+03  0.34188402397E+03  0.40031858647E+03  0.12500000000E+03 0.  0.
         25    1    1    2    0    0  0.67485843677E+02  0.15492555760E+03  0.17767815177E+03  0.27522861972E+03  0.12500000000E+03 0.  0.
         25    1    1    2    0    0  0.21481443051E+02 -0.14106145878E+02  0.29545342281E+03  0.32183561145E+03  0.12500000000E+03 0.  0.
</event>
<event>
 5    0  0.5641283E-005  0.2449052E+03  0.7546771E-02  0.1116568E+00
         21   -1    0    0  502  501  0.00000000000E+00  0.00000000000E+00  0.46346441323E+02  0.46346441323E+02  0.00000000000E+00 0. -1.
         21   -1    0    0  501  502 -0.00000000000E+00 -0.00000000000E+00 -0.12941347535E+04  0.12941347535E+04  0.00000000000E+00 0. -1.
         25    1    1    2    0    0 -0.57656952149E+02  0.93435830518E+02 -0.23124103646E+03  0.28487189314E+03  0.12500000000E+03 0.  0.
         25    1    1    2    0    0  0.28703359170E+02 -0.60883623317E+01 -0.50198294954E+03  0.51814364091E+03  0.12500000000E+03 0.  0.
         25    1    1    2    0    0  0.28953592979E+02 -0.87347468186E+02 -0.51456432621E+03  0.53746566081E+03  0.12500000000E+03 0.  0.
</event>
<event>
 5    0  0.5641283E-005  0.3634420E+03  0.7546771E-02  0.1057229E+00
         21   -1    0    0  502  501  0.00000000000E+00  0.00000000000E+00  0.46136848134E+03  0.46136848134E+03  0.00000000000E+00 0.  1.
         21   -1    0    0  501  502 -0.00000000000E+00 -0.00000000000E+00 -0.28630065968E+03  0.28630065968E+03  0.00000000000E+00 0.  1.
         25    1    1    2    0    0 -0.61384881445E+02 -0.52629799210E+02  0.18656928319E+02  0.15003693015E+03  0.12500000000E+03 0.  0.
         25    1    1    2    0    0 -0.12684882748E+03  0.22093692647E+03  0.19684944790E+02  0.28445781333E+03  0.12500000000E+03 0.  0.
         25    1    1    2    0    0  0.18823370893E+03 -0.16830712726E+03  0.13672594856E+03  0.31317439754E+03  0.12500000000E+03 0.  0.
</event>
<event>
 5    0  0.5641283E-005  0.2406322E+03  0.7546771E-02  0.1119372E+00
         21   -1    0    0  502  501  0.00000000000E+00  0.00000000000E+00  0.90679849364E+02  0.90679849364E+02  0.00000000000E+00 0.  1.
         21   -1    0    0  501  502 -0.00000000000E+00 -0.00000000000E+00 -0.63855271762E+03  0.63855271762E+03  0.00000000000E+00 0.  1.
         25    1    1    2    0    0  0.36820457698E+02  0.41302443180E+02 -0.35796509125E+02  0.14130827288E+03  0.12500000000E+03 0.  0.
         25    1    1    2    0    0 -0.83774608076E+02 -0.11348395732E+02 -0.29401761025E+03  0.33048196044E+03  0.12500000000E+03 0.  0.
         25    1    1    2    0    0  0.46954150378E+02 -0.29954047448E+02 -0.21805874888E+03  0.25744233366E+03  0.12500000000E+03 0.  0.
</event>
<event>
 5    0  0.5641283E-005  0.2288333E+03  0.7546771E-02  0.1127464E+00
         21   -1    0    0  502  501  0.00000000000E+00  0.00000000000E+00  0.99646561350E+02  0.99646561350E+02  0.00000000000E+00 0.  1.
         21   -1    0    0  501  502 -0.00000000000E+00 -0.00000000000E+00 -0.52550404619E+03  0.52550404619E+03  0.00000000000E+00 0.  1.
         25    1    1    2    0    0 -0.14708868910E+02 -0.56848786791E+02 -0.22804120474E+03  0.26660068725E+03  0.12500000000E+03 0.  0.
         25    1    1    2    0    0 -0.32325721271E+02  0.58366620935E+01 -0.16891989003E+03  0.21269214402E+03  0.12500000000E+03 0.  0.
         25    1    1    2    0    0  0.47034590181E+02  0.51012124698E+02 -0.28896390075E+02  0.14585777627E+03  0.12500000000E+03 0.  0.
</event>
<event>
 5    0  0.5641283E-005  0.2280861E+03  0.7546771E-02  0.1127994E+00
         21   -1    0    0  502  501  0.00000000000E+00  0.00000000000E+00  0.34978445582E+03  0.34978445582E+03  0.00000000000E+00 0. -1.
         21   -1    0    0  501  502 -0.00000000000E+00 -0.00000000000E+00 -0.14872946691E+03  0.14872946691E+03  0.00000000000E+00 0. -1.
         25    1    1    2    0    0  0.40463393470E+02  0.96876524906E+01  0.43950710256E+02  0.13888053051E+03  0.12500000000E+03 0.  0.
         25    1    1    2    0    0  0.90586256564E+01 -0.26550062789E+01  0.18369997821E+03  0.22239557044E+03  0.12500000000E+03 0.  0.
         25    1    1    2    0    0 -0.49522019126E+02 -0.70326462116E+01 -0.26595699561E+02  0.13723782178E+03  0.12500000000E+03 0.  0.
</event>
<event>
 5    0  0.5641283E-005  0.2212923E+03  0.7546771E-02  0.1132923E+00
         21   -1    0    0  502  501  0.00000000000E+00  0.00000000000E+00  0.36676949437E+03  0.36676949437E+03  0.00000000000E+00 0. -1.
         21   -1    0    0  501  502 -0.00000000000E+00 -0.00000000000E+00 -0.13351791952E+03  0.13351791952E+03  0.00000000000E+00 0. -1.
         25    1    1    2    0    0  0.27987098937E+02  0.79492199248E+02  0.12511429242E+03  0.19591037139E+03  0.12500000000E+03 0.  0.
         25    1    1    2    0    0  0.25848277449E+02 -0.58566653455E+02  0.86627914464E+02  0.16500782378E+03  0.12500000000E+03 0.  0.
         25    1    1    2    0    0 -0.53835376386E+02 -0.20925545793E+02  0.21509367960E+02  0.13936921872E+03  0.12500000000E+03 0.  0.
</event>
<event>
 5    0  0.5641283E-005  0.2581456E+03  0.7546771E-02  0.1108263E+00
         21   -1    0    0  502  501  0.00000000000E+00  0.00000000000E+00  0.53687856773E+03  0.53687856773E+03  0.00000000000E+00 0.  1.
         21   -1    0    0  501  502 -0.00000000000E+00 -0.00000000000E+00 -0.12412336500E+03  0.12412336500E+03  0.00000000000E+00 0.  1.
         25    1    1    2    0    0  0.74450849822E+02 -0.69657938797E+02  0.24982753867E+03  0.29737847359E+03  0.12500000000E+03 0.  0.
         25    1    1    2    0    0 -0.30152902838E+02 -0.19018393882E+02 -0.74726139576E+01  0.13019883569E+03  0.12500000000E+03 0.  0.
         25    1    1    2    0    0 -0.44297946984E+02  0.88676332679E+02  0.17040027801E+03  0.23342462344E+03  0.12500000000E+03 0.  0.
</event>
<event>
 5    0  0.5641283E-005  0.5427906E+03  0.7546771E-02  0.1003177E+00
         21   -1    0    0  502  501  0.00000000000E+00  0.00000000000E+00  0.18472734838E+03  0.18472734838E+03  0.00000000000E+00 0. -1.
         21   -1    0    0  501  502 -0.00000000000E+00 -0.00000000000E+00 -0.15949001590E+04  0.15949001590E+04  0.00000000000E+00 0. -1.
         25    1    1    2    0    0  0.90117179745E+02 -0.32213905485E+03 -0.96778646885E+02  0.36998078766E+03  0.12500000000E+03 0.  0.
         25    1    1    2    0    0 -0.16563761897E+03  0.16163783136E+03 -0.46807188811E+03  0.53691610311E+03  0.12500000000E+03 0.  0.
         25    1    1    2    0    0  0.75520439226E+02  0.16050122349E+03 -0.84532227565E+03  0.87273061662E+03  0.12500000000E+03 0.  0.
</event>
<event>
 5    0  0.5641283E-005  0.2876996E+03  0.7546771E-02  0.1091556E+00
         21   -1    0    0  502  501  0.00000000000E+00  0.00000000000E+00  0.89669323878E+02  0.89669323878E+02  0.00000000000E+00 0. -1.
         21   -1    0    0  501  502 -0.00000000000E+00 -0.00000000000E+00 -0.92307024379E+03  0.92307024379E+03  0.00000000000E+00 0. -1.
         25    1    1    2    0    0  0.78482334454E+02 -0.62347549153E+02 -0.14846502992E+03  0.21843433525E+03  0.12500000000E+03 0.  0.
         25    1    1    2    0    0  0.85385037624E+02 -0.26968182775E+02 -0.15312248795E+03  0.21700088444E+03  0.12500000000E+03 0.  0.
         25    1    1    2    0    0 -0.16386737208E+03  0.89315731928E+02 -0.53181340205E+03  0.57730434798E+03  0.12500000000E+03 0.  0.
</event>
<event>
 5    0  0.5641283E-005  0.2585311E+03  0.7546771E-02  0.1108029E+00
         21   -1    0    0  502  501  0.00000000000E+00  0.00000000000E+00  0.21356748791E+03  0.21356748791E+03  0.00000000000E+00 0. -1.
         21   -1    0    0  501  502 -0.00000000000E+00 -0.00000000000E+00 -0.31296128231E+03  0.31296128231E+03  0.00000000000E+00 0. -1.
         25    1    1    2    0    0  0.10565533386E+03 -0.36538103049E+02  0.21727425266E+02  0.16910104540E+03  0.12500000000E+03 0.  0.
         25    1    1    2    0    0 -0.14327636772E+03 -0.16607466196E+02 -0.40698716128E+02  0.19515458225E+03  0.12500000000E+03 0.  0.
         25    1    1    2    0    0  0.37621033857E+02  0.53145569245E+02 -0.80422503537E+02  0.16227314255E+03  0.12500000000E+03 0.  0.
</event>
<event>
 5    0  0.5641283E-005  0.2275235E+03  0.7546771E-02  0.1128395E+00
         21   -1    0    0  502  501  0.00000000000E+00  0.00000000000E+00  0.41971716428E+03  0.41971716428E+03  0.00000000000E+00 0. -1.
         21   -1    0    0  501  502 -0.00000000000E+00 -0.00000000000E+00 -0.12333769100E+03  0.12333769100E+03  0.00000000000E+00 0. -1.
         25    1    1    2    0    0  0.37242021295E+02  0.37722612870E+02  0.59947252210E+02  0.14842047271E+03  0.12500000000E+03 0.  0.
         25    1    1    2    0    0 -0.20912203845E+02 -0.93358651848E+02  0.54859529039E+02  0.16669650887E+03  0.12500000000E+03 0.  0.
         25    1    1    2    0    0 -0.16329817449E+02  0.55636038979E+02  0.18157269204E+03  0.22793787369E+03  0.12500000000E+03 0.  0.
</event>
<event>
 5    0  0.5641283E-005  0.2344852E+03  0.7546771E-02  0.1123522E+00
         21   -1    0    0  502  501  0.00000000000E+00  0.00000000000E+00  0.23024331494E+03  0.23024331494E+03  0.00000000000E+00 0. -1.
         21   -1    0    0  501  502 -0.00000000000E+00 -0.00000000000E+00 -0.23880523113E+03  0.23880523113E+03  0.00000000000E+00 0. -1.
         25    1    1    2    0    0 -0.72024105359E+02 -0.76153145957E+02  0.53754625061E+02  0.17175952115E+03  0.12500000000E+03 0.  0.
         25    1    1    2    0    0  0.51423807919E+02 -0.26648870914E+01 -0.60408865059E+02  0.14807342983E+03  0.12500000000E+03 0.  0.
         25    1    1    2    0    0  0.20600297440E+02  0.78818033049E+02 -0.19076761969E+01  0.14921559509E+03  0.12500000000E+03 0.  0.
</event>
<event>
 5    0  0.5641283E-005  0.2897825E+03  0.7546771E-02  0.1090463E+00
         21   -1    0    0  502  501  0.00000000000E+00  0.00000000000E+00  0.34936399528E+03  0.34936399528E+03  0.00000000000E+00 0.  1.
         21   -1    0    0  501  502 -0.00000000000E+00 -0.00000000000E+00 -0.24036211722E+03  0.24036211722E+03  0.00000000000E+00 0.  1.
         25    1    1    2    0    0 -0.19729970553E+03  0.42965637374E+02  0.48625212575E+02  0.24241004743E+03  0.12500000000E+03 0.  0.
         25    1    1    2    0    0  0.84838707720E+02 -0.14675106425E+01  0.83454079084E+02  0.17259589575E+03  0.12500000000E+03 0.  0.
         25    1    1    2    0    0  0.11246099781E+03 -0.41498126731E+02 -0.23077413604E+02  0.17472016932E+03  0.12500000000E+03 0.  0.
</event>
<event>
 5    0  0.5641283E-005  0.2972443E+03  0.7546771E-02  0.1086626E+00
         21   -1    0    0  502  501  0.00000000000E+00  0.00000000000E+00  0.11452129118E+04  0.11452129118E+04  0.00000000000E+00 0. -1.
         21   -1    0    0  501  502 -0.00000000000E+00 -0.00000000000E+00 -0.77150877488E+02  0.77150877488E+02  0.00000000000E+00 0. -1.
         25    1    1    2    0    0  0.18901616096E+02 -0.26454790604E+02  0.22733558247E+03  0.26146432662E+03  0.12500000000E+03 0.  0.
         25    1    1    2    0    0  0.11102616013E+03  0.16140167744E+03  0.33962581921E+03  0.41151914510E+03  0.12500000000E+03 0.  0.
         25    1    1    2    0    0 -0.12992777622E+03 -0.13494688684E+03  0.50110063264E+03  0.54938031757E+03  0.12500000000E+03 0.  0.
</event>
<event>
 5    0  0.5641283E-005  0.3240093E+03  0.7546771E-02  0.1073819E+00
         21   -1    0    0  502  501  0.00000000000E+00  0.00000000000E+00  0.34211886861E+03  0.34211886861E+03  0.00000000000E+00 0. -1.
         21   -1    0    0  501  502 -0.00000000000E+00 -0.00000000000E+00 -0.30685824960E+03  0.30685824960E+03  0.00000000000E+00 0. -1.
         25    1    1    2    0    0  0.87929308479E+02  0.19625053446E+02  0.35285665208E+02  0.15807208540E+03  0.12500000000E+03 0.  0.
         25    1    1    2    0    0 -0.24263358689E+03 -0.64166946261E+02  0.39918875739E+02  0.28320835284E+03  0.12500000000E+03 0.  0.
         25    1    1    2    0    0  0.15470427841E+03  0.44541892816E+02 -0.39943921937E+02  0.20769667998E+03  0.12500000000E+03 0.  0.
</event>
<event>
 5    0  0.5641283E-005  0.2451727E+03  0.7546771E-02  0.1116394E+00
         21   -1    0    0  502  501  0.00000000000E+00  0.00000000000E+00  0.19473724548E+03  0.19473724548E+03  0.00000000000E+00 0.  1.
         21   -1    0    0  501  502 -0.00000000000E+00 -0.00000000000E+00 -0.30867062604E+03  0.30867062604E+03  0.00000000000E+00 0.  1.
         25    1    1    2    0    0 -0.34593163451E+02 -0.88556628398E+02 -0.28799110866E+02  0.15966637773E+03  0.12500000000E+03 0.  0.
         25    1    1    2    0    0 -0.39246593195E+02  0.96227743754E+02  0.20764145025E+02  0.16387868520E+03  0.12500000000E+03 0.  0.
         25    1    1    2    0    0  0.73839756646E+02 -0.76711153554E+01 -0.10589841472E+03  0.17986280859E+03  0.12500000000E+03 0.  0.
</event>
<event>
 5    0  0.5641283E-005  0.2831691E+03  0.7546771E-02  0.1093971E+00
         21   -1    0    0  502  501  0.00000000000E+00  0.00000000000E+00  0.67118017318E+02  0.67118017318E+02  0.00000000000E+00 0.  1.
         21   -1    0    0  501  502 -0.00000000000E+00 -0.00000000000E+00 -0.11946829063E+04  0.11946829063E+04  0.00000000000E+00 0.  1.
         25    1    1    2    0    0 -0.12518843705E+03  0.77151492573E+02 -0.23419505725E+03  0.30347458282E+03  0.12500000000E+03 0.  0.
         25    1    1    2    0    0 -0.37489178575E+01 -0.10633003119E+03 -0.45478098004E+03  0.48349857262E+03  0.12500000000E+03 0.  0.
         25    1    1    2    0    0  0.12893735491E+03  0.29178538614E+02 -0.43858885167E+03  0.47482776816E+03  0.12500000000E+03 0.  0.
</event>
<event>
 5    0  0.5641283E-005  0.7611183E+03  0.7546771E-02  0.9618067E-01
         21   -1    0    0  502  501  0.00000000000E+00  0.00000000000E+00  0.81947678080E+03  0.81947678080E+03  0.00000000000E+00 0. -1.
         21   -1    0    0  501  502 -0.00000000000E+00 -0.00000000000E+00 -0.70691569911E+03  0.70691569911E+03  0.00000000000E+00 0. -1.
         25    1    1    2    0    0 -0.26069862330E+02  0.25961406682E+03 -0.24413764634E+03  0.37855949569E+03  0.12500000000E+03 0.  0.
         25    1    1    2    0    0  0.59715446788E+02 -0.62728790295E+03  0.36593750892E+02  0.64344397610E+03  0.12500000000E+03 0.  0.
         25    1    1    2    0    0 -0.33645584459E+02  0.36767383613E+03  0.32010497714E+03  0.50438900812E+03  0.12500000000E+03 0.  0.
</event>
<event>
 5    0  0.5641283E-005  0.3450650E+03  0.7546771E-02  0.1064659E+00
         21   -1    0    0  502  501  0.00000000000E+00  0.00000000000E+00  0.30483927127E+03  0.30483927127E+03  0.00000000000E+00 0.  1.
         21   -1    0    0  501  502 -0.00000000000E+00 -0.00000000000E+00 -0.39059876071E+03  0.39059876071E+03  0.00000000000E+00 0.  1.
         25    1    1    2    0    0  0.77482821136E+02 -0.20293213711E+03 -0.34333682624E+02  0.25296015814E+03  0.12500000000E+03 0.  0.
         25    1    1    2    0    0 -0.10656861067E+03  0.24145794907E+03 -0.85354847119E+02  0.30425196774E+03  0.12500000000E+03 0.  0.
         25    1    1    2    0    0  0.29085789538E+02 -0.38525811956E+02  0.33929040303E+02  0.13822590610E+03  0.12500000000E+03 0.  0.
</event>
<event>
 5    0  0.5641283E-005  0.2521161E+03  0.7546771E-02  0.1111975E+00
         21   -1    0    0  502  501  0.00000000000E+00  0.00000000000E+00  0.10431181372E+04  0.10431181372E+04  0.00000000000E+00 0.  1.
         21   -1    0    0  501  502 -0.00000000000E+00 -0.00000000000E+00 -0.60935097916E+02  0.60935097916E+02  0.00000000000E+00 0.  1.
         25    1    1    2    0    0 -0.95370558178E+01  0.67415621720E+02  0.45090707144E+03  0.47284036266E+03  0.12500000000E+03 0.  0.
         25    1    1    2    0    0  0.45860506874E+02 -0.12837177506E+03  0.21369015842E+03  0.28261454762E+03  0.12500000000E+03 0.  0.
         25    1    1    2    0    0 -0.36323451056E+02  0.60956153339E+02  0.31758580938E+03  0.34859832479E+03  0.12500000000E+03 0.  0.
</event>
<event>
 5    0  0.5641283E-005  0.4174540E+03  0.7546771E-02  0.1037898E+00
         21   -1    0    0  502  501  0.00000000000E+00  0.00000000000E+00  0.16043244596E+03  0.16043244596E+03  0.00000000000E+00 0.  1.
         21   -1    0    0  501  502 -0.00000000000E+00 -0.00000000000E+00 -0.10862382212E+04  0.10862382212E+04  0.00000000000E+00 0.  1.
         25    1    1    2    0    0 -0.50216320640E+02 -0.17559096279E+03 -0.56833735557E+03  0.60990672632E+03  0.12500000000E+03 0.  0.
         25    1    1    2    0    0 -0.25383288996E+02  0.13072966893E+02 -0.39477835953E+03  0.41507850700E+03  0.12500000000E+03 0.  0.
         25    1    1    2    0    0  0.75599609637E+02  0.16251799590E+03  0.37309939845E+02  0.22168543384E+03  0.12500000000E+03 0.  0.
</event>
<event>
 5    0  0.5641283E-005  0.2400182E+03  0.7546771E-02  0.1119781E+00
         21   -1    0    0  502  501  0.00000000000E+00  0.00000000000E+00  0.53244699548E+03  0.53244699548E+03  0.00000000000E+00 0.  1.
         21   -1    0    0  501  502 -0.00000000000E+00 -0.00000000000E+00 -0.10819615092E+03  0.10819615092E+03  0.00000000000E+00 0.  1.
         25    1    1    2    0    0  0.16911676097E+02 -0.97433641580E+02  0.39063327472E+02  0.16410442667E+03  0.12500000000E+03 0.  0.
         25    1    1    2    0    0 -0.16328253319E+02  0.58101103146E+02  0.13251058189E+03  0.19190206970E+03  0.12500000000E+03 0.  0.
         25    1    1    2    0    0 -0.58342277824E+00  0.39332538435E+02  0.25267693519E+03  0.28463665003E+03  0.12500000000E+03 0.  0.
</event>
<event>
 5    0  0.5641283E-005  0.3113791E+03  0.7546771E-02  0.1079687E+00
         21   -1    0    0  502  501  0.00000000000E+00  0.00000000000E+00  0.12330379982E+04  0.12330379982E+04  0.00000000000E+00 0. -1.
         21   -1    0    0  501  502 -0.00000000000E+00 -0.00000000000E+00 -0.78632561105E+02  0.78632561105E+02  0.00000000000E+00 0. -1.
         25    1    1    2    0    0 -0.24148136128E+02 -0.94338221946E+02  0.13472576471E+03  0.20798765414E+03  0.12500000000E+03 0.  0.
         25    1    1    2    0    0  0.69116052669E+02  0.16506115988E+03  0.84677116615E+03  0.87445332812E+03  0.12500000000E+03 0.  0.
         25    1    1    2    0    0 -0.44967916541E+02 -0.70722937930E+02  0.17290850627E+03  0.22922957708E+03  0.12500000000E+03 0.  0.
</event>
<event>
 5    0  0.5641283E-005  0.2716347E+03  0.7546771E-02  0.1100348E+00
         21   -1    0    0  502  501  0.00000000000E+00  0.00000000000E+00  0.24773928698E+04  0.24773928698E+04  0.00000000000E+00 0.  1.
         21   -1    0    0  501  502 -0.00000000000E+00 -0.00000000000E+00 -0.29783490577E+02  0.29783490577E+02  0.00000000000E+00 0.  1.
         25    1    1    2    0    0  0.37056848253E+02  0.61610854638E+02  0.61389984758E+03  0.63060853964E+03  0.12500000000E+03 0.  0.
         25    1    1    2    0    0  0.12452394099E+03  0.65501041329E+01  0.65686745003E+03  0.68018303614E+03  0.12500000000E+03 0.  0.
         25    1    1    2    0    0 -0.16158078924E+03 -0.68160958771E+02  0.11768420816E+04  0.11963847846E+04  0.12500000000E+03 0.  0.
</event>
<event>
 5    0  0.5641283E-005  0.2766394E+03  0.7546771E-02  0.1097539E+00
         21   -1    0    0  502  501  0.00000000000E+00  0.00000000000E+00  0.84005850824E+03  0.84005850824E+03  0.00000000000E+00 0. -1.
         21   -1    0    0  501  502 -0.00000000000E+00 -0.00000000000E+00 -0.91100054692E+02  0.91100054692E+02  0.00000000000E+00 0. -1.
         25    1    1    2    0    0  0.37323033386E+02 -0.87619116059E+02  0.30726766637E+02  0.16012261710E+03  0.12500000000E+03 0.  0.
         25    1    1    2    0    0  0.17942898835E+01  0.49244015766E+01  0.30007248374E+03  0.32510915814E+03  0.12500000000E+03 0.  0.
         25    1    1    2    0    0 -0.39117323269E+02  0.82694714482E+02  0.41815920317E+03  0.44592678769E+03  0.12500000000E+03 0.  0.
</event>
<event>
 5    0  0.5641283E-005  0.4622173E+03  0.7546771E-02  0.1024140E+00
         21   -1    0    0  502  501  0.00000000000E+00  0.00000000000E+00  0.41147315670E+03  0.41147315670E+03  0.00000000000E+00 0. -1.
         21   -1    0    0  501  502 -0.00000000000E+00 -0.00000000000E+00 -0.51921934429E+03  0.51921934429E+03  0.00000000000E+00 0. -1.
         25    1    1    2    0    0  0.15326533145E+03 -0.15769741149E+03  0.72943570983E+02  0.26325747846E+03  0.12500000000E+03 0.  0.
         25    1    1    2    0    0 -0.72419606258E+02  0.92240741558E+01  0.19144542153E+03  0.24001256705E+03  0.12500000000E+03 0.  0.
         25    1    1    2    0    0 -0.80845725192E+02  0.14847333734E+03 -0.37213518010E+03  0.42742245548E+03  0.12500000000E+03 0.  0.
</event>
<event>
 5    0  0.5641283E-005  0.3064415E+03  0.7546771E-02  0.1082064E+00
         21   -1    0    0  502  501  0.00000000000E+00  0.00000000000E+00  0.54321701338E+02  0.54321701338E+02  0.00000000000E+00 0.  1.
         21   -1    0    0  501  502 -0.00000000000E+00 -0.00000000000E+00 -0.17287090442E+04  0.17287090442E+04  0.00000000000E+00 0.  1.
         25    1    1    2    0    0  0.92075605710E+01  0.94114655278E+02 -0.32266449021E+03  0.35871955725E+03  0.12500000000E+03 0.  0.
         25    1    1    2    0    0 -0.26868639423E+02 -0.21258124357E+03 -0.53887445240E+03  0.59323130763E+03  0.12500000000E+03 0.  0.
         25    1    1    2    0    0  0.17661078852E+02  0.11846658829E+03 -0.81284840025E+03  0.83107988066E+03  0.12500000000E+03 0.  0.
</event>
<event>
 5    0  0.5641283E-005  0.3677422E+03  0.7546771E-02  0.1055560E+00
         21   -1    0    0  502  501  0.00000000000E+00  0.00000000000E+00  0.12018414860E+03  0.12018414860E+03  0.00000000000E+00 0. -1.
         21   -1    0    0  501  502 -0.00000000000E+00 -0.00000000000E+00 -0.11252261478E+04  0.11252261478E+04  0.00000000000E+00 0. -1.
         25    1    1    2    0    0  0.10936576533E+03 -0.40710833812E+02 -0.68094190200E+02  0.18406537250E+03  0.12500000000E+03 0.  0.
         25    1    1    2    0    0 -0.20222894951E+03 -0.65590616056E+02 -0.25887486302E+03  0.35754702018E+03  0.12500000000E+03 0.  0.
         25    1    1    2    0    0  0.92863184185E+02  0.10630144987E+03 -0.67807294601E+03  0.70379790376E+03  0.12500000000E+03 0.  0.
</event>
<event>
 5    0  0.5641283E-005  0.4896858E+03  0.7546771E-02  0.1016507E+00
         21   -1    0    0  502  501  0.00000000000E+00  0.00000000000E+00  0.15180604874E+04  0.15180604874E+04  0.00000000000E+00 0. -1.
         21   -1    0    0  501  502 -0.00000000000E+00 -0.00000000000E+00 -0.15795959054E+03  0.15795959054E+03  0.00000000000E+00 0. -1.
         25    1    1    2    0    0 -0.19966178460E+03 -0.29770093701E+02  0.42416968999E+03  0.48610288275E+03  0.12500000000E+03 0.  0.
         25    1    1    2    0    0  0.21442574928E+03  0.31792778776E+03  0.64962906851E+03  0.76465639790E+03  0.12500000000E+03 0.  0.
         25    1    1    2    0    0 -0.14763964688E+02 -0.28815769406E+03  0.28630213837E+03  0.42526079731E+03  0.12500000000E+03 0.  0.
</event>
<event>
 5    0  0.5641283E-005  0.3711506E+03  0.7546771E-02  0.1054254E+00
         21   -1    0    0  502  501  0.00000000000E+00  0.00000000000E+00  0.87815253590E+02  0.87815253590E+02  0.00000000000E+00 0. -1.
         21   -1    0    0  501  502 -0.00000000000E+00 -0.00000000000E+00 -0.15686657588E+04  0.15686657588E+04  0.00000000000E+00 0. -1.
         25    1    1    2    0    0  0.19580913633E+03  0.31841696873E+02 -0.54558476123E+03  0.59383738785E+03  0.12500000000E+03 0.  0.
         25    1    1    2    0    0 -0.24358089827E+03 -0.15737955253E+03 -0.51564915521E+03  0.60466439355E+03  0.12500000000E+03 0.  0.
         25    1    1    2    0    0  0.47771761936E+02  0.12553785566E+03 -0.41961658879E+03  0.45797923100E+03  0.12500000000E+03 0.  0.
</event>
<event>
 5    0  0.5641283E-005  0.2733966E+03  0.7546771E-02  0.1099351E+00
         21   -1    0    0  502  501  0.00000000000E+00  0.00000000000E+00  0.23360811117E+03  0.23360811117E+03  0.00000000000E+00 0.  1.
         21   -1    0    0  501  502 -0.00000000000E+00 -0.00000000000E+00 -0.31996184851E+03  0.31996184851E+03  0.00000000000E+00 0.  1.
         25    1    1    2    0    0  0.33411268773E+02  0.34445088478E+02 -0.41340425711E+02  0.14013139477E+03  0.12500000000E+03 0.  0.
         25    1    1    2    0    0 -0.51808173672E+02  0.25211134564E+02  0.13011255454E+03  0.18940423705E+03  0.12500000000E+03 0.  0.
         25    1    1    2    0    0  0.18396904899E+02 -0.59656223042E+02 -0.17512586616E+03  0.22403432786E+03  0.12500000000E+03 0.  0.
</event>
<event>
 5    0  0.5641283E-005  0.3918483E+03  0.7546771E-02  0.1046639E+00
         21   -1    0    0  502  501  0.00000000000E+00  0.00000000000E+00  0.22518976732E+03  0.22518976732E+03  0.00000000000E+00 0.  1.
         21   -1    0    0  501  502 -0.00000000000E+00 -0.00000000000E+00 -0.68184749317E+03  0.68184749317E+03  0.00000000000E+00 0.  1.
         25    1    1    2    0    0  0.34093197858E+02 -0.29882043080E+03 -0.60636465682E+02  0.33129711284E+03  0.12500000000E+03 0.  0.
         25    1    1    2    0    0 -0.35363680854E+02  0.17321863811E+03 -0.11949071869E+03  0.24730207918E+03  0.12500000000E+03 0.  0.
         25    1    1    2    0    0  0.12704829958E+01  0.12560179268E+03 -0.27653054148E+03  0.32843806848E+03  0.12500000000E+03 0.  0.
</event>
<event>
 5    0  0.5641283E-005  0.2844397E+03  0.7546771E-02  0.1093288E+00
         21   -1    0    0  502  501  0.00000000000E+00  0.00000000000E+00  0.14911780640E+04  0.14911780640E+04  0.00000000000E+00 0. -1.
         21   -1    0    0  501  502 -0.00000000000E+00 -0.00000000000E+00 -0.54256390479E+02  0.54256390479E+02  0.00000000000E+00 0. -1.
         25    1    1    2    0    0  0.51648259961E+02 -0.52602908431E+02  0.11063863296E+04  0.11158630378E+04  0.12500000000E+03 0.  0.
         25    1    1    2    0    0 -0.46848385977E+02  0.57944998899E+02  0.14258064453E+03  0.20373177062E+03  0.12500000000E+03 0.  0.
         25    1    1    2    0    0 -0.47998739838E+01 -0.53420904679E+01  0.18795469938E+03  0.22583964608E+03  0.12500000000E+03 0.  0.
</event>
<event>
 5    0  0.5641283E-005  0.5252851E+03  0.7546771E-02  0.1007382E+00
         21   -1    0    0  502  501  0.00000000000E+00  0.00000000000E+00  0.18801601057E+04  0.18801601057E+04  0.00000000000E+00 0. -1.
         21   -1    0    0  501  502 -0.00000000000E+00 -0.00000000000E+00 -0.14675583888E+03  0.14675583888E+03  0.00000000000E+00 0. -1.
         25    1    1    2    0    0 -0.15812577196E+03 -0.21970124241E+03  0.89374825645E+02  0.31126396375E+03  0.12500000000E+03 0.  0.
         25    1    1    2    0    0 -0.51568486046E+02 -0.29094508860E+02  0.56685580339E+03  0.58348633320E+03  0.12500000000E+03 0.  0.
         25    1    1    2    0    0  0.20969425800E+03  0.24879575127E+03  0.10771736377E+04  0.11321656476E+04  0.12500000000E+03 0.  0.
</event>
<event>
 5    0  0.5641283E-005  0.5948045E+03  0.7546771E-02  0.9916244E-01
         21   -1    0    0  502  501  0.00000000000E+00  0.00000000000E+00  0.34179162502E+03  0.34179162502E+03  0.00000000000E+00 0. -1.
         21   -1    0    0  501  502 -0.00000000000E+00 -0.00000000000E+00 -0.10351111988E+04  0.10351111988E+04  0.00000000000E+00 0. -1.
         25    1    1    2    0    0  0.68215728160E+02  0.34926062518E+03  0.78104706966E+02  0.38517751118E+03  0.12500000000E+03 0.  0.
         25    1    1    2    0    0 -0.80454205659E+02  0.48817161678E+02 -0.41261541841E+03  0.44128503033E+03  0.12500000000E+03 0.  0.
         25    1    1    2    0    0  0.12238477499E+02 -0.39807778686E+03 -0.35880886236E+03  0.55044028234E+03  0.12500000000E+03 0.  0.
</event>
<event>
 5    0  0.5641283E-005  0.3728091E+03  0.7546771E-02  0.1053624E+00
         21   -1    0    0  502  501  0.00000000000E+00  0.00000000000E+00  0.99366377780E+03  0.99366377780E+03  0.00000000000E+00 0. -1.
         21   -1    0    0  501  502 -0.00000000000E+00 -0.00000000000E+00 -0.13987292010E+03  0.13987292010E+03  0.00000000000E+00 0. -1.
         25    1    1    2    0    0  0.64638997034E+01  0.18583810715E+03  0.24271941526E+03  0.33032604894E+03  0.12500000000E+03 0.  0.
         25    1    1    2    0    0 -0.10647729899E+03 -0.14176613934E+03  0.59860526198E+03  0.63670111758E+03  0.12500000000E+03 0.  0.
         25    1    1    2    0    0  0.10001339929E+03 -0.44071967807E+02  0.12466180468E+02  0.16650953138E+03  0.12500000000E+03 0.  0.
</event>
<event>
 5    0  0.5641283E-005  0.4884970E+03  0.7546771E-02  0.1016826E+00
         21   -1    0    0  502  501  0.00000000000E+00  0.00000000000E+00  0.21595433101E+04  0.21595433101E+04  0.00000000000E+00 0.  1.
         21   -1    0    0  501  502 -0.00000000000E+00 -0.00000000000E+00 -0.11049987733E+03  0.11049987733E+03  0.00000000000E+00 0.  1.
         25    1    1    2    0    0 -0.13829624635E+03 -0.41288804574E+02  0.10559358204E+03  0.21818712543E+03  0.12500000000E+03 0.  0.
         25    1    1    2    0    0 -0.22236403703E+02  0.24636245840E+03  0.14801377584E+04  0.15058624447E+04  0.12500000000E+03 0.  0.
         25    1    1    2    0    0  0.16053265005E+03 -0.20507365382E+03  0.46331209235E+03  0.54599361731E+03  0.12500000000E+03 0.  0.
</event>
<event>
 5    0  0.5641283E-005  0.2211055E+03  0.7546771E-02  0.1133062E+00
         21   -1    0    0  502  501  0.00000000000E+00  0.00000000000E+00  0.46948356040E+03  0.46948356040E+03  0.00000000000E+00 0. -1.
         21   -1    0    0  501  502 -0.00000000000E+00 -0.00000000000E+00 -0.10413068708E+03  0.10413068708E+03  0.00000000000E+00 0. -1.
         25    1    1    2    0    0 -0.93341387872E+02  0.45143201926E+02  0.12189614832E+03  0.20306204556E+03  0.12500000000E+03 0.  0.
         25    1    1    2    0    0  0.52916798477E+02  0.49337995404E+01  0.14642766699E+03  0.19972629171E+03  0.12500000000E+03 0.  0.
         25    1    1    2    0    0  0.40424589395E+02 -0.50077001466E+02  0.97029058009E+02  0.17082591022E+03  0.12500000000E+03 0.  0.
</event>
<event>
 5    0  0.5641283E-005  0.3146131E+03  0.7546771E-02  0.1078156E+00
         21   -1    0    0  502  501  0.00000000000E+00  0.00000000000E+00  0.23028642265E+04  0.23028642265E+04  0.00000000000E+00 0.  1.
         21   -1    0    0  501  502 -0.00000000000E+00 -0.00000000000E+00 -0.42981865749E+02  0.42981865749E+02  0.00000000000E+00 0.  1.
         25    1    1    2    0    0  0.87794168426E+02 -0.13339643661E+02  0.76729729926E+03  0.78246783164E+03  0.12500000000E+03 0.  0.
         25    1    1    2    0    0 -0.16018759130E+03 -0.67506253819E+02  0.36075586029E+03  0.41950798496E+03  0.12500000000E+03 0.  0.
         25    1    1    2    0    0  0.72393422878E+02  0.80845897480E+02  0.11318292012E+04  0.11438702756E+04  0.12500000000E+03 0.  0.
</event>
<event>
 5    0  0.5641283E-005  0.2911682E+03  0.7546771E-02  0.1089741E+00
         21   -1    0    0  502  501  0.00000000000E+00  0.00000000000E+00  0.37708581258E+03  0.37708581258E+03  0.00000000000E+00 0.  1.
         21   -1    0    0  501  502 -0.00000000000E+00 -0.00000000000E+00 -0.22482662004E+03  0.22482662004E+03  0.00000000000E+00 0. -1.
         25    1    1    2    0    0 -0.96587608022E+02  0.11889955951E+03 -0.51781697722E+02  0.20438350103E+03  0.12500000000E+03 0.  0.
         25    1    1    2    0    0  0.40367956263E+02 -0.29203511253E+02 -0.16633209432E+01  0.13457408220E+03  0.12500000000E+03 0.  0.
         25    1    1    2    0    0  0.56219651759E+02 -0.89696048255E+02  0.20570421120E+03  0.26295484940E+03  0.12500000000E+03 0.  0.
</event>
<event>
 5    0  0.5641283E-005  0.3112462E+03  0.7546771E-02  0.1079750E+00
         21   -1    0    0  502  501  0.00000000000E+00  0.00000000000E+00  0.95539589143E+02  0.95539589143E+02  0.00000000000E+00 0. -1.
         21   -1    0    0  501  502 -0.00000000000E+00 -0.00000000000E+00 -0.10139693249E+04  0.10139693249E+04  0.00000000000E+00 0. -1.
         25    1    1    2    0    0  0.19924852050E+02 -0.15447879490E+03 -0.56726905829E+03  0.60139827261E+03  0.12500000000E+03 0.  0.
         25    1    1    2    0    0 -0.35000593017E+02  0.10594855094E+03 -0.44939545576E+02  0.17347823989E+03  0.12500000000E+03 0.  0.
         25    1    1    2    0    0  0.15075740967E+02  0.48530243959E+02 -0.30622113184E+03  0.33463240149E+03  0.12500000000E+03 0.  0.
</event>
<event>
 5    0  0.5641283E-005  0.2811334E+03  0.7546771E-02  0.1095072E+00
         21   -1    0    0  502  501  0.00000000000E+00  0.00000000000E+00  0.92873519997E+03  0.92873519997E+03  0.00000000000E+00 0. -1.
         21   -1    0    0  501  502 -0.00000000000E+00 -0.00000000000E+00 -0.85100647689E+02  0.85100647689E+02  0.00000000000E+00 0. -1.
         25    1    1    2    0    0  0.10604844388E+03  0.83052376360E+02  0.14879348490E+03  0.23644972154E+03  0.12500000000E+03 0.  0.
         25    1    1    2    0    0 -0.13204560512E+03 -0.82336184667E+02  0.28372643860E+03  0.34690197621E+03  0.12500000000E+03 0.  0.
         25    1    1    2    0    0  0.25997161239E+02 -0.71619169296E+00  0.41111462878E+03  0.43048414991E+03  0.12500000000E+03 0.  0.
</event>
<event>
 5    0  0.5641283E-005  0.3156127E+03  0.7546771E-02  0.1077686E+00
         21   -1    0    0  502  501  0.00000000000E+00  0.00000000000E+00  0.16447430851E+04  0.16447430851E+04  0.00000000000E+00 0. -1.
         21   -1    0    0  501  502 -0.00000000000E+00 -0.00000000000E+00 -0.60563469468E+02  0.60563469468E+02  0.00000000000E+00 0. -1.
         25    1    1    2    0    0  0.12205885637E+03 -0.64062676848E+02  0.11745829299E+04  0.11892318740E+04  0.12500000000E+03 0.  0.
         25    1    1    2    0    0 -0.53792418965E+01  0.41297505988E+02  0.24211347082E+03  0.27564171128E+03  0.12500000000E+03 0.  0.
         25    1    1    2    0    0 -0.11667961447E+03  0.22765170859E+02  0.16748321495E+03  0.24043296931E+03  0.12500000000E+03 0.  0.
</event>
<event>
 5    0  0.5641283E-005  0.2592919E+03  0.7546771E-02  0.1107569E+00
         21   -1    0    0  502  501  0.00000000000E+00  0.00000000000E+00  0.16068594393E+03  0.16068594393E+03  0.00000000000E+00 0.  1.
         21   -1    0    0  501  502 -0.00000000000E+00 -0.00000000000E+00 -0.41840788541E+03  0.41840788541E+03  0.00000000000E+00 0.  1.
         25    1    1    2    0    0 -0.67507891769E+02  0.82958255919E+02 -0.76545615345E+02  0.18144866741E+03  0.12500000000E+03 0.  0.
         25    1    1    2    0    0 -0.26837090221E+02  0.24301936621E+02 -0.16061139501E+03  0.20671679598E+03  0.12500000000E+03 0.  0.
         25    1    1    2    0    0  0.94344981990E+02 -0.10726019254E+03 -0.20564931122E+02  0.19092836594E+03  0.12500000000E+03 0.  0.
</event>
<event>
 5    0  0.5641283E-005  0.3095463E+03  0.7546771E-02  0.1080564E+00
         21   -1    0    0  502  501  0.00000000000E+00  0.00000000000E+00  0.12890877141E+04  0.12890877141E+04  0.00000000000E+00 0.  1.
         21   -1    0    0  501  502 -0.00000000000E+00 -0.00000000000E+00 -0.74330773151E+02  0.74330773151E+02  0.00000000000E+00 0.  1.
         25    1    1    2    0    0  0.87050905445E+02 -0.16219592115E+03  0.28208796658E+03  0.35928261559E+03  0.12500000000E+03 0.  0.
         25    1    1    2    0    0  0.43179347908E+02  0.12358880367E+03  0.55493841844E+03  0.58371251206E+03  0.12500000000E+03 0.  0.
         25    1    1    2    0    0 -0.13023025335E+03  0.38607117479E+02  0.37773055591E+03  0.42042335957E+03  0.12500000000E+03 0.  0.
</event>
<event>
 5    0  0.5641283E-005  0.3305720E+03  0.7546771E-02  0.1070884E+00
         21   -1    0    0  502  501  0.00000000000E+00  0.00000000000E+00  0.90091689866E+03  0.90091689866E+03  0.00000000000E+00 0.  1.
         21   -1    0    0  501  502 -0.00000000000E+00 -0.00000000000E+00 -0.12129626109E+03  0.12129626109E+03  0.00000000000E+00 0.  1.
         25    1    1    2    0    0  0.47263862409E+02  0.33461827589E+02  0.59101786441E+03  0.60686133725E+03  0.12500000000E+03 0.  0.
         25    1    1    2    0    0  0.10315174166E+03  0.11950690391E+02  0.12407971987E+03  0.20445996598E+03  0.12500000000E+03 0.  0.
         25    1    1    2    0    0 -0.15041560407E+03 -0.45412517980E+02  0.64523053286E+02  0.21089185651E+03  0.12500000000E+03 0.  0.
</event>
<event>
 5    0  0.5641283E-005  0.2539154E+03  0.7546771E-02  0.1110855E+00
         21   -1    0    0  502  501  0.00000000000E+00  0.00000000000E+00  0.67107051370E+02  0.67107051370E+02  0.00000000000E+00 0. -1.
         21   -1    0    0  501  502 -0.00000000000E+00 -0.00000000000E+00 -0.96074923886E+03  0.96074923886E+03  0.00000000000E+00 0. -1.
         25    1    1    2    0    0  0.38252252812E+02  0.83408865731E+02 -0.53561660757E+03  0.55761135572E+03  0.12500000000E+03 0.  0.
         25    1    1    2    0    0  0.27068442017E+02  0.20714580341E+02 -0.15239759037E+03  0.20002954768E+03  0.12500000000E+03 0.  0.
         25    1    1    2    0    0 -0.65320694829E+02 -0.10412344607E+03 -0.20562798955E+03  0.27021538683E+03  0.12500000000E+03 0.  0.
</event>
<event>
 5    0  0.5641283E-005  0.3529042E+03  0.7546771E-02  0.1061429E+00
         21   -1    0    0  502  501  0.00000000000E+00  0.00000000000E+00  0.30718779419E+03  0.30718779419E+03  0.00000000000E+00 0. -1.
         21   -1    0    0  501  502 -0.00000000000E+00 -0.00000000000E+00 -0.40542425871E+03  0.40542425871E+03  0.00000000000E+00 0. -1.
         25    1    1    2    0    0 -0.96989213501E+02  0.12578982286E+03  0.13308407869E+03  0.24200487406E+03  0.12500000000E+03 0.  0.
         25    1    1    2    0    0  0.96451621762E+02  0.25171554347E+02  0.94367728112E+01  0.16015796942E+03  0.12500000000E+03 0.  0.
         25    1    1    2    0    0  0.53759173977E+00 -0.15096137720E+03 -0.24075731601E+03  0.31044920941E+03  0.12500000000E+03 0.  0.
</event>
<event>
 5    0  0.5641283E-005  0.2518026E+03  0.7546771E-02  0.1112171E+00
         21   -1    0    0  502  501  0.00000000000E+00  0.00000000000E+00  0.17054394714E+03  0.17054394714E+03  0.00000000000E+00 0. -1.
         21   -1    0    0  501  502 -0.00000000000E+00 -0.00000000000E+00 -0.37177834562E+03  0.37177834562E+03  0.00000000000E+00 0. -1.
         25    1    1    2    0    0 -0.16801419003E+02  0.40949394067E+02 -0.76792548709E+02  0.15323588383E+03  0.12500000000E+03 0.  0.
         25    1    1    2    0    0 -0.46290510377E+02  0.57715869483E+02  0.41015068810E+02  0.15093431953E+03  0.12500000000E+03 0.  0.
         25    1    1    2    0    0  0.63091929380E+02 -0.98665263551E+02 -0.16545691858E+03  0.23815208941E+03  0.12500000000E+03 0.  0.
</event>
<event>
 5    0  0.5641283E-005  0.2740663E+03  0.7546771E-02  0.1098975E+00
         21   -1    0    0  502  501  0.00000000000E+00  0.00000000000E+00  0.28607628867E+04  0.28607628867E+04  0.00000000000E+00 0.  1.
         21   -1    0    0  501  502 -0.00000000000E+00 -0.00000000000E+00 -0.26256044686E+02  0.26256044686E+02  0.00000000000E+00 0.  1.
         25    1    1    2    0    0 -0.74825040226E+02 -0.10679190506E+03  0.16703789581E+04  0.16801173058E+04  0.12500000000E+03 0.  0.
         25    1    1    2    0    0  0.51702872004E+02  0.24019456531E+02  0.81124001568E+03  0.82279127627E+03  0.12500000000E+03 0.  0.
         25    1    1    2    0    0  0.23122168222E+02  0.82772448524E+02  0.35288786828E+03  0.38411034935E+03  0.12500000000E+03 0.  0.
</event>
<event>
 5    0  0.5641283E-005  0.2241825E+03  0.7546771E-02  0.1130803E+00
         21   -1    0    0  502  501  0.00000000000E+00  0.00000000000E+00  0.90098090818E+02  0.90098090818E+02  0.00000000000E+00 0.  1.
         21   -1    0    0  501  502 -0.00000000000E+00 -0.00000000000E+00 -0.55781220615E+03  0.55781220615E+03  0.00000000000E+00 0.  1.
         25    1    1    2    0    0 -0.50977946619E+02  0.76357696902E+02 -0.23316404604E+03  0.28003521436E+03  0.12500000000E+03 0.  0.
         25    1    1    2    0    0  0.53358272231E+02 -0.80645488526E+02 -0.13888666346E+03  0.21039321596E+03  0.12500000000E+03 0.  0.
         25    1    1    2    0    0 -0.23803256121E+01  0.42877916243E+01 -0.95663405839E+02  0.15748186665E+03  0.12500000000E+03 0.  0.
</event>
<event>
 5    0  0.5641283E-005  0.3418614E+03  0.7546771E-02  0.1066006E+00
         21   -1    0    0  502  501  0.00000000000E+00  0.00000000000E+00  0.73430858889E+03  0.73430858889E+03  0.00000000000E+00 0. -1.
         21   -1    0    0  501  502 -0.00000000000E+00 -0.00000000000E+00 -0.15915542055E+03  0.15915542055E+03  0.00000000000E+00 0. -1.
         25    1    1    2    0    0 -0.12878981220E+03  0.12415220171E+03  0.93285046312E+02  0.23733454190E+03  0.12500000000E+03 0.  0.
         25    1    1    2    0    0  0.27909824490E+01 -0.17994137853E+03  0.39298183518E+03  0.44994045392E+03  0.12500000000E+03 0.  0.
         25    1    1    2    0    0  0.12599882975E+03  0.55789176820E+02  0.88886286852E+02  0.20618901362E+03  0.12500000000E+03 0.  0.
</event>
<event>
 5    0  0.5641283E-005  0.3264245E+03  0.7546771E-02  0.1072730E+00
         21   -1    0    0  502  501  0.00000000000E+00  0.00000000000E+00  0.45922693045E+02  0.45922693045E+02  0.00000000000E+00 0. -1.
         21   -1    0    0  501  502 -0.00000000000E+00 -0.00000000000E+00 -0.23202684003E+04  0.23202684003E+04  0.00000000000E+00 0. -1.
         25    1    1    2    0    0  0.10229204339E+03 -0.20888399236E+02 -0.18262882823E+03  0.24470038060E+03  0.12500000000E+03 0.  0.
         25    1    1    2    0    0 -0.15462749289E+03 -0.11564953630E+02 -0.90720512599E+03  0.92881082591E+03  0.12500000000E+03 0.  0.
         25    1    1    2    0    0  0.52335449507E+02  0.32453352866E+02 -0.11845117530E+04  0.11926798868E+04  0.12500000000E+03 0.  0.
</event>
<event>
 5    0  0.5641283E-005  0.2764319E+03  0.7546771E-02  0.1097654E+00
         21   -1    0    0  502  501  0.00000000000E+00  0.00000000000E+00  0.95641014187E+02  0.95641014187E+02  0.00000000000E+00 0.  1.
         21   -1    0    0  501  502 -0.00000000000E+00 -0.00000000000E+00 -0.79897296936E+03  0.79897296936E+03  0.00000000000E+00 0.  1.
         25    1    1    2    0    0  0.57241368571E+02  0.53217533698E+02 -0.41829366341E+03  0.44351242262E+03  0.12500000000E+03 0.  0.
         25    1    1    2    0    0 -0.13479022933E+02  0.65363696716E+01 -0.27853023503E+03  0.30566075969E+03  0.12500000000E+03 0.  0.
         25    1    1    2    0    0 -0.43762345638E+02 -0.59753903370E+02 -0.65080567368E+01  0.14544080124E+03  0.12500000000E+03 0.  0.
</event>
<event>
 5    0  0.5641283E-005  0.3384619E+03  0.7546771E-02  0.1067453E+00
         21   -1    0    0  502  501  0.00000000000E+00  0.00000000000E+00  0.23539674763E+03  0.23539674763E+03  0.00000000000E+00 0.  1.
         21   -1    0    0  501  502 -0.00000000000E+00 -0.00000000000E+00 -0.48665278861E+03  0.48665278861E+03  0.00000000000E+00 0.  1.
         25    1    1    2    0    0  0.11914449670E+03 -0.21371986027E+03 -0.11632189916E+03  0.29837455319E+03  0.12500000000E+03 0.  0.
         25    1    1    2    0    0 -0.12082448698E+03  0.10842418150E+03  0.10128084981E+02  0.20513882590E+03  0.12500000000E+03 0.  0.
         25    1    1    2    0    0  0.16799902854E+01  0.10529567877E+03 -0.14506222680E+03  0.21853615715E+03  0.12500000000E+03 0.  0.
</event>
<event>
 5    0  0.5641283E-005  0.2125299E+03  0.7546771E-02  0.1139578E+00
         21   -1    0    0  502  501  0.00000000000E+00  0.00000000000E+00  0.48774024118E+03  0.48774024118E+03  0.00000000000E+00 0. -1.
         21   -1    0    0  501  502 -0.00000000000E+00 -0.00000000000E+00 -0.92608653477E+02  0.92608653477E+02  0.00000000000E+00 0. -1.
         25    1    1    2    0    0 -0.37102887589E+02 -0.71566507487E+02  0.12726855527E+03  0.19575667146E+03  0.12500000000E+03 0.  0.
         25    1    1    2    0    0 -0.19097236196E+02  0.22159679913E+02  0.10305857127E+03  0.16462631915E+03  0.12500000000E+03 0.  0.
         25    1    1    2    0    0  0.56200123785E+02  0.49406827574E+02  0.16480446116E+03  0.21996590405E+03  0.12500000000E+03 0.  0.
</event>
<event>
 5    0  0.5641283E-005  0.2838502E+03  0.7546771E-02  0.1093604E+00
         21   -1    0    0  502  501  0.00000000000E+00  0.00000000000E+00  0.52974119529E+02  0.52974119529E+02  0.00000000000E+00 0. -1.
         21   -1    0    0  501  502 -0.00000000000E+00 -0.00000000000E+00 -0.15209489393E+04  0.15209489393E+04  0.00000000000E+00 0. -1.
         25    1    1    2    0    0  0.75577139495E+02  0.18828474599E+02 -0.23548513908E+03  0.27774928658E+03  0.12500000000E+03 0.  0.
         25    1    1    2    0    0  0.31091945036E+02  0.12749848583E+03 -0.56305789309E+03  0.59150804213E+03  0.12500000000E+03 0.  0.
         25    1    1    2    0    0 -0.10666908453E+03 -0.14632696043E+03 -0.66943178755E+03  0.70466573007E+03  0.12500000000E+03 0.  0.
</event>
<event>
 5    0  0.5641283E-005  0.3940668E+03  0.7546771E-02  0.1045854E+00
         21   -1    0    0  502  501  0.00000000000E+00  0.00000000000E+00  0.53746540728E+03  0.53746540728E+03  0.00000000000E+00 0.  1.
         21   -1    0    0  501  502 -0.00000000000E+00 -0.00000000000E+00 -0.28892770833E+03  0.28892770833E+03  0.00000000000E+00 0.  1.
         25    1    1    2    0    0  0.29400107632E+03 -0.49200425034E+02  0.17638414443E+03  0.36823047282E+03  0.12500000000E+03 0.  0.
         25    1    1    2    0    0 -0.19076383297E+03  0.12372659965E+02 -0.70563551737E+02  0.23905676630E+03  0.12500000000E+03 0.  0.
         25    1    1    2    0    0 -0.10323724336E+03  0.36827765069E+02  0.14271710626E+03  0.21910587649E+03  0.12500000000E+03 0.  0.
</event>
<event>
 5    0  0.5641283E-005  0.3014818E+03  0.7546771E-02  0.1084502E+00
         21   -1    0    0  502  501  0.00000000000E+00  0.00000000000E+00  0.24759719029E+03  0.24759719029E+03  0.00000000000E+00 0.  1.
         21   -1    0    0  501  502 -0.00000000000E+00 -0.00000000000E+00 -0.36709333820E+03  0.36709333820E+03  0.00000000000E+00 0.  1.
         25    1    1    2    0    0  0.13139390004E+03 -0.36479385956E+02 -0.36495915051E+02  0.18855252420E+03  0.12500000000E+03 0.  0.
         25    1    1    2    0    0 -0.40200315369E+02  0.75785207433E+02 -0.18309131085E+03  0.23771178164E+03  0.12500000000E+03 0.  0.
         25    1    1    2    0    0 -0.91193584671E+02 -0.39305821477E+02  0.10009107800E+03  0.18842622265E+03  0.12500000000E+03 0.  0.
</event>
<event>
 5    0  0.5641283E-005  0.3488987E+03  0.7546771E-02  0.1063068E+00
         21   -1    0    0  502  501  0.00000000000E+00  0.00000000000E+00  0.13069421036E+04  0.13069421036E+04  0.00000000000E+00 0.  1.
         21   -1    0    0  501  502 -0.00000000000E+00 -0.00000000000E+00 -0.93141320200E+02  0.93141320200E+02  0.00000000000E+00 0.  1.
         25    1    1    2    0    0 -0.12038912160E+03 -0.30494056997E+01  0.68964704242E+03  0.71115461230E+03  0.12500000000E+03 0.  0.
         25    1    1    2    0    0  0.20038926881E+03 -0.10977922757E+03  0.29499385271E+03  0.39351456263E+03  0.12500000000E+03 0.  0.
         25    1    1    2    0    0 -0.80000147212E+02  0.11282863327E+03  0.22915988823E+03  0.29541424883E+03  0.12500000000E+03 0.  0.
</event>
<event>
 5    0  0.5641283E-005  0.2033733E+03  0.7546771E-02  0.1146924E+00
         21   -1    0    0  502  501  0.00000000000E+00  0.00000000000E+00  0.19323988029E+03  0.19323988029E+03  0.00000000000E+00 0.  1.
         21   -1    0    0  501  502 -0.00000000000E+00 -0.00000000000E+00 -0.21403815299E+03  0.21403815299E+03  0.00000000000E+00 0.  1.
         25    1    1    2    0    0  0.51537108988E+02 -0.15569151526E+01 -0.40783287100E+02  0.14123304887E+03  0.12500000000E+03 0.  0.
         25    1    1    2    0    0 -0.29380858473E+02  0.36635137923E+02  0.12824138881E+02  0.13414479756E+03  0.12500000000E+03 0.  0.
         25    1    1    2    0    0 -0.22156250514E+02 -0.35078222770E+02  0.71608755147E+01  0.13190018684E+03  0.12500000000E+03 0.  0.
</event>
<event>
 5    0  0.5641283E-005  0.2477094E+03  0.7546771E-02  0.1114761E+00
         21   -1    0    0  502  501  0.00000000000E+00  0.00000000000E+00  0.15054514170E+03  0.15054514170E+03  0.00000000000E+00 0.  1.
         21   -1    0    0  501  502 -0.00000000000E+00 -0.00000000000E+00 -0.40758510418E+03  0.40758510418E+03  0.00000000000E+00 0.  1.
         25    1    1    2    0    0  0.99732384488E+02  0.38894345579E+02 -0.18446002816E+03  0.24720400608E+03  0.12500000000E+03 0.  0.
         25    1    1    2    0    0 -0.84010169238E+02  0.33426911351E+02 -0.58447416914E+02  0.16497323262E+03  0.12500000000E+03 0.  0.
         25    1    1    2    0    0 -0.15722215249E+02 -0.72321256930E+02 -0.14132517406E+02  0.14595300718E+03  0.12500000000E+03 0.  0.
</event>
<event>
 5    0  0.5641283E-005  0.2815317E+03  0.7546771E-02  0.1094855E+00
         21   -1    0    0  502  501  0.00000000000E+00  0.00000000000E+00  0.76101215134E+02  0.76101215134E+02  0.00000000000E+00 0. -1.
         21   -1    0    0  501  502 -0.00000000000E+00 -0.00000000000E+00 -0.10415087884E+04  0.10415087884E+04  0.00000000000E+00 0. -1.
         25    1    1    2    0    0 -0.24320990914E+02  0.81556187710E+02 -0.14271743947E+03  0.20793313801E+03  0.12500000000E+03 0.  0.
         25    1    1    2    0    0 -0.60593605983E+02  0.68499629974E+02 -0.20933890575E+03  0.26040653190E+03  0.12500000000E+03 0.  0.
         25    1    1    2    0    0  0.84914596897E+02 -0.15005581768E+03 -0.61335122801E+03  0.64927033360E+03  0.12500000000E+03 0.  0.
</event>
<event>
 5    0  0.5641283E-005  0.4233674E+03  0.7546771E-02  0.1035976E+00
         21   -1    0    0  502  501  0.00000000000E+00  0.00000000000E+00  0.58697523076E+03  0.58697523076E+03  0.00000000000E+00 0.  1.
         21   -1    0    0  501  502 -0.00000000000E+00 -0.00000000000E+00 -0.30536199421E+03  0.30536199421E+03  0.00000000000E+00 0.  1.
         25    1    1    2    0    0 -0.97935367092E+02  0.21423148867E+03 -0.11480533063E+02  0.26691434863E+03  0.12500000000E+03 0.  0.
         25    1    1    2    0    0  0.17593466604E+03 -0.73076980698E+02  0.34631732171E+03  0.41455269766E+03  0.12500000000E+03 0.  0.
         25    1    1    2    0    0 -0.77999298950E+02 -0.14115450797E+03 -0.53223552091E+02  0.21087017868E+03  0.12500000000E+03 0.  0.
</event>
<event>
 5    0  0.5641283E-005  0.3384360E+03  0.7546771E-02  0.1067464E+00
         21   -1    0    0  502  501  0.00000000000E+00  0.00000000000E+00  0.29655048880E+03  0.29655048880E+03  0.00000000000E+00 0. -1.
         21   -1    0    0  501  502 -0.00000000000E+00 -0.00000000000E+00 -0.38623752578E+03  0.38623752578E+03  0.00000000000E+00 0. -1.
         25    1    1    2    0    0  0.97928087134E+02 -0.80762403222E+02  0.14367421859E+03  0.22886624284E+03  0.12500000000E+03 0.  0.
         25    1    1    2    0    0  0.23594997896E+02  0.12807690337E+03 -0.20142873415E+03  0.27047911573E+03  0.12500000000E+03 0.  0.
         25    1    1    2    0    0 -0.12152308503E+03 -0.47314500148E+02 -0.31932521420E+02  0.18344265601E+03  0.12500000000E+03 0.  0.
</event>
<event>
 5    0  0.5641283E-005  0.2684662E+03  0.7546771E-02  0.1102161E+00
         21   -1    0    0  502  501  0.00000000000E+00  0.00000000000E+00  0.43406013494E+03  0.43406013494E+03  0.00000000000E+00 0.  1.
         21   -1    0    0  501  502 -0.00000000000E+00 -0.00000000000E+00 -0.16604632960E+03  0.16604632960E+03  0.00000000000E+00 0.  1.
         25    1    1    2    0    0  0.50940245368E+02 -0.11626557660E+03  0.19043147104E+03  0.26077142877E+03  0.12500000000E+03 0.  0.
         25    1    1    2    0    0  0.18045231997E+02  0.52316248398E+02  0.11481872680E+03  0.17852439684E+03  0.12500000000E+03 0.  0.
         25    1    1    2    0    0 -0.68985477365E+02  0.63949328201E+02 -0.37236392510E+02  0.16081063893E+03  0.12500000000E+03 0.  0.
</event>
<event>
 5    0  0.5641283E-005  0.3522440E+03  0.7546771E-02  0.1061698E+00
         21   -1    0    0  502  501  0.00000000000E+00  0.00000000000E+00  0.63876502777E+03  0.63876502777E+03  0.00000000000E+00 0.  1.
         21   -1    0    0  501  502 -0.00000000000E+00 -0.00000000000E+00 -0.19424329931E+03  0.19424329931E+03  0.00000000000E+00 0.  1.
         25    1    1    2    0    0  0.89828170759E+02  0.77180582424E+02  0.13271516115E+03  0.21740344193E+03  0.12500000000E+03 0.  0.
         25    1    1    2    0    0  0.14020750646E+03 -0.97460962124E+02  0.48731501568E+01  0.21167317166E+03  0.12500000000E+03 0.  0.
         25    1    1    2    0    0 -0.23003567722E+03  0.20280379700E+02  0.30693341715E+03  0.40393171349E+03  0.12500000000E+03 0.  0.
</event>
<event>
 5    0  0.5641283E-005  0.7385647E+03  0.7546771E-02  0.9653463E-01
         21   -1    0    0  502  501  0.00000000000E+00  0.00000000000E+00  0.42242842567E+03  0.42242842567E+03  0.00000000000E+00 0.  1.
         21   -1    0    0  501  502 -0.00000000000E+00 -0.00000000000E+00 -0.12912906414E+04  0.12912906414E+04  0.00000000000E+00 0.  1.
         25    1    1    2    0    0 -0.22912158546E+03  0.59787299633E+02  0.24541204789E+03  0.36321246588E+03  0.12500000000E+03 0.  0.
         25    1    1    2    0    0  0.18657225944E+03  0.94334810595E+02 -0.27714894593E+02  0.24515582772E+03  0.12500000000E+03 0.  0.
         25    1    1    2    0    0  0.42549326020E+02 -0.15412211023E+03 -0.10865593690E+04  0.11053507735E+04  0.12500000000E+03 0.  0.
</event>
<event>
 5    0  0.5641283E-005  0.2086472E+03  0.7546771E-02  0.1142642E+00
         21   -1    0    0  502  501  0.00000000000E+00  0.00000000000E+00  0.32381073517E+03  0.32381073517E+03  0.00000000000E+00 0. -1.
         21   -1    0    0  501  502 -0.00000000000E+00 -0.00000000000E+00 -0.13444171874E+03  0.13444171874E+03  0.00000000000E+00 0. -1.
         25    1    1    2    0    0  0.12716312681E+02  0.41099566431E+02  0.21664223231E+02  0.13395976089E+03  0.12500000000E+03 0.  0.
         25    1    1    2    0    0 -0.55070847840E+02 -0.34779441291E+02  0.11546969129E+03  0.18221047562E+03  0.12500000000E+03 0.  0.
         25    1    1    2    0    0  0.42354535158E+02 -0.63201251401E+01  0.52235101921E+02  0.14208221741E+03  0.12500000000E+03 0.  0.
</event>
<event>
 5    0  0.5641283E-005  0.3042562E+03  0.7546771E-02  0.1083132E+00
         21   -1    0    0  502  501  0.00000000000E+00  0.00000000000E+00  0.95941991869E+02  0.95941991869E+02  0.00000000000E+00 0. -1.
         21   -1    0    0  501  502 -0.00000000000E+00 -0.00000000000E+00 -0.96487316768E+03  0.96487316768E+03  0.00000000000E+00 0. -1.
         25    1    1    2    0    0  0.38234614494E+02 -0.17328381180E+01 -0.52798518408E+03  0.54392852755E+03  0.12500000000E+03 0.  0.
         25    1    1    2    0    0 -0.12071823234E+03  0.10646682559E+03 -0.20546498988E+03  0.28939408881E+03  0.12500000000E+03 0.  0.
         25    1    1    2    0    0  0.82483617846E+02 -0.10473398747E+03 -0.13548100185E+03  0.22749254319E+03  0.12500000000E+03 0.  0.
</event>
<event>
 5    0  0.5641283E-005  0.2484149E+03  0.7546771E-02  0.1114311E+00
         21   -1    0    0  502  501  0.00000000000E+00  0.00000000000E+00  0.92498990179E+02  0.92498990179E+02  0.00000000000E+00 0.  1.
         21   -1    0    0  501  502 -0.00000000000E+00 -0.00000000000E+00 -0.66714200387E+03  0.66714200387E+03  0.00000000000E+00 0.  1.
         25    1    1    2    0    0  0.13862896370E+03  0.48007749169E+02 -0.21858805132E+03  0.29142489553E+03  0.12500000000E+03 0.  0.
         25    1    1    2    0    0 -0.75279121399E+02 -0.54738679055E+02 -0.13390253314E+03  0.20547057571E+03  0.12500000000E+03 0.  0.
         25    1    1    2    0    0 -0.63349842305E+02  0.67309298858E+01 -0.22215242924E+03  0.26274552281E+03  0.12500000000E+03 0.  0.
</event>
<event>
 5    0  0.5641283E-005  0.4342861E+03  0.7546771E-02  0.1032515E+00
         21   -1    0    0  502  501  0.00000000000E+00  0.00000000000E+00  0.24934291870E+03  0.24934291870E+03  0.00000000000E+00 0. -1.
         21   -1    0    0  501  502 -0.00000000000E+00 -0.00000000000E+00 -0.75640574939E+03  0.75640574939E+03  0.00000000000E+00 0. -1.
         25    1    1    2    0    0 -0.19656094047E+03  0.20878734808E+03 -0.26368980472E+03  0.40912794228E+03  0.12500000000E+03 0.  0.
         25    1    1    2    0    0  0.27943023640E+03 -0.18837371755E+03 -0.26106026776E+03  0.44423347227E+03  0.12500000000E+03 0.  0.
         25    1    1    2    0    0 -0.82869295937E+02 -0.20413630528E+02  0.17687241800E+02  0.15238725354E+03  0.12500000000E+03 0.  0.
</event>
<event>
 5    0  0.5641283E-005  0.3915577E+03  0.7546771E-02  0.1046743E+00
         21   -1    0    0  502  501  0.00000000000E+00  0.00000000000E+00  0.35834205873E+03  0.35834205873E+03  0.00000000000E+00 0.  1.
         21   -1    0    0  501  502 -0.00000000000E+00 -0.00000000000E+00 -0.42785221143E+03  0.42785221143E+03  0.00000000000E+00 0.  1.
         25    1    1    2    0    0  0.13069428947E+02  0.87030232850E+01  0.34753671072E+02  0.13068806464E+03  0.12500000000E+03 0.  0.
         25    1    1    2    0    0  0.27223557828E+03 -0.22715135727E+02 -0.15748158343E+03  0.33919557278E+03  0.12500000000E+03 0.  0.
         25    1    1    2    0    0 -0.28530500723E+03  0.14012112442E+02  0.53217759656E+02  0.31631063274E+03  0.12500000000E+03 0.  0.
</event>
<event>
 5    0  0.5641283E-005  0.3855606E+03  0.7546771E-02  0.1048897E+00
         21   -1    0    0  502  501  0.00000000000E+00  0.00000000000E+00  0.11961932399E+04  0.11961932399E+04  0.00000000000E+00 0. -1.
         21   -1    0    0  501  502 -0.00000000000E+00 -0.00000000000E+00 -0.12427502760E+03  0.12427502760E+03  0.00000000000E+00 0. -1.
         25    1    1    2    0    0 -0.24918249198E+03 -0.89414538608E+02  0.22887235864E+03  0.37161058997E+03  0.12500000000E+03 0.  0.
         25    1    1    2    0    0  0.20990725840E+03  0.12312841457E+03  0.39250817462E+03  0.47844469978E+03  0.12500000000E+03 0.  0.
         25    1    1    2    0    0  0.39275233578E+02 -0.33713875964E+02  0.45053767900E+03  0.47041297772E+03  0.12500000000E+03 0.  0.
</event>
<event>
 5    0  0.5641283E-005  0.3662912E+03  0.7546771E-02  0.1056120E+00
         21   -1    0    0  502  501  0.00000000000E+00  0.00000000000E+00  0.67939937785E+02  0.67939937785E+02  0.00000000000E+00 0. -1.
         21   -1    0    0  501  502 -0.00000000000E+00 -0.00000000000E+00 -0.19748215345E+04  0.19748215345E+04  0.00000000000E+00 0. -1.
         25    1    1    2    0    0 -0.11097055227E+03  0.11836080276E+02 -0.98093925557E+03  0.99514892322E+03  0.12500000000E+03 0.  0.
         25    1    1    2    0    0  0.50777314027E+02  0.99629036851E+02 -0.84966832255E+02  0.18801234850E+03  0.12500000000E+03 0.  0.
         25    1    1    2    0    0  0.60193238244E+02 -0.11146511713E+03 -0.84097550891E+03  0.85960020059E+03  0.12500000000E+03 0.  0.
</event>
<event>
 5    0  0.5641283E-005  0.4247705E+03  0.7546771E-02  0.1035525E+00
         21   -1    0    0  502  501  0.00000000000E+00  0.00000000000E+00  0.13168702338E+03  0.13168702338E+03  0.00000000000E+00 0. -1.
         21   -1    0    0  501  502 -0.00000000000E+00 -0.00000000000E+00 -0.13701423788E+04  0.13701423788E+04  0.00000000000E+00 0. -1.
         25    1    1    2    0    0 -0.13254178674E+03 -0.18993378166E+03 -0.69094965935E+03  0.73937716924E+03  0.12500000000E+03 0.  0.
         25    1    1    2    0    0  0.26951168546E+02  0.59673043732E+02  0.33428817401E+02  0.14501628690E+03  0.12500000000E+03 0.  0.
         25    1    1    2    0    0  0.10559061820E+03  0.13026073793E+03 -0.58093451349E+03  0.61743594604E+03  0.12500000000E+03 0.  0.
</event>
<event>
 5    0  0.5641283E-005  0.2795532E+03  0.7546771E-02  0.1095933E+00
         21   -1    0    0  502  501  0.00000000000E+00  0.00000000000E+00  0.34521283152E+03  0.34521283152E+03  0.00000000000E+00 0.  1.
         21   -1    0    0  501  502 -0.00000000000E+00 -0.00000000000E+00 -0.22638204733E+03  0.22638204733E+03  0.00000000000E+00 0.  1.
         25    1    1    2    0    0  0.20323835261E+02 -0.42572219795E+02  0.20461851005E+03  0.24437509454E+03  0.12500000000E+03 0.  0.
         25    1    1    2    0    0  0.70875015000E+01  0.65039130579E+01  0.52016874852E+02  0.13573241629E+03  0.12500000000E+03 0.  0.
         25    1    1    2    0    0 -0.27411336761E+02  0.36068306737E+02 -0.13780460071E+03  0.19148736802E+03  0.12500000000E+03 0.  0.
</event>
<event>
 5    0  0.5641283E-005  0.2763298E+03  0.7546771E-02  0.1097711E+00
         21   -1    0    0  502  501  0.00000000000E+00  0.00000000000E+00  0.50351033344E+03  0.50351033344E+03  0.00000000000E+00 0.  1.
         21   -1    0    0  501  502 -0.00000000000E+00 -0.00000000000E+00 -0.15165156809E+03  0.15165156809E+03  0.00000000000E+00 0.  1.
         25    1    1    2    0    0  0.23241645221E+02 -0.85273757941E+02  0.26811922415E+02  0.15542093504E+03  0.12500000000E+03 0.  0.
         25    1    1    2    0    0 -0.10675331438E+03 -0.43687579160E+02  0.90209225632E+02  0.19252942397E+03  0.12500000000E+03 0.  0.
         25    1    1    2    0    0  0.83511669164E+02  0.12896133710E+03  0.23483761730E+03  0.30721154251E+03  0.12500000000E+03 0.  0.
</event>
<event>
 5    0  0.5641283E-005  0.4764730E+03  0.7546771E-02  0.1020109E+00
         21   -1    0    0  502  501  0.00000000000E+00  0.00000000000E+00  0.29401010655E+03  0.29401010655E+03  0.00000000000E+00 0.  1.
         21   -1    0    0  501  502 -0.00000000000E+00 -0.00000000000E+00 -0.77217253490E+03  0.77217253490E+03  0.00000000000E+00 0.  1.
         25    1    1    2    0    0  0.25634177887E+01 -0.96420511804E+02  0.34059090112E+02  0.16151937291E+03  0.12500000000E+03 0.  0.
         25    1    1    2    0    0 -0.37953215530E+02 -0.17176656300E+03 -0.56248257988E+03  0.60245817399E+03  0.12500000000E+03 0.  0.
         25    1    1    2    0    0  0.35389797742E+02  0.26818707481E+03  0.50261061422E+02  0.30220509455E+03  0.12500000000E+03 0.  0.
</event>
<event>
 5    0  0.5641283E-005  0.3091663E+03  0.7546771E-02  0.1080746E+00
         21   -1    0    0  502  501  0.00000000000E+00  0.00000000000E+00  0.12139133362E+03  0.12139133362E+03  0.00000000000E+00 0. -1.
         21   -1    0    0  501  502 -0.00000000000E+00 -0.00000000000E+00 -0.78740205426E+03  0.78740205426E+03  0.00000000000E+00 0. -1.
         25    1    1    2    0    0 -0.13471129230E+03 -0.17700045067E+03 -0.38263825586E+03  0.45990578020E+03  0.12500000000E+03 0.  0.
         25    1    1    2    0    0  0.10236168469E+03  0.56473377271E+02 -0.14963618017E+03  0.22733926904E+03  0.12500000000E+03 0.  0.
         25    1    1    2    0    0  0.32349607617E+02  0.12052707340E+03 -0.13373628461E+03  0.22154833864E+03  0.12500000000E+03 0.  0.
</event>
<event>
 5    0  0.5701904E-005  0.3211398E+03  0.7546771E-02  0.1075126E+00
         21   -1    0    0  502  501  0.00000000000E+00  0.00000000000E+00  0.50863255089E+03  0.50863255089E+03  0.00000000000E+00 0.  1.
         21   -1    0    0  501  502 -0.00000000000E+00 -0.00000000000E+00 -0.20276087127E+03  0.20276087127E+03  0.00000000000E+00 0.  1.
         25    1    1    2    0    0  0.56745955102E+02 -0.81086179116E+02 -0.27501704310E+02  0.16179127172E+03  0.12500000000E+03 0.  0.
         25    1    1    2    0    0  0.12742577697E+03 -0.31748898645E+02  0.18619527932E+03  0.25988267207E+03  0.12500000000E+03 0.  0.
         25    1    1    2    0    0 -0.18417173207E+03  0.11283507776E+03  0.14717810461E+03  0.28971947837E+03  0.12500000000E+03 0.  0.
</event>
<event>
 5    0  0.5641283E-005  0.3347868E+03  0.7546771E-02  0.1069038E+00
         21   -1    0    0  502  501  0.00000000000E+00  0.00000000000E+00  0.65596244227E+03  0.65596244227E+03  0.00000000000E+00 0. -1.
         21   -1    0    0  501  502 -0.00000000000E+00 -0.00000000000E+00 -0.17086676590E+03  0.17086676590E+03  0.00000000000E+00 0. -1.
         25    1    1    2    0    0 -0.86713489675E+02  0.37627351875E+02 -0.26109425187E+02  0.15887652119E+03  0.12500000000E+03 0.  0.
         25    1    1    2    0    0 -0.60942150169E+02 -0.12688061305E+03  0.12223115565E+03  0.22445064278E+03  0.12500000000E+03 0.  0.
         25    1    1    2    0    0  0.14765563984E+03  0.89253261171E+02  0.38897394591E+03  0.44350204420E+03  0.12500000000E+03 0.  0.
</event>
<event>
 5    0  0.5641283E-005  0.5095840E+03  0.7546771E-02  0.1011307E+00
         21   -1    0    0  502  501  0.00000000000E+00  0.00000000000E+00  0.90996838292E+03  0.90996838292E+03  0.00000000000E+00 0. -1.
         21   -1    0    0  501  502 -0.00000000000E+00 -0.00000000000E+00 -0.28536804152E+03  0.28536804152E+03  0.00000000000E+00 0. -1.
         25    1    1    2    0    0  0.20949336728E+02 -0.86733671859E+02  0.49389027575E+03  0.51721775784E+03  0.12500000000E+03 0.  0.
         25    1    1    2    0    0  0.77126235277E+02  0.55123596721E+01 -0.23156971005E+03  0.27427791178E+03  0.12500000000E+03 0.  0.
         25    1    1    2    0    0 -0.98075572005E+02  0.81221312187E+02  0.36227977569E+03  0.40384075482E+03  0.12500000000E+03 0.  0.
</event>
<event>
 5    0  0.5641283E-005  0.3366518E+03  0.7546771E-02  0.1068231E+00
         21   -1    0    0  502  501  0.00000000000E+00  0.00000000000E+00  0.44785499894E+03  0.44785499894E+03  0.00000000000E+00 0.  1.
         21   -1    0    0  501  502 -0.00000000000E+00 -0.00000000000E+00 -0.25306056770E+03  0.25306056770E+03  0.00000000000E+00 0.  1.
         25    1    1    2    0    0  0.10441528029E+03  0.10942370361E+03  0.70463331890E+02  0.20848544029E+03  0.12500000000E+03 0.  0.
         25    1    1    2    0    0 -0.21483145058E+03 -0.12856215516E+03 -0.60057138958E+01  0.27989613877E+03  0.12500000000E+03 0.  0.
         25    1    1    2    0    0  0.11041617029E+03  0.19138451548E+02  0.13033681325E+03  0.21253398758E+03  0.12500000000E+03 0.  0.
</event>
<event>
 5    0  0.5641283E-005  0.2776307E+03  0.7546771E-02  0.1096990E+00
         21   -1    0    0  502  501  0.00000000000E+00  0.00000000000E+00  0.11903604762E+03  0.11903604762E+03  0.00000000000E+00 0.  1.
         21   -1    0    0  501  502 -0.00000000000E+00 -0.00000000000E+00 -0.64752475955E+03  0.64752475955E+03  0.00000000000E+00 0.  1.
         25    1    1    2    0    0 -0.18723938275E+02 -0.98323032303E+02 -0.37848378151E+03  0.41096590784E+03  0.12500000000E+03 0.  0.
         25    1    1    2    0    0  0.47330595071E+02  0.13360292621E+03 -0.79003785132E+02  0.20483292017E+03  0.12500000000E+03 0.  0.
         25    1    1    2    0    0 -0.28606656796E+02 -0.35279893906E+02 -0.71001145286E+02  0.15076197916E+03  0.12500000000E+03 0.  0.
</event>
<event>
 5    0  0.5910587E-005  0.2869578E+03  0.7546771E-02  0.1091948E+00
         21   -1    0    0  502  501  0.00000000000E+00  0.00000000000E+00  0.10123657277E+03  0.10123657277E+03  0.00000000000E+00 0.  1.
         21   -1    0    0  501  502 -0.00000000000E+00 -0.00000000000E+00 -0.81338972992E+03  0.81338972992E+03  0.00000000000E+00 0.  1.
         25    1    1    2    0    0 -0.10396340041E+02 -0.46174329125E+02 -0.65734040602E+02  0.14895004750E+03  0.12500000000E+03 0.  0.
         25    1    1    2    0    0  0.14080889878E+03 -0.52475073776E+02 -0.39529232909E+03  0.44097823617E+03  0.12500000000E+03 0.  0.
         25    1    1    2    0    0 -0.13041255874E+03  0.98649402902E+02 -0.25112678746E+03  0.32469801901E+03  0.12500000000E+03 0.  0.
</event>
<event>
 5    0  0.7190148E-005  0.5402991E+03  0.7546771E-02  0.1003765E+00
         21   -1    0    0  502  501  0.00000000000E+00  0.00000000000E+00  0.86500044407E+03  0.86500044407E+03  0.00000000000E+00 0.  1.
         21   -1    0    0  501  502 -0.00000000000E+00 -0.00000000000E+00 -0.33748319594E+03  0.33748319594E+03  0.00000000000E+00 0.  1.
         25    1    1    2    0    0  0.66274416068E+02 -0.31829910526E+03  0.16460956763E+02  0.34871561728E+03  0.12500000000E+03 0.  0.
         25    1    1    2    0    0 -0.10553949520E+03  0.38676010684E+03  0.12158375799E+03  0.43718368622E+03  0.12500000000E+03 0.  0.
         25    1    1    2    0    0  0.39265079131E+02 -0.68461001579E+02  0.38947253337E+03  0.41658433651E+03  0.12500000000E+03 0.  0.
</event>
<event>
 5    0  0.5641283E-005  0.2890755E+03  0.7546771E-02  0.1090833E+00
         21   -1    0    0  502  501  0.00000000000E+00  0.00000000000E+00  0.35399792645E+02  0.35399792645E+02  0.00000000000E+00 0.  1.
         21   -1    0    0  501  502 -0.00000000000E+00 -0.00000000000E+00 -0.23605968420E+04  0.23605968420E+04  0.00000000000E+00 0.  1.
         25    1    1    2    0    0 -0.10878686547E+03  0.59113388092E+02 -0.69311809934E+03  0.71509906614E+03  0.12500000000E+03 0.  0.
         25    1    1    2    0    0  0.92679184987E+02 -0.98200554855E+02 -0.14146011827E+04  0.14265182390E+04  0.12500000000E+03 0.  0.
         25    1    1    2    0    0  0.16107680485E+02  0.39087166763E+02 -0.21747776739E+03  0.25437932951E+03  0.12500000000E+03 0.  0.
</event>
<event>
 5    0  0.5641283E-005  0.2702215E+03  0.7546771E-02  0.1101153E+00
         21   -1    0    0  502  501  0.00000000000E+00  0.00000000000E+00  0.48391327761E+03  0.48391327761E+03  0.00000000000E+00 0.  1.
         21   -1    0    0  501  502 -0.00000000000E+00 -0.00000000000E+00 -0.15089411710E+03  0.15089411710E+03  0.00000000000E+00 0.  1.
         25    1    1    2    0    0  0.77498216287E+02 -0.63753906613E+02  0.23820732055E+03  0.28712063963E+03  0.12500000000E+03 0.  0.
         25    1    1    2    0    0 -0.28613282780E+02  0.65926901440E+02  0.14489372547E+03  0.20441200543E+03  0.12500000000E+03 0.  0.
         25    1    1    2    0    0 -0.48884933507E+02 -0.21729948272E+01 -0.50081885507E+02  0.14327474965E+03  0.12500000000E+03 0.  0.
</event>
<event>
 5    0  0.5641283E-005  0.2993833E+03  0.7546771E-02  0.1085549E+00
         21   -1    0    0  502  501  0.00000000000E+00  0.00000000000E+00  0.38795663090E+03  0.38795663090E+03  0.00000000000E+00 0. -1.
         21   -1    0    0  501  502 -0.00000000000E+00 -0.00000000000E+00 -0.23103195508E+03  0.23103195508E+03  0.00000000000E+00 0. -1.
         25    1    1    2    0    0  0.16834206204E+03  0.11431250527E+03  0.81417189908E+02  0.25230964612E+03  0.12500000000E+03 0.  0.
         25    1    1    2    0    0 -0.48518076030E+02 -0.11456384222E+03 -0.33907648798E+01  0.17639550712E+03  0.12500000000E+03 0.  0.
         25    1    1    2    0    0 -0.11982398601E+03  0.25133695274E+00  0.78898250791E+02  0.19028343273E+03  0.12500000000E+03 0.  0.
</event>
<event>
 5    0  0.5641283E-005  0.3392449E+03  0.7546771E-02  0.1067118E+00
         21   -1    0    0  502  501  0.00000000000E+00  0.00000000000E+00  0.29455320177E+03  0.29455320177E+03  0.00000000000E+00 0.  1.
         21   -1    0    0  501  502 -0.00000000000E+00 -0.00000000000E+00 -0.39071746781E+03  0.39071746781E+03  0.00000000000E+00 0.  1.
         25    1    1    2    0    0  0.15608151764E+03 -0.78157665350E+01 -0.64382911323E+02  0.21022056423E+03  0.12500000000E+03 0.  0.
         25    1    1    2    0    0 -0.19794205044E+03 -0.12029676002E+03  0.59447772344E+02  0.26983588242E+03  0.12500000000E+03 0.  0.
         25    1    1    2    0    0  0.41860532793E+02  0.12811252656E+03 -0.91229127063E+02  0.20521422293E+03  0.12500000000E+03 0.  0.
</event>
<event>
 5    0  0.5641283E-005  0.3534510E+03  0.7546771E-02  0.1061207E+00
         21   -1    0    0  502  501  0.00000000000E+00  0.00000000000E+00  0.41768166213E+03  0.41768166213E+03  0.00000000000E+00 0.  1.
         21   -1    0    0  501  502 -0.00000000000E+00 -0.00000000000E+00 -0.29909765447E+03  0.29909765447E+03  0.00000000000E+00 0.  1.
         25    1    1    2    0    0  0.14067187479E+03  0.10377398596E+03 -0.11471571034E+03  0.24360277239E+03  0.12500000000E+03 0.  0.
         25    1    1    2    0    0 -0.64596945412E+02  0.77384172253E+02  0.16557495873E+03  0.23065372841E+03  0.12500000000E+03 0.  0.
         25    1    1    2    0    0 -0.76074929376E+02 -0.18115815821E+03  0.67724759280E+02  0.24252281580E+03  0.12500000000E+03 0.  0.
</event>
<event>
 5    0  0.5641283E-005  0.2617957E+03  0.7546771E-02  0.1106069E+00
         21   -1    0    0  502  501  0.00000000000E+00  0.00000000000E+00  0.21188046825E+04  0.21188046825E+04  0.00000000000E+00 0. -1.
         21   -1    0    0  501  502 -0.00000000000E+00 -0.00000000000E+00 -0.32347016612E+02  0.32347016612E+02  0.00000000000E+00 0. -1.
         25    1    1    2    0    0  0.91567710540E+02  0.72465544182E+02  0.10276002172E+04  0.10417404222E+04  0.12500000000E+03 0.  0.
         25    1    1    2    0    0 -0.17700416133E+02 -0.32501162628E+02  0.79487961173E+03  0.80549874454E+03  0.12500000000E+03 0.  0.
         25    1    1    2    0    0 -0.73867294407E+02 -0.39964381554E+02  0.26397783698E+03  0.30391253247E+03  0.12500000000E+03 0.  0.
</event>
<event>
 5    0  0.5641283E-005  0.2546855E+03  0.7546771E-02  0.1110379E+00
         21   -1    0    0  502  501  0.00000000000E+00  0.00000000000E+00  0.15013426579E+03  0.15013426579E+03  0.00000000000E+00 0.  1.
         21   -1    0    0  501  502 -0.00000000000E+00 -0.00000000000E+00 -0.43204452334E+03  0.43204452334E+03  0.00000000000E+00 0.  1.
         25    1    1    2    0    0  0.59489636592E+02 -0.12612746036E+02 -0.41963524940E+01  0.13907087257E+03  0.12500000000E+03 0.  0.
         25    1    1    2    0    0  0.79593804333E+02 -0.31613165766E+02 -0.14373821434E+03  0.20885459104E+03  0.12500000000E+03 0.  0.
         25    1    1    2    0    0 -0.13908344092E+03  0.44225911803E+02 -0.13397569071E+03  0.23425332552E+03  0.12500000000E+03 0.  0.
</event>
<event>
 5    0  0.5641283E-005  0.4545216E+03  0.7546771E-02  0.1026382E+00
         21   -1    0    0  502  501  0.00000000000E+00  0.00000000000E+00  0.16238626876E+04  0.16238626876E+04  0.00000000000E+00 0. -1.
         21   -1    0    0  501  502 -0.00000000000E+00 -0.00000000000E+00 -0.12722130010E+03  0.12722130010E+03  0.00000000000E+00 0. -1.
         25    1    1    2    0    0 -0.28072641542E+03  0.74499661890E+01  0.12466835614E+04  0.12840201418E+04  0.12500000000E+03 0.  0.
         25    1    1    2    0    0  0.69690952562E+02 -0.21219237227E+02  0.12621230616E+03  0.19199383095E+03  0.12500000000E+03 0.  0.
         25    1    1    2    0    0  0.21103546285E+03  0.13769271038E+02  0.12374551992E+03  0.27507001492E+03  0.12500000000E+03 0.  0.
</event>
<event>
 5    0  0.5641283E-005  0.2497368E+03  0.7546771E-02  0.1113471E+00
         21   -1    0    0  502  501  0.00000000000E+00  0.00000000000E+00  0.15292839567E+04  0.15292839567E+04  0.00000000000E+00 0. -1.
         21   -1    0    0  501  502 -0.00000000000E+00 -0.00000000000E+00 -0.40782791079E+02  0.40782791079E+02  0.00000000000E+00 0. -1.
         25    1    1    2    0    0 -0.46582607403E+02  0.71454271090E+02  0.63524131041E+03  0.65301774449E+03  0.12500000000E+03 0.  0.
         25    1    1    2    0    0  0.10342216343E+03 -0.36509373091E+02  0.63818189920E+03  0.65949239167E+03  0.12500000000E+03 0.  0.
         25    1    1    2    0    0 -0.56839556026E+02 -0.34944897999E+02  0.21507795604E+03  0.25755661164E+03  0.12500000000E+03 0.  0.
</event>
<event>
 5    0  0.5641283E-005  0.3382986E+03  0.7546771E-02  0.1067523E+00
         21   -1    0    0  502  501  0.00000000000E+00  0.00000000000E+00  0.12466638085E+03  0.12466638085E+03  0.00000000000E+00 0.  1.
         21   -1    0    0  501  502 -0.00000000000E+00 -0.00000000000E+00 -0.91801777352E+03  0.91801777352E+03  0.00000000000E+00 0.  1.
         25    1    1    2    0    0  0.98717567713E+02  0.78798822213E+01  0.21041797916E+02  0.16085710422E+03  0.12500000000E+03 0.  0.
         25    1    1    2    0    0 -0.10962820420E+03 -0.68898637097E+02 -0.30963447752E+03  0.35813946309E+03  0.12500000000E+03 0.  0.
         25    1    1    2    0    0  0.10910636486E+02  0.61018754876E+02 -0.50475871306E+03  0.52368758706E+03  0.12500000000E+03 0.  0.
</event>
<event>
 5    0  0.5641283E-005  0.3093013E+03  0.7546771E-02  0.1080681E+00
         21   -1    0    0  502  501  0.00000000000E+00  0.00000000000E+00  0.12129162678E+04  0.12129162678E+04  0.00000000000E+00 0. -1.
         21   -1    0    0  501  502 -0.00000000000E+00 -0.00000000000E+00 -0.78873791695E+02  0.78873791695E+02  0.00000000000E+00 0. -1.
         25    1    1    2    0    0 -0.48311993125E+02  0.18610260401E+03  0.59695270863E+03  0.63948867405E+03  0.12500000000E+03 0.  0.
         25    1    1    2    0    0 -0.60163399053E+02 -0.11896602665E+03  0.20069652650E+03  0.27143442271E+03  0.12500000000E+03 0.  0.
         25    1    1    2    0    0  0.10847539218E+03 -0.67136577360E+02  0.33639324094E+03  0.38086696271E+03  0.12500000000E+03 0.  0.
</event>
<event>
 5    0  0.5641283E-005  0.4118783E+03  0.7546771E-02  0.1039743E+00
         21   -1    0    0  502  501  0.00000000000E+00  0.00000000000E+00  0.25166315132E+03  0.25166315132E+03  0.00000000000E+00 0. -1.
         21   -1    0    0  501  502 -0.00000000000E+00 -0.00000000000E+00 -0.67409062433E+03  0.67409062433E+03  0.00000000000E+00 0. -1.
         25    1    1    2    0    0 -0.60205857672E+02  0.25116420115E+02 -0.27609927614E+02  0.14367633055E+03  0.12500000000E+03 0.  0.
         25    1    1    2    0    0 -0.27315816152E+03  0.65084046510E+02 -0.19421200499E+03  0.36358577695E+03  0.12500000000E+03 0.  0.
         25    1    1    2    0    0  0.33336401920E+03 -0.90200466624E+02 -0.20060554039E+03  0.41849166815E+03  0.12500000000E+03 0.  0.
</event>
<event>
 5    0  0.5641283E-005  0.3809511E+03  0.7546771E-02  0.1050583E+00
         21   -1    0    0  502  501  0.00000000000E+00  0.00000000000E+00  0.18275944872E+04  0.18275944872E+04  0.00000000000E+00 0.  1.
         21   -1    0    0  501  502 -0.00000000000E+00 -0.00000000000E+00 -0.79406988491E+02  0.79406988491E+02  0.00000000000E+00 0.  1.
         25    1    1    2    0    0 -0.99271634955E+02 -0.57376216364E+02  0.15041640331E+04  0.15136978979E+04  0.12500000000E+03 0.  0.
         25    1    1    2    0    0  0.59278320622E+02 -0.40853677289E+02  0.12239572872E+03  0.18917890118E+03  0.12500000000E+03 0.  0.
         25    1    1    2    0    0  0.39993314332E+02  0.98229893653E+02  0.12162773683E+03  0.20412467652E+03  0.12500000000E+03 0.  0.
</event>
<event>
 5    0  0.5641283E-005  0.4153390E+03  0.7546771E-02  0.1038594E+00
         21   -1    0    0  502  501  0.00000000000E+00  0.00000000000E+00  0.33852139891E+03  0.33852139891E+03  0.00000000000E+00 0.  1.
         21   -1    0    0  501  502 -0.00000000000E+00 -0.00000000000E+00 -0.50958818520E+03  0.50958818520E+03  0.00000000000E+00 0.  1.
         25    1    1    2    0    0  0.25098419061E+03  0.40798296208E+02  0.14304943767E+03  0.31740464163E+03  0.12500000000E+03 0.  0.
         25    1    1    2    0    0 -0.51784540722E+01 -0.39243861881E+02 -0.29482513492E+02  0.13439165035E+03  0.12500000000E+03 0.  0.
         25    1    1    2    0    0 -0.24580573654E+03 -0.15544343271E+01 -0.28463371046E+03  0.39631329212E+03  0.12500000000E+03 0.  0.
</event>
<event>
 5    0  0.5641283E-005  0.3359422E+03  0.7546771E-02  0.1068537E+00
         21   -1    0    0  502  501  0.00000000000E+00  0.00000000000E+00  0.86458885541E+03  0.86458885541E+03  0.00000000000E+00 0.  1.
         21   -1    0    0  501  502 -0.00000000000E+00 -0.00000000000E+00 -0.13053274139E+03  0.13053274139E+03  0.00000000000E+00 0.  1.
         25    1    1    2    0    0 -0.27656725383E+02 -0.92467947918E+01  0.12742694375E+03  0.18086742013E+03  0.12500000000E+03 0.  0.
         25    1    1    2    0    0  0.18640902533E+03  0.57584728588E+02  0.75119245302E+02  0.24358207386E+03  0.12500000000E+03 0.  0.
         25    1    1    2    0    0 -0.15875229995E+03 -0.48337933796E+02  0.53150992497E+03  0.57067210281E+03  0.12500000000E+03 0.  0.
</event>
<event>
 5    0  0.5641283E-005  0.3453976E+03  0.7546771E-02  0.1064520E+00
         21   -1    0    0  502  501  0.00000000000E+00  0.00000000000E+00  0.92309864629E+02  0.92309864629E+02  0.00000000000E+00 0. -1.
         21   -1    0    0  501  502 -0.00000000000E+00 -0.00000000000E+00 -0.12923805619E+04  0.12923805619E+04  0.00000000000E+00 0. -1.
         25    1    1    2    0    0  0.29650623218E+02 -0.69369146469E+02 -0.32137152222E+03  0.35298143469E+03  0.12500000000E+03 0.  0.
         25    1    1    2    0    0 -0.11492720880E+03  0.67823051557E+02 -0.86001075791E+03  0.87923360569E+03  0.12500000000E+03 0.  0.
         25    1    1    2    0    0  0.85276585579E+02  0.15460949119E+01 -0.18688417174E+02  0.15247538619E+03  0.12500000000E+03 0.  0.
</event>
<event>
 5    0  0.5641283E-005  0.4845871E+03  0.7546771E-02  0.1017882E+00
         21   -1    0    0  502  501  0.00000000000E+00  0.00000000000E+00  0.53235676967E+03  0.53235676967E+03  0.00000000000E+00 0.  1.
         21   -1    0    0  501  502 -0.00000000000E+00 -0.00000000000E+00 -0.44110392851E+03  0.44110392851E+03  0.00000000000E+00 0.  1.
         25    1    1    2    0    0 -0.14135242599E+03  0.29305635658E+03  0.76926007081E+02  0.35693857599E+03  0.12500000000E+03 0.  0.
         25    1    1    2    0    0  0.22312145742E+03 -0.36326461929E+03 -0.31064610942E+02  0.44534748057E+03  0.12500000000E+03 0.  0.
         25    1    1    2    0    0 -0.81769031436E+02  0.70208262715E+02  0.45391445022E+02  0.17117464163E+03  0.12500000000E+03 0.  0.
</event>
<event>
 5    0  0.5641283E-005  0.3155959E+03  0.7546771E-02  0.1077694E+00
         21   -1    0    0  502  501  0.00000000000E+00  0.00000000000E+00  0.75416957163E+02  0.75416957163E+02  0.00000000000E+00 0.  1.
         21   -1    0    0  501  502 -0.00000000000E+00 -0.00000000000E+00 -0.13206682060E+04  0.13206682060E+04  0.00000000000E+00 0.  1.
         25    1    1    2    0    0 -0.44511311296E+02  0.12280110421E+02 -0.21604588240E+03  0.25383632768E+03  0.12500000000E+03 0.  0.
         25    1    1    2    0    0  0.20592496960E+03  0.93583793582E+02 -0.44794407958E+03  0.51714786857E+03  0.12500000000E+03 0.  0.
         25    1    1    2    0    0 -0.16141365831E+03 -0.10586390400E+03 -0.58126128688E+03  0.62510096695E+03  0.12500000000E+03 0.  0.
</event>
<event>
 5    0  0.5641283E-005  0.2435287E+03  0.7546771E-02  0.1117464E+00
         21   -1    0    0  502  501  0.00000000000E+00  0.00000000000E+00  0.25713727034E+03  0.25713727034E+03  0.00000000000E+00 0.  1.
         21   -1    0    0  501  502 -0.00000000000E+00 -0.00000000000E+00 -0.23064027525E+03  0.23064027525E+03  0.00000000000E+00 0.  1.
         25    1    1    2    0    0 -0.37156780461E+02  0.62080461841E+02 -0.35998807902E+02  0.14884731858E+03  0.12500000000E+03 0.  0.
         25    1    1    2    0    0  0.55334240900E+02 -0.10643930179E+03 -0.30509396555E+02  0.17591766955E+03  0.12500000000E+03 0.  0.
         25    1    1    2    0    0 -0.18177460439E+02  0.44358839952E+02  0.93005199547E+02  0.16301255747E+03  0.12500000000E+03 0.  0.
</event>
<event>
 5    0  0.5641283E-005  0.3128333E+03  0.7546771E-02  0.1078996E+00
         21   -1    0    0  502  501  0.00000000000E+00  0.00000000000E+00  0.72617444845E+03  0.72617444845E+03  0.00000000000E+00 0.  1.
         21   -1    0    0  501  502 -0.00000000000E+00 -0.00000000000E+00 -0.13476743678E+03  0.13476743678E+03  0.00000000000E+00 0.  1.
         25    1    1    2    0    0  0.20585894028E+02  0.17254486735E+03  0.77455703190E+02  0.22763983886E+03  0.12500000000E+03 0.  0.
         25    1    1    2    0    0 -0.11176059958E+03 -0.93022672053E+02  0.22097529250E+03  0.29257260471E+03  0.12500000000E+03 0.  0.
         25    1    1    2    0    0  0.91174705551E+02 -0.79522195292E+02  0.29297601597E+03  0.34072944166E+03  0.12500000000E+03 0.  0.
</event>
<event>
 5    0  0.5641283E-005  0.3228112E+03  0.7546771E-02  0.1074363E+00
         21   -1    0    0  502  501  0.00000000000E+00  0.00000000000E+00  0.98980323227E+03  0.98980323227E+03  0.00000000000E+00 0. -1.
         21   -1    0    0  501  502 -0.00000000000E+00 -0.00000000000E+00 -0.10528058246E+03  0.10528058246E+03  0.00000000000E+00 0. -1.
         25    1    1    2    0    0  0.11154762108E+03 -0.17159291868E+03  0.17992402133E+03  0.29980769664E+03  0.12500000000E+03 0.  0.
         25    1    1    2    0    0 -0.94482802135E+02  0.93580430134E+02  0.20665626380E+03  0.27571018873E+03  0.12500000000E+03 0.  0.
         25    1    1    2    0    0 -0.17064818947E+02  0.78012488551E+02  0.49794236468E+03  0.51956592937E+03  0.12500000000E+03 0.  0.
</event>
<event>
 5    0  0.5641283E-005  0.5435904E+03  0.7546771E-02  0.1002988E+00
         21   -1    0    0  502  501  0.00000000000E+00  0.00000000000E+00  0.43881475781E+03  0.43881475781E+03  0.00000000000E+00 0.  1.
         21   -1    0    0  501  502 -0.00000000000E+00 -0.00000000000E+00 -0.67338332405E+03  0.67338332405E+03  0.00000000000E+00 0.  1.
         25    1    1    2    0    0 -0.15167824944E+03 -0.29945586471E+03 -0.34298915485E+03  0.49593010254E+03  0.12500000000E+03 0.  0.
         25    1    1    2    0    0  0.19514178281E+03  0.34412915772E+03 -0.34637946915E+02  0.41632917260E+03  0.12500000000E+03 0.  0.
         25    1    1    2    0    0 -0.43463533370E+02 -0.44673293012E+02  0.14305853552E+03  0.19993880671E+03  0.12500000000E+03 0.  0.
</event>
<event>
 5    0  0.5641283E-005  0.4355828E+03  0.7546771E-02  0.1032111E+00
         21   -1    0    0  502  501  0.00000000000E+00  0.00000000000E+00  0.99643300920E+03  0.99643300920E+03  0.00000000000E+00 0. -1.
         21   -1    0    0  501  502 -0.00000000000E+00 -0.00000000000E+00 -0.19041160537E+03  0.19041160537E+03  0.00000000000E+00 0. -1.
         25    1    1    2    0    0  0.19609643303E+03  0.18872753289E+03  0.79387261037E+02  0.30983742500E+03  0.12500000000E+03 0.  0.
         25    1    1    2    0    0 -0.14320915565E+03 -0.20934782113E+03  0.23846053251E+03  0.36989701004E+03  0.12500000000E+03 0.  0.
         25    1    1    2    0    0 -0.52887277380E+02  0.20620288241E+02  0.48817361028E+03  0.50711017952E+03  0.12500000000E+03 0.  0.
</event>
<event>
 5    0  0.5641283E-005  0.3256303E+03  0.7546771E-02  0.1073087E+00
         21   -1    0    0  502  501  0.00000000000E+00  0.00000000000E+00  0.24237234392E+03  0.24237234392E+03  0.00000000000E+00 0. -1.
         21   -1    0    0  501  502 -0.00000000000E+00 -0.00000000000E+00 -0.43748851583E+03  0.43748851583E+03  0.00000000000E+00 0. -1.
         25    1    1    2    0    0  0.19850030996E+03 -0.11265177592E+02 -0.19074915497E+03  0.30255498244E+03  0.12500000000E+03 0.  0.
         25    1    1    2    0    0 -0.16031132164E+02  0.73524299832E+02  0.15236713494E+02  0.14669688920E+03  0.12500000000E+03 0.  0.
         25    1    1    2    0    0 -0.18246917780E+03 -0.62259122240E+02 -0.19603730439E+02  0.23060898811E+03  0.12500000000E+03 0.  0.
</event>
<event>
 5    0  0.5641283E-005  0.5096146E+03  0.7546771E-02  0.1011299E+00
         21   -1    0    0  502  501  0.00000000000E+00  0.00000000000E+00  0.86645375788E+03  0.86645375788E+03  0.00000000000E+00 0. -1.
         21   -1    0    0  501  502 -0.00000000000E+00 -0.00000000000E+00 -0.29973561342E+03  0.29973561342E+03  0.00000000000E+00 0. -1.
         25    1    1    2    0    0 -0.14100031308E+03 -0.63651418826E+02  0.16701106233E+03  0.25971192954E+03  0.12500000000E+03 0.  0.
         25    1    1    2    0    0  0.21486752105E+03 -0.31354462931E+03  0.13057748161E+03  0.42089638259E+03  0.12500000000E+03 0.  0.
         25    1    1    2    0    0 -0.73867207975E+02  0.37719604814E+03  0.26912960051E+03  0.48558105916E+03  0.12500000000E+03 0.  0.
</event>
<event>
 5    0  0.5641283E-005  0.3866114E+03  0.7546771E-02  0.1048517E+00
         21   -1    0    0  502  501  0.00000000000E+00  0.00000000000E+00  0.40600639273E+03  0.40600639273E+03  0.00000000000E+00 0. -1.
         21   -1    0    0  501  502 -0.00000000000E+00 -0.00000000000E+00 -0.36814286447E+03  0.36814286447E+03  0.00000000000E+00 0. -1.
         25    1    1    2    0    0  0.18666172310E+03 -0.36372243623E+02 -0.19176899753E+03  0.29760021403E+03  0.12500000000E+03 0.  0.
         25    1    1    2    0    0 -0.95182142572E+02 -0.96513222206E+02  0.22488301235E+02  0.18575566214E+03  0.12500000000E+03 0.  0.
         25    1    1    2    0    0 -0.91479580532E+02  0.13288546583E+03  0.20714422455E+03  0.29079338103E+03  0.12500000000E+03 0.  0.
</event>
<event>
 5    0  0.5641283E-005  0.2266713E+03  0.7546771E-02  0.1129005E+00
         21   -1    0    0  502  501  0.00000000000E+00  0.00000000000E+00  0.32060698453E+02  0.32060698453E+02  0.00000000000E+00 0.  1.
         21   -1    0    0  501  502 -0.00000000000E+00 -0.00000000000E+00 -0.16025816670E+04  0.16025816670E+04  0.00000000000E+00 0.  1.
         25    1    1    2    0    0  0.10562566766E+03 -0.23442319526E+02 -0.51673943240E+03  0.54254121043E+03  0.12500000000E+03 0.  0.
         25    1    1    2    0    0 -0.52921773537E+02  0.22962312568E+02 -0.69555994955E+03  0.70905333038E+03  0.12500000000E+03 0.  0.
         25    1    1    2    0    0 -0.52703894120E+02  0.48000695769E+00 -0.35822158664E+03  0.38304782469E+03  0.12500000000E+03 0.  0.
</event>
<event>
 5    0  0.5641283E-005  0.3106726E+03  0.7546771E-02  0.1080024E+00
         21   -1    0    0  502  501  0.00000000000E+00  0.00000000000E+00  0.20831173879E+03  0.20831173879E+03  0.00000000000E+00 0.  1.
         21   -1    0    0  501  502 -0.00000000000E+00 -0.00000000000E+00 -0.46333172547E+03  0.46333172547E+03  0.00000000000E+00 0.  1.
         25    1    1    2    0    0  0.29921668425E+02  0.60719170870E+02 -0.15927047984E+03  0.21348116943E+03  0.12500000000E+03 0.  0.
         25    1    1    2    0    0 -0.17626899589E+03 -0.25825098312E+02 -0.13847333609E+03  0.25794875348E+03  0.12500000000E+03 0.  0.
         25    1    1    2    0    0  0.14634732746E+03 -0.34894072558E+02  0.42723829240E+02  0.20021354135E+03  0.12500000000E+03 0.  0.
</event>
<event>
 5    0  0.5641283E-005  0.3951532E+03  0.7546771E-02  0.1045471E+00
         21   -1    0    0  502  501  0.00000000000E+00  0.00000000000E+00  0.32528824566E+03  0.32528824566E+03  0.00000000000E+00 0.  1.
         21   -1    0    0  501  502 -0.00000000000E+00 -0.00000000000E+00 -0.48002361548E+03  0.48002361548E+03  0.00000000000E+00 0.  1.
         25    1    1    2    0    0  0.11288923404E+02  0.64341304921E+02  0.55462645203E+02  0.15155312047E+03  0.12500000000E+03 0.  0.
         25    1    1    2    0    0 -0.27909122320E+03 -0.79722170964E+02 -0.59197753383E+02  0.32152279766E+03  0.12500000000E+03 0.  0.
         25    1    1    2    0    0  0.26780229980E+03  0.15380866043E+02 -0.15100026163E+03  0.33223594301E+03  0.12500000000E+03 0.  0.
</event>
<event>
 5    0  0.5641283E-005  0.4370246E+03  0.7546771E-02  0.1031664E+00
         21   -1    0    0  502  501  0.00000000000E+00  0.00000000000E+00  0.29725900755E+03  0.29725900755E+03  0.00000000000E+00 0. -1.
         21   -1    0    0  501  502 -0.00000000000E+00 -0.00000000000E+00 -0.64250538065E+03  0.64250538065E+03  0.00000000000E+00 0. -1.
         25    1    1    2    0    0  0.48314841900E+02 -0.24233881524E+03  0.14256771297E+03  0.31146906444E+03  0.12500000000E+03 0.  0.
         25    1    1    2    0    0 -0.87350894040E+01  0.29260898516E+02 -0.25922568832E+03  0.28940535492E+03  0.12500000000E+03 0.  0.
         25    1    1    2    0    0 -0.39579752496E+02  0.21307791673E+03 -0.22858839775E+03  0.33888996885E+03  0.12500000000E+03 0.  0.
</event>
<event>
 5    0  0.6626347E-005  0.3191438E+03  0.7546771E-02  0.1076044E+00
         21   -1    0    0  502  501  0.00000000000E+00  0.00000000000E+00  0.12908467773E+03  0.12908467773E+03  0.00000000000E+00 0. -1.
         21   -1    0    0  501  502 -0.00000000000E+00 -0.00000000000E+00 -0.78903853346E+03  0.78903853346E+03  0.00000000000E+00 0. -1.
         25    1    1    2    0    0  0.25173781232E+02  0.19257708854E+03 -0.19039676718E+03  0.29932521318E+03  0.12500000000E+03 0.  0.
         25    1    1    2    0    0 -0.11746945520E+03 -0.98361545577E+02 -0.13938364416E+03  0.24192326638E+03  0.12500000000E+03 0.  0.
         25    1    1    2    0    0  0.92295673969E+02 -0.94215542963E+02 -0.33017344438E+03  0.37687473164E+03  0.12500000000E+03 0.  0.
</event>
<event>
 5    0  0.5641283E-005  0.4018132E+03  0.7546771E-02  0.1043154E+00
         21   -1    0    0  502  501  0.00000000000E+00  0.00000000000E+00  0.13496307057E+03  0.13496307057E+03  0.00000000000E+00 0.  1.
         21   -1    0    0  501  502 -0.00000000000E+00 -0.00000000000E+00 -0.11962816868E+04  0.11962816868E+04  0.00000000000E+00 0.  1.
         25    1    1    2    0    0 -0.48877916305E+02  0.15515730148E+03 -0.40736348368E+03  0.45610617924E+03  0.12500000000E+03 0.  0.
         25    1    1    2    0    0  0.38413830049E+02  0.12585672767E+03 -0.49819682989E+03  0.53022695099E+03  0.12500000000E+03 0.  0.
         25    1    1    2    0    0  0.10464086256E+02 -0.28101402916E+03 -0.15575830263E+03  0.34491162712E+03  0.12500000000E+03 0.  0.
</event>
<event>
 5    0  0.5641283E-005  0.2512975E+03  0.7546771E-02  0.1112488E+00
         21   -1    0    0  502  501  0.00000000000E+00  0.00000000000E+00  0.26140576906E+02  0.26140576906E+02  0.00000000000E+00 0.  1.
         21   -1    0    0  501  502 -0.00000000000E+00 -0.00000000000E+00 -0.24158012098E+04  0.24158012098E+04  0.00000000000E+00 0.  1.
         25    1    1    2    0    0 -0.10083184096E+03  0.39313157046E+02 -0.91719733875E+03  0.93198097763E+03  0.12500000000E+03 0.  0.
         25    1    1    2    0    0  0.12641862286E+03  0.81339000328E+01 -0.56563451251E+03  0.59297152569E+03  0.12500000000E+03 0.  0.
         25    1    1    2    0    0 -0.25586781895E+02 -0.47447057079E+02 -0.90682878161E+03  0.91698928336E+03  0.12500000000E+03 0.  0.
</event>
<event>
 5    0  0.5641283E-005  0.3665516E+03  0.7546771E-02  0.1056019E+00
         21   -1    0    0  502  501  0.00000000000E+00  0.00000000000E+00  0.10544346084E+04  0.10544346084E+04  0.00000000000E+00 0.  1.
         21   -1    0    0  501  502 -0.00000000000E+00 -0.00000000000E+00 -0.12742378839E+03  0.12742378839E+03  0.00000000000E+00 0.  1.
         25    1    1    2    0    0 -0.26716216083E+03 -0.30344360394E+02  0.66968972329E+03  0.73239724594E+03  0.12500000000E+03 0.  0.
         25    1    1    2    0    0  0.15152281465E+03  0.11885289279E+02  0.14851134373E+03  0.24653811607E+03  0.12500000000E+03 0.  0.
         25    1    1    2    0    0  0.11563934618E+03  0.18459071114E+02  0.10880975295E+03  0.20292303474E+03  0.12500000000E+03 0.  0.
</event>
<event>
 5    0  0.5641283E-005  0.3076528E+03  0.7546771E-02  0.1081476E+00
         21   -1    0    0  502  501  0.00000000000E+00  0.00000000000E+00  0.10986530425E+04  0.10986530425E+04  0.00000000000E+00 0. -1.
         21   -1    0    0  501  502 -0.00000000000E+00 -0.00000000000E+00 -0.86151154763E+02  0.86151154763E+02  0.00000000000E+00 0. -1.
         25    1    1    2    0    0 -0.42194945250E+02 -0.15551541043E+03  0.18978666384E+03  0.27858469818E+03  0.12500000000E+03 0.  0.
         25    1    1    2    0    0 -0.79091181604E+02  0.86007214759E+02  0.54411697148E+03  0.57038665364E+03  0.12500000000E+03 0.  0.
         25    1    1    2    0    0  0.12128612685E+03  0.69508195675E+02  0.27859825245E+03  0.33583284548E+03  0.12500000000E+03 0.  0.
</event>
<event>
 5    0  0.5641283E-005  0.4524961E+03  0.7546771E-02  0.1026980E+00
         21   -1    0    0  502  501  0.00000000000E+00  0.00000000000E+00  0.12433119531E+03  0.12433119531E+03  0.00000000000E+00 0.  1.
         21   -1    0    0  501  502 -0.00000000000E+00 -0.00000000000E+00 -0.16468331184E+04  0.16468331184E+04  0.00000000000E+00 0.  1.
         25    1    1    2    0    0 -0.14368150828E+02 -0.21357805099E+03 -0.10277776091E+04  0.10572482402E+04  0.12500000000E+03 0.  0.
         25    1    1    2    0    0  0.49287642854E+02  0.24622687654E+03 -0.50710537935E+03  0.57951515272E+03  0.12500000000E+03 0.  0.
         25    1    1    2    0    0 -0.34919492025E+02 -0.32648825549E+02  0.12381065353E+02  0.13440092080E+03  0.12500000000E+03 0.  0.
</event>
<event>
 5    0  0.5641283E-005  0.3336573E+03  0.7546771E-02  0.1069530E+00
         21   -1    0    0  502  501  0.00000000000E+00  0.00000000000E+00  0.68722227554E+03  0.68722227554E+03  0.00000000000E+00 0.  1.
         21   -1    0    0  501  502 -0.00000000000E+00 -0.00000000000E+00 -0.16199594889E+03  0.16199594889E+03  0.00000000000E+00 0.  1.
         25    1    1    2    0    0 -0.10618172076E+03 -0.36360204135E+02  0.28971828115E+03  0.33490043998E+03  0.12500000000E+03 0.  0.
         25    1    1    2    0    0  0.53944870950E+02 -0.14175257136E+03  0.10267735385E+02  0.19681023088E+03  0.12500000000E+03 0.  0.
         25    1    1    2    0    0  0.52236849807E+02  0.17811277550E+03  0.22524031012E+03  0.31750755357E+03  0.12500000000E+03 0.  0.
</event>
<event>
 5    0  0.5641283E-005  0.2421424E+03  0.7546771E-02  0.1118374E+00
         21   -1    0    0  502  501  0.00000000000E+00  0.00000000000E+00  0.22818866965E+03  0.22818866965E+03  0.00000000000E+00 0. -1.
         21   -1    0    0  501  502 -0.00000000000E+00 -0.00000000000E+00 -0.25694929456E+03  0.25694929456E+03  0.00000000000E+00 0. -1.
         25    1    1    2    0    0  0.41764684194E+02 -0.79675946306E+02 -0.35916341361E+02  0.15813768951E+03  0.12500000000E+03 0.  0.
         25    1    1    2    0    0  0.20428701151E+02 -0.33802515568E+02 -0.46754347700E+02  0.13917941988E+03  0.12500000000E+03 0.  0.
         25    1    1    2    0    0 -0.62193385345E+02  0.11347846187E+03  0.53910064159E+02  0.18782085483E+03  0.12500000000E+03 0.  0.
</event>
<event>
 5    0  0.5641283E-005  0.3050637E+03  0.7546771E-02  0.1082736E+00
         21   -1    0    0  502  501  0.00000000000E+00  0.00000000000E+00  0.66006602626E+03  0.66006602626E+03  0.00000000000E+00 0.  1.
         21   -1    0    0  501  502 -0.00000000000E+00 -0.00000000000E+00 -0.14099173328E+03  0.14099173328E+03  0.00000000000E+00 0.  1.
         25    1    1    2    0    0  0.15940137020E+03 -0.99704910456E+02  0.14935343408E+03  0.27070521654E+03  0.12500000000E+03 0.  0.
         25    1    1    2    0    0 -0.11510712413E+03  0.31278675727E+02  0.33531021568E+03  0.37720809419E+03  0.12500000000E+03 0.  0.
         25    1    1    2    0    0 -0.44294246070E+02  0.68426234729E+02  0.34410643214E+02  0.15314444881E+03  0.12500000000E+03 0.  0.
</event>
<event>
 5    0  0.5641283E-005  0.2906921E+03  0.7546771E-02  0.1089988E+00
         21   -1    0    0  502  501  0.00000000000E+00  0.00000000000E+00  0.47891765559E+03  0.47891765559E+03  0.00000000000E+00 0. -1.
         21   -1    0    0  501  502 -0.00000000000E+00 -0.00000000000E+00 -0.17644347843E+03  0.17644347843E+03  0.00000000000E+00 0. -1.
         25    1    1    2    0    0  0.14365363193E+03  0.70108279948E+02  0.43056119301E+02  0.20743762025E+03  0.12500000000E+03 0.  0.
         25    1    1    2    0    0 -0.38458253149E+02 -0.11982923490E+03  0.19948207318E+03  0.26693853279E+03  0.12500000000E+03 0.  0.
         25    1    1    2    0    0 -0.10519537878E+03  0.49720954947E+02  0.59935984684E+02  0.18098498097E+03  0.12500000000E+03 0.  0.
</event>
<event>
 5    0  0.5641283E-005  0.2520544E+03  0.7546771E-02  0.1112013E+00
         21   -1    0    0  502  501  0.00000000000E+00  0.00000000000E+00  0.16476893212E+03  0.16476893212E+03  0.00000000000E+00 0.  1.
         21   -1    0    0  501  502 -0.00000000000E+00 -0.00000000000E+00 -0.38557885633E+03  0.38557885633E+03  0.00000000000E+00 0.  1.
         25    1    1    2    0    0 -0.15966144724E+02 -0.63182357156E+02 -0.36780537511E+02  0.14568711670E+03  0.12500000000E+03 0.  0.
         25    1    1    2    0    0  0.59951525598E+02  0.12844041701E+03 -0.30180191095E+02  0.19138173915E+03  0.12500000000E+03 0.  0.
         25    1    1    2    0    0 -0.43985380875E+02 -0.65258059857E+02 -0.15384919560E+03  0.21327893261E+03  0.12500000000E+03 0.  0.
</event>
<event>
 5    0  0.5641283E-005  0.2292129E+03  0.7546771E-02  0.1127195E+00
         21   -1    0    0  502  501  0.00000000000E+00  0.00000000000E+00  0.10612150547E+04  0.10612150547E+04  0.00000000000E+00 0. -1.
         21   -1    0    0  501  502 -0.00000000000E+00 -0.00000000000E+00 -0.49507931724E+02  0.49507931724E+02  0.00000000000E+00 0. -1.
         25    1    1    2    0    0 -0.42693098549E+02  0.25491020205E+02  0.59910641224E+03  0.61402441805E+03  0.12500000000E+03 0.  0.
         25    1    1    2    0    0 -0.15748895728E+00  0.81317494407E+01  0.11807547521E+03  0.17214228997E+03  0.12500000000E+03 0.  0.
         25    1    1    2    0    0  0.42850587506E+02 -0.33622769645E+02  0.29452523557E+03  0.32455627844E+03  0.12500000000E+03 0.  0.
</event>
<event>
 5    0  0.5641283E-005  0.6233056E+03  0.7546771E-02  0.9858200E-01
         21   -1    0    0  502  501  0.00000000000E+00  0.00000000000E+00  0.19474426839E+04  0.19474426839E+04  0.00000000000E+00 0.  1.
         21   -1    0    0  501  502 -0.00000000000E+00 -0.00000000000E+00 -0.19949745608E+03  0.19949745608E+03  0.00000000000E+00 0.  1.
         25    1    1    2    0    0 -0.39805733179E+03 -0.82696024072E+01  0.32320546237E+03  0.52783027255E+03  0.12500000000E+03 0.  0.
         25    1    1    2    0    0  0.29329122235E+03 -0.63473184364E+02  0.14023437863E+04  0.14395282843E+04  0.12500000000E+03 0.  0.
         25    1    1    2    0    0  0.10476610944E+03  0.71742786771E+02  0.22395979202E+02  0.17958158320E+03  0.12500000000E+03 0.  0.
</event>
<event>
 5    0  0.5641283E-005  0.3688903E+03  0.7546771E-02  0.1055118E+00
         21   -1    0    0  502  501  0.00000000000E+00  0.00000000000E+00  0.36216732369E+03  0.36216732369E+03  0.00000000000E+00 0.  1.
         21   -1    0    0  501  502 -0.00000000000E+00 -0.00000000000E+00 -0.37573804282E+03  0.37573804282E+03  0.00000000000E+00 0.  1.
         25    1    1    2    0    0  0.27919990273E+03  0.44294216007E+02 -0.13486532795E+03  0.33723614862E+03  0.12500000000E+03 0.  0.
         25    1    1    2    0    0 -0.17882671312E+03 -0.35680640049E+02  0.63186578427E+02  0.22993400160E+03  0.12500000000E+03 0.  0.
         25    1    1    2    0    0 -0.10037318961E+03 -0.86135759587E+01  0.58108030396E+02  0.17073521628E+03  0.12500000000E+03 0.  0.
</event>
<event>
 5    0  0.5641283E-005  0.2674534E+03  0.7546771E-02  0.1102746E+00
         21   -1    0    0  502  501  0.00000000000E+00  0.00000000000E+00  0.17569786854E+04  0.17569786854E+04  0.00000000000E+00 0. -1.
         21   -1    0    0  501  502 -0.00000000000E+00 -0.00000000000E+00 -0.40712696000E+02  0.40712696000E+02  0.00000000000E+00 0. -1.
         25    1    1    2    0    0  0.55406451747E+02  0.45955686361E+02  0.58913215094E+03  0.60653399845E+03  0.12500000000E+03 0.  0.
         25    1    1    2    0    0 -0.81792068631E+02 -0.13946876024E+03  0.42756412306E+03  0.47389614569E+03  0.12500000000E+03 0.  0.
         25    1    1    2    0    0  0.26385616885E+02  0.93513073881E+02  0.69956971536E+03  0.71726123722E+03  0.12500000000E+03 0.  0.
</event>
<event>
 5    0  0.5641283E-005  0.2271459E+03  0.7546771E-02  0.1128665E+00
         21   -1    0    0  502  501  0.00000000000E+00  0.00000000000E+00  0.92244243444E+02  0.92244243444E+02  0.00000000000E+00 0.  1.
         21   -1    0    0  501  502 -0.00000000000E+00 -0.00000000000E+00 -0.55933323671E+03  0.55933323671E+03  0.00000000000E+00 0.  1.
         25    1    1    2    0    0 -0.12638715150E+02 -0.26332326898E+02 -0.98666240890E+02  0.16190477341E+03  0.12500000000E+03 0.  0.
         25    1    1    2    0    0 -0.22286891595E+00  0.10766145913E+03 -0.13892448067E+03  0.21567580018E+03  0.12500000000E+03 0.  0.
         25    1    1    2    0    0  0.12861584066E+02 -0.81329132234E+02 -0.22949827170E+03  0.27399690657E+03  0.12500000000E+03 0.  0.
</event>
<event>
 5    0  0.5641283E-005  0.6827228E+03  0.7546771E-02  0.9747243E-01
         21   -1    0    0  502  501  0.00000000000E+00  0.00000000000E+00  0.84107446281E+03  0.84107446281E+03  0.00000000000E+00 0.  1.
         21   -1    0    0  501  502 -0.00000000000E+00 -0.00000000000E+00 -0.55418448196E+03  0.55418448196E+03  0.00000000000E+00 0.  1.
         25    1    1    2    0    0  0.87503545525E+01 -0.58373182052E+03  0.24300319343E+03  0.64458898456E+03  0.12500000000E+03 0.  0.
         25    1    1    2    0    0  0.26549092493E+02  0.38554275713E+03 -0.16148943508E+03  0.43709485187E+03  0.12500000000E+03 0.  0.
         25    1    1    2    0    0 -0.35299447045E+02  0.19818906339E+03  0.20537622250E+03  0.31357510835E+03  0.12500000000E+03 0.  0.
</event>
<event>
 5    0  0.5641283E-005  0.2682802E+03  0.7546771E-02  0.1102268E+00
         21   -1    0    0  502  501  0.00000000000E+00  0.00000000000E+00  0.22687578550E+03  0.22687578550E+03  0.00000000000E+00 0. -1.
         21   -1    0    0  501  502 -0.00000000000E+00 -0.00000000000E+00 -0.31724076258E+03  0.31724076258E+03  0.00000000000E+00 0.  1.
         25    1    1    2    0    0  0.21714399131E+02 -0.23208317828E+02 -0.54566102155E+02  0.14004499509E+03  0.12500000000E+03 0.  0.
         25    1    1    2    0    0 -0.34360222502E+02 -0.48130175001E+02 -0.16146572791E+03  0.21258720546E+03  0.12500000000E+03 0.  0.
         25    1    1    2    0    0  0.12645823372E+02  0.71338492829E+02  0.12566685298E+03  0.19148434752E+03  0.12500000000E+03 0.  0.
</event>
<event>
 5    0  0.5641283E-005  0.2222219E+03  0.7546771E-02  0.1132237E+00
         21   -1    0    0  502  501  0.00000000000E+00  0.00000000000E+00  0.20734604189E+04  0.20734604189E+04  0.00000000000E+00 0. -1.
         21   -1    0    0  501  502 -0.00000000000E+00 -0.00000000000E+00 -0.23816509636E+02  0.23816509636E+02  0.00000000000E+00 0. -1.
         25    1    1    2    0    0 -0.11759212097E+02  0.18712871081E+02  0.58503005227E+03  0.59864314301E+03  0.12500000000E+03 0.  0.
         25    1    1    2    0    0 -0.42247756522E+02 -0.56827113661E+02  0.40704118597E+03  0.43164999809E+03  0.12500000000E+03 0.  0.
         25    1    1    2    0    0  0.54006968619E+02  0.38114242579E+02  0.10575726710E+04  0.10669837874E+04  0.12500000000E+03 0.  0.
</event>
<event>
 5    0  0.5641283E-005  0.2836785E+03  0.7546771E-02  0.1093697E+00
         21   -1    0    0  502  501  0.00000000000E+00  0.00000000000E+00  0.20344015942E+03  0.20344015942E+03  0.00000000000E+00 0.  1.
         21   -1    0    0  501  502 -0.00000000000E+00 -0.00000000000E+00 -0.39556353785E+03  0.39556353785E+03  0.00000000000E+00 0.  1.
         25    1    1    2    0    0 -0.11688850576E+03 -0.97055186962E+01  0.84880708077E+02  0.19127690524E+03  0.12500000000E+03 0.  0.
         25    1    1    2    0    0  0.11084051868E+03 -0.20707733693E+02 -0.13307235217E+03  0.21458723571E+03  0.12500000000E+03 0.  0.
         25    1    1    2    0    0  0.60479870796E+01  0.30413252390E+02 -0.14393173433E+03  0.19313955632E+03  0.12500000000E+03 0.  0.
</event>
<event>
 5    0  0.5641283E-005  0.2174696E+03  0.7546771E-02  0.1135784E+00
         21   -1    0    0  502  501  0.00000000000E+00  0.00000000000E+00  0.27775164347E+03  0.27775164347E+03  0.00000000000E+00 0.  1.
         21   -1    0    0  501  502 -0.00000000000E+00 -0.00000000000E+00 -0.17027084439E+03  0.17027084439E+03  0.00000000000E+00 0.  1.
         25    1    1    2    0    0  0.37161606933E+02 -0.30384508473E+02  0.72674864592E+01  0.13409705345E+03  0.12500000000E+03 0.  0.
         25    1    1    2    0    0  0.25384659372E+02 -0.46655432382E+02  0.27642889684E+02  0.13860100884E+03  0.12500000000E+03 0.  0.
         25    1    1    2    0    0 -0.62546266305E+02  0.77039940855E+02  0.72570422938E+02  0.17532442557E+03  0.12500000000E+03 0.  0.
</event>
<event>
 5    0  0.5641283E-005  0.4010802E+03  0.7546771E-02  0.1043406E+00
         21   -1    0    0  502  501  0.00000000000E+00  0.00000000000E+00  0.11670562479E+04  0.11670562479E+04  0.00000000000E+00 0.  1.
         21   -1    0    0  501  502 -0.00000000000E+00 -0.00000000000E+00 -0.13783856159E+03  0.13783856159E+03  0.00000000000E+00 0.  1.
         25    1    1    2    0    0 -0.12149470206E+03  0.32736309781E+02  0.69219928213E+02  0.19039177258E+03  0.12500000000E+03 0.  0.
         25    1    1    2    0    0  0.73608437255E+02  0.74125590376E+02  0.26043946817E+02  0.16497300491E+03  0.12500000000E+03 0.  0.
         25    1    1    2    0    0  0.47886264803E+02 -0.10686190016E+03  0.93395381128E+03  0.94953003200E+03  0.12500000000E+03 0.  0.
</event>
<event>
 5    0  0.5641283E-005  0.3025458E+03  0.7546771E-02  0.1083975E+00
         21   -1    0    0  502  501  0.00000000000E+00  0.00000000000E+00  0.90397685660E+03  0.90397685660E+03  0.00000000000E+00 0. -1.
         21   -1    0    0  501  502 -0.00000000000E+00 -0.00000000000E+00 -0.10125694169E+03  0.10125694169E+03  0.00000000000E+00 0. -1.
         25    1    1    2    0    0  0.20465321136E+03  0.65535165344E+02  0.32990899816E+03  0.41308926624E+03  0.12500000000E+03 0.  0.
         25    1    1    2    0    0 -0.13532657112E+03  0.20282249610E+02  0.29507684284E+03  0.34845371814E+03  0.12500000000E+03 0.  0.
         25    1    1    2    0    0 -0.69326640233E+02 -0.85817414954E+02  0.17773407391E+03  0.24369081391E+03  0.12500000000E+03 0.  0.
</event>
<event>
 5    0  0.5641283E-005  0.3556954E+03  0.7546771E-02  0.1060301E+00
         21   -1    0    0  502  501  0.00000000000E+00  0.00000000000E+00  0.29836039073E+03  0.29836039073E+03  0.00000000000E+00 0.  1.
         21   -1    0    0  501  502 -0.00000000000E+00 -0.00000000000E+00 -0.42404823734E+03  0.42404823734E+03  0.00000000000E+00 0.  1.
         25    1    1    2    0    0 -0.57292777602E+02 -0.75049832000E+02  0.20833130215E+03  0.26065661531E+03  0.12500000000E+03 0.  0.
         25    1    1    2    0    0  0.84471735250E+02 -0.16903924105E+01 -0.89798757412E+02  0.17557661665E+03  0.12500000000E+03 0.  0.
         25    1    1    2    0    0 -0.27178957647E+02  0.76740224410E+02 -0.24422039135E+03  0.28617539610E+03  0.12500000000E+03 0.  0.
</event>
<event>
 5    0  0.5641283E-005  0.2113676E+03  0.7546771E-02  0.1140488E+00
         21   -1    0    0  502  501  0.00000000000E+00  0.00000000000E+00  0.26097708985E+03  0.26097708985E+03  0.00000000000E+00 0. -1.
         21   -1    0    0  501  502 -0.00000000000E+00 -0.00000000000E+00 -0.17118848113E+03  0.17118848113E+03  0.00000000000E+00 0. -1.
         25    1    1    2    0    0  0.61480755649E+02 -0.18407685150E+02  0.58885613701E+01  0.14063570437E+03  0.12500000000E+03 0.  0.
         25    1    1    2    0    0 -0.10795970269E+02 -0.40327299656E+02  0.46290213774E+02  0.13968044947E+03  0.12500000000E+03 0.  0.
         25    1    1    2    0    0 -0.50684785380E+02  0.58734984806E+02  0.37609833577E+02  0.15184941716E+03  0.12500000000E+03 0.  0.
</event>
<event>
 5    0  0.5864842E-005  0.3585117E+03  0.7546771E-02  0.1059175E+00
         21   -1    0    0  502  501  0.00000000000E+00  0.00000000000E+00  0.36013548043E+03  0.36013548043E+03  0.00000000000E+00 0. -1.
         21   -1    0    0  501  502 -0.00000000000E+00 -0.00000000000E+00 -0.35689524382E+03  0.35689524382E+03  0.00000000000E+00 0.  1.
         25    1    1    2    0    0  0.46909291883E+02 -0.23632205640E+03 -0.19702864031E+02  0.27214297502E+03  0.12500000000E+03 0.  0.
         25    1    1    2    0    0  0.13855904068E+02  0.10985725365E+03  0.14471446182E+03  0.22097030958E+03  0.12500000000E+03 0.  0.
         25    1    1    2    0    0 -0.60765195951E+02  0.12646480275E+03 -0.12177136118E+03  0.22391743964E+03  0.12500000000E+03 0.  0.
</event>
<event>
 5    0  0.5641283E-005  0.1987853E+03  0.7546771E-02  0.1150768E+00
         21   -1    0    0  502  501  0.00000000000E+00  0.00000000000E+00  0.56916102988E+03  0.56916102988E+03  0.00000000000E+00 0.  1.
         21   -1    0    0  501  502 -0.00000000000E+00 -0.00000000000E+00 -0.69427776122E+02  0.69427776122E+02  0.00000000000E+00 0.  1.
         25    1    1    2    0    0  0.13483873264E+02 -0.52396783199E+02  0.16870269920E+03  0.21682444153E+03  0.12500000000E+03 0.  0.
         25    1    1    2    0    0 -0.19790246154E+02  0.37080670954E+02  0.20293042591E+03  0.24201732946E+03  0.12500000000E+03 0.  0.
         25    1    1    2    0    0  0.63063728902E+01  0.15316112245E+02  0.12810012865E+03  0.17974703500E+03  0.12500000000E+03 0.  0.
</event>
<event>
 5    0  0.5641283E-005  0.3202515E+03  0.7546771E-02  0.1075534E+00
         21   -1    0    0  502  501  0.00000000000E+00  0.00000000000E+00  0.64350898857E+02  0.64350898857E+02  0.00000000000E+00 0. -1.
         21   -1    0    0  501  502 -0.00000000000E+00 -0.00000000000E+00 -0.15937779811E+04  0.15937779811E+04  0.00000000000E+00 0. -1.
         25    1    1    2    0    0 -0.16099206807E+01  0.85951261393E+02 -0.78888686899E+03  0.80334158566E+03  0.12500000000E+03 0.  0.
         25    1    1    2    0    0 -0.90063975964E+02  0.95159344642E+01 -0.61392723968E+03  0.63303532950E+03  0.12500000000E+03 0.  0.
         25    1    1    2    0    0  0.91673896645E+02 -0.95467195857E+02 -0.12661297355E+03  0.22175196477E+03  0.12500000000E+03 0.  0.
</event>
<event>
 5    0  0.5641283E-005  0.3765887E+03  0.7546771E-02  0.1052202E+00
         21   -1    0    0  502  501  0.00000000000E+00  0.00000000000E+00  0.66520446689E+03  0.66520446689E+03  0.00000000000E+00 0. -1.
         21   -1    0    0  501  502 -0.00000000000E+00 -0.00000000000E+00 -0.21319614020E+03  0.21319614020E+03  0.00000000000E+00 0. -1.
         25    1    1    2    0    0  0.65039547851E+02 -0.97261252031E+02  0.79490644724E+02  0.18876879120E+03  0.12500000000E+03 0.  0.
         25    1    1    2    0    0 -0.25474276337E+03  0.17647247531E+03  0.16879394240E+03  0.37436987729E+03  0.12500000000E+03 0.  0.
         25    1    1    2    0    0  0.18970321552E+03 -0.79211223274E+02  0.20372373957E+03  0.31526193861E+03  0.12500000000E+03 0.  0.
</event>
<event>
 5    0  0.5641283E-005  0.3552618E+03  0.7546771E-02  0.1060476E+00
         21   -1    0    0  502  501  0.00000000000E+00  0.00000000000E+00  0.95864387432E+03  0.95864387432E+03  0.00000000000E+00 0.  1.
         21   -1    0    0  501  502 -0.00000000000E+00 -0.00000000000E+00 -0.13165568483E+03  0.13165568483E+03  0.00000000000E+00 0.  1.
         25    1    1    2    0    0 -0.26304412136E+02  0.60957152733E+02 -0.77724891304E+01  0.14175016104E+03  0.12500000000E+03 0.  0.
         25    1    1    2    0    0  0.16481637506E+03  0.26359573454E+02  0.23390276466E+03  0.31336044408E+03  0.12500000000E+03 0.  0.
         25    1    1    2    0    0 -0.13851196292E+03 -0.87316726187E+02  0.60085791397E+03  0.63518895403E+03  0.12500000000E+03 0.  0.
</event>
<event>
 5    0  0.5641283E-005  0.2251549E+03  0.7546771E-02  0.1130097E+00
         21   -1    0    0  502  501  0.00000000000E+00  0.00000000000E+00  0.71006363043E+02  0.71006363043E+02  0.00000000000E+00 0.  1.
         21   -1    0    0  501  502 -0.00000000000E+00 -0.00000000000E+00 -0.71394650831E+03  0.71394650831E+03  0.00000000000E+00 0.  1.
         25    1    1    2    0    0  0.70817750156E+02  0.13845100884E+02 -0.18917142844E+03  0.23794467822E+03  0.12500000000E+03 0.  0.
         25    1    1    2    0    0 -0.11353711336E+02 -0.82927100186E+02 -0.21099565341E+03  0.25913312499E+03  0.12500000000E+03 0.  0.
         25    1    1    2    0    0 -0.59464038821E+02  0.69081999302E+02 -0.24277306341E+03  0.28787506814E+03  0.12500000000E+03 0.  0.
</event>
<event>
 5    0  0.5641283E-005  0.2068317E+03  0.7546771E-02  0.1144100E+00
         21   -1    0    0  502  501  0.00000000000E+00  0.00000000000E+00  0.11656816011E+04  0.11656816011E+04  0.00000000000E+00 0.  1.
         21   -1    0    0  501  502 -0.00000000000E+00 -0.00000000000E+00 -0.36699013487E+02  0.36699013487E+02  0.00000000000E+00 0.  1.
         25    1    1    2    0    0 -0.82054542096E+01 -0.13182598121E+02  0.46315847723E+03  0.47998113025E+03  0.12500000000E+03 0.  0.
         25    1    1    2    0    0 -0.46323124312E+02 -0.19789808286E+01  0.23419760605E+03  0.26948704401E+03  0.12500000000E+03 0.  0.
         25    1    1    2    0    0  0.54528578521E+02  0.15161578949E+02  0.43162650431E+03  0.45291244029E+03  0.12500000000E+03 0.  0.
</event>
<event>
 5    0  0.5641283E-005  0.3654902E+03  0.7546771E-02  0.1056431E+00
         21   -1    0    0  502  501  0.00000000000E+00  0.00000000000E+00  0.68974326117E+02  0.68974326117E+02  0.00000000000E+00 0.  1.
         21   -1    0    0  501  502 -0.00000000000E+00 -0.00000000000E+00 -0.19367071421E+04  0.19367071421E+04  0.00000000000E+00 0.  1.
         25    1    1    2    0    0  0.22311017331E+03 -0.53621481474E+02 -0.70500307368E+03  0.75186950105E+03  0.12500000000E+03 0.  0.
         25    1    1    2    0    0 -0.12192282269E+02  0.74718653059E+02 -0.14173883493E+03  0.20358395366E+03  0.12500000000E+03 0.  0.
         25    1    1    2    0    0 -0.21091789104E+03 -0.21097171585E+02 -0.10209909074E+04  0.10502280135E+04  0.12500000000E+03 0.  0.
</event>
<event>
 5    0  0.5641283E-005  0.3058325E+03  0.7546771E-02  0.1082361E+00
         21   -1    0    0  502  501  0.00000000000E+00  0.00000000000E+00  0.55122548837E+03  0.55122548837E+03  0.00000000000E+00 0.  1.
         21   -1    0    0  501  502 -0.00000000000E+00 -0.00000000000E+00 -0.16968286900E+03  0.16968286900E+03  0.00000000000E+00 0.  1.
         25    1    1    2    0    0 -0.13518187215E+01 -0.12356923108E+03  0.25802549658E+03  0.31220720550E+03  0.12500000000E+03 0.  0.
         25    1    1    2    0    0  0.84724390215E+01  0.18214974809E+03  0.15105502313E+03  0.26775536029E+03  0.12500000000E+03 0.  0.
         25    1    1    2    0    0 -0.71206202999E+01 -0.58580517010E+02 -0.27537900347E+02  0.14094579157E+03  0.12500000000E+03 0.  0.
</event>
<event>
 5    0  0.5641283E-005  0.2577083E+03  0.7546771E-02  0.1108528E+00
         21   -1    0    0  502  501  0.00000000000E+00  0.00000000000E+00  0.86332555906E+02  0.86332555906E+02  0.00000000000E+00 0. -1.
         21   -1    0    0  501  502 -0.00000000000E+00 -0.00000000000E+00 -0.76927605262E+03  0.76927605262E+03  0.00000000000E+00 0. -1.
         25    1    1    2    0    0  0.51684970101E+01  0.12311514937E+02 -0.76050587604E+02  0.14692507831E+03  0.12500000000E+03 0.  0.
         25    1    1    2    0    0 -0.20992263943E+02  0.28065653720E+02 -0.54722463929E+02  0.14088258985E+03  0.12500000000E+03 0.  0.
         25    1    1    2    0    0  0.15823766933E+02 -0.40377168658E+02 -0.55217044518E+03  0.56780094036E+03  0.12500000000E+03 0.  0.
</event>
<event>
 5    0  0.5641283E-005  0.3259167E+03  0.7546771E-02  0.1072958E+00
         21   -1    0    0  502  501  0.00000000000E+00  0.00000000000E+00  0.11837048201E+03  0.11837048201E+03  0.00000000000E+00 0.  1.
         21   -1    0    0  501  502 -0.00000000000E+00 -0.00000000000E+00 -0.89736624644E+03  0.89736624644E+03  0.00000000000E+00 0.  1.
         25    1    1    2    0    0 -0.90371781984E+01 -0.31524199746E+02  0.18161824465E+02  0.13050018248E+03  0.12500000000E+03 0.  0.
         25    1    1    2    0    0  0.61190584332E+01  0.14321135707E+03 -0.25740345050E+03  0.32004448441E+03  0.12500000000E+03 0.  0.
         25    1    1    2    0    0  0.29181197652E+01 -0.11168715733E+03 -0.53975413840E+03  0.56519206157E+03  0.12500000000E+03 0.  0.
</event>
<event>
 5    0  0.5641283E-005  0.3797446E+03  0.7546771E-02  0.1051028E+00
         21   -1    0    0  502  501  0.00000000000E+00  0.00000000000E+00  0.54969107037E+03  0.54969107037E+03  0.00000000000E+00 0.  1.
         21   -1    0    0  501  502 -0.00000000000E+00 -0.00000000000E+00 -0.26234000703E+03  0.26234000703E+03  0.00000000000E+00 0.  1.
         25    1    1    2    0    0  0.11620463719E+03 -0.59582733669E+02 -0.18165306630E+03  0.25627418199E+03  0.12500000000E+03 0.  0.
         25    1    1    2    0    0 -0.49110273479E+02  0.32603702794E+02  0.14132754023E+03  0.19766965883E+03  0.12500000000E+03 0.  0.
         25    1    1    2    0    0 -0.67094363713E+02  0.26979030875E+02  0.32767658942E+03  0.35808723658E+03  0.12500000000E+03 0.  0.
</event>
<event>
 5    0  0.5641283E-005  0.2587693E+03  0.7546771E-02  0.1107885E+00
         21   -1    0    0  502  501  0.00000000000E+00  0.00000000000E+00  0.24475705610E+03  0.24475705610E+03  0.00000000000E+00 0.  1.
         21   -1    0    0  501  502 -0.00000000000E+00 -0.00000000000E+00 -0.27358374181E+03  0.27358374181E+03  0.00000000000E+00 0.  1.
         25    1    1    2    0    0  0.10573770357E+03  0.32335490682E+02 -0.38698701357E+02  0.17131443430E+03  0.12500000000E+03 0.  0.
         25    1    1    2    0    0 -0.15485719070E+03  0.19454245385E+02  0.28128069277E+02  0.20192920902E+03  0.12500000000E+03 0.  0.
         25    1    1    2    0    0  0.49119487126E+02 -0.51789736067E+02 -0.18256053630E+02  0.14509715460E+03  0.12500000000E+03 0.  0.
</event>
<event>
 5    0  0.5641283E-005  0.2600095E+03  0.7546771E-02  0.1107138E+00
         21   -1    0    0  502  501  0.00000000000E+00  0.00000000000E+00  0.63353030229E+02  0.63353030229E+02  0.00000000000E+00 0.  1.
         21   -1    0    0  501  502 -0.00000000000E+00 -0.00000000000E+00 -0.10671147347E+04  0.10671147347E+04  0.00000000000E+00 0.  1.
         25    1    1    2    0    0  0.16376177231E+03  0.51552473891E+01 -0.47472239323E+03  0.51752376301E+03  0.12500000000E+03 0.  0.
         25    1    1    2    0    0 -0.11072105853E+03 -0.98522485137E+01 -0.22912734368E+03  0.28369095725E+03  0.12500000000E+03 0.  0.
         25    1    1    2    0    0 -0.53040713777E+02  0.46970011246E+01 -0.29991196757E+03  0.32925304468E+03  0.12500000000E+03 0.  0.
</event>
<event>
 5    0  0.5641283E-005  0.2746711E+03  0.7546771E-02  0.1098636E+00
         21   -1    0    0  502  501  0.00000000000E+00  0.00000000000E+00  0.12014791696E+04  0.12014791696E+04  0.00000000000E+00 0. -1.
         21   -1    0    0  501  502 -0.00000000000E+00 -0.00000000000E+00 -0.62792776635E+02  0.62792776635E+02  0.00000000000E+00 0. -1.
         25    1    1    2    0    0 -0.88759603657E+02  0.10540874557E+03  0.29889989324E+03  0.35207302803E+03  0.12500000000E+03 0.  0.
         25    1    1    2    0    0 -0.44217420864E+02 -0.66131718786E+02  0.53176555986E+03  0.55202191550E+03  0.12500000000E+03 0.  0.
         25    1    1    2    0    0  0.13297702452E+03 -0.39277026779E+02  0.30802093981E+03  0.36017700266E+03  0.12500000000E+03 0.  0.
</event>
<event>
 5    0  0.5641283E-005  0.2640269E+03  0.7546771E-02  0.1104748E+00
         21   -1    0    0  502  501  0.00000000000E+00  0.00000000000E+00  0.79638544672E+03  0.79638544672E+03  0.00000000000E+00 0. -1.
         21   -1    0    0  501  502 -0.00000000000E+00 -0.00000000000E+00 -0.87533224315E+02  0.87533224315E+02  0.00000000000E+00 0. -1.
         25    1    1    2    0    0  0.69394861659E+01  0.11874670987E+03  0.73411714491E+02  0.18751857881E+03  0.12500000000E+03 0.  0.
         25    1    1    2    0    0  0.20067404908E+02 -0.64754650026E+02  0.37900636707E+03  0.40480451050E+03  0.12500000000E+03 0.  0.
         25    1    1    2    0    0 -0.27006891074E+02 -0.53992059848E+02  0.25643414084E+03  0.29159558172E+03  0.12500000000E+03 0.  0.
</event>
<event>
 5    0  0.5641283E-005  0.2750152E+03  0.7546771E-02  0.1098443E+00
         21   -1    0    0  502  501  0.00000000000E+00  0.00000000000E+00  0.25197104023E+03  0.25197104023E+03  0.00000000000E+00 0. -1.
         21   -1    0    0  501  502 -0.00000000000E+00 -0.00000000000E+00 -0.30016678353E+03  0.30016678353E+03  0.00000000000E+00 0. -1.
         25    1    1    2    0    0  0.11052920857E+02 -0.32304554287E+02  0.39012256401E+02  0.13532445247E+03  0.12500000000E+03 0.  0.
         25    1    1    2    0    0 -0.91578541051E+02 -0.92965038746E+02  0.39198645271E+02  0.18490716969E+03  0.12500000000E+03 0.  0.
         25    1    1    2    0    0  0.80525620194E+02  0.12526959303E+03 -0.12640664498E+03  0.23190620160E+03  0.12500000000E+03 0.  0.
</event>
<event>
 5    0  0.5641283E-005  0.2317342E+03  0.7546771E-02  0.1125425E+00
         21   -1    0    0  502  501  0.00000000000E+00  0.00000000000E+00  0.99547289096E+03  0.99547289096E+03  0.00000000000E+00 0.  1.
         21   -1    0    0  501  502 -0.00000000000E+00 -0.00000000000E+00 -0.53944959260E+02  0.53944959260E+02  0.00000000000E+00 0.  1.
         25    1    1    2    0    0  0.24343736840E+02  0.45262491695E+02  0.18177646776E+03  0.22651488893E+03  0.12500000000E+03 0.  0.
         25    1    1    2    0    0 -0.99761266767E+02  0.14115620906E+01  0.33184158414E+03  0.36837228427E+03  0.12500000000E+03 0.  0.
         25    1    1    2    0    0  0.75417529926E+02 -0.46674053785E+02  0.42790987981E+03  0.45453067702E+03  0.12500000000E+03 0.  0.
</event>
<event>
 5    0  0.5641283E-005  0.2632560E+03  0.7546771E-02  0.1105203E+00
         21   -1    0    0  502  501  0.00000000000E+00  0.00000000000E+00  0.15779957256E+03  0.15779957256E+03  0.00000000000E+00 0.  1.
         21   -1    0    0  501  502 -0.00000000000E+00 -0.00000000000E+00 -0.43918817974E+03  0.43918817974E+03  0.00000000000E+00 0.  1.
         25    1    1    2    0    0  0.66527346195E+02 -0.18790115344E+02 -0.16915421364E+03  0.22139806733E+03  0.12500000000E+03 0.  0.
         25    1    1    2    0    0  0.46966519321E+02 -0.72981435401E+02 -0.10190871910E+03  0.18314620083E+03  0.12500000000E+03 0.  0.
         25    1    1    2    0    0 -0.11349386552E+03  0.91771550745E+02 -0.10325674436E+02  0.19244348414E+03  0.12500000000E+03 0.  0.
</event>
<event>
 5    0  0.5641283E-005  0.2972964E+03  0.7546771E-02  0.1086600E+00
         21   -1    0    0  502  501  0.00000000000E+00  0.00000000000E+00  0.79207956496E+02  0.79207956496E+02  0.00000000000E+00 0.  1.
         21   -1    0    0  501  502 -0.00000000000E+00 -0.00000000000E+00 -0.11158620717E+04  0.11158620717E+04  0.00000000000E+00 0.  1.
         25    1    1    2    0    0 -0.76778288709E+02 -0.15456339701E+03 -0.26007202300E+03  0.33622493432E+03  0.12500000000E+03 0.  0.
         25    1    1    2    0    0  0.84853882727E+02  0.17524763245E+03 -0.58415498495E+03  0.62831040142E+03  0.12500000000E+03 0.  0.
         25    1    1    2    0    0 -0.80755940184E+01 -0.20684235440E+02 -0.19242710720E+03  0.23053469240E+03  0.12500000000E+03 0.  0.
</event>
<event>
 5    0  0.5641283E-005  0.2260915E+03  0.7546771E-02  0.1129421E+00
         21   -1    0    0  502  501  0.00000000000E+00  0.00000000000E+00  0.17140755618E+04  0.17140755618E+04  0.00000000000E+00 0. -1.
         21   -1    0    0  501  502 -0.00000000000E+00 -0.00000000000E+00 -0.29822117268E+02  0.29822117268E+02  0.00000000000E+00 0. -1.
         25    1    1    2    0    0 -0.24346939674E+02  0.99470284755E+01  0.64357636251E+03  0.65613051386E+03  0.12500000000E+03 0.  0.
         25    1    1    2    0    0 -0.69170798679E+02  0.13620471094E+02  0.66418131604E+03  0.67950859980E+03  0.12500000000E+03 0.  0.
         25    1    1    2    0    0  0.93517738354E+02 -0.23567499570E+02  0.37649576599E+03  0.40825856541E+03  0.12500000000E+03 0.  0.
</event>
<event>
 5    0  0.5641283E-005  0.3401765E+03  0.7546771E-02  0.1066721E+00
         21   -1    0    0  502  501  0.00000000000E+00  0.00000000000E+00  0.23124724435E+03  0.23124724435E+03  0.00000000000E+00 0. -1.
         21   -1    0    0  501  502 -0.00000000000E+00 -0.00000000000E+00 -0.50041687935E+03  0.50041687935E+03  0.00000000000E+00 0. -1.
         25    1    1    2    0    0 -0.44629053662E+02  0.94651929273E+02 -0.63489226353E+02  0.17494748357E+03  0.12500000000E+03 0.  0.
         25    1    1    2    0    0 -0.12650501816E+03 -0.20103673639E+03 -0.49936136293E+02  0.27301631216E+03  0.12500000000E+03 0.  0.
         25    1    1    2    0    0  0.17113407182E+03  0.10638480711E+03 -0.15574427235E+03  0.28370032797E+03  0.12500000000E+03 0.  0.
</event>
<event>
 5    0  0.5641283E-005  0.2633893E+03  0.7546771E-02  0.1105124E+00
         21   -1    0    0  502  501  0.00000000000E+00  0.00000000000E+00  0.34965244208E+03  0.34965244208E+03  0.00000000000E+00 0. -1.
         21   -1    0    0  501  502 -0.00000000000E+00 -0.00000000000E+00 -0.19840829280E+03  0.19840829280E+03  0.00000000000E+00 0. -1.
         25    1    1    2    0    0 -0.10998322279E+03  0.56927257638E+02 -0.20161966442E+02  0.17711162257E+03  0.12500000000E+03 0.  0.
         25    1    1    2    0    0  0.11557317983E+03 -0.96155314205E+02  0.80781875228E+02  0.21155074028E+03  0.12500000000E+03 0.  0.
         25    1    1    2    0    0 -0.55899570435E+01  0.39228056567E+02  0.90624240492E+02  0.15939837203E+03  0.12500000000E+03 0.  0.
</event>
<event>
 5    0  0.5641283E-005  0.4589564E+03  0.7546771E-02  0.1025084E+00
         21   -1    0    0  502  501  0.00000000000E+00  0.00000000000E+00  0.94461065799E+03  0.94461065799E+03  0.00000000000E+00 0.  1.
         21   -1    0    0  501  502 -0.00000000000E+00 -0.00000000000E+00 -0.22299235753E+03  0.22299235753E+03  0.00000000000E+00 0.  1.
         25    1    1    2    0    0 -0.20558704684E+03 -0.17549148938E+03  0.49440501711E+03  0.57716948778E+03  0.12500000000E+03 0.  0.
         25    1    1    2    0    0  0.27928325773E+03  0.22251070376E+03  0.98743185376E+02  0.39100558564E+03  0.12500000000E+03 0.  0.
         25    1    1    2    0    0 -0.73696210891E+02 -0.47019214379E+02  0.12847009797E+03  0.19942794210E+03  0.12500000000E+03 0.  0.
</event>
<event>
 5    0  0.5641283E-005  0.3766801E+03  0.7546771E-02  0.1052168E+00
         21   -1    0    0  502  501  0.00000000000E+00  0.00000000000E+00  0.29714111994E+03  0.29714111994E+03  0.00000000000E+00 0. -1.
         21   -1    0    0  501  502 -0.00000000000E+00 -0.00000000000E+00 -0.47751010625E+03  0.47751010625E+03  0.00000000000E+00 0. -1.
         25    1    1    2    0    0  0.27500193222E+03 -0.34861919635E+02 -0.22844125340E+03  0.38033120095E+03  0.12500000000E+03 0.  0.
         25    1    1    2    0    0 -0.10620327380E+03  0.37696371934E+02  0.71692399867E+02  0.18293428334E+03  0.12500000000E+03 0.  0.
         25    1    1    2    0    0 -0.16879865842E+03 -0.28344522985E+01 -0.23620132778E+02  0.21138574190E+03  0.12500000000E+03 0.  0.
</event>
<event>
 5    0  0.5641283E-005  0.3649544E+03  0.7546771E-02  0.1056639E+00
         21   -1    0    0  502  501  0.00000000000E+00  0.00000000000E+00  0.17957686852E+04  0.17957686852E+04  0.00000000000E+00 0.  1.
         21   -1    0    0  501  502 -0.00000000000E+00 -0.00000000000E+00 -0.74169740077E+02  0.74169740077E+02  0.00000000000E+00 0.  1.
         25    1    1    2    0    0  0.79902047096E+02  0.14350397658E+03  0.68067070512E+03  0.71127725764E+03  0.12500000000E+03 0.  0.
         25    1    1    2    0    0 -0.49215177361E+02 -0.61628413718E+02  0.98524567017E+03  0.99627015696E+03  0.12500000000E+03 0.  0.
         25    1    1    2    0    0 -0.30686869735E+02 -0.81875562864E+02  0.55682569845E+02  0.16239101069E+03  0.12500000000E+03 0.  0.
</event>
<event>
 5    0  0.5641283E-005  0.2548982E+03  0.7546771E-02  0.1110248E+00
         21   -1    0    0  502  501  0.00000000000E+00  0.00000000000E+00  0.24040961613E+03  0.24040961613E+03  0.00000000000E+00 0. -1.
         21   -1    0    0  501  502 -0.00000000000E+00 -0.00000000000E+00 -0.27025990025E+03  0.27025990025E+03  0.00000000000E+00 0. -1.
         25    1    1    2    0    0 -0.34071962557E+02  0.13079634549E+03 -0.72637420463E+02  0.19791356062E+03  0.12500000000E+03 0.  0.
         25    1    1    2    0    0  0.71305871437E+02 -0.50252380665E+02  0.46668908812E+02  0.15941397716E+03  0.12500000000E+03 0.  0.
         25    1    1    2    0    0 -0.37233908880E+02 -0.80543964829E+02 -0.38817724720E+01  0.15334197859E+03  0.12500000000E+03 0.  0.
</event>
<event>
 5    0  0.5641283E-005  0.3214668E+03  0.7546771E-02  0.1074976E+00
         21   -1    0    0  502  501  0.00000000000E+00  0.00000000000E+00  0.16619988982E+03  0.16619988982E+03  0.00000000000E+00 0.  1.
         21   -1    0    0  501  502 -0.00000000000E+00 -0.00000000000E+00 -0.62178672385E+03  0.62178672385E+03  0.00000000000E+00 0.  1.
         25    1    1    2    0    0  0.20322528864E+02 -0.71999872767E+02 -0.14358766954E+02  0.14638360921E+03  0.12500000000E+03 0.  0.
         25    1    1    2    0    0  0.16467377969E+02 -0.15112847748E+03 -0.25956415028E+03  0.32574459220E+03  0.12500000000E+03 0.  0.
         25    1    1    2    0    0 -0.36789906832E+02  0.22312835024E+03 -0.18166391680E+03  0.31585841226E+03  0.12500000000E+03 0.  0.
</event>
<event>
 5    0  0.5641283E-005  0.2789202E+03  0.7546771E-02  0.1096280E+00
         21   -1    0    0  502  501  0.00000000000E+00  0.00000000000E+00  0.14804719034E+04  0.14804719034E+04  0.00000000000E+00 0.  1.
         21   -1    0    0  501  502 -0.00000000000E+00 -0.00000000000E+00 -0.52548425418E+02  0.52548425418E+02  0.00000000000E+00 0.  1.
         25    1    1    2    0    0  0.42140558748E+02  0.11774728836E+03  0.44687948833E+03  0.48058977069E+03  0.12500000000E+03 0.  0.
         25    1    1    2    0    0 -0.11834059822E+03 -0.23219024232E+02  0.70422435642E+03  0.72532790133E+03  0.12500000000E+03 0.  0.
         25    1    1    2    0    0  0.76200039473E+02 -0.94528264127E+02  0.27681963320E+03  0.32710265676E+03  0.12500000000E+03 0.  0.
</event>
<event>
 5    0  0.5641283E-005  0.2668609E+03  0.7546771E-02  0.1103090E+00
         21   -1    0    0  502  501  0.00000000000E+00  0.00000000000E+00  0.50502112123E+03  0.50502112123E+03  0.00000000000E+00 0.  1.
         21   -1    0    0  501  502 -0.00000000000E+00 -0.00000000000E+00 -0.14101340999E+03  0.14101340999E+03  0.00000000000E+00 0.  1.
         25    1    1    2    0    0 -0.75370548322E+02  0.36790882142E+01  0.15055904531E+03  0.20973145060E+03  0.12500000000E+03 0.  0.
         25    1    1    2    0    0  0.18568643202E+02  0.13514089734E+03  0.11184095077E+03  0.21619725927E+03  0.12500000000E+03 0.  0.
         25    1    1    2    0    0  0.56801905120E+02 -0.13881998556E+03  0.10160771515E+03  0.22010582135E+03  0.12500000000E+03 0.  0.
</event>
<event>
 5    0  0.5641283E-005  0.3702255E+03  0.7546771E-02  0.1054607E+00
         21   -1    0    0  502  501  0.00000000000E+00  0.00000000000E+00  0.14877620586E+03  0.14877620586E+03  0.00000000000E+00 0.  1.
         21   -1    0    0  501  502 -0.00000000000E+00 -0.00000000000E+00 -0.92129584069E+03  0.92129584069E+03  0.00000000000E+00 0.  1.
         25    1    1    2    0    0  0.43897886615E+02  0.10602634523E+03 -0.41515474007E+03  0.44849422353E+03  0.12500000000E+03 0.  0.
         25    1    1    2    0    0  0.17139306070E+03 -0.11220604082E+03 -0.90255816473E+02  0.25639206161E+03  0.12500000000E+03 0.  0.
         25    1    1    2    0    0 -0.21529094731E+03  0.61796955877E+01 -0.26710907828E+03  0.36518576141E+03  0.12500000000E+03 0.  0.
</event>
<event>
 5    0  0.5641283E-005  0.4118251E+03  0.7546771E-02  0.1039760E+00
         21   -1    0    0  502  501  0.00000000000E+00  0.00000000000E+00  0.21226938850E+04  0.21226938850E+04  0.00000000000E+00 0.  1.
         21   -1    0    0  501  502 -0.00000000000E+00 -0.00000000000E+00 -0.79898435828E+02  0.79898435828E+02  0.00000000000E+00 0.  1.
         25    1    1    2    0    0  0.26883007791E+03  0.73263952620E+02  0.83067488914E+03  0.88503276154E+03  0.12500000000E+03 0.  0.
         25    1    1    2    0    0 -0.86106162134E+02  0.65388030444E+01  0.10253037929E+03  0.18328804047E+03  0.12500000000E+03 0.  0.
         25    1    1    2    0    0 -0.18272391578E+03 -0.79802755665E+02  0.11095901807E+04  0.11342715188E+04  0.12500000000E+03 0.  0.
</event>
<event>
 5    0  0.5641283E-005  0.3604490E+03  0.7546771E-02  0.1058406E+00
         21   -1    0    0  502  501  0.00000000000E+00  0.00000000000E+00  0.11940263573E+04  0.11940263573E+04  0.00000000000E+00 0. -1.
         21   -1    0    0  501  502 -0.00000000000E+00 -0.00000000000E+00 -0.10881121843E+03  0.10881121843E+03  0.00000000000E+00 0. -1.
         25    1    1    2    0    0  0.23745043493E+03 -0.13791221550E+03  0.51830968558E+03  0.59972695320E+03  0.12500000000E+03 0.  0.
         25    1    1    2    0    0 -0.44303210112E+01  0.33416359478E+02  0.14556191678E+03  0.19480644866E+03  0.12500000000E+03 0.  0.
         25    1    1    2    0    0 -0.23302011391E+03  0.10449585602E+03  0.42134353652E+03  0.50830417388E+03  0.12500000000E+03 0.  0.
</event>
<event>
 5    0  0.5641283E-005  0.4007066E+03  0.7546771E-02  0.1043535E+00
         21   -1    0    0  502  501  0.00000000000E+00  0.00000000000E+00  0.47578323472E+03  0.47578323472E+03  0.00000000000E+00 0. -1.
         21   -1    0    0  501  502 -0.00000000000E+00 -0.00000000000E+00 -0.33747670809E+03  0.33747670809E+03  0.00000000000E+00 0. -1.
         25    1    1    2    0    0  0.19512924195E+03  0.17449873832E+03  0.92077491473E+02  0.30434929796E+03  0.12500000000E+03 0.  0.
         25    1    1    2    0    0 -0.22124971325E+03 -0.75805198186E+02  0.16158002977E+03  0.31053336328E+03  0.12500000000E+03 0.  0.
         25    1    1    2    0    0  0.26120471309E+02 -0.98693540129E+02 -0.11535099462E+03  0.19837728157E+03  0.12500000000E+03 0.  0.
</event>
<event>
 5    0  0.5641283E-005  0.4494969E+03  0.7546771E-02  0.1027872E+00
         21   -1    0    0  502  501  0.00000000000E+00  0.00000000000E+00  0.96195682419E+03  0.96195682419E+03  0.00000000000E+00 0. -1.
         21   -1    0    0  501  502 -0.00000000000E+00 -0.00000000000E+00 -0.21003796963E+03  0.21003796963E+03  0.00000000000E+00 0. -1.
         25    1    1    2    0    0  0.13711712490E+03  0.29511029236E+03  0.38550296177E+03  0.51973909236E+03  0.12500000000E+03 0.  0.
         25    1    1    2    0    0 -0.90578198982E+02 -0.17625884088E+03 -0.11140780959E+02  0.23456492943E+03  0.12500000000E+03 0.  0.
         25    1    1    2    0    0 -0.46538925918E+02 -0.11885145147E+03  0.37755667375E+03  0.41769077203E+03  0.12500000000E+03 0.  0.
</event>
<event>
 5    0  0.5641283E-005  0.2406336E+03  0.7546771E-02  0.1119371E+00
         21   -1    0    0  502  501  0.00000000000E+00  0.00000000000E+00  0.37250470376E+03  0.37250470376E+03  0.00000000000E+00 0. -1.
         21   -1    0    0  501  502 -0.00000000000E+00 -0.00000000000E+00 -0.15544646965E+03  0.15544646965E+03  0.00000000000E+00 0. -1.
         25    1    1    2    0    0 -0.66511433670E+02 -0.10311190082E+02  0.43077756928E+02  0.14836032014E+03  0.12500000000E+03 0.  0.
         25    1    1    2    0    0  0.50092883067E+02 -0.91259706172E+02  0.13896593072E+03  0.21394896776E+03  0.12500000000E+03 0.  0.
         25    1    1    2    0    0  0.16418550603E+02  0.10157089625E+03  0.35014546461E+02  0.16564188550E+03  0.12500000000E+03 0.  0.
</event>
<event>
 5    0  0.5641283E-005  0.3718307E+03  0.7546771E-02  0.1053995E+00
         21   -1    0    0  502  501  0.00000000000E+00  0.00000000000E+00  0.46047138486E+02  0.46047138486E+02  0.00000000000E+00 0.  1.
         21   -1    0    0  501  502 -0.00000000000E+00 -0.00000000000E+00 -0.30025326343E+04  0.30025326343E+04  0.00000000000E+00 0.  1.
         25    1    1    2    0    0 -0.85789171616E+02  0.17012649759E+03 -0.61504524972E+03  0.65590278728E+03  0.12500000000E+03 0.  0.
         25    1    1    2    0    0  0.15091659465E+03 -0.24669191201E+03 -0.18218854184E+04  0.18489251461E+04  0.12500000000E+03 0.  0.
         25    1    1    2    0    0 -0.65127423031E+02  0.76565414420E+02 -0.51955482767E+03  0.54375183942E+03  0.12500000000E+03 0.  0.
</event>
<event>
 5    0  0.5641283E-005  0.2418705E+03  0.7546771E-02  0.1118553E+00
         21   -1    0    0  502  501  0.00000000000E+00  0.00000000000E+00  0.11773570107E+03  0.11773570107E+03  0.00000000000E+00 0. -1.
         21   -1    0    0  501  502 -0.00000000000E+00 -0.00000000000E+00 -0.49688711894E+03  0.49688711894E+03  0.00000000000E+00 0. -1.
         25    1    1    2    0    0 -0.84098303043E+02 -0.60587013748E+02 -0.20353199652E+03  0.26037201158E+03  0.12500000000E+03 0.  0.
         25    1    1    2    0    0 -0.19523546025E+02  0.53431039623E+02 -0.12029234763E+03  0.18256860010E+03  0.12500000000E+03 0.  0.
         25    1    1    2    0    0  0.10362184907E+03  0.71559741244E+01 -0.55327073725E+02  0.17168220833E+03  0.12500000000E+03 0.  0.
</event>
<event>
 5    0  0.5641283E-005  0.2862721E+03  0.7546771E-02  0.1092312E+00
         21   -1    0    0  502  501  0.00000000000E+00  0.00000000000E+00  0.25606146353E+03  0.25606146353E+03  0.00000000000E+00 0. -1.
         21   -1    0    0  501  502 -0.00000000000E+00 -0.00000000000E+00 -0.32004699331E+03  0.32004699331E+03  0.00000000000E+00 0. -1.
         25    1    1    2    0    0  0.56338423946E+02  0.14319892948E+02  0.45654375881E+02  0.14521845401E+03  0.12500000000E+03 0.  0.
         25    1    1    2    0    0 -0.12712047162E+03  0.70477046469E+02 -0.16725238337E+03  0.25441106133E+03  0.12500000000E+03 0.  0.
         25    1    1    2    0    0  0.70782047677E+02 -0.84796939417E+02  0.57612477705E+02  0.17647894151E+03  0.12500000000E+03 0.  0.
</event>
<event>
 5    0  0.5641283E-005  0.3359411E+03  0.7546771E-02  0.1068538E+00
         21   -1    0    0  502  501  0.00000000000E+00  0.00000000000E+00  0.11761048134E+03  0.11761048134E+03  0.00000000000E+00 0.  1.
         21   -1    0    0  501  502 -0.00000000000E+00 -0.00000000000E+00 -0.95957787618E+03  0.95957787618E+03  0.00000000000E+00 0.  1.
         25    1    1    2    0    0 -0.11966113456E+03  0.21055307404E+03 -0.19206494750E+03  0.33341464901E+03  0.12500000000E+03 0.  0.
         25    1    1    2    0    0  0.14182902275E+02 -0.90279466180E+02 -0.33567469332E+03  0.36966746741E+03  0.12500000000E+03 0.  0.
         25    1    1    2    0    0  0.10547823229E+03 -0.12027360786E+03 -0.31422775402E+03  0.37410624110E+03  0.12500000000E+03 0.  0.
</event>
<event>
 5    0  0.5641283E-005  0.2694846E+03  0.7546771E-02  0.1101575E+00
         21   -1    0    0  502  501  0.00000000000E+00  0.00000000000E+00  0.45631932867E+03  0.45631932867E+03  0.00000000000E+00 0. -1.
         21   -1    0    0  501  502 -0.00000000000E+00 -0.00000000000E+00 -0.15914717396E+03  0.15914717396E+03  0.00000000000E+00 0. -1.
         25    1    1    2    0    0 -0.42346542734E+02  0.54752301697E+01  0.11516416321E+03  0.17524552010E+03  0.12500000000E+03 0.  0.
         25    1    1    2    0    0  0.11654395943E+03 -0.12551848983E+03  0.88306463743E+02  0.22969635893E+03  0.12500000000E+03 0.  0.
         25    1    1    2    0    0 -0.74197416699E+02  0.12004325966E+03  0.93701527754E+02  0.21052462359E+03  0.12500000000E+03 0.  0.
</event>
<event>
 5    0  0.5641283E-005  0.3199504E+03  0.7546771E-02  0.1075672E+00
         21   -1    0    0  502  501  0.00000000000E+00  0.00000000000E+00  0.80657379151E+03  0.80657379151E+03  0.00000000000E+00 0.  1.
         21   -1    0    0  501  502 -0.00000000000E+00 -0.00000000000E+00 -0.12691742627E+03  0.12691742627E+03  0.00000000000E+00 0.  1.
         25    1    1    2    0    0  0.74097258412E+02 -0.18691525348E+03  0.46759437196E+03  0.52411564790E+03  0.12500000000E+03 0.  0.
         25    1    1    2    0    0 -0.10007483999E+02  0.37729310905E+02  0.27952781208E+02  0.13390298210E+03  0.12500000000E+03 0.  0.
         25    1    1    2    0    0 -0.64089774413E+02  0.14918594257E+03  0.18410921208E+03  0.27547258778E+03  0.12500000000E+03 0.  0.
</event>
<event>
 5    0  0.5641283E-005  0.4493145E+03  0.7546771E-02  0.1027927E+00
         21   -1    0    0  502  501  0.00000000000E+00  0.00000000000E+00  0.13622271070E+03  0.13622271070E+03  0.00000000000E+00 0.  1.
         21   -1    0    0  501  502 -0.00000000000E+00 -0.00000000000E+00 -0.14820107149E+04  0.14820107149E+04  0.00000000000E+00 0.  1.
         25    1    1    2    0    0 -0.25580890958E+03 -0.22696616988E+03 -0.74630850609E+03  0.83039341686E+03  0.12500000000E+03 0.  0.
         25    1    1    2    0    0  0.25952899031E+03  0.16500590755E+03 -0.54474028058E+03  0.63792571638E+03  0.12500000000E+03 0.  0.
         25    1    1    2    0    0 -0.37200807239E+01  0.61960262329E+02 -0.54739217488E+02  0.14991429231E+03  0.12500000000E+03 0.  0.
</event>
<event>
 5    0  0.5641283E-005  0.3888944E+03  0.7546771E-02  0.1047694E+00
         21   -1    0    0  502  501  0.00000000000E+00  0.00000000000E+00  0.62106556819E+03  0.62106556819E+03  0.00000000000E+00 0. -1.
         21   -1    0    0  501  502 -0.00000000000E+00 -0.00000000000E+00 -0.24351514758E+03  0.24351514758E+03  0.00000000000E+00 0. -1.
         25    1    1    2    0    0  0.91301565088E+02 -0.73931984549E+02  0.91824919515E+02  0.19457319952E+03  0.12500000000E+03 0.  0.
         25    1    1    2    0    0 -0.37463804563E+02  0.30121069698E+03  0.89227783316E+02  0.34017351152E+03  0.12500000000E+03 0.  0.
         25    1    1    2    0    0 -0.53837760524E+02 -0.22727871243E+03  0.19649771778E+03  0.32983400473E+03  0.12500000000E+03 0.  0.
</event>
<event>
 5    0  0.5641283E-005  0.2076770E+03  0.7546771E-02  0.1143419E+00
         21   -1    0    0  502  501  0.00000000000E+00  0.00000000000E+00  0.35535986865E+02  0.35535986865E+02  0.00000000000E+00 0.  1.
         21   -1    0    0  501  502 -0.00000000000E+00 -0.00000000000E+00 -0.12136923101E+04  0.12136923101E+04  0.00000000000E+00 0.  1.
         25    1    1    2    0    0 -0.40308101652E+02 -0.48881401640E+02 -0.41601870288E+03  0.43898826366E+03  0.12500000000E+03 0.  0.
         25    1    1    2    0    0  0.35083688674E+02 -0.17526734187E+02 -0.41948206211E+03  0.43946359582E+03  0.12500000000E+03 0.  0.
         25    1    1    2    0    0  0.52244129779E+01  0.66408135828E+02 -0.34265555825E+03  0.37077643748E+03  0.12500000000E+03 0.  0.
</event>
<event>
 5    0  0.5641283E-005  0.3026688E+03  0.7546771E-02  0.1083914E+00
         21   -1    0    0  502  501  0.00000000000E+00  0.00000000000E+00  0.98072767893E+03  0.98072767893E+03  0.00000000000E+00 0. -1.
         21   -1    0    0  501  502 -0.00000000000E+00 -0.00000000000E+00 -0.93408627028E+02  0.93408627028E+02  0.00000000000E+00 0. -1.
         25    1    1    2    0    0 -0.89598706702E+02  0.75995022587E+02  0.11445891169E+03  0.20622563897E+03  0.12500000000E+03 0.  0.
         25    1    1    2    0    0  0.14620932432E+03 -0.14512109678E+03  0.45525039774E+03  0.51508758856E+03  0.12500000000E+03 0.  0.
         25    1    1    2    0    0 -0.56610617618E+02  0.69126074198E+02  0.31760974247E+03  0.35282307843E+03  0.12500000000E+03 0.  0.
</event>
<event>
 5    0  0.5690746E-005  0.2831676E+03  0.7546771E-02  0.1093971E+00
         21   -1    0    0  502  501  0.00000000000E+00  0.00000000000E+00  0.51020290371E+03  0.51020290371E+03  0.00000000000E+00 0. -1.
         21   -1    0    0  501  502 -0.00000000000E+00 -0.00000000000E+00 -0.15716080830E+03  0.15716080830E+03  0.00000000000E+00 0. -1.
         25    1    1    2    0    0 -0.14995970456E+02 -0.48975830940E+02  0.10744920358E+01  0.13509132348E+03  0.12500000000E+03 0.  0.
         25    1    1    2    0    0 -0.36716984746E+02  0.14357685615E+03  0.71124286297E+02  0.20650935740E+03  0.12500000000E+03 0.  0.
         25    1    1    2    0    0  0.51712955202E+02 -0.94601025211E+02  0.28084331708E+03  0.32576303113E+03  0.12500000000E+03 0.  0.
</event>
<event>
 5    0  0.5655138E-005  0.4101426E+03  0.7546771E-02  0.1040323E+00
         21   -1    0    0  502  501  0.00000000000E+00  0.00000000000E+00  0.13946808777E+03  0.13946808777E+03  0.00000000000E+00 0.  1.
         21   -1    0    0  501  502 -0.00000000000E+00 -0.00000000000E+00 -0.12061322142E+04  0.12061322142E+04  0.00000000000E+00 0.  1.
         25    1    1    2    0    0 -0.16078173748E+03  0.42164410586E+02 -0.49491282419E+03  0.53683545726E+03  0.12500000000E+03 0.  0.
         25    1    1    2    0    0  0.20525144558E+03 -0.10711437551E+03 -0.60288769270E+03  0.65779952520E+03  0.12500000000E+03 0.  0.
         25    1    1    2    0    0 -0.44469708101E+02  0.64949964921E+02  0.31136390461E+02  0.15096531950E+03  0.12500000000E+03 0.  0.
</event>
<event>
 5    0  0.5641283E-005  0.2321837E+03  0.7546771E-02  0.1125112E+00
         21   -1    0    0  502  501  0.00000000000E+00  0.00000000000E+00  0.70282309811E+03  0.70282309811E+03  0.00000000000E+00 0.  1.
         21   -1    0    0  501  502 -0.00000000000E+00 -0.00000000000E+00 -0.76703909430E+02  0.76703909430E+02  0.00000000000E+00 0.  1.
         25    1    1    2    0    0  0.87856529634E+02  0.53121263626E+02  0.29684892217E+03  0.33806052867E+03  0.12500000000E+03 0.  0.
         25    1    1    2    0    0  0.54035924204E+01 -0.36238248119E+02  0.19755720924E+03  0.23663528976E+03  0.12500000000E+03 0.  0.
         25    1    1    2    0    0 -0.93260122054E+02 -0.16883015507E+02  0.13171305727E+03  0.20483118912E+03  0.12500000000E+03 0.  0.
</event>
<event>
 5    0  0.5641283E-005  0.2596782E+03  0.7546771E-02  0.1107337E+00
         21   -1    0    0  502  501  0.00000000000E+00  0.00000000000E+00  0.40930069656E+02  0.40930069656E+02  0.00000000000E+00 0.  1.
         21   -1    0    0  501  502 -0.00000000000E+00 -0.00000000000E+00 -0.16475117136E+04  0.16475117136E+04  0.00000000000E+00 0.  1.
         25    1    1    2    0    0  0.41036297027E+02  0.10146589321E+03 -0.90024755375E+03  0.91545068856E+03  0.12500000000E+03 0.  0.
         25    1    1    2    0    0 -0.64696603766E+02 -0.43631620846E+02 -0.20449139799E+03  0.25205376555E+03  0.12500000000E+03 0.  0.
         25    1    1    2    0    0  0.23660306739E+02 -0.57834272363E+02 -0.50184269218E+03  0.52093732912E+03  0.12500000000E+03 0.  0.
</event>
<event>
 5    0  0.5641283E-005  0.2974126E+03  0.7546771E-02  0.1086541E+00
         21   -1    0    0  502  501  0.00000000000E+00  0.00000000000E+00  0.96638154816E+02  0.96638154816E+02  0.00000000000E+00 0.  1.
         21   -1    0    0  501  502 -0.00000000000E+00 -0.00000000000E+00 -0.91531416055E+03  0.91531416055E+03  0.00000000000E+00 0.  1.
         25    1    1    2    0    0 -0.66444432492E+02  0.12276142538E+03 -0.54486234307E+03  0.57618157127E+03  0.12500000000E+03 0.  0.
         25    1    1    2    0    0  0.11944436065E+03 -0.90160500180E+02 -0.12452594605E+03  0.23136028683E+03  0.12500000000E+03 0.  0.
         25    1    1    2    0    0 -0.52999928158E+02 -0.32600925203E+02 -0.14928771661E+03  0.20441045726E+03  0.12500000000E+03 0.  0.
</event>
<event>
 5    0  0.5641283E-005  0.4072176E+03  0.7546771E-02  0.1041309E+00
         21   -1    0    0  502  501  0.00000000000E+00  0.00000000000E+00  0.20321754474E+03  0.20321754474E+03  0.00000000000E+00 0. -1.
         21   -1    0    0  501  502 -0.00000000000E+00 -0.00000000000E+00 -0.81600310556E+03  0.81600310556E+03  0.00000000000E+00 0. -1.
         25    1    1    2    0    0  0.79592290807E+02  0.26560873650E+03 -0.49393772558E+03  0.58007103911E+03  0.12500000000E+03 0.  0.
         25    1    1    2    0    0 -0.80464352288E+02 -0.19297168846E+03  0.12368845940E+02  0.24390689389E+03  0.12500000000E+03 0.  0.
         25    1    1    2    0    0  0.87206148063E+00 -0.72637048036E+02 -0.13121668118E+03  0.19524271730E+03  0.12500000000E+03 0.  0.
</event>
<event>
 5    0  0.5641283E-005  0.2505766E+03  0.7546771E-02  0.1112941E+00
         21   -1    0    0  502  501  0.00000000000E+00  0.00000000000E+00  0.39385590858E+03  0.39385590858E+03  0.00000000000E+00 0. -1.
         21   -1    0    0  501  502 -0.00000000000E+00 -0.00000000000E+00 -0.15942031236E+03  0.15942031236E+03  0.00000000000E+00 0. -1.
         25    1    1    2    0    0  0.38255736783E+02 -0.25324017563E+02 -0.40949089522E+01  0.13321627356E+03  0.12500000000E+03 0.  0.
         25    1    1    2    0    0 -0.38941584764E+02  0.11517275799E+03  0.19172005830E+03  0.25915785144E+03  0.12500000000E+03 0.  0.
         25    1    1    2    0    0  0.68584798091E+00 -0.89848740427E+02  0.46810446868E+02  0.16090209595E+03  0.12500000000E+03 0.  0.
</event>
<event>
 5    0  0.5641283E-005  0.2361096E+03  0.7546771E-02  0.1122412E+00
         21   -1    0    0  502  501  0.00000000000E+00  0.00000000000E+00  0.97717860216E+02  0.97717860216E+02  0.00000000000E+00 0.  1.
         21   -1    0    0  501  502 -0.00000000000E+00 -0.00000000000E+00 -0.57049679861E+03  0.57049679861E+03  0.00000000000E+00 0.  1.
         25    1    1    2    0    0 -0.28000099792E+02 -0.93582600121E+02 -0.11668638811E+03  0.19693253109E+03  0.12500000000E+03 0.  0.
         25    1    1    2    0    0  0.10907474531E+02  0.28715364394E+02 -0.58056741081E+02  0.14120598549E+03  0.12500000000E+03 0.  0.
         25    1    1    2    0    0  0.17092625260E+02  0.64867235726E+02 -0.29803580920E+03  0.33007614224E+03  0.12500000000E+03 0.  0.
</event>
<event>
 5    0  0.5641283E-005  0.4967797E+03  0.7546771E-02  0.1014623E+00
         21   -1    0    0  502  501  0.00000000000E+00  0.00000000000E+00  0.14363561534E+04  0.14363561534E+04  0.00000000000E+00 0.  1.
         21   -1    0    0  501  502 -0.00000000000E+00 -0.00000000000E+00 -0.17181678371E+03  0.17181678371E+03  0.00000000000E+00 0.  1.
         25    1    1    2    0    0  0.85223688415E+02 -0.16861339480E+03  0.14734669490E+03  0.27023989800E+03  0.12500000000E+03 0.  0.
         25    1    1    2    0    0  0.14075259962E+03 -0.52607831021E+02  0.92889480850E+03  0.94923624217E+03  0.12500000000E+03 0.  0.
         25    1    1    2    0    0 -0.22597628804E+03  0.22122122582E+03  0.18829786631E+03  0.38869679696E+03  0.12500000000E+03 0.  0.
</event>
<event>
 5    0  0.5641283E-005  0.2649036E+03  0.7546771E-02  0.1104232E+00
         21   -1    0    0  502  501  0.00000000000E+00  0.00000000000E+00  0.66172905461E+02  0.66172905461E+02  0.00000000000E+00 0. -1.
         21   -1    0    0  501  502 -0.00000000000E+00 -0.00000000000E+00 -0.10604629018E+04  0.10604629018E+04  0.00000000000E+00 0. -1.
         25    1    1    2    0    0 -0.93670412717E+02  0.23268188510E+02 -0.33335838937E+03  0.36887446452E+03  0.12500000000E+03 0.  0.
         25    1    1    2    0    0 -0.68276047699E+01 -0.28962134676E+02 -0.54457534676E+03  0.55952902493E+03  0.12500000000E+03 0.  0.
         25    1    1    2    0    0  0.10049801749E+03  0.56939461666E+01 -0.11635626024E+03  0.19823231785E+03  0.12500000000E+03 0.  0.
</event>
<event>
 5    0  0.5641283E-005  0.2165720E+03  0.7546771E-02  0.1136465E+00
         21   -1    0    0  502  501  0.00000000000E+00  0.00000000000E+00  0.14680437846E+04  0.14680437846E+04  0.00000000000E+00 0.  1.
         21   -1    0    0  501  502 -0.00000000000E+00 -0.00000000000E+00 -0.31949612943E+02  0.31949612943E+02  0.00000000000E+00 0.  1.
         25    1    1    2    0    0  0.69354269392E+02 -0.63043931162E+02  0.42041224455E+03  0.44850418872E+03  0.12500000000E+03 0.  0.
         25    1    1    2    0    0 -0.17251182373E+02  0.28167561805E+02  0.41143328803E+03  0.43126948110E+03  0.12500000000E+03 0.  0.
         25    1    1    2    0    0 -0.52103087019E+02  0.34876369357E+02  0.60424863910E+03  0.62021972773E+03  0.12500000000E+03 0.  0.
</event>
<event>
 5    0  0.5641283E-005  0.4051326E+03  0.7546771E-02  0.1042017E+00
         21   -1    0    0  502  501  0.00000000000E+00  0.00000000000E+00  0.25711076463E+03  0.25711076463E+03  0.00000000000E+00 0.  1.
         21   -1    0    0  501  502 -0.00000000000E+00 -0.00000000000E+00 -0.63837230250E+03  0.63837230250E+03  0.00000000000E+00 0.  1.
         25    1    1    2    0    0 -0.11033964318E+03 -0.39303844406E+02 -0.23461728155E+03  0.29049939388E+03  0.12500000000E+03 0.  0.
         25    1    1    2    0    0  0.21889608651E+03 -0.40043469583E+02 -0.27939589662E+03  0.37842574330E+03  0.12500000000E+03 0.  0.
         25    1    1    2    0    0 -0.10855644332E+03  0.79347313989E+02  0.13275164030E+03  0.22655792996E+03  0.12500000000E+03 0.  0.
</event>
<event>
 5    0  0.5641283E-005  0.1998160E+03  0.7546771E-02  0.1149894E+00
         21   -1    0    0  502  501  0.00000000000E+00  0.00000000000E+00  0.19460698293E+04  0.19460698293E+04  0.00000000000E+00 0. -1.
         21   -1    0    0  501  502 -0.00000000000E+00 -0.00000000000E+00 -0.20516437919E+02  0.20516437919E+02  0.00000000000E+00 0. -1.
         25    1    1    2    0    0  0.10601975217E+02 -0.40952831483E+02  0.81208384834E+03  0.82273611385E+03  0.12500000000E+03 0.  0.
         25    1    1    2    0    0 -0.32193092408E+02  0.34984548694E+02  0.51753177958E+03  0.53453199785E+03  0.12500000000E+03 0.  0.
         25    1    1    2    0    0  0.21591117192E+02  0.59682827890E+01  0.59593776346E+03  0.60931815553E+03  0.12500000000E+03 0.  0.
</event>
<event>
 5    0  0.5641283E-005  0.4078758E+03  0.7546771E-02  0.1041086E+00
         21   -1    0    0  502  501  0.00000000000E+00  0.00000000000E+00  0.13830757220E+03  0.13830757220E+03  0.00000000000E+00 0.  1.
         21   -1    0    0  501  502 -0.00000000000E+00 -0.00000000000E+00 -0.12028459755E+04  0.12028459755E+04  0.00000000000E+00 0.  1.
         25    1    1    2    0    0 -0.27439601495E+03 -0.40213118932E+02 -0.17926577100E+03  0.35308849402E+03  0.12500000000E+03 0.  0.
         25    1    1    2    0    0  0.19069515593E+03  0.65155388074E+01 -0.26847723309E+03  0.35229550016E+03  0.12500000000E+03 0.  0.
         25    1    1    2    0    0  0.83700859022E+02  0.33697580125E+02 -0.61679539922E+03  0.63576955354E+03  0.12500000000E+03 0.  0.
</event>
<event>
 5    0  0.5641283E-005  0.3065730E+03  0.7546771E-02  0.1082000E+00
         21   -1    0    0  502  501  0.00000000000E+00  0.00000000000E+00  0.20842843294E+03  0.20842843294E+03  0.00000000000E+00 0. -1.
         21   -1    0    0  501  502 -0.00000000000E+00 -0.00000000000E+00 -0.45093168511E+03  0.45093168511E+03  0.00000000000E+00 0. -1.
         25    1    1    2    0    0  0.44304485239E+02 -0.10390079722E+02 -0.15914291570E+03  0.20741819782E+03  0.12500000000E+03 0.  0.
         25    1    1    2    0    0 -0.19468109837E+03 -0.23999618730E+02 -0.98979534427E+02  0.25278184270E+03  0.12500000000E+03 0.  0.
         25    1    1    2    0    0  0.15037661313E+03  0.34389698451E+02  0.15619197954E+02  0.19916007753E+03  0.12500000000E+03 0.  0.
</event>
<event>
 5    0  0.5641283E-005  0.8616726E+03  0.7546771E-02  0.9474803E-01
         21   -1    0    0  502  501  0.00000000000E+00  0.00000000000E+00  0.86116069483E+03  0.86116069483E+03  0.00000000000E+00 0. -1.
         21   -1    0    0  501  502 -0.00000000000E+00 -0.00000000000E+00 -0.86218472880E+03  0.86218472880E+03  0.00000000000E+00 0. -1.
         25    1    1    2    0    0  0.31947344753E+03  0.82628276996E+01  0.70214608056E+03  0.78151498799E+03  0.12500000000E+03 0.  0.
         25    1    1    2    0    0 -0.39821449796E+01 -0.44286250289E+02 -0.55352522712E+03  0.56920322074E+03  0.12500000000E+03 0.  0.
         25    1    1    2    0    0 -0.31549130255E+03  0.36023422589E+02 -0.14964488741E+03  0.37262721490E+03  0.12500000000E+03 0.  0.
</event>
<event>
 5    0  0.5641283E-005  0.4691946E+03  0.7546771E-02  0.1022148E+00
         21   -1    0    0  502  501  0.00000000000E+00  0.00000000000E+00  0.11416891216E+04  0.11416891216E+04  0.00000000000E+00 0.  1.
         21   -1    0    0  501  502 -0.00000000000E+00 -0.00000000000E+00 -0.19282268565E+03  0.19282268565E+03  0.00000000000E+00 0.  1.
         25    1    1    2    0    0  0.38047428358E+01 -0.37829100146E+02  0.37203931034E+02  0.13584789056E+03  0.12500000000E+03 0.  0.
         25    1    1    2    0    0  0.27879092162E+03 -0.20427819893E+03  0.31287331826E+03  0.48266828549E+03  0.12500000000E+03 0.  0.
         25    1    1    2    0    0 -0.28259566446E+03  0.24210729908E+03  0.59878918666E+03  0.71599563120E+03  0.12500000000E+03 0.  0.
</event>
<event>
 5    0  0.5641283E-005  0.4427629E+03  0.7546771E-02  0.1029902E+00
         21   -1    0    0  502  501  0.00000000000E+00  0.00000000000E+00  0.33231267534E+03  0.33231267534E+03  0.00000000000E+00 0.  1.
         21   -1    0    0  501  502 -0.00000000000E+00 -0.00000000000E+00 -0.58992320713E+03  0.58992320713E+03  0.00000000000E+00 0.  1.
         25    1    1    2    0    0 -0.10004065994E+03  0.64972458594E+02 -0.44271360959E+03  0.47523667170E+03  0.12500000000E+03 0.  0.
         25    1    1    2    0    0 -0.49384283348E+02  0.78464403219E+02  0.26891603771E+02  0.15793551965E+03  0.12500000000E+03 0.  0.
         25    1    1    2    0    0  0.14942494329E+03 -0.14343686181E+03  0.15821147403E+03  0.28906369111E+03  0.12500000000E+03 0.  0.
</event>
<event>
 5    0  0.5641283E-005  0.2675706E+03  0.7546771E-02  0.1102678E+00
         21   -1    0    0  502  501  0.00000000000E+00  0.00000000000E+00  0.15543301267E+03  0.15543301267E+03  0.00000000000E+00 0.  1.
         21   -1    0    0  501  502 -0.00000000000E+00 -0.00000000000E+00 -0.46061015978E+03  0.46061015978E+03  0.00000000000E+00 0.  1.
         25    1    1    2    0    0  0.58688052180E+02  0.33327842535E+02 -0.17318645854E+02  0.14310823893E+03  0.12500000000E+03 0.  0.
         25    1    1    2    0    0 -0.11731529789E+03  0.73587532573E+02 -0.21242958320E+03  0.28271776012E+03  0.12500000000E+03 0.  0.
         25    1    1    2    0    0  0.58627245714E+02 -0.10691537511E+03 -0.75428918050E+02  0.19021717339E+03  0.12500000000E+03 0.  0.
</event>
<event>
 5    0  0.5773300E-005  0.3574056E+03  0.7546771E-02  0.1059616E+00
         21   -1    0    0  502  501  0.00000000000E+00  0.00000000000E+00  0.20546690527E+03  0.20546690527E+03  0.00000000000E+00 0. -1.
         21   -1    0    0  501  502 -0.00000000000E+00 -0.00000000000E+00 -0.62169990097E+03  0.62169990097E+03  0.00000000000E+00 0. -1.
         25    1    1    2    0    0  0.50091400540E+02  0.10705631053E+03 -0.32278674223E+03  0.36576834608E+03  0.12500000000E+03 0.  0.
         25    1    1    2    0    0  0.91547607989E+02  0.35853803848E+02  0.69844315884E+02  0.17369423779E+03  0.12500000000E+03 0.  0.
         25    1    1    2    0    0 -0.14163900853E+03 -0.14291011438E+03 -0.16329056936E+03  0.28770422237E+03  0.12500000000E+03 0.  0.
</event>
<event>
 5    0  0.5641283E-005  0.3810666E+03  0.7546771E-02  0.1050540E+00
         21   -1    0    0  502  501  0.00000000000E+00  0.00000000000E+00  0.10106004245E+04  0.10106004245E+04  0.00000000000E+00 0.  1.
         21   -1    0    0  501  502 -0.00000000000E+00 -0.00000000000E+00 -0.14368861701E+03  0.14368861701E+03  0.00000000000E+00 0.  1.
         25    1    1    2    0    0  0.25744710469E+02  0.38705471783E+02 -0.74674291364E+02  0.15284683004E+03  0.12500000000E+03 0.  0.
         25    1    1    2    0    0 -0.82958257644E+02 -0.93641296307E+02  0.66035279550E+03  0.68362385814E+03  0.12500000000E+03 0.  0.
         25    1    1    2    0    0  0.57213547175E+02  0.54935824524E+02  0.28123330332E+03  0.31781835330E+03  0.12500000000E+03 0.  0.
</event>
<event>
 5    0  0.5641283E-005  0.3605517E+03  0.7546771E-02  0.1058366E+00
         21   -1    0    0  502  501  0.00000000000E+00  0.00000000000E+00  0.38835485602E+03  0.38835485602E+03  0.00000000000E+00 0. -1.
         21   -1    0    0  501  502 -0.00000000000E+00 -0.00000000000E+00 -0.33473910728E+03  0.33473910728E+03  0.00000000000E+00 0. -1.
         25    1    1    2    0    0  0.38654845408E+02 -0.33686034134E+02  0.26706415859E+02  0.13772138039E+03  0.12500000000E+03 0.  0.
         25    1    1    2    0    0  0.23328855728E+02  0.22596200772E+03  0.16810993023E+03  0.30901296588E+03  0.12500000000E+03 0.  0.
         25    1    1    2    0    0 -0.61983701136E+02 -0.19227597358E+03 -0.14120059736E+03  0.27635961702E+03  0.12500000000E+03 0.  0.
</event>
<event>
 5    0  0.5641283E-005  0.2365938E+03  0.7546771E-02  0.1122083E+00
         21   -1    0    0  502  501  0.00000000000E+00  0.00000000000E+00  0.33752473818E+03  0.33752473818E+03  0.00000000000E+00 0.  1.
         21   -1    0    0  501  502 -0.00000000000E+00 -0.00000000000E+00 -0.16584449725E+03  0.16584449725E+03  0.00000000000E+00 0.  1.
         25    1    1    2    0    0 -0.39764355029E+02 -0.63427302444E+02  0.49535356860E+02  0.15389274903E+03  0.12500000000E+03 0.  0.
         25    1    1    2    0    0  0.34139709993E+02  0.58988862036E+02 -0.36884996390E+02  0.14707382025E+03  0.12500000000E+03 0.  0.
         25    1    1    2    0    0  0.56246450355E+01  0.44384404074E+01  0.15902988046E+03  0.20240266615E+03  0.12500000000E+03 0.  0.
</event>
<event>
 5    0  0.5641283E-005  0.2370187E+03  0.7546771E-02  0.1121795E+00
         21   -1    0    0  502  501  0.00000000000E+00  0.00000000000E+00  0.15489397697E+03  0.15489397697E+03  0.00000000000E+00 0. -1.
         21   -1    0    0  501  502 -0.00000000000E+00 -0.00000000000E+00 -0.36268603250E+03  0.36268603250E+03  0.00000000000E+00 0. -1.
         25    1    1    2    0    0  0.85101969149E+02  0.74319691799E+01 -0.11430532229E+02  0.15183292260E+03  0.12500000000E+03 0.  0.
         25    1    1    2    0    0 -0.41950561041E+02  0.18688699429E+02 -0.18840671975E+03  0.23071889629E+03  0.12500000000E+03 0.  0.
         25    1    1    2    0    0 -0.43151408109E+02 -0.26120668609E+02 -0.79548035497E+01  0.13502819057E+03  0.12500000000E+03 0.  0.
</event>
<event>
 5    0  0.5641283E-005  0.2739036E+03  0.7546771E-02  0.1099066E+00
         21   -1    0    0  502  501  0.00000000000E+00  0.00000000000E+00  0.46232799619E+03  0.46232799619E+03  0.00000000000E+00 0. -1.
         21   -1    0    0  501  502 -0.00000000000E+00 -0.00000000000E+00 -0.16227268800E+03  0.16227268800E+03  0.00000000000E+00 0.  1.
         25    1    1    2    0    0 -0.56197332439E+02  0.47810886186E+02  0.14035598787E+03  0.20191291277E+03  0.12500000000E+03 0.  0.
         25    1    1    2    0    0 -0.27195609813E+02 -0.97265777242E+02  0.20277609983E+03  0.25873418653E+03  0.12500000000E+03 0.  0.
         25    1    1    2    0    0  0.83392942252E+02  0.49454891055E+02 -0.43076779516E+02  0.16395358490E+03  0.12500000000E+03 0.  0.
</event>
<event>
 5    0  0.5641283E-005  0.4309513E+03  0.7546771E-02  0.1033560E+00
         21   -1    0    0  502  501  0.00000000000E+00  0.00000000000E+00  0.38574754643E+03  0.38574754643E+03  0.00000000000E+00 0.  1.
         21   -1    0    0  501  502 -0.00000000000E+00 -0.00000000000E+00 -0.48145231893E+03  0.48145231893E+03  0.00000000000E+00 0.  1.
         25    1    1    2    0    0  0.19619255815E+03 -0.69904561041E+02  0.62089638681E+02  0.25071555748E+03  0.12500000000E+03 0.  0.
         25    1    1    2    0    0 -0.30818853371E+02 -0.19138300917E+03 -0.16379354064E+03  0.28289676894E+03  0.12500000000E+03 0.  0.
         25    1    1    2    0    0 -0.16537370478E+03  0.26128757021E+03  0.59991294570E+01  0.33358753894E+03  0.12500000000E+03 0.  0.
</event>
<event>
 5    0  0.5641283E-005  0.3453806E+03  0.7546771E-02  0.1064527E+00
         21   -1    0    0  502  501  0.00000000000E+00  0.00000000000E+00  0.44263786300E+03  0.44263786300E+03  0.00000000000E+00 0. -1.
         21   -1    0    0  501  502 -0.00000000000E+00 -0.00000000000E+00 -0.26949294512E+03  0.26949294512E+03  0.00000000000E+00 0. -1.
         25    1    1    2    0    0  0.91901777643E+02 -0.28701169758E+02  0.21340250976E+03  0.26539654303E+03  0.12500000000E+03 0.  0.
         25    1    1    2    0    0 -0.78592841906E+02  0.14600322308E+03 -0.13764960159E+03  0.24913086675E+03  0.12500000000E+03 0.  0.
         25    1    1    2    0    0 -0.13308935737E+02 -0.11730205333E+03  0.97392009704E+02  0.19760339835E+03  0.12500000000E+03 0.  0.
</event>
<event>
 5    0  0.5641283E-005  0.3267184E+03  0.7546771E-02  0.1072598E+00
         21   -1    0    0  502  501  0.00000000000E+00  0.00000000000E+00  0.27815851181E+03  0.27815851181E+03  0.00000000000E+00 0. -1.
         21   -1    0    0  501  502 -0.00000000000E+00 -0.00000000000E+00 -0.38375573521E+03  0.38375573521E+03  0.00000000000E+00 0. -1.
         25    1    1    2    0    0 -0.60176197310E+02  0.21932229193E+03 -0.12679989788E+03  0.28883672994E+03  0.12500000000E+03 0.  0.
         25    1    1    2    0    0  0.98558870485E+01 -0.83168935813E+02  0.82948623140E+02  0.17181293454E+03  0.12500000000E+03 0.  0.
         25    1    1    2    0    0  0.50320310262E+02 -0.13615335612E+03 -0.61745948655E+02  0.20126458253E+03  0.12500000000E+03 0.  0.
</event>
<event>
 5    0  0.5641283E-005  0.2771099E+03  0.7546771E-02  0.1097278E+00
         21   -1    0    0  502  501  0.00000000000E+00  0.00000000000E+00  0.21503275287E+03  0.21503275287E+03  0.00000000000E+00 0.  1.
         21   -1    0    0  501  502 -0.00000000000E+00 -0.00000000000E+00 -0.35710783700E+03  0.35710783700E+03  0.00000000000E+00 0.  1.
         25    1    1    2    0    0  0.59563065251E+02 -0.10630157118E+03  0.27310597587E+02  0.17668800615E+03  0.12500000000E+03 0.  0.
         25    1    1    2    0    0  0.54836123915E+02  0.36029355913E+02 -0.15767316430E+03  0.21163870561E+03  0.12500000000E+03 0.  0.
         25    1    1    2    0    0 -0.11439918917E+03  0.70272215267E+02 -0.11712517415E+02  0.18381387811E+03  0.12500000000E+03 0.  0.
</event>
<event>
 5    0  0.5641283E-005  0.2553098E+03  0.7546771E-02  0.1109994E+00
         21   -1    0    0  502  501  0.00000000000E+00  0.00000000000E+00  0.17228006975E+03  0.17228006975E+03  0.00000000000E+00 0. -1.
         21   -1    0    0  501  502 -0.00000000000E+00 -0.00000000000E+00 -0.37835533268E+03  0.37835533268E+03  0.00000000000E+00 0. -1.
         25    1    1    2    0    0 -0.68870407879E+02 -0.83652851148E+02 -0.14380030635E+03  0.21919046670E+03  0.12500000000E+03 0.  0.
         25    1    1    2    0    0  0.10977046615E+03  0.19203326169E+01 -0.59134208946E+02  0.17656471217E+03  0.12500000000E+03 0.  0.
         25    1    1    2    0    0 -0.40900058273E+02  0.81732518531E+02 -0.31407476390E+01  0.15488022355E+03  0.12500000000E+03 0.  0.
</event>
<event>
 5    0  0.5641283E-005  0.2516922E+03  0.7546771E-02  0.1112240E+00
         21   -1    0    0  502  501  0.00000000000E+00  0.00000000000E+00  0.27617938017E+03  0.27617938017E+03  0.00000000000E+00 0. -1.
         21   -1    0    0  501  502 -0.00000000000E+00 -0.00000000000E+00 -0.22937607066E+03  0.22937607066E+03  0.00000000000E+00 0. -1.
         25    1    1    2    0    0  0.64816311650E+02 -0.66682988574E+02 -0.40994645421E+02  0.16110039160E+03  0.12500000000E+03 0.  0.
         25    1    1    2    0    0  0.51265487605E+02  0.69725188924E+02 -0.11648596144E+01  0.15203982731E+03  0.12500000000E+03 0.  0.
         25    1    1    2    0    0 -0.11608179926E+03 -0.30422003504E+01  0.88962814547E+02  0.19241523192E+03  0.12500000000E+03 0.  0.
</event>
<event>
 5    0  0.6085918E-005  0.2812747E+03  0.7546771E-02  0.1094995E+00
         21   -1    0    0  502  501  0.00000000000E+00  0.00000000000E+00  0.17820540392E+03  0.17820540392E+03  0.00000000000E+00 0. -1.
         21   -1    0    0  501  502 -0.00000000000E+00 -0.00000000000E+00 -0.44395640171E+03  0.44395640171E+03  0.00000000000E+00 0. -1.
         25    1    1    2    0    0  0.40447518373E+02  0.76808546733E+01  0.30379022843E+02  0.13506621450E+03  0.12500000000E+03 0.  0.
         25    1    1    2    0    0 -0.15205058792E+03 -0.68242883690E+02 -0.16800630016E+03  0.26763331137E+03  0.12500000000E+03 0.  0.
         25    1    1    2    0    0  0.11160306954E+03  0.60562029017E+02 -0.12812372047E+03  0.21946227976E+03  0.12500000000E+03 0.  0.
</event>
<event>
 5    0  0.5641283E-005  0.4954837E+03  0.7546771E-02  0.1014964E+00
         21   -1    0    0  502  501  0.00000000000E+00  0.00000000000E+00  0.89260398158E+02  0.89260398158E+02  0.00000000000E+00 0. -1.
         21   -1    0    0  501  502 -0.00000000000E+00 -0.00000000000E+00 -0.27504261271E+04  0.27504261271E+04  0.00000000000E+00 0. -1.
         25    1    1    2    0    0  0.13939873706E+03  0.10163535960E+02 -0.13620070111E+03  0.23175620022E+03  0.12500000000E+03 0.  0.
         25    1    1    2    0    0  0.87677118458E+02 -0.27270872466E+02 -0.21272404700E+04  0.21328872438E+04  0.12500000000E+03 0.  0.
         25    1    1    2    0    0 -0.22707585552E+03  0.17107336506E+02 -0.39772455783E+03  0.47504308123E+03  0.12500000000E+03 0.  0.
</event>
<event>
 5    0  0.5641283E-005  0.2775944E+03  0.7546771E-02  0.1097010E+00
         21   -1    0    0  502  501  0.00000000000E+00  0.00000000000E+00  0.91157229784E+03  0.91157229784E+03  0.00000000000E+00 0. -1.
         21   -1    0    0  501  502 -0.00000000000E+00 -0.00000000000E+00 -0.84533783293E+02  0.84533783293E+02  0.00000000000E+00 0. -1.
         25    1    1    2    0    0  0.20783973802E+02 -0.75626613521E+00  0.16535576576E+03  0.20832684603E+03  0.12500000000E+03 0.  0.
         25    1    1    2    0    0 -0.48526004206E+02 -0.14330583655E+03  0.49671577997E+03  0.53408136266E+03  0.12500000000E+03 0.  0.
         25    1    1    2    0    0  0.27742030404E+02  0.14406210269E+03  0.16496696882E+03  0.25369787244E+03  0.12500000000E+03 0.  0.
</event>
<event>
 5    0  0.5641283E-005  0.5426867E+03  0.7546771E-02  0.1003201E+00
         21   -1    0    0  502  501  0.00000000000E+00  0.00000000000E+00  0.18425082552E+03  0.18425082552E+03  0.00000000000E+00 0.  1.
         21   -1    0    0  501  502 -0.00000000000E+00 -0.00000000000E+00 -0.15984125808E+04  0.15984125808E+04  0.00000000000E+00 0.  1.
         25    1    1    2    0    0 -0.21548623355E+03  0.12021614242E+03 -0.11971540975E+04  0.12286940917E+04  0.12500000000E+03 0.  0.
         25    1    1    2    0    0  0.44755590944E+01 -0.14949266130E+03 -0.23618423770E+03  0.30622880425E+03  0.12500000000E+03 0.  0.
         25    1    1    2    0    0  0.21101067445E+03  0.29276518887E+02  0.19176579897E+02  0.24774051043E+03  0.12500000000E+03 0.  0.
</event>
<event>
 5    0  0.5641283E-005  0.2303739E+03  0.7546771E-02  0.1126377E+00
         21   -1    0    0  502  501  0.00000000000E+00  0.00000000000E+00  0.10602976381E+03  0.10602976381E+03  0.00000000000E+00 0.  1.
         21   -1    0    0  501  502 -0.00000000000E+00 -0.00000000000E+00 -0.50054000943E+03  0.50054000943E+03  0.00000000000E+00 0.  1.
         25    1    1    2    0    0 -0.63598148893E+02  0.43587099705E+02 -0.15080232278E+03  0.21050154479E+03  0.12500000000E+03 0.  0.
         25    1    1    2    0    0 -0.40254439345E+02 -0.26116101483E+02 -0.50751702103E+02  0.14318940572E+03  0.12500000000E+03 0.  0.
         25    1    1    2    0    0  0.10385258824E+03 -0.17470998223E+02 -0.19295622074E+03  0.25287882273E+03  0.12500000000E+03 0.  0.
</event>
<event>
 5    0  0.5641283E-005  0.4604803E+03  0.7546771E-02  0.1024642E+00
         21   -1    0    0  502  501  0.00000000000E+00  0.00000000000E+00  0.27629250270E+03  0.27629250270E+03  0.00000000000E+00 0.  1.
         21   -1    0    0  501  502 -0.00000000000E+00 -0.00000000000E+00 -0.76745507946E+03  0.76745507946E+03  0.00000000000E+00 0.  1.
         25    1    1    2    0    0 -0.31883700674E+02 -0.69492966625E+01  0.55893963716E+02  0.14076220470E+03  0.12500000000E+03 0.  0.
         25    1    1    2    0    0  0.21181016678E+03 -0.26064170167E+03 -0.18885850677E+03  0.40508045988E+03  0.12500000000E+03 0.  0.
         25    1    1    2    0    0 -0.17992646611E+03  0.26759099833E+03 -0.35819803371E+03  0.49790491757E+03  0.12500000000E+03 0.  0.
</event>
<event>
 5    0  0.5641283E-005  0.4691216E+03  0.7546771E-02  0.1022168E+00
         21   -1    0    0  502  501  0.00000000000E+00  0.00000000000E+00  0.57765877599E+03  0.57765877599E+03  0.00000000000E+00 0. -1.
         21   -1    0    0  501  502 -0.00000000000E+00 -0.00000000000E+00 -0.38097762496E+03  0.38097762496E+03  0.00000000000E+00 0. -1.
         25    1    1    2    0    0  0.36224284258E+03 -0.92729748786E+02  0.16475029021E+03  0.42730123032E+03  0.12500000000E+03 0.  0.
         25    1    1    2    0    0 -0.12510854861E+03 -0.93715177906E+02 -0.18233709042E+02  0.20097798797E+03  0.12500000000E+03 0.  0.
         25    1    1    2    0    0 -0.23713429397E+03  0.18644492669E+03  0.50164569866E+02  0.33035718266E+03  0.12500000000E+03 0.  0.
</event>
<event>
 5    0  0.5641283E-005  0.4017344E+03  0.7546771E-02  0.1043181E+00
         21   -1    0    0  502  501  0.00000000000E+00  0.00000000000E+00  0.48870035442E+03  0.48870035442E+03  0.00000000000E+00 0.  1.
         21   -1    0    0  501  502 -0.00000000000E+00 -0.00000000000E+00 -0.33024440436E+03  0.33024440436E+03  0.00000000000E+00 0.  1.
         25    1    1    2    0    0 -0.20334004980E+03  0.11386258688E+03 -0.48294250130E+02  0.26882931227E+03  0.12500000000E+03 0.  0.
         25    1    1    2    0    0  0.35567151073E+02 -0.19261876212E+03  0.22802097755E+03  0.32555425963E+03  0.12500000000E+03 0.  0.
         25    1    1    2    0    0  0.16777289872E+03  0.78756175248E+02 -0.21270777349E+02  0.22456118688E+03  0.12500000000E+03 0.  0.
</event>
<event>
 5    0  0.5641283E-005  0.4785332E+03  0.7546771E-02  0.1019539E+00
         21   -1    0    0  502  501  0.00000000000E+00  0.00000000000E+00  0.59186357919E+03  0.59186357919E+03  0.00000000000E+00 0. -1.
         21   -1    0    0  501  502 -0.00000000000E+00 -0.00000000000E+00 -0.38690336148E+03  0.38690336148E+03  0.00000000000E+00 0. -1.
         25    1    1    2    0    0 -0.45041206885E+02 -0.94962368541E+02  0.70218454403E+02  0.17777005680E+03  0.12500000000E+03 0.  0.
         25    1    1    2    0    0 -0.32891702539E+03  0.71868769719E+02 -0.54129449825E+02  0.36318938172E+03  0.12500000000E+03 0.  0.
         25    1    1    2    0    0  0.37395823228E+03  0.23093598821E+02  0.18887121314E+03  0.43780750216E+03  0.12500000000E+03 0.  0.
</event>
<event>
 5    0  0.6486060E-005  0.2855470E+03  0.7546771E-02  0.1092697E+00
         21   -1    0    0  502  501  0.00000000000E+00  0.00000000000E+00  0.10666579630E+03  0.10666579630E+03  0.00000000000E+00 0. -1.
         21   -1    0    0  501  502 -0.00000000000E+00 -0.00000000000E+00 -0.76441651307E+03  0.76441651307E+03  0.00000000000E+00 0. -1.
         25    1    1    2    0    0  0.20907329430E+02  0.54386790704E+02 -0.38510097159E+03  0.40905109430E+03  0.12500000000E+03 0.  0.
         25    1    1    2    0    0  0.11661692180E+03  0.71178916645E+01 -0.16915182030E+03  0.24059823179E+03  0.12500000000E+03 0.  0.
         25    1    1    2    0    0 -0.13752425123E+03 -0.61504682368E+02 -0.10349792487E+03  0.22143298327E+03  0.12500000000E+03 0.  0.
</event>
<event>
 5    0  0.5641283E-005  0.3442549E+03  0.7546771E-02  0.1064998E+00
         21   -1    0    0  502  501  0.00000000000E+00  0.00000000000E+00  0.44012345566E+03  0.44012345566E+03  0.00000000000E+00 0. -1.
         21   -1    0    0  501  502 -0.00000000000E+00 -0.00000000000E+00 -0.26926861362E+03  0.26926861362E+03  0.00000000000E+00 0. -1.
         25    1    1    2    0    0 -0.35934264707E+02 -0.38969036854E+02  0.62520261592E+02  0.14947789242E+03  0.12500000000E+03 0.  0.
         25    1    1    2    0    0 -0.98547646293E+02  0.58346311070E+02 -0.16072068491E+03  0.23360665479E+03  0.12500000000E+03 0.  0.
         25    1    1    2    0    0  0.13448191100E+03 -0.19377274215E+02  0.26905526536E+03  0.32630752207E+03  0.12500000000E+03 0.  0.
</event>
<event>
 5    0  0.5641283E-005  0.2557836E+03  0.7546771E-02  0.1109703E+00
         21   -1    0    0  502  501  0.00000000000E+00  0.00000000000E+00  0.10015728802E+03  0.10015728802E+03  0.00000000000E+00 0. -1.
         21   -1    0    0  501  502 -0.00000000000E+00 -0.00000000000E+00 -0.65322519201E+03  0.65322519201E+03  0.00000000000E+00 0. -1.
         25    1    1    2    0    0  0.77831989507E+01 -0.49261446786E+02 -0.45196594984E+02  0.14196830817E+03  0.12500000000E+03 0.  0.
         25    1    1    2    0    0 -0.44810312001E+01  0.12269423314E+03 -0.37847875423E+03  0.41706728700E+03  0.12500000000E+03 0.  0.
         25    1    1    2    0    0 -0.33021677506E+01 -0.73432786352E+02 -0.12939255478E+03  0.19434688486E+03  0.12500000000E+03 0.  0.
</event>
<event>
 5    0  0.5641283E-005  0.2498789E+03  0.7546771E-02  0.1113381E+00
         21   -1    0    0  502  501  0.00000000000E+00  0.00000000000E+00  0.23241832835E+03  0.23241832835E+03  0.00000000000E+00 0. -1.
         21   -1    0    0  501  502 -0.00000000000E+00 -0.00000000000E+00 -0.26865126765E+03  0.26865126765E+03  0.00000000000E+00 0. -1.
         25    1    1    2    0    0 -0.64913794556E+02  0.15089700925E+01  0.70466734327E+02  0.15750123289E+03  0.12500000000E+03 0.  0.
         25    1    1    2    0    0 -0.17575612251E+02 -0.77320449493E+02 -0.67006296941E+01  0.14817979786E+03  0.12500000000E+03 0.  0.
         25    1    1    2    0    0  0.82489406807E+02  0.75811479401E+02 -0.99999043928E+02  0.19538856525E+03  0.12500000000E+03 0.  0.
</event>
<event>
 5    0  0.5641283E-005  0.2701828E+03  0.7546771E-02  0.1101175E+00
         21   -1    0    0  502  501  0.00000000000E+00  0.00000000000E+00  0.10063708136E+04  0.10063708136E+04  0.00000000000E+00 0.  1.
         21   -1    0    0  501  502 -0.00000000000E+00 -0.00000000000E+00 -0.72536602857E+02  0.72536602857E+02  0.00000000000E+00 0.  1.
         25    1    1    2    0    0  0.64447947209E+02 -0.75156100413E+02  0.45203432771E+03  0.47933496717E+03  0.12500000000E+03 0.  0.
         25    1    1    2    0    0  0.61690512657E+02 -0.19405140872E+02  0.28639477700E+03  0.31910695251E+03  0.12500000000E+03 0.  0.
         25    1    1    2    0    0 -0.12613845987E+03  0.94561241285E+02  0.19540510599E+03  0.28046549673E+03  0.12500000000E+03 0.  0.
</event>
<event>
 5    0  0.5641283E-005  0.5297219E+03  0.7546771E-02  0.1006300E+00
         21   -1    0    0  502  501  0.00000000000E+00  0.00000000000E+00  0.61187924927E+03  0.61187924927E+03  0.00000000000E+00 0. -1.
         21   -1    0    0  501  502 -0.00000000000E+00 -0.00000000000E+00 -0.45859589169E+03  0.45859589169E+03  0.00000000000E+00 0. -1.
         25    1    1    2    0    0  0.11977582601E+03  0.79489915473E+02 -0.11883143302E+03  0.22452350574E+03  0.12500000000E+03 0.  0.
         25    1    1    2    0    0 -0.17412612774E+03  0.26998880806E+03 -0.53952157669E+02  0.34892649678E+03  0.12500000000E+03 0.  0.
         25    1    1    2    0    0  0.54350301738E+02 -0.34947872353E+03  0.32606694826E+03  0.49702513845E+03  0.12500000000E+03 0.  0.
</event>
<event>
 5    0  0.5641283E-005  0.2782678E+03  0.7546771E-02  0.1096639E+00
         21   -1    0    0  502  501  0.00000000000E+00  0.00000000000E+00  0.13032774906E+03  0.13032774906E+03  0.00000000000E+00 0.  1.
         21   -1    0    0  501  502 -0.00000000000E+00 -0.00000000000E+00 -0.59414009673E+03  0.59414009673E+03  0.00000000000E+00 0.  1.
         25    1    1    2    0    0 -0.81470931120E+02  0.35396816797E+02 -0.15132587363E+03  0.21544133143E+03  0.12500000000E+03 0.  0.
         25    1    1    2    0    0  0.17229168209E+03 -0.60776165891E+02 -0.94647008334E+02  0.24075137018E+03  0.12500000000E+03 0.  0.
         25    1    1    2    0    0 -0.90820750968E+02  0.25379349094E+02 -0.21783946571E+03  0.26827514419E+03  0.12500000000E+03 0.  0.
</event>
<event>
 5    0  0.5641283E-005  0.4640009E+03  0.7546771E-02  0.1023627E+00
         21   -1    0    0  502  501  0.00000000000E+00  0.00000000000E+00  0.29637075351E+03  0.29637075351E+03  0.00000000000E+00 0. -1.
         21   -1    0    0  501  502 -0.00000000000E+00 -0.00000000000E+00 -0.72644438753E+03  0.72644438753E+03  0.00000000000E+00 0. -1.
         25    1    1    2    0    0 -0.56500201844E+02  0.16638686906E+03 -0.14669957242E+03  0.26081147895E+03  0.12500000000E+03 0.  0.
         25    1    1    2    0    0  0.33658206468E+03 -0.16078428973E+03 -0.10508103640E+03  0.40719294971E+03  0.12500000000E+03 0.  0.
         25    1    1    2    0    0 -0.28008186283E+03 -0.56025793325E+01 -0.17829302519E+03  0.35481071237E+03  0.12500000000E+03 0.  0.
</event>
<event>
 5    0  0.5641283E-005  0.3508417E+03  0.7546771E-02  0.1062270E+00
         21   -1    0    0  502  501  0.00000000000E+00  0.00000000000E+00  0.12059458427E+03  0.12059458427E+03  0.00000000000E+00 0.  1.
         21   -1    0    0  501  502 -0.00000000000E+00 -0.00000000000E+00 -0.10206916935E+04  0.10206916935E+04  0.00000000000E+00 0.  1.
         25    1    1    2    0    0  0.60893270601E+02  0.13425990010E+03 -0.17813490607E+03  0.26285120494E+03  0.12500000000E+03 0.  0.
         25    1    1    2    0    0 -0.20894685508E+03  0.30615391494E+02 -0.33297943963E+03  0.41363800316E+03  0.12500000000E+03 0.  0.
         25    1    1    2    0    0  0.14805358448E+03 -0.16487529159E+03 -0.38898276355E+03  0.46479706970E+03  0.12500000000E+03 0.  0.
</event>
<event>
 5    0  0.5641283E-005  0.3383255E+03  0.7546771E-02  0.1067511E+00
         21   -1    0    0  502  501  0.00000000000E+00  0.00000000000E+00  0.25001570058E+03  0.25001570058E+03  0.00000000000E+00 0. -1.
         21   -1    0    0  501  502 -0.00000000000E+00 -0.00000000000E+00 -0.45782771795E+03  0.45782771795E+03  0.00000000000E+00 0. -1.
         25    1    1    2    0    0 -0.11895806681E+03  0.20558807191E+03  0.21142310071E+02  0.26923869381E+03  0.12500000000E+03 0.  0.
         25    1    1    2    0    0  0.96799822487E+02 -0.16090609137E+03 -0.83753294250E+02  0.24062541464E+03  0.12500000000E+03 0.  0.
         25    1    1    2    0    0  0.22158244322E+02 -0.44681980538E+02 -0.14520103319E+03  0.19797931007E+03  0.12500000000E+03 0.  0.
</event>
<event>
 5    0  0.5743424E-005  0.2953683E+03  0.7546771E-02  0.1087579E+00
         21   -1    0    0  502  501  0.00000000000E+00  0.00000000000E+00  0.70809186681E+03  0.70809186681E+03  0.00000000000E+00 0.  1.
         21   -1    0    0  501  502 -0.00000000000E+00 -0.00000000000E+00 -0.12320782342E+03  0.12320782342E+03  0.00000000000E+00 0.  1.
         25    1    1    2    0    0  0.48838414415E+02 -0.12459611637E+02  0.13909751895E+02  0.13549506944E+03  0.12500000000E+03 0.  0.
         25    1    1    2    0    0 -0.16741275115E+03  0.36012779534E+02  0.22847715149E+03  0.31169016393E+03  0.12500000000E+03 0.  0.
         25    1    1    2    0    0  0.11857433674E+03 -0.23553167897E+02  0.34249714001E+03  0.38411445686E+03  0.12500000000E+03 0.  0.
</event>
<event>
 5    0  0.5641283E-005  0.4084918E+03  0.7546771E-02  0.1040878E+00
         21   -1    0    0  502  501  0.00000000000E+00  0.00000000000E+00  0.95197512193E+03  0.95197512193E+03  0.00000000000E+00 0.  1.
         21   -1    0    0  501  502 -0.00000000000E+00 -0.00000000000E+00 -0.17528353533E+03  0.17528353533E+03  0.00000000000E+00 0.  1.
         25    1    1    2    0    0  0.25478356133E+03  0.55340161315E+02  0.52963400879E+02  0.29395121774E+03  0.12500000000E+03 0.  0.
         25    1    1    2    0    0 -0.51466762952E+02  0.42430217762E+02  0.16212420606E+03  0.21531003056E+03  0.12500000000E+03 0.  0.
         25    1    1    2    0    0 -0.20331679837E+03 -0.97770379077E+02  0.56160397965E+03  0.61799740896E+03  0.12500000000E+03 0.  0.
</event>
<event>
 5    0  0.5641283E-005  0.2961765E+03  0.7546771E-02  0.1087168E+00
         21   -1    0    0  502  501  0.00000000000E+00  0.00000000000E+00  0.15251958787E+04  0.15251958787E+04  0.00000000000E+00 0.  1.
         21   -1    0    0  501  502 -0.00000000000E+00 -0.00000000000E+00 -0.57514281307E+02  0.57514281307E+02  0.00000000000E+00 0. -1.
         25    1    1    2    0    0 -0.19351838858E+02 -0.35501199359E+02  0.55491858868E+03  0.57025824754E+03  0.12500000000E+03 0.  0.
         25    1    1    2    0    0  0.23334244376E+02 -0.16098692932E+03  0.42181871932E+03  0.46906002851E+03  0.12500000000E+03 0.  0.
         25    1    1    2    0    0 -0.39824055188E+01  0.19648812868E+03  0.49094428936E+03  0.54339188393E+03  0.12500000000E+03 0.  0.
</event>
<event>
 5    0  0.6350172E-005  0.2809436E+03  0.7546771E-02  0.1095175E+00
         21   -1    0    0  502  501  0.00000000000E+00  0.00000000000E+00  0.47722320320E+03  0.47722320320E+03  0.00000000000E+00 0.  1.
         21   -1    0    0  501  502 -0.00000000000E+00 -0.00000000000E+00 -0.16539283260E+03  0.16539283260E+03  0.00000000000E+00 0.  1.
         25    1    1    2    0    0 -0.28280526868E+02 -0.25215491968E+02  0.19459722492E+03  0.23436870351E+03  0.12500000000E+03 0.  0.
         25    1    1    2    0    0 -0.46143519136E+02 -0.88591299787E+02  0.15154468267E+03  0.22038247118E+03  0.12500000000E+03 0.  0.
         25    1    1    2    0    0  0.74424046004E+02  0.11380679175E+03 -0.34311536997E+02  0.18786486112E+03  0.12500000000E+03 0.  0.
</event>
<event>
 5    0  0.5641283E-005  0.2212983E+03  0.7546771E-02  0.1132919E+00
         21   -1    0    0  502  501  0.00000000000E+00  0.00000000000E+00  0.69952170820E+03  0.69952170820E+03  0.00000000000E+00 0.  1.
         21   -1    0    0  501  502 -0.00000000000E+00 -0.00000000000E+00 -0.70009183863E+02  0.70009183863E+02  0.00000000000E+00 0.  1.
         25    1    1    2    0    0  0.46672533747E+02  0.15708994472E+02  0.11619807393E+03  0.17762908067E+03  0.12500000000E+03 0.  0.
         25    1    1    2    0    0  0.14005890391E+02 -0.71733123731E+02  0.24474292558E+03  0.28436931203E+03  0.12500000000E+03 0.  0.
         25    1    1    2    0    0 -0.60678424138E+02  0.56024129260E+02  0.26857152483E+03  0.30753249936E+03  0.12500000000E+03 0.  0.
</event>
<event>
 5    0  0.5641283E-005  0.3862672E+03  0.7546771E-02  0.1048641E+00
         21   -1    0    0  502  501  0.00000000000E+00  0.00000000000E+00  0.42194936318E+03  0.42194936318E+03  0.00000000000E+00 0. -1.
         21   -1    0    0  501  502 -0.00000000000E+00 -0.00000000000E+00 -0.35360243296E+03  0.35360243296E+03  0.00000000000E+00 0. -1.
         25    1    1    2    0    0 -0.30533275773E+02 -0.86347907971E+02 -0.11109797941E+01  0.15496604924E+03  0.12500000000E+03 0.  0.
         25    1    1    2    0    0 -0.18306484833E+03  0.12330981262E+03  0.21376987852E+03  0.33172369458E+03  0.12500000000E+03 0.  0.
         25    1    1    2    0    0  0.21359812410E+03 -0.36961904644E+02 -0.14431196851E+03  0.28886205232E+03  0.12500000000E+03 0.  0.
</event>
<event>
 5    0  0.5641283E-005  0.2461189E+03  0.7546771E-02  0.1115782E+00
         21   -1    0    0  502  501  0.00000000000E+00  0.00000000000E+00  0.20323579104E+03  0.20323579104E+03  0.00000000000E+00 0. -1.
         21   -1    0    0  501  502 -0.00000000000E+00 -0.00000000000E+00 -0.29805042223E+03  0.29805042223E+03  0.00000000000E+00 0. -1.
         25    1    1    2    0    0 -0.44314190392E+02  0.94835476198E+02 -0.11381635605E+03  0.19883832106E+03  0.12500000000E+03 0.  0.
         25    1    1    2    0    0 -0.28723550718E+02 -0.31911046017E+01  0.26237654516E+02  0.13095281604E+03  0.12500000000E+03 0.  0.
         25    1    1    2    0    0  0.73037741110E+02 -0.91644371596E+02 -0.72359296597E+01  0.17149507617E+03  0.12500000000E+03 0.  0.
</event>
<event>
 5    0  0.5641283E-005  0.2927139E+03  0.7546771E-02  0.1088941E+00
         21   -1    0    0  502  501  0.00000000000E+00  0.00000000000E+00  0.12475000475E+04  0.12475000475E+04  0.00000000000E+00 0.  1.
         21   -1    0    0  501  502 -0.00000000000E+00 -0.00000000000E+00 -0.68682518975E+02  0.68682518975E+02  0.00000000000E+00 0.  1.
         25    1    1    2    0    0 -0.67327791619E+02  0.17030101282E+01  0.63025573027E+03  0.64605202369E+03  0.12500000000E+03 0.  0.
         25    1    1    2    0    0 -0.86516545385E+02  0.76084467949E+02  0.27748773147E+03  0.32542034356E+03  0.12500000000E+03 0.  0.
         25    1    1    2    0    0  0.15384433700E+03 -0.77787478078E+02  0.27107406682E+03  0.34471019927E+03  0.12500000000E+03 0.  0.
</event>
<event>
 5    0  0.5641283E-005  0.3885640E+03  0.7546771E-02  0.1047813E+00
         21   -1    0    0  502  501  0.00000000000E+00  0.00000000000E+00  0.20221479318E+04  0.20221479318E+04  0.00000000000E+00 0. -1.
         21   -1    0    0  501  502 -0.00000000000E+00 -0.00000000000E+00 -0.74664155247E+02  0.74664155247E+02  0.00000000000E+00 0. -1.
         25    1    1    2    0    0  0.14108642921E+03 -0.36570655762E+02  0.29496660472E+03  0.35195609281E+03  0.12500000000E+03 0.  0.
         25    1    1    2    0    0 -0.15482201357E+03 -0.17729887934E+03  0.50702324762E+03  0.57280216666E+03  0.12500000000E+03 0.  0.
         25    1    1    2    0    0  0.13735584368E+02  0.21386953510E+03  0.11454939242E+04  0.11720538275E+04  0.12500000000E+03 0.  0.
</event>
<event>
 5    0  0.5641283E-005  0.3442665E+03  0.7546771E-02  0.1064993E+00
         21   -1    0    0  502  501  0.00000000000E+00  0.00000000000E+00  0.19204737796E+03  0.19204737796E+03  0.00000000000E+00 0. -1.
         21   -1    0    0  501  502 -0.00000000000E+00 -0.00000000000E+00 -0.61713627733E+03  0.61713627733E+03  0.00000000000E+00 0. -1.
         25    1    1    2    0    0 -0.53421313620E+02  0.26281582520E+03 -0.14491234212E+03  0.32947015286E+03  0.12500000000E+03 0.  0.
         25    1    1    2    0    0  0.90708528431E+02 -0.14698730356E+03 -0.13146036597E+03  0.25047980430E+03  0.12500000000E+03 0.  0.
         25    1    1    2    0    0 -0.37287214812E+02 -0.11582852164E+03 -0.14871619128E+03  0.22923369814E+03  0.12500000000E+03 0.  0.
</event>
<event>
 5    0  0.5641283E-005  0.2487357E+03  0.7546771E-02  0.1114106E+00
         21   -1    0    0  502  501  0.00000000000E+00  0.00000000000E+00  0.17314765870E+03  0.17314765870E+03  0.00000000000E+00 0. -1.
         21   -1    0    0  501  502 -0.00000000000E+00 -0.00000000000E+00 -0.35732192092E+03  0.35732192092E+03  0.00000000000E+00 0. -1.
         25    1    1    2    0    0  0.17307203301E+02  0.27511018243E+02 -0.75634374734E+02  0.14967282336E+03  0.12500000000E+03 0.  0.
         25    1    1    2    0    0 -0.13347987249E+03 -0.53501008145E+02 -0.76026939510E+02  0.20514465570E+03  0.12500000000E+03 0.  0.
         25    1    1    2    0    0  0.11617266919E+03  0.25989989902E+02 -0.32512947977E+02  0.17565210055E+03  0.12500000000E+03 0.  0.
</event>
<event>
 5    0  0.5641283E-005  0.3373539E+03  0.7546771E-02  0.1067929E+00
         21   -1    0    0  502  501  0.00000000000E+00  0.00000000000E+00  0.68658207008E+03  0.68658207008E+03  0.00000000000E+00 0.  1.
         21   -1    0    0  501  502 -0.00000000000E+00 -0.00000000000E+00 -0.16575967921E+03  0.16575967921E+03  0.00000000000E+00 0.  1.
         25    1    1    2    0    0  0.18601637332E+03 -0.47214306872E+01  0.87216207870E+02  0.24053284592E+03  0.12500000000E+03 0.  0.
         25    1    1    2    0    0  0.63697089093E+02 -0.63436636108E+01  0.21586532802E+03  0.25752747634E+03  0.12500000000E+03 0.  0.
         25    1    1    2    0    0 -0.24971346241E+03  0.11065094298E+02  0.21774085497E+03  0.35428142704E+03  0.12500000000E+03 0.  0.
</event>
<event>
 5    0  0.5641283E-005  0.3032421E+03  0.7546771E-02  0.1083631E+00
         21   -1    0    0  502  501  0.00000000000E+00  0.00000000000E+00  0.13893469895E+03  0.13893469895E+03  0.00000000000E+00 0.  1.
         21   -1    0    0  501  502 -0.00000000000E+00 -0.00000000000E+00 -0.66186332826E+03  0.66186332826E+03  0.00000000000E+00 0.  1.
         25    1    1    2    0    0  0.58333773020E+02 -0.51918082884E+02  0.37543766990E+01  0.14743612769E+03  0.12500000000E+03 0.  0.
         25    1    1    2    0    0  0.70367619087E+02  0.14649464276E+02 -0.41364985433E+03  0.43806096677E+03  0.12500000000E+03 0.  0.
         25    1    1    2    0    0 -0.12870139211E+03  0.37268618608E+02 -0.11303315167E+03  0.21530093274E+03  0.12500000000E+03 0.  0.
</event>
<event>
 5    0  0.5641283E-005  0.2157723E+03  0.7546771E-02  0.1137075E+00
         21   -1    0    0  502  501  0.00000000000E+00  0.00000000000E+00  0.89958754652E+03  0.89958754652E+03  0.00000000000E+00 0. -1.
         21   -1    0    0  501  502 -0.00000000000E+00 -0.00000000000E+00 -0.51754474830E+02  0.51754474830E+02  0.00000000000E+00 0. -1.
         25    1    1    2    0    0  0.45902795097E+02  0.11952718931E+02  0.18820384477E+03  0.23085844423E+03  0.12500000000E+03 0.  0.
         25    1    1    2    0    0 -0.27446497434E+02  0.29956792612E+02  0.18101969211E+03  0.22370482466E+03  0.12500000000E+03 0.  0.
         25    1    1    2    0    0 -0.18456297663E+02 -0.41909511543E+02  0.47860953481E+03  0.49677875246E+03  0.12500000000E+03 0.  0.
</event>
<event>
 5    0  0.5641283E-005  0.4474120E+03  0.7546771E-02  0.1028497E+00
         21   -1    0    0  502  501  0.00000000000E+00  0.00000000000E+00  0.37915250270E+03  0.37915250270E+03  0.00000000000E+00 0.  1.
         21   -1    0    0  501  502 -0.00000000000E+00 -0.00000000000E+00 -0.52796039435E+03  0.52796039435E+03  0.00000000000E+00 0.  1.
         25    1    1    2    0    0 -0.15841356935E+03  0.67796057658E+02 -0.16250179086E+03  0.26781149420E+03  0.12500000000E+03 0.  0.
         25    1    1    2    0    0  0.33222445825E+03  0.97959562672E+02  0.71047201311E+00  0.36823181741E+03  0.12500000000E+03 0.  0.
         25    1    1    2    0    0 -0.17381088890E+03 -0.16575562033E+03  0.12983427196E+02  0.27106958544E+03  0.12500000000E+03 0.  0.
</event>
<event>
 5    0  0.5641283E-005  0.4302261E+03  0.7546771E-02  0.1033789E+00
         21   -1    0    0  502  501  0.00000000000E+00  0.00000000000E+00  0.46697030384E+03  0.46697030384E+03  0.00000000000E+00 0.  1.
         21   -1    0    0  501  502 -0.00000000000E+00 -0.00000000000E+00 -0.39637312511E+03  0.39637312511E+03  0.00000000000E+00 0.  1.
         25    1    1    2    0    0  0.27919013951E+02  0.23388029962E+03  0.10791725865E+02  0.26687249247E+03  0.12500000000E+03 0.  0.
         25    1    1    2    0    0  0.46936341384E+01 -0.35045376181E+03 -0.70950959264E+02  0.37881249714E+03  0.12500000000E+03 0.  0.
         25    1    1    2    0    0 -0.32612648089E+02  0.11657346219E+03  0.13075641213E+03  0.21765843934E+03  0.12500000000E+03 0.  0.
</event>
<event>
 5    0  0.5641283E-005  0.5715063E+03  0.7546771E-02  0.9966351E-01
         21   -1    0    0  502  501  0.00000000000E+00  0.00000000000E+00  0.64520415563E+03  0.64520415563E+03  0.00000000000E+00 0.  1.
         21   -1    0    0  501  502 -0.00000000000E+00 -0.00000000000E+00 -0.50622649217E+03  0.50622649217E+03  0.00000000000E+00 0.  1.
         25    1    1    2    0    0 -0.70339039841E+02  0.15514724399E+03  0.80527256031E+02  0.22611476468E+03  0.12500000000E+03 0.  0.
         25    1    1    2    0    0  0.12137651840E+03  0.34739391848E+03  0.10585986000E+03  0.40279784480E+03  0.12500000000E+03 0.  0.
         25    1    1    2    0    0 -0.51037478561E+02 -0.50254116246E+03 -0.47409452564E+02  0.52251803833E+03  0.12500000000E+03 0.  0.
</event>
<event>
 5    0  0.5641283E-005  0.5822680E+03  0.7546771E-02  0.9942893E-01
         21   -1    0    0  502  501  0.00000000000E+00  0.00000000000E+00  0.26024186453E+03  0.26024186453E+03  0.00000000000E+00 0.  1.
         21   -1    0    0  501  502 -0.00000000000E+00 -0.00000000000E+00 -0.13027729419E+04  0.13027729419E+04  0.00000000000E+00 0.  1.
         25    1    1    2    0    0  0.17186996410E+03  0.38956198228E+03 -0.15057384386E+03  0.46860997114E+03  0.12500000000E+03 0.  0.
         25    1    1    2    0    0 -0.21932141151E+02 -0.40653663445E+03 -0.50455651582E+03  0.66026913575E+03  0.12500000000E+03 0.  0.
         25    1    1    2    0    0 -0.14993782295E+03  0.16974652172E+02 -0.38740071773E+03  0.43413569959E+03  0.12500000000E+03 0.  0.
</event>
<event>
 5    0  0.5641283E-005  0.2034429E+03  0.7546771E-02  0.1146866E+00
         21   -1    0    0  502  501  0.00000000000E+00  0.00000000000E+00  0.10417242551E+04  0.10417242551E+04  0.00000000000E+00 0. -1.
         21   -1    0    0  501  502 -0.00000000000E+00 -0.00000000000E+00 -0.39731258030E+02  0.39731258030E+02  0.00000000000E+00 0. -1.
         25    1    1    2    0    0  0.64309057488E+02 -0.78185668991E+01  0.32136156513E+03  0.35084902794E+03  0.12500000000E+03 0.  0.
         25    1    1    2    0    0 -0.15012902243E+02  0.23383118614E+02  0.37857495669E+03  0.39964503663E+03  0.12500000000E+03 0.  0.
         25    1    1    2    0    0 -0.49296155245E+02 -0.15564551715E+02  0.30205647524E+03  0.33096144855E+03  0.12500000000E+03 0.  0.
</event>
<event>
 5    0  0.5641283E-005  0.2300921E+03  0.7546771E-02  0.1126575E+00
         21   -1    0    0  502  501  0.00000000000E+00  0.00000000000E+00  0.31558314038E+03  0.31558314038E+03  0.00000000000E+00 0. -1.
         21   -1    0    0  501  502 -0.00000000000E+00 -0.00000000000E+00 -0.16776047538E+03  0.16776047538E+03  0.00000000000E+00 0. -1.
         25    1    1    2    0    0  0.74182691583E+02 -0.15838941504E+02  0.10256499628E+03  0.17860157407E+03  0.12500000000E+03 0.  0.
         25    1    1    2    0    0 -0.11188708482E+03  0.19970761854E+02  0.90446394223E+01  0.16918734167E+03  0.12500000000E+03 0.  0.
         25    1    1    2    0    0  0.37704393233E+02 -0.41318203503E+01  0.36213029289E+02  0.13555470002E+03  0.12500000000E+03 0.  0.
</event>
<event>
 5    0  0.5641283E-005  0.2288049E+03  0.7546771E-02  0.1127484E+00
         21   -1    0    0  502  501  0.00000000000E+00  0.00000000000E+00  0.62023310077E+03  0.62023310077E+03  0.00000000000E+00 0.  1.
         21   -1    0    0  501  502 -0.00000000000E+00 -0.00000000000E+00 -0.84406434218E+02  0.84406434218E+02  0.00000000000E+00 0.  1.
         25    1    1    2    0    0 -0.12536174464E+03 -0.68483283551E+00  0.19179852220E+03  0.26101285243E+03  0.12500000000E+03 0.  0.
         25    1    1    2    0    0  0.61326292040E+02 -0.69598857999E+01  0.17422725110E+03  0.22313558463E+03  0.12500000000E+03 0.  0.
         25    1    1    2    0    0  0.64035452601E+02  0.76447186354E+01  0.16980089326E+03  0.22049109792E+03  0.12500000000E+03 0.  0.
</event>
<event>
 5    0  0.5641283E-005  0.2390312E+03  0.7546771E-02  0.1120440E+00
         21   -1    0    0  502  501  0.00000000000E+00  0.00000000000E+00  0.71616667569E+03  0.71616667569E+03  0.00000000000E+00 0.  1.
         21   -1    0    0  501  502 -0.00000000000E+00 -0.00000000000E+00 -0.79780219446E+02  0.79780219446E+02  0.00000000000E+00 0.  1.
         25    1    1    2    0    0 -0.70911632027E+01 -0.31899774020E+02  0.15438483409E+03  0.20131457269E+03  0.12500000000E+03 0.  0.
         25    1    1    2    0    0  0.86584587670E+02  0.11527490566E+02  0.39076323046E+03  0.41946474958E+03  0.12500000000E+03 0.  0.
         25    1    1    2    0    0 -0.79493424467E+02  0.20372283453E+02  0.91238391691E+02  0.17516757287E+03  0.12500000000E+03 0.  0.
</event>
<event>
 5    0  0.5720425E-005  0.3498083E+03  0.7546771E-02  0.1062694E+00
         21   -1    0    0  502  501  0.00000000000E+00  0.00000000000E+00  0.17237574027E+03  0.17237574027E+03  0.00000000000E+00 0. -1.
         21   -1    0    0  501  502 -0.00000000000E+00 -0.00000000000E+00 -0.70987862834E+03  0.70987862834E+03  0.00000000000E+00 0. -1.
         25    1    1    2    0    0 -0.14482552019E+03 -0.76016371182E+02 -0.32053586602E+03  0.38094771477E+03  0.12500000000E+03 0.  0.
         25    1    1    2    0    0 -0.41132232590E+02 -0.98845586467E+02 -0.51616912478E+02  0.17248656810E+03  0.12500000000E+03 0.  0.
         25    1    1    2    0    0  0.18595775278E+03  0.17486195765E+03 -0.16535010957E+03  0.32882008574E+03  0.12500000000E+03 0.  0.
</event>
<event>
 5    0  0.5641283E-005  0.3109030E+03  0.7546771E-02  0.1079914E+00
         21   -1    0    0  502  501  0.00000000000E+00  0.00000000000E+00  0.69730936467E+03  0.69730936467E+03  0.00000000000E+00 0. -1.
         21   -1    0    0  501  502 -0.00000000000E+00 -0.00000000000E+00 -0.13861953289E+03  0.13861953289E+03  0.00000000000E+00 0. -1.
         25    1    1    2    0    0 -0.18380651386E+03 -0.49995202036E+02  0.23122995216E+03  0.32461769135E+03  0.12500000000E+03 0.  0.
         25    1    1    2    0    0  0.86989210091E+02  0.12847438969E+03  0.98650385184E+02  0.22232788844E+03  0.12500000000E+03 0.  0.
         25    1    1    2    0    0  0.96817303767E+02 -0.78479187657E+02  0.22880949444E+03  0.28898331777E+03  0.12500000000E+03 0.  0.
</event>
<event>
 5    0  0.5641283E-005  0.2828020E+03  0.7546771E-02  0.1094168E+00
         21   -1    0    0  502  501  0.00000000000E+00  0.00000000000E+00  0.61730175686E+02  0.61730175686E+02  0.00000000000E+00 0.  1.
         21   -1    0    0  501  502 -0.00000000000E+00 -0.00000000000E+00 -0.12955891597E+04  0.12955891597E+04  0.00000000000E+00 0.  1.
         25    1    1    2    0    0  0.31223296062E+00 -0.11477840161E+03 -0.42124726500E+03  0.45414583256E+03  0.12500000000E+03 0.  0.
         25    1    1    2    0    0 -0.42773183526E+02  0.19396000126E+03 -0.56237853239E+03  0.60938053875E+03  0.12500000000E+03 0.  0.
         25    1    1    2    0    0  0.42460950566E+02 -0.79181599658E+02 -0.25023318662E+03  0.29379296406E+03  0.12500000000E+03 0.  0.
</event>
<event>
 5    0  0.5641283E-005  0.4994849E+03  0.7546771E-02  0.1013913E+00
         21   -1    0    0  502  501  0.00000000000E+00  0.00000000000E+00  0.17655277103E+03  0.17655277103E+03  0.00000000000E+00 0.  1.
         21   -1    0    0  501  502 -0.00000000000E+00 -0.00000000000E+00 -0.14130910995E+04  0.14130910995E+04  0.00000000000E+00 0.  1.
         25    1    1    2    0    0  0.66180549433E+02  0.37032673359E+02 -0.13186081176E+03  0.19688463042E+03  0.12500000000E+03 0.  0.
         25    1    1    2    0    0 -0.34522542850E+03 -0.22745037670E+03 -0.34777005092E+03  0.55451174799E+03  0.12500000000E+03 0.  0.
         25    1    1    2    0    0  0.27904487907E+03  0.19041770334E+03 -0.75690746577E+03  0.83824749210E+03  0.12500000000E+03 0.  0.
</event>
<event>
 5    0  0.5641283E-005  0.1986593E+03  0.7546771E-02  0.1150875E+00
         21   -1    0    0  502  501  0.00000000000E+00  0.00000000000E+00  0.17704991010E+03  0.17704991010E+03  0.00000000000E+00 0.  1.
         21   -1    0    0  501  502 -0.00000000000E+00 -0.00000000000E+00 -0.22290622021E+03  0.22290622021E+03  0.00000000000E+00 0.  1.
         25    1    1    2    0    0  0.24253131823E+02 -0.50721718318E+02 -0.22643188218E+02  0.13891947698E+03  0.12500000000E+03 0.  0.
         25    1    1    2    0    0  0.35201037997E+01  0.12316226548E+02 -0.19305301312E+01  0.12566943747E+03  0.12500000000E+03 0.  0.
         25    1    1    2    0    0 -0.27773235622E+02  0.38405491770E+02 -0.21282591761E+02  0.13536721585E+03  0.12500000000E+03 0.  0.
</event>
<event>
 5    0  0.5641283E-005  0.2774032E+03  0.7546771E-02  0.1097116E+00
         21   -1    0    0  502  501  0.00000000000E+00  0.00000000000E+00  0.19050072712E+04  0.19050072712E+04  0.00000000000E+00 0.  1.
         21   -1    0    0  501  502 -0.00000000000E+00 -0.00000000000E+00 -0.40394869011E+02  0.40394869011E+02  0.00000000000E+00 0.  1.
         25    1    1    2    0    0 -0.14369657502E+03 -0.45473792048E+02  0.92193687617E+03  0.94250155176E+03  0.12500000000E+03 0.  0.
         25    1    1    2    0    0 -0.17994265665E+02 -0.15816702222E+02  0.30559383694E+03  0.33103860023E+03  0.12500000000E+03 0.  0.
         25    1    1    2    0    0  0.16169084069E+03  0.61290494270E+02  0.63708168907E+03  0.67186198820E+03  0.12500000000E+03 0.  0.
</event>
<event>
 5    0  0.6838166E-005  0.3049044E+03  0.7546771E-02  0.1082814E+00
         21   -1    0    0  502  501  0.00000000000E+00  0.00000000000E+00  0.13404956346E+03  0.13404956346E+03  0.00000000000E+00 0. -1.
         21   -1    0    0  501  502 -0.00000000000E+00 -0.00000000000E+00 -0.69352467928E+03  0.69352467928E+03  0.00000000000E+00 0. -1.
         25    1    1    2    0    0  0.15068379993E+03 -0.85345362606E+02 -0.35741000231E+03  0.41636083898E+03  0.12500000000E+03 0.  0.
         25    1    1    2    0    0 -0.11696199582E+03  0.58651058882E+02 -0.21190535151E+03  0.27865558163E+03  0.12500000000E+03 0.  0.
         25    1    1    2    0    0 -0.33721804116E+02  0.26694303724E+02  0.98402380008E+01  0.13255782213E+03  0.12500000000E+03 0.  0.
</event>
<event>
 5    0  0.5641283E-005  0.2803910E+03  0.7546771E-02  0.1095476E+00
         21   -1    0    0  502  501  0.00000000000E+00  0.00000000000E+00  0.23581483945E+03  0.23581483945E+03  0.00000000000E+00 0.  1.
         21   -1    0    0  501  502 -0.00000000000E+00 -0.00000000000E+00 -0.33339349720E+03  0.33339349720E+03  0.00000000000E+00 0.  1.
         25    1    1    2    0    0 -0.14403438286E+03 -0.92211749351E+02 -0.69054967593E+02  0.22280596651E+03  0.12500000000E+03 0.  0.
         25    1    1    2    0    0  0.88793526548E+02  0.11694070068E+03 -0.63796110941E+02  0.20311169736E+03  0.12500000000E+03 0.  0.
         25    1    1    2    0    0  0.55240856309E+02 -0.24728951325E+02  0.35272420787E+02  0.14329067279E+03  0.12500000000E+03 0.  0.
</event>
<event>
 5    0  0.5641283E-005  0.2679462E+03  0.7546771E-02  0.1102461E+00
         21   -1    0    0  502  501  0.00000000000E+00  0.00000000000E+00  0.90013583437E+03  0.90013583437E+03  0.00000000000E+00 0.  1.
         21   -1    0    0  501  502 -0.00000000000E+00 -0.00000000000E+00 -0.79760347807E+02  0.79760347807E+02  0.00000000000E+00 0.  1.
         25    1    1    2    0    0  0.93882115802E+02 -0.83020410781E+02  0.46661256363E+03  0.49905763676E+03  0.12500000000E+03 0.  0.
         25    1    1    2    0    0 -0.10418959730E+02  0.81648575514E+02  0.27014999272E+03  0.30883824759E+03  0.12500000000E+03 0.  0.
         25    1    1    2    0    0 -0.83463156072E+02  0.13718352674E+01  0.83612930210E+02  0.17200029782E+03  0.12500000000E+03 0.  0.
</event>
<event>
 5    0  0.5641283E-005  0.3383992E+03  0.7546771E-02  0.1067480E+00
         21   -1    0    0  502  501  0.00000000000E+00  0.00000000000E+00  0.17305462018E+03  0.17305462018E+03  0.00000000000E+00 0.  1.
         21   -1    0    0  501  502 -0.00000000000E+00 -0.00000000000E+00 -0.66172180979E+03  0.66172180979E+03  0.00000000000E+00 0.  1.
         25    1    1    2    0    0 -0.17785965055E+03  0.79018449331E+02 -0.34559932611E+03  0.41586279569E+03  0.12500000000E+03 0.  0.
         25    1    1    2    0    0  0.16035713392E+02 -0.12660963452E+03 -0.32288587139E+02  0.18153428469E+03  0.12500000000E+03 0.  0.
         25    1    1    2    0    0  0.16182393716E+03  0.47591185188E+02 -0.11077927636E+03  0.23737934960E+03  0.12500000000E+03 0.  0.
</event>
<event>
 5    0  0.5641283E-005  0.4288788E+03  0.7546771E-02  0.1034215E+00
         21   -1    0    0  502  501  0.00000000000E+00  0.00000000000E+00  0.66124029189E+03  0.66124029189E+03  0.00000000000E+00 0. -1.
         21   -1    0    0  501  502 -0.00000000000E+00 -0.00000000000E+00 -0.27816975356E+03  0.27816975356E+03  0.00000000000E+00 0. -1.
         25    1    1    2    0    0 -0.13824184691E+03 -0.16496256784E+03 -0.10293532068E+03  0.26934018874E+03  0.12500000000E+03 0.  0.
         25    1    1    2    0    0  0.22743378337E+03  0.82443467076E+02  0.37487172293E+03  0.46333234264E+03  0.12500000000E+03 0.  0.
         25    1    1    2    0    0 -0.89191936461E+02  0.82519100768E+02  0.11113413609E+03  0.20673751408E+03  0.12500000000E+03 0.  0.
</event>
<event>
 5    0  0.5641283E-005  0.3776142E+03  0.7546771E-02  0.1051819E+00
         21   -1    0    0  502  501  0.00000000000E+00  0.00000000000E+00  0.82644940271E+02  0.82644940271E+02  0.00000000000E+00 0. -1.
         21   -1    0    0  501  502 -0.00000000000E+00 -0.00000000000E+00 -0.17253625390E+04  0.17253625390E+04  0.00000000000E+00 0.  1.
         25    1    1    2    0    0  0.52553392999E+02 -0.72400527236E+02 -0.13547524108E+03  0.20489567200E+03  0.12500000000E+03 0.  0.
         25    1    1    2    0    0  0.20652310320E+03 -0.99408863411E+01 -0.78512499500E+03  0.82146020668E+03  0.12500000000E+03 0.  0.
         25    1    1    2    0    0 -0.25907649619E+03  0.82341413577E+02 -0.72211736262E+03  0.78165160057E+03  0.12500000000E+03 0.  0.
</event>
<event>
 5    0  0.5641283E-005  0.2990845E+03  0.7546771E-02  0.1085699E+00
         21   -1    0    0  502  501  0.00000000000E+00  0.00000000000E+00  0.47169959763E+03  0.47169959763E+03  0.00000000000E+00 0. -1.
         21   -1    0    0  501  502 -0.00000000000E+00 -0.00000000000E+00 -0.18963666652E+03  0.18963666652E+03  0.00000000000E+00 0. -1.
         25    1    1    2    0    0  0.17911171544E+02 -0.72934399718E+02  0.26680374567E+03  0.30405505329E+03  0.12500000000E+03 0.  0.
         25    1    1    2    0    0 -0.38936415119E+02 -0.67336674842E+02  0.66283904440E+02  0.16145844106E+03  0.12500000000E+03 0.  0.
         25    1    1    2    0    0  0.21025243575E+02  0.14027107456E+03 -0.51024719001E+02  0.19582276981E+03  0.12500000000E+03 0.  0.
</event>
<event>
 5    0  0.5641283E-005  0.3747815E+03  0.7546771E-02  0.1052880E+00
         21   -1    0    0  502  501  0.00000000000E+00  0.00000000000E+00  0.15817974285E+04  0.15817974285E+04  0.00000000000E+00 0. -1.
         21   -1    0    0  501  502 -0.00000000000E+00 -0.00000000000E+00 -0.88798452869E+02  0.88798452869E+02  0.00000000000E+00 0. -1.
         25    1    1    2    0    0 -0.53348388361E+02  0.10005449524E+02  0.29085136958E+03  0.32119414495E+03  0.12500000000E+03 0.  0.
         25    1    1    2    0    0  0.23401800938E+03 -0.86934484063E+02  0.10090432057E+04  0.10469552159E+04  0.12500000000E+03 0.  0.
         25    1    1    2    0    0 -0.18066962102E+03  0.76929034540E+02  0.19310440037E+03  0.30244652049E+03  0.12500000000E+03 0.  0.
</event>
<event>
 5    0  0.5641283E-005  0.2635514E+03  0.7546771E-02  0.1105028E+00
         21   -1    0    0  502  501  0.00000000000E+00  0.00000000000E+00  0.32167377362E+03  0.32167377362E+03  0.00000000000E+00 0.  1.
         21   -1    0    0  501  502 -0.00000000000E+00 -0.00000000000E+00 -0.21593096190E+03  0.21593096190E+03  0.00000000000E+00 0.  1.
         25    1    1    2    0    0 -0.52864280224E+02  0.75574785391E+02  0.19168078478E+03  0.24672394202E+03  0.12500000000E+03 0.  0.
         25    1    1    2    0    0  0.66464561939E+00 -0.52646716402E+02 -0.69816975787E+02  0.15255008558E+03  0.12500000000E+03 0.  0.
         25    1    1    2    0    0  0.52199634605E+02 -0.22928068989E+02 -0.16120997276E+02  0.13833070792E+03  0.12500000000E+03 0.  0.
</event>
<event>
 5    0  0.5641283E-005  0.3832557E+03  0.7546771E-02  0.1049737E+00
         21   -1    0    0  502  501  0.00000000000E+00  0.00000000000E+00  0.11132621934E+03  0.11132621934E+03  0.00000000000E+00 0. -1.
         21   -1    0    0  501  502 -0.00000000000E+00 -0.00000000000E+00 -0.13194099022E+04  0.13194099022E+04  0.00000000000E+00 0. -1.
         25    1    1    2    0    0 -0.13737291861E+03 -0.42961211293E+02 -0.88867391195E+03  0.90889125105E+03  0.12500000000E+03 0.  0.
         25    1    1    2    0    0  0.16563412856E+03  0.67010364110E+02 -0.32495109705E+03  0.39133523853E+03  0.12500000000E+03 0.  0.
         25    1    1    2    0    0 -0.28261209956E+02 -0.24049152817E+02  0.55413261466E+01  0.13050963196E+03  0.12500000000E+03 0.  0.
</event>
<event>
 5    0  0.5641283E-005  0.6891337E+03  0.7546771E-02  0.9735998E-01
         21   -1    0    0  502  501  0.00000000000E+00  0.00000000000E+00  0.67996906541E+03  0.67996906541E+03  0.00000000000E+00 0.  1.
         21   -1    0    0  501  502 -0.00000000000E+00 -0.00000000000E+00 -0.69842184858E+03  0.69842184858E+03  0.00000000000E+00 0.  1.
         25    1    1    2    0    0  0.37594152110E+03 -0.24112367389E+03 -0.12977920009E+03  0.48160180043E+03  0.12500000000E+03 0.  0.
         25    1    1    2    0    0 -0.98482096502E+02 -0.23794724225E+03  0.15862374593E+03  0.32726763696E+03  0.12500000000E+03 0.  0.
         25    1    1    2    0    0 -0.27745942460E+03  0.47907091614E+03 -0.47297329014E+02  0.56952147661E+03  0.12500000000E+03 0.  0.
</event>
<event>
 5    0  0.5641283E-005  0.2650482E+03  0.7546771E-02  0.1104148E+00
         21   -1    0    0  502  501  0.00000000000E+00  0.00000000000E+00  0.44580096689E+03  0.44580096689E+03  0.00000000000E+00 0. -1.
         21   -1    0    0  501  502 -0.00000000000E+00 -0.00000000000E+00 -0.15758281117E+03  0.15758281117E+03  0.00000000000E+00 0. -1.
         25    1    1    2    0    0 -0.26572965034E+02 -0.12292761683E+03  0.50877123505E+02  0.18447439699E+03  0.12500000000E+03 0.  0.
         25    1    1    2    0    0 -0.32879963276E+02  0.70787404221E+02  0.10025639519E+02  0.14770735266E+03  0.12500000000E+03 0.  0.
         25    1    1    2    0    0  0.59452928310E+02  0.52140212605E+02  0.22731539270E+03  0.27120202841E+03  0.12500000000E+03 0.  0.
</event>
<event>
 5    0  0.5641283E-005  0.3035345E+03  0.7546771E-02  0.1083487E+00
         21   -1    0    0  502  501  0.00000000000E+00  0.00000000000E+00  0.39138490125E+03  0.39138490125E+03  0.00000000000E+00 0.  1.
         21   -1    0    0  501  502 -0.00000000000E+00 -0.00000000000E+00 -0.23540299503E+03  0.23540299503E+03  0.00000000000E+00 0.  1.
         25    1    1    2    0    0  0.14026277275E+03 -0.64761228395E+02 -0.10813727168E+03  0.22624396489E+03  0.12500000000E+03 0.  0.
         25    1    1    2    0    0 -0.68527660048E+02  0.65533863522E+02  0.13229729341E+03  0.20522743799E+03  0.12500000000E+03 0.  0.
         25    1    1    2    0    0 -0.71735112700E+02 -0.77263512701E+00  0.13182188449E+03  0.19531649339E+03  0.12500000000E+03 0.  0.
</event>
<event>
 5    0  0.5794106E-005  0.2919888E+03  0.7546771E-02  0.1089315E+00
         21   -1    0    0  502  501  0.00000000000E+00  0.00000000000E+00  0.10688974122E+03  0.10688974122E+03  0.00000000000E+00 0. -1.
         21   -1    0    0  501  502 -0.00000000000E+00 -0.00000000000E+00 -0.79762047817E+03  0.79762047817E+03  0.00000000000E+00 0. -1.
         25    1    1    2    0    0  0.93272097421E+02 -0.50686259176E+02 -0.21263406566E+03  0.26852751610E+03  0.12500000000E+03 0.  0.
         25    1    1    2    0    0 -0.15407645000E+03 -0.15717633138E+02 -0.90000651643E+02  0.21843011178E+03  0.12500000000E+03 0.  0.
         25    1    1    2    0    0  0.60804352578E+02  0.66403892314E+02 -0.38809601964E+03  0.41755259150E+03  0.12500000000E+03 0.  0.
</event>
<event>
 5    0  0.5641283E-005  0.3939893E+03  0.7546771E-02  0.1045881E+00
         21   -1    0    0  502  501  0.00000000000E+00  0.00000000000E+00  0.17447701419E+03  0.17447701419E+03  0.00000000000E+00 0.  1.
         21   -1    0    0  501  502 -0.00000000000E+00 -0.00000000000E+00 -0.88967355473E+03  0.88967355473E+03  0.00000000000E+00 0.  1.
         25    1    1    2    0    0 -0.70955133795E+02 -0.22698042283E+03 -0.27655818668E+03  0.38556993396E+03  0.12500000000E+03 0.  0.
         25    1    1    2    0    0  0.14874721846E+03  0.26072283396E+03 -0.41256962891E+03  0.52530070422E+03  0.12500000000E+03 0.  0.
         25    1    1    2    0    0 -0.77792084661E+02 -0.33742411135E+02 -0.26068724948E+02  0.15327993073E+03  0.12500000000E+03 0.  0.
</event>
<event>
 5    0  0.5641283E-005  0.3830236E+03  0.7546771E-02  0.1049822E+00
         21   -1    0    0  502  501  0.00000000000E+00  0.00000000000E+00  0.12465715066E+04  0.12465715066E+04  0.00000000000E+00 0. -1.
         21   -1    0    0  501  502 -0.00000000000E+00 -0.00000000000E+00 -0.11768843249E+03  0.11768843249E+03  0.00000000000E+00 0. -1.
         25    1    1    2    0    0  0.46582725758E+02 -0.26478188966E+03  0.31371896366E+03  0.43165262375E+03  0.12500000000E+03 0.  0.
         25    1    1    2    0    0 -0.11287834492E+03  0.31011356651E+02  0.40539941687E+03  0.44008739154E+03  0.12500000000E+03 0.  0.
         25    1    1    2    0    0  0.66295619166E+02  0.23377053301E+03  0.40976469356E+03  0.49251992377E+03  0.12500000000E+03 0.  0.
</event>
<event>
 5    0  0.5641283E-005  0.2923911E+03  0.7546771E-02  0.1089107E+00
         21   -1    0    0  502  501  0.00000000000E+00  0.00000000000E+00  0.40448947959E+02  0.40448947959E+02  0.00000000000E+00 0.  1.
         21   -1    0    0  501  502 -0.00000000000E+00 -0.00000000000E+00 -0.21135919423E+04  0.21135919423E+04  0.00000000000E+00 0.  1.
         25    1    1    2    0    0 -0.10323630416E+03 -0.14674670195E+03 -0.68646699092E+03  0.72045420303E+03  0.12500000000E+03 0.  0.
         25    1    1    2    0    0 -0.41821388675E+02  0.99862043731E+02 -0.57449613073E+03  0.59782293411E+03  0.12500000000E+03 0.  0.
         25    1    1    2    0    0  0.14505769284E+03  0.46884658223E+02 -0.81217987271E+03  0.83576375314E+03  0.12500000000E+03 0.  0.
</event>
<event>
 5    0  0.5641283E-005  0.2114607E+03  0.7546771E-02  0.1140414E+00
         21   -1    0    0  502  501  0.00000000000E+00  0.00000000000E+00  0.53411572129E+03  0.53411572129E+03  0.00000000000E+00 0. -1.
         21   -1    0    0  501  502 -0.00000000000E+00 -0.00000000000E+00 -0.83718990398E+02  0.83718990398E+02  0.00000000000E+00 0. -1.
         25    1    1    2    0    0  0.66164753469E+02 -0.65931730603E+01  0.23422350301E+03  0.27369123825E+03  0.12500000000E+03 0.  0.
         25    1    1    2    0    0 -0.19537025575E+02  0.19740341801E+02  0.14091823696E+03  0.19040568786E+03  0.12500000000E+03 0.  0.
         25    1    1    2    0    0 -0.46627727894E+02 -0.13147168741E+02  0.75254990921E+02  0.15373778557E+03  0.12500000000E+03 0.  0.
</event>
<event>
 5    0  0.5641283E-005  0.7901549E+03  0.7546771E-02  0.9574378E-01
         21   -1    0    0  502  501  0.00000000000E+00  0.00000000000E+00  0.89286683564E+03  0.89286683564E+03  0.00000000000E+00 0. -1.
         21   -1    0    0  501  502 -0.00000000000E+00 -0.00000000000E+00 -0.69925851211E+03  0.69925851211E+03  0.00000000000E+00 0.  1.
         25    1    1    2    0    0  0.79842118235E+02  0.22669860094E+02 -0.13999559349E+03  0.20521318817E+03  0.12500000000E+03 0.  0.
         25    1    1    2    0    0 -0.25630388347E+03  0.40381053778E+03  0.64770623080E+03  0.81480242545E+03  0.12500000000E+03 0.  0.
         25    1    1    2    0    0  0.17646176523E+03 -0.42648039787E+03 -0.31410231379E+03  0.57210973413E+03  0.12500000000E+03 0.  0.
</event>
<event>
 5    0  0.5641283E-005  0.3132970E+03  0.7546771E-02  0.1078776E+00
         21   -1    0    0  502  501  0.00000000000E+00  0.00000000000E+00  0.14337444857E+03  0.14337444857E+03  0.00000000000E+00 0. -1.
         21   -1    0    0  501  502 -0.00000000000E+00 -0.00000000000E+00 -0.68460603187E+03  0.68460603187E+03  0.00000000000E+00 0. -1.
         25    1    1    2    0    0 -0.14650936950E+03  0.73466597918E+02 -0.23034915308E+02  0.20740767508E+03  0.12500000000E+03 0.  0.
         25    1    1    2    0    0  0.93913509227E+02  0.43514154356E+02 -0.25188166185E+03  0.29963744830E+03  0.12500000000E+03 0.  0.
         25    1    1    2    0    0  0.52595860272E+02 -0.11698075227E+03 -0.26631500614E+03  0.32093535707E+03  0.12500000000E+03 0.  0.
</event>
<event>
 5    0  0.5641283E-005  0.3125471E+03  0.7546771E-02  0.1079131E+00
         21   -1    0    0  502  501  0.00000000000E+00  0.00000000000E+00  0.19146473254E+04  0.19146473254E+04  0.00000000000E+00 0. -1.
         21   -1    0    0  501  502 -0.00000000000E+00 -0.00000000000E+00 -0.51020207488E+02  0.51020207488E+02  0.00000000000E+00 0. -1.
         25    1    1    2    0    0 -0.91322077153E+02 -0.77308018205E+02  0.64907579110E+03  0.67174447080E+03  0.12500000000E+03 0.  0.
         25    1    1    2    0    0  0.62372591178E+01  0.21001464740E+03  0.63433640668E+03  0.67981816125E+03  0.12500000000E+03 0.  0.
         25    1    1    2    0    0  0.85084818035E+02 -0.13270662920E+03  0.58021492013E+03  0.61410490084E+03  0.12500000000E+03 0.  0.
</event>
<event>
 5    0  0.5641283E-005  0.4724909E+03  0.7546771E-02  0.1021220E+00
         21   -1    0    0  502  501  0.00000000000E+00  0.00000000000E+00  0.14050995245E+03  0.14050995245E+03  0.00000000000E+00 0.  1.
         21   -1    0    0  501  502 -0.00000000000E+00 -0.00000000000E+00 -0.15888385885E+04  0.15888385885E+04  0.00000000000E+00 0.  1.
         25    1    1    2    0    0  0.86315916535E+02  0.27712291374E+03 -0.76179226195E+03  0.82474238228E+03  0.12500000000E+03 0.  0.
         25    1    1    2    0    0 -0.26385320517E+03 -0.21432857724E+03 -0.44594512824E+03  0.57449744151E+03  0.12500000000E+03 0.  0.
         25    1    1    2    0    0  0.17753728864E+03 -0.62794336500E+02 -0.24059124581E+03  0.33010871712E+03  0.12500000000E+03 0.  0.
</event>
<event>
 5    0  0.5641283E-005  0.5199358E+03  0.7546771E-02  0.1008702E+00
         21   -1    0    0  502  501  0.00000000000E+00  0.00000000000E+00  0.18262734002E+03  0.18262734002E+03  0.00000000000E+00 0. -1.
         21   -1    0    0  501  502 -0.00000000000E+00 -0.00000000000E+00 -0.14802453091E+04  0.14802453091E+04  0.00000000000E+00 0. -1.
         25    1    1    2    0    0 -0.30856311854E+03  0.94029586424E+02 -0.93310675307E+03  0.99517132891E+03  0.12500000000E+03 0.  0.
         25    1    1    2    0    0  0.11494866572E+03  0.51227400126E+02 -0.35297909612E+03  0.39504010501E+03  0.12500000000E+03 0.  0.
         25    1    1    2    0    0  0.19361445282E+03 -0.14525698655E+03 -0.11532119884E+02  0.27266121520E+03  0.12500000000E+03 0.  0.
</event>
<event>
 5    0  0.5641283E-005  0.3941150E+03  0.7546771E-02  0.1045837E+00
         21   -1    0    0  502  501  0.00000000000E+00  0.00000000000E+00  0.20666014594E+03  0.20666014594E+03  0.00000000000E+00 0.  1.
         21   -1    0    0  501  502 -0.00000000000E+00 -0.00000000000E+00 -0.75160410291E+03  0.75160410291E+03  0.00000000000E+00 0.  1.
         25    1    1    2    0    0 -0.75813418921E+02  0.10239226030E+03 -0.46512398138E+03  0.49819390554E+03  0.12500000000E+03 0.  0.
         25    1    1    2    0    0  0.58925574617E+02  0.45779500662E+02 -0.18773083511E+03  0.23756231282E+03  0.12500000000E+03 0.  0.
         25    1    1    2    0    0  0.16887844304E+02 -0.14817176096E+03  0.10791085952E+03  0.22250803050E+03  0.12500000000E+03 0.  0.
</event>
<event>
 5    0  0.5641283E-005  0.3845565E+03  0.7546771E-02  0.1049262E+00
         21   -1    0    0  502  501  0.00000000000E+00  0.00000000000E+00  0.64855397340E+02  0.64855397340E+02  0.00000000000E+00 0. -1.
         21   -1    0    0  501  502 -0.00000000000E+00 -0.00000000000E+00 -0.22802064746E+04  0.22802064746E+04  0.00000000000E+00 0. -1.
         25    1    1    2    0    0 -0.20807422207E+03  0.97667673999E+02 -0.62791405102E+03  0.68024621418E+03  0.12500000000E+03 0.  0.
         25    1    1    2    0    0  0.86778291067E+02 -0.96268686661E+02 -0.13896368654E+04  0.14012543486E+04  0.12500000000E+03 0.  0.
         25    1    1    2    0    0  0.12129593101E+03 -0.13989873372E+01 -0.19780016079E+03  0.26356130909E+03  0.12500000000E+03 0.  0.
</event>
<event>
 5    0  0.5641283E-005  0.3150755E+03  0.7546771E-02  0.1077938E+00
         21   -1    0    0  502  501  0.00000000000E+00  0.00000000000E+00  0.76186112009E+02  0.76186112009E+02  0.00000000000E+00 0. -1.
         21   -1    0    0  501  502 -0.00000000000E+00 -0.00000000000E+00 -0.13030272105E+04  0.13030272105E+04  0.00000000000E+00 0. -1.
         25    1    1    2    0    0  0.37178990066E+02 -0.28702781499E+02 -0.23298204805E+03  0.26853633214E+03  0.12500000000E+03 0.  0.
         25    1    1    2    0    0  0.14546615909E+03  0.10532249375E+03 -0.25720770643E+03  0.33768925860E+03  0.12500000000E+03 0.  0.
         25    1    1    2    0    0 -0.18264514915E+03 -0.76619712252E+02 -0.73665134398E+03  0.77298773173E+03  0.12500000000E+03 0.  0.
</event>
<event>
 5    0  0.5722749E-005  0.3058898E+03  0.7546771E-02  0.1082333E+00
         21   -1    0    0  502  501  0.00000000000E+00  0.00000000000E+00  0.66221990896E+03  0.66221990896E+03  0.00000000000E+00 0.  1.
         21   -1    0    0  501  502 -0.00000000000E+00 -0.00000000000E+00 -0.14129535750E+03  0.14129535750E+03  0.00000000000E+00 0.  1.
         25    1    1    2    0    0  0.64969885661E+02 -0.73455986534E+01  0.20964685726E+03  0.25268923329E+03  0.12500000000E+03 0.  0.
         25    1    1    2    0    0  0.52996729003E+01  0.58452962826E+02  0.36432277429E+03  0.38961637448E+03  0.12500000000E+03 0.  0.
         25    1    1    2    0    0 -0.70269558562E+02 -0.51107364173E+02 -0.53045080083E+02  0.16120965869E+03  0.12500000000E+03 0.  0.
</event>
<event>
 5    0  0.6633382E-005  0.3030685E+03  0.7546771E-02  0.1083717E+00
         21   -1    0    0  502  501  0.00000000000E+00  0.00000000000E+00  0.50704379026E+03  0.50704379026E+03  0.00000000000E+00 0.  1.
         21   -1    0    0  501  502 -0.00000000000E+00 -0.00000000000E+00 -0.18114903417E+03  0.18114903417E+03  0.00000000000E+00 0.  1.
         25    1    1    2    0    0  0.94384963178E+02 -0.84248374793E+02  0.13633213452E+03  0.22409319675E+03  0.12500000000E+03 0.  0.
         25    1    1    2    0    0 -0.19118621161E+03 -0.24671953360E+02  0.81433262495E+02  0.24375653639E+03  0.12500000000E+03 0.  0.
         25    1    1    2    0    0  0.96801248429E+02  0.10892032815E+03  0.10812935909E+03  0.22034309129E+03  0.12500000000E+03 0.  0.
</event>
<event>
 5    0  0.5641283E-005  0.2458062E+03  0.7546771E-02  0.1115984E+00
         21   -1    0    0  502  501  0.00000000000E+00  0.00000000000E+00  0.37468646667E+03  0.37468646667E+03  0.00000000000E+00 0.  1.
         21   -1    0    0  501  502 -0.00000000000E+00 -0.00000000000E+00 -0.16125670295E+03  0.16125670295E+03  0.00000000000E+00 0.  1.
         25    1    1    2    0    0 -0.76584962418E+02 -0.12443503859E+03  0.10698425101E+03  0.22004537091E+03  0.12500000000E+03 0.  0.
         25    1    1    2    0    0  0.39608849238E+02  0.89198838723E+02  0.82480762152E+02  0.17875505557E+03  0.12500000000E+03 0.  0.
         25    1    1    2    0    0  0.36976113180E+02  0.35236199864E+02  0.23964750558E+02  0.13714274314E+03  0.12500000000E+03 0.  0.
</event>
<event>
 5    0  0.5641283E-005  0.4779681E+03  0.7546771E-02  0.1019695E+00
         21   -1    0    0  502  501  0.00000000000E+00  0.00000000000E+00  0.66222732080E+03  0.66222732080E+03  0.00000000000E+00 0. -1.
         21   -1    0    0  501  502 -0.00000000000E+00 -0.00000000000E+00 -0.34497747678E+03  0.34497747678E+03  0.00000000000E+00 0. -1.
         25    1    1    2    0    0  0.19810519380E+03 -0.28771760121E+03  0.13830253384E+03  0.39595413462E+03  0.12500000000E+03 0.  0.
         25    1    1    2    0    0 -0.29029134352E+03  0.29010400529E+03  0.12590394704E+03  0.44710871372E+03  0.12500000000E+03 0.  0.
         25    1    1    2    0    0  0.92186149722E+02 -0.23864040754E+01  0.53043363145E+02  0.16414194924E+03  0.12500000000E+03 0.  0.
</event>
<event>
 5    0  0.5641283E-005  0.3603857E+03  0.7546771E-02  0.1058431E+00
         21   -1    0    0  502  501  0.00000000000E+00  0.00000000000E+00  0.72827849339E+03  0.72827849339E+03  0.00000000000E+00 0.  1.
         21   -1    0    0  501  502 -0.00000000000E+00 -0.00000000000E+00 -0.17833537799E+03  0.17833537799E+03  0.00000000000E+00 0.  1.
         25    1    1    2    0    0  0.14939338949E+03  0.22214333748E+03  0.19587316510E+03  0.35448179645E+03  0.12500000000E+03 0.  0.
         25    1    1    2    0    0 -0.15566217708E+02 -0.68326188808E+02  0.25654967211E+03  0.29385967650E+03  0.12500000000E+03 0.  0.
         25    1    1    2    0    0 -0.13382717178E+03 -0.15381714867E+03  0.97520278195E+02  0.25827239843E+03  0.12500000000E+03 0.  0.
</event>
<event>
 5    0  0.5641283E-005  0.3024632E+03  0.7546771E-02  0.1084016E+00
         21   -1    0    0  502  501  0.00000000000E+00  0.00000000000E+00  0.17367858019E+04  0.17367858019E+04  0.00000000000E+00 0.  1.
         21   -1    0    0  501  502 -0.00000000000E+00 -0.00000000000E+00 -0.52674323488E+02  0.52674323488E+02  0.00000000000E+00 0.  1.
         25    1    1    2    0    0 -0.15710721889E+03 -0.71375484948E+02  0.46455466288E+03  0.51109018077E+03  0.12500000000E+03 0.  0.
         25    1    1    2    0    0  0.82177019703E+02  0.62564178491E+02  0.25066162318E+03  0.29853574046E+03  0.12500000000E+03 0.  0.
         25    1    1    2    0    0  0.74930199184E+02  0.88113064576E+01  0.96889519235E+03  0.97983420416E+03  0.12500000000E+03 0.  0.
</event>
<event>
 5    0  0.6325864E-005  0.3331959E+03  0.7546771E-02  0.1069731E+00
         21   -1    0    0  502  501  0.00000000000E+00  0.00000000000E+00  0.18340568044E+03  0.18340568044E+03  0.00000000000E+00 0. -1.
         21   -1    0    0  501  502 -0.00000000000E+00 -0.00000000000E+00 -0.60532225756E+03  0.60532225756E+03  0.00000000000E+00 0. -1.
         25    1    1    2    0    0 -0.26024512589E+02 -0.74646870491E+02 -0.23693157109E+03  0.27930449317E+03  0.12500000000E+03 0.  0.
         25    1    1    2    0    0  0.12382827530E+03 -0.11145666353E+03 -0.16178560544E+03  0.26373397911E+03  0.12500000000E+03 0.  0.
         25    1    1    2    0    0 -0.97803762713E+02  0.18610353402E+03 -0.23199400594E+02  0.24568946572E+03  0.12500000000E+03 0.  0.
</event>
<event>
 5    0  0.6171998E-005  0.4326633E+03  0.7546771E-02  0.1033022E+00
         21   -1    0    0  502  501  0.00000000000E+00  0.00000000000E+00  0.64381913259E+03  0.64381913259E+03  0.00000000000E+00 0. -1.
         21   -1    0    0  501  502 -0.00000000000E+00 -0.00000000000E+00 -0.29076105215E+03  0.29076105215E+03  0.00000000000E+00 0. -1.
         25    1    1    2    0    0 -0.12851019129E+03  0.23178189161E+02 -0.10191448449E+03  0.20751785433E+03  0.12500000000E+03 0.  0.
         25    1    1    2    0    0  0.15260753132E+03  0.28469453950E+02 -0.48547360277E+02  0.20513755047E+03  0.12500000000E+03 0.  0.
         25    1    1    2    0    0 -0.24097340033E+02 -0.51647643111E+02  0.50351992520E+03  0.52192477993E+03  0.12500000000E+03 0.  0.
</event>
<event>
 5    0  0.5641283E-005  0.2552197E+03  0.7546771E-02  0.1110050E+00
         21   -1    0    0  502  501  0.00000000000E+00  0.00000000000E+00  0.42541609798E+03  0.42541609798E+03  0.00000000000E+00 0.  1.
         21   -1    0    0  501  502 -0.00000000000E+00 -0.00000000000E+00 -0.15311383813E+03  0.15311383813E+03  0.00000000000E+00 0.  1.
         25    1    1    2    0    0  0.12170320795E+03 -0.23729689256E+02  0.66908759160E+02  0.18835219943E+03  0.12500000000E+03 0.  0.
         25    1    1    2    0    0  0.30740678036E+01 -0.46243003598E+02  0.42491959958E+02  0.13992295000E+03  0.12500000000E+03 0.  0.
         25    1    1    2    0    0 -0.12477727575E+03  0.69972692854E+02  0.16290154073E+03  0.25025478669E+03  0.12500000000E+03 0.  0.
</event>
<event>
 5    0  0.5641283E-005  0.4492482E+03  0.7546771E-02  0.1027946E+00
         21   -1    0    0  502  501  0.00000000000E+00  0.00000000000E+00  0.11586360822E+04  0.11586360822E+04  0.00000000000E+00 0.  1.
         21   -1    0    0  501  502 -0.00000000000E+00 -0.00000000000E+00 -0.17419097660E+03  0.17419097660E+03  0.00000000000E+00 0.  1.
         25    1    1    2    0    0 -0.99552916184E+02  0.39553877627E+02  0.10261222498E+04  0.10392435537E+04  0.12500000000E+03 0.  0.
         25    1    1    2    0    0  0.69800929406E+02 -0.49865777602E+02 -0.60657852414E+02  0.16328851944E+03  0.12500000000E+03 0.  0.
         25    1    1    2    0    0  0.29751986777E+02  0.10311899975E+02  0.18980708181E+02  0.13029498563E+03  0.12500000000E+03 0.  0.
</event>
<event>
 5    0  0.5641283E-005  0.4698692E+03  0.7546771E-02  0.1021957E+00
         21   -1    0    0  502  501  0.00000000000E+00  0.00000000000E+00  0.48834388330E+03  0.48834388330E+03  0.00000000000E+00 0. -1.
         21   -1    0    0  501  502 -0.00000000000E+00 -0.00000000000E+00 -0.45209345244E+03  0.45209345244E+03  0.00000000000E+00 0. -1.
         25    1    1    2    0    0 -0.33724510553E+01  0.14801860977E+03  0.14185371230E+03  0.24014237019E+03  0.12500000000E+03 0.  0.
         25    1    1    2    0    0 -0.19237237963E+02 -0.23601907116E+03 -0.33178827034E+03  0.42636079746E+03  0.12500000000E+03 0.  0.
         25    1    1    2    0    0  0.22609689018E+02  0.88000461396E+02  0.22618498890E+03  0.27393416809E+03  0.12500000000E+03 0.  0.
</event>
<event>
 5    0  0.5641283E-005  0.3019158E+03  0.7546771E-02  0.1084287E+00
         21   -1    0    0  502  501  0.00000000000E+00  0.00000000000E+00  0.64826673662E+03  0.64826673662E+03  0.00000000000E+00 0. -1.
         21   -1    0    0  501  502 -0.00000000000E+00 -0.00000000000E+00 -0.14061052327E+03  0.14061052327E+03  0.00000000000E+00 0. -1.
         25    1    1    2    0    0 -0.44360926288E+02 -0.12271178060E+03  0.21076128483E+02  0.18192107099E+03  0.12500000000E+03 0.  0.
         25    1    1    2    0    0  0.97950597290E+02  0.14057633363E+03  0.21123429424E+03  0.29933418139E+03  0.12500000000E+03 0.  0.
         25    1    1    2    0    0 -0.53589671002E+02 -0.17864553028E+02  0.27534579062E+03  0.30762200751E+03  0.12500000000E+03 0.  0.
</event>
<event>
 5    0  0.5641283E-005  0.4096112E+03  0.7546771E-02  0.1040502E+00
         21   -1    0    0  502  501  0.00000000000E+00  0.00000000000E+00  0.92465871731E+03  0.92465871731E+03  0.00000000000E+00 0.  1.
         21   -1    0    0  501  502 -0.00000000000E+00 -0.00000000000E+00 -0.18145216846E+03  0.18145216846E+03  0.00000000000E+00 0.  1.
         25    1    1    2    0    0  0.16359572081E+03  0.10952608564E+03  0.14043956839E+03  0.27222747045E+03  0.12500000000E+03 0.  0.
         25    1    1    2    0    0  0.14431758084E+02 -0.15813428825E+03  0.11974625509E+02  0.20244288186E+03  0.12500000000E+03 0.  0.
         25    1    1    2    0    0 -0.17802747889E+03  0.48608202609E+02  0.59079235496E+03  0.63144053344E+03  0.12500000000E+03 0.  0.
</event>
<event>
 5    0  0.5641283E-005  0.3355534E+03  0.7546771E-02  0.1068706E+00
         21   -1    0    0  502  501  0.00000000000E+00  0.00000000000E+00  0.15462288002E+03  0.15462288002E+03  0.00000000000E+00 0.  1.
         21   -1    0    0  501  502 -0.00000000000E+00 -0.00000000000E+00 -0.72819810818E+03  0.72819810818E+03  0.00000000000E+00 0.  1.
         25    1    1    2    0    0  0.14071989768E+03 -0.82692260688E+02 -0.32842702271E+03  0.38746536468E+03  0.12500000000E+03 0.  0.
         25    1    1    2    0    0 -0.81257880021E+02  0.17481489836E+03 -0.43232471586E+02  0.23378866173E+03  0.12500000000E+03 0.  0.
         25    1    1    2    0    0 -0.59462017663E+02 -0.92122637672E+02 -0.20191573387E+03  0.26156696179E+03  0.12500000000E+03 0.  0.
</event>
<event>
 5    0  0.5641283E-005  0.3052558E+03  0.7546771E-02  0.1082642E+00
         21   -1    0    0  502  501  0.00000000000E+00  0.00000000000E+00  0.17067452909E+03  0.17067452909E+03  0.00000000000E+00 0.  1.
         21   -1    0    0  501  502 -0.00000000000E+00 -0.00000000000E+00 -0.54595782105E+03  0.54595782105E+03  0.00000000000E+00 0.  1.
         25    1    1    2    0    0  0.96352233265E+02  0.91027345749E+02 -0.38729031899E+03  0.42800528234E+03  0.12500000000E+03 0.  0.
         25    1    1    2    0    0 -0.49027257776E+02 -0.21034833890E+02 -0.94314860974E+01  0.13623541820E+03  0.12500000000E+03 0.  0.
         25    1    1    2    0    0 -0.47324975488E+02 -0.69992511859E+02  0.21438513134E+02  0.15239164960E+03  0.12500000000E+03 0.  0.
</event>
<event>
 5    0  0.5641283E-005  0.3179301E+03  0.7546771E-02  0.1076606E+00
         21   -1    0    0  502  501  0.00000000000E+00  0.00000000000E+00  0.85541977282E+02  0.85541977282E+02  0.00000000000E+00 0. -1.
         21   -1    0    0  501  502 -0.00000000000E+00 -0.00000000000E+00 -0.11816370206E+04  0.11816370206E+04  0.00000000000E+00 0. -1.
         25    1    1    2    0    0  0.15123492762E+03  0.10378797858E+03 -0.34915429159E+03  0.41373622898E+03  0.12500000000E+03 0.  0.
         25    1    1    2    0    0 -0.13617148726E+03 -0.15346740697E+03 -0.28848561161E+03  0.37542491533E+03  0.12500000000E+03 0.  0.
         25    1    1    2    0    0 -0.15063440358E+02  0.49679428390E+02 -0.45845514014E+03  0.47801785360E+03  0.12500000000E+03 0.  0.
</event>
<event>
 5    0  0.5641283E-005  0.4794255E+03  0.7546771E-02  0.1019293E+00
         21   -1    0    0  502  501  0.00000000000E+00  0.00000000000E+00  0.25336900431E+03  0.25336900431E+03  0.00000000000E+00 0. -1.
         21   -1    0    0  501  502 -0.00000000000E+00 -0.00000000000E+00 -0.90717004340E+03  0.90717004340E+03  0.00000000000E+00 0. -1.
         25    1    1    2    0    0  0.42507667785E+02  0.98142896001E+02  0.16288565061E+03  0.23150737576E+03  0.12500000000E+03 0.  0.
         25    1    1    2    0    0 -0.14410808366E+03  0.50012072123E+02 -0.23067946284E+03  0.30349029921E+03  0.12500000000E+03 0.  0.
         25    1    1    2    0    0  0.10160041588E+03 -0.14815496812E+03 -0.58600722686E+03  0.62554137274E+03  0.12500000000E+03 0.  0.
</event>
<event>
 5    0  0.5641283E-005  0.2302624E+03  0.7546771E-02  0.1126455E+00
         21   -1    0    0  502  501  0.00000000000E+00  0.00000000000E+00  0.63671961689E+03  0.63671961689E+03  0.00000000000E+00 0. -1.
         21   -1    0    0  501  502 -0.00000000000E+00 -0.00000000000E+00 -0.83271745449E+02  0.83271745449E+02  0.00000000000E+00 0. -1.
         25    1    1    2    0    0  0.54568803097E+02 -0.45997202455E+02  0.31728556704E+03  0.34840870821E+03  0.12500000000E+03 0.  0.
         25    1    1    2    0    0 -0.79518117744E+02  0.26698667354E+02  0.84863959582E+02  0.17280868475E+03  0.12500000000E+03 0.  0.
         25    1    1    2    0    0  0.24949314647E+02  0.19298535100E+02  0.15129834482E+03  0.19877396938E+03  0.12500000000E+03 0.  0.
</event>
<event>
 5    0  0.5641283E-005  0.4936538E+03  0.7546771E-02  0.1015449E+00
         21   -1    0    0  502  501  0.00000000000E+00  0.00000000000E+00  0.62219782278E+03  0.62219782278E+03  0.00000000000E+00 0. -1.
         21   -1    0    0  501  502 -0.00000000000E+00 -0.00000000000E+00 -0.39166647470E+03  0.39166647470E+03  0.00000000000E+00 0. -1.
         25    1    1    2    0    0  0.11603385583E+03  0.64433624411E+02  0.71147554285E+01  0.18245867313E+03  0.12500000000E+03 0.  0.
         25    1    1    2    0    0 -0.19319137213E+03 -0.23108873650E+02 -0.24610292326E+03  0.33771078624E+03  0.12500000000E+03 0.  0.
         25    1    1    2    0    0  0.77157516294E+02 -0.41324750760E+02  0.46951951591E+03  0.49369483810E+03  0.12500000000E+03 0.  0.
</event>
<event>
 5    0  0.5641283E-005  0.4037043E+03  0.7546771E-02  0.1042504E+00
         21   -1    0    0  502  501  0.00000000000E+00  0.00000000000E+00  0.79363637465E+03  0.79363637465E+03  0.00000000000E+00 0.  1.
         21   -1    0    0  501  502 -0.00000000000E+00 -0.00000000000E+00 -0.20535498089E+03  0.20535498089E+03  0.00000000000E+00 0.  1.
         25    1    1    2    0    0  0.18771893854E+03  0.63922993973E+02  0.11123213732E+03  0.25946509865E+03  0.12500000000E+03 0.  0.
         25    1    1    2    0    0 -0.26399305410E+03  0.13032208632E+03  0.30141465702E+03  0.43949058495E+03  0.12500000000E+03 0.  0.
         25    1    1    2    0    0  0.76274115560E+02 -0.19424508029E+03  0.17563459942E+03  0.30003567194E+03  0.12500000000E+03 0.  0.
</event>
<event>
 5    0  0.5641283E-005  0.2453262E+03  0.7546771E-02  0.1116295E+00
         21   -1    0    0  502  501  0.00000000000E+00  0.00000000000E+00  0.77749356020E+03  0.77749356020E+03  0.00000000000E+00 0. -1.
         21   -1    0    0  501  502 -0.00000000000E+00 -0.00000000000E+00 -0.77408922140E+02  0.77408922140E+02  0.00000000000E+00 0. -1.
         25    1    1    2    0    0  0.26798372775E+01  0.56742712053E+02  0.66258800713E+02  0.15245374896E+03  0.12500000000E+03 0.  0.
         25    1    1    2    0    0 -0.14140465177E+02 -0.27841501294E+02  0.13239980911E+03  0.18474255439E+03  0.12500000000E+03 0.  0.
         25    1    1    2    0    0  0.11460627900E+02 -0.28901210759E+02  0.50142602824E+03  0.51770617900E+03  0.12500000000E+03 0.  0.
</event>
<event>
 5    0  0.5641283E-005  0.3328995E+03  0.7546771E-02  0.1069861E+00
         21   -1    0    0  502  501  0.00000000000E+00  0.00000000000E+00  0.15195232588E+03  0.15195232588E+03  0.00000000000E+00 0.  1.
         21   -1    0    0  501  502 -0.00000000000E+00 -0.00000000000E+00 -0.72932127327E+03  0.72932127327E+03  0.00000000000E+00 0.  1.
         25    1    1    2    0    0  0.96922737586E+02 -0.11027105407E+03 -0.33266307228E+03  0.38450415094E+03  0.12500000000E+03 0.  0.
         25    1    1    2    0    0 -0.64609145475E+02  0.11935192994E+03 -0.30304850161E+03  0.35479940697E+03  0.12500000000E+03 0.  0.
         25    1    1    2    0    0 -0.32313592111E+02 -0.90808758700E+01  0.58342626503E+02  0.14197004124E+03  0.12500000000E+03 0.  0.
</event>
<event>
 5    0  0.5641283E-005  0.2628509E+03  0.7546771E-02  0.1105442E+00
         21   -1    0    0  502  501  0.00000000000E+00  0.00000000000E+00  0.30117967058E+03  0.30117967058E+03  0.00000000000E+00 0. -1.
         21   -1    0    0  501  502 -0.00000000000E+00 -0.00000000000E+00 -0.22939997928E+03  0.22939997928E+03  0.00000000000E+00 0. -1.
         25    1    1    2    0    0 -0.11612996899E+03  0.72330549331E+02 -0.12429742233E+02  0.18573469400E+03  0.12500000000E+03 0.  0.
         25    1    1    2    0    0  0.85171722356E+01 -0.10660927512E+03  0.25674026881E+02  0.16649995622E+03  0.12500000000E+03 0.  0.
         25    1    1    2    0    0  0.10761279675E+03  0.34278725788E+02  0.58535406650E+02  0.17834499964E+03  0.12500000000E+03 0.  0.
</event>
<event>
 5    0  0.5641283E-005  0.3293152E+03  0.7546771E-02  0.1071440E+00
         21   -1    0    0  502  501  0.00000000000E+00  0.00000000000E+00  0.21695926658E+03  0.21695926658E+03  0.00000000000E+00 0. -1.
         21   -1    0    0  501  502 -0.00000000000E+00 -0.00000000000E+00 -0.49985652723E+03  0.49985652723E+03  0.00000000000E+00 0. -1.
         25    1    1    2    0    0  0.58753831748E+02  0.91520253102E+02  0.74823403901E+02  0.18180074599E+03  0.12500000000E+03 0.  0.
         25    1    1    2    0    0 -0.12719710596E+03  0.50079723060E+02 -0.23639342641E+03  0.30032305019E+03  0.12500000000E+03 0.  0.
         25    1    1    2    0    0  0.68443274212E+02 -0.14159997616E+03 -0.12132723814E+03  0.23469199762E+03  0.12500000000E+03 0.  0.
</event>
<event>
 5    0  0.5641283E-005  0.3631273E+03  0.7546771E-02  0.1057352E+00
         21   -1    0    0  502  501  0.00000000000E+00  0.00000000000E+00  0.27333740909E+03  0.27333740909E+03  0.00000000000E+00 0. -1.
         21   -1    0    0  501  502 -0.00000000000E+00 -0.00000000000E+00 -0.48241268939E+03  0.48241268939E+03  0.00000000000E+00 0. -1.
         25    1    1    2    0    0 -0.24792609722E+03 -0.42901881505E+02 -0.24643908233E+03  0.37371799852E+03  0.12500000000E+03 0.  0.
         25    1    1    2    0    0  0.85780461035E+02  0.65533586841E+02 -0.24484990373E+02  0.16696542532E+03  0.12500000000E+03 0.  0.
         25    1    1    2    0    0  0.16214563619E+03 -0.22631705335E+02  0.61848792404E+02  0.21506667464E+03  0.12500000000E+03 0.  0.
</event>
<event>
 5    0  0.5641283E-005  0.3483868E+03  0.7546771E-02  0.1063279E+00
         21   -1    0    0  502  501  0.00000000000E+00  0.00000000000E+00  0.51821162849E+03  0.51821162849E+03  0.00000000000E+00 0. -1.
         21   -1    0    0  501  502 -0.00000000000E+00 -0.00000000000E+00 -0.23421580589E+03  0.23421580589E+03  0.00000000000E+00 0. -1.
         25    1    1    2    0    0 -0.63441885814E+02 -0.34575933150E+02  0.49798971908E+02  0.15272624408E+03  0.12500000000E+03 0.  0.
         25    1    1    2    0    0 -0.79553468982E+02 -0.56839292548E+02  0.33151165399E+03  0.36753834676E+03  0.12500000000E+03 0.  0.
         25    1    1    2    0    0  0.14299535480E+03  0.91415225698E+02 -0.97314803299E+02  0.23216284355E+03  0.12500000000E+03 0.  0.
</event>
<event>
 5    0  0.5641283E-005  0.3699861E+03  0.7546771E-02  0.1054698E+00
         21   -1    0    0  502  501  0.00000000000E+00  0.00000000000E+00  0.12506694536E+04  0.12506694536E+04  0.00000000000E+00 0.  1.
         21   -1    0    0  501  502 -0.00000000000E+00 -0.00000000000E+00 -0.10945315345E+03  0.10945315345E+03  0.00000000000E+00 0.  1.
         25    1    1    2    0    0  0.80751301605E+02 -0.15465496337E+03  0.76581108041E+03  0.79531788694E+03  0.12500000000E+03 0.  0.
         25    1    1    2    0    0 -0.18072716206E+03  0.14058238780E+03  0.21963878554E+03  0.34101599812E+03  0.12500000000E+03 0.  0.
         25    1    1    2    0    0  0.99975860452E+02  0.14072575573E+02  0.15576643416E+03  0.22378872194E+03  0.12500000000E+03 0.  0.
</event>
<event>
 5    0  0.5641283E-005  0.4676332E+03  0.7546771E-02  0.1022590E+00
         21   -1    0    0  502  501  0.00000000000E+00  0.00000000000E+00  0.47213667804E+03  0.47213667804E+03  0.00000000000E+00 0.  1.
         21   -1    0    0  501  502 -0.00000000000E+00 -0.00000000000E+00 -0.46317272733E+03  0.46317272733E+03  0.00000000000E+00 0.  1.
         25    1    1    2    0    0  0.16487861694E+03  0.28990207491E+03 -0.24251734148E+03  0.43089190324E+03  0.12500000000E+03 0.  0.
         25    1    1    2    0    0 -0.10126343102E+03 -0.22754317127E+03  0.12452882205E+03  0.30522549824E+03  0.12500000000E+03 0.  0.
         25    1    1    2    0    0 -0.63615185923E+02 -0.62358903638E+02  0.12695247014E+03  0.19919200390E+03  0.12500000000E+03 0.  0.
</event>
<event>
 5    0  0.5641283E-005  0.3263067E+03  0.7546771E-02  0.1072783E+00
         21   -1    0    0  502  501  0.00000000000E+00  0.00000000000E+00  0.44563353204E+02  0.44563353204E+02  0.00000000000E+00 0.  1.
         21   -1    0    0  501  502 -0.00000000000E+00 -0.00000000000E+00 -0.23893188909E+04  0.23893188909E+04  0.00000000000E+00 0.  1.
         25    1    1    2    0    0  0.52692632485E+02  0.47053520233E+02 -0.21378322954E+03  0.25752439984E+03  0.12500000000E+03 0.  0.
         25    1    1    2    0    0  0.62133404272E+02 -0.12884685349E+03 -0.50574496646E+03  0.54024535415E+03  0.12500000000E+03 0.  0.
         25    1    1    2    0    0 -0.11482603676E+03  0.81793333262E+02 -0.16252273417E+04  0.16361124902E+04  0.12500000000E+03 0.  0.
</event>
<event>
 5    0  0.5641283E-005  0.2205782E+03  0.7546771E-02  0.1133453E+00
         21   -1    0    0  502  501  0.00000000000E+00  0.00000000000E+00  0.16655158537E+03  0.16655158537E+03  0.00000000000E+00 0. -1.
         21   -1    0    0  501  502 -0.00000000000E+00 -0.00000000000E+00 -0.29213015917E+03  0.29213015917E+03  0.00000000000E+00 0. -1.
         25    1    1    2    0    0  0.13962556694E+02 -0.43539397760E+02 -0.10712669577E+03  0.17085596593E+03  0.12500000000E+03 0.  0.
         25    1    1    2    0    0  0.42613115266E+02  0.17572348598E+02 -0.53957941662E+02  0.14373978049E+03  0.12500000000E+03 0.  0.
         25    1    1    2    0    0 -0.56575671961E+02  0.25967049162E+02  0.35506063625E+02  0.14408599812E+03  0.12500000000E+03 0.  0.
</event>
<event>
 5    0  0.5641283E-005  0.3441249E+03  0.7546771E-02  0.1065053E+00
         21   -1    0    0  502  501  0.00000000000E+00  0.00000000000E+00  0.15662244947E+04  0.15662244947E+04  0.00000000000E+00 0. -1.
         21   -1    0    0  501  502 -0.00000000000E+00 -0.00000000000E+00 -0.75609829433E+02  0.75609829433E+02  0.00000000000E+00 0. -1.
         25    1    1    2    0    0  0.45289954344E+02 -0.16546728067E+03  0.29057853242E+03  0.35984925238E+03  0.12500000000E+03 0.  0.
         25    1    1    2    0    0  0.17492929633E+02 -0.56790832449E+02  0.17113500272E+03  0.22009859244E+03  0.12500000000E+03 0.  0.
         25    1    1    2    0    0 -0.62782883977E+02  0.22225811312E+03  0.10289011301E+04  0.10618864793E+04  0.12500000000E+03 0.  0.
</event>
<event>
 5    0  0.5641283E-005  0.3074598E+03  0.7546771E-02  0.1081570E+00
         21   -1    0    0  502  501  0.00000000000E+00  0.00000000000E+00  0.46931861991E+03  0.46931861991E+03  0.00000000000E+00 0. -1.
         21   -1    0    0  501  502 -0.00000000000E+00 -0.00000000000E+00 -0.20142288204E+03  0.20142288204E+03  0.00000000000E+00 0. -1.
         25    1    1    2    0    0  0.14229667973E+03 -0.11589030348E+03  0.13817824652E+03  0.26152845986E+03  0.12500000000E+03 0.  0.
         25    1    1    2    0    0 -0.12037757526E+03  0.76833887992E+01  0.16406208971E+03  0.23893757421E+03  0.12500000000E+03 0.  0.
         25    1    1    2    0    0 -0.21919104479E+02  0.10820691468E+03 -0.34344598360E+02  0.17027546788E+03  0.12500000000E+03 0.  0.
</event>
<event>
 5    0  0.5747102E-005  0.2820927E+03  0.7546771E-02  0.1094551E+00
         21   -1    0    0  502  501  0.00000000000E+00  0.00000000000E+00  0.39513760316E+03  0.39513760316E+03  0.00000000000E+00 0.  1.
         21   -1    0    0  501  502 -0.00000000000E+00 -0.00000000000E+00 -0.20138880712E+03  0.20138880712E+03  0.00000000000E+00 0.  1.
         25    1    1    2    0    0 -0.11537827504E+03  0.76037343197E+02 -0.20494653537E+02  0.18745360689E+03  0.12500000000E+03 0.  0.
         25    1    1    2    0    0 -0.24756263133E+02 -0.96111111706E+02  0.95961481029E+02  0.18623593692E+03  0.12500000000E+03 0.  0.
         25    1    1    2    0    0  0.14013453818E+03  0.20073768510E+02  0.11828196855E+03  0.22283686647E+03  0.12500000000E+03 0.  0.
</event>
<event>
 5    0  0.5641283E-005  0.2157854E+03  0.7546771E-02  0.1137065E+00
         21   -1    0    0  502  501  0.00000000000E+00  0.00000000000E+00  0.49461181283E+02  0.49461181283E+02  0.00000000000E+00 0.  1.
         21   -1    0    0  501  502 -0.00000000000E+00 -0.00000000000E+00 -0.94141140162E+03  0.94141140162E+03  0.00000000000E+00 0.  1.
         25    1    1    2    0    0  0.52006042205E+02 -0.13047192065E+02 -0.35076701276E+03  0.37621450648E+03  0.12500000000E+03 0.  0.
         25    1    1    2    0    0  0.38172995633E+02  0.30755774019E+02 -0.21546077843E+03  0.25387288606E+03  0.12500000000E+03 0.  0.
         25    1    1    2    0    0 -0.90179037838E+02 -0.17708581954E+02 -0.32572242914E+03  0.36078519036E+03  0.12500000000E+03 0.  0.
</event>
<event>
 5    0  0.5641283E-005  0.3955416E+03  0.7546771E-02  0.1045334E+00
         21   -1    0    0  502  501  0.00000000000E+00  0.00000000000E+00  0.41988508026E+03  0.41988508026E+03  0.00000000000E+00 0. -1.
         21   -1    0    0  501  502 -0.00000000000E+00 -0.00000000000E+00 -0.37260950406E+03  0.37260950406E+03  0.00000000000E+00 0. -1.
         25    1    1    2    0    0 -0.14273349446E+02 -0.39751451990E+01  0.25399692435E+03  0.28347657374E+03  0.12500000000E+03 0.  0.
         25    1    1    2    0    0  0.32186938790E+02 -0.57215552921E+00  0.10900306710E+03  0.16894672245E+03  0.12500000000E+03 0.  0.
         25    1    1    2    0    0 -0.17913589345E+02  0.45473007282E+01 -0.31572441524E+03  0.34007128812E+03  0.12500000000E+03 0.  0.
</event>
<event>
 5    0  0.5641283E-005  0.2085130E+03  0.7546771E-02  0.1142749E+00
         21   -1    0    0  502  501  0.00000000000E+00  0.00000000000E+00  0.19579867213E+03  0.19579867213E+03  0.00000000000E+00 0.  1.
         21   -1    0    0  501  502 -0.00000000000E+00 -0.00000000000E+00 -0.22205301583E+03  0.22205301583E+03  0.00000000000E+00 0.  1.
         25    1    1    2    0    0 -0.46952168034E+02  0.36316973202E+02 -0.59543658436E+02  0.15064486677E+03  0.12500000000E+03 0.  0.
         25    1    1    2    0    0 -0.64854446088E+01 -0.30770332522E+02  0.11359447901E+02  0.12939440255E+03  0.12500000000E+03 0.  0.
         25    1    1    2    0    0  0.53437612643E+02 -0.55466406794E+01  0.21929866836E+02  0.13781241862E+03  0.12500000000E+03 0.  0.
</event>
<event>
 5    0  0.5641283E-005  0.3693741E+03  0.7546771E-02  0.1054933E+00
         21   -1    0    0  502  501  0.00000000000E+00  0.00000000000E+00  0.64030713905E+03  0.64030713905E+03  0.00000000000E+00 0. -1.
         21   -1    0    0  501  502 -0.00000000000E+00 -0.00000000000E+00 -0.21308089297E+03  0.21308089297E+03  0.00000000000E+00 0. -1.
         25    1    1    2    0    0  0.13971399680E+03 -0.20987181338E+03  0.14547322883E+03  0.31678642531E+03  0.12500000000E+03 0.  0.
         25    1    1    2    0    0  0.36930763421E+02  0.74844339573E+00  0.17302927594E+03  0.21663003436E+03  0.12500000000E+03 0.  0.
         25    1    1    2    0    0 -0.17664476022E+03  0.20912336998E+03  0.10872374132E+03  0.31997157235E+03  0.12500000000E+03 0.  0.
</event>
<event>
 5    0  0.5641283E-005  0.2251195E+03  0.7546771E-02  0.1130123E+00
         21   -1    0    0  502  501  0.00000000000E+00  0.00000000000E+00  0.27278187710E+02  0.27278187710E+02  0.00000000000E+00 0. -1.
         21   -1    0    0  501  502 -0.00000000000E+00 -0.00000000000E+00 -0.18578505717E+04  0.18578505717E+04  0.00000000000E+00 0. -1.
         25    1    1    2    0    0  0.39115509941E+02  0.11271073699E+02 -0.11415687442E+04  0.11491132486E+04  0.12500000000E+03 0.  0.
         25    1    1    2    0    0 -0.16015324673E+02  0.14563561240E+02 -0.29227754829E+03  0.31862164581E+03  0.12500000000E+03 0.  0.
         25    1    1    2    0    0 -0.23100185268E+02 -0.25834634939E+02 -0.39672609143E+03  0.41739386501E+03  0.12500000000E+03 0.  0.
</event>
<event>
 5    0  0.5641283E-005  0.3146432E+03  0.7546771E-02  0.1078141E+00
         21   -1    0    0  502  501  0.00000000000E+00  0.00000000000E+00  0.75297759795E+02  0.75297759795E+02  0.00000000000E+00 0. -1.
         21   -1    0    0  501  502 -0.00000000000E+00 -0.00000000000E+00 -0.13147845593E+04  0.13147845593E+04  0.00000000000E+00 0. -1.
         25    1    1    2    0    0  0.11738655609E+03  0.38042327014E+02 -0.75691856507E+03  0.77703123254E+03  0.12500000000E+03 0.  0.
         25    1    1    2    0    0 -0.88820940642E+02  0.57709745475E+02 -0.40153240763E+03  0.43367366602E+03  0.12500000000E+03 0.  0.
         25    1    1    2    0    0 -0.28565615448E+02 -0.95752072489E+02 -0.81035826798E+02  0.17937742053E+03  0.12500000000E+03 0.  0.
</event>
<event>
 5    0  0.5641283E-005  0.3655189E+03  0.7546771E-02  0.1056420E+00
         21   -1    0    0  502  501  0.00000000000E+00  0.00000000000E+00  0.10266736274E+03  0.10266736274E+03  0.00000000000E+00 0.  1.
         21   -1    0    0  501  502 -0.00000000000E+00 -0.00000000000E+00 -0.13013292884E+04  0.13013292884E+04  0.00000000000E+00 0.  1.
         25    1    1    2    0    0  0.27934904015E+01  0.34951120045E+00 -0.46976719957E+03  0.48612153577E+03  0.12500000000E+03 0.  0.
         25    1    1    2    0    0 -0.86451534279E+01  0.10026144024E+03  0.10911083375E+02  0.16084510194E+03  0.12500000000E+03 0.  0.
         25    1    1    2    0    0  0.58516630264E+01 -0.10061095144E+03 -0.73980580948E+03  0.75703001344E+03  0.12500000000E+03 0.  0.
</event>
<event>
 5    0  0.5641283E-005  0.2904521E+03  0.7546771E-02  0.1090113E+00
         21   -1    0    0  502  501  0.00000000000E+00  0.00000000000E+00  0.50292736860E+03  0.50292736860E+03  0.00000000000E+00 0.  1.
         21   -1    0    0  501  502 -0.00000000000E+00 -0.00000000000E+00 -0.16774275823E+03  0.16774275823E+03  0.00000000000E+00 0.  1.
         25    1    1    2    0    0  0.16980688273E+01  0.47815312515E+02  0.30460571905E+03  0.33271433938E+03  0.12500000000E+03 0.  0.
         25    1    1    2    0    0  0.84633329886E+02  0.36181005662E+02  0.50469291370E+02  0.16322994538E+03  0.12500000000E+03 0.  0.
         25    1    1    2    0    0 -0.86331398713E+02 -0.83996318176E+02 -0.19890400060E+02  0.17472584207E+03  0.12500000000E+03 0.  0.
</event>
<event>
 5    0  0.5641283E-005  0.3122587E+03  0.7546771E-02  0.1079268E+00
         21   -1    0    0  502  501  0.00000000000E+00  0.00000000000E+00  0.42138804466E+03  0.42138804466E+03  0.00000000000E+00 0.  1.
         21   -1    0    0  501  502 -0.00000000000E+00 -0.00000000000E+00 -0.23139119363E+03  0.23139119363E+03  0.00000000000E+00 0.  1.
         25    1    1    2    0    0  0.20920631041E+03  0.88930561229E+02  0.10806851025E+03  0.28103332177E+03  0.12500000000E+03 0.  0.
         25    1    1    2    0    0 -0.16186148948E+03 -0.26080760778E+02  0.87431581997E+02  0.22393889656E+03  0.12500000000E+03 0.  0.
         25    1    1    2    0    0 -0.47344820923E+02 -0.62849800451E+02 -0.55032412187E+01  0.14780701996E+03  0.12500000000E+03 0.  0.
</event>
<event>
 5    0  0.5641283E-005  0.2891046E+03  0.7546771E-02  0.1090818E+00
         21   -1    0    0  502  501  0.00000000000E+00  0.00000000000E+00  0.77526169398E+02  0.77526169398E+02  0.00000000000E+00 0.  1.
         21   -1    0    0  501  502 -0.00000000000E+00 -0.00000000000E+00 -0.10781062124E+04  0.10781062124E+04  0.00000000000E+00 0.  1.
         25    1    1    2    0    0  0.42271743336E+02 -0.37350316180E+02 -0.66934800217E+03  0.68325229192E+03  0.12500000000E+03 0.  0.
         25    1    1    2    0    0 -0.13945884142E+01  0.11378991710E+03 -0.10251541796E+03  0.19769800462E+03  0.12500000000E+03 0.  0.
         25    1    1    2    0    0 -0.40877154922E+02 -0.76439600921E+02 -0.22871662285E+03  0.27468208524E+03  0.12500000000E+03 0.  0.
</event>
<event>
 5    0  0.5641283E-005  0.2693664E+03  0.7546771E-02  0.1101643E+00
         21   -1    0    0  502  501  0.00000000000E+00  0.00000000000E+00  0.13041752063E+03  0.13041752063E+03  0.00000000000E+00 0. -1.
         21   -1    0    0  501  502 -0.00000000000E+00 -0.00000000000E+00 -0.55635360418E+03  0.55635360418E+03  0.00000000000E+00 0. -1.
         25    1    1    2    0    0  0.14137336810E+02 -0.14618504369E+02 -0.41060322344E+02  0.13313344821E+03  0.12500000000E+03 0.  0.
         25    1    1    2    0    0  0.10808434351E+03  0.49774551461E+02 -0.32057039402E+03  0.36407431770E+03  0.12500000000E+03 0.  0.
         25    1    1    2    0    0 -0.12222168032E+03 -0.35156047091E+02 -0.64305367187E+02  0.18956335890E+03  0.12500000000E+03 0.  0.
</event>
<event>
 5    0  0.5641283E-005  0.2530961E+03  0.7546771E-02  0.1111364E+00
         21   -1    0    0  502  501  0.00000000000E+00  0.00000000000E+00  0.16005961224E+04  0.16005961224E+04  0.00000000000E+00 0.  1.
         21   -1    0    0  501  502 -0.00000000000E+00 -0.00000000000E+00 -0.40021100499E+02  0.40021100499E+02  0.00000000000E+00 0.  1.
         25    1    1    2    0    0  0.42789187851E+02 -0.11484934115E+03  0.54801162868E+03  0.57529386485E+03  0.12500000000E+03 0.  0.
         25    1    1    2    0    0  0.68552884636E+02  0.46908050375E+02  0.43484837158E+03  0.46001953159E+03  0.12500000000E+03 0.  0.
         25    1    1    2    0    0 -0.11134207249E+03  0.67941290776E+02  0.57771502164E+03  0.60530382646E+03  0.12500000000E+03 0.  0.
</event>
<event>
 5    0  0.5641283E-005  0.3751820E+03  0.7546771E-02  0.1052729E+00
         21   -1    0    0  502  501  0.00000000000E+00  0.00000000000E+00  0.39766591474E+03  0.39766591474E+03  0.00000000000E+00 0. -1.
         21   -1    0    0  501  502 -0.00000000000E+00 -0.00000000000E+00 -0.35396923315E+03  0.35396923315E+03  0.00000000000E+00 0. -1.
         25    1    1    2    0    0  0.20555499014E+03 -0.13594022846E+03  0.10749367253E+02  0.27653778871E+03  0.12500000000E+03 0.  0.
         25    1    1    2    0    0 -0.10529578232E+03  0.16725493748E+03 -0.10968713870E+03  0.25829766604E+03  0.12500000000E+03 0.  0.
         25    1    1    2    0    0 -0.10025920782E+03 -0.31314709018E+02  0.14263445303E+03  0.21679969314E+03  0.12500000000E+03 0.  0.
</event>
<event>
 5    0  0.6047839E-005  0.2992729E+03  0.7546771E-02  0.1085605E+00
         21   -1    0    0  502  501  0.00000000000E+00  0.00000000000E+00  0.61667145351E+03  0.61667145351E+03  0.00000000000E+00 0.  1.
         21   -1    0    0  501  502 -0.00000000000E+00 -0.00000000000E+00 -0.14523827391E+03  0.14523827391E+03  0.00000000000E+00 0.  1.
         25    1    1    2    0    0  0.82059183538E+02  0.21001147203E+02  0.19871165224E+03  0.24957179032E+03  0.12500000000E+03 0.  0.
         25    1    1    2    0    0 -0.12919256835E+03 -0.10010158016E+03  0.29059045960E+03  0.35606019334E+03  0.12500000000E+03 0.  0.
         25    1    1    2    0    0  0.47133384810E+02  0.79100432954E+02 -0.17868932238E+02  0.15627774377E+03  0.12500000000E+03 0.  0.
</event>
<event>
 5    0  0.5641283E-005  0.3570175E+03  0.7546771E-02  0.1059771E+00
         21   -1    0    0  502  501  0.00000000000E+00  0.00000000000E+00  0.13154435312E+04  0.13154435312E+04  0.00000000000E+00 0. -1.
         21   -1    0    0  501  502 -0.00000000000E+00 -0.00000000000E+00 -0.96896189310E+02  0.96896189310E+02  0.00000000000E+00 0. -1.
         25    1    1    2    0    0 -0.21881637123E+02 -0.14809887994E+03  0.27467277540E+03  0.33687121846E+03  0.12500000000E+03 0.  0.
         25    1    1    2    0    0  0.82270946377E+01  0.99862887355E+02  0.92582837065E+03  0.93958685243E+03  0.12500000000E+03 0.  0.
         25    1    1    2    0    0  0.13654542485E+02  0.48235992581E+02  0.18046195806E+02  0.13588164958E+03  0.12500000000E+03 0.  0.
</event>
<event>
 5    0  0.5641283E-005  0.3675949E+03  0.7546771E-02  0.1055616E+00
         21   -1    0    0  502  501  0.00000000000E+00  0.00000000000E+00  0.10516417661E+04  0.10516417661E+04  0.00000000000E+00 0. -1.
         21   -1    0    0  501  502 -0.00000000000E+00 -0.00000000000E+00 -0.12849050248E+03  0.12849050248E+03  0.00000000000E+00 0. -1.
         25    1    1    2    0    0  0.13299502462E+03  0.26678786528E+02  0.35212586212E+03  0.39751359348E+03  0.12500000000E+03 0.  0.
         25    1    1    2    0    0  0.29533992132E+02  0.15712610607E+02 -0.41024887463E+02  0.13574676502E+03  0.12500000000E+03 0.  0.
         25    1    1    2    0    0 -0.16252901675E+03 -0.42391397135E+02  0.61205028893E+03  0.64687191005E+03  0.12500000000E+03 0.  0.
</event>
<event>
 5    0  0.5641283E-005  0.4289174E+03  0.7546771E-02  0.1034202E+00
         21   -1    0    0  502  501  0.00000000000E+00  0.00000000000E+00  0.17819251098E+04  0.17819251098E+04  0.00000000000E+00 0. -1.
         21   -1    0    0  501  502 -0.00000000000E+00 -0.00000000000E+00 -0.10324236545E+03  0.10324236545E+03  0.00000000000E+00 0. -1.
         25    1    1    2    0    0  0.64341431365E+02 -0.11348247345E+03  0.52508743686E+03  0.55530163688E+03  0.12500000000E+03 0.  0.
         25    1    1    2    0    0  0.24565209702E+03  0.12053311911E+03  0.36275991889E+03  0.47126738093E+03  0.12500000000E+03 0.  0.
         25    1    1    2    0    0 -0.30999352839E+03 -0.70506456655E+01  0.79083538860E+03  0.85859845744E+03  0.12500000000E+03 0.  0.
</event>
<event>
 5    0  0.5641283E-005  0.3192590E+03  0.7546771E-02  0.1075991E+00
         21   -1    0    0  502  501  0.00000000000E+00  0.00000000000E+00  0.40121211885E+03  0.40121211885E+03  0.00000000000E+00 0. -1.
         21   -1    0    0  501  502 -0.00000000000E+00 -0.00000000000E+00 -0.25404599691E+03  0.25404599691E+03  0.00000000000E+00 0. -1.
         25    1    1    2    0    0 -0.98853431516E+02 -0.22725123716E+03  0.10234795487E+03  0.29582973072E+03  0.12500000000E+03 0.  0.
         25    1    1    2    0    0  0.38319672617E+02  0.10166077243E+03 -0.49123147870E+01  0.16568778107E+03  0.12500000000E+03 0.  0.
         25    1    1    2    0    0  0.60533758899E+02  0.12559046474E+03  0.49730481861E+02  0.19374060397E+03  0.12500000000E+03 0.  0.
</event>
<event>
 5    0  0.5641283E-005  0.4849997E+03  0.7546771E-02  0.1017770E+00
         21   -1    0    0  502  501  0.00000000000E+00  0.00000000000E+00  0.22846836226E+03  0.22846836226E+03  0.00000000000E+00 0. -1.
         21   -1    0    0  501  502 -0.00000000000E+00 -0.00000000000E+00 -0.10295725027E+04  0.10295725027E+04  0.00000000000E+00 0. -1.
         25    1    1    2    0    0 -0.10798859690E+02 -0.24797096834E+03 -0.67987625258E+03  0.73448140570E+03  0.12500000000E+03 0.  0.
         25    1    1    2    0    0 -0.53736374955E+02 -0.49277417197E+02 -0.13008487817E+03  0.19458401108E+03  0.12500000000E+03 0.  0.
         25    1    1    2    0    0  0.64535234645E+02  0.29724838553E+03  0.88569903281E+01  0.32897544816E+03  0.12500000000E+03 0.  0.
</event>
<event>
 5    0  0.5641283E-005  0.2238888E+03  0.7546771E-02  0.1131017E+00
         21   -1    0    0  502  501  0.00000000000E+00  0.00000000000E+00  0.61056562471E+02  0.61056562471E+02  0.00000000000E+00 0.  1.
         21   -1    0    0  501  502 -0.00000000000E+00 -0.00000000000E+00 -0.82097982259E+03  0.82097982259E+03  0.00000000000E+00 0.  1.
         25    1    1    2    0    0  0.41666844701E+01  0.86140092504E+02 -0.42657917823E+03  0.45280489407E+03  0.12500000000E+03 0.  0.
         25    1    1    2    0    0 -0.19388498214E+02 -0.20027184312E+02 -0.16421657721E+03  0.20825245786E+03  0.12500000000E+03 0.  0.
         25    1    1    2    0    0  0.15221813744E+02 -0.66112908192E+02 -0.16912750468E+03  0.22097903313E+03  0.12500000000E+03 0.  0.
</event>
<event>
 5    0  0.5641283E-005  0.4192872E+03  0.7546771E-02  0.1037299E+00
         21   -1    0    0  502  501  0.00000000000E+00  0.00000000000E+00  0.43436413576E+03  0.43436413576E+03  0.00000000000E+00 0.  1.
         21   -1    0    0  501  502 -0.00000000000E+00 -0.00000000000E+00 -0.40473357567E+03  0.40473357567E+03  0.00000000000E+00 0.  1.
         25    1    1    2    0    0  0.21204111863E+02 -0.11319315897E+03 -0.10484655300E+02  0.17028574102E+03  0.12500000000E+03 0.  0.
         25    1    1    2    0    0  0.21806009437E+03  0.13306736058E+03 -0.16536026859E+03  0.32897742421E+03  0.12500000000E+03 0.  0.
         25    1    1    2    0    0 -0.23926420624E+03 -0.19874201611E+02  0.20547548397E+03  0.33983454620E+03  0.12500000000E+03 0.  0.
</event>
<event>
 5    0  0.5641283E-005  0.2864599E+03  0.7546771E-02  0.1092212E+00
         21   -1    0    0  502  501  0.00000000000E+00  0.00000000000E+00  0.57276624385E+02  0.57276624385E+02  0.00000000000E+00 0. -1.
         21   -1    0    0  501  502 -0.00000000000E+00 -0.00000000000E+00 -0.14326834701E+04  0.14326834701E+04  0.00000000000E+00 0. -1.
         25    1    1    2    0    0 -0.79517627418E+02 -0.76802998032E+01 -0.88311380149E+02  0.17264396873E+03  0.12500000000E+03 0.  0.
         25    1    1    2    0    0  0.90038814606E+02  0.12980242990E+02 -0.67527941216E+03  0.69275014206E+03  0.12500000000E+03 0.  0.
         25    1    1    2    0    0 -0.10521187188E+02 -0.52999431869E+01 -0.61181605344E+03  0.62456598372E+03  0.12500000000E+03 0.  0.
</event>
<event>
 5    0  0.5641283E-005  0.2390216E+03  0.7546771E-02  0.1120446E+00
         21   -1    0    0  502  501  0.00000000000E+00  0.00000000000E+00  0.24997864354E+02  0.24997864354E+02  0.00000000000E+00 0. -1.
         21   -1    0    0  501  502 -0.00000000000E+00 -0.00000000000E+00 -0.22854490269E+04  0.22854490269E+04  0.00000000000E+00 0. -1.
         25    1    1    2    0    0  0.11801835271E+03 -0.43711371689E+02 -0.12193300454E+04  0.12321646705E+04  0.12500000000E+03 0.  0.
         25    1    1    2    0    0 -0.63146215277E+02  0.30344966421E+02 -0.51260134416E+03  0.53225313482E+03  0.12500000000E+03 0.  0.
         25    1    1    2    0    0 -0.54872137435E+02  0.13366405268E+02 -0.52851977290E+03  0.54602908586E+03  0.12500000000E+03 0.  0.
</event>
<event>
 5    0  0.5641283E-005  0.3052469E+03  0.7546771E-02  0.1082647E+00
         21   -1    0    0  502  501  0.00000000000E+00  0.00000000000E+00  0.40543189169E+03  0.40543189169E+03  0.00000000000E+00 0. -1.
         21   -1    0    0  501  502 -0.00000000000E+00 -0.00000000000E+00 -0.22981835737E+03  0.22981835737E+03  0.00000000000E+00 0. -1.
         25    1    1    2    0    0 -0.27453570139E+02 -0.18890964979E+02  0.58346455519E+02  0.14191503071E+03  0.12500000000E+03 0.  0.
         25    1    1    2    0    0  0.91632694190E+02 -0.16290520534E+03  0.13603236050E+03  0.26280117899E+03  0.12500000000E+03 0.  0.
         25    1    1    2    0    0 -0.64179124051E+02  0.18179617032E+03 -0.18765281708E+02  0.23053403936E+03  0.12500000000E+03 0.  0.
</event>
<event>
 5    0  0.5641283E-005  0.2559343E+03  0.7546771E-02  0.1109611E+00
         21   -1    0    0  502  501  0.00000000000E+00  0.00000000000E+00  0.40919709657E+03  0.40919709657E+03  0.00000000000E+00 0. -1.
         21   -1    0    0  501  502 -0.00000000000E+00 -0.00000000000E+00 -0.16007538320E+03  0.16007538320E+03  0.00000000000E+00 0. -1.
         25    1    1    2    0    0 -0.24246154395E+02 -0.10023482155E+02  0.34566128311E+02  0.13231841680E+03  0.12500000000E+03 0.  0.
         25    1    1    2    0    0 -0.11985345064E+03 -0.48437390951E+02  0.83657783940E+02  0.19832966315E+03  0.12500000000E+03 0.  0.
         25    1    1    2    0    0  0.14409960504E+03  0.58460873106E+02  0.13089780112E+03  0.23862439983E+03  0.12500000000E+03 0.  0.
</event>
<event>
 5    0  0.5667363E-005  0.3233653E+03  0.7546771E-02  0.1074111E+00
         21   -1    0    0  502  501  0.00000000000E+00  0.00000000000E+00  0.47714695879E+03  0.47714695879E+03  0.00000000000E+00 0.  1.
         21   -1    0    0  501  502 -0.00000000000E+00 -0.00000000000E+00 -0.21914656506E+03  0.21914656506E+03  0.00000000000E+00 0.  1.
         25    1    1    2    0    0  0.23425128569E+02  0.13761035556E+02 -0.45719534625E+02  0.13584321328E+03  0.12500000000E+03 0.  0.
         25    1    1    2    0    0 -0.16023314448E+03 -0.14210010911E+02 -0.10967658193E+01  0.20372233038E+03  0.12500000000E+03 0.  0.
         25    1    1    2    0    0  0.13680801591E+03  0.44897535498E+00  0.30481669418E+03  0.35672798019E+03  0.12500000000E+03 0.  0.
</event>
<event>
 5    0  0.5641283E-005  0.3165859E+03  0.7546771E-02  0.1077231E+00
         21   -1    0    0  502  501  0.00000000000E+00  0.00000000000E+00  0.58583159082E+03  0.58583159082E+03  0.00000000000E+00 0. -1.
         21   -1    0    0  501  502 -0.00000000000E+00 -0.00000000000E+00 -0.17108437733E+03  0.17108437733E+03  0.00000000000E+00 0. -1.
         25    1    1    2    0    0  0.22918222140E+02  0.15865877816E+03  0.13847662395E+02  0.20375134489E+03  0.12500000000E+03 0.  0.
         25    1    1    2    0    0 -0.67197039765E+02 -0.11335324301E+03  0.36624184356E+03  0.40880617391E+03  0.12500000000E+03 0.  0.
         25    1    1    2    0    0  0.44278817624E+02 -0.45305535148E+02  0.34657707528E+02  0.14435844934E+03  0.12500000000E+03 0.  0.
</event>
<event>
 5    0  0.5641283E-005  0.3226816E+03  0.7546771E-02  0.1074422E+00
         21   -1    0    0  502  501  0.00000000000E+00  0.00000000000E+00  0.31216283377E+03  0.31216283377E+03  0.00000000000E+00 0.  1.
         21   -1    0    0  501  502 -0.00000000000E+00 -0.00000000000E+00 -0.33355475028E+03  0.33355475028E+03  0.00000000000E+00 0.  1.
         25    1    1    2    0    0  0.18313283126E+03  0.24936375781E+02  0.48256143236E+02  0.22828296494E+03  0.12500000000E+03 0.  0.
         25    1    1    2    0    0 -0.89370338095E+02 -0.20371572021E+02 -0.17125756018E+03  0.23098963222E+03  0.12500000000E+03 0.  0.
         25    1    1    2    0    0 -0.93762493165E+02 -0.45648037601E+01  0.10160950043E+03  0.18644498689E+03  0.12500000000E+03 0.  0.
</event>
<event>
 5    0  0.5641283E-005  0.2979582E+03  0.7546771E-02  0.1086266E+00
         21   -1    0    0  502  501  0.00000000000E+00  0.00000000000E+00  0.14234168218E+04  0.14234168218E+04  0.00000000000E+00 0.  1.
         21   -1    0    0  501  502 -0.00000000000E+00 -0.00000000000E+00 -0.62370399888E+02  0.62370399888E+02  0.00000000000E+00 0.  1.
         25    1    1    2    0    0  0.14167600724E+03  0.91021608470E+01  0.71206051893E+03  0.73675648825E+03  0.12500000000E+03 0.  0.
         25    1    1    2    0    0 -0.16555796316E+03 -0.32792018432E+02  0.23450067601E+03  0.31480203730E+03  0.12500000000E+03 0.  0.
         25    1    1    2    0    0  0.23881955925E+02  0.23689857585E+02  0.41448522693E+03  0.43422869610E+03  0.12500000000E+03 0.  0.
</event>
<event>
 5    0  0.5641283E-005  0.2809798E+03  0.7546771E-02  0.1095155E+00
         21   -1    0    0  502  501  0.00000000000E+00  0.00000000000E+00  0.31975654272E+02  0.31975654272E+02  0.00000000000E+00 0.  1.
         21   -1    0    0  501  502 -0.00000000000E+00 -0.00000000000E+00 -0.24690548637E+04  0.24690548637E+04  0.00000000000E+00 0.  1.
         25    1    1    2    0    0  0.11934305637E+03  0.26360403734E+02 -0.39516672385E+03  0.43211037436E+03  0.12500000000E+03 0.  0.
         25    1    1    2    0    0 -0.15000401706E+03 -0.49049846839E+02 -0.11513747670E+04  0.11688438504E+04  0.12500000000E+03 0.  0.
         25    1    1    2    0    0  0.30660960687E+02  0.22689443105E+02 -0.89053771857E+03  0.90007629317E+03  0.12500000000E+03 0.  0.
</event>
<event>
 5    0  0.6107789E-005  0.3066804E+03  0.7546771E-02  0.1081948E+00
         21   -1    0    0  502  501  0.00000000000E+00  0.00000000000E+00  0.26943613027E+03  0.26943613027E+03  0.00000000000E+00 0. -1.
         21   -1    0    0  501  502 -0.00000000000E+00 -0.00000000000E+00 -0.34907295492E+03  0.34907295492E+03  0.00000000000E+00 0. -1.
         25    1    1    2    0    0 -0.28992139173E+02 -0.51301891752E+02 -0.20507699392E+03  0.24729335144E+03  0.12500000000E+03 0.  0.
         25    1    1    2    0    0 -0.10001341905E+03  0.25277632033E+02  0.92923886633E+02  0.18681940846E+03  0.12500000000E+03 0.  0.
         25    1    1    2    0    0  0.12900555822E+03  0.26024259719E+02  0.32516282631E+02  0.18439632530E+03  0.12500000000E+03 0.  0.
</event>
<event>
 5    0  0.5641283E-005  0.4053197E+03  0.7546771E-02  0.1041953E+00
         21   -1    0    0  502  501  0.00000000000E+00  0.00000000000E+00  0.26048942415E+03  0.26048942415E+03  0.00000000000E+00 0.  1.
         21   -1    0    0  501  502 -0.00000000000E+00 -0.00000000000E+00 -0.63067446982E+03  0.63067446982E+03  0.00000000000E+00 0. -1.
         25    1    1    2    0    0  0.25597828397E+03  0.67999829927E+02  0.58664787387E+02  0.29868949766E+03  0.12500000000E+03 0.  0.
         25    1    1    2    0    0 -0.33044301523E+02  0.26103536466E+02 -0.10025416951E+03  0.16567805824E+03  0.12500000000E+03 0.  0.
         25    1    1    2    0    0 -0.22293398244E+03 -0.94103366393E+02 -0.32859566355E+03  0.42679633808E+03  0.12500000000E+03 0.  0.
</event>
<event>
 5    0  0.5641283E-005  0.2758652E+03  0.7546771E-02  0.1097969E+00
         21   -1    0    0  502  501  0.00000000000E+00  0.00000000000E+00  0.31013174240E+03  0.31013174240E+03  0.00000000000E+00 0. -1.
         21   -1    0    0  501  502 -0.00000000000E+00 -0.00000000000E+00 -0.24538482488E+03  0.24538482488E+03  0.00000000000E+00 0. -1.
         25    1    1    2    0    0 -0.15345173218E+02 -0.14742190786E+03  0.14862171824E+02  0.19445970639E+03  0.12500000000E+03 0.  0.
         25    1    1    2    0    0 -0.60179041209E+01  0.35589913122E+02 -0.75621259930E+02  0.15048731521E+03  0.12500000000E+03 0.  0.
         25    1    1    2    0    0  0.21363077339E+02  0.11183199473E+03  0.12550600563E+03  0.21056954568E+03  0.12500000000E+03 0.  0.
</event>
<event>
 5    0  0.5641283E-005  0.3451958E+03  0.7546771E-02  0.1064604E+00
         21   -1    0    0  502  501  0.00000000000E+00  0.00000000000E+00  0.37121417221E+03  0.37121417221E+03  0.00000000000E+00 0.  1.
         21   -1    0    0  501  502 -0.00000000000E+00 -0.00000000000E+00 -0.32100106605E+03  0.32100106605E+03  0.00000000000E+00 0.  1.
         25    1    1    2    0    0 -0.72597380066E+01  0.17913686042E+02 -0.20702104473E+03  0.24260320877E+03  0.12500000000E+03 0.  0.
         25    1    1    2    0    0  0.79757618819E+02  0.25677437355E+02  0.25799553867E+03  0.29867592223E+03  0.12500000000E+03 0.  0.
         25    1    1    2    0    0 -0.72497880812E+02 -0.43591123398E+02 -0.76138777490E+00  0.15093610725E+03  0.12500000000E+03 0.  0.
</event>
<event>
 5    0  0.5641283E-005  0.3473654E+03  0.7546771E-02  0.1063702E+00
         21   -1    0    0  502  501  0.00000000000E+00  0.00000000000E+00  0.16657522813E+04  0.16657522813E+04  0.00000000000E+00 0. -1.
         21   -1    0    0  501  502 -0.00000000000E+00 -0.00000000000E+00 -0.72437364018E+02  0.72437364018E+02  0.00000000000E+00 0. -1.
         25    1    1    2    0    0 -0.10126764838E+03  0.68596331868E+02  0.59722363597E+03  0.62230351494E+03  0.12500000000E+03 0.  0.
         25    1    1    2    0    0 -0.10375510730E+03  0.54421341583E+02  0.67543269167E+03  0.69682216217E+03  0.12500000000E+03 0.  0.
         25    1    1    2    0    0  0.20502275568E+03 -0.12301767345E+03  0.32065858961E+03  0.41906396817E+03  0.12500000000E+03 0.  0.
</event>
<event>
 5    0  0.6301703E-005  0.4606752E+03  0.7546771E-02  0.1024586E+00
         21   -1    0    0  502  501  0.00000000000E+00  0.00000000000E+00  0.16985904617E+03  0.16985904617E+03  0.00000000000E+00 0.  1.
         21   -1    0    0  501  502 -0.00000000000E+00 -0.00000000000E+00 -0.12493987765E+04  0.12493987765E+04  0.00000000000E+00 0.  1.
         25    1    1    2    0    0  0.97484443080E+02  0.13934022468E+03 -0.35012534110E+01  0.21108333338E+03  0.12500000000E+03 0.  0.
         25    1    1    2    0    0 -0.18768847698E+03 -0.26682339424E+03 -0.68561783703E+03  0.76949236940E+03  0.12500000000E+03 0.  0.
         25    1    1    2    0    0  0.90204033896E+02  0.12748316956E+03 -0.39042063985E+03  0.43868211985E+03  0.12500000000E+03 0.  0.
</event>
<event>
 5    0  0.5641283E-005  0.2926288E+03  0.7546771E-02  0.1088985E+00
         21   -1    0    0  502  501  0.00000000000E+00  0.00000000000E+00  0.12469531057E+04  0.12469531057E+04  0.00000000000E+00 0.  1.
         21   -1    0    0  501  502 -0.00000000000E+00 -0.00000000000E+00 -0.68672686701E+02  0.68672686701E+02  0.00000000000E+00 0.  1.
         25    1    1    2    0    0 -0.89463344028E+02  0.27187764790E+01  0.11886200107E+03  0.19433027806E+03  0.12500000000E+03 0.  0.
         25    1    1    2    0    0  0.16378180301E+03 -0.15687411990E+02  0.76852989065E+03  0.79582269804E+03  0.12500000000E+03 0.  0.
         25    1    1    2    0    0 -0.74318458982E+02  0.12968635511E+02  0.29088852727E+03  0.32547281630E+03  0.12500000000E+03 0.  0.
</event>
<event>
 5    0  0.5641283E-005  0.3264331E+03  0.7546771E-02  0.1072726E+00
         21   -1    0    0  502  501  0.00000000000E+00  0.00000000000E+00  0.41816094316E+03  0.41816094316E+03  0.00000000000E+00 0. -1.
         21   -1    0    0  501  502 -0.00000000000E+00 -0.00000000000E+00 -0.25482662204E+03  0.25482662204E+03  0.00000000000E+00 0. -1.
         25    1    1    2    0    0  0.19878791890E+03 -0.15829155945E+02  0.21475187654E+03  0.31860723054E+03  0.12500000000E+03 0.  0.
         25    1    1    2    0    0 -0.11816546786E+03 -0.61809426494E+02 -0.23458940667E+02  0.18427914938E+03  0.12500000000E+03 0.  0.
         25    1    1    2    0    0 -0.80622451040E+02  0.77638582440E+02 -0.27958614758E+02  0.17010118528E+03  0.12500000000E+03 0.  0.
</event>
<event>
 5    0  0.5641283E-005  0.5338355E+03  0.7546771E-02  0.1005306E+00
         21   -1    0    0  502  501  0.00000000000E+00  0.00000000000E+00  0.25936915570E+03  0.25936915570E+03  0.00000000000E+00 0.  1.
         21   -1    0    0  501  502 -0.00000000000E+00 -0.00000000000E+00 -0.10987442973E+04  0.10987442973E+04  0.00000000000E+00 0.  1.
         25    1    1    2    0    0 -0.21259845236E+03  0.19192241119E+03 -0.50779604928E+03  0.59625006627E+03  0.12500000000E+03 0.  0.
         25    1    1    2    0    0 -0.15714703814E+03  0.72427786340E+02 -0.83908680784E+02  0.22936137979E+03  0.12500000000E+03 0.  0.
         25    1    1    2    0    0  0.36974549050E+03 -0.26435019753E+03 -0.24767041159E+03  0.53250200699E+03  0.12500000000E+03 0.  0.
</event>
<event>
 5    0  0.5641283E-005  0.2587721E+03  0.7546771E-02  0.1107883E+00
         21   -1    0    0  502  501  0.00000000000E+00  0.00000000000E+00  0.17440240617E+03  0.17440240617E+03  0.00000000000E+00 0. -1.
         21   -1    0    0  501  502 -0.00000000000E+00 -0.00000000000E+00 -0.38395675709E+03  0.38395675709E+03  0.00000000000E+00 0. -1.
         25    1    1    2    0    0 -0.14253606817E+03 -0.44061554083E+02 -0.42556841769E+02  0.19923362181E+03  0.12500000000E+03 0.  0.
         25    1    1    2    0    0  0.11180087687E+03  0.59990399588E+02 -0.51386521449E+02  0.18537491388E+03  0.12500000000E+03 0.  0.
         25    1    1    2    0    0  0.30735191308E+02 -0.15928845505E+02 -0.11561098769E+03  0.17375062757E+03  0.12500000000E+03 0.  0.
</event>
<event>
 5    0  0.5641283E-005  0.3421171E+03  0.7546771E-02  0.1065898E+00
         21   -1    0    0  502  501  0.00000000000E+00  0.00000000000E+00  0.69824184532E+02  0.69824184532E+02  0.00000000000E+00 0.  1.
         21   -1    0    0  501  502 -0.00000000000E+00 -0.00000000000E+00 -0.16762690605E+04  0.16762690605E+04  0.00000000000E+00 0.  1.
         25    1    1    2    0    0  0.86040491240E+01 -0.12304103668E+03 -0.23687476227E+03  0.29486908852E+03  0.12500000000E+03 0.  0.
         25    1    1    2    0    0 -0.19053651094E+03  0.23561702288E+01 -0.68277971955E+03  0.71980751522E+03  0.12500000000E+03 0.  0.
         25    1    1    2    0    0  0.18193246182E+03  0.12068486645E+03 -0.68679039416E+03  0.73141664129E+03  0.12500000000E+03 0.  0.
</event>
<event>
 5    0  0.5641283E-005  0.2495682E+03  0.7546771E-02  0.1113578E+00
         21   -1    0    0  502  501  0.00000000000E+00  0.00000000000E+00  0.30962585551E+03  0.30962585551E+03  0.00000000000E+00 0.  1.
         21   -1    0    0  501  502 -0.00000000000E+00 -0.00000000000E+00 -0.20115985469E+03  0.20115985469E+03  0.00000000000E+00 0.  1.
         25    1    1    2    0    0 -0.46736102579E+02 -0.23439398665E+02  0.67159537050E+01  0.13566050541E+03  0.12500000000E+03 0.  0.
         25    1    1    2    0    0 -0.39708963073E+02  0.57086506283E+02 -0.55901656931E+02  0.15357625531E+03  0.12500000000E+03 0.  0.
         25    1    1    2    0    0  0.86445065652E+02 -0.33647107618E+02  0.15765170405E+03  0.22154894948E+03  0.12500000000E+03 0.  0.
</event>
<event>
 5    0  0.5641283E-005  0.2736357E+03  0.7546771E-02  0.1099217E+00
         21   -1    0    0  502  501  0.00000000000E+00  0.00000000000E+00  0.21254878275E+03  0.21254878275E+03  0.00000000000E+00 0. -1.
         21   -1    0    0  501  502 -0.00000000000E+00 -0.00000000000E+00 -0.35227911985E+03  0.35227911985E+03  0.00000000000E+00 0. -1.
         25    1    1    2    0    0  0.27709678162E+02  0.63280985106E+02 -0.14734362664E+03  0.20520100792E+03  0.12500000000E+03 0.  0.
         25    1    1    2    0    0 -0.41387951851E+02 -0.13256641255E+03 -0.66155763867E+02  0.19821302023E+03  0.12500000000E+03 0.  0.
         25    1    1    2    0    0  0.13678273689E+02  0.69285427442E+02  0.73769053411E+02  0.16141387446E+03  0.12500000000E+03 0.  0.
</event>
<event>
 5    0  0.5641283E-005  0.5419421E+03  0.7546771E-02  0.1003376E+00
         21   -1    0    0  502  501  0.00000000000E+00  0.00000000000E+00  0.42855213851E+03  0.42855213851E+03  0.00000000000E+00 0. -1.
         21   -1    0    0  501  502 -0.00000000000E+00 -0.00000000000E+00 -0.68533379037E+03  0.68533379037E+03  0.00000000000E+00 0. -1.
         25    1    1    2    0    0 -0.12345595642E+03  0.22092045298E+02  0.96201881160E+02  0.20151732824E+03  0.12500000000E+03 0.  0.
         25    1    1    2    0    0 -0.31915676760E+02 -0.39341735557E+03 -0.12143562260E+03  0.43147124646E+03  0.12500000000E+03 0.  0.
         25    1    1    2    0    0  0.15537163318E+03  0.37132531027E+03 -0.23154791042E+03  0.48089735419E+03  0.12500000000E+03 0.  0.
</event>
<event>
 5    0  0.5641283E-005  0.2617990E+03  0.7546771E-02  0.1106067E+00
         21   -1    0    0  502  501  0.00000000000E+00  0.00000000000E+00  0.20936866773E+04  0.20936866773E+04  0.00000000000E+00 0.  1.
         21   -1    0    0  501  502 -0.00000000000E+00 -0.00000000000E+00 -0.32735891148E+02  0.32735891148E+02  0.00000000000E+00 0.  1.
         25    1    1    2    0    0 -0.85662028566E+02 -0.61545367132E+02  0.48906283920E+03  0.51568718817E+03  0.12500000000E+03 0.  0.
         25    1    1    2    0    0 -0.30254739206E+02  0.19098888882E+02  0.30264658171E+03  0.32939348843E+03  0.12500000000E+03 0.  0.
         25    1    1    2    0    0  0.11591676777E+03  0.42446478249E+02  0.12692413653E+04  0.12813418919E+04  0.12500000000E+03 0.  0.
</event>
<event>
 5    0  0.5641283E-005  0.2616485E+03  0.7546771E-02  0.1106157E+00
         21   -1    0    0  502  501  0.00000000000E+00  0.00000000000E+00  0.37825636607E+03  0.37825636607E+03  0.00000000000E+00 0.  1.
         21   -1    0    0  501  502 -0.00000000000E+00 -0.00000000000E+00 -0.18098821691E+03  0.18098821691E+03  0.00000000000E+00 0.  1.
         25    1    1    2    0    0 -0.80093240485E+02 -0.53840971366E+02  0.81628215644E+02  0.17776935326E+03  0.12500000000E+03 0.  0.
         25    1    1    2    0    0 -0.51947894865E+02 -0.60993165422E+02  0.48056119993E+02  0.15605492840E+03  0.12500000000E+03 0.  0.
         25    1    1    2    0    0  0.13204113535E+03  0.11483413679E+03  0.67583813524E+02  0.22542030132E+03  0.12500000000E+03 0.  0.
</event>
<event>
 5    0  0.5641283E-005  0.2571152E+03  0.7546771E-02  0.1108889E+00
         21   -1    0    0  502  501  0.00000000000E+00  0.00000000000E+00  0.71387075587E+03  0.71387075587E+03  0.00000000000E+00 0.  1.
         21   -1    0    0  501  502 -0.00000000000E+00 -0.00000000000E+00 -0.92605294947E+02  0.92605294947E+02  0.00000000000E+00 0.  1.
         25    1    1    2    0    0 -0.19845749215E+01 -0.12585484955E+03  0.12836786072E+03  0.21896732486E+03  0.12500000000E+03 0.  0.
         25    1    1    2    0    0 -0.69588876536E+02  0.61111946000E+02  0.30234693850E+03  0.34002345934E+03  0.12500000000E+03 0.  0.
         25    1    1    2    0    0  0.71573451457E+02  0.64742903551E+02  0.19055066170E+03  0.24748526661E+03  0.12500000000E+03 0.  0.
</event>
<event>
 5    0  0.5641283E-005  0.2085310E+03  0.7546771E-02  0.1142735E+00
         21   -1    0    0  502  501  0.00000000000E+00  0.00000000000E+00  0.84376692166E+02  0.84376692166E+02  0.00000000000E+00 0.  1.
         21   -1    0    0  501  502 -0.00000000000E+00 -0.00000000000E+00 -0.51536940328E+03  0.51536940328E+03  0.00000000000E+00 0.  1.
         25    1    1    2    0    0 -0.34772081845E+02 -0.92438048170E+01 -0.25299488552E+03  0.28447488062E+03  0.12500000000E+03 0.  0.
         25    1    1    2    0    0  0.22598776699E+02 -0.24350104631E+02 -0.10165642326E+03  0.16450732717E+03  0.12500000000E+03 0.  0.
         25    1    1    2    0    0  0.12173305146E+02  0.33593909448E+02 -0.76341402330E+02  0.15076388765E+03  0.12500000000E+03 0.  0.
</event>
<event>
 5    0  0.8420456E-005  0.2778037E+03  0.7546771E-02  0.1096895E+00
         21   -1    0    0  502  501  0.00000000000E+00  0.00000000000E+00  0.32633750420E+03  0.32633750420E+03  0.00000000000E+00 0. -1.
         21   -1    0    0  501  502 -0.00000000000E+00 -0.00000000000E+00 -0.23648790294E+03  0.23648790294E+03  0.00000000000E+00 0. -1.
         25    1    1    2    0    0 -0.12329453978E+03  0.11795750105E+03  0.46726871055E+02  0.21661928832E+03  0.12500000000E+03 0.  0.
         25    1    1    2    0    0  0.70350992589E+02 -0.71172483642E+02  0.10326383441E+03  0.19053399718E+03  0.12500000000E+03 0.  0.
         25    1    1    2    0    0  0.52943547187E+02 -0.46785017410E+02 -0.60141104199E+02  0.15567212164E+03  0.12500000000E+03 0.  0.
</event>
<event>
 5    0  0.5641283E-005  0.2530563E+03  0.7546771E-02  0.1111388E+00
         21   -1    0    0  502  501  0.00000000000E+00  0.00000000000E+00  0.32109792869E+03  0.32109792869E+03  0.00000000000E+00 0. -1.
         21   -1    0    0  501  502 -0.00000000000E+00 -0.00000000000E+00 -0.19943290767E+03  0.19943290767E+03  0.00000000000E+00 0. -1.
         25    1    1    2    0    0  0.27644841092E+02 -0.15239672951E+03  0.36616975458E+02  0.20237293123E+03  0.12500000000E+03 0.  0.
         25    1    1    2    0    0 -0.33264654284E+02  0.43396427540E+02  0.12369807959E+02  0.13699561780E+03  0.12500000000E+03 0.  0.
         25    1    1    2    0    0  0.56198131922E+01  0.10900030197E+03  0.72678237603E+02  0.18116228733E+03  0.12500000000E+03 0.  0.
</event>
<event>
 5    0  0.5641283E-005  0.3670103E+03  0.7546771E-02  0.1055842E+00
         21   -1    0    0  502  501  0.00000000000E+00  0.00000000000E+00  0.50805408580E+03  0.50805408580E+03  0.00000000000E+00 0.  1.
         21   -1    0    0  501  502 -0.00000000000E+00 -0.00000000000E+00 -0.26512250844E+03  0.26512250844E+03  0.00000000000E+00 0.  1.
         25    1    1    2    0    0  0.84659360497E+01  0.98144288103E+02  0.21817445277E+02  0.16063926755E+03  0.12500000000E+03 0.  0.
         25    1    1    2    0    0 -0.13074845915E+03  0.21688598621E+02 -0.11479328961E+03  0.21533242724E+03  0.12500000000E+03 0.  0.
         25    1    1    2    0    0  0.12228252310E+03 -0.11983288672E+03  0.33590742170E+03  0.39720489945E+03  0.12500000000E+03 0.  0.
</event>
<event>
 5    0  0.5641283E-005  0.3478033E+03  0.7546771E-02  0.1063520E+00
         21   -1    0    0  502  501  0.00000000000E+00  0.00000000000E+00  0.13073037798E+04  0.13073037798E+04  0.00000000000E+00 0.  1.
         21   -1    0    0  501  502 -0.00000000000E+00 -0.00000000000E+00 -0.92531795105E+02  0.92531795105E+02  0.00000000000E+00 0.  1.
         25    1    1    2    0    0 -0.14880646724E+03 -0.13342144836E+03  0.21572259669E+03  0.31954011688E+03  0.12500000000E+03 0.  0.
         25    1    1    2    0    0  0.84922512450E+00  0.17202374122E+03  0.55311008968E+03  0.59257797802E+03  0.12500000000E+03 0.  0.
         25    1    1    2    0    0  0.14795724212E+03 -0.38602292862E+02  0.44593929834E+03  0.48771748002E+03  0.12500000000E+03 0.  0.
</event>
<event>
 5    0  0.5641283E-005  0.2178365E+03  0.7546771E-02  0.1135506E+00
         21   -1    0    0  502  501  0.00000000000E+00  0.00000000000E+00  0.76412290423E+03  0.76412290423E+03  0.00000000000E+00 0.  1.
         21   -1    0    0  501  502 -0.00000000000E+00 -0.00000000000E+00 -0.62100934005E+02  0.62100934005E+02  0.00000000000E+00 0.  1.
         25    1    1    2    0    0  0.21968524246E+02  0.94707060052E+01  0.25353559737E+03  0.28368575830E+03  0.12500000000E+03 0.  0.
         25    1    1    2    0    0 -0.69978670951E+02  0.10983545891E+01  0.34310918099E+03  0.37181599058E+03  0.12500000000E+03 0.  0.
         25    1    1    2    0    0  0.48010146704E+02 -0.10569060594E+02  0.10537719187E+03  0.17072208936E+03  0.12500000000E+03 0.  0.
</event>
<event>
 5    0  0.5641283E-005  0.4892967E+03  0.7546771E-02  0.1016611E+00
         21   -1    0    0  502  501  0.00000000000E+00  0.00000000000E+00  0.48265066857E+03  0.48265066857E+03  0.00000000000E+00 0.  1.
         21   -1    0    0  501  502 -0.00000000000E+00 -0.00000000000E+00 -0.49603423577E+03  0.49603423577E+03  0.00000000000E+00 0. -1.
         25    1    1    2    0    0 -0.20692241042E+03  0.90907825572E+02 -0.16255558079E+02  0.25878632084E+03  0.12500000000E+03 0.  0.
         25    1    1    2    0    0 -0.22397803545E+03 -0.56756545636E+02  0.50193176822E+02  0.26745433412E+03  0.12500000000E+03 0.  0.
         25    1    1    2    0    0  0.43090044587E+03 -0.34151279936E+02 -0.47321185944E+02  0.45244424940E+03  0.12500000000E+03 0.  0.
</event>
<event>
 5    0  0.5641283E-005  0.3163816E+03  0.7546771E-02  0.1077327E+00
         21   -1    0    0  502  501  0.00000000000E+00  0.00000000000E+00  0.16443986410E+03  0.16443986410E+03  0.00000000000E+00 0.  1.
         21   -1    0    0  501  502 -0.00000000000E+00 -0.00000000000E+00 -0.60871675656E+03  0.60871675656E+03  0.00000000000E+00 0.  1.
         25    1    1    2    0    0 -0.15582472639E+03  0.91499146212E+02 -0.42180540708E+02  0.22373564116E+03  0.12500000000E+03 0.  0.
         25    1    1    2    0    0  0.14430346428E+03 -0.18131571313E+02 -0.34198863202E+03  0.39208859727E+03  0.12500000000E+03 0.  0.
         25    1    1    2    0    0  0.11521262112E+02 -0.73367574899E+02 -0.60107719736E+02  0.15733238223E+03  0.12500000000E+03 0.  0.
</event>
<event>
 5    0  0.5641283E-005  0.3256109E+03  0.7546771E-02  0.1073096E+00
         21   -1    0    0  502  501  0.00000000000E+00  0.00000000000E+00  0.40073420680E+03  0.40073420680E+03  0.00000000000E+00 0. -1.
         21   -1    0    0  501  502 -0.00000000000E+00 -0.00000000000E+00 -0.26457053320E+03  0.26457053320E+03  0.00000000000E+00 0. -1.
         25    1    1    2    0    0  0.13483383645E+03  0.20031279657E+02  0.44981804122E+00  0.18495031212E+03  0.12500000000E+03 0.  0.
         25    1    1    2    0    0 -0.18631872487E+03 -0.15076119683E+03  0.55749815551E+02  0.27600117326E+03  0.12500000000E+03 0.  0.
         25    1    1    2    0    0  0.51484888425E+02  0.13072991717E+03  0.79964040002E+02  0.20435325462E+03  0.12500000000E+03 0.  0.
</event>
<event>
 5    0  0.5641283E-005  0.2662197E+03  0.7546771E-02  0.1103463E+00
         21   -1    0    0  502  501  0.00000000000E+00  0.00000000000E+00  0.15360447639E+04  0.15360447639E+04  0.00000000000E+00 0. -1.
         21   -1    0    0  501  502 -0.00000000000E+00 -0.00000000000E+00 -0.46139881598E+02  0.46139881598E+02  0.00000000000E+00 0. -1.
         25    1    1    2    0    0 -0.10342191293E+03  0.21290727829E+02  0.35013700535E+03  0.38648455297E+03  0.12500000000E+03 0.  0.
         25    1    1    2    0    0  0.11688891842E+02  0.76222822995E+02  0.76009405153E+03  0.77415406484E+03  0.12500000000E+03 0.  0.
         25    1    1    2    0    0  0.91733021092E+02 -0.97513550825E+02  0.37967382545E+03  0.42154602772E+03  0.12500000000E+03 0.  0.
</event>
<event>
 5    0  0.5641283E-005  0.2727046E+03  0.7546771E-02  0.1099742E+00
         21   -1    0    0  502  501  0.00000000000E+00  0.00000000000E+00  0.30517781838E+03  0.30517781838E+03  0.00000000000E+00 0.  1.
         21   -1    0    0  501  502 -0.00000000000E+00 -0.00000000000E+00 -0.24368685274E+03  0.24368685274E+03  0.00000000000E+00 0.  1.
         25    1    1    2    0    0 -0.10487281713E+03 -0.12888866173E+02  0.11443065892E+03  0.19970930460E+03  0.12500000000E+03 0.  0.
         25    1    1    2    0    0  0.88849059688E+02  0.52530095290E+02  0.62477086839E+02  0.17372953893E+03  0.12500000000E+03 0.  0.
         25    1    1    2    0    0  0.16023757445E+02 -0.39641229117E+02 -0.11541678012E+03  0.17542582758E+03  0.12500000000E+03 0.  0.
</event>
<event>
 5    0  0.5641283E-005  0.3310457E+03  0.7546771E-02  0.1070675E+00
         21   -1    0    0  502  501  0.00000000000E+00  0.00000000000E+00  0.29123745245E+03  0.29123745245E+03  0.00000000000E+00 0. -1.
         21   -1    0    0  501  502 -0.00000000000E+00 -0.00000000000E+00 -0.37629530058E+03  0.37629530058E+03  0.00000000000E+00 0. -1.
         25    1    1    2    0    0  0.19396667037E+03  0.14163454961E+03 -0.75843355755E+02  0.28117722076E+03  0.12500000000E+03 0.  0.
         25    1    1    2    0    0 -0.15898854136E+03 -0.31029813151E+02 -0.50805052242E+02  0.21082305121E+03  0.12500000000E+03 0.  0.
         25    1    1    2    0    0 -0.34978129012E+02 -0.11060473646E+03  0.41590559866E+02  0.17553248106E+03  0.12500000000E+03 0.  0.
</event>
<event>
 5    0  0.5641283E-005  0.2909580E+03  0.7546771E-02  0.1089850E+00
         21   -1    0    0  502  501  0.00000000000E+00  0.00000000000E+00  0.10997267442E+04  0.10997267442E+04  0.00000000000E+00 0.  1.
         21   -1    0    0  501  502 -0.00000000000E+00 -0.00000000000E+00 -0.76979639240E+02  0.76979639240E+02  0.00000000000E+00 0.  1.
         25    1    1    2    0    0  0.48075508191E+02  0.10232196183E+03  0.42863950983E+03  0.46058426781E+03  0.12500000000E+03 0.  0.
         25    1    1    2    0    0 -0.85327890608E+02 -0.88054029728E+02  0.55077947668E+03  0.57794237862E+03  0.12500000000E+03 0.  0.
         25    1    1    2    0    0  0.37252382417E+02 -0.14267932100E+02  0.43328118485E+02  0.13817973706E+03  0.12500000000E+03 0.  0.
</event>
<event>
 5    0  0.5641283E-005  0.2417572E+03  0.7546771E-02  0.1118628E+00
         21   -1    0    0  502  501  0.00000000000E+00  0.00000000000E+00  0.17235262495E+03  0.17235262495E+03  0.00000000000E+00 0.  1.
         21   -1    0    0  501  502 -0.00000000000E+00 -0.00000000000E+00 -0.33911034462E+03  0.33911034462E+03  0.00000000000E+00 0.  1.
         25    1    1    2    0    0 -0.41448144445E+02 -0.25643225829E+02 -0.65524956237E+02  0.14931190039E+03  0.12500000000E+03 0.  0.
         25    1    1    2    0    0 -0.18945185859E+02 -0.59096880368E+02 -0.13706113444E+03  0.19560704463E+03  0.12500000000E+03 0.  0.
         25    1    1    2    0    0  0.60393330304E+02  0.84740106196E+02  0.35828371010E+02  0.16654402455E+03  0.12500000000E+03 0.  0.
</event>
<event>
 5    0  0.5641283E-005  0.4518423E+03  0.7546771E-02  0.1027174E+00
         21   -1    0    0  502  501  0.00000000000E+00  0.00000000000E+00  0.48844851378E+03  0.48844851378E+03  0.00000000000E+00 0.  1.
         21   -1    0    0  501  502 -0.00000000000E+00 -0.00000000000E+00 -0.41797949351E+03  0.41797949351E+03  0.00000000000E+00 0.  1.
         25    1    1    2    0    0 -0.50823337234E+02 -0.11648330950E+03 -0.32698675687E+03  0.37242007487E+03  0.12500000000E+03 0.  0.
         25    1    1    2    0    0 -0.11877076170E+02 -0.53489987806E+02  0.15660107561E+03  0.20772852625E+03  0.12500000000E+03 0.  0.
         25    1    1    2    0    0  0.62700413403E+02  0.16997329730E+03  0.24085470153E+03  0.32627940616E+03  0.12500000000E+03 0.  0.
</event>
<event>
 5    0  0.5641283E-005  0.2971114E+03  0.7546771E-02  0.1086694E+00
         21   -1    0    0  502  501  0.00000000000E+00  0.00000000000E+00  0.26788784689E+03  0.26788784689E+03  0.00000000000E+00 0.  1.
         21   -1    0    0  501  502 -0.00000000000E+00 -0.00000000000E+00 -0.32952300668E+03  0.32952300668E+03  0.00000000000E+00 0.  1.
         25    1    1    2    0    0  0.10705199863E+03 -0.78259019439E+02  0.20969051302E+02  0.18343747067E+03  0.12500000000E+03 0.  0.
         25    1    1    2    0    0  0.78414603022E+02 -0.35019259920E+02 -0.56777798846E+02  0.16193800349E+03  0.12500000000E+03 0.  0.
         25    1    1    2    0    0 -0.18546660165E+03  0.11327827936E+03 -0.25826412247E+02  0.25203537940E+03  0.12500000000E+03 0.  0.
</event>
<event>
 5    0  0.5641283E-005  0.2239583E+03  0.7546771E-02  0.1130966E+00
         21   -1    0    0  502  501  0.00000000000E+00  0.00000000000E+00  0.15690653682E+04  0.15690653682E+04  0.00000000000E+00 0. -1.
         21   -1    0    0  501  502 -0.00000000000E+00 -0.00000000000E+00 -0.31966353210E+02  0.31966353210E+02  0.00000000000E+00 0. -1.
         25    1    1    2    0    0 -0.20121158941E+02  0.22233387207E+02  0.41555042235E+03  0.43497854897E+03  0.12500000000E+03 0.  0.
         25    1    1    2    0    0  0.91416784669E+02 -0.65409848861E+02  0.63134080980E+03  0.65333888218E+03  0.12500000000E+03 0.  0.
         25    1    1    2    0    0 -0.71295625728E+02  0.43176461654E+02  0.49020778285E+03  0.51271429028E+03  0.12500000000E+03 0.  0.
</event>
<event>
 5    0  0.5677184E-005  0.3084700E+03  0.7546771E-02  0.1081082E+00
         21   -1    0    0  502  501  0.00000000000E+00  0.00000000000E+00  0.14729768071E+03  0.14729768071E+03  0.00000000000E+00 0.  1.
         21   -1    0    0  501  502 -0.00000000000E+00 -0.00000000000E+00 -0.64599610973E+03  0.64599610973E+03  0.00000000000E+00 0.  1.
         25    1    1    2    0    0 -0.82198197192E+02 -0.64272801103E+02 -0.77539309201E+02  0.18034655820E+03  0.12500000000E+03 0.  0.
         25    1    1    2    0    0 -0.95042031879E+02  0.11265424078E+03 -0.87694221776E+02  0.21222450924E+03  0.12500000000E+03 0.  0.
         25    1    1    2    0    0  0.17724022907E+03 -0.48381439676E+02 -0.33346489804E+03  0.40072272300E+03  0.12500000000E+03 0.  0.
</event>
<event>
 5    0  0.5641283E-005  0.3173343E+03  0.7546771E-02  0.1076883E+00
         21   -1    0    0  502  501  0.00000000000E+00  0.00000000000E+00  0.90301011460E+02  0.90301011460E+02  0.00000000000E+00 0.  1.
         21   -1    0    0  501  502 -0.00000000000E+00 -0.00000000000E+00 -0.11151709485E+04  0.11151709485E+04  0.00000000000E+00 0.  1.
         25    1    1    2    0    0 -0.23268334049E+02  0.67166621999E+02 -0.66782303153E+03  0.68312910341E+03  0.12500000000E+03 0.  0.
         25    1    1    2    0    0  0.11397198276E+03 -0.55165788742E+02 -0.31508773465E+03  0.36185377935E+03  0.12500000000E+03 0.  0.
         25    1    1    2    0    0 -0.90703648716E+02 -0.12000833257E+02 -0.41959170890E+02  0.16048907723E+03  0.12500000000E+03 0.  0.
</event>
<event>
 5    0  0.5641283E-005  0.2462304E+03  0.7546771E-02  0.1115711E+00
         21   -1    0    0  502  501  0.00000000000E+00  0.00000000000E+00  0.58200926576E+02  0.58200926576E+02  0.00000000000E+00 0. -1.
         21   -1    0    0  501  502 -0.00000000000E+00 -0.00000000000E+00 -0.10417255565E+04  0.10417255565E+04  0.00000000000E+00 0. -1.
         25    1    1    2    0    0 -0.66687173127E+02  0.46579985536E+02 -0.27394394394E+03  0.31190889461E+03  0.12500000000E+03 0.  0.
         25    1    1    2    0    0  0.10018226734E+02 -0.35100827503E+02 -0.59434062286E+03  0.60843915796E+03  0.12500000000E+03 0.  0.
         25    1    1    2    0    0  0.56668946393E+02 -0.11479158032E+02 -0.11524006311E+03  0.17957843050E+03  0.12500000000E+03 0.  0.
</event>
<event>
 5    0  0.5641283E-005  0.2959536E+03  0.7546771E-02  0.1087281E+00
         21   -1    0    0  502  501  0.00000000000E+00  0.00000000000E+00  0.91518272545E+02  0.91518272545E+02  0.00000000000E+00 0.  1.
         21   -1    0    0  501  502 -0.00000000000E+00 -0.00000000000E+00 -0.95706080342E+03  0.95706080342E+03  0.00000000000E+00 0.  1.
         25    1    1    2    0    0  0.66386386989E+02  0.50095017506E+02 -0.13366904956E+03  0.20102009344E+03  0.12500000000E+03 0.  0.
         25    1    1    2    0    0 -0.20250555605E+03 -0.18788424284E+02 -0.44244865834E+03  0.50273981381E+03  0.12500000000E+03 0.  0.
         25    1    1    2    0    0  0.13611916906E+03 -0.31306593223E+02 -0.28942482298E+03  0.34481916872E+03  0.12500000000E+03 0.  0.
</event>
<event>
 5    0  0.5641283E-005  0.3899796E+03  0.7546771E-02  0.1047306E+00
         21   -1    0    0  502  501  0.00000000000E+00  0.00000000000E+00  0.40817108918E+03  0.40817108918E+03  0.00000000000E+00 0. -1.
         21   -1    0    0  501  502 -0.00000000000E+00 -0.00000000000E+00 -0.37259878647E+03  0.37259878647E+03  0.00000000000E+00 0. -1.
         25    1    1    2    0    0  0.12246229373E+03 -0.15124167574E+03  0.12896729140E+03  0.26481808873E+03  0.12500000000E+03 0.  0.
         25    1    1    2    0    0  0.63296196944E+02  0.11080147649E+02  0.11331019806E+03  0.18053636533E+03  0.12500000000E+03 0.  0.
         25    1    1    2    0    0 -0.18575849068E+03  0.14016152809E+03 -0.20670518676E+03  0.33541542160E+03  0.12500000000E+03 0.  0.
</event>
<event>
 5    0  0.5641283E-005  0.4737561E+03  0.7546771E-02  0.1020865E+00
         21   -1    0    0  502  501  0.00000000000E+00  0.00000000000E+00  0.11379852650E+03  0.11379852650E+03  0.00000000000E+00 0. -1.
         21   -1    0    0  501  502 -0.00000000000E+00 -0.00000000000E+00 -0.19722996658E+04  0.19722996658E+04  0.00000000000E+00 0. -1.
         25    1    1    2    0    0  0.14362276169E+03 -0.10499540441E+03 -0.19952820350E+03  0.29510682238E+03  0.12500000000E+03 0.  0.
         25    1    1    2    0    0 -0.92852561057E+02  0.31570078005E+03 -0.54156514684E+03  0.64591515611E+03  0.12500000000E+03 0.  0.
         25    1    1    2    0    0 -0.50770200632E+02 -0.21070537564E+03 -0.11174077890E+04  0.11450762138E+04  0.12500000000E+03 0.  0.
</event>
<event>
 5    0  0.5641283E-005  0.3533633E+03  0.7546771E-02  0.1061243E+00
         21   -1    0    0  502  501  0.00000000000E+00  0.00000000000E+00  0.83532522849E+03  0.83532522849E+03  0.00000000000E+00 0.  1.
         21   -1    0    0  501  502 -0.00000000000E+00 -0.00000000000E+00 -0.14948147646E+03  0.14948147646E+03  0.00000000000E+00 0.  1.
         25    1    1    2    0    0 -0.10181326057E+01  0.24930027267E+03  0.38574576652E+03  0.47600048208E+03  0.12500000000E+03 0.  0.
         25    1    1    2    0    0 -0.82898387896E+02 -0.19671090365E+03  0.14708389927E+03  0.28779505860E+03  0.12500000000E+03 0.  0.
         25    1    1    2    0    0  0.83916520502E+02 -0.52589369023E+02  0.15301408623E+03  0.22101116427E+03  0.12500000000E+03 0.  0.
</event>
<event>
 5    0  0.5641283E-005  0.3587104E+03  0.7546771E-02  0.1059096E+00
         21   -1    0    0  502  501  0.00000000000E+00  0.00000000000E+00  0.19148540419E+03  0.19148540419E+03  0.00000000000E+00 0. -1.
         21   -1    0    0  501  502 -0.00000000000E+00 -0.00000000000E+00 -0.67197379995E+03  0.67197379995E+03  0.00000000000E+00 0. -1.
         25    1    1    2    0    0 -0.15953780873E+03  0.84237526853E+02 -0.30162329034E+02  0.22154692378E+03  0.12500000000E+03 0.  0.
         25    1    1    2    0    0 -0.62428280140E+02 -0.13119329224E+03 -0.13814967543E+03  0.23626109055E+03  0.12500000000E+03 0.  0.
         25    1    1    2    0    0  0.22196608887E+03  0.46955765385E+02 -0.31217639130E+03  0.40565118981E+03  0.12500000000E+03 0.  0.
</event>
<event>
 5    0  0.5641283E-005  0.2404742E+03  0.7546771E-02  0.1119477E+00
         21   -1    0    0  502  501  0.00000000000E+00  0.00000000000E+00  0.10132354443E+03  0.10132354443E+03  0.00000000000E+00 0. -1.
         21   -1    0    0  501  502 -0.00000000000E+00 -0.00000000000E+00 -0.57072460224E+03  0.57072460224E+03  0.00000000000E+00 0. -1.
         25    1    1    2    0    0  0.31971607743E+02  0.28183450498E+02 -0.29898874222E+02  0.13540839436E+03  0.12500000000E+03 0.  0.
         25    1    1    2    0    0  0.33074446091E+02 -0.55932271405E+02 -0.11528816127E+03  0.18204037491E+03  0.12500000000E+03 0.  0.
         25    1    1    2    0    0 -0.65046053834E+02  0.27748820907E+02 -0.32421402233E+03  0.35459937740E+03  0.12500000000E+03 0.  0.
</event>
<event>
 5    0  0.5641283E-005  0.2462851E+03  0.7546771E-02  0.1115675E+00
         21   -1    0    0  502  501  0.00000000000E+00  0.00000000000E+00  0.29711221333E+03  0.29711221333E+03  0.00000000000E+00 0.  1.
         21   -1    0    0  501  502 -0.00000000000E+00 -0.00000000000E+00 -0.20415293955E+03  0.20415293955E+03  0.00000000000E+00 0.  1.
         25    1    1    2    0    0  0.13316863933E+02 -0.91254434624E+02 -0.18615564394E+02  0.15644887325E+03  0.12500000000E+03 0.  0.
         25    1    1    2    0    0 -0.77901755045E+02  0.57277682502E+02 -0.62841451793E+01  0.15815785416E+03  0.12500000000E+03 0.  0.
         25    1    1    2    0    0  0.64584891112E+02  0.33976752122E+02  0.11785898335E+03  0.18665842548E+03  0.12500000000E+03 0.  0.
</event>
<event>
 5    0  0.5641283E-005  0.2279321E+03  0.7546771E-02  0.1128104E+00
         21   -1    0    0  502  501  0.00000000000E+00  0.00000000000E+00  0.17894964727E+03  0.17894964727E+03  0.00000000000E+00 0.  1.
         21   -1    0    0  501  502 -0.00000000000E+00 -0.00000000000E+00 -0.29032200970E+03  0.29032200970E+03  0.00000000000E+00 0.  1.
         25    1    1    2    0    0  0.54837159188E+02 -0.70066270996E+01 -0.78747087748E+02  0.15774127767E+03  0.12500000000E+03 0.  0.
         25    1    1    2    0    0 -0.10631283019E+03  0.42128482071E+02 -0.72530602553E+01  0.16957250293E+03  0.12500000000E+03 0.  0.
         25    1    1    2    0    0  0.51475671007E+02 -0.35121854971E+02 -0.25372214426E+02  0.14195787638E+03  0.12500000000E+03 0.  0.
</event>
<event>
 5    0  0.5641283E-005  0.2871227E+03  0.7546771E-02  0.1091861E+00
         21   -1    0    0  502  501  0.00000000000E+00  0.00000000000E+00  0.22992225195E+03  0.22992225195E+03  0.00000000000E+00 0.  1.
         21   -1    0    0  501  502 -0.00000000000E+00 -0.00000000000E+00 -0.35855360536E+03  0.35855360536E+03  0.00000000000E+00 0.  1.
         25    1    1    2    0    0 -0.94461417817E+02 -0.85042852281E+02 -0.20753750626E+03  0.27359105009E+03  0.12500000000E+03 0.  0.
         25    1    1    2    0    0  0.14287550601E+02  0.49015009409E+02  0.89039354468E+02  0.16173933317E+03  0.12500000000E+03 0.  0.
         25    1    1    2    0    0  0.80173867217E+02  0.36027842872E+02 -0.10133201615E+02  0.15314547405E+03  0.12500000000E+03 0.  0.
</event>
<event>
 5    0  0.5641283E-005  0.2094478E+03  0.7546771E-02  0.1142004E+00
         21   -1    0    0  502  501  0.00000000000E+00  0.00000000000E+00  0.76042009778E+03  0.76042009778E+03  0.00000000000E+00 0. -1.
         21   -1    0    0  501  502 -0.00000000000E+00 -0.00000000000E+00 -0.57689691125E+02  0.57689691125E+02  0.00000000000E+00 0. -1.
         25    1    1    2    0    0 -0.15977076050E+01  0.95524183578E+01  0.15259195483E+03  0.19749204046E+03  0.12500000000E+03 0.  0.
         25    1    1    2    0    0  0.24951450917E+02 -0.68042106601E+02  0.32252075134E+03  0.35340760917E+03  0.12500000000E+03 0.  0.
         25    1    1    2    0    0 -0.23353743312E+02  0.58489688243E+02  0.22761770049E+03  0.26721013928E+03  0.12500000000E+03 0.  0.
</event>
<event>
 5    0  0.5641283E-005  0.4423393E+03  0.7546771E-02  0.1030031E+00
         21   -1    0    0  502  501  0.00000000000E+00  0.00000000000E+00  0.28950262649E+03  0.28950262649E+03  0.00000000000E+00 0. -1.
         21   -1    0    0  501  502 -0.00000000000E+00 -0.00000000000E+00 -0.67586281973E+03  0.67586281973E+03  0.00000000000E+00 0. -1.
         25    1    1    2    0    0 -0.17737133879E+03 -0.94171019846E+02 -0.18468580064E+03  0.30010434479E+03  0.12500000000E+03 0.  0.
         25    1    1    2    0    0  0.22673298570E+03  0.13619172347E+03  0.11839128164E+03  0.31559076019E+03  0.12500000000E+03 0.  0.
         25    1    1    2    0    0 -0.49361646915E+02 -0.42020703619E+02 -0.32006567424E+03  0.34967034125E+03  0.12500000000E+03 0.  0.
</event>
<event>
 5    0  0.5641283E-005  0.3169672E+03  0.7546771E-02  0.1077054E+00
         21   -1    0    0  502  501  0.00000000000E+00  0.00000000000E+00  0.76666678637E+02  0.76666678637E+02  0.00000000000E+00 0. -1.
         21   -1    0    0  501  502 -0.00000000000E+00 -0.00000000000E+00 -0.13104546065E+04  0.13104546065E+04  0.00000000000E+00 0. -1.
         25    1    1    2    0    0 -0.90240814909E+01 -0.37467987178E+02 -0.22895488273E+03  0.26368659889E+03  0.12500000000E+03 0.  0.
         25    1    1    2    0    0 -0.94220824170E+02  0.20178230806E+03 -0.66748722547E+03  0.71467325381E+03  0.12500000000E+03 0.  0.
         25    1    1    2    0    0  0.10324490566E+03 -0.16431432088E+03 -0.33734581962E+03  0.40876143239E+03  0.12500000000E+03 0.  0.
</event>
<event>
 5    0  0.5641283E-005  0.2825811E+03  0.7546771E-02  0.1094288E+00
         21   -1    0    0  502  501  0.00000000000E+00  0.00000000000E+00  0.50180981095E+03  0.50180981095E+03  0.00000000000E+00 0. -1.
         21   -1    0    0  501  502 -0.00000000000E+00 -0.00000000000E+00 -0.15912815301E+03  0.15912815301E+03  0.00000000000E+00 0. -1.
         25    1    1    2    0    0 -0.12420764326E+02 -0.16107411276E+03  0.27020795988E+02  0.20604433650E+03  0.12500000000E+03 0.  0.
         25    1    1    2    0    0  0.73205154433E+02  0.97305233673E+02  0.16222027962E+03  0.23825977893E+03  0.12500000000E+03 0.  0.
         25    1    1    2    0    0 -0.60784390106E+02  0.63768879091E+02  0.15344058233E+03  0.21663384853E+03  0.12500000000E+03 0.  0.
</event>
<event>
 5    0  0.5641283E-005  0.3358745E+03  0.7546771E-02  0.1068567E+00
         21   -1    0    0  502  501  0.00000000000E+00  0.00000000000E+00  0.21872954695E+04  0.21872954695E+04  0.00000000000E+00 0.  1.
         21   -1    0    0  501  502 -0.00000000000E+00 -0.00000000000E+00 -0.51575861270E+02  0.51575861270E+02  0.00000000000E+00 0.  1.
         25    1    1    2    0    0 -0.43273523538E+02  0.19909208394E+03  0.76931587436E+03  0.80559429632E+03  0.12500000000E+03 0.  0.
         25    1    1    2    0    0  0.13228749513E+03 -0.14649067872E+03  0.10717517651E+04  0.10969213036E+04  0.12500000000E+03 0.  0.
         25    1    1    2    0    0 -0.89013971588E+02 -0.52601405219E+02  0.29465196879E+03  0.33635573086E+03  0.12500000000E+03 0.  0.
</event>
<event>
 5    0  0.5641283E-005  0.4458493E+03  0.7546771E-02  0.1028967E+00
         21   -1    0    0  502  501  0.00000000000E+00  0.00000000000E+00  0.61511930416E+03  0.61511930416E+03  0.00000000000E+00 0.  1.
         21   -1    0    0  501  502 -0.00000000000E+00 -0.00000000000E+00 -0.32315948927E+03  0.32315948927E+03  0.00000000000E+00 0.  1.
         25    1    1    2    0    0 -0.77640089167E+02  0.57431796218E+01 -0.15439930417E+03  0.21336614700E+03  0.12500000000E+03 0.  0.
         25    1    1    2    0    0  0.72761879495E+02 -0.11664079327E+03  0.51249047948E+03  0.54513379763E+03  0.12500000000E+03 0.  0.
         25    1    1    2    0    0  0.48782096716E+01  0.11089761365E+03 -0.66131360424E+02  0.17977884879E+03  0.12500000000E+03 0.  0.
</event>
<event>
 5    0  0.5641283E-005  0.3178869E+03  0.7546771E-02  0.1076626E+00
         21   -1    0    0  502  501  0.00000000000E+00  0.00000000000E+00  0.49285216246E+02  0.49285216246E+02  0.00000000000E+00 0.  1.
         21   -1    0    0  501  502 -0.00000000000E+00 -0.00000000000E+00 -0.20503528289E+04  0.20503528289E+04  0.00000000000E+00 0.  1.
         25    1    1    2    0    0 -0.33950490634E+02 -0.36699314193E+02 -0.82967723010E+03  0.84052887019E+03  0.12500000000E+03 0.  0.
         25    1    1    2    0    0 -0.70053873180E+02  0.68636137085E+02 -0.10272880787E+04  0.10395019294E+04  0.12500000000E+03 0.  0.
         25    1    1    2    0    0  0.10400436381E+03 -0.31936822893E+02 -0.14410230384E+03  0.21960724560E+03  0.12500000000E+03 0.  0.
</event>
<event>
 5    0  0.5641283E-005  0.2683391E+03  0.7546771E-02  0.1102234E+00
         21   -1    0    0  502  501  0.00000000000E+00  0.00000000000E+00  0.11627617273E+04  0.11627617273E+04  0.00000000000E+00 0.  1.
         21   -1    0    0  501  502 -0.00000000000E+00 -0.00000000000E+00 -0.61926571398E+02  0.61926571398E+02  0.00000000000E+00 0.  1.
         25    1    1    2    0    0 -0.10375376559E+03 -0.58490663767E+02  0.74916844620E+03  0.76880710351E+03  0.12500000000E+03 0.  0.
         25    1    1    2    0    0  0.84680752533E+02  0.14764510047E+02  0.22688529965E+03  0.27292995403E+03  0.12500000000E+03 0.  0.
         25    1    1    2    0    0  0.19073013057E+02  0.43726153720E+02  0.12478141002E+03  0.18295124114E+03  0.12500000000E+03 0.  0.
</event>
<event>
 5    0  0.5641283E-005  0.2919357E+03  0.7546771E-02  0.1089343E+00
         21   -1    0    0  502  501  0.00000000000E+00  0.00000000000E+00  0.68947021858E+03  0.68947021858E+03  0.00000000000E+00 0. -1.
         21   -1    0    0  501  502 -0.00000000000E+00 -0.00000000000E+00 -0.12361152671E+03  0.12361152671E+03  0.00000000000E+00 0. -1.
         25    1    1    2    0    0 -0.90452586996E+02  0.52573861413E+02  0.45451226132E+03  0.48285823705E+03  0.12500000000E+03 0.  0.
         25    1    1    2    0    0  0.33481460402E+02  0.46452393726E+02  0.23614697958E+02  0.13950443374E+03  0.12500000000E+03 0.  0.
         25    1    1    2    0    0  0.56971126594E+02 -0.99026255138E+02  0.87731732597E+02  0.19071907450E+03  0.12500000000E+03 0.  0.
</event>
<event>
 5    0  0.5641283E-005  0.2908640E+03  0.7546771E-02  0.1089899E+00
         21   -1    0    0  502  501  0.00000000000E+00  0.00000000000E+00  0.17300465876E+03  0.17300465876E+03  0.00000000000E+00 0. -1.
         21   -1    0    0  501  502 -0.00000000000E+00 -0.00000000000E+00 -0.48901512292E+03  0.48901512292E+03  0.00000000000E+00 0. -1.
         25    1    1    2    0    0 -0.11586325030E+03  0.59966213312E+02 -0.43667979980E+02  0.18588203782E+03  0.12500000000E+03 0.  0.
         25    1    1    2    0    0  0.13606016114E+03  0.68024351627E+02 -0.79549548255E+02  0.21235067810E+03  0.12500000000E+03 0.  0.
         25    1    1    2    0    0 -0.20196910835E+02 -0.12799056494E+03 -0.19279293592E+03  0.26378706576E+03  0.12500000000E+03 0.  0.
</event>
<event>
 5    0  0.5641283E-005  0.2577361E+03  0.7546771E-02  0.1108511E+00
         21   -1    0    0  502  501  0.00000000000E+00  0.00000000000E+00  0.10874051733E+03  0.10874051733E+03  0.00000000000E+00 0.  1.
         21   -1    0    0  501  502 -0.00000000000E+00 -0.00000000000E+00 -0.61088460093E+03  0.61088460093E+03  0.00000000000E+00 0.  1.
         25    1    1    2    0    0 -0.86863611721E+02 -0.65336320133E+02 -0.78401431457E+02  0.18326457984E+03  0.12500000000E+03 0.  0.
         25    1    1    2    0    0  0.60651299445E+02 -0.25006811828E+02 -0.31688359680E+03  0.34690652154E+03  0.12500000000E+03 0.  0.
         25    1    1    2    0    0  0.26212312275E+02  0.90343131962E+02 -0.10685905534E+03  0.18945401689E+03  0.12500000000E+03 0.  0.
</event>
<event>
 5    0  0.5641283E-005  0.3450124E+03  0.7546771E-02  0.1064681E+00
         21   -1    0    0  502  501  0.00000000000E+00  0.00000000000E+00  0.27561370023E+04  0.27561370023E+04  0.00000000000E+00 0.  1.
         21   -1    0    0  501  502 -0.00000000000E+00 -0.00000000000E+00 -0.43188542882E+02  0.43188542882E+02  0.00000000000E+00 0.  1.
         25    1    1    2    0    0  0.11987091477E+03 -0.71613970979E+02  0.14642925202E+04  0.14762368311E+04  0.12500000000E+03 0.  0.
         25    1    1    2    0    0  0.33291258393E+02 -0.79142269318E+02  0.23725687572E+03  0.28158059549E+03  0.12500000000E+03 0.  0.
         25    1    1    2    0    0 -0.15316217316E+03  0.15075624030E+03  0.10113990636E+04  0.10415081186E+04  0.12500000000E+03 0.  0.
</event>
<event>
 5    0  0.5641283E-005  0.3268505E+03  0.7546771E-02  0.1072539E+00
         21   -1    0    0  502  501  0.00000000000E+00  0.00000000000E+00  0.72585681361E+02  0.72585681361E+02  0.00000000000E+00 0.  1.
         21   -1    0    0  501  502 -0.00000000000E+00 -0.00000000000E+00 -0.14717953745E+04  0.14717953745E+04  0.00000000000E+00 0.  1.
         25    1    1    2    0    0  0.22356348319E+01  0.72869838639E+02 -0.87874448130E+03  0.89057951631E+03  0.12500000000E+03 0.  0.
         25    1    1    2    0    0  0.86510156600E+02 -0.93329867175E+02 -0.44957339797E+03  0.48366901023E+03  0.12500000000E+03 0.  0.
         25    1    1    2    0    0 -0.88745791432E+02  0.20460028536E+02 -0.70891813898E+02  0.17013252935E+03  0.12500000000E+03 0.  0.
</event>
<event>
 5    0  0.5641283E-005  0.2454751E+03  0.7546771E-02  0.1116198E+00
         21   -1    0    0  502  501  0.00000000000E+00  0.00000000000E+00  0.88653792069E+02  0.88653792069E+02  0.00000000000E+00 0. -1.
         21   -1    0    0  501  502 -0.00000000000E+00 -0.00000000000E+00 -0.67970074645E+03  0.67970074645E+03  0.00000000000E+00 0. -1.
         25    1    1    2    0    0 -0.94514199298E+02 -0.11209022872E+03 -0.29371151996E+03  0.35126714934E+03  0.12500000000E+03 0.  0.
         25    1    1    2    0    0  0.67288623793E+02  0.63781350376E+02 -0.15237352672E+03  0.21780383650E+03  0.12500000000E+03 0.  0.
         25    1    1    2    0    0  0.27225575505E+02  0.48308878342E+02 -0.14496190770E+03  0.19928355269E+03  0.12500000000E+03 0.  0.
</event>
<event>
 5    0  0.5641283E-005  0.2617932E+03  0.7546771E-02  0.1106071E+00
         21   -1    0    0  502  501  0.00000000000E+00  0.00000000000E+00  0.23041537305E+03  0.23041537305E+03  0.00000000000E+00 0. -1.
         21   -1    0    0  501  502 -0.00000000000E+00 -0.00000000000E+00 -0.29744413070E+03  0.29744413070E+03  0.00000000000E+00 0. -1.
         25    1    1    2    0    0 -0.89404788122E+02  0.39928683547E+02 -0.12734471368E+02  0.15929432717E+03  0.12500000000E+03 0.  0.
         25    1    1    2    0    0 -0.47954355337E+02 -0.84427612323E+02 -0.77405181059E+02  0.17619365475E+03  0.12500000000E+03 0.  0.
         25    1    1    2    0    0  0.13735914346E+03  0.44498928776E+02  0.23110894784E+02  0.19237152183E+03  0.12500000000E+03 0.  0.
</event>
<event>
 5    0  0.5641283E-005  0.3205240E+03  0.7546771E-02  0.1075408E+00
         21   -1    0    0  502  501  0.00000000000E+00  0.00000000000E+00  0.23339909529E+03  0.23339909529E+03  0.00000000000E+00 0.  1.
         21   -1    0    0  501  502 -0.00000000000E+00 -0.00000000000E+00 -0.44017151082E+03  0.44017151082E+03  0.00000000000E+00 0.  1.
         25    1    1    2    0    0  0.86361575479E+02 -0.63741737538E+02  0.14966848545E+02  0.16543983009E+03  0.12500000000E+03 0.  0.
         25    1    1    2    0    0  0.53512000216E+02 -0.63644805553E+02 -0.23734502733E+03  0.28084133855E+03  0.12500000000E+03 0.  0.
         25    1    1    2    0    0 -0.13987357570E+03  0.12738654309E+03  0.15605763250E+02  0.22728943747E+03  0.12500000000E+03 0.  0.
</event>
<event>
 5    0  0.5641283E-005  0.3157938E+03  0.7546771E-02  0.1077602E+00
         21   -1    0    0  502  501  0.00000000000E+00  0.00000000000E+00  0.51037251093E+02  0.51037251093E+02  0.00000000000E+00 0.  1.
         21   -1    0    0  501  502 -0.00000000000E+00 -0.00000000000E+00 -0.19539793373E+04  0.19539793373E+04  0.00000000000E+00 0.  1.
         25    1    1    2    0    0 -0.10808337582E+03 -0.12107160565E+01 -0.52029373346E+03  0.54590663216E+03  0.12500000000E+03 0.  0.
         25    1    1    2    0    0  0.19169464477E+03 -0.12513462286E+03 -0.64453178277E+03  0.69530693199E+03  0.12500000000E+03 0.  0.
         25    1    1    2    0    0 -0.83611268947E+02  0.12634533892E+03 -0.73811656995E+03  0.76380302421E+03  0.12500000000E+03 0.  0.
</event>
<event>
 5    0  0.5641283E-005  0.4048912E+03  0.7546771E-02  0.1042099E+00
         21   -1    0    0  502  501  0.00000000000E+00  0.00000000000E+00  0.66577693268E+03  0.66577693268E+03  0.00000000000E+00 0. -1.
         21   -1    0    0  501  502 -0.00000000000E+00 -0.00000000000E+00 -0.24623399263E+03  0.24623399263E+03  0.00000000000E+00 0. -1.
         25    1    1    2    0    0 -0.24886338787E+03 -0.13073300167E+03  0.75747454365E+02  0.31683872931E+03  0.12500000000E+03 0.  0.
         25    1    1    2    0    0  0.29828452848E+03  0.11028011021E+03  0.19423866707E+03  0.39305091582E+03  0.12500000000E+03 0.  0.
         25    1    1    2    0    0 -0.49421140615E+02  0.20452891463E+02  0.14955681861E+03  0.20212128018E+03  0.12500000000E+03 0.  0.
</event>
<event>
 5    0  0.5641283E-005  0.2926351E+03  0.7546771E-02  0.1088981E+00
         21   -1    0    0  502  501  0.00000000000E+00  0.00000000000E+00  0.81571562482E+02  0.81571562482E+02  0.00000000000E+00 0. -1.
         21   -1    0    0  501  502 -0.00000000000E+00 -0.00000000000E+00 -0.10498184285E+04  0.10498184285E+04  0.00000000000E+00 0. -1.
         25    1    1    2    0    0 -0.71511885887E+01 -0.10298265930E+03 -0.85874998668E+02  0.18345594297E+03  0.12500000000E+03 0.  0.
         25    1    1    2    0    0 -0.18232023105E+02  0.11088801371E+03 -0.24021263371E+03  0.29318197020E+03  0.12500000000E+03 0.  0.
         25    1    1    2    0    0  0.25383211694E+02 -0.79053544186E+01 -0.64215923362E+03  0.65475207780E+03  0.12500000000E+03 0.  0.
</event>
<event>
 5    0  0.5641283E-005  0.3127058E+03  0.7546771E-02  0.1079056E+00
         21   -1    0    0  502  501  0.00000000000E+00  0.00000000000E+00  0.65632106644E+03  0.65632106644E+03  0.00000000000E+00 0.  1.
         21   -1    0    0  501  502 -0.00000000000E+00 -0.00000000000E+00 -0.14898944632E+03  0.14898944632E+03  0.00000000000E+00 0.  1.
         25    1    1    2    0    0  0.18628349184E+03 -0.13897511326E+03  0.24321159557E+03  0.35887672209E+03  0.12500000000E+03 0.  0.
         25    1    1    2    0    0 -0.87096160223E+02  0.11960530268E+03  0.10529657701E+03  0.22046210261E+03  0.12500000000E+03 0.  0.
         25    1    1    2    0    0 -0.99187331621E+02  0.19369810577E+02  0.15882344755E+03  0.22597168807E+03  0.12500000000E+03 0.  0.
</event>
<event>
 5    0  0.5641283E-005  0.4905776E+03  0.7546771E-02  0.1016268E+00
         21   -1    0    0  502  501  0.00000000000E+00  0.00000000000E+00  0.21241288129E+03  0.21241288129E+03  0.00000000000E+00 0.  1.
         21   -1    0    0  501  502 -0.00000000000E+00 -0.00000000000E+00 -0.11330121020E+04  0.11330121020E+04  0.00000000000E+00 0.  1.
         25    1    1    2    0    0  0.16962188168E+03  0.42957616389E+02 -0.96660281233E+03  0.99023377864E+03  0.12500000000E+03 0.  0.
         25    1    1    2    0    0 -0.91798331611E+02 -0.61249129595E+02  0.10328433894E+03  0.19614036870E+03  0.12500000000E+03 0.  0.
         25    1    1    2    0    0 -0.77823550069E+02  0.18291513205E+02 -0.57280747309E+02  0.15905083594E+03  0.12500000000E+03 0.  0.
</event>
<event>
 5    0  0.5641283E-005  0.3326918E+03  0.7546771E-02  0.1069952E+00
         21   -1    0    0  502  501  0.00000000000E+00  0.00000000000E+00  0.19329566226E+03  0.19329566226E+03  0.00000000000E+00 0. -1.
         21   -1    0    0  501  502 -0.00000000000E+00 -0.00000000000E+00 -0.57261409059E+03  0.57261409059E+03  0.00000000000E+00 0. -1.
         25    1    1    2    0    0 -0.52167957633E+02 -0.91275567185E+02  0.55081359240E+02  0.17237076639E+03  0.12500000000E+03 0.  0.
         25    1    1    2    0    0 -0.19240725322E+02 -0.29976577237E+02 -0.11304602009E+02  0.13046683379E+03  0.12500000000E+03 0.  0.
         25    1    1    2    0    0  0.71408682955E+02  0.12125214442E+03 -0.42309518556E+03  0.46307215267E+03  0.12500000000E+03 0.  0.
</event>
<event>
 5    0  0.5641283E-005  0.2809858E+03  0.7546771E-02  0.1095152E+00
         21   -1    0    0  502  501  0.00000000000E+00  0.00000000000E+00  0.34666190280E+03  0.34666190280E+03  0.00000000000E+00 0. -1.
         21   -1    0    0  501  502 -0.00000000000E+00 -0.00000000000E+00 -0.22775224489E+03  0.22775224489E+03  0.00000000000E+00 0. -1.
         25    1    1    2    0    0 -0.78107922086E+02  0.74675277555E+01  0.94060429850E+01  0.14788537828E+03  0.12500000000E+03 0.  0.
         25    1    1    2    0    0  0.77224316878E+02  0.15080334457E+03  0.56820248755E+02  0.21807976641E+03  0.12500000000E+03 0.  0.
         25    1    1    2    0    0  0.88360520727E+00 -0.15827087232E+03  0.52683366174E+02  0.20844900301E+03  0.12500000000E+03 0.  0.
</event>
<event>
 5    0  0.5641283E-005  0.4073008E+03  0.7546771E-02  0.1041281E+00
         21   -1    0    0  502  501  0.00000000000E+00  0.00000000000E+00  0.91860805597E+03  0.91860805597E+03  0.00000000000E+00 0. -1.
         21   -1    0    0  501  502 -0.00000000000E+00 -0.00000000000E+00 -0.18059274387E+03  0.18059274387E+03  0.00000000000E+00 0. -1.
         25    1    1    2    0    0 -0.14801418183E+02 -0.29615539860E+03  0.36797653265E+03  0.48883415458E+03  0.12500000000E+03 0.  0.
         25    1    1    2    0    0 -0.44698682741E+02  0.10771035881E+03  0.33204681792E+03  0.37346965462E+03  0.12500000000E+03 0.  0.
         25    1    1    2    0    0  0.59500100924E+02  0.18844503979E+03  0.37991961535E+02  0.23689699064E+03  0.12500000000E+03 0.  0.
</event>
<event>
 5    0  0.5641283E-005  0.3690532E+03  0.7546771E-02  0.1055056E+00
         21   -1    0    0  502  501  0.00000000000E+00  0.00000000000E+00  0.15256105401E+03  0.15256105401E+03  0.00000000000E+00 0.  1.
         21   -1    0    0  501  502 -0.00000000000E+00 -0.00000000000E+00 -0.89275887271E+03  0.89275887271E+03  0.00000000000E+00 0.  1.
         25    1    1    2    0    0 -0.89128194461E+02 -0.11971390965E+03  0.25963563601E+02  0.19640356882E+03  0.12500000000E+03 0.  0.
         25    1    1    2    0    0  0.13685438315E+03  0.10644136429E+03 -0.58848899946E+03  0.62610158018E+03  0.12500000000E+03 0.  0.
         25    1    1    2    0    0 -0.47726188692E+02  0.13272545359E+02 -0.17767238284E+03  0.22281477772E+03  0.12500000000E+03 0.  0.
</event>
<event>
 5    0  0.5641283E-005  0.3664241E+03  0.7546771E-02  0.1056069E+00
         21   -1    0    0  502  501  0.00000000000E+00  0.00000000000E+00  0.11351509084E+03  0.11351509084E+03  0.00000000000E+00 0.  1.
         21   -1    0    0  501  502 -0.00000000000E+00 -0.00000000000E+00 -0.11828083675E+04  0.11828083675E+04  0.00000000000E+00 0.  1.
         25    1    1    2    0    0 -0.12038137142E+03 -0.12400089391E+03 -0.22635122902E+03  0.31101089234E+03  0.12500000000E+03 0.  0.
         25    1    1    2    0    0  0.25678514947E+03  0.12632199703E+03 -0.41745360872E+03  0.52133326707E+03  0.12500000000E+03 0.  0.
         25    1    1    2    0    0 -0.13640377805E+03 -0.23211031195E+01 -0.42548843894E+03  0.46397929895E+03  0.12500000000E+03 0.  0.
</event>
<event>
 5    0  0.5641283E-005  0.4064481E+03  0.7546771E-02  0.1041570E+00
         21   -1    0    0  502  501  0.00000000000E+00  0.00000000000E+00  0.16834572781E+04  0.16834572781E+04  0.00000000000E+00 0.  1.
         21   -1    0    0  501  502 -0.00000000000E+00 -0.00000000000E+00 -0.98131442719E+02  0.98131442719E+02  0.00000000000E+00 0.  1.
         25    1    1    2    0    0  0.22264061021E+03  0.13821282367E+03  0.67793106949E+03  0.73748705814E+03  0.12500000000E+03 0.  0.
         25    1    1    2    0    0 -0.36325840631E+02 -0.18039853271E+03  0.19433605114E+03  0.29538906221E+03  0.12500000000E+03 0.  0.
         25    1    1    2    0    0 -0.18631476958E+03  0.42185709037E+02  0.71305871476E+03  0.74871260047E+03  0.12500000000E+03 0.  0.
</event>
