<event>
 6    0  0.2908518E+002  0.1501497E+03  0.7546771E-02  0.1200289E+00
         21   -1    0    0  506  501  0.00000000000E+00  0.00000000000E+00  0.69536856061E+02  0.69536856061E+02  0.00000000000E+00 0.  1.
         21   -1    0    0  504  502 -0.00000000000E+00 -0.00000000000E+00 -0.62116274491E+03  0.62116274491E+03  0.00000000000E+00 0.  1.
         21    1    1    2  503  502 -0.92408995328E+02 -0.23520691297E+02 -0.37230044276E+03  0.38431792180E+03  0.00000000000E+00 0.  1.
         21    1    1    2  504  501  0.25015974771E+02 -0.51793638981E+02 -0.57327046651E+02  0.81208191153E+02  0.00000000000E+00 0.  1.
         21    1    1    2  505  503 -0.43692048527E+02 -0.42957782251E+01 -0.61871933652E+02  0.75865571829E+02  0.00000000000E+00 0.  1.
         21    1    1    2  506  505  0.11108506908E+03  0.79610108503E+02 -0.60126465786E+02  0.14930791619E+03  0.00000000000E+00 0.  1.
<scales pt_clust_3="42.73134" pt_clust_4="57.51852" pt_clust_5="42.73134" pt_clust_6="136.30474"></scales>
<clustering>
<clus scale="   42.731">  3  5 -1 -1</clus>
<clus scale="   57.519">  1  4  2 -1</clus>
<clus scale="  136.305">  1  6  2 -1</clus>
<clus scale="   57.519">  1  3  2 -1</clus>
</clustering>
</event>
<event>
 6    0  0.2908518E+002  0.1341576E+03  0.7546771E-02  0.1221414E+00
         21   -1    0    0  506  501  0.00000000000E+00  0.00000000000E+00  0.18524610506E+03  0.18524610506E+03  0.00000000000E+00 0. -1.
         21   -1    0    0  505  502 -0.00000000000E+00 -0.00000000000E+00 -0.16099718547E+04  0.16099718547E+04  0.00000000000E+00 0.  1.
         21    1    1    2  503  502 -0.52553907637E+02  0.24979805265E+01 -0.15798367008E+03  0.16651424302E+03  0.00000000000E+00 0.  1.
         21    1    1    2  504  501  0.11195821605E+02 -0.34254842689E+02 -0.23747366103E+03  0.24019259012E+03  0.00000000000E+00 0.  1.
         21    1    1    2  505  504  0.12564071852E+03 -0.51559076025E+02 -0.11850318370E+04  0.11927884906E+04  0.00000000000E+00 0.  1.
         21    1    1    2  506  503 -0.84282632483E+02  0.83315938187E+02  0.15576341853E+03  0.19572263601E+03  0.00000000000E+00 0. -1.
<scales pt_clust_3="52.61324" pt_clust_4="31.85747" pt_clust_5="31.85747" pt_clust_6="119.05308"></scales>
<clustering>
<clus scale="   31.857">  4  5 -1 -1</clus>
<clus scale="   52.613">  2  3  1 -1</clus>
<clus scale="  119.053">  1  6  2 -1</clus>
<clus scale="  119.053">  1  3  2 -1</clus>
</clustering>
</event>
<event>
 6    0  0.2908518E+002  0.1857154E+03  0.7546771E-02  0.1162384E+00
         21   -1    0    0  504  501  0.00000000000E+00  0.00000000000E+00  0.72684677289E+02  0.72684677289E+02  0.00000000000E+00 0.  1.
         21   -1    0    0  506  502 -0.00000000000E+00 -0.00000000000E+00 -0.65017467386E+03  0.65017467386E+03  0.00000000000E+00 0.  1.
         21    1    1    2  503  502  0.34058711385E+02  0.32240323006E+02 -0.14711325315E+03  0.15440771840E+03  0.00000000000E+00 0.  1.
         21    1    1    2  504  503  0.38531802059E+02 -0.18527720510E+03 -0.17103428579E+03  0.25507855538E+03  0.00000000000E+00 0.  1.
         21    1    1    2  505  501 -0.68881850470E+02  0.92998076962E+02 -0.17322190949E+03  0.20832470225E+03  0.00000000000E+00 0.  1.
         21    1    1    2  506  505 -0.37086629742E+01  0.60038805129E+02 -0.86120548151E+02  0.10504837512E+03  0.00000000000E+00 0.  1.
<scales pt_clust_3="46.89813" pt_clust_4="179.54305" pt_clust_5="34.23204" pt_clust_6="34.23204"></scales>
<clustering>
<clus scale="   34.232">  5  6 -1 -1</clus>
<clus scale="   46.898">  2  3  1 -1</clus>
<clus scale="  179.543">  1  4  2 -1</clus>
<clus scale="  179.543">  1  3  2 -1</clus>
</clustering>
</event>
<event>
 6    0  0.2908518E+002  0.9334002E+02  0.7546771E-02  0.1294959E+00
         21   -1    0    0  506  501  0.00000000000E+00  0.00000000000E+00  0.19030683134E+04  0.19030683134E+04  0.00000000000E+00 0. -1.
         21   -1    0    0  503  502 -0.00000000000E+00 -0.00000000000E+00 -0.10534742484E+03  0.10534742484E+03  0.00000000000E+00 0.  1.
         21    1    1    2  503  505  0.69086179937E+02 -0.39657192134E+02 -0.46156838612E+02  0.92065448986E+02  0.00000000000E+00 0.  1.
         21    1    1    2  504  501 -0.94823238124E+02 -0.25072686676E+02  0.17730272020E+04  0.17757380283E+04  0.00000000000E+00 0. -1.
         21    1    1    2  505  504  0.52064225375E+02  0.27568209124E+02  0.74436594732E+02  0.94928901571E+02  0.00000000000E+00 0. -1.
         21    1    1    2  506  502 -0.26327167188E+02  0.37161669686E+02 -0.35860696008E+01  0.45683359347E+02  0.00000000000E+00 0.  1.
<scales pt_clust_3="47.19846" pt_clust_4="14000.00000" pt_clust_5="93.34002" pt_clust_6="45.54239"></scales>
<clustering>
<clus scale="   45.542">  2  6  1 -1</clus>
<clus scale="   47.198">  2  3  1 -1</clus>
<clus scale="   93.340">  2  5  1 -1</clus>
<clus scale="   93.340">  1  3  2 -1</clus>
</clustering>
</event>
<event>
 6    0  0.2908518E+002  0.1238050E+03  0.7546771E-02  0.1236949E+00
         21   -1    0    0  504  501  0.00000000000E+00  0.00000000000E+00  0.15049933356E+04  0.15049933356E+04  0.00000000000E+00 0.  1.
         21   -1    0    0  506  502 -0.00000000000E+00 -0.00000000000E+00 -0.28758166573E+02  0.28758166573E+02  0.00000000000E+00 0.  1.
         21    1    1    2  503  505 -0.59680247550E+02 -0.46997712295E+02  0.10428245891E+03  0.12901685218E+03  0.00000000000E+00 0.  1.
         21    1    1    2  504  503  0.88667067684E+02  0.81162321709E+02  0.12067147096E+04  0.12126869182E+04  0.00000000000E+00 0.  1.
         21    1    1    2  505  502 -0.45663395609E+02 -0.29931684899E+01  0.36473738470E+02  0.58518700892E+02  0.00000000000E+00 0.  1.
         21    1    1    2  506  501  0.16676575475E+02 -0.31171440924E+02  0.12876426213E+03  0.13352903092E+03  0.00000000000E+00 0.  1.
<scales pt_clust_3="32.56971" pt_clust_4="116.47653" pt_clust_5="32.56971" pt_clust_6="35.35204"></scales>
<clustering>
<clus scale="   32.570">  3  5 -1 -1</clus>
<clus scale="   35.352">  1  6  2 -1</clus>
<clus scale="  116.477">  1  4  2 -1</clus>
<clus scale="   35.352">  1  3  2 -1</clus>
</clustering>
</event>
<event>
 6    0  0.2908518E+002  0.1691811E+03  0.7546771E-02  0.1178705E+00
         21   -1    0    0  505  501  0.00000000000E+00  0.00000000000E+00  0.19656192224E+03  0.19656192224E+03  0.00000000000E+00 0. -1.
         21   -1    0    0  501  502 -0.00000000000E+00 -0.00000000000E+00 -0.17459433589E+04  0.17459433589E+04  0.00000000000E+00 0. -1.
         21    1    1    2  503  506 -0.83922640158E+02  0.28588965443E+02 -0.49814189564E+03  0.50597004522E+03  0.00000000000E+00 0. -1.
         21    1    1    2  504  502  0.38867269037E+02 -0.65501952589E+01 -0.27826506904E+03  0.28104273395E+03  0.00000000000E+00 0.  1.
         21    1    1    2  505  503  0.15900439660E+03 -0.16639687239E+02  0.15372994216E+03  0.22179308476E+03  0.00000000000E+00 0. -1.
         21    1    1    2  506  504 -0.11394902548E+03 -0.53990829455E+01 -0.92670441414E+03  0.93369941720E+03  0.00000000000E+00 0. -1.
<scales pt_clust_3="48.21805" pt_clust_4="39.41535" pt_clust_5="160.78571" pt_clust_6="48.21805"></scales>
<clustering>
<clus scale="   39.415">  2  4  1 -1</clus>
<clus scale="   48.218">  3  6 -1 -1</clus>
<clus scale="  160.786">  1  5  2 -1</clus>
<clus scale="  160.786">  1  3  2 -1</clus>
</clustering>
</event>
<event>
 6    0  0.2908518E+002  0.2159979E+03  0.7546771E-02  0.1136902E+00
         21   -1    0    0  503  501  0.00000000000E+00  0.00000000000E+00  0.22712043065E+03  0.22712043065E+03  0.00000000000E+00 0.  1.
         21   -1    0    0  505  502 -0.00000000000E+00 -0.00000000000E+00 -0.30916440327E+03  0.30916440327E+03  0.00000000000E+00 0. -1.
         21    1    1    2  503  504  0.36776679594E+02 -0.29954377709E+02  0.11055833928E+02  0.48703391768E+02  0.00000000000E+00 0.  1.
         21    1    1    2  504  502  0.18275136717E+03  0.24888401681E+02 -0.31585641842E+02  0.18712334838E+03  0.00000000000E+00 0.  1.
         21    1    1    2  505  506 -0.18662367213E+03 -0.40295378222E+02 -0.11508931864E+03  0.22292972832E+03  0.00000000000E+00 0. -1.
         21    1    1    2  506  501 -0.32904374635E+02  0.45361354250E+02  0.53575153939E+02  0.77528365448E+02  0.00000000000E+00 0. -1.
<scales pt_clust_3="42.35142" pt_clust_4="42.35142" pt_clust_5="199.19975" pt_clust_6="56.03883"></scales>
<clustering>
<clus scale="   42.351">  3  4 -1 -1</clus>
<clus scale="   56.039">  1  6  2 -1</clus>
<clus scale="  199.200">  2  5  1 -1</clus>
<clus scale="   56.039">  1  3  2 -1</clus>
</clustering>
</event>
<event>
 6    0  0.2908518E+002  0.1014294E+03  0.7546771E-02  0.1277319E+00
         21   -1    0    0  506  501  0.00000000000E+00  0.00000000000E+00  0.15304230319E+03  0.15304230319E+03  0.00000000000E+00 0.  1.
         21   -1    0    0  505  502 -0.00000000000E+00 -0.00000000000E+00 -0.90873567020E+03  0.90873567020E+03  0.00000000000E+00 0.  1.
         21    1    1    2  503  502 -0.33312499673E+01  0.61687647025E+02 -0.10953713686E+03  0.12575709671E+03  0.00000000000E+00 0.  1.
         21    1    1    2  504  501 -0.10267960183E+02  0.52157739366E+02  0.10667542876E+03  0.11918686120E+03  0.00000000000E+00 0.  1.
         21    1    1    2  505  504  0.27685130317E+02 -0.16273078215E+03 -0.74769686978E+03  0.76570123611E+03  0.00000000000E+00 0.  1.
         21    1    1    2  506  503 -0.14085920167E+02  0.48885395762E+02 -0.51347891388E+01  0.51132779362E+02  0.00000000000E+00 0.  1.
<scales pt_clust_3="64.87305" pt_clust_4="101.42939" pt_clust_5="14000.00000" pt_clust_6="50.87431"></scales>
<clustering>
<clus scale="   50.874">  1  6  2 -1</clus>
<clus scale="   64.873">  2  3  1 -1</clus>
<clus scale="  101.429">  1  4  2 -1</clus>
<clus scale="   50.874">  1  3  2 -1</clus>
</clustering>
</event>
<event>
 6    0  0.2908518E+002  0.1231142E+03  0.7546771E-02  0.1238046E+00
         21   -1    0    0  502  501  0.00000000000E+00  0.00000000000E+00  0.30881277146E+03  0.30881277146E+03  0.00000000000E+00 0.  1.
         21   -1    0    0  503  502 -0.00000000000E+00 -0.00000000000E+00 -0.12720191889E+03  0.12720191889E+03  0.00000000000E+00 0.  1.
         21    1    1    2  503  505 -0.83008408245E+02 -0.27613275953E+02 -0.44222599311E+02  0.98023094922E+02  0.00000000000E+00 0.  1.
         21    1    1    2  504  501  0.56280319593E+02  0.23366957323E+02  0.18300882289E+03  0.19288783871E+03  0.00000000000E+00 0.  1.
         21    1    1    2  505  506 -0.26980028557E+02 -0.49062382103E+02 -0.39686694629E+01  0.56131894818E+02  0.00000000000E+00 0. -1.
         21    1    1    2  506  504  0.53708117208E+02  0.53308700733E+02  0.46793298456E+02  0.88971861890E+02  0.00000000000E+00 0.  1.
<scales pt_clust_3="47.09126" pt_clust_4="60.93840" pt_clust_5="47.09126" pt_clust_6="108.13125"></scales>
<clustering>
<clus scale="   47.091">  3  5 -1 -1</clus>
<clus scale="   60.938">  1  4  2 -1</clus>
<clus scale="  108.131">  1  6  2 -1</clus>
<clus scale="   60.938">  1  3  2 -1</clus>
</clustering>
</event>
<event>
 6    0  0.2908518E+002  0.8794384E+02  0.7546771E-02  0.1307909E+00
         21   -1    0    0  505  501  0.00000000000E+00  0.00000000000E+00  0.24474420708E+04  0.24474420708E+04  0.00000000000E+00 0.  1.
         21   -1    0    0  504  502 -0.00000000000E+00 -0.00000000000E+00 -0.20675469937E+02  0.20675469937E+02  0.00000000000E+00 0.  1.
         21    1    1    2  503  502  0.31620308210E+02 -0.48652708674E+01  0.17042343174E+03  0.17340029077E+03  0.00000000000E+00 0.  1.
         21    1    1    2  504  506 -0.10165811193E+03 -0.68840477167E+02  0.23599118734E+03  0.26601733688E+03  0.00000000000E+00 0.  1.
         21    1    1    2  505  503  0.39834447076E+02  0.50145520531E+02  0.25454989959E+03  0.26248239519E+03  0.00000000000E+00 0.  1.
         21    1    1    2  506  501  0.30203356643E+02  0.23560227504E+02  0.17658020822E+04  0.17662175179E+04  0.00000000000E+00 0.  1.
<scales pt_clust_3="31.99242" pt_clust_4="87.94384" pt_clust_5="14000.00000" pt_clust_6="38.54405"></scales>
<clustering>
<clus scale="   31.992">  2  3  1 -1</clus>
<clus scale="   38.544">  1  6  2 -1</clus>
<clus scale="   87.944">  2  4  1 -1</clus>
<clus scale="   38.544">  1  3  2 -1</clus>
</clustering>
</event>
<event>
 6    0  0.2908518E+002  0.1043184E+03  0.7546771E-02  0.1271468E+00
         21   -1    0    0  506  501  0.00000000000E+00  0.00000000000E+00  0.49522343363E+03  0.49522343363E+03  0.00000000000E+00 0. -1.
         21   -1    0    0  503  502 -0.00000000000E+00 -0.00000000000E+00 -0.10918540137E+03  0.10918540137E+03  0.00000000000E+00 0. -1.
         21    1    1    2  503  501 -0.90352330279E+01 -0.35481366105E+02  0.28856457490E+02  0.46618214417E+02  0.00000000000E+00 0.  1.
         21    1    1    2  504  505  0.10214971740E+03 -0.11445805609E+02 -0.30747888272E+02  0.10728934646E+03  0.00000000000E+00 0. -1.
         21    1    1    2  505  502 -0.20216251036E+02 -0.31112054710E+02 -0.10052266402E+02  0.38440926291E+02  0.00000000000E+00 0. -1.
         21    1    1    2  506  504 -0.72898233339E+02  0.78039226424E+02  0.39798172945E+03  0.41206034783E+03  0.00000000000E+00 0. -1.
<scales pt_clust_3="36.61370" pt_clust_4="104.31843" pt_clust_5="45.57399" pt_clust_6="14000.00000"></scales>
<clustering>
<clus scale="   36.614">  2  3  1 -1</clus>
<clus scale="   45.574">  2  5  1 -1</clus>
<clus scale="  104.318">  2  4  1 -1</clus>
<clus scale="  104.318">  1  3  2 -1</clus>
</clustering>
</event>
<event>
 6    0  0.2908518E+002  0.2437579E+03  0.7546771E-02  0.1117314E+00
         21   -1    0    0  503  501  0.00000000000E+00  0.00000000000E+00  0.14162146180E+04  0.14162146180E+04  0.00000000000E+00 0.  1.
         21   -1    0    0  506  502 -0.00000000000E+00 -0.00000000000E+00 -0.69101039306E+03  0.69101039306E+03  0.00000000000E+00 0.  1.
         21    1    1    2  503  505  0.16918161765E+03 -0.14448858720E+03 -0.27277161691E+03  0.35199961161E+03  0.00000000000E+00 0.  1.
         21    1    1    2  504  501 -0.98545166003E+01 -0.68092638660E+02  0.13129231569E+04  0.13147246612E+04  0.00000000000E+00 0.  1.
         21    1    1    2  505  502  0.29156839795E+02  0.20322139634E+02 -0.18605968563E+02  0.40115990980E+02  0.00000000000E+00 0.  1.
         21    1    1    2  506  504 -0.18848394085E+03  0.19225908622E+03 -0.29634134648E+03  0.40038474724E+03  0.00000000000E+00 0.  1.
<scales pt_clust_3="14000.00000" pt_clust_4="68.76897" pt_clust_5="35.54027" pt_clust_6="243.75792"></scales>
<clustering>
<clus scale="   35.540">  2  5  1 -1</clus>
<clus scale="   68.769">  1  4  2 -1</clus>
<clus scale="  243.758">  1  6  2 -1</clus>
<clus scale="   68.769">  1  3  2 -1</clus>
</clustering>
</event>
<event>
 6    0  0.2908518E+002  0.1331490E+03  0.7546771E-02  0.1222857E+00
         21   -1    0    0  504  501  0.00000000000E+00  0.00000000000E+00  0.27234655972E+04  0.27234655972E+04  0.00000000000E+00 0. -1.
         21   -1    0    0  501  502 -0.00000000000E+00 -0.00000000000E+00 -0.71033431012E+02  0.71033431012E+02  0.00000000000E+00 0.  1.
         21    1    1    2  503  505  0.71787175981E+02  0.98654837783E+02  0.12020353649E+03  0.17127482547E+03  0.00000000000E+00 0.  1.
         21    1    1    2  504  503 -0.10967193858E+03  0.41321201630E+02  0.24394800943E+04  0.24422936978E+04  0.00000000000E+00 0. -1.
         21    1    1    2  505  506 -0.18143904639E+01 -0.53841918501E+02  0.59896147326E+02  0.80559249407E+02  0.00000000000E+00 0.  1.
         21    1    1    2  506  502  0.39699153064E+02 -0.86134120913E+02  0.32852388090E+02  0.10037125556E+03  0.00000000000E+00 0.  1.
<scales pt_clust_3="120.92828" pt_clust_4="117.19802" pt_clust_5="41.99653" pt_clust_6="41.99653"></scales>
<clustering>
<clus scale="   41.997">  5  6 -1 -1</clus>
<clus scale="  117.198">  1  4  2 -1</clus>
<clus scale="  120.928">  1  3  2 -1</clus>
<clus scale="  117.198">  1  3  2 -1</clus>
</clustering>
</event>
<event>
 6    0  0.2908518E+002  0.1544923E+03  0.7546771E-02  0.1195059E+00
         21   -1    0    0  505  501  0.00000000000E+00  0.00000000000E+00  0.16987098554E+03  0.16987098554E+03  0.00000000000E+00 0.  1.
         21   -1    0    0  503  502 -0.00000000000E+00 -0.00000000000E+00 -0.78180938844E+03  0.78180938844E+03  0.00000000000E+00 0.  1.
         21    1    1    2  503  501  0.64124044234E+02 -0.93379453726E+02 -0.40674223608E+02  0.12035783270E+03  0.00000000000E+00 0.  1.
         21    1    1    2  504  506 -0.52531019211E+02  0.78799711930E+02 -0.31052742367E+03  0.32464778365E+03  0.00000000000E+00 0.  1.
         21    1    1    2  505  504  0.27724880045E+02 -0.29973219168E+02  0.11719319433E+03  0.12410200497E+03  0.00000000000E+00 0.  1.
         21    1    1    2  506  502 -0.39317905067E+02  0.44552960964E+02 -0.37792994997E+03  0.38257275265E+03  0.00000000000E+00 0.  1.
<scales pt_clust_3="146.05696" pt_clust_4="39.88354" pt_clust_5="40.82968" pt_clust_6="39.88354"></scales>
<clustering>
<clus scale="   39.884">  4  6 -1 -1</clus>
<clus scale="   40.830">  1  5  2 -1</clus>
<clus scale="  146.057">  1  3  2 -1</clus>
<clus scale="   40.830">  1  3  2 -1</clus>
</clustering>
</event>
<event>
 6    0  0.2908518E+002  0.7801924E+02  0.7546771E-02  0.1334768E+00
         21   -1    0    0  503  501  0.00000000000E+00  0.00000000000E+00  0.13865842081E+03  0.13865842081E+03  0.00000000000E+00 0. -1.
         21   -1    0    0  506  502 -0.00000000000E+00 -0.00000000000E+00 -0.15846868512E+04  0.15846868512E+04  0.00000000000E+00 0.  1.
         21    1    1    2  503  505  0.10431685598E+02  0.62767549804E+02  0.11037892065E+03  0.12740522555E+03  0.00000000000E+00 0. -1.
         21    1    1    2  504  502 -0.40568164902E+02 -0.17364239800E+02 -0.21335716364E+03  0.21787283471E+03  0.00000000000E+00 0. -1.
         21    1    1    2  505  504 -0.79220781264E+02 -0.66554117017E+02 -0.16496048152E+03  0.19472376111E+03  0.00000000000E+00 0. -1.
         21    1    1    2  506  501  0.10935726057E+03  0.21150807013E+02 -0.11780897059E+04  0.11833434507E+04  0.00000000000E+00 0.  1.
<scales pt_clust_3="63.48105" pt_clust_4="44.12814" pt_clust_5="14000.00000" pt_clust_6="78.01924"></scales>
<clustering>
<clus scale="   44.128">  2  4  1 -1</clus>
<clus scale="   63.481">  1  3  2 -1</clus>
<clus scale="   78.019">  2  6  1 -1</clus>
<clus scale="   63.481">  1  3  2 -1</clus>
</clustering>
</event>
<event>
 6    0  0.2908518E+002  0.1433638E+03  0.7546771E-02  0.1208873E+00
         21   -1    0    0  506  501  0.00000000000E+00  0.00000000000E+00  0.24974743593E+03  0.24974743593E+03  0.00000000000E+00 0.  1.
         21   -1    0    0  505  502 -0.00000000000E+00 -0.00000000000E+00 -0.16845579972E+03  0.16845579972E+03  0.00000000000E+00 0.  1.
         21    1    1    2  503  502 -0.77969318394E+02  0.53655002413E+02 -0.73824704710E+02  0.12003399902E+03  0.00000000000E+00 0.  1.
         21    1    1    2  504  503 -0.26028523624E+02  0.44319974842E+02 -0.97894986898E+01  0.52321873978E+02  0.00000000000E+00 0.  1.
         21    1    1    2  505  501  0.10423559625E+03 -0.41342454905E+02  0.15000795283E+03  0.18728759707E+03  0.00000000000E+00 0.  1.
         21    1    1    2  506  504 -0.23775423011E+00 -0.56632522350E+02  0.14897886788E+02  0.58559765586E+02  0.00000000000E+00 0.  1.
<scales pt_clust_3="35.34567" pt_clust_4="35.34567" pt_clust_5="135.10225" pt_clust_6="56.63302"></scales>
<clustering>
<clus scale="   35.346">  3  4 -1 -1</clus>
<clus scale="   56.633">  1  6  2 -1</clus>
<clus scale="  135.102">  1  5  2 -1</clus>
<clus scale="   56.633">  1  3  2 -1</clus>
</clustering>
</event>
<event>
 6    0  0.2908518E+002  0.1692723E+03  0.7546771E-02  0.1178609E+00
         21   -1    0    0  506  501  0.00000000000E+00  0.00000000000E+00  0.18254039544E+03  0.18254039544E+03  0.00000000000E+00 0.  1.
         21   -1    0    0  505  502 -0.00000000000E+00 -0.00000000000E+00 -0.93449905908E+03  0.93449905908E+03  0.00000000000E+00 0.  1.
         21    1    1    2  503  501  0.73095057851E+02  0.10872566724E+03 -0.49272638445E+03  0.50984649468E+03  0.00000000000E+00 0.  1.
         21    1    1    2  504  502  0.51376919017E+02 -0.21508661635E+02 -0.31076117506E+03  0.31571303150E+03  0.00000000000E+00 0.  1.
         21    1    1    2  505  503 -0.67157835870E+01  0.39299850491E+02 -0.69746929141E+02  0.80338123717E+02  0.00000000000E+00 0.  1.
         21    1    1    2  506  504 -0.11775619328E+03 -0.12651685609E+03  0.12127582501E+03  0.21114180463E+03  0.00000000000E+00 0.  1.
<scales pt_clust_3="14000.00000" pt_clust_4="49.45408" pt_clust_5="39.86954" pt_clust_6="169.27227"></scales>
<clustering>
<clus scale="   39.870">  2  5  1 -1</clus>
<clus scale="   49.454">  2  4  1 -1</clus>
<clus scale="  169.272">  1  6  2 -1</clus>
<clus scale="  169.272">  1  3  2 -1</clus>
</clustering>
</event>
<event>
 6    0  0.2908518E+002  0.1449157E+03  0.7546771E-02  0.1206863E+00
         21   -1    0    0  504  501  0.00000000000E+00  0.00000000000E+00  0.36917674732E+03  0.36917674732E+03  0.00000000000E+00 0.  1.
         21   -1    0    0  503  502 -0.00000000000E+00 -0.00000000000E+00 -0.20099103842E+03  0.20099103842E+03  0.00000000000E+00 0.  1.
         21    1    1    2  503  505  0.72042838138E+02  0.42562991552E+02 -0.96339032412E+02  0.12760481160E+03  0.00000000000E+00 0.  1.
         21    1    1    2  504  506 -0.10385837738E+03 -0.89967720123E+02  0.30488390969E+03  0.33441733150E+03  0.00000000000E+00 0.  1.
         21    1    1    2  505  501  0.49413850591E+02 -0.34075396642E+00 -0.21250065345E+02  0.53790426850E+02  0.00000000000E+00 0.  1.
         21    1    1    2  506  502 -0.17598311345E+02  0.47745482538E+02 -0.19109103037E+02  0.54355215793E+02  0.00000000000E+00 0.  1.
<scales pt_clust_3="38.74947" pt_clust_4="135.86011" pt_clust_5="38.74947" pt_clust_6="50.88548"></scales>
<clustering>
<clus scale="   38.749">  3  5 -1 -1</clus>
<clus scale="   50.885">  2  6  1 -1</clus>
<clus scale="  135.860">  1  4  2 -1</clus>
<clus scale="  135.860">  1  3  2 -1</clus>
</clustering>
</event>
<event>
 6    0  0.2908518E+002  0.1217518E+03  0.7546771E-02  0.1240235E+00
         21   -1    0    0  503  501  0.00000000000E+00  0.00000000000E+00  0.15389137367E+04  0.15389137367E+04  0.00000000000E+00 0. -1.
         21   -1    0    0  506  502 -0.00000000000E+00 -0.00000000000E+00 -0.58697905533E+03  0.58697905533E+03  0.00000000000E+00 0. -1.
         21    1    1    2  503  505 -0.24851528073E+02 -0.27809513268E+02  0.14799962574E+04  0.14804661054E+04  0.00000000000E+00 0. -1.
         21    1    1    2  504  501 -0.66763351802E+02  0.12689927473E+03 -0.69537880965E+02  0.15936212838E+03  0.00000000000E+00 0. -1.
         21    1    1    2  505  502  0.19711130045E+02 -0.62704364655E+02 -0.10827081448E+03  0.12666070923E+03  0.00000000000E+00 0.  1.
         21    1    1    2  506  504  0.71903749830E+02 -0.36385396809E+02 -0.35025288056E+03  0.35940384901E+03  0.00000000000E+00 0. -1.
<scales pt_clust_3="37.29568" pt_clust_4="14000.00000" pt_clust_5="68.90189" pt_clust_6="121.75184"></scales>
<clustering>
<clus scale="   37.296">  1  3  2 -1</clus>
<clus scale="   68.902">  2  5  1 -1</clus>
<clus scale="  121.752">  2  6  1 -1</clus>
<clus scale="   37.296">  1  3  2 -1</clus>
</clustering>
</event>
<event>
 6    0  0.2908518E+002  0.1579163E+03  0.7546771E-02  0.1191069E+00
         21   -1    0    0  505  501  0.00000000000E+00  0.00000000000E+00  0.58462213556E+03  0.58462213556E+03  0.00000000000E+00 0.  1.
         21   -1    0    0  504  502 -0.00000000000E+00 -0.00000000000E+00 -0.43622448829E+03  0.43622448829E+03  0.00000000000E+00 0. -1.
         21    1    1    2  503  502 -0.30442073952E+02  0.45848898885E+02 -0.10812152040E+03  0.12132231686E+03  0.00000000000E+00 0. -1.
         21    1    1    2  504  506 -0.15961324159E+02  0.32107005759E+02 -0.22183668276E+03  0.22471568149E+03  0.00000000000E+00 0. -1.
         21    1    1    2  505  503 -0.69036894403E+02  0.16354236402E+02 -0.74104009753E+02  0.10259121843E+03  0.00000000000E+00 0. -1.
         21    1    1    2  506  501  0.11544029251E+03 -0.94310141047E+02  0.55245986018E+03  0.57221740707E+03  0.00000000000E+00 0.  1.
<scales pt_clust_3="53.77713" pt_clust_4="35.85559" pt_clust_5="53.77713" pt_clust_6="147.55247"></scales>
<clustering>
<clus scale="   35.856">  2  4  1 -1</clus>
<clus scale="   53.777">  3  5 -1 -1</clus>
<clus scale="  147.552">  1  6  2 -1</clus>
<clus scale="  147.552">  1  3  2 -1</clus>
</clustering>
</event>
<event>
 6    0  0.2908518E+002  0.1286564E+03  0.7546771E-02  0.1229463E+00
         21   -1    0    0  506  501  0.00000000000E+00  0.00000000000E+00  0.56017596253E+03  0.56017596253E+03  0.00000000000E+00 0. -1.
         21   -1    0    0  505  502 -0.00000000000E+00 -0.00000000000E+00 -0.58378812545E+02  0.58378812545E+02  0.00000000000E+00 0. -1.
         21    1    1    2  503  501 -0.58341259152E+02  0.51209158740E+02  0.12259978208E+03  0.14510956903E+03  0.00000000000E+00 0. -1.
         21    1    1    2  504  502 -0.27637243299E+02 -0.83196669618E+02  0.69791479102E+02  0.11205513646E+03  0.00000000000E+00 0. -1.
         21    1    1    2  505  503 -0.48061001765E+02 -0.64072241619E+00  0.66642299098E+02  0.82167307641E+02  0.00000000000E+00 0. -1.
         21    1    1    2  506  504  0.13403950422E+03  0.32628233294E+02  0.24276358971E+03  0.27922276195E+03  0.00000000000E+00 0. -1.
<scales pt_clust_3="34.86857" pt_clust_4="87.66700" pt_clust_5="34.86857" pt_clust_6="120.78441"></scales>
<clustering>
<clus scale="   34.869">  3  5 -1 -1</clus>
<clus scale="   87.667">  2  4  1 -1</clus>
<clus scale="  120.784">  2  6  1 -1</clus>
<clus scale="  128.656">  1  3  2 -1</clus>
</clustering>
</event>
<event>
 6    0  0.2908518E+002  0.1113619E+03  0.7546771E-02  0.1258068E+00
         21   -1    0    0  505  501  0.00000000000E+00  0.00000000000E+00  0.26928328489E+03  0.26928328489E+03  0.00000000000E+00 0. -1.
         21   -1    0    0  506  502 -0.00000000000E+00 -0.00000000000E+00 -0.15602252070E+03  0.15602252070E+03  0.00000000000E+00 0.  1.
         21    1    1    2  503  504  0.60876669756E+02 -0.81105103488E+01 -0.77151325355E+02  0.98610731174E+02  0.00000000000E+00 0.  1.
         21    1    1    2  504  501 -0.10147444093E+03 -0.28368841913E+02  0.20966948038E+03  0.23465537359E+03  0.00000000000E+00 0. -1.
         21    1    1    2  505  502 -0.94668538330E+01  0.36004327188E+02  0.27918352577E+01  0.37332656506E+02  0.00000000000E+00 0.  1.
         21    1    1    2  506  503  0.50064625007E+02  0.47502507471E+00 -0.22049226098E+02  0.54707044313E+02  0.00000000000E+00 0.  1.
<scales pt_clust_3="32.54599" pt_clust_4="105.36673" pt_clust_5="37.22812" pt_clust_6="32.54599"></scales>
<clustering>
<clus scale="   32.546">  3  6 -1 -1</clus>
<clus scale="   37.228">  2  5  1 -1</clus>
<clus scale="  105.367">  1  4  2 -1</clus>
<clus scale="  105.367">  1  3  2 -1</clus>
</clustering>
</event>
<event>
 6    0  0.2908518E+002  0.7962361E+02  0.7546771E-02  0.1330123E+00
         21   -1    0    0  505  501  0.00000000000E+00  0.00000000000E+00  0.53976231828E+02  0.53976231828E+02  0.00000000000E+00 0. -1.
         21   -1    0    0  503  502 -0.00000000000E+00 -0.00000000000E+00 -0.16358368053E+04  0.16358368053E+04  0.00000000000E+00 0.  1.
         21    1    1    2  503  506  0.15156746848E+02 -0.55054618413E+02 -0.79336339202E+03  0.79541574650E+03  0.00000000000E+00 0.  1.
         21    1    1    2  504  501 -0.42075976266E+02 -0.17797849504E+02  0.28970306890E+02  0.54096487012E+02  0.00000000000E+00 0. -1.
         21    1    1    2  505  502  0.81233930540E+02  0.66372958255E+02 -0.72739262308E+03  0.73491792002E+03  0.00000000000E+00 0. -1.
         21    1    1    2  506  504 -0.54314701122E+02  0.64795096613E+01 -0.90074865290E+02  0.10538288362E+03  0.00000000000E+00 0.  1.
<scales pt_clust_3="57.71797" pt_clust_4="45.68535" pt_clust_5="79.62361" pt_clust_6="14000.00000"></scales>
<clustering>
<clus scale="   45.685">  1  4  2 -1</clus>
<clus scale="   57.718">  2  3  1 -1</clus>
<clus scale="   79.624">  2  5  1 -1</clus>
<clus scale="   45.685">  1  3  2 -1</clus>
</clustering>
</event>
<event>
 6    0  0.2908518E+002  0.6381229E+02  0.7546771E-02  0.1382496E+00
         21   -1    0    0  506  501  0.00000000000E+00  0.00000000000E+00  0.78579247872E+03  0.78579247872E+03  0.00000000000E+00 0.  1.
         21   -1    0    0  503  502 -0.00000000000E+00 -0.00000000000E+00 -0.10885449684E+03  0.10885449684E+03  0.00000000000E+00 0.  1.
         21    1    1    2  503  501 -0.14761409287E+02  0.29539347342E+02  0.53191844325E+02  0.62608661927E+02  0.00000000000E+00 0.  1.
         21    1    1    2  504  505 -0.92595447244E+02 -0.54424189197E+02  0.13781520753E+03  0.17472532915E+03  0.00000000000E+00 0.  1.
         21    1    1    2  505  502  0.52546127480E+02  0.30506362328E+02 -0.73394044071E+02  0.95280739715E+02  0.00000000000E+00 0.  1.
         21    1    1    2  506  504  0.54810729051E+02 -0.56215204726E+01  0.55932497410E+03  0.56203224477E+03  0.00000000000E+00 0.  1.
<scales pt_clust_3="33.02230" pt_clust_4="63.81229" pt_clust_5="14000.00000" pt_clust_6="46.69656"></scales>
<clustering>
<clus scale="   33.022">  1  3  2 -1</clus>
<clus scale="   46.697">  1  6  2 -1</clus>
<clus scale="   63.812">  1  4  2 -1</clus>
<clus scale="   33.022">  1  3  2 -1</clus>
</clustering>
</event>
<event>
 6    0  0.2908518E+002  0.4333377E+03  0.7546771E-02  0.1032811E+00
         21   -1    0    0  503  501  0.00000000000E+00  0.00000000000E+00  0.24010031084E+04  0.24010031084E+04  0.00000000000E+00 0. -1.
         21   -1    0    0  505  502 -0.00000000000E+00 -0.00000000000E+00 -0.12492634494E+03  0.12492634494E+03  0.00000000000E+00 0. -1.
         21    1    1    2  503  502 -0.19018032241E+03 -0.50470624405E+02  0.46721461998E+03  0.50695694106E+03  0.00000000000E+00 0. -1.
         21    1    1    2  504  506 -0.12819777626E+03  0.11758752356E+03  0.52351100308E+03  0.55165683707E+03  0.00000000000E+00 0. -1.
         21    1    1    2  505  504  0.41097318736E+03 -0.24815125654E+03  0.70987735304E+03  0.85697366541E+03  0.00000000000E+00 0. -1.
         21    1    1    2  506  501 -0.92595088687E+02  0.18103435739E+03  0.57547378730E+03  0.61034200976E+03  0.00000000000E+00 0. -1.
<scales pt_clust_3="196.76341" pt_clust_4="62.38497" pt_clust_5="428.05645" pt_clust_6="62.38497"></scales>
<clustering>
<clus scale="   62.385">  4  6 -1 -1</clus>
<clus scale="  196.763">  1  3  2 -1</clus>
<clus scale="  428.056">  2  5  1 -1</clus>
<clus scale="  196.763">  1  3  2 -1</clus>
</clustering>
</event>
<event>
 6    0  0.2908518E+002  0.8438733E+02  0.7546771E-02  0.1317043E+00
         21   -1    0    0  505  501  0.00000000000E+00  0.00000000000E+00  0.30560431854E+03  0.30560431854E+03  0.00000000000E+00 0. -1.
         21   -1    0    0  503  502 -0.00000000000E+00 -0.00000000000E+00 -0.10129108712E+04  0.10129108712E+04  0.00000000000E+00 0.  1.
         21    1    1    2  503  506  0.14738868575E+02 -0.36819301598E+02 -0.23113420380E+03  0.23451207940E+03  0.00000000000E+00 0. -1.
         21    1    1    2  504  501  0.10872978947E+02 -0.84811067902E+02  0.29156340443E+03  0.30384265289E+03  0.00000000000E+00 0. -1.
         21    1    1    2  505  502 -0.23426900655E+02  0.68816717641E+02 -0.59752909962E+03  0.60193486790E+03  0.00000000000E+00 0.  1.
         21    1    1    2  506  504 -0.21849468671E+01  0.52813651860E+02 -0.17020665368E+03  0.17822558956E+03  0.00000000000E+00 0.  1.
<scales pt_clust_3="39.65974" pt_clust_4="14000.00000" pt_clust_5="42.27725" pt_clust_6="84.38733"></scales>
<clustering>
<clus scale="   39.660">  2  3  1 -1</clus>
<clus scale="   42.277">  2  5  1 -1</clus>
<clus scale="   84.387">  2  6  1 -1</clus>
<clus scale="   84.387">  1  3  2 -1</clus>
</clustering>
</event>
<event>
 6    0  0.2908518E+002  0.2295028E+03  0.7546771E-02  0.1126990E+00
         21   -1    0    0  505  501  0.00000000000E+00  0.00000000000E+00  0.10380761605E+04  0.10380761605E+04  0.00000000000E+00 0.  1.
         21   -1    0    0  501  502 -0.00000000000E+00 -0.00000000000E+00 -0.12756603181E+04  0.12756603181E+04  0.00000000000E+00 0.  1.
         21    1    1    2  503  506 -0.91124906172E+02 -0.16875277062E+02 -0.82468987283E+02  0.12405505779E+03  0.00000000000E+00 0.  1.
         21    1    1    2  504  502 -0.13655640982E+03 -0.15097767752E+03 -0.53632778009E+03  0.57366314146E+03  0.00000000000E+00 0.  1.
         21    1    1    2  505  503 -0.47051792995E+02  0.57399032300E+02  0.96160013260E+03  0.96446012626E+03  0.00000000000E+00 0.  1.
         21    1    1    2  506  504  0.27473310899E+03  0.11045392228E+03 -0.58038752288E+03  0.65155815307E+03  0.00000000000E+00 0.  1.
<scales pt_clust_3="104.16610" pt_clust_4="14000.00000" pt_clust_5="74.21941" pt_clust_6="229.50276"></scales>
<clustering>
<clus scale="   74.219">  1  5  2 -1</clus>
<clus scale="  104.166">  1  3  2 -1</clus>
<clus scale="  229.503">  1  6  2 -1</clus>
<clus scale="   74.219">  1  3  2 -1</clus>
</clustering>
</event>
<event>
 6    0  0.2908518E+002  0.1222030E+03  0.7546771E-02  0.1239506E+00
         21   -1    0    0  503  501  0.00000000000E+00  0.00000000000E+00  0.47709197004E+03  0.47709197004E+03  0.00000000000E+00 0.  1.
         21   -1    0    0  505  502 -0.00000000000E+00 -0.00000000000E+00 -0.45139425544E+03  0.45139425544E+03  0.00000000000E+00 0.  1.
         21    1    1    2  503  502 -0.33566605174E+02  0.84922701936E+01  0.39874585202E+03  0.40024628685E+03  0.00000000000E+00 0.  1.
         21    1    1    2  504  506 -0.59917991947E+02 -0.10710867090E+01 -0.24247478936E+03  0.24977056764E+03  0.00000000000E+00 0.  1.
         21    1    1    2  505  504 -0.51281366198E+02 -0.17387416653E+02 -0.12156725335E+03  0.13308154592E+03  0.00000000000E+00 0.  1.
         21    1    1    2  506  501  0.14476596332E+03  0.99662331680E+01 -0.90060947180E+01  0.14538782508E+03  0.00000000000E+00 0.  1.
<scales pt_clust_3="34.62421" pt_clust_4="35.07207" pt_clust_5="35.07207" pt_clust_6="116.57806"></scales>
<clustering>
<clus scale="   34.624">  1  3  2 -1</clus>
<clus scale="   35.072">  4  5 -1 -1</clus>
<clus scale="  116.578">  1  6  2 -1</clus>
<clus scale="   34.624">  1  3  2 -1</clus>
</clustering>
</event>
<event>
 6    0  0.2908518E+002  0.9740512E+02  0.7546771E-02  0.1285849E+00
         21   -1    0    0  504  501  0.00000000000E+00  0.00000000000E+00  0.46383133119E+03  0.46383133119E+03  0.00000000000E+00 0.  1.
         21   -1    0    0  505  502 -0.00000000000E+00 -0.00000000000E+00 -0.11653476316E+03  0.11653476316E+03  0.00000000000E+00 0. -1.
         21    1    1    2  503  501 -0.46968494118E+02  0.98453554837E+01  0.83638137536E+02  0.96427737268E+02  0.00000000000E+00 0.  1.
         21    1    1    2  504  502 -0.37339838374E+02 -0.44654417908E+02  0.25672114960E+03  0.26323759082E+03  0.00000000000E+00 0.  1.
         21    1    1    2  505  506  0.10197520264E+03 -0.26815945104E+02 -0.65374183419E+02  0.12406377684E+03  0.00000000000E+00 0. -1.
         21    1    1    2  506  503 -0.17666870152E+02  0.61625007529E+02  0.72311464311E+02  0.96636989422E+02  0.00000000000E+00 0.  1.
<scales pt_clust_3="47.98927" pt_clust_4="97.40512" pt_clust_5="14000.00000" pt_clust_6="69.83297"></scales>
<clustering>
<clus scale="   47.989">  1  3  2 -1</clus>
<clus scale="   69.833">  1  6  2 -1</clus>
<clus scale="   97.405">  1  4  2 -1</clus>
<clus scale="   47.989">  1  3  2 -1</clus>
</clustering>
</event>
<event>
 6    0  0.2908518E+002  0.1165128E+03  0.7546771E-02  0.1248963E+00
         21   -1    0    0  505  501  0.00000000000E+00  0.00000000000E+00  0.55699953276E+02  0.55699953276E+02  0.00000000000E+00 0.  1.
         21   -1    0    0  506  502 -0.00000000000E+00 -0.00000000000E+00 -0.53637794749E+03  0.53637794749E+03  0.00000000000E+00 0. -1.
         21    1    1    2  503  502  0.62810739335E+02  0.17632617938E+01 -0.26932677381E+03  0.27655959422E+03  0.00000000000E+00 0. -1.
         21    1    1    2  504  503  0.38359163031E+02  0.34686890752E+02 -0.57493714188E+02  0.77331319331E+02  0.00000000000E+00 0. -1.
         21    1    1    2  505  504 -0.69539425924E+00  0.45186281310E+02 -0.72038148571E+02  0.85039863836E+02  0.00000000000E+00 0.  1.
         21    1    1    2  506  501 -0.10047450811E+03 -0.81636433855E+02 -0.81819357650E+02  0.15314712338E+03  0.00000000000E+00 0.  1.
<scales pt_clust_3="62.83548" pt_clust_4="39.52310" pt_clust_5="39.52310" pt_clust_6="108.57080"></scales>
<clustering>
<clus scale="   39.523">  4  5 -1 -1</clus>
<clus scale="   62.835">  2  3  1 -1</clus>
<clus scale="  108.571">  1  6  2 -1</clus>
<clus scale="  108.571">  1  3  2 -1</clus>
</clustering>
</event>
<event>
 6    0  0.2908518E+002  0.7568262E+02  0.7546771E-02  0.1341770E+00
         21   -1    0    0  505  501  0.00000000000E+00  0.00000000000E+00  0.25994773978E+03  0.25994773978E+03  0.00000000000E+00 0. -1.
         21   -1    0    0  503  502 -0.00000000000E+00 -0.00000000000E+00 -0.10539104467E+03  0.10539104467E+03  0.00000000000E+00 0. -1.
         21    1    1    2  503  501 -0.14441158738E+01 -0.58872255102E+02  0.46397687014E+02  0.74971816382E+02  0.00000000000E+00 0. -1.
         21    1    1    2  504  502 -0.29869420703E+02 -0.39323077606E+02 -0.51611536667E+02  0.71429947800E+02  0.00000000000E+00 0. -1.
         21    1    1    2  505  506  0.41557376548E+02 -0.15562926366E+01  0.82337446207E+02  0.92243659079E+02  0.00000000000E+00 0. -1.
         21    1    1    2  506  504 -0.10243839971E+02  0.99751625344E+02  0.77433098561E+02  0.12669336119E+03  0.00000000000E+00 0. -1.
<scales pt_clust_3="75.68262" pt_clust_4="48.04921" pt_clust_5="41.58651" pt_clust_6="14000.00000"></scales>
<clustering>
<clus scale="   41.587">  1  5  2 -1</clus>
<clus scale="   48.049">  2  4  1 -1</clus>
<clus scale="   75.683">  1  3  2 -1</clus>
<clus scale="   41.587">  1  3  2 -1</clus>
</clustering>
</event>
<event>
 6    0  0.2908518E+002  0.1297991E+03  0.7546771E-02  0.1227754E+00
         21   -1    0    0  504  501  0.00000000000E+00  0.00000000000E+00  0.45480106363E+03  0.45480106363E+03  0.00000000000E+00 0. -1.
         21   -1    0    0  503  502 -0.00000000000E+00 -0.00000000000E+00 -0.51673001955E+03  0.51673001955E+03  0.00000000000E+00 0. -1.
         21    1    1    2  503  505 -0.55625619451E+02  0.15657631462E+03 -0.38036730701E+03  0.41507787231E+03  0.00000000000E+00 0. -1.
         21    1    1    2  504  502  0.55387767430E+02 -0.34072545377E+02  0.12413223995E+02  0.66202955065E+02  0.00000000000E+00 0. -1.
         21    1    1    2  505  506 -0.10364280810E+02 -0.89340268942E+02 -0.69158343295E+02  0.11345474172E+03  0.00000000000E+00 0. -1.
         21    1    1    2  506  501  0.10602132831E+02 -0.33163500302E+02  0.37518347040E+03  0.37679551408E+03  0.00000000000E+00 0. -1.
<scales pt_clust_3="129.79907" pt_clust_4="79.01414" pt_clust_5="14000.00000" pt_clust_6="34.81699"></scales>
<clustering>
<clus scale="   34.817">  1  6  2 -1</clus>
<clus scale="   79.014">  1  4  2 -1</clus>
<clus scale="  129.799">  2  3  1 -1</clus>
<clus scale="   34.817">  1  3  2 -1</clus>
</clustering>
</event>
<event>
 6    0  0.2908518E+002  0.1495134E+03  0.7546771E-02  0.1201072E+00
         21   -1    0    0  506  501  0.00000000000E+00  0.00000000000E+00  0.15183389076E+03  0.15183389076E+03  0.00000000000E+00 0.  1.
         21   -1    0    0  503  502 -0.00000000000E+00 -0.00000000000E+00 -0.77616255895E+03  0.77616255895E+03  0.00000000000E+00 0.  1.
         21    1    1    2  503  501  0.94510123697E+02  0.65870991946E+02 -0.15717861459E+03  0.19487500595E+03  0.00000000000E+00 0. -1.
         21    1    1    2  504  502 -0.44786992714E+02  0.49631484974E+01 -0.21117383079E+03  0.21592798422E+03  0.00000000000E+00 0.  1.
         21    1    1    2  505  504 -0.72090964196E+02  0.71643790693E+02 -0.33684555581E+03  0.35184494927E+03  0.00000000000E+00 0.  1.
         21    1    1    2  506  505  0.22367833213E+02 -0.14247793114E+03  0.80869333000E+02  0.16534851025E+03  0.00000000000E+00 0.  1.
<scales pt_clust_3="115.20048" pt_clust_4="33.37084" pt_clust_5="33.37084" pt_clust_6="140.86335"></scales>
<clustering>
<clus scale="   33.371">  4  5 -1 -1</clus>
<clus scale="  115.200">  2  3  1 -1</clus>
<clus scale="  140.863">  1  6  2 -1</clus>
<clus scale="  140.863">  1  3  2 -1</clus>
</clustering>
</event>
<event>
 6    0  0.2908518E+002  0.1011415E+03  0.7546771E-02  0.1277914E+00
         21   -1    0    0  504  501  0.00000000000E+00  0.00000000000E+00  0.95150071441E+03  0.95150071441E+03  0.00000000000E+00 0. -1.
         21   -1    0    0  506  502 -0.00000000000E+00 -0.00000000000E+00 -0.66709970291E+03  0.66709970291E+03  0.00000000000E+00 0.  1.
         21    1    1    2  503  502 -0.89372975260E+02  0.19246722215E+02 -0.35305360203E+03  0.36469824640E+03  0.00000000000E+00 0.  1.
         21    1    1    2  504  505 -0.18527199250E+02 -0.27026454951E+02  0.88325730307E+03  0.88386489341E+03  0.00000000000E+00 0. -1.
         21    1    1    2  505  503 -0.67480777104E+02  0.55397444652E+02 -0.12248619035E+03  0.15041741581E+03  0.00000000000E+00 0.  1.
         21    1    1    2  506  501  0.17538095161E+03 -0.47617711916E+02 -0.12331649919E+03  0.21961986169E+03  0.00000000000E+00 0.  1.
<scales pt_clust_3="101.14153" pt_clust_4="32.76715" pt_clust_5="86.98487" pt_clust_6="14000.00000"></scales>
<clustering>
<clus scale="   32.767">  1  4  2 -1</clus>
<clus scale="   86.985">  1  5  2 -1</clus>
<clus scale="  101.142">  2  3  1 -1</clus>
<clus scale="   32.767">  1  3  2 -1</clus>
</clustering>
</event>
<event>
 6    0  0.2908518E+002  0.1117832E+03  0.7546771E-02  0.1257303E+00
         21   -1    0    0  504  501  0.00000000000E+00  0.00000000000E+00  0.25404929350E+03  0.25404929350E+03  0.00000000000E+00 0. -1.
         21   -1    0    0  505  502 -0.00000000000E+00 -0.00000000000E+00 -0.44537017512E+03  0.44537017512E+03  0.00000000000E+00 0. -1.
         21    1    1    2  503  502 -0.25362189769E+02 -0.30760559582E+02 -0.77037376777E+02  0.86742204932E+02  0.00000000000E+00 0. -1.
         21    1    1    2  504  506  0.39148099168E+02 -0.22329345142E+02  0.22001735302E+03  0.22458586098E+03  0.00000000000E+00 0. -1.
         21    1    1    2  505  501  0.60441431042E+02  0.77739983901E+02 -0.26813543316E+03  0.28564537840E+03  0.00000000000E+00 0. -1.
         21    1    1    2  506  503 -0.74227340441E+02 -0.24650079177E+02 -0.66165424697E+02  0.10244602431E+03  0.00000000000E+00 0. -1.
<scales pt_clust_3="34.21579" pt_clust_4="45.06854" pt_clust_5="100.98892" pt_clust_6="34.21579"></scales>
<clustering>
<clus scale="   34.216">  3  6 -1 -1</clus>
<clus scale="   45.069">  1  4  2 -1</clus>
<clus scale="  100.989">  2  5  1 -1</clus>
<clus scale="   45.069">  1  3  2 -1</clus>
</clustering>
</event>
<event>
 6    0  0.2908518E+002  0.1607702E+03  0.7546771E-02  0.1187830E+00
         21   -1    0    0  505  501  0.00000000000E+00  0.00000000000E+00  0.41276921616E+03  0.41276921616E+03  0.00000000000E+00 0.  1.
         21   -1    0    0  503  502 -0.00000000000E+00 -0.00000000000E+00 -0.71188942584E+03  0.71188942584E+03  0.00000000000E+00 0. -1.
         21    1    1    2  503  501 -0.17945347146E+03 -0.69127159743E+02 -0.28276105719E+03  0.34195895675E+03  0.00000000000E+00 0. -1.
         21    1    1    2  504  502  0.19567005251E+02 -0.23756630407E+02 -0.51230264495E+02  0.59764414019E+02  0.00000000000E+00 0. -1.
         21    1    1    2  505  506  0.29981880580E+02  0.42780736968E+02  0.36286859370E+03  0.36660976653E+03  0.00000000000E+00 0.  1.
         21    1    1    2  506  504  0.12990458563E+03  0.50103053182E+02 -0.32799748169E+03  0.35632550470E+03  0.00000000000E+00 0. -1.
<scales pt_clust_3="14000.00000" pt_clust_4="30.77735" pt_clust_5="52.21746" pt_clust_6="160.77024"></scales>
<clustering>
<clus scale="   30.777">  2  4  1 -1</clus>
<clus scale="   52.217">  1  5  2 -1</clus>
<clus scale="  160.770">  2  6  1 -1</clus>
<clus scale="   52.217">  1  3  2 -1</clus>
</clustering>
</event>
<event>
 6    0  0.2908518E+002  0.1811172E+03  0.7546771E-02  0.1166726E+00
         21   -1    0    0  504  501  0.00000000000E+00  0.00000000000E+00  0.31107673831E+03  0.31107673831E+03  0.00000000000E+00 0.  1.
         21   -1    0    0  503  502 -0.00000000000E+00 -0.00000000000E+00 -0.18575623612E+03  0.18575623612E+03  0.00000000000E+00 0.  1.
         21    1    1    2  503  501  0.12104036314E+03  0.11032468811E+03  0.54299755534E+02  0.17254208115E+03  0.00000000000E+00 0.  1.
         21    1    1    2  504  505 -0.28510848076E+02  0.21536689397E+02  0.12925734057E+03  0.13410502429E+03  0.00000000000E+00 0.  1.
         21    1    1    2  505  506 -0.96032174921E+01 -0.85145847094E+02 -0.23299827230E+02  0.88797066463E+02  0.00000000000E+00 0.  1.
         21    1    1    2  506  502 -0.82926297570E+02 -0.46715530415E+02 -0.34936766690E+02  0.10138880253E+03  0.00000000000E+00 0.  1.
<scales pt_clust_3="161.16266" pt_clust_4="35.73090" pt_clust_5="75.84773" pt_clust_6="75.84773"></scales>
<clustering>
<clus scale="   35.731">  1  4  2 -1</clus>
<clus scale="   75.848">  5  6 -1 -1</clus>
<clus scale="  161.163">  1  3  2 -1</clus>
<clus scale="   35.731">  1  3  2 -1</clus>
</clustering>
</event>
<event>
 6    0  0.2908518E+002  0.1590833E+03  0.7546771E-02  0.1189736E+00
         21   -1    0    0  505  501  0.00000000000E+00  0.00000000000E+00  0.16404479471E+03  0.16404479471E+03  0.00000000000E+00 0. -1.
         21   -1    0    0  506  502 -0.00000000000E+00 -0.00000000000E+00 -0.88837203216E+03  0.88837203216E+03  0.00000000000E+00 0.  1.
         21    1    1    2  503  502 -0.80607469075E+02  0.51472784590E+02 -0.26904574704E+03  0.28553918404E+03  0.00000000000E+00 0.  1.
         21    1    1    2  504  501  0.15371466303E+03 -0.94644211023E+01  0.10088847355E+03  0.18410936150E+03  0.00000000000E+00 0. -1.
         21    1    1    2  505  503 -0.79689359618E+02  0.28488025536E+02 -0.16709789805E+03  0.18730635111E+03  0.00000000000E+00 0.  1.
         21    1    1    2  506  504  0.65821656646E+01 -0.70496389023E+02 -0.38907206592E+03  0.39546193021E+03  0.00000000000E+00 0.  1.
<scales pt_clust_3="33.55993" pt_clust_4="155.03124" pt_clust_5="33.55993" pt_clust_6="70.80301"></scales>
<clustering>
<clus scale="   33.560">  3  5 -1 -1</clus>
<clus scale="   70.803">  2  6  1 -1</clus>
<clus scale="  155.031">  1  4  2 -1</clus>
<clus scale="  155.031">  1  3  2 -1</clus>
</clustering>
</event>
<event>
 6    0  0.2908518E+002  0.1064013E+03  0.7546771E-02  0.1267383E+00
         21   -1    0    0  502  501  0.00000000000E+00  0.00000000000E+00  0.17983293866E+03  0.17983293866E+03  0.00000000000E+00 0. -1.
         21   -1    0    0  505  502 -0.00000000000E+00 -0.00000000000E+00 -0.22022310594E+04  0.22022310594E+04  0.00000000000E+00 0.  1.
         21    1    1    2  503  504 -0.71644567316E+02 -0.36705999466E+02 -0.50805215858E+03  0.51439019262E+03  0.00000000000E+00 0. -1.
         21    1    1    2  504  506  0.12854248155E+03  0.53730263208E+02 -0.64831204196E+03  0.66311282184E+03  0.00000000000E+00 0.  1.
         21    1    1    2  505  503 -0.25189239278E+02 -0.23518977779E+02 -0.10334602817E+04  0.10340347161E+04  0.00000000000E+00 0. -1.
         21    1    1    2  506  501 -0.31708674951E+02  0.64947140366E+01  0.16742636155E+03  0.17052626753E+03  0.00000000000E+00 0. -1.
<scales pt_clust_3="106.40130" pt_clust_4="14000.00000" pt_clust_5="34.96501" pt_clust_6="32.36698"></scales>
<clustering>
<clus scale="   32.367">  1  6  2 -1</clus>
<clus scale="   34.965">  2  5  1 -1</clus>
<clus scale="  106.401">  2  3  1 -1</clus>
<clus scale="   32.367">  1  3  2 -1</clus>
</clustering>
</event>
<event>
 6    0  0.2908518E+002  0.1727458E+03  0.7546771E-02  0.1175014E+00
         21   -1    0    0  502  501  0.00000000000E+00  0.00000000000E+00  0.96912872703E+03  0.96912872703E+03  0.00000000000E+00 0. -1.
         21   -1    0    0  505  502 -0.00000000000E+00 -0.00000000000E+00 -0.44494698036E+03  0.44494698036E+03  0.00000000000E+00 0. -1.
         21    1    1    2  503  506  0.19599722017E+02  0.58142787595E+02 -0.71608183368E+02  0.94299866265E+02  0.00000000000E+00 0.  1.
         21    1    1    2  504  501  0.42287363072E+02 -0.22348515494E+02  0.88268221398E+03  0.88397713098E+03  0.00000000000E+00 0. -1.
         21    1    1    2  505  503  0.58636347552E+02  0.87295731483E+02 -0.23244933714E+03  0.25513028109E+03  0.00000000000E+00 0. -1.
         21    1    1    2  506  504 -0.12052343264E+03 -0.12309000358E+03 -0.54442946808E+02  0.18066842905E+03  0.00000000000E+00 0.  1.
<scales pt_clust_3="37.24263" pt_clust_4="47.82967" pt_clust_5="37.24263" pt_clust_6="165.72233"></scales>
<clustering>
<clus scale="   37.243">  3  5 -1 -1</clus>
<clus scale="   47.830">  1  4  2 -1</clus>
<clus scale="  165.722">  1  6  2 -1</clus>
<clus scale="   47.830">  1  3  2 -1</clus>
</clustering>
</event>
<event>
 6    0  0.2908518E+002  0.8249948E+02  0.7546771E-02  0.1322104E+00
         21   -1    0    0  505  501  0.00000000000E+00  0.00000000000E+00  0.20877057813E+03  0.20877057813E+03  0.00000000000E+00 0. -1.
         21   -1    0    0  506  502 -0.00000000000E+00 -0.00000000000E+00 -0.38516323674E+03  0.38516323674E+03  0.00000000000E+00 0. -1.
         21    1    1    2  503  501  0.68642827651E+02 -0.23332677301E-01 -0.86696271339E+02  0.11058065742E+03  0.00000000000E+00 0. -1.
         21    1    1    2  504  502  0.19095056211E+02  0.41501471459E+02 -0.10386461748E+03  0.11346740531E+03  0.00000000000E+00 0. -1.
         21    1    1    2  505  504  0.48697664937E+00  0.32973896737E+02  0.17155754789E+03  0.17469833214E+03  0.00000000000E+00 0. -1.
         21    1    1    2  506  503 -0.88224860511E+02 -0.74452035518E+02 -0.15738931768E+03  0.19518742000E+03  0.00000000000E+00 0. -1.
<scales pt_clust_3="82.49948" pt_clust_4="49.77874" pt_clust_5="32.97749" pt_clust_6="14000.00000"></scales>
<clustering>
<clus scale="   32.977">  1  5  2 -1</clus>
<clus scale="   49.779">  2  4  1 -1</clus>
<clus scale="   82.499">  1  3  2 -1</clus>
<clus scale="   32.977">  1  3  2 -1</clus>
</clustering>
</event>
<event>
 6    0  0.2908518E+002  0.1171471E+03  0.7546771E-02  0.1247879E+00
         21   -1    0    0  506  501  0.00000000000E+00  0.00000000000E+00  0.60295801098E+03  0.60295801098E+03  0.00000000000E+00 0.  1.
         21   -1    0    0  504  502 -0.00000000000E+00 -0.00000000000E+00 -0.18987062219E+03  0.18987062219E+03  0.00000000000E+00 0.  1.
         21    1    1    2  503  502  0.42078569106E+02 -0.55417126734E+01  0.81742965360E+01  0.43221935186E+02  0.00000000000E+00 0. -1.
         21    1    1    2  504  505 -0.43649415319E+02 -0.53421609979E+02 -0.65387458010E+02  0.95050826064E+02  0.00000000000E+00 0. -1.
         21    1    1    2  505  501  0.27893961411E+02 -0.59443379880E+02 -0.72821434540E+02  0.98053810855E+02  0.00000000000E+00 0.  1.
         21    1    1    2  506  503 -0.26323115198E+02  0.11840670253E+03  0.54312198480E+03  0.55650206107E+03  0.00000000000E+00 0.  1.
<scales pt_clust_3="42.44192" pt_clust_4="60.95230" pt_clust_5="14000.00000" pt_clust_6="117.14705"></scales>
<clustering>
<clus scale="   42.442">  2  3  1 -1</clus>
<clus scale="   60.952">  2  4  1 -1</clus>
<clus scale="  117.147">  1  6  2 -1</clus>
<clus scale="  117.147">  1  3  2 -1</clus>
</clustering>
</event>
<event>
 6    0  0.2908518E+002  0.1271672E+03  0.7546771E-02  0.1231721E+00
         21   -1    0    0  506  501  0.00000000000E+00  0.00000000000E+00  0.52527815803E+03  0.52527815803E+03  0.00000000000E+00 0.  1.
         21   -1    0    0  504  502 -0.00000000000E+00 -0.00000000000E+00 -0.24684006478E+04  0.24684006478E+04  0.00000000000E+00 0. -1.
         21    1    1    2  503  505  0.12055110967E+03 -0.63368257876E+02 -0.69170643182E+03  0.70498644950E+03  0.00000000000E+00 0. -1.
         21    1    1    2  504  501 -0.87808431488E+02  0.86219778828E+02 -0.70137295948E+03  0.71208721319E+03  0.00000000000E+00 0. -1.
         21    1    1    2  505  502 -0.64928808977E+02 -0.31458600581E+02 -0.10615577010E+04  0.10640066477E+04  0.00000000000E+00 0. -1.
         21    1    1    2  506  503  0.32186130792E+02  0.86070796292E+01  0.51151460258E+03  0.51259849540E+03  0.00000000000E+00 0.  1.
<scales pt_clust_3="14000.00000" pt_clust_4="127.16715" pt_clust_5="69.12078" pt_clust_6="33.31710"></scales>
<clustering>
<clus scale="   33.317">  1  6  2 -1</clus>
<clus scale="   69.121">  2  5  1 -1</clus>
<clus scale="  127.167">  1  4  2 -1</clus>
<clus scale="   33.317">  1  3  2 -1</clus>
</clustering>
</event>
<event>
 6    0  0.2908518E+002  0.1450612E+03  0.7546771E-02  0.1206677E+00
         21   -1    0    0  505  501  0.00000000000E+00  0.00000000000E+00  0.92518689647E+02  0.92518689647E+02  0.00000000000E+00 0.  1.
         21   -1    0    0  504  502 -0.00000000000E+00 -0.00000000000E+00 -0.58667189064E+03  0.58667189064E+03  0.00000000000E+00 0.  1.
         21    1    1    2  503  502  0.18339745611E+02  0.11332205710E+03 -0.26862366838E+03  0.29212481940E+03  0.00000000000E+00 0.  1.
         21    1    1    2  504  506 -0.22256891395E+01 -0.57984008673E+02 -0.42903338052E+02  0.72165056433E+02  0.00000000000E+00 0.  1.
         21    1    1    2  505  503 -0.58500402478E+02  0.34012678458E+02  0.34761177802E+02  0.76075612835E+02  0.00000000000E+00 0.  1.
         21    1    1    2  506  501  0.42386346007E+02 -0.89350726890E+02 -0.21738737236E+03  0.23882509162E+03  0.00000000000E+00 0.  1.
<scales pt_clust_3="124.09485" pt_clust_4="57.54278" pt_clust_5="67.66949" pt_clust_6="57.54278"></scales>
<clustering>
<clus scale="   57.543">  4  6 -1 -1</clus>
<clus scale="   67.669">  1  5  2 -1</clus>
<clus scale="  124.095">  2  3  1 -1</clus>
<clus scale="   67.669">  1  3  2 -1</clus>
</clustering>
</event>
<event>
 6    0  0.2908518E+002  0.1814803E+03  0.7546771E-02  0.1166378E+00
         21   -1    0    0  506  501  0.00000000000E+00  0.00000000000E+00  0.73301954667E+03  0.73301954667E+03  0.00000000000E+00 0. -1.
         21   -1    0    0  504  502 -0.00000000000E+00 -0.00000000000E+00 -0.45445735726E+02  0.45445735726E+02  0.00000000000E+00 0. -1.
         21    1    1    2  503  502 -0.44687796906E+02 -0.25090227281E+02  0.12187025801E+03  0.13220770963E+03  0.00000000000E+00 0. -1.
         21    1    1    2  504  505  0.92243835674E+02  0.10337223128E+03  0.20533796608E+03  0.24770632558E+03  0.00000000000E+00 0. -1.
         21    1    1    2  505  501  0.11381740197E+01  0.41192264788E+02  0.89098729190E+02  0.98166601560E+02  0.00000000000E+00 0.  1.
         21    1    1    2  506  503 -0.48694212787E+02 -0.11947426879E+03  0.27126685766E+03  0.30038464563E+03  0.00000000000E+00 0. -1.
<scales pt_clust_3="34.29159" pt_clust_4="31.40536" pt_clust_5="31.40536" pt_clust_6="180.49752"></scales>
<clustering>
<clus scale="   31.405">  4  5 -1 -1</clus>
<clus scale="   34.292">  3  6 -1 -1</clus>
<clus scale="  180.498">  1  3  2 -1</clus>
<clus scale="  180.498">  1  3  2 -1</clus>
</clustering>
</event>
<event>
 6    0  0.2908518E+002  0.3764982E+03  0.7546771E-02  0.1052236E+00
         21   -1    0    0  502  501  0.00000000000E+00  0.00000000000E+00  0.20131748614E+03  0.20131748614E+03  0.00000000000E+00 0. -1.
         21   -1    0    0  503  502 -0.00000000000E+00 -0.00000000000E+00 -0.92649626163E+03  0.92649626163E+03  0.00000000000E+00 0. -1.
         21    1    1    2  503  505  0.78224542826E+02 -0.21457649670E+03 -0.42049065757E+03  0.47851284741E+03  0.00000000000E+00 0. -1.
         21    1    1    2  504  501  0.13136500234E+02  0.69574038012E+02  0.23408951281E+02  0.74572739012E+02  0.00000000000E+00 0. -1.
         21    1    1    2  505  506  0.35510644536E+01 -0.13250792524E+03 -0.23000344129E+03  0.26546665199E+03  0.00000000000E+00 0. -1.
         21    1    1    2  506  504 -0.94912107514E+02  0.27751038392E+03 -0.98093627903E+02  0.30926150936E+03  0.00000000000E+00 0. -1.
<scales pt_clust_3="361.05806" pt_clust_4="59.36013" pt_clust_5="43.15016" pt_clust_6="59.36013"></scales>
<clustering>
<clus scale="   43.150">  3  5 -1 -1</clus>
<clus scale="   59.360">  4  6 -1 -1</clus>
<clus scale="  361.058">  2  3  1 -1</clus>
<clus scale="  376.498">  1  3  2 -1</clus>
</clustering>
</event>
<event>
 6    0  0.2908518E+002  0.1485457E+03  0.7546771E-02  0.1202272E+00
         21   -1    0    0  506  501  0.00000000000E+00  0.00000000000E+00  0.30385010045E+03  0.30385010045E+03  0.00000000000E+00 0. -1.
         21   -1    0    0  503  502 -0.00000000000E+00 -0.00000000000E+00 -0.20143600697E+03  0.20143600697E+03  0.00000000000E+00 0. -1.
         21    1    1    2  503  505  0.13828064129E+02 -0.63317123641E+02 -0.87866770251E+01  0.65402440297E+02  0.00000000000E+00 0. -1.
         21    1    1    2  504  501  0.11773691878E+03  0.11943444534E+03  0.19244536471E+03  0.25526806924E+03  0.00000000000E+00 0. -1.
         21    1    1    2  505  504 -0.72635144314E+02 -0.44913618438E+02 -0.89914466749E+02  0.12400688949E+03  0.00000000000E+00 0. -1.
         21    1    1    2  506  502 -0.58929838590E+02 -0.11203703264E+02  0.86698725480E+01  0.60608708393E+02  0.00000000000E+00 0. -1.
<scales pt_clust_3="65.69993" pt_clust_4="14000.00000" pt_clust_5="148.54568" pt_clust_6="59.98541"></scales>
<clustering>
<clus scale="   59.985">  2  6  1 -1</clus>
<clus scale="   65.700">  2  3  1 -1</clus>
<clus scale="  148.546">  2  5  1 -1</clus>
<clus scale="  148.546">  1  3  2 -1</clus>
</clustering>
</event>
<event>
 6    0  0.2908518E+002  0.4539058E+03  0.7546771E-02  0.1026564E+00
         21   -1    0    0  504  501  0.00000000000E+00  0.00000000000E+00  0.10045635322E+04  0.10045635322E+04  0.00000000000E+00 0.  1.
         21   -1    0    0  506  502 -0.00000000000E+00 -0.00000000000E+00 -0.19433952178E+03  0.19433952178E+03  0.00000000000E+00 0. -1.
         21    1    1    2  503  501  0.96769915077E+02  0.27369098066E+01  0.97129632540E+02  0.13713523492E+03  0.00000000000E+00 0. -1.
         21    1    1    2  504  505 -0.27843839808E+03 -0.75296643001E+02  0.40212893699E+03  0.49487898312E+03  0.00000000000E+00 0.  1.
         21    1    1    2  505  502 -0.12246837666E+03  0.10496445636E+03  0.15441715194E+03  0.22329508995E+03  0.00000000000E+00 0.  1.
         21    1    1    2  506  503  0.30413685967E+03 -0.32404723168E+02  0.15654828892E+03  0.34359374595E+03  0.00000000000E+00 0. -1.
<scales pt_clust_3="40.34033" pt_clust_4="157.61287" pt_clust_5="157.61287" pt_clust_6="408.34773"></scales>
<clustering>
<clus scale="   40.340">  3  6 -1 -1</clus>
<clus scale="  157.613">  4  5 -1 -1</clus>
<clus scale="  408.348">  2  3  1 -1</clus>
<clus scale="  453.906">  1  3  2 -1</clus>
</clustering>
</event>
<event>
 6    0  0.2908518E+002  0.8103438E+02  0.7546771E-02  0.1326141E+00
         21   -1    0    0  503  501  0.00000000000E+00  0.00000000000E+00  0.14284930900E+04  0.14284930900E+04  0.00000000000E+00 0. -1.
         21   -1    0    0  506  502 -0.00000000000E+00 -0.00000000000E+00 -0.43687837503E+03  0.43687837503E+03  0.00000000000E+00 0.  1.
         21    1    1    2  503  505 -0.11556653688E+02 -0.38872755002E+02  0.13926846628E+04  0.13932749970E+04  0.00000000000E+00 0. -1.
         21    1    1    2  504  501  0.55482841995E+02  0.28655292168E+02 -0.52668213307E+02  0.81690955546E+02  0.00000000000E+00 0. -1.
         21    1    1    2  505  502 -0.70963586771E+01  0.84777113666E+02 -0.11811251017E+03  0.14556126671E+03  0.00000000000E+00 0.  1.
         21    1    1    2  506  504 -0.36829829630E+02 -0.74559650832E+02 -0.23028922429E+03  0.24484424581E+03  0.00000000000E+00 0. -1.
<scales pt_clust_3="40.55425" pt_clust_4="52.34252" pt_clust_5="81.03438" pt_clust_6="14000.00000"></scales>
<clustering>
<clus scale="   40.554">  1  3  2 -1</clus>
<clus scale="   52.343">  1  4  2 -1</clus>
<clus scale="   81.034">  1  5  2 -1</clus>
<clus scale="   40.554">  1  3  2 -1</clus>
</clustering>
</event>
<event>
 6    0  0.2908518E+002  0.1683677E+03  0.7546771E-02  0.1179561E+00
         21   -1    0    0  503  501  0.00000000000E+00  0.00000000000E+00  0.22332736163E+04  0.22332736163E+04  0.00000000000E+00 0.  1.
         21   -1    0    0  505  502 -0.00000000000E+00 -0.00000000000E+00 -0.52661790316E+03  0.52661790316E+03  0.00000000000E+00 0.  1.
         21    1    1    2  503  506 -0.39296263299E+01  0.53621505898E+02  0.20430221426E+04  0.20437294789E+04  0.00000000000E+00 0.  1.
         21    1    1    2  504  502 -0.72297944486E+02 -0.18847477973E+03 -0.18160043965E+03  0.27152984192E+03  0.00000000000E+00 0.  1.
         21    1    1    2  505  501  0.14722494219E+03  0.78438291593E+02 -0.25799580573E+03  0.30722888042E+03  0.00000000000E+00 0.  1.
         21    1    1    2  506  504 -0.70997371373E+02  0.56414982239E+02  0.10322981597E+03  0.13740331826E+03  0.00000000000E+00 0.  1.
<scales pt_clust_3="53.76530" pt_clust_4="14000.00000" pt_clust_5="168.36770" pt_clust_6="116.49247"></scales>
<clustering>
<clus scale="   53.765">  1  3  2 -1</clus>
<clus scale="  116.492">  1  6  2 -1</clus>
<clus scale="  168.368">  2  5  1 -1</clus>
<clus scale="   53.765">  1  3  2 -1</clus>
</clustering>
</event>
<event>
 6    0  0.2908518E+002  0.1150614E+03  0.7546771E-02  0.1251474E+00
         21   -1    0    0  505  501  0.00000000000E+00  0.00000000000E+00  0.13051445393E+03  0.13051445393E+03  0.00000000000E+00 0. -1.
         21   -1    0    0  504  502 -0.00000000000E+00 -0.00000000000E+00 -0.52604495722E+03  0.52604495722E+03  0.00000000000E+00 0.  1.
         21    1    1    2  503  502  0.67161394564E+01  0.82072564360E+02 -0.10319178750E+03  0.13202104891E+03  0.00000000000E+00 0. -1.
         21    1    1    2  504  501 -0.60288408190E+02 -0.59950334424E+02 -0.31786463117E+03  0.32903899238E+03  0.00000000000E+00 0.  1.
         21    1    1    2  505  506 -0.40834397094E+01 -0.65698163396E+02  0.81013565591E+02  0.10438448622E+03  0.00000000000E+00 0. -1.
         21    1    1    2  506  503  0.57655708443E+02  0.43575933461E+02 -0.55487650222E+02  0.91114883637E+02  0.00000000000E+00 0. -1.
<scales pt_clust_3="64.08304" pt_clust_4="92.51985" pt_clust_5="65.82494" pt_clust_6="64.08304"></scales>
<clustering>
<clus scale="   64.083">  3  6 -1 -1</clus>
<clus scale="   65.825">  1  5  2 -1</clus>
<clus scale="   92.520">  2  4  1 -1</clus>
<clus scale="   65.825">  1  3  2 -1</clus>
</clustering>
</event>
<event>
 6    0  0.2908518E+002  0.8917571E+02  0.7546771E-02  0.1304860E+00
         21   -1    0    0  504  501  0.00000000000E+00  0.00000000000E+00  0.15587478157E+03  0.15587478157E+03  0.00000000000E+00 0.  1.
         21   -1    0    0  503  502 -0.00000000000E+00 -0.00000000000E+00 -0.15572665233E+03  0.15572665233E+03  0.00000000000E+00 0.  1.
         21    1    1    2  503  501 -0.55386213229E+02 -0.55431309929E+02 -0.33600570178E+02  0.85259961603E+02  0.00000000000E+00 0.  1.
         21    1    1    2  504  505 -0.49320719416E+02  0.53395732278E+02  0.79162879140E+02  0.10747278271E+03  0.00000000000E+00 0.  1.
         21    1    1    2  505  506  0.51156206142E+02  0.11056298160E+02 -0.80542870446E+01  0.52953476710E+02  0.00000000000E+00 0.  1.
         21    1    1    2  506  502  0.53550726503E+02 -0.90207205088E+01 -0.37359892684E+02  0.65915212879E+02  0.00000000000E+00 0.  1.
<scales pt_clust_3="82.78089" pt_clust_4="72.68863" pt_clust_5="32.55435" pt_clust_6="32.55435"></scales>
<clustering>
<clus scale="   32.554">  5  6 -1 -1</clus>
<clus scale="   72.689">  1  4  2 -1</clus>
<clus scale="   82.781">  2  3  1 -1</clus>
<clus scale="   72.689">  1  3  2 -1</clus>
</clustering>
</event>
<event>
 6    0  0.2908518E+002  0.9020014E+02  0.7546771E-02  0.1302368E+00
         21   -1    0    0  506  501  0.00000000000E+00  0.00000000000E+00  0.77972398381E+02  0.77972398381E+02  0.00000000000E+00 0. -1.
         21   -1    0    0  504  502 -0.00000000000E+00 -0.00000000000E+00 -0.40528799189E+03  0.40528799189E+03  0.00000000000E+00 0. -1.
         21    1    1    2  503  502 -0.14579291688E+02 -0.32105737201E+02 -0.70238872891E+02  0.78592832831E+02  0.00000000000E+00 0. -1.
         21    1    1    2  504  505  0.85461229875E+02  0.27910240652E+02 -0.15308689968E+03  0.17753366498E+03  0.00000000000E+00 0. -1.
         21    1    1    2  505  501  0.26573801475E+02  0.17376509100E+02  0.41050615756E+02  0.51896657381E+02  0.00000000000E+00 0. -1.
         21    1    1    2  506  503 -0.97455739661E+02 -0.13181012551E+02 -0.14504043669E+03  0.17523723508E+03  0.00000000000E+00 0. -1.
<scales pt_clust_3="31.78600" pt_clust_4="14000.00000" pt_clust_5="31.75075" pt_clust_6="90.20014"></scales>
<clustering>
<clus scale="   31.751">  1  5  2 -1</clus>
<clus scale="   31.786">  2  3  1 -1</clus>
<clus scale="   90.200">  1  6  2 -1</clus>
<clus scale="   31.751">  1  3  2 -1</clus>
</clustering>
</event>
<event>
 6    0  0.2908518E+002  0.2185680E+03  0.7546771E-02  0.1134955E+00
         21   -1    0    0  506  501  0.00000000000E+00  0.00000000000E+00  0.15741595493E+03  0.15741595493E+03  0.00000000000E+00 0.  1.
         21   -1    0    0  505  502 -0.00000000000E+00 -0.00000000000E+00 -0.47999398891E+03  0.47999398891E+03  0.00000000000E+00 0.  1.
         21    1    1    2  503  501  0.15981697333E+03  0.11611913722E+03  0.27725667732E+02  0.19948391325E+03  0.00000000000E+00 0.  1.
         21    1    1    2  504  502 -0.11352499645E+03 -0.17231061383E+02 -0.19910617297E+03  0.22984364775E+03  0.00000000000E+00 0.  1.
         21    1    1    2  505  503  0.27772753763E+02 -0.19617861095E+02 -0.43541000974E+02  0.55244955348E+02  0.00000000000E+00 0.  1.
         21    1    1    2  506  504 -0.74064730641E+02 -0.79270214746E+02 -0.10765652777E+03  0.15283742749E+03  0.00000000000E+00 0.  1.
<scales pt_clust_3="199.83220" pt_clust_4="86.75623" pt_clust_5="34.00274" pt_clust_6="86.75623"></scales>
<clustering>
<clus scale="   34.003">  2  5  1 -1</clus>
<clus scale="   86.756">  4  6 -1 -1</clus>
<clus scale="  199.832">  1  3  2 -1</clus>
<clus scale="  199.832">  1  3  2 -1</clus>
</clustering>
</event>
<event>
 6    0  0.2908518E+002  0.9603893E+02  0.7546771E-02  0.1288853E+00
         21   -1    0    0  504  501  0.00000000000E+00  0.00000000000E+00  0.24242572952E+02  0.24242572952E+02  0.00000000000E+00 0. -1.
         21   -1    0    0  503  502 -0.00000000000E+00 -0.00000000000E+00 -0.15213915157E+04  0.15213915157E+04  0.00000000000E+00 0.  1.
         21    1    1    2  503  506  0.26353415983E+02 -0.26897692897E+02 -0.21884364737E+03  0.22205974514E+03  0.00000000000E+00 0.  1.
         21    1    1    2  504  502  0.11087275980E+03  0.23840367251E+02 -0.90405417488E+03  0.91113944217E+03  0.00000000000E+00 0.  1.
         21    1    1    2  505  501 -0.93907165736E+02 -0.85333495074E-02 -0.10997076229E+03  0.14461025001E+03  0.00000000000E+00 0. -1.
         21    1    1    2  506  505 -0.43319010047E+02  0.30658589950E+01 -0.26428035821E+03  0.26782465132E+03  0.00000000000E+00 0. -1.
<scales pt_clust_3="37.65619" pt_clust_4="96.03893" pt_clust_5="14000.00000" pt_clust_6="38.00760"></scales>
<clustering>
<clus scale="   37.656">  2  3  1 -1</clus>
<clus scale="   38.008">  2  6  1 -1</clus>
<clus scale="   96.039">  2  4  1 -1</clus>
<clus scale="   96.039">  1  3  2 -1</clus>
</clustering>
</event>
<event>
 6    0  0.2908518E+002  0.8094263E+02  0.7546771E-02  0.1326397E+00
         21   -1    0    0  504  501  0.00000000000E+00  0.00000000000E+00  0.31507252673E+03  0.31507252673E+03  0.00000000000E+00 0. -1.
         21   -1    0    0  503  502 -0.00000000000E+00 -0.00000000000E+00 -0.64814416627E+03  0.64814416627E+03  0.00000000000E+00 0. -1.
         21    1    1    2  503  501  0.69423600553E+02  0.68071077858E+01 -0.13147812657E+03  0.14883706123E+03  0.00000000000E+00 0. -1.
         21    1    1    2  504  505  0.43932029294E+02  0.31137572820E+02  0.29457566548E+03  0.29945683217E+03  0.00000000000E+00 0. -1.
         21    1    1    2  505  506 -0.73207098369E+02 -0.57449828027E+02 -0.33278445355E+03  0.34555065405E+03  0.00000000000E+00 0. -1.
         21    1    1    2  506  502 -0.40148531478E+02  0.19505147422E+02 -0.16338472491E+03  0.16937214555E+03  0.00000000000E+00 0. -1.
<scales pt_clust_3="14000.00000" pt_clust_4="53.73924" pt_clust_5="80.94263" pt_clust_6="44.63581"></scales>
<clustering>
<clus scale="   44.636">  2  6  1 -1</clus>
<clus scale="   53.739">  1  4  2 -1</clus>
<clus scale="   80.943">  1  5  2 -1</clus>
<clus scale="   53.739">  1  3  2 -1</clus>
</clustering>
</event>
<event>
 6    0  0.2908518E+002  0.1073857E+03  0.7546771E-02  0.1265489E+00
         21   -1    0    0  505  501  0.00000000000E+00  0.00000000000E+00  0.10240019462E+03  0.10240019462E+03  0.00000000000E+00 0. -1.
         21   -1    0    0  504  502 -0.00000000000E+00 -0.00000000000E+00 -0.37530209746E+03  0.37530209746E+03  0.00000000000E+00 0. -1.
         21    1    1    2  503  501  0.45042762654E+02  0.81231487969E+02  0.24358775734E+02  0.96024762747E+02  0.00000000000E+00 0. -1.
         21    1    1    2  504  503 -0.35111554563E+02  0.38406179395E+02 -0.23268429319E+03  0.23843203681E+03  0.00000000000E+00 0. -1.
         21    1    1    2  505  506 -0.12669596374E+02 -0.45626956540E+02 -0.39201177594E+01  0.47515314990E+02  0.00000000000E+00 0. -1.
         21    1    1    2  506  502  0.27383882823E+01 -0.74010710825E+02 -0.60656267628E+02  0.95730177529E+02  0.00000000000E+00 0. -1.
<scales pt_clust_3="97.95066" pt_clust_4="52.03706" pt_clust_5="35.19531" pt_clust_6="35.19531"></scales>
<clustering>
<clus scale="   35.195">  5  6 -1 -1</clus>
<clus scale="   52.037">  2  4  1 -1</clus>
<clus scale="   97.951">  1  3  2 -1</clus>
<clus scale="   97.951">  1  3  2 -1</clus>
</clustering>
</event>
<event>
 6    0  0.2908518E+002  0.8535508E+02  0.7546771E-02  0.1314507E+00
         21   -1    0    0  506  501  0.00000000000E+00  0.00000000000E+00  0.10397013428E+04  0.10397013428E+04  0.00000000000E+00 0.  1.
         21   -1    0    0  503  502 -0.00000000000E+00 -0.00000000000E+00 -0.14501610122E+03  0.14501610122E+03  0.00000000000E+00 0. -1.
         21    1    1    2  503  505 -0.34439501070E+02  0.36151216749E+02 -0.55208213872E+02  0.74437467617E+02  0.00000000000E+00 0. -1.
         21    1    1    2  504  501  0.11791191170E+02  0.83300197038E+02  0.13015758917E+02  0.85131457146E+02  0.00000000000E+00 0. -1.
         21    1    1    2  505  504 -0.36609833523E+02 -0.55665443698E+02 -0.15822555248E+02  0.68478279675E+02  0.00000000000E+00 0. -1.
         21    1    1    2  506  502  0.59258143423E+02 -0.63785970088E+02  0.95270025183E+03  0.95667023962E+03  0.00000000000E+00 0.  1.
<scales pt_clust_3="49.92985" pt_clust_4="85.35508" pt_clust_5="65.86051" pt_clust_6="14000.00000"></scales>
<clustering>
<clus scale="   49.930">  2  3  1 -1</clus>
<clus scale="   65.861">  2  5  1 -1</clus>
<clus scale="   85.355">  2  4  1 -1</clus>
<clus scale="   85.355">  1  3  2 -1</clus>
</clustering>
</event>
<event>
 6    0  0.2908518E+002  0.1032012E+03  0.7546771E-02  0.1273705E+00
         21   -1    0    0  506  501  0.00000000000E+00  0.00000000000E+00  0.29589833949E+03  0.29589833949E+03  0.00000000000E+00 0.  1.
         21   -1    0    0  504  502 -0.00000000000E+00 -0.00000000000E+00 -0.71895262327E+03  0.71895262327E+03  0.00000000000E+00 0. -1.
         21    1    1    2  503  501  0.77030556765E+02  0.67027073463E+02  0.24148977272E+03  0.26219009436E+03  0.00000000000E+00 0.  1.
         21    1    1    2  504  505 -0.44087455446E+02 -0.11330616612E+01 -0.36161255980E+03  0.36429195841E+03  0.00000000000E+00 0. -1.
         21    1    1    2  505  503  0.82401975095E+02  0.38855151468E+01 -0.37399300371E+02  0.90575329951E+02  0.00000000000E+00 0.  1.
         21    1    1    2  506  502 -0.11534507641E+03 -0.69779526948E+02 -0.26553219633E+03  0.29779358005E+03  0.00000000000E+00 0.  1.
<scales pt_clust_3="103.20119" pt_clust_4="44.10201" pt_clust_5="74.56867" pt_clust_6="14000.00000"></scales>
<clustering>
<clus scale="   44.102">  2  4  1 -1</clus>
<clus scale="   74.569">  2  5  1 -1</clus>
<clus scale="  103.201">  1  3  2 -1</clus>
<clus scale="  103.201">  1  3  2 -1</clus>
</clustering>
</event>
<event>
 6    0  0.2908518E+002  0.1557171E+03  0.7546771E-02  0.1193619E+00
         21   -1    0    0  504  501  0.00000000000E+00  0.00000000000E+00  0.57445536588E+03  0.57445536588E+03  0.00000000000E+00 0.  1.
         21   -1    0    0  505  502 -0.00000000000E+00 -0.00000000000E+00 -0.67280323888E+03  0.67280323888E+03  0.00000000000E+00 0. -1.
         21    1    1    2  503  502  0.13887113471E+02 -0.28892245103E+02 -0.19249216640E+03  0.19514314713E+03  0.00000000000E+00 0. -1.
         21    1    1    2  504  503  0.15939022584E+03  0.29805940789E+02 -0.36651728376E+03  0.40078492673E+03  0.00000000000E+00 0. -1.
         21    1    1    2  505  506 -0.46911116390E+02 -0.94192292608E+02 -0.50402380805E+02  0.11667579363E+03  0.00000000000E+00 0. -1.
         21    1    1    2  506  501 -0.12636622292E+03  0.93278596922E+02  0.51106395797E+03  0.53465473727E+03  0.00000000000E+00 0.  1.
<scales pt_clust_3="32.05642" pt_clust_4="14000.00000" pt_clust_5="108.74805" pt_clust_6="155.71705"></scales>
<clustering>
<clus scale="   32.056">  2  3  1 -1</clus>
<clus scale="  108.748">  2  5  1 -1</clus>
<clus scale="  155.717">  1  6  2 -1</clus>
<clus scale="  155.717">  1  3  2 -1</clus>
</clustering>
</event>
<event>
 6    0  0.2908518E+002  0.1274149E+03  0.7546771E-02  0.1231343E+00
         21   -1    0    0  503  501  0.00000000000E+00  0.00000000000E+00  0.40974181726E+03  0.40974181726E+03  0.00000000000E+00 0.  1.
         21   -1    0    0  505  502 -0.00000000000E+00 -0.00000000000E+00 -0.10442913301E+03  0.10442913301E+03  0.00000000000E+00 0.  1.
         21    1    1    2  503  502 -0.10602789351E+03  0.33185647846E-02  0.28755155248E+03  0.30647644207E+03  0.00000000000E+00 0.  1.
         21    1    1    2  504  501  0.37404541699E+01 -0.58319972556E+02  0.45585596047E+02  0.74116508034E+02  0.00000000000E+00 0.  1.
         21    1    1    2  505  506  0.89401116771E+02  0.23928318214E+02 -0.11051755813E+02  0.93205500905E+02  0.00000000000E+00 0.  1.
         21    1    1    2  506  504  0.12886322570E+02  0.34388335777E+02 -0.16772708460E+02  0.40372499254E+02  0.00000000000E+00 0.  1.
<scales pt_clust_3="114.14569" pt_clust_4="58.43980" pt_clust_5="35.66358" pt_clust_6="35.66358"></scales>
<clustering>
<clus scale="   35.664">  5  6 -1 -1</clus>
<clus scale="   58.440">  1  4  2 -1</clus>
<clus scale="  114.146">  1  3  2 -1</clus>
<clus scale="   58.440">  1  3  2 -1</clus>
</clustering>
</event>
<event>
 6    0  0.2908518E+002  0.1470902E+03  0.7546771E-02  0.1204095E+00
         21   -1    0    0  504  501  0.00000000000E+00  0.00000000000E+00  0.27957059153E+03  0.27957059153E+03  0.00000000000E+00 0. -1.
         21   -1    0    0  503  502 -0.00000000000E+00 -0.00000000000E+00 -0.12700299869E+04  0.12700299869E+04  0.00000000000E+00 0. -1.
         21    1    1    2  503  505  0.34723316380E+02  0.19582525269E+02 -0.20104174199E+03  0.20495600996E+03  0.00000000000E+00 0.  1.
         21    1    1    2  504  502 -0.29162231184E+02  0.14673296705E+02  0.18647320154E+03  0.18930926089E+03  0.00000000000E+00 0. -1.
         21    1    1    2  505  506  0.93513489190E+01 -0.16141715951E+03 -0.10099813219E+04  0.10228417364E+04  0.00000000000E+00 0. -1.
         21    1    1    2  506  501 -0.14912434115E+02  0.12716133754E+03  0.34090467016E+02  0.13249357116E+03  0.00000000000E+00 0. -1.
<scales pt_clust_3="39.48043" pt_clust_4="32.64569" pt_clust_5="14000.00000" pt_clust_6="147.09016"></scales>
<clustering>
<clus scale="   32.646">  1  4  2 -1</clus>
<clus scale="   39.480">  2  3  1 -1</clus>
<clus scale="  147.090">  1  6  2 -1</clus>
<clus scale="   32.646">  1  3  2 -1</clus>
</clustering>
</event>
<event>
 6    0  0.2908518E+002  0.2514745E+03  0.7546771E-02  0.1112377E+00
         21   -1    0    0  505  501  0.00000000000E+00  0.00000000000E+00  0.94671815120E+03  0.94671815120E+03  0.00000000000E+00 0. -1.
         21   -1    0    0  504  502 -0.00000000000E+00 -0.00000000000E+00 -0.31219929312E+03  0.31219929312E+03  0.00000000000E+00 0. -1.
         21    1    1    2  503  502  0.17283918574E+02  0.13700370582E+03 -0.17550709536E+01  0.13810079480E+03  0.00000000000E+00 0. -1.
         21    1    1    2  504  506  0.41922810037E+02 -0.21511313829E+03 -0.14741304447E+03  0.26412457278E+03  0.00000000000E+00 0. -1.
         21    1    1    2  505  503 -0.58690609301E+02  0.10967131393E+03  0.70838316918E+02  0.14314486321E+03  0.00000000000E+00 0. -1.
         21    1    1    2  506  501 -0.51611930996E+00 -0.31561881458E+02  0.71284865659E+03  0.71354721354E+03  0.00000000000E+00 0. -1.
<scales pt_clust_3="101.07398" pt_clust_4="226.88294" pt_clust_5="101.07398" pt_clust_6="31.56610"></scales>
<clustering>
<clus scale="   31.566">  1  6  2 -1</clus>
<clus scale="  101.074">  3  5 -1 -1</clus>
<clus scale="  226.883">  2  4  1 -1</clus>
<clus scale="   31.566">  1  3  2 -1</clus>
</clustering>
</event>
<event>
 6    0  0.2908518E+002  0.1524222E+03  0.7546771E-02  0.1197528E+00
         21   -1    0    0  505  501  0.00000000000E+00  0.00000000000E+00  0.33559694921E+03  0.33559694921E+03  0.00000000000E+00 0. -1.
         21   -1    0    0  501  502 -0.00000000000E+00 -0.00000000000E+00 -0.35066355120E+03  0.35066355120E+03  0.00000000000E+00 0. -1.
         21    1    1    2  503  502  0.38400348608E+01 -0.72312529003E+02 -0.12649115754E+03  0.14575273807E+03  0.00000000000E+00 0. -1.
         21    1    1    2  504  503  0.50028473338E+02 -0.73282612000E+02 -0.12889300116E+03  0.15648193223E+03  0.00000000000E+00 0. -1.
         21    1    1    2  505  506  0.10401813075E+02  0.38850912909E+02  0.25537250740E+03  0.25852022877E+03  0.00000000000E+00 0. -1.
         21    1    1    2  506  504 -0.64270321274E+02  0.10674422809E+03 -0.15054950680E+02  0.12550560134E+03  0.00000000000E+00 0. -1.
<scales pt_clust_3="40.34041" pt_clust_4="40.34041" pt_clust_5="40.21929" pt_clust_6="145.62819"></scales>
<clustering>
<clus scale="   40.219">  1  5  2 -1</clus>
<clus scale="   40.340">  3  4 -1 -1</clus>
<clus scale="  145.628">  1  6  2 -1</clus>
<clus scale="   40.219">  1  3  2 -1</clus>
</clustering>
</event>
<event>
 6    0  0.2908518E+002  0.1343528E+03  0.7546771E-02  0.1221136E+00
         21   -1    0    0  504  501  0.00000000000E+00  0.00000000000E+00  0.20711508653E+03  0.20711508653E+03  0.00000000000E+00 0. -1.
         21   -1    0    0  506  502 -0.00000000000E+00 -0.00000000000E+00 -0.16300388347E+03  0.16300388347E+03  0.00000000000E+00 0. -1.
         21    1    1    2  503  502 -0.18515258507E+02 -0.41615079607E+02 -0.70106139447E+02  0.83603232213E+02  0.00000000000E+00 0. -1.
         21    1    1    2  504  505 -0.36398511331E+02  0.28683901583E+02 -0.86599078861E+01  0.47144584437E+02  0.00000000000E+00 0. -1.
         21    1    1    2  505  503 -0.74992487533E+02  0.67378800676E+01  0.41902071367E+02  0.86168763476E+02  0.00000000000E+00 0. -1.
         21    1    1    2  506  501  0.12990625737E+03  0.61932979555E+01  0.80975179026E+02  0.15320238987E+03  0.00000000000E+00 0. -1.
<scales pt_clust_3="45.54810" pt_clust_4="43.00427" pt_clust_5="43.00427" pt_clust_6="122.66183"></scales>
<clustering>
<clus scale="   43.004">  4  5 -1 -1</clus>
<clus scale="   45.548">  2  3  1 -1</clus>
<clus scale="  122.662">  1  6  2 -1</clus>
<clus scale="  122.662">  1  3  2 -1</clus>
</clustering>
</event>
<event>
 6    0  0.2908518E+002  0.2239858E+03  0.7546771E-02  0.1130946E+00
         21   -1    0    0  504  501  0.00000000000E+00  0.00000000000E+00  0.10553887311E+03  0.10553887311E+03  0.00000000000E+00 0.  1.
         21   -1    0    0  505  502 -0.00000000000E+00 -0.00000000000E+00 -0.86361312784E+03  0.86361312784E+03  0.00000000000E+00 0. -1.
         21    1    1    2  503  502 -0.14794466984E+03 -0.66221200401E+02 -0.41226224792E+03  0.44298197907E+03  0.00000000000E+00 0. -1.
         21    1    1    2  504  503 -0.40508164023E+02 -0.54118215168E+02 -0.13796707194E+03  0.15363790387E+03  0.00000000000E+00 0. -1.
         21    1    1    2  505  506  0.35697688946E+02 -0.32366258124E+02 -0.13698407319E+03  0.14521203796E+03  0.00000000000E+00 0.  1.
         21    1    1    2  506  501  0.15275514492E+03  0.15270567369E+03 -0.70860861673E+02  0.22732008005E+03  0.00000000000E+00 0.  1.
<scales pt_clust_3="36.57126" pt_clust_4="36.57126" pt_clust_5="48.18609" pt_clust_6="216.70880"></scales>
<clustering>
<clus scale="   36.571">  3  4 -1 -1</clus>
<clus scale="   48.186">  2  5  1 -1</clus>
<clus scale="  216.709">  1  6  2 -1</clus>
<clus scale="  216.709">  1  3  2 -1</clus>
</clustering>
</event>
<event>
 6    0  0.2908518E+002  0.1302048E+03  0.7546771E-02  0.1227152E+00
         21   -1    0    0  503  501  0.00000000000E+00  0.00000000000E+00  0.11318255434E+03  0.11318255434E+03  0.00000000000E+00 0.  1.
         21   -1    0    0  505  502 -0.00000000000E+00 -0.00000000000E+00 -0.59616299695E+03  0.59616299695E+03  0.00000000000E+00 0. -1.
         21    1    1    2  503  506 -0.12439550962E+03  0.35306597873E+02  0.54821888046E+02  0.14045012665E+03  0.00000000000E+00 0.  1.
         21    1    1    2  504  502  0.42386833234E+02  0.29592697414E+02 -0.73506190650E+02  0.89863960717E+02  0.00000000000E+00 0.  1.
         21    1    1    2  505  501  0.37480527735E+02 -0.52416389049E+02 -0.34730002974E+03  0.35322737501E+03  0.00000000000E+00 0. -1.
         21    1    1    2  506  504  0.44528148649E+02 -0.12482906238E+02 -0.11699611026E+03  0.12580408891E+03  0.00000000000E+00 0. -1.
<scales pt_clust_3="120.74216" pt_clust_4="46.08975" pt_clust_5="64.43809" pt_clust_6="46.08975"></scales>
<clustering>
<clus scale="   46.090">  4  6 -1 -1</clus>
<clus scale="   64.438">  2  5  1 -1</clus>
<clus scale="  120.742">  1  3  2 -1</clus>
<clus scale="  120.742">  1  3  2 -1</clus>
</clustering>
</event>
<event>
 6    0  0.2908518E+002  0.1083634E+03  0.7546771E-02  0.1263631E+00
         21   -1    0    0  505  501  0.00000000000E+00  0.00000000000E+00  0.24188146105E+03  0.24188146105E+03  0.00000000000E+00 0.  1.
         21   -1    0    0  506  502 -0.00000000000E+00 -0.00000000000E+00 -0.12265709400E+03  0.12265709400E+03  0.00000000000E+00 0. -1.
         21    1    1    2  503  504  0.78797285554E+02 -0.31337837225E+02 -0.71190050551E+01  0.85098486976E+02  0.00000000000E+00 0. -1.
         21    1    1    2  504  501 -0.89923299375E+02  0.22232447063E+02  0.16572174382E+03  0.18985304276E+03  0.00000000000E+00 0.  1.
         21    1    1    2  505  502 -0.32510464992E+02 -0.74110612158E+01 -0.21199874976E+02  0.39513147956E+02  0.00000000000E+00 0. -1.
         21    1    1    2  506  503  0.43636478814E+02  0.16516451377E+02 -0.18178496746E+02  0.50073877355E+02  0.00000000000E+00 0. -1.
<scales pt_clust_3="34.13063" pt_clust_4="96.54386" pt_clust_5="33.34448" pt_clust_6="34.13063"></scales>
<clustering>
<clus scale="   33.344">  2  5  1 -1</clus>
<clus scale="   34.131">  3  6 -1 -1</clus>
<clus scale="   96.544">  1  4  2 -1</clus>
<clus scale="   96.544">  1  3  2 -1</clus>
</clustering>
</event>
<event>
 6    0  0.2908518E+002  0.2175728E+03  0.7546771E-02  0.1135706E+00
         21   -1    0    0  504  501  0.00000000000E+00  0.00000000000E+00  0.79190479181E+03  0.79190479181E+03  0.00000000000E+00 0.  1.
         21   -1    0    0  505  502 -0.00000000000E+00 -0.00000000000E+00 -0.14034753978E+03  0.14034753978E+03  0.00000000000E+00 0. -1.
         21    1    1    2  503  506  0.53923540326E+02 -0.73497732652E+02  0.37308886403E+02  0.98496791374E+02  0.00000000000E+00 0. -1.
         21    1    1    2  504  502  0.45929839471E+02 -0.18977528888E+02  0.45896335996E+03  0.46164603599E+03  0.00000000000E+00 0.  1.
         21    1    1    2  505  503  0.12971836212E+01 -0.11071970862E+03  0.60028110725E+02  0.12595201721E+03  0.00000000000E+00 0. -1.
         21    1    1    2  506  501 -0.10115056342E+03  0.20319497016E+03  0.95256894946E+02  0.24615748702E+03  0.00000000000E+00 0. -1.
<scales pt_clust_3="57.88545" pt_clust_4="49.69604" pt_clust_5="57.88545" pt_clust_6="208.37597"></scales>
<clustering>
<clus scale="   49.696">  1  4  2 -1</clus>
<clus scale="   57.885">  3  5 -1 -1</clus>
<clus scale="  208.376">  1  6  2 -1</clus>
<clus scale="   49.696">  1  3  2 -1</clus>
</clustering>
</event>
<event>
 6    0  0.2908518E+002  0.9805696E+02  0.7546771E-02  0.1284436E+00
         21   -1    0    0  503  501  0.00000000000E+00  0.00000000000E+00  0.12801473318E+03  0.12801473318E+03  0.00000000000E+00 0.  1.
         21   -1    0    0  506  502 -0.00000000000E+00 -0.00000000000E+00 -0.19379756157E+03  0.19379756157E+03  0.00000000000E+00 0.  1.
         21    1    1    2  503  504  0.11989676630E+01  0.12124030609E+03  0.38568511055E+02  0.12723277640E+03  0.00000000000E+00 0.  1.
         21    1    1    2  504  502  0.25874763507E+02 -0.16920870755E+02 -0.47964902429E+02  0.57065323259E+02  0.00000000000E+00 0.  1.
         21    1    1    2  505  501 -0.10993748054E+02 -0.76097673023E+02 -0.54214754374E+01  0.77078600997E+02  0.00000000000E+00 0.  1.
         21    1    1    2  506  505 -0.16079983116E+02 -0.28221762316E+02 -0.50964961574E+02  0.60435594094E+02  0.00000000000E+00 0.  1.
<scales pt_clust_3="98.05696" pt_clust_4="30.91633" pt_clust_5="14000.00000" pt_clust_6="35.38457"></scales>
<clustering>
<clus scale="   30.916">  2  4  1 -1</clus>
<clus scale="   35.385">  2  6  1 -1</clus>
<clus scale="   98.057">  2  3  1 -1</clus>
<clus scale="   98.057">  1  3  2 -1</clus>
</clustering>
</event>
<event>
 6    0  0.2908518E+002  0.8995650E+02  0.7546771E-02  0.1302957E+00
         21   -1    0    0  505  501  0.00000000000E+00  0.00000000000E+00  0.11523741358E+03  0.11523741358E+03  0.00000000000E+00 0. -1.
         21   -1    0    0  504  502 -0.00000000000E+00 -0.00000000000E+00 -0.61638356397E+03  0.61638356397E+03  0.00000000000E+00 0. -1.
         21    1    1    2  503  502  0.25785270357E+02  0.49080018433E+02 -0.18532278947E+03  0.19343801249E+03  0.00000000000E+00 0. -1.
         21    1    1    2  504  501 -0.58475547472E+02 -0.42878454383E+01  0.79205006127E+02  0.98545462941E+02  0.00000000000E+00 0. -1.
         21    1    1    2  505  506 -0.62765023029E+02 -0.21423642411E+02 -0.56471850703E+02  0.87106202373E+02  0.00000000000E+00 0. -1.
         21    1    1    2  506  503  0.95455300144E+02 -0.23368530584E+02 -0.33855651634E+03  0.35253129975E+03  0.00000000000E+00 0. -1.
<scales pt_clust_3="55.44122" pt_clust_4="57.97867" pt_clust_5="14000.00000" pt_clust_6="89.95650"></scales>
<clustering>
<clus scale="   55.441">  2  3  1 -1</clus>
<clus scale="   57.979">  1  4  2 -1</clus>
<clus scale="   89.957">  2  6  1 -1</clus>
<clus scale="   57.979">  1  3  2 -1</clus>
</clustering>
</event>
<event>
 6    0  0.2908518E+002  0.1798768E+03  0.7546771E-02  0.1167922E+00
         21   -1    0    0  504  501  0.00000000000E+00  0.00000000000E+00  0.52542306147E+03  0.52542306147E+03  0.00000000000E+00 0. -1.
         21   -1    0    0  506  502 -0.00000000000E+00 -0.00000000000E+00 -0.12431324109E+04  0.12431324109E+04  0.00000000000E+00 0.  1.
         21    1    1    2  503  502 -0.28421480716E+01  0.10189087373E+03 -0.76634577237E+02  0.12752523823E+03  0.00000000000E+00 0. -1.
         21    1    1    2  504  505  0.29434433480E+01  0.46621568522E+02  0.47618814608E+03  0.47847401704E+03  0.00000000000E+00 0. -1.
         21    1    1    2  505  503 -0.24469380604E+02  0.29118288870E+02 -0.79617053999E+01  0.38858899711E+02  0.00000000000E+00 0. -1.
         21    1    1    2  506  501  0.24368085327E+02 -0.17763073113E+03 -0.11093012128E+04  0.11236973174E+04  0.00000000000E+00 0.  1.
<scales pt_clust_3="31.25415" pt_clust_4="46.71439" pt_clust_5="31.25415" pt_clust_6="172.44661"></scales>
<clustering>
<clus scale="   31.254">  3  5 -1 -1</clus>
<clus scale="   46.714">  1  4  2 -1</clus>
<clus scale="  172.447">  2  6  1 -1</clus>
<clus scale="   46.714">  1  3  2 -1</clus>
</clustering>
</event>
<event>
 6    0  0.2908518E+002  0.1768336E+03  0.7546771E-02  0.1170903E+00
         21   -1    0    0  506  501  0.00000000000E+00  0.00000000000E+00  0.83196432093E+02  0.83196432093E+02  0.00000000000E+00 0.  1.
         21   -1    0    0  504  502 -0.00000000000E+00 -0.00000000000E+00 -0.23022602496E+04  0.23022602496E+04  0.00000000000E+00 0.  1.
         21    1    1    2  503  501  0.48245342945E+02  0.37738735364E+02  0.49821484821E+02  0.78955719315E+02  0.00000000000E+00 0.  1.
         21    1    1    2  504  503  0.23538945965E+02 -0.18204314726E+03 -0.82543579064E+03  0.84559921589E+03  0.00000000000E+00 0.  1.
         21    1    1    2  505  502  0.34473881758E+02 -0.11678087942E+02 -0.23004506473E+03  0.23290675831E+03  0.00000000000E+00 0.  1.
         21    1    1    2  506  505 -0.10625817067E+03  0.15598249984E+03 -0.12134044470E+04  0.12279949882E+04  0.00000000000E+00 0.  1.
<scales pt_clust_3="61.39292" pt_clust_4="14000.00000" pt_clust_5="36.39816" pt_clust_6="176.83363"></scales>
<clustering>
<clus scale="   36.398">  2  5  1 -1</clus>
<clus scale="   61.393">  1  3  2 -1</clus>
<clus scale="  176.834">  2  6  1 -1</clus>
<clus scale="   61.393">  1  3  2 -1</clus>
</clustering>
</event>
<event>
 6    0  0.2908518E+002  0.1641898E+03  0.7546771E-02  0.1184046E+00
         21   -1    0    0  505  501  0.00000000000E+00  0.00000000000E+00  0.14929786409E+04  0.14929786409E+04  0.00000000000E+00 0. -1.
         21   -1    0    0  506  502 -0.00000000000E+00 -0.00000000000E+00 -0.16817226215E+04  0.16817226215E+04  0.00000000000E+00 0.  1.
         21    1    1    2  503  504 -0.82537893329E+02 -0.15174122299E+03 -0.14257539759E+04  0.14361797598E+04  0.00000000000E+00 0.  1.
         21    1    1    2  504  501  0.11877711685E+03  0.11335768507E+03  0.14515463027E+04  0.14608027373E+04  0.00000000000E+00 0. -1.
         21    1    1    2  505  502  0.56295577160E+02 -0.26893717255E+02 -0.64417476272E+02  0.89677618640E+02  0.00000000000E+00 0.  1.
         21    1    1    2  506  503 -0.92534800679E+02  0.65277255173E+02 -0.15011883120E+03  0.18804114672E+03  0.00000000000E+00 0. -1.
<scales pt_clust_3="164.18982" pt_clust_4="14000.00000" pt_clust_5="62.38961" pt_clust_6="106.76747"></scales>
<clustering>
<clus scale="   62.390">  2  5  1 -1</clus>
<clus scale="  106.767">  2  6  1 -1</clus>
<clus scale="  164.190">  2  3  1 -1</clus>
<clus scale="  164.190">  1  3  2 -1</clus>
</clustering>
</event>
<event>
 6    0  0.2908518E+002  0.1109763E+03  0.7546771E-02  0.1258773E+00
         21   -1    0    0  504  501  0.00000000000E+00  0.00000000000E+00  0.12728433729E+04  0.12728433729E+04  0.00000000000E+00 0.  1.
         21   -1    0    0  501  502 -0.00000000000E+00 -0.00000000000E+00 -0.26445520852E+02  0.26445520852E+02  0.00000000000E+00 0.  1.
         21    1    1    2  503  506 -0.12230171010E+03 -0.31916957475E+01  0.24567674908E+03  0.27445393102E+03  0.00000000000E+00 0.  1.
         21    1    1    2  504  503  0.45309430566E+02 -0.67638218794E+01  0.81544480859E+03  0.81673063469E+03  0.00000000000E+00 0.  1.
         21    1    1    2  505  502  0.42136634574E+02 -0.20836642557E+02  0.10994672411E+03  0.11957400967E+03  0.00000000000E+00 0.  1.
         21    1    1    2  506  505  0.34855644956E+02  0.30792160184E+02  0.75329570266E+02  0.88530318370E+02  0.00000000000E+00 0.  1.
<scales pt_clust_3="96.76030" pt_clust_4="45.81150" pt_clust_5="51.51127" pt_clust_6="51.51127"></scales>
<clustering>
<clus scale="   45.812">  1  4  2 -1</clus>
<clus scale="   51.511">  5  6 -1 -1</clus>
<clus scale="   96.760">  1  3  2 -1</clus>
<clus scale="   45.812">  1  3  2 -1</clus>
</clustering>
</event>
<event>
 6    0  0.2908518E+002  0.1504225E+03  0.7546771E-02  0.1199955E+00
         21   -1    0    0  504  501  0.00000000000E+00  0.00000000000E+00  0.90241256549E+03  0.90241256549E+03  0.00000000000E+00 0.  1.
         21   -1    0    0  503  502 -0.00000000000E+00 -0.00000000000E+00 -0.22819710487E+03  0.22819710487E+03  0.00000000000E+00 0.  1.
         21    1    1    2  503  501 -0.75175791761E+02 -0.20907052005E+02  0.13704126759E+02  0.79223150535E+02  0.00000000000E+00 0. -1.
         21    1    1    2  504  506 -0.56849871061E+02  0.13105014792E+03  0.80781740794E+03  0.82035054317E+03  0.00000000000E+00 0.  1.
         21    1    1    2  505  502  0.39428004090E+02 -0.40835684964E+02 -0.77070612514E+02  0.95718336729E+02  0.00000000000E+00 0.  1.
         21    1    1    2  506  505  0.92597658733E+02 -0.69307410949E+02 -0.70235461559E+02  0.13531763993E+03  0.00000000000E+00 0.  1.
<scales pt_clust_3="78.02887" pt_clust_4="143.21548" pt_clust_5="32.22731" pt_clust_6="32.22731"></scales>
<clustering>
<clus scale="   32.227">  5  6 -1 -1</clus>
<clus scale="   78.029">  2  3  1 -1</clus>
<clus scale="  143.215">  1  4  2 -1</clus>
<clus scale="  143.215">  1  3  2 -1</clus>
</clustering>
</event>
<event>
 6    0  0.2908518E+002  0.1123381E+03  0.7546771E-02  0.1256300E+00
         21   -1    0    0  506  501  0.00000000000E+00  0.00000000000E+00  0.38105395380E+03  0.38105395380E+03  0.00000000000E+00 0.  1.
         21   -1    0    0  503  502 -0.00000000000E+00 -0.00000000000E+00 -0.41362902338E+03  0.41362902338E+03  0.00000000000E+00 0. -1.
         21    1    1    2  503  504 -0.57531087156E+02  0.35283222321E+02 -0.87478204294E+01  0.68053332975E+02  0.00000000000E+00 0.  1.
         21    1    1    2  504  501 -0.69824951510E+02  0.17679301959E+02  0.17941455995E+02  0.74229222105E+02  0.00000000000E+00 0.  1.
         21    1    1    2  505  502  0.80565238884E+02 -0.66564108321E+02 -0.33717651342E+03  0.35300076407E+03  0.00000000000E+00 0. -1.
         21    1    1    2  506  505  0.46790799782E+02  0.13601584041E+02  0.29540780828E+03  0.29939965802E+03  0.00000000000E+00 0.  1.
<scales pt_clust_3="32.61390" pt_clust_4="32.61390" pt_clust_5="107.16637" pt_clust_6="48.72763"></scales>
<clustering>
<clus scale="   32.614">  3  4 -1 -1</clus>
<clus scale="   48.728">  1  6  2 -1</clus>
<clus scale="  107.166">  2  5  1 -1</clus>
<clus scale="   48.728">  1  3  2 -1</clus>
</clustering>
</event>
<event>
 6    0  0.2908518E+002  0.1253682E+03  0.7546771E-02  0.1234495E+00
         21   -1    0    0  503  501  0.00000000000E+00  0.00000000000E+00  0.14766494156E+04  0.14766494156E+04  0.00000000000E+00 0. -1.
         21   -1    0    0  504  502 -0.00000000000E+00 -0.00000000000E+00 -0.29435256480E+03  0.29435256480E+03  0.00000000000E+00 0. -1.
         21    1    1    2  503  506 -0.58882532134E+02 -0.50118761801E+01  0.15274208395E+01  0.59115180011E+02  0.00000000000E+00 0. -1.
         21    1    1    2  504  505  0.67286765280E+02 -0.78108736374E+02  0.27621744566E+02  0.10673070904E+03  0.00000000000E+00 0. -1.
         21    1    1    2  505  501  0.32178008897E+02 -0.44561818078E+02  0.13586917610E+04  0.13598031038E+04  0.00000000000E+00 0. -1.
         21    1    1    2  506  502 -0.40582242044E+02  0.12768243063E+03 -0.20554407559E+03  0.24535298750E+03  0.00000000000E+00 0. -1.
<scales pt_clust_3="53.20206" pt_clust_4="125.36821" pt_clust_5="54.96526" pt_clust_6="14000.00000"></scales>
<clustering>
<clus scale="   54.965">  1  5  2 -1</clus>
<clus scale="   53.202">  1  3  2 -1</clus>
<clus scale="  125.368">  1  4  2 -1</clus>
<clus scale="   54.965">  1  3  2 -1</clus>
</clustering>
</event>
<event>
 6    0  0.2908518E+002  0.1288273E+03  0.7546771E-02  0.1229206E+00
         21   -1    0    0  503  501  0.00000000000E+00  0.00000000000E+00  0.55164040862E+03  0.55164040862E+03  0.00000000000E+00 0. -1.
         21   -1    0    0  501  502 -0.00000000000E+00 -0.00000000000E+00 -0.46631030399E+02  0.46631030399E+02  0.00000000000E+00 0.  1.
         21    1    1    2  503  506 -0.21409709043E+02 -0.21390051183E+02  0.71682745774E+02  0.77809549366E+02  0.00000000000E+00 0. -1.
         21    1    1    2  504  505  0.59353048358E+02  0.12606749987E+02  0.59270138326E+02  0.84821364005E+02  0.00000000000E+00 0.  1.
         21    1    1    2  505  502  0.68620530789E+02 -0.17127094021E+02  0.34263794037E+02  0.78588308146E+02  0.00000000000E+00 0.  1.
         21    1    1    2  506  504 -0.10656387010E+03  0.25910395218E+02  0.33979270009E+03  0.35705221750E+03  0.00000000000E+00 0. -1.
<scales pt_clust_3="30.26400" pt_clust_4="35.83820" pt_clust_5="35.83820" pt_clust_6="122.63780"></scales>
<clustering>
<clus scale="   30.264">  1  3  2 -1</clus>
<clus scale="   35.838">  4  5 -1 -1</clus>
<clus scale="  122.638">  1  6  2 -1</clus>
<clus scale="   30.264">  1  3  2 -1</clus>
</clustering>
</event>
<event>
 6    0  0.3183119E+002  0.1666667E+03  0.7546771E-02  0.1181369E+00
         21   -1    0    0  504  501  0.00000000000E+00  0.00000000000E+00  0.42030139302E+03  0.42030139302E+03  0.00000000000E+00 0.  1.
         21   -1    0    0  506  502 -0.00000000000E+00 -0.00000000000E+00 -0.82859402517E+03  0.82859402517E+03  0.00000000000E+00 0.  1.
         21    1    1    2  503  505 -0.73346101805E+02 -0.33157737660E+02 -0.43877183319E+03  0.44609394505E+03  0.00000000000E+00 0.  1.
         21    1    1    2  504  503  0.41577916663E+02  0.25534773763E+02 -0.23572354735E+01  0.48849814577E+02  0.00000000000E+00 0.  1.
         21    1    1    2  505  502 -0.66178842824E+02 -0.54140974212E+02 -0.34672910689E+03  0.35711616862E+03  0.00000000000E+00 0.  1.
         21    1    1    2  506  501  0.97947027966E+02  0.61763938109E+02  0.37956554340E+03  0.39683548994E+03  0.00000000000E+00 0.  1.
<scales pt_clust_3="31.38719" pt_clust_4="48.79291" pt_clust_5="31.38719" pt_clust_6="163.49709"></scales>
<clustering>
<clus scale="   31.387">  3  5 -1 -1</clus>
<clus scale="   48.793">  1  4  2 -1</clus>
<clus scale="  163.497">  1  6  2 -1</clus>
<clus scale="   48.793">  1  3  2 -1</clus>
</clustering>
</event>
<event>
 6    0  0.2908518E+002  0.1191129E+03  0.7546771E-02  0.1244568E+00
         21   -1    0    0  505  501  0.00000000000E+00  0.00000000000E+00  0.84316254340E+02  0.84316254340E+02  0.00000000000E+00 0.  1.
         21   -1    0    0  504  502 -0.00000000000E+00 -0.00000000000E+00 -0.74904273107E+03  0.74904273107E+03  0.00000000000E+00 0.  1.
         21    1    1    2  503  502  0.67297807368E+02 -0.80107662924E+01 -0.11937425706E+03  0.13727119327E+03  0.00000000000E+00 0.  1.
         21    1    1    2  504  506  0.25281520624E+02 -0.21806309495E+02 -0.34973964237E+03  0.35132960004E+03  0.00000000000E+00 0.  1.
         21    1    1    2  505  503  0.38406335011E+02  0.76888385674E+02 -0.18640770945E+03  0.20526739771E+03  0.00000000000E+00 0.  1.
         21    1    1    2  506  501 -0.13098566300E+03 -0.47071309886E+02 -0.92048678481E+01  0.13949079439E+03  0.00000000000E+00 0.  1.
<scales pt_clust_3="76.92184" pt_clust_4="33.38668" pt_clust_5="119.11288" pt_clust_6="14000.00000"></scales>
<clustering>
<clus scale="   33.387">  2  4  1 -1</clus>
<clus scale="   76.922">  2  3  1 -1</clus>
<clus scale="  119.113">  2  5  1 -1</clus>
<clus scale="  119.113">  1  3  2 -1</clus>
</clustering>
</event>
<event>
 6    0  0.2908518E+002  0.1576797E+03  0.7546771E-02  0.1191342E+00
         21   -1    0    0  503  501  0.00000000000E+00  0.00000000000E+00  0.62887083063E+03  0.62887083063E+03  0.00000000000E+00 0. -1.
         21   -1    0    0  506  502 -0.00000000000E+00 -0.00000000000E+00 -0.13845481834E+03  0.13845481834E+03  0.00000000000E+00 0.  1.
         21    1    1    2  503  502 -0.82597265381E+01 -0.96255770388E+02  0.69282732536E+02  0.11888437005E+03  0.00000000000E+00 0. -1.
         21    1    1    2  504  501  0.95772357048E+02 -0.93094828380E+02  0.40527191058E+03  0.42671338501E+03  0.00000000000E+00 0. -1.
         21    1    1    2  505  504 -0.12976462241E+01  0.40409877425E+02  0.28041532391E+02  0.49203349663E+02  0.00000000000E+00 0. -1.
         21    1    1    2  506  505 -0.86214984286E+02  0.14894072134E+03 -0.12180163211E+02  0.17252454424E+03  0.00000000000E+00 0.  1.
<scales pt_clust_3="96.60950" pt_clust_4="139.51103" pt_clust_5="35.61658" pt_clust_6="35.61658"></scales>
<clustering>
<clus scale="   35.617">  5  6 -1 -1</clus>
<clus scale="   96.610">  2  3  1 -1</clus>
<clus scale="  139.511">  1  4  2 -1</clus>
<clus scale="  139.511">  1  3  2 -1</clus>
</clustering>
</event>
<event>
 6    0  0.2908518E+002  0.8712983E+02  0.7546771E-02  0.1309955E+00
         21   -1    0    0  503  501  0.00000000000E+00  0.00000000000E+00  0.20480878718E+03  0.20480878718E+03  0.00000000000E+00 0. -1.
         21   -1    0    0  506  502 -0.00000000000E+00 -0.00000000000E+00 -0.27734262250E+03  0.27734262250E+03  0.00000000000E+00 0.  1.
         21    1    1    2  503  502  0.14744469853E+02  0.60735240737E+02 -0.14184525784E+02  0.64088763682E+02  0.00000000000E+00 0. -1.
         21    1    1    2  504  505 -0.31521767921E+02 -0.87274377406E+02 -0.16745295233E+03  0.19144432624E+03  0.00000000000E+00 0.  1.
         21    1    1    2  505  501  0.52611819156E+02  0.43282228922E+02  0.15302922019E+03  0.16750909553E+03  0.00000000000E+00 0. -1.
         21    1    1    2  506  504 -0.35834521088E+02 -0.16743092254E+02 -0.43925577394E+02  0.59109224231E+02  0.00000000000E+00 0.  1.
<scales pt_clust_3="62.49935" pt_clust_4="34.17313" pt_clust_5="69.65567" pt_clust_6="34.17313"></scales>
<clustering>
<clus scale="   34.173">  4  6 -1 -1</clus>
<clus scale="   62.499">  2  3  1 -1</clus>
<clus scale="   69.656">  1  5  2 -1</clus>
<clus scale="   69.656">  1  3  2 -1</clus>
</clustering>
</event>
<event>
 6    0  0.2908518E+002  0.1177250E+03  0.7546771E-02  0.1246898E+00
         21   -1    0    0  505  501  0.00000000000E+00  0.00000000000E+00  0.66829986434E+03  0.66829986434E+03  0.00000000000E+00 0. -1.
         21   -1    0    0  501  502 -0.00000000000E+00 -0.00000000000E+00 -0.18977263485E+03  0.18977263485E+03  0.00000000000E+00 0. -1.
         21    1    1    2  503  504  0.71398862179E+02 -0.10381080518E+02  0.42859168167E+02  0.83919441425E+02  0.00000000000E+00 0. -1.
         21    1    1    2  504  506 -0.61992484851E+02 -0.12860748036E+02 -0.80213798717E+02  0.10218963021E+03  0.00000000000E+00 0. -1.
         21    1    1    2  505  503  0.57197109882E+02  0.38733053382E+01  0.57680352565E+03  0.57964542530E+03  0.00000000000E+00 0. -1.
         21    1    1    2  506  502 -0.66603487210E+02  0.19368523216E+02 -0.60921665610E+02  0.92318002257E+02  0.00000000000E+00 0. -1.
<scales pt_clust_3="111.91267" pt_clust_4="34.90421" pt_clust_5="57.32811" pt_clust_6="34.90421"></scales>
<clustering>
<clus scale="   34.904">  4  6 -1 -1</clus>
<clus scale="   57.328">  1  5  2 -1</clus>
<clus scale="  111.913">  1  3  2 -1</clus>
<clus scale="   57.328">  1  3  2 -1</clus>
</clustering>
</event>
<event>
 6    0  0.3179483E+002  0.1076605E+03  0.7546771E-02  0.1264965E+00
         21   -1    0    0  505  501  0.00000000000E+00  0.00000000000E+00  0.53420291369E+03  0.53420291369E+03  0.00000000000E+00 0.  1.
         21   -1    0    0  504  502 -0.00000000000E+00 -0.00000000000E+00 -0.59452635965E+03  0.59452635965E+03  0.00000000000E+00 0.  1.
         21    1    1    2  503  501 -0.84992973015E+02 -0.14242128462E+02  0.51479492198E+03  0.52195828893E+03  0.00000000000E+00 0.  1.
         21    1    1    2  504  503 -0.43356025404E+02  0.28549051769E+01 -0.78577078418E+02  0.89790047751E+02  0.00000000000E+00 0.  1.
         21    1    1    2  505  506  0.36540519658E+02 -0.24718860805E+02 -0.12462935866E+03  0.13220706750E+03  0.00000000000E+00 0.  1.
         21    1    1    2  506  502  0.91808478762E+02  0.36106084090E+02 -0.37191193086E+03  0.38477386917E+03  0.00000000000E+00 0.  1.
<scales pt_clust_3="86.47479" pt_clust_4="43.44992" pt_clust_5="42.88618" pt_clust_6="42.88618"></scales>
<clustering>
<clus scale="   42.886">  5  6 -1 -1</clus>
<clus scale="   43.450">  2  4  1 -1</clus>
<clus scale="   86.475">  1  3  2 -1</clus>
<clus scale="   86.475">  1  3  2 -1</clus>
</clustering>
</event>
<event>
 6    0  0.2908518E+002  0.1007426E+03  0.7546771E-02  0.1278742E+00
         21   -1    0    0  504  501  0.00000000000E+00  0.00000000000E+00  0.79710038644E+03  0.79710038644E+03  0.00000000000E+00 0.  1.
         21   -1    0    0  506  502 -0.00000000000E+00 -0.00000000000E+00 -0.14301231519E+03  0.14301231519E+03  0.00000000000E+00 0. -1.
         21    1    1    2  503  502 -0.63804281960E+02  0.99002406534E+02  0.13698526166E+02  0.11857534531E+03  0.00000000000E+00 0. -1.
         21    1    1    2  504  503  0.41584298283E+02  0.26344779186E+02  0.67124386901E+03  0.67304653103E+03  0.00000000000E+00 0.  1.
         21    1    1    2  505  501  0.88503433097E+01 -0.94263746650E+02  0.10271975093E+02  0.95233901429E+02  0.00000000000E+00 0. -1.
         21    1    1    2  506  505  0.13369640367E+02 -0.31083439071E+02 -0.41126299016E+02  0.53256923857E+02  0.00000000000E+00 0. -1.
<scales pt_clust_3="14000.00000" pt_clust_4="49.17780" pt_clust_5="100.74262" pt_clust_6="33.83678"></scales>
<clustering>
<clus scale="   33.837">  2  6  1 -1</clus>
<clus scale="   49.178">  1  4  2 -1</clus>
<clus scale="  100.743">  1  5  2 -1</clus>
<clus scale="   49.178">  1  3  2 -1</clus>
</clustering>
</event>
<event>
 6    0  0.2908518E+002  0.4571736E+03  0.7546771E-02  0.1025604E+00
         21   -1    0    0  504  501  0.00000000000E+00  0.00000000000E+00  0.12551393779E+03  0.12551393779E+03  0.00000000000E+00 0.  1.
         21   -1    0    0  505  502 -0.00000000000E+00 -0.00000000000E+00 -0.18045516925E+04  0.18045516925E+04  0.00000000000E+00 0.  1.
         21    1    1    2  503  506 -0.14454738279E+03 -0.86535096237E+02 -0.51950250395E+03  0.54613654004E+03  0.00000000000E+00 0.  1.
         21    1    1    2  504  502  0.37671148443E+03  0.18711143712E+03 -0.43690713439E+03  0.60647347550E+03  0.00000000000E+00 0.  1.
         21    1    1    2  505  503 -0.48280179477E+02 -0.20518560264E+02 -0.35342167366E+03  0.35729380971E+03  0.00000000000E+00 0.  1.
         21    1    1    2  506  501 -0.18388392216E+03 -0.80057780622E+02 -0.36920644267E+03  0.42016180499E+03  0.00000000000E+00 0.  1.
<scales pt_clust_3="143.55652" pt_clust_4="420.62125" pt_clust_5="41.55966" pt_clust_6="143.55652"></scales>
<clustering>
<clus scale="   41.560">  3  5 -1 -1</clus>
<clus scale="  143.557">  3  6 -1 -1</clus>
<clus scale="  420.621">  1  4  2 -1</clus>
<clus scale="  420.621">  1  3  2 -1</clus>
</clustering>
</event>
<event>
 6    0  0.2908518E+002  0.1682869E+03  0.7546771E-02  0.1179646E+00
         21   -1    0    0  503  501  0.00000000000E+00  0.00000000000E+00  0.15517477735E+03  0.15517477735E+03  0.00000000000E+00 0. -1.
         21   -1    0    0  501  502 -0.00000000000E+00 -0.00000000000E+00 -0.27783600251E+03  0.27783600251E+03  0.00000000000E+00 0.  1.
         21    1    1    2  503  505  0.10322760873E+03  0.10904235987E+03  0.79556872394E+02  0.16992784173E+03  0.00000000000E+00 0. -1.
         21    1    1    2  504  506 -0.41222212259E+02 -0.57850262175E+02 -0.11728477025E+03  0.13711907581E+03  0.00000000000E+00 0.  1.
         21    1    1    2  505  504 -0.39981786862E+02 -0.72498929083E+01 -0.55112834714E+02  0.68472832409E+02  0.00000000000E+00 0.  1.
         21    1    1    2  506  502 -0.22023609610E+02 -0.43942204790E+02 -0.29820492591E+02  0.57491029912E+02  0.00000000000E+00 0. -1.
<scales pt_clust_3="150.15384" pt_clust_4="40.73674" pt_clust_5="31.32116" pt_clust_6="40.73674"></scales>
<clustering>
<clus scale="   31.321">  4  5 -1 -1</clus>
<clus scale="   40.737">  4  6 -1 -1</clus>
<clus scale="  150.154">  1  3  2 -1</clus>
<clus scale="  150.154">  1  3  2 -1</clus>
</clustering>
</event>
<event>
 6    0  0.2908518E+002  0.6665276E+02  0.7546771E-02  0.1371860E+00
         21   -1    0    0  503  501  0.00000000000E+00  0.00000000000E+00  0.39501449652E+03  0.39501449652E+03  0.00000000000E+00 0. -1.
         21   -1    0    0  505  502 -0.00000000000E+00 -0.00000000000E+00 -0.10840502137E+03  0.10840502137E+03  0.00000000000E+00 0. -1.
         21    1    1    2  503  506  0.50506063199E+02  0.46682474474E+02  0.28449686643E+03  0.29269195898E+03  0.00000000000E+00 0. -1.
         21    1    1    2  504  501 -0.41136713800E+02  0.13203885808E+02  0.31818618245E+02  0.53656279126E+02  0.00000000000E+00 0. -1.
         21    1    1    2  505  504 -0.24933366657E+02 -0.10130821859E+03 -0.39834874900E+02  0.11167741574E+03  0.00000000000E+00 0. -1.
         21    1    1    2  506  502  0.15564017258E+02  0.41421858312E+02  0.10128865378E+02  0.45393864046E+02  0.00000000000E+00 0.  1.
<scales pt_clust_3="66.65276" pt_clust_4="43.20384" pt_clust_5="14000.00000" pt_clust_6="44.21416"></scales>
<clustering>
<clus scale="   43.204">  1  4  2 -1</clus>
<clus scale="   44.214">  2  6  1 -1</clus>
<clus scale="   66.653">  1  3  2 -1</clus>
<clus scale="   43.204">  1  3  2 -1</clus>
</clustering>
</event>
<event>
 6    0  0.2908518E+002  0.1226521E+03  0.7546771E-02  0.1238785E+00
         21   -1    0    0  506  501  0.00000000000E+00  0.00000000000E+00  0.53552279299E+03  0.53552279299E+03  0.00000000000E+00 0.  1.
         21   -1    0    0  505  502 -0.00000000000E+00 -0.00000000000E+00 -0.23918000222E+03  0.23918000222E+03  0.00000000000E+00 0. -1.
         21    1    1    2  503  501 -0.72307690995E+02  0.93825922666E+02  0.50633936868E+03  0.52001082895E+03  0.00000000000E+00 0.  1.
         21    1    1    2  504  503  0.30641200203E+02 -0.27479960172E+02 -0.93525486499E+02  0.10218144639E+03  0.00000000000E+00 0. -1.
         21    1    1    2  505  504 -0.59061628728E+00 -0.45689509371E+02 -0.83117397437E+02  0.94849258568E+02  0.00000000000E+00 0. -1.
         21    1    1    2  506  502  0.42257107080E+02 -0.20656453124E+02 -0.33353693979E+02  0.57661261315E+02  0.00000000000E+00 0.  1.
<scales pt_clust_3="116.96991" pt_clust_4="35.02078" pt_clust_5="35.02078" pt_clust_6="47.03565"></scales>
<clustering>
<clus scale="   35.021">  4  5 -1 -1</clus>
<clus scale="   47.036">  2  6  1 -1</clus>
<clus scale="  116.970">  1  3  2 -1</clus>
<clus scale="  116.970">  1  3  2 -1</clus>
</clustering>
</event>
<event>
 6    0  0.3873964E+002  0.7927407E+02  0.7546771E-02  0.1331124E+00
         21   -1    0    0  506  501  0.00000000000E+00  0.00000000000E+00  0.38167536557E+03  0.38167536557E+03  0.00000000000E+00 0.  1.
         21   -1    0    0  505  502 -0.00000000000E+00 -0.00000000000E+00 -0.28971638753E+03  0.28971638753E+03  0.00000000000E+00 0.  1.
         21    1    1    2  503  504 -0.71489739066E+01  0.89416327443E+02 -0.16790136683E+03  0.19036085843E+03  0.00000000000E+00 0.  1.
         21    1    1    2  504  502  0.67902533795E+01 -0.50608161561E+02 -0.72290591847E+02  0.88505498288E+02  0.00000000000E+00 0.  1.
         21    1    1    2  505  501  0.17560846079E+02  0.38406938394E+02 -0.82702349521E+01  0.43033394218E+02  0.00000000000E+00 0. -1.
         21    1    1    2  506  503 -0.17202125552E+02 -0.77215104276E+02  0.34042117167E+03  0.34949200216E+03  0.00000000000E+00 0.  1.
<scales pt_clust_3="79.27407" pt_clust_4="40.76339" pt_clust_5="42.23122" pt_clust_6="14000.00000"></scales>
<clustering>
<clus scale="   42.231">  2  5  1 -1</clus>
<clus scale="   40.763">  2  4  1 -1</clus>
<clus scale="   79.274">  2  3  1 -1</clus>
<clus scale="   79.274">  1  3  2 -1</clus>
</clustering>
</event>
<event>
 6    0  0.2908518E+002  0.1121687E+03  0.7546771E-02  0.1256606E+00
         21   -1    0    0  502  501  0.00000000000E+00  0.00000000000E+00  0.56743566075E+03  0.56743566075E+03  0.00000000000E+00 0. -1.
         21   -1    0    0  504  502 -0.00000000000E+00 -0.00000000000E+00 -0.11881792441E+04  0.11881792441E+04  0.00000000000E+00 0. -1.
         21    1    1    2  503  506  0.33677213469E+02 -0.50043430019E+02 -0.49395706429E+02  0.77964321383E+02  0.00000000000E+00 0. -1.
         21    1    1    2  504  503 -0.68279017982E+02  0.81773683260E+02 -0.10730735611E+04  0.10783486574E+04  0.00000000000E+00 0. -1.
         21    1    1    2  505  501  0.23039611185E+02  0.31179150548E+02  0.52852974558E+03  0.52994967221E+03  0.00000000000E+00 0. -1.
         21    1    1    2  506  505  0.11562193328E+02 -0.62909403789E+02 -0.26804061451E+02  0.69352253820E+02  0.00000000000E+00 0.  1.
<scales pt_clust_3="32.07324" pt_clust_4="107.19603" pt_clust_5="38.76807" pt_clust_6="32.07324"></scales>
<clustering>
<clus scale="   32.073">  3  6 -1 -1</clus>
<clus scale="   38.768">  1  5  2 -1</clus>
<clus scale="  107.196">  2  4  1 -1</clus>
<clus scale="   38.768">  1  3  2 -1</clus>
</clustering>
</event>
<event>
 6    0  0.2908518E+002  0.8333739E+02  0.7546771E-02  0.1319839E+00
         21   -1    0    0  505  501  0.00000000000E+00  0.00000000000E+00  0.55733793597E+02  0.55733793597E+02  0.00000000000E+00 0.  1.
         21   -1    0    0  503  502 -0.00000000000E+00 -0.00000000000E+00 -0.13904774239E+04  0.13904774239E+04  0.00000000000E+00 0.  1.
         21    1    1    2  503  501 -0.10749673995E+03 -0.57119444956E+02 -0.63867359758E+02  0.13746715875E+03  0.00000000000E+00 0.  1.
         21    1    1    2  504  506  0.22744272672E+02  0.55827967334E+02 -0.93941900106E+02  0.11162053786E+03  0.00000000000E+00 0.  1.
         21    1    1    2  505  504  0.41723703939E+02 -0.27779072472E+02 -0.56674350415E+02  0.75660599607E+02  0.00000000000E+00 0.  1.
         21    1    1    2  506  502  0.43028763337E+02  0.29070550094E+02 -0.11202600200E+04  0.11214629213E+04  0.00000000000E+00 0.  1.
<scales pt_clust_3="14000.00000" pt_clust_4="83.33739" pt_clust_5="50.12529" pt_clust_6="52.17942"></scales>
<clustering>
<clus scale="   50.125">  1  5  2 -1</clus>
<clus scale="   52.179">  2  6  1 -1</clus>
<clus scale="   83.337">  2  4  1 -1</clus>
<clus scale="   50.125">  1  3  2 -1</clus>
</clustering>
</event>
<event>
 6    0  0.2908518E+002  0.9364108E+02  0.7546771E-02  0.1294266E+00
         21   -1    0    0  506  501  0.00000000000E+00  0.00000000000E+00  0.18214874585E+03  0.18214874585E+03  0.00000000000E+00 0. -1.
         21   -1    0    0  505  502 -0.00000000000E+00 -0.00000000000E+00 -0.34491462871E+04  0.34491462871E+04  0.00000000000E+00 0. -1.
         21    1    1    2  503  501 -0.17116402727E+02 -0.53867081019E+02  0.17048371876E+03  0.17960883058E+03  0.00000000000E+00 0. -1.
         21    1    1    2  504  503 -0.71445271599E+01  0.12902262143E+03 -0.87840511828E+03  0.88785890372E+03  0.00000000000E+00 0. -1.
         21    1    1    2  505  504  0.66555257356E+02 -0.66697129320E+02 -0.22228235125E+04  0.22248196505E+04  0.00000000000E+00 0. -1.
         21    1    1    2  506  502 -0.42294327469E+02 -0.84584110871E+01 -0.33625262925E+03  0.33900764819E+03  0.00000000000E+00 0. -1.
<scales pt_clust_3="56.55172" pt_clust_4="14000.00000" pt_clust_5="93.64108" pt_clust_6="43.13183"></scales>
<clustering>
<clus scale="   43.132">  2  6  1 -1</clus>
<clus scale="   56.552">  1  3  2 -1</clus>
<clus scale="   93.641">  2  5  1 -1</clus>
<clus scale="   56.552">  1  3  2 -1</clus>
</clustering>
</event>
<event>
 6    0  0.2908518E+002  0.1192030E+03  0.7546771E-02  0.1244418E+00
         21   -1    0    0  505  501  0.00000000000E+00  0.00000000000E+00  0.73884105624E+02  0.73884105624E+02  0.00000000000E+00 0.  1.
         21   -1    0    0  503  502 -0.00000000000E+00 -0.00000000000E+00 -0.11276884519E+04  0.11276884519E+04  0.00000000000E+00 0.  1.
         21    1    1    2  503  501  0.48020843265E+02 -0.25349912049E+02 -0.11821005979E+03  0.13008550136E+03  0.00000000000E+00 0. -1.
         21    1    1    2  504  506  0.49470545753E+02  0.50407074877E+02 -0.55087558220E+03  0.55538465513E+03  0.00000000000E+00 0.  1.
         21    1    1    2  505  504 -0.93787871721E+02 -0.59268714402E+02  0.17584141261E+02  0.11233052752E+03  0.00000000000E+00 0.  1.
         21    1    1    2  506  502 -0.37035172961E+01  0.34211551575E+02 -0.40230284555E+03  0.40377187352E+03  0.00000000000E+00 0.  1.
<scales pt_clust_3="54.30119" pt_clust_4="32.56973" pt_clust_5="109.69118" pt_clust_6="32.56973"></scales>
<clustering>
<clus scale="   32.570">  4  6 -1 -1</clus>
<clus scale="   54.301">  2  3  1 -1</clus>
<clus scale="  109.691">  1  5  2 -1</clus>
<clus scale="  109.691">  1  3  2 -1</clus>
</clustering>
</event>
<event>
 6    0  0.2908518E+002  0.1113357E+03  0.7546771E-02  0.1258116E+00
         21   -1    0    0  506  501  0.00000000000E+00  0.00000000000E+00  0.10899765579E+04  0.10899765579E+04  0.00000000000E+00 0. -1.
         21   -1    0    0  505  502 -0.00000000000E+00 -0.00000000000E+00 -0.92995459255E+03  0.92995459255E+03  0.00000000000E+00 0.  1.
         21    1    1    2  503  501 -0.67177818370E+02 -0.88038340739E+02  0.10397916806E+04  0.10456721990E+04  0.00000000000E+00 0. -1.
         21    1    1    2  504  503  0.17151811446E+03  0.11812727746E+03 -0.40377830242E+03  0.45432305111E+03  0.00000000000E+00 0.  1.
         21    1    1    2  505  504 -0.58972007914E+02 -0.59841594857E+02 -0.45347961879E+03  0.46119678972E+03  0.00000000000E+00 0.  1.
         21    1    1    2  506  502 -0.45368288180E+02  0.29752658139E+02 -0.22511794087E+02  0.58739110580E+02  0.00000000000E+00 0.  1.
<scales pt_clust_3="14000.00000" pt_clust_4="111.33566" pt_clust_5="93.58235" pt_clust_6="54.25405"></scales>
<clustering>
<clus scale="   54.254">  2  6  1 -1</clus>
<clus scale="   93.582">  2  5  1 -1</clus>
<clus scale="  111.336">  2  4  1 -1</clus>
<clus scale="  111.336">  1  3  2 -1</clus>
</clustering>
</event>
<event>
 6    0  0.2908518E+002  0.5352663E+03  0.7546771E-02  0.1004963E+00
         21   -1    0    0  502  501  0.00000000000E+00  0.00000000000E+00  0.86041237994E+03  0.86041237994E+03  0.00000000000E+00 0. -1.
         21   -1    0    0  504  502 -0.00000000000E+00 -0.00000000000E+00 -0.16488813440E+04  0.16488813440E+04  0.00000000000E+00 0. -1.
         21    1    1    2  503  506 -0.11159247910E+03 -0.44689184437E+03 -0.11955007635E+04  0.12811663738E+04  0.00000000000E+00 0. -1.
         21    1    1    2  504  505 -0.51914543770E+02  0.31094067503E+02 -0.11036894686E+03  0.12587003345E+03  0.00000000000E+00 0. -1.
         21    1    1    2  505  503 -0.54148243108E+02 -0.64290618327E+02 -0.19714662707E+03  0.21431777435E+03  0.00000000000E+00 0.  1.
         21    1    1    2  506  501  0.21765526598E+03  0.48008839520E+03  0.71454737336E+03  0.88793954230E+03  0.00000000000E+00 0. -1.
<scales pt_clust_3="38.75047" pt_clust_4="60.51414" pt_clust_5="38.75047" pt_clust_6="527.52386"></scales>
<clustering>
<clus scale="   38.750">  3  5 -1 -1</clus>
<clus scale="   60.514">  2  4  1 -1</clus>
<clus scale="  527.524">  1  6  2 -1</clus>
<clus scale="  527.524">  1  3  2 -1</clus>
</clustering>
</event>
<event>
 6    0  0.2908518E+002  0.6411965E+02  0.7546771E-02  0.1381314E+00
         21   -1    0    0  504  501  0.00000000000E+00  0.00000000000E+00  0.26417686671E+02  0.26417686671E+02  0.00000000000E+00 0.  1.
         21   -1    0    0  506  502 -0.00000000000E+00 -0.00000000000E+00 -0.16826726272E+04  0.16826726272E+04  0.00000000000E+00 0. -1.
         21    1    1    2  503  505  0.21655311372E+02  0.41008942270E+02 -0.20719198753E+03  0.21231864155E+03  0.00000000000E+00 0. -1.
         21    1    1    2  504  503  0.60140182256E+02 -0.14816271464E+02 -0.32382117078E+02  0.69892524123E+02  0.00000000000E+00 0.  1.
         21    1    1    2  505  502  0.40949325280E+02 -0.49953686548E+01 -0.22917129375E+03  0.23285463883E+03  0.00000000000E+00 0. -1.
         21    1    1    2  506  501 -0.12274481891E+03 -0.21197302151E+02 -0.11875095422E+04  0.11940245094E+04  0.00000000000E+00 0. -1.
<scales pt_clust_3="48.81886" pt_clust_4="64.11965" pt_clust_5="41.25289" pt_clust_6="14000.00000"></scales>
<clustering>
<clus scale="   41.253">  2  5  1 -1</clus>
<clus scale="   48.819">  2  3  1 -1</clus>
<clus scale="   64.120">  1  4  2 -1</clus>
<clus scale="   64.120">  1  3  2 -1</clus>
</clustering>
</event>
<event>
 6    0  0.2908518E+002  0.2064245E+03  0.7546771E-02  0.1144429E+00
         21   -1    0    0  504  501  0.00000000000E+00  0.00000000000E+00  0.52329244911E+03  0.52329244911E+03  0.00000000000E+00 0.  1.
         21   -1    0    0  501  502 -0.00000000000E+00 -0.00000000000E+00 -0.42468517709E+03  0.42468517709E+03  0.00000000000E+00 0.  1.
         21    1    1    2  503  502 -0.31562070090E+02 -0.97024225295E+01 -0.68811427339E+02  0.76323743381E+02  0.00000000000E+00 0. -1.
         21    1    1    2  504  505  0.11000738358E+02 -0.47142806714E+02  0.18857877152E+02  0.51952670769E+02  0.00000000000E+00 0.  1.
         21    1    1    2  505  506  0.15189291101E+03 -0.58487715905E+02  0.44596504821E+03  0.47473897412E+03  0.00000000000E+00 0.  1.
         21    1    1    2  506  503 -0.13133157928E+03  0.11533294515E+03 -0.29740422600E+03  0.34496223793E+03  0.00000000000E+00 0.  1.
<scales pt_clust_3="32.74534" pt_clust_4="48.40930" pt_clust_5="192.18548" pt_clust_6="32.74534"></scales>
<clustering>
<clus scale="   32.745">  3  6 -1 -1</clus>
<clus scale="   48.409">  1  4  2 -1</clus>
<clus scale="  192.185">  1  5  2 -1</clus>
<clus scale="   48.409">  1  3  2 -1</clus>
</clustering>
</event>
<event>
 6    0  0.2908518E+002  0.1577089E+03  0.7546771E-02  0.1191308E+00
         21   -1    0    0  505  501  0.00000000000E+00  0.00000000000E+00  0.56920560742E+02  0.56920560742E+02  0.00000000000E+00 0. -1.
         21   -1    0    0  506  502 -0.00000000000E+00 -0.00000000000E+00 -0.12482775455E+04  0.12482775455E+04  0.00000000000E+00 0. -1.
         21    1    1    2  503  501  0.69605972341E+02  0.13077271095E+03 -0.61753167066E+02  0.16049905594E+03  0.00000000000E+00 0. -1.
         21    1    1    2  504  502  0.91092210292E+01 -0.46779698707E+02 -0.38877513970E+03  0.39168536783E+03  0.00000000000E+00 0. -1.
         21    1    1    2  505  504 -0.49679246252E+02 -0.92135631062E+02 -0.56375464941E+03  0.57339018717E+03  0.00000000000E+00 0.  1.
         21    1    1    2  506  503 -0.29035947119E+02  0.81426188207E+01 -0.17707402860E+03  0.17962349532E+03  0.00000000000E+00 0. -1.
<scales pt_clust_3="147.50480" pt_clust_4="35.33959" pt_clust_5="35.33959" pt_clust_6="30.15607"></scales>
<clustering>
<clus scale="   30.156">  2  6  1 -1</clus>
<clus scale="   35.340">  4  5 -1 -1</clus>
<clus scale="  147.505">  1  3  2 -1</clus>
<clus scale="  147.505">  1  3  2 -1</clus>
</clustering>
</event>
<event>
 6    0  0.2908518E+002  0.1334266E+03  0.7546771E-02  0.1222458E+00
         21   -1    0    0  503  501  0.00000000000E+00  0.00000000000E+00  0.24481963643E+03  0.24481963643E+03  0.00000000000E+00 0. -1.
         21   -1    0    0  506  502 -0.00000000000E+00 -0.00000000000E+00 -0.44781679599E+03  0.44781679599E+03  0.00000000000E+00 0. -1.
         21    1    1    2  503  504 -0.58122161765E+02  0.12960288969E+02  0.19983492505E+03  0.20851894890E+03  0.00000000000E+00 0. -1.
         21    1    1    2  504  505 -0.40973078855E+02  0.13772485719E+02 -0.33048126852E+02  0.54411885119E+02  0.00000000000E+00 0. -1.
         21    1    1    2  505  502 -0.29746340982E+02  0.54030725634E+02 -0.68191635050E+02  0.91947067409E+02  0.00000000000E+00 0. -1.
         21    1    1    2  506  501  0.12884158160E+03 -0.80763500323E+02 -0.30159232272E+03  0.33775853099E+03  0.00000000000E+00 0. -1.
<scales pt_clust_3="59.54960" pt_clust_4="33.20193" pt_clust_5="33.20193" pt_clust_6="127.39594"></scales>
<clustering>
<clus scale="   33.202">  4  5 -1 -1</clus>
<clus scale="   59.550">  1  3  2 -1</clus>
<clus scale="  127.396">  2  6  1 -1</clus>
<clus scale="   59.550">  1  3  2 -1</clus>
</clustering>
</event>
<event>
 6    0  0.2908518E+002  0.1806576E+03  0.7546771E-02  0.1167168E+00
         21   -1    0    0  505  501  0.00000000000E+00  0.00000000000E+00  0.29927756269E+02  0.29927756269E+02  0.00000000000E+00 0.  1.
         21   -1    0    0  504  502 -0.00000000000E+00 -0.00000000000E+00 -0.17992402586E+04  0.17992402586E+04  0.00000000000E+00 0. -1.
         21    1    1    2  503  501  0.45895714447E+01 -0.43782850156E+02 -0.37859820788E+03  0.38114905895E+03  0.00000000000E+00 0.  1.
         21    1    1    2  504  506 -0.66791172730E+02 -0.36474159600E+02 -0.48067448714E+03  0.48666147131E+03  0.00000000000E+00 0. -1.
         21    1    1    2  505  502  0.98096416531E+02  0.11735146628E+03 -0.21202219922E+03  0.26143390472E+03  0.00000000000E+00 0.  1.
         21    1    1    2  506  503 -0.35894815246E+02 -0.37094456525E+02 -0.69801760809E+03  0.69992357988E+03  0.00000000000E+00 0. -1.
<scales pt_clust_3="42.27251" pt_clust_4="72.41191" pt_clust_5="152.95187" pt_clust_6="72.41191"></scales>
<clustering>
<clus scale="   42.273">  3  6 -1 -1</clus>
<clus scale="   72.412">  3  4 -1 -1</clus>
<clus scale="  152.952">  1  5  2 -1</clus>
<clus scale="  152.952">  1  3  2 -1</clus>
</clustering>
</event>
<event>
 6    0  0.2908518E+002  0.1687876E+03  0.7546771E-02  0.1179118E+00
         21   -1    0    0  506  501  0.00000000000E+00  0.00000000000E+00  0.11544240559E+04  0.11544240559E+04  0.00000000000E+00 0. -1.
         21   -1    0    0  504  502 -0.00000000000E+00 -0.00000000000E+00 -0.57692890980E+03  0.57692890980E+03  0.00000000000E+00 0.  1.
         21    1    1    2  503  505 -0.57426117905E+02  0.38470633938E+02 -0.69132900961E+02  0.97760455648E+02  0.00000000000E+00 0.  1.
         21    1    1    2  504  503  0.70968664619E+01  0.46320775250E+02 -0.98071397263E+02  0.10869212802E+03  0.00000000000E+00 0. -1.
         21    1    1    2  505  501  0.14346229625E+03 -0.91642409938E+02  0.11227012364E+04  0.11355341598E+04  0.00000000000E+00 0. -1.
         21    1    1    2  506  502 -0.93133044808E+02  0.68510007499E+01 -0.37800179207E+03  0.38936622228E+03  0.00000000000E+00 0.  1.
<scales pt_clust_3="73.00916" pt_clust_4="46.86128" pt_clust_5="14000.00000" pt_clust_6="168.78758"></scales>
<clustering>
<clus scale="   46.861">  2  4  1 -1</clus>
<clus scale="   73.009">  2  3  1 -1</clus>
<clus scale="  168.788">  2  6  1 -1</clus>
<clus scale="  168.788">  1  3  2 -1</clus>
</clustering>
</event>
<event>
 6    0  0.2908518E+002  0.8620427E+02  0.7546771E-02  0.1312313E+00
         21   -1    0    0  505  501  0.00000000000E+00  0.00000000000E+00  0.21058820244E+03  0.21058820244E+03  0.00000000000E+00 0. -1.
         21   -1    0    0  506  502 -0.00000000000E+00 -0.00000000000E+00 -0.17540567036E+03  0.17540567036E+03  0.00000000000E+00 0. -1.
         21    1    1    2  503  501 -0.14860941578E+02 -0.83415465624E+02  0.12635414322E+03  0.15213269537E+03  0.00000000000E+00 0. -1.
         21    1    1    2  504  502  0.51737125174E+02  0.11515015873E+02 -0.41318161976E+02  0.67205031217E+02  0.00000000000E+00 0. -1.
         21    1    1    2  505  504  0.25600451645E+02  0.90328808638E+02 -0.29220443508E+02  0.98328587467E+02  0.00000000000E+00 0. -1.
         21    1    1    2  506  503 -0.62476635241E+02 -0.18428358887E+02 -0.20633005655E+02  0.68327558750E+02  0.00000000000E+00 0. -1.
<scales pt_clust_3="14000.00000" pt_clust_4="53.00307" pt_clust_5="86.20427" pt_clust_6="45.74053"></scales>
<clustering>
<clus scale="   53.003">  2  4  1 -1</clus>
<clus scale="   45.741">  2  6  1 -1</clus>
<clus scale="   86.204">  2  5  1 -1</clus>
<clus scale="   86.204">  1  3  2 -1</clus>
</clustering>
</event>
<event>
 6    0  0.2908518E+002  0.1481167E+03  0.7546771E-02  0.1202806E+00
         21   -1    0    0  503  501  0.00000000000E+00  0.00000000000E+00  0.12815993612E+04  0.12815993612E+04  0.00000000000E+00 0. -1.
         21   -1    0    0  505  502 -0.00000000000E+00 -0.00000000000E+00 -0.73348511222E+03  0.73348511222E+03  0.00000000000E+00 0.  1.
         21    1    1    2  503  506 -0.13451169881E+03 -0.62740372888E+02  0.12535934847E+04  0.12623495461E+04  0.00000000000E+00 0. -1.
         21    1    1    2  504  501  0.10614715195E+03  0.29696460136E+02 -0.55495011151E+03  0.56579035329E+03  0.00000000000E+00 0.  1.
         21    1    1    2  505  504  0.34780526683E+02  0.65149924228E+02 -0.12594605574E+03  0.14600207745E+03  0.00000000000E+00 0.  1.
         21    1    1    2  506  502 -0.64159798268E+01 -0.32106011477E+02 -0.24583068508E+02  0.40942496594E+02  0.00000000000E+00 0.  1.
<scales pt_clust_3="14000.00000" pt_clust_4="148.11674" pt_clust_5="67.79509" pt_clust_6="32.74081"></scales>
<clustering>
<clus scale="   32.741">  2  6  1 -1</clus>
<clus scale="   67.795">  2  5  1 -1</clus>
<clus scale="  148.117">  2  4  1 -1</clus>
<clus scale="  148.117">  1  3  2 -1</clus>
</clustering>
</event>
<event>
 6    0  0.2908518E+002  0.8003420E+02  0.7546771E-02  0.1328954E+00
         21   -1    0    0  503  501  0.00000000000E+00  0.00000000000E+00  0.12836082995E+03  0.12836082995E+03  0.00000000000E+00 0. -1.
         21   -1    0    0  504  502 -0.00000000000E+00 -0.00000000000E+00 -0.36310519286E+03  0.36310519286E+03  0.00000000000E+00 0. -1.
         21    1    1    2  503  505 -0.12054646507E+02 -0.32793868501E+02 -0.16052137928E+02  0.38450272375E+02  0.00000000000E+00 0. -1.
         21    1    1    2  504  506 -0.58324315774E+00 -0.44246330797E+02 -0.19532757836E+03  0.20027716003E+03  0.00000000000E+00 0. -1.
         21    1    1    2  505  502 -0.58046458890E+02 -0.18429804644E+02 -0.95863863526E+02  0.11357345385E+03  0.00000000000E+00 0. -1.
         21    1    1    2  506  501  0.70684348555E+02  0.95470003943E+02  0.72499216898E+02  0.13916513656E+03  0.00000000000E+00 0. -1.
<scales pt_clust_3="34.93927" pt_clust_4="44.94684" pt_clust_5="14000.00000" pt_clust_6="80.03420"></scales>
<clustering>
<clus scale="   34.939">  1  3  2 -1</clus>
<clus scale="   44.947">  2  4  1 -1</clus>
<clus scale="   80.034">  1  6  2 -1</clus>
<clus scale="   34.939">  1  3  2 -1</clus>
</clustering>
</event>
<event>
 6    0  0.2908518E+002  0.1045826E+03  0.7546771E-02  0.1270944E+00
         21   -1    0    0  504  501  0.00000000000E+00  0.00000000000E+00  0.18073258451E+04  0.18073258451E+04  0.00000000000E+00 0.  1.
         21   -1    0    0  503  502 -0.00000000000E+00 -0.00000000000E+00 -0.16975706120E+03  0.16975706120E+03  0.00000000000E+00 0. -1.
         21    1    1    2  503  501 -0.10266619001E+03 -0.39896706581E+02 -0.43904424108E+02  0.11857357304E+03  0.00000000000E+00 0. -1.
         21    1    1    2  504  505  0.34463048465E+02 -0.98555998442E+02  0.16760097550E+04  0.16792586714E+04  0.00000000000E+00 0.  1.
         21    1    1    2  505  506  0.24191093212E+02  0.12459255840E+03  0.24627175639E+02  0.12928655143E+03  0.00000000000E+00 0. -1.
         21    1    1    2  506  502  0.44012048331E+02  0.13860146623E+02 -0.19163722684E+02  0.49964110417E+02  0.00000000000E+00 0. -1.
<scales pt_clust_3="82.49761" pt_clust_4="104.58258" pt_clust_5="14000.00000" pt_clust_6="46.14287"></scales>
<clustering>
<clus scale="   46.143">  2  6  1 -1</clus>
<clus scale="   82.498">  2  3  1 -1</clus>
<clus scale="  104.583">  1  4  2 -1</clus>
<clus scale="  104.583">  1  3  2 -1</clus>
</clustering>
</event>
<event>
 6    0  0.2908518E+002  0.9697787E+02  0.7546771E-02  0.1286783E+00
         21   -1    0    0  503  501  0.00000000000E+00  0.00000000000E+00  0.16923760819E+03  0.16923760819E+03  0.00000000000E+00 0.  1.
         21   -1    0    0  504  502 -0.00000000000E+00 -0.00000000000E+00 -0.80547026832E+03  0.80547026832E+03  0.00000000000E+00 0. -1.
         21    1    1    2  503  506 -0.30104443788E+02 -0.21475013453E+02 -0.95152772410E+02  0.10208576706E+03  0.00000000000E+00 0. -1.
         21    1    1    2  504  505  0.91204301384E+01  0.82366351666E+02 -0.27728125435E+03  0.28939988277E+03  0.00000000000E+00 0. -1.
         21    1    1    2  505  501  0.77484804003E+02 -0.36495300868E+02  0.14576218826E+03  0.16906335310E+03  0.00000000000E+00 0.  1.
         21    1    1    2  506  502 -0.56500790353E+02 -0.24396037346E+02 -0.40956082163E+03  0.41415887358E+03  0.00000000000E+00 0. -1.
<scales pt_clust_3="36.09352" pt_clust_4="82.86977" pt_clust_5="85.06827" pt_clust_6="36.09352"></scales>
<clustering>
<clus scale="   36.094">  3  6 -1 -1</clus>
<clus scale="   82.870">  2  4  1 -1</clus>
<clus scale="   85.068">  1  5  2 -1</clus>
<clus scale="   85.068">  1  3  2 -1</clus>
</clustering>
</event>
<event>
 6    0  0.2908518E+002  0.3747660E+03  0.7546771E-02  0.1052885E+00
         21   -1    0    0  503  501  0.00000000000E+00  0.00000000000E+00  0.20698376648E+03  0.20698376648E+03  0.00000000000E+00 0. -1.
         21   -1    0    0  506  502 -0.00000000000E+00 -0.00000000000E+00 -0.11485345384E+04  0.11485345384E+04  0.00000000000E+00 0. -1.
         21    1    1    2  503  505  0.62406299369E+02 -0.27984864723E+03 -0.66956145884E+03  0.72836965802E+03  0.00000000000E+00 0. -1.
         21    1    1    2  504  501 -0.61747825092E+02  0.34873707106E+03 -0.38078082081E+02  0.35620258136E+03  0.00000000000E+00 0. -1.
         21    1    1    2  505  502 -0.42953221601E+02 -0.81825666121E+02 -0.16285528970E+03  0.18724920364E+03  0.00000000000E+00 0. -1.
         21    1    1    2  506  504  0.42294747324E+02  0.12937242291E+02 -0.71055941282E+02  0.83696861833E+02  0.00000000000E+00 0.  1.
<scales pt_clust_3="66.03572" pt_clust_4="355.24076" pt_clust_5="66.03572" pt_clust_6="44.22915"></scales>
<clustering>
<clus scale="   44.229">  2  6  1 -1</clus>
<clus scale="   66.036">  3  5 -1 -1</clus>
<clus scale="  355.241">  1  4  2 -1</clus>
<clus scale="  355.241">  1  3  2 -1</clus>
</clustering>
</event>
<event>
 6    0  0.2908518E+002  0.1000948E+03  0.7546771E-02  0.1280097E+00
         21   -1    0    0  505  501  0.00000000000E+00  0.00000000000E+00  0.18638079827E+03  0.18638079827E+03  0.00000000000E+00 0. -1.
         21   -1    0    0  504  502 -0.00000000000E+00 -0.00000000000E+00 -0.35940434661E+03  0.35940434661E+03  0.00000000000E+00 0. -1.
         21    1    1    2  503  501  0.13111993889E+02  0.28600009476E+02  0.14437076135E+03  0.14775926928E+03  0.00000000000E+00 0. -1.
         21    1    1    2  504  506  0.10264940964E+03  0.12675580877E+02 -0.11238060165E+03  0.15273169703E+03  0.00000000000E+00 0. -1.
         21    1    1    2  505  502 -0.19572878032E+02 -0.31059540678E+02 -0.72098614336E+02  0.80907371795E+02  0.00000000000E+00 0. -1.
         21    1    1    2  506  503 -0.96188525497E+02 -0.10216049674E+02 -0.13291509370E+03  0.16438680678E+03  0.00000000000E+00 0. -1.
<scales pt_clust_3="31.46244" pt_clust_4="100.09478" pt_clust_5="33.30831" pt_clust_6="14000.00000"></scales>
<clustering>
<clus scale="   31.462">  1  3  2 -1</clus>
<clus scale="   33.308">  2  5  1 -1</clus>
<clus scale="  100.095">  2  4  1 -1</clus>
<clus scale="   31.462">  1  3  2 -1</clus>
</clustering>
</event>
<event>
 6    0  0.2908518E+002  0.1157822E+03  0.7546771E-02  0.1250222E+00
         21   -1    0    0  503  501  0.00000000000E+00  0.00000000000E+00  0.73473203350E+03  0.73473203350E+03  0.00000000000E+00 0. -1.
         21   -1    0    0  506  502 -0.00000000000E+00 -0.00000000000E+00 -0.86058801729E+02  0.86058801729E+02  0.00000000000E+00 0. -1.
         21    1    1    2  503  504 -0.10930447776E+03 -0.11019745693E+02  0.62148252203E+03  0.63111760302E+03  0.00000000000E+00 0. -1.
         21    1    1    2  504  502  0.89691126661E+01  0.64080005294E+02 -0.53757438797E+01  0.64927580294E+02  0.00000000000E+00 0. -1.
         21    1    1    2  505  501  0.56959940462E+02 -0.90364108446E+01  0.23523701701E+02  0.62285279803E+02  0.00000000000E+00 0. -1.
         21    1    1    2  506  505  0.43375424636E+02 -0.44023848757E+02  0.90427519170E+01  0.62460372109E+02  0.00000000000E+00 0. -1.
<scales pt_clust_3="108.56885" pt_clust_4="64.70465" pt_clust_5="38.86103" pt_clust_6="38.86103"></scales>
<clustering>
<clus scale="   38.861">  5  6 -1 -1</clus>
<clus scale="   64.705">  2  4  1 -1</clus>
<clus scale="  108.569">  1  3  2 -1</clus>
<clus scale="  108.569">  1  3  2 -1</clus>
</clustering>
</event>
<event>
 6    0  0.2908518E+002  0.6731183E+02  0.7546771E-02  0.1369480E+00
         21   -1    0    0  503  501  0.00000000000E+00  0.00000000000E+00  0.24954781342E+03  0.24954781342E+03  0.00000000000E+00 0. -1.
         21   -1    0    0  506  502 -0.00000000000E+00 -0.00000000000E+00 -0.32438156956E+03  0.32438156956E+03  0.00000000000E+00 0. -1.
         21    1    1    2  503  505 -0.23231916854E+02  0.62753727509E+02  0.20422340465E+03  0.21490684327E+03  0.00000000000E+00 0. -1.
         21    1    1    2  504  502 -0.32209431385E+02 -0.41628664648E+02 -0.15519261330E+03  0.16387538074E+03  0.00000000000E+00 0. -1.
         21    1    1    2  505  504  0.95784410089E+02 -0.42652697688E+02 -0.81348599052E+02  0.13270832831E+03  0.00000000000E+00 0. -1.
         21    1    1    2  506  501 -0.40343061851E+02  0.21527634827E+02 -0.42515948439E+02  0.62438830646E+02  0.00000000000E+00 0. -1.
<scales pt_clust_3="14000.00000" pt_clust_4="62.95578" pt_clust_5="67.31183" pt_clust_6="45.72747"></scales>
<clustering>
<clus scale="   45.727">  2  6  1 -1</clus>
<clus scale="   62.956">  2  4  1 -1</clus>
<clus scale="   67.312">  2  5  1 -1</clus>
<clus scale="   67.312">  1  3  2 -1</clus>
</clustering>
</event>
<event>
 6    0  0.2908518E+002  0.1429153E+03  0.7546771E-02  0.1209459E+00
         21   -1    0    0  503  501  0.00000000000E+00  0.00000000000E+00  0.19532551715E+03  0.19532551715E+03  0.00000000000E+00 0. -1.
         21   -1    0    0  506  502 -0.00000000000E+00 -0.00000000000E+00 -0.18077490447E+03  0.18077490447E+03  0.00000000000E+00 0. -1.
         21    1    1    2  503  505  0.30264825513E+02  0.43245442526E+01  0.34894913361E+02  0.46393063326E+02  0.00000000000E+00 0.  1.
         21    1    1    2  504  501 -0.79588643935E+01  0.66456914419E+02 -0.28119555408E+02  0.72598721703E+02  0.00000000000E+00 0. -1.
         21    1    1    2  505  502  0.60699841435E+01 -0.13896307650E+03  0.74314889930E+02  0.15770315217E+03  0.00000000000E+00 0. -1.
         21    1    1    2  506  504 -0.28375945263E+02  0.68181617833E+02 -0.66539635207E+02  0.99405484423E+02  0.00000000000E+00 0. -1.
<scales pt_clust_3="30.57223" pt_clust_4="32.89087" pt_clust_5="138.73519" pt_clust_6="32.89087"></scales>
<clustering>
<clus scale="   30.572">  1  3  2 -1</clus>
<clus scale="   32.891">  4  6 -1 -1</clus>
<clus scale="  138.735">  1  5  2 -1</clus>
<clus scale="   30.572">  1  3  2 -1</clus>
</clustering>
</event>
<event>
 6    0  0.2908518E+002  0.1586691E+03  0.7546771E-02  0.1190208E+00
         21   -1    0    0  506  501  0.00000000000E+00  0.00000000000E+00  0.75369795726E+03  0.75369795726E+03  0.00000000000E+00 0.  1.
         21   -1    0    0  503  502 -0.00000000000E+00 -0.00000000000E+00 -0.11802929215E+03  0.11802929215E+03  0.00000000000E+00 0. -1.
         21    1    1    2  503  504  0.85228308724E+02 -0.85786537804E+01 -0.31936424899E+02  0.91418778946E+02  0.00000000000E+00 0. -1.
         21    1    1    2  504  501  0.47011732739E+02 -0.58473479709E+02 -0.15340676243E+02  0.76580592790E+02  0.00000000000E+00 0. -1.
         21    1    1    2  505  502 -0.10165614045E+03  0.56163299736E+02  0.63681470778E+03  0.64731851447E+03  0.00000000000E+00 0.  1.
         21    1    1    2  506  505 -0.30583901012E+02  0.10888833754E+02  0.46131058476E+02  0.56409363210E+02  0.00000000000E+00 0. -1.
<scales pt_clust_3="59.21659" pt_clust_4="59.21659" pt_clust_5="145.50130" pt_clust_6="32.46447"></scales>
<clustering>
<clus scale="   32.464">  1  6  2 -1</clus>
<clus scale="   59.217">  3  4 -1 -1</clus>
<clus scale="  145.501">  1  5  2 -1</clus>
<clus scale="   32.464">  1  3  2 -1</clus>
</clustering>
</event>
<event>
 6    0  0.2908518E+002  0.1283224E+03  0.7546771E-02  0.1229966E+00
         21   -1    0    0  503  501  0.00000000000E+00  0.00000000000E+00  0.23055773855E+02  0.23055773855E+02  0.00000000000E+00 0.  1.
         21   -1    0    0  506  502 -0.00000000000E+00 -0.00000000000E+00 -0.91986085155E+03  0.91986085155E+03  0.00000000000E+00 0. -1.
         21    1    1    2  503  505 -0.24401169899E+02  0.67738712666E+02 -0.17767064387E+03  0.19170500249E+03  0.00000000000E+00 0. -1.
         21    1    1    2  504  502  0.23158633933E+02 -0.21938999348E+02 -0.19664383827E+03  0.19921456059E+03  0.00000000000E+00 0. -1.
         21    1    1    2  505  504  0.20017250079E+02  0.62561489371E+02 -0.24084126075E+03  0.24963802421E+03  0.00000000000E+00 0. -1.
         21    1    1    2  506  501 -0.18774714113E+02 -0.10836120269E+03 -0.28164933480E+03  0.30235903812E+03  0.00000000000E+00 0.  1.
<scales pt_clust_3="50.09978" pt_clust_4="31.90050" pt_clust_5="50.09978" pt_clust_6="117.61186"></scales>
<clustering>
<clus scale="   31.901">  2  4  1 -1</clus>
<clus scale="   50.100">  3  5 -1 -1</clus>
<clus scale="  117.612">  1  6  2 -1</clus>
<clus scale="  117.612">  1  3  2 -1</clus>
</clustering>
</event>
<event>
 6    0  0.2908518E+002  0.1508219E+03  0.7546771E-02  0.1199467E+00
         21   -1    0    0  505  501  0.00000000000E+00  0.00000000000E+00  0.22859639207E+03  0.22859639207E+03  0.00000000000E+00 0.  1.
         21   -1    0    0  503  502 -0.00000000000E+00 -0.00000000000E+00 -0.48890210593E+03  0.48890210593E+03  0.00000000000E+00 0.  1.
         21    1    1    2  503  506 -0.11642231350E+03  0.96626972521E+02 -0.36361303720E+03  0.39383418810E+03  0.00000000000E+00 0.  1.
         21    1    1    2  504  501  0.42348711677E+02 -0.22294644811E+02 -0.15496585000E+01  0.47883880476E+02  0.00000000000E+00 0.  1.
         21    1    1    2  505  502  0.35583209407E+02 -0.21025218209E+02  0.17489688563E+03  0.17971406510E+03  0.00000000000E+00 0.  1.
         21    1    1    2  506  504  0.38490392416E+02 -0.53307109500E+02 -0.70039903785E+02  0.96066364321E+02  0.00000000000E+00 0.  1.
<scales pt_clust_3="139.28832" pt_clust_4="54.30034" pt_clust_5="41.33067" pt_clust_6="54.30034"></scales>
<clustering>
<clus scale="   41.331">  1  5  2 -1</clus>
<clus scale="   54.300">  4  6 -1 -1</clus>
<clus scale="  139.288">  2  3  1 -1</clus>
<clus scale="   41.331">  1  3  2 -1</clus>
</clustering>
</event>
<event>
 6    0  0.2908518E+002  0.1400135E+03  0.7546771E-02  0.1213311E+00
         21   -1    0    0  504  501  0.00000000000E+00  0.00000000000E+00  0.11579646341E+03  0.11579646341E+03  0.00000000000E+00 0.  1.
         21   -1    0    0  505  502 -0.00000000000E+00 -0.00000000000E+00 -0.81611816804E+03  0.81611816804E+03  0.00000000000E+00 0.  1.
         21    1    1    2  503  506 -0.46112638977E+01 -0.35250493671E+02 -0.15120252793E+03  0.15532567563E+03  0.00000000000E+00 0.  1.
         21    1    1    2  504  503  0.51195303692E+02  0.12813354073E+03  0.60511289134E+02  0.15066777855E+03  0.00000000000E+00 0.  1.
         21    1    1    2  505  501 -0.28649047409E+02 -0.42877172394E+02 -0.91148983750E+02  0.10472515012E+03  0.00000000000E+00 0. -1.
         21    1    1    2  506  502 -0.17934992386E+02 -0.50005874667E+02 -0.51848148208E+03  0.52119602715E+03  0.00000000000E+00 0.  1.
<scales pt_clust_3="30.91248" pt_clust_4="134.81777" pt_clust_5="51.56762" pt_clust_6="30.91248"></scales>
<clustering>
<clus scale="   30.912">  3  6 -1 -1</clus>
<clus scale="   51.568">  2  5  1 -1</clus>
<clus scale="  134.818">  1  4  2 -1</clus>
<clus scale="  134.818">  1  3  2 -1</clus>
</clustering>
</event>
<event>
 6    0  0.2908518E+002  0.1152039E+03  0.7546771E-02  0.1251226E+00
         21   -1    0    0  505  501  0.00000000000E+00  0.00000000000E+00  0.13679226651E+04  0.13679226651E+04  0.00000000000E+00 0. -1.
         21   -1    0    0  503  502 -0.00000000000E+00 -0.00000000000E+00 -0.75040456890E+02  0.75040456890E+02  0.00000000000E+00 0. -1.
         21    1    1    2  503  506 -0.59452899707E+02 -0.10845117431E+02  0.92695636733E+00  0.60441071332E+02  0.00000000000E+00 0. -1.
         21    1    1    2  504  502  0.52207195027E+02  0.44957669929E+02  0.10683946643E+03  0.12712771092E+03  0.00000000000E+00 0. -1.
         21    1    1    2  505  504  0.51743140940E+02  0.25643425308E+02  0.11792466768E+04  0.11806598420E+04  0.00000000000E+00 0. -1.
         21    1    1    2  506  501 -0.44497436260E+02 -0.59755977806E+02  0.58691086853E+01  0.74734497751E+02  0.00000000000E+00 0. -1.
<scales pt_clust_3="44.45245" pt_clust_4="104.09556" pt_clust_5="57.74892" pt_clust_6="44.45245"></scales>
<clustering>
<clus scale="   44.452">  3  6 -1 -1</clus>
<clus scale="   57.749">  1  5  2 -1</clus>
<clus scale="  104.096">  1  4  2 -1</clus>
<clus scale="   57.749">  1  3  2 -1</clus>
</clustering>
</event>
<event>
 6    0  0.2908518E+002  0.2169049E+03  0.7546771E-02  0.1136212E+00
         21   -1    0    0  505  501  0.00000000000E+00  0.00000000000E+00  0.19806885055E+04  0.19806885055E+04  0.00000000000E+00 0.  1.
         21   -1    0    0  506  502 -0.00000000000E+00 -0.00000000000E+00 -0.15785206876E+03  0.15785206876E+03  0.00000000000E+00 0.  1.
         21    1    1    2  503  501 -0.13387732058E+03 -0.55117825650E+00  0.21121815292E+02  0.13553439359E+03  0.00000000000E+00 0.  1.
         21    1    1    2  504  502 -0.53174844132E+01  0.31499620284E+02 -0.38432806851E+02  0.49975817762E+02  0.00000000000E+00 0.  1.
         21    1    1    2  505  504  0.20768015134E+03 -0.36205792835E+02  0.18673066459E+04  0.18791689691E+04  0.00000000000E+00 0.  1.
         21    1    1    2  506  503 -0.68485346347E+02  0.52573508070E+01 -0.27159217551E+02  0.73861393838E+02  0.00000000000E+00 0. -1.
<scales pt_clust_3="38.93621" pt_clust_4="31.94529" pt_clust_5="210.26264" pt_clust_6="38.93621"></scales>
<clustering>
<clus scale="   31.945">  2  4  1 -1</clus>
<clus scale="   38.936">  3  6 -1 -1</clus>
<clus scale="  210.263">  1  5  2 -1</clus>
<clus scale="  210.263">  1  3  2 -1</clus>
</clustering>
</event>
<event>
 6    0  0.2908518E+002  0.1382574E+03  0.7546771E-02  0.1215693E+00
         21   -1    0    0  505  501  0.00000000000E+00  0.00000000000E+00  0.31780155468E+03  0.31780155468E+03  0.00000000000E+00 0.  1.
         21   -1    0    0  503  502 -0.00000000000E+00 -0.00000000000E+00 -0.86434328405E+03  0.86434328405E+03  0.00000000000E+00 0. -1.
         21    1    1    2  503  504 -0.51930138430E+02 -0.32978917579E+02 -0.19794058799E+03  0.20727958090E+03  0.00000000000E+00 0. -1.
         21    1    1    2  504  506  0.27136130102E+02 -0.74661637494E+02 -0.13492707253E+03  0.15657600254E+03  0.00000000000E+00 0. -1.
         21    1    1    2  505  502 -0.11001704133E+03  0.70160398162E+02 -0.49079603886E+03  0.50784543182E+03  0.00000000000E+00 0. -1.
         21    1    1    2  506  501  0.13481104966E+03  0.37480156911E+02  0.27712197001E+03  0.31044382348E+03  0.00000000000E+00 0.  1.
<scales pt_clust_3="61.51706" pt_clust_4="83.41592" pt_clust_5="14000.00000" pt_clust_6="138.25739"></scales>
<clustering>
<clus scale="   61.517">  2  3  1 -1</clus>
<clus scale="   83.416">  2  4  1 -1</clus>
<clus scale="  138.257">  1  6  2 -1</clus>
<clus scale="  138.257">  1  3  2 -1</clus>
</clustering>
</event>
<event>
 6    0  0.3391247E+002  0.1038975E+03  0.7546771E-02  0.1272307E+00
         21   -1    0    0  505  501  0.00000000000E+00  0.00000000000E+00  0.24528619820E+04  0.24528619820E+04  0.00000000000E+00 0. -1.
         21   -1    0    0  503  502 -0.00000000000E+00 -0.00000000000E+00 -0.34422054639E+03  0.34422054639E+03  0.00000000000E+00 0. -1.
         21    1    1    2  503  501 -0.73793647654E+01  0.82751783780E+02 -0.26758786686E+03  0.28018847092E+03  0.00000000000E+00 0. -1.
         21    1    1    2  504  506 -0.58327370068E+01 -0.34775210330E+02 -0.18365248580E+02  0.39756992214E+02  0.00000000000E+00 0. -1.
         21    1    1    2  505  504  0.23209961116E+02  0.67557294753E+02  0.23527783046E+04  0.23538624516E+04  0.00000000000E+00 0. -1.
         21    1    1    2  506  502 -0.99978593435E+01 -0.11553386820E+03  0.41816246372E+02  0.12327461358E+03  0.00000000000E+00 0. -1.
<scales pt_clust_3="87.22816" pt_clust_4="31.12436" pt_clust_5="71.43312" pt_clust_6="31.12436"></scales>
<clustering>
<clus scale="   31.124">  4  6 -1 -1</clus>
<clus scale="   71.433">  1  5  2 -1</clus>
<clus scale="   87.228">  2  3  1 -1</clus>
<clus scale="   71.433">  1  3  2 -1</clus>
</clustering>
</event>
<event>
 6    0  0.2908518E+002  0.1239126E+03  0.7546771E-02  0.1236779E+00
         21   -1    0    0  505  501  0.00000000000E+00  0.00000000000E+00  0.17250704281E+03  0.17250704281E+03  0.00000000000E+00 0. -1.
         21   -1    0    0  503  502 -0.00000000000E+00 -0.00000000000E+00 -0.30791582970E+03  0.30791582970E+03  0.00000000000E+00 0. -1.
         21    1    1    2  503  501  0.10207000591E+03 -0.85581702070E+02 -0.15647642314E+03  0.20549302867E+03  0.00000000000E+00 0. -1.
         21    1    1    2  504  502  0.27897227790E+01  0.38157867810E+02 -0.17131240984E+02  0.41919981472E+02  0.00000000000E+00 0. -1.
         21    1    1    2  505  506 -0.59054012082E+02 -0.37419491448E+01  0.11539894298E+03  0.12968536760E+03  0.00000000000E+00 0. -1.
         21    1    1    2  506  504 -0.45805716606E+02  0.51165783405E+02 -0.77200065756E+02  0.10332449476E+03  0.00000000000E+00 0. -1.
<scales pt_clust_3="113.95555" pt_clust_4="36.32530" pt_clust_5="59.17245" pt_clust_6="36.32530"></scales>
<clustering>
<clus scale="   36.325">  4  6 -1 -1</clus>
<clus scale="   59.172">  1  5  2 -1</clus>
<clus scale="  113.956">  1  3  2 -1</clus>
<clus scale="   59.172">  1  3  2 -1</clus>
</clustering>
</event>
<event>
 6    0  0.2908518E+002  0.8152427E+02  0.7546771E-02  0.1324781E+00
         21   -1    0    0  506  501  0.00000000000E+00  0.00000000000E+00  0.52705979190E+02  0.52705979190E+02  0.00000000000E+00 0. -1.
         21   -1    0    0  504  502 -0.00000000000E+00 -0.00000000000E+00 -0.93518674396E+03  0.93518674396E+03  0.00000000000E+00 0. -1.
         21    1    1    2  503  505  0.21844403567E+02  0.74088189210E+02 -0.37381346168E+03  0.38171028527E+03  0.00000000000E+00 0. -1.
         21    1    1    2  504  503  0.46110786210E+02 -0.29041141352E+02 -0.40651132170E+03  0.41014759193E+03  0.00000000000E+00 0. -1.
         21    1    1    2  505  501  0.24166970223E+02  0.26009463750E+02 -0.64718512437E+02  0.73817481035E+02  0.00000000000E+00 0.  1.
         21    1    1    2  506  502 -0.92122160000E+02 -0.71056511607E+02 -0.37437468951E+02  0.12221736491E+03  0.00000000000E+00 0. -1.
<scales pt_clust_3="81.52427" pt_clust_4="54.75854" pt_clust_5="35.50401" pt_clust_6="14000.00000"></scales>
<clustering>
<clus scale="   35.504">  1  5  2 -1</clus>
<clus scale="   54.759">  2  4  1 -1</clus>
<clus scale="   81.524">  2  3  1 -1</clus>
<clus scale="   35.504">  1  3  2 -1</clus>
</clustering>
</event>
<event>
 6    0  0.3887708E+002  0.1557857E+03  0.7546771E-02  0.1193539E+00
         21   -1    0    0  504  501  0.00000000000E+00  0.00000000000E+00  0.18030341713E+04  0.18030341713E+04  0.00000000000E+00 0. -1.
         21   -1    0    0  505  502 -0.00000000000E+00 -0.00000000000E+00 -0.44543176066E+03  0.44543176066E+03  0.00000000000E+00 0. -1.
         21    1    1    2  503  506 -0.59019668139E+02 -0.76797026207E+02  0.90753660954E+01  0.97280351209E+02  0.00000000000E+00 0. -1.
         21    1    1    2  504  502 -0.52944536813E+02 -0.96421214184E+02 -0.37270807497E+03  0.38860196046E+03  0.00000000000E+00 0. -1.
         21    1    1    2  505  503  0.20068958270E+02  0.41208022253E+02  0.14195791518E+02  0.47983170809E+02  0.00000000000E+00 0. -1.
         21    1    1    2  506  501  0.91895246682E+02  0.13201021814E+03  0.17070393280E+04  0.17146004495E+04  0.00000000000E+00 0. -1.
<scales pt_clust_3="14000.00000" pt_clust_4="69.36440" pt_clust_5="45.83519" pt_clust_6="155.78566"></scales>
<clustering>
<clus scale="   45.835">  2  5  1 -1</clus>
<clus scale="   69.364">  2  4  1 -1</clus>
<clus scale="  155.786">  1  6  2 -1</clus>
<clus scale="  155.786">  1  3  2 -1</clus>
</clustering>
</event>
<event>
 6    0  0.2908518E+002  0.1312552E+03  0.7546771E-02  0.1225605E+00
         21   -1    0    0  506  501  0.00000000000E+00  0.00000000000E+00  0.31716371073E+03  0.31716371073E+03  0.00000000000E+00 0. -1.
         21   -1    0    0  505  502 -0.00000000000E+00 -0.00000000000E+00 -0.59162672161E+03  0.59162672161E+03  0.00000000000E+00 0.  1.
         21    1    1    2  503  502 -0.18329440557E+02 -0.23895981773E+02 -0.10636983114E+02  0.31939501339E+02  0.00000000000E+00 0.  1.
         21    1    1    2  504  501  0.18086207453E+01 -0.15342438456E+03 -0.34733806979E+03  0.37971837934E+03  0.00000000000E+00 0.  1.
         21    1    1    2  505  504 -0.14306500391E+02  0.11034168603E+03 -0.18653607365E+03  0.21719960958E+03  0.00000000000E+00 0.  1.
         21    1    1    2  506  503  0.30827320202E+02  0.66978680303E+02  0.27004811566E+03  0.27993294208E+03  0.00000000000E+00 0. -1.
<scales pt_clust_3="30.11621" pt_clust_4="14000.00000" pt_clust_5="131.25525" pt_clust_6="73.47791"></scales>
<clustering>
<clus scale="   30.116">  2  3  1 -1</clus>
<clus scale="   73.478">  1  6  2 -1</clus>
<clus scale="  131.255">  2  5  1 -1</clus>
<clus scale="   73.478">  1  3  2 -1</clus>
</clustering>
</event>
<event>
 6    0  0.2908518E+002  0.1275236E+03  0.7546771E-02  0.1231177E+00
         21   -1    0    0  505  501  0.00000000000E+00  0.00000000000E+00  0.26333804788E+04  0.26333804788E+04  0.00000000000E+00 0. -1.
         21   -1    0    0  503  502 -0.00000000000E+00 -0.00000000000E+00 -0.90214174081E+01  0.90214174081E+01  0.00000000000E+00 0. -1.
         21    1    1    2  503  504 -0.25931051880E+02 -0.48462476765E+02  0.89769847325E+03  0.89937955279E+03  0.00000000000E+00 0. -1.
         21    1    1    2  504  506 -0.82709765065E+01 -0.59011854546E+02  0.41021649632E+03  0.41452187141E+03  0.00000000000E+00 0. -1.
         21    1    1    2  505  502 -0.19659847174E+02  0.12017980048E+03  0.82253756905E+03  0.83150330519E+03  0.00000000000E+00 0. -1.
         21    1    1    2  506  501  0.53861875561E+02 -0.12705469168E+02  0.49390652281E+03  0.49699716685E+03  0.00000000000E+00 0. -1.
<scales pt_clust_3="52.38311" pt_clust_4="52.38311" pt_clust_5="115.27091" pt_clust_6="55.34014"></scales>
<clustering>
<clus scale="   52.383">  3  4 -1 -1</clus>
<clus scale="   55.340">  1  6  2 -1</clus>
<clus scale="  115.271">  2  5  1 -1</clus>
<clus scale="   55.340">  1  3  2 -1</clus>
</clustering>
</event>
<event>
 6    0  0.2908518E+002  0.1168500E+03  0.7546771E-02  0.1248386E+00
         21   -1    0    0  505  501  0.00000000000E+00  0.00000000000E+00  0.18827696386E+02  0.18827696386E+02  0.00000000000E+00 0. -1.
         21   -1    0    0  504  502 -0.00000000000E+00 -0.00000000000E+00 -0.22251847986E+04  0.22251847986E+04  0.00000000000E+00 0.  1.
         21    1    1    2  503  501 -0.66634268349E+01 -0.42897480807E+02 -0.23984713343E+02  0.49596991752E+02  0.00000000000E+00 0. -1.
         21    1    1    2  504  506  0.14672114949E+02  0.72497284314E+02 -0.10453179432E+04  0.10479316436E+04  0.00000000000E+00 0.  1.
         21    1    1    2  505  502 -0.45635761956E+02 -0.74359514114E+02 -0.61311204883E+03  0.61928857937E+03  0.00000000000E+00 0. -1.
         21    1    1    2  506  503  0.37627073843E+02  0.44759710606E+02 -0.52394239684E+03  0.52719528032E+03  0.00000000000E+00 0.  1.
<scales pt_clust_3="43.41192" pt_clust_4="39.38737" pt_clust_5="108.12733" pt_clust_6="39.38737"></scales>
<clustering>
<clus scale="   39.387">  4  6 -1 -1</clus>
<clus scale="   43.412">  1  3  2 -1</clus>
<clus scale="  108.127">  1  5  2 -1</clus>
<clus scale="   43.412">  1  3  2 -1</clus>
</clustering>
</event>
<event>
 6    0  0.2908518E+002  0.2149138E+03  0.7546771E-02  0.1137733E+00
         21   -1    0    0  505  501  0.00000000000E+00  0.00000000000E+00  0.58460822539E+03  0.58460822539E+03  0.00000000000E+00 0.  1.
         21   -1    0    0  503  502 -0.00000000000E+00 -0.00000000000E+00 -0.35127963016E+03  0.35127963016E+03  0.00000000000E+00 0.  1.
         21    1    1    2  503  506  0.17496047937E+03 -0.21277629364E+02  0.11435030621E+03  0.21009497706E+03  0.00000000000E+00 0.  1.
         21    1    1    2  504  502 -0.72915898842E+02  0.35323744500E+02 -0.63557700708E+02  0.10297609698E+03  0.00000000000E+00 0. -1.
         21    1    1    2  505  504 -0.13383865293E+03 -0.12169758441E+02 -0.19890404222E+03  0.24004938253E+03  0.00000000000E+00 0.  1.
         21    1    1    2  506  501  0.31794072407E+02 -0.18763566955E+01  0.38144003195E+03  0.38276739899E+03  0.00000000000E+00 0.  1.
<scales pt_clust_3="201.72059" pt_clust_4="57.22800" pt_clust_5="57.22800" pt_clust_6="31.84939"></scales>
<clustering>
<clus scale="   31.849">  1  6  2 -1</clus>
<clus scale="   57.228">  4  5 -1 -1</clus>
<clus scale="  201.721">  1  3  2 -1</clus>
<clus scale="   31.849">  1  3  2 -1</clus>
</clustering>
</event>
<event>
 6    0  0.2908518E+002  0.2702609E+03  0.7546771E-02  0.1101130E+00
         21   -1    0    0  506  501  0.00000000000E+00  0.00000000000E+00  0.57116915243E+03  0.57116915243E+03  0.00000000000E+00 0. -1.
         21   -1    0    0  505  502 -0.00000000000E+00 -0.00000000000E+00 -0.17110452512E+03  0.17110452512E+03  0.00000000000E+00 0. -1.
         21    1    1    2  503  504  0.98118901362E+02 -0.16799311775E+02  0.45689926557E+02  0.10953129721E+03  0.00000000000E+00 0. -1.
         21    1    1    2  504  501  0.15129705217E+02 -0.34646627304E+02  0.12852936199E+03  0.13397422758E+03  0.00000000000E+00 0. -1.
         21    1    1    2  505  503  0.16038468708E+03  0.34736816341E+02  0.44351449522E+02  0.16999101545E+03  0.00000000000E+00 0. -1.
         21    1    1    2  506  502 -0.27363329366E+03  0.16709122737E+02  0.18149388924E+03  0.32877713730E+03  0.00000000000E+00 0. -1.
<scales pt_clust_3="42.32122" pt_clust_4="37.80604" pt_clust_5="42.32122" pt_clust_6="264.88026"></scales>
<clustering>
<clus scale="   37.806">  1  4  2 -1</clus>
<clus scale="   42.321">  3  5 -1 -1</clus>
<clus scale="  264.880">  1  6  2 -1</clus>
<clus scale="   37.806">  1  3  2 -1</clus>
</clustering>
</event>
<event>
 6    0  0.2908518E+002  0.1002072E+03  0.7546771E-02  0.1279861E+00
         21   -1    0    0  504  501  0.00000000000E+00  0.00000000000E+00  0.12935870323E+03  0.12935870323E+03  0.00000000000E+00 0.  1.
         21   -1    0    0  503  502 -0.00000000000E+00 -0.00000000000E+00 -0.13449738003E+04  0.13449738003E+04  0.00000000000E+00 0.  1.
         21    1    1    2  503  501 -0.36647890131E+02  0.55199919051E+02 -0.28317200487E+03  0.29082036252E+03  0.00000000000E+00 0.  1.
         21    1    1    2  504  505 -0.90299551195E+02 -0.39683337397E+02  0.93079646491E+02  0.13561930837E+03  0.00000000000E+00 0.  1.
         21    1    1    2  505  506  0.13505792468E+03  0.23027515008E+02 -0.43517606240E+03  0.45623361862E+03  0.00000000000E+00 0.  1.
         21    1    1    2  506  502 -0.81104833579E+01 -0.38544096662E+02 -0.59034667631E+03  0.59165921403E+03  0.00000000000E+00 0.  1.
<scales pt_clust_3="56.75754" pt_clust_4="100.20717" pt_clust_5="14000.00000" pt_clust_6="39.38816"></scales>
<clustering>
<clus scale="   39.388">  2  6  1 -1</clus>
<clus scale="   56.758">  2  3  1 -1</clus>
<clus scale="  100.207">  1  4  2 -1</clus>
<clus scale="  100.207">  1  3  2 -1</clus>
</clustering>
</event>
<event>
 6    0  0.2908518E+002  0.1585180E+03  0.7546771E-02  0.1190380E+00
         21   -1    0    0  505  501  0.00000000000E+00  0.00000000000E+00  0.30604843232E+04  0.30604843232E+04  0.00000000000E+00 0. -1.
         21   -1    0    0  506  502 -0.00000000000E+00 -0.00000000000E+00 -0.76202702950E+02  0.76202702950E+02  0.00000000000E+00 0. -1.
         21    1    1    2  503  502  0.82750944202E+02  0.51754283290E+02  0.12096344016E+03  0.15542965760E+03  0.00000000000E+00 0. -1.
         21    1    1    2  504  503 -0.85078451913E+02  0.15207564864E+03  0.60973926632E+03  0.63415086437E+03  0.00000000000E+00 0. -1.
         21    1    1    2  505  504  0.26586250372E+02 -0.16972471772E+02  0.21099391829E+04  0.21101749333E+04  0.00000000000E+00 0. -1.
         21    1    1    2  506  501 -0.24258742661E+02 -0.18685746015E+03  0.14363973090E+03  0.23693157093E+03  0.00000000000E+00 0. -1.
<scales pt_clust_3="99.65743" pt_clust_4="158.51799" pt_clust_5="31.54193" pt_clust_6="14000.00000"></scales>
<clustering>
<clus scale="   31.542">  1  5  2 -1</clus>
<clus scale="   99.657">  2  3  1 -1</clus>
<clus scale="  158.518">  1  4  2 -1</clus>
<clus scale="   31.542">  1  3  2 -1</clus>
</clustering>
</event>
<event>
 6    0  0.3769366E+002  0.9370665E+02  0.7546771E-02  0.1294116E+00
         21   -1    0    0  504  501  0.00000000000E+00  0.00000000000E+00  0.36521464197E+03  0.36521464197E+03  0.00000000000E+00 0. -1.
         21   -1    0    0  506  502 -0.00000000000E+00 -0.00000000000E+00 -0.49325041698E+03  0.49325041698E+03  0.00000000000E+00 0.  1.
         21    1    1    2  503  502  0.15457698880E+02  0.36032517595E+02 -0.88283426317E+02  0.96598375458E+02  0.00000000000E+00 0.  1.
         21    1    1    2  504  503  0.80768425152E+02  0.47918892681E+02  0.34212967619E+03  0.35478510976E+03  0.00000000000E+00 0. -1.
         21    1    1    2  505  501 -0.63194627889E+02 -0.55978410183E+02 -0.32392178253E+03  0.33474238542E+03  0.00000000000E+00 0.  1.
         21    1    1    2  506  505 -0.33031496143E+02 -0.27973000093E+02 -0.57960242350E+02  0.72339188307E+02  0.00000000000E+00 0.  1.
<scales pt_clust_3="39.20820" pt_clust_4="14000.00000" pt_clust_5="93.70665" pt_clust_6="37.68986"></scales>
<clustering>
<clus scale="   39.208">  2  3  1 -1</clus>
<clus scale="   37.690">  2  6  1 -1</clus>
<clus scale="   93.707">  2  5  1 -1</clus>
<clus scale="   93.707">  1  3  2 -1</clus>
</clustering>
</event>
<event>
 6    0  0.2908518E+002  0.1201231E+03  0.7546771E-02  0.1242894E+00
         21   -1    0    0  503  501  0.00000000000E+00  0.00000000000E+00  0.21458746909E+03  0.21458746909E+03  0.00000000000E+00 0.  1.
         21   -1    0    0  506  502 -0.00000000000E+00 -0.00000000000E+00 -0.17462765508E+03  0.17462765508E+03  0.00000000000E+00 0.  1.
         21    1    1    2  503  502  0.57563981401E+02 -0.12948371423E+03 -0.23457061746E+02  0.14363104800E+03  0.00000000000E+00 0.  1.
         21    1    1    2  504  505 -0.22467387750E+02  0.44588422413E+02 -0.18896360012E+02  0.53385235293E+02  0.00000000000E+00 0.  1.
         21    1    1    2  505  501  0.22198435729E+02  0.72768340343E+02  0.10476806215E+03  0.12947721325E+03  0.00000000000E+00 0.  1.
         21    1    1    2  506  504 -0.57295029380E+02  0.12126951471E+02 -0.22454826385E+02  0.62721627622E+02  0.00000000000E+00 0.  1.
<scales pt_clust_3="110.62260" pt_clust_4="43.23154" pt_clust_5="76.07892" pt_clust_6="43.23154"></scales>
<clustering>
<clus scale="   43.232">  4  6 -1 -1</clus>
<clus scale="   76.079">  1  5  2 -1</clus>
<clus scale="  110.623">  1  3  2 -1</clus>
<clus scale="   76.079">  1  3  2 -1</clus>
</clustering>
</event>
<event>
 6    0  0.2908518E+002  0.1261784E+03  0.7546771E-02  0.1233239E+00
         21   -1    0    0  506  501  0.00000000000E+00  0.00000000000E+00  0.76042971853E+02  0.76042971853E+02  0.00000000000E+00 0.  1.
         21   -1    0    0  505  502 -0.00000000000E+00 -0.00000000000E+00 -0.41121525784E+03  0.41121525784E+03  0.00000000000E+00 0.  1.
         21    1    1    2  503  501 -0.24559723760E+02  0.33753599171E+02  0.25723222443E+02  0.49032332812E+02  0.00000000000E+00 0.  1.
         21    1    1    2  504  503 -0.65427984191E+02 -0.12877575645E+02 -0.70308427097E+02  0.96901640805E+02  0.00000000000E+00 0.  1.
         21    1    1    2  505  504 -0.28988557776E+02  0.29538966196E+02 -0.32234261075E+02  0.52458884785E+02  0.00000000000E+00 0.  1.
         21    1    1    2  506  502  0.11897626573E+03 -0.50414989721E+02 -0.25835282026E+03  0.28886537129E+03  0.00000000000E+00 0.  1.
<scales pt_clust_3="41.74309" pt_clust_4="40.18222" pt_clust_5="40.18222" pt_clust_6="115.41021"></scales>
<clustering>
<clus scale="   40.182">  4  5 -1 -1</clus>
<clus scale="   41.743">  1  3  2 -1</clus>
<clus scale="  115.410">  2  6  1 -1</clus>
<clus scale="   41.743">  1  3  2 -1</clus>
</clustering>
</event>
<event>
 6    0  0.2908518E+002  0.8798554E+02  0.7546771E-02  0.1307805E+00
         21   -1    0    0  506  501  0.00000000000E+00  0.00000000000E+00  0.41915128052E+03  0.41915128052E+03  0.00000000000E+00 0.  1.
         21   -1    0    0  503  502 -0.00000000000E+00 -0.00000000000E+00 -0.18134220437E+03  0.18134220437E+03  0.00000000000E+00 0.  1.
         21    1    1    2  503  501 -0.26026720955E+02  0.61846210238E+02 -0.54500311913E+02  0.86444363166E+02  0.00000000000E+00 0.  1.
         21    1    1    2  504  505  0.45533393759E+02 -0.82119380947E+02  0.23232120505E+02  0.96729592667E+02  0.00000000000E+00 0.  1.
         21    1    1    2  505  502 -0.73296269984E+02  0.13149851107E+02 -0.52553900578E+02  0.91143701064E+02  0.00000000000E+00 0.  1.
         21    1    1    2  506  504  0.53789597180E+02  0.71233196017E+01  0.32163116814E+03  0.32617582799E+03  0.00000000000E+00 0.  1.
<scales pt_clust_3="87.98554" pt_clust_4="14000.00000" pt_clust_5="64.08343" pt_clust_6="54.25922"></scales>
<clustering>
<clus scale="   54.259">  1  6  2 -1</clus>
<clus scale="   64.083">  2  5  1 -1</clus>
<clus scale="   87.986">  2  3  1 -1</clus>
<clus scale="   54.259">  1  3  2 -1</clus>
</clustering>
</event>
<event>
 6    0  0.4263059E+002  0.1139098E+03  0.7546771E-02  0.1253496E+00
         21   -1    0    0  503  501  0.00000000000E+00  0.00000000000E+00  0.59165321389E+03  0.59165321389E+03  0.00000000000E+00 0. -1.
         21   -1    0    0  505  502 -0.00000000000E+00 -0.00000000000E+00 -0.30235733637E+03  0.30235733637E+03  0.00000000000E+00 0. -1.
         21    1    1    2  503  502  0.24656754754E+02 -0.20988040330E+02 -0.19887869259E+02  0.37999746520E+02  0.00000000000E+00 0.  1.
         21    1    1    2  504  506 -0.74786786039E+02  0.27956421589E+02  0.66732627937E+02  0.10405704448E+03  0.00000000000E+00 0. -1.
         21    1    1    2  505  504  0.59721946855E+02 -0.77171299681E+02 -0.24273823809E+03  0.26161798994E+03  0.00000000000E+00 0. -1.
         21    1    1    2  506  501 -0.95919155711E+01  0.70202918421E+02  0.48518935693E+03  0.49033576932E+03  0.00000000000E+00 0. -1.
<scales pt_clust_3="32.37983" pt_clust_4="14000.00000" pt_clust_5="113.90977" pt_clust_6="70.62834"></scales>
<clustering>
<clus scale="   32.380">  2  3  1 -1</clus>
<clus scale="   70.628">  1  6  2 -1</clus>
<clus scale="  113.910">  2  5  1 -1</clus>
<clus scale="   70.628">  1  3  2 -1</clus>
</clustering>
</event>
<event>
 6    0  0.2908518E+002  0.6328905E+02  0.7546771E-02  0.1384525E+00
         21   -1    0    0  506  501  0.00000000000E+00  0.00000000000E+00  0.22129657192E+03  0.22129657192E+03  0.00000000000E+00 0.  1.
         21   -1    0    0  504  502 -0.00000000000E+00 -0.00000000000E+00 -0.77607971970E+03  0.77607971970E+03  0.00000000000E+00 0. -1.
         21    1    1    2  503  505  0.77478423265E+02 -0.43618433771E+02 -0.35357761705E+03  0.36458552511E+03  0.00000000000E+00 0. -1.
         21    1    1    2  504  501 -0.16408103224E+02  0.37212581506E+02 -0.74844147373E+02  0.85180094328E+02  0.00000000000E+00 0.  1.
         21    1    1    2  505  502 -0.30776776005E+02 -0.48973976053E+02 -0.32968146334E+03  0.33471708582E+03  0.00000000000E+00 0. -1.
         21    1    1    2  506  503 -0.30293544035E+02  0.55379828317E+02  0.20332007998E+03  0.21289358637E+03  0.00000000000E+00 0.  1.
<scales pt_clust_3="14000.00000" pt_clust_4="40.66942" pt_clust_5="49.64747" pt_clust_6="63.28905"></scales>
<clustering>
<clus scale="   40.669">  2  4  1 -1</clus>
<clus scale="   49.647">  2  5  1 -1</clus>
<clus scale="   63.289">  1  6  2 -1</clus>
<clus scale="   63.289">  1  3  2 -1</clus>
</clustering>
</event>
<event>
 6    0  0.2908518E+002  0.1380279E+03  0.7546771E-02  0.1216007E+00
         21   -1    0    0  502  501  0.00000000000E+00  0.00000000000E+00  0.12159548535E+04  0.12159548535E+04  0.00000000000E+00 0.  1.
         21   -1    0    0  505  502 -0.00000000000E+00 -0.00000000000E+00 -0.21487583218E+03  0.21487583218E+03  0.00000000000E+00 0. -1.
         21    1    1    2  503  506  0.35542133304E+02 -0.54122708114E+02  0.19933351924E+02  0.67748426494E+02  0.00000000000E+00 0. -1.
         21    1    1    2  504  503  0.94240435693E+02 -0.52228134489E+02 -0.44927377856E+02  0.11673691375E+03  0.00000000000E+00 0. -1.
         21    1    1    2  505  504 -0.10581441931E+03  0.12978727334E+02 -0.81745283632E+02  0.13434072389E+03  0.00000000000E+00 0. -1.
         21    1    1    2  506  501 -0.23968149683E+02  0.93372115269E+02  0.11078183309E+04  0.11120046216E+04  0.00000000000E+00 0.  1.
<scales pt_clust_3="56.20206" pt_clust_4="56.20206" pt_clust_5="117.45462" pt_clust_6="96.39930"></scales>
<clustering>
<clus scale="   56.202">  3  4 -1 -1</clus>
<clus scale="   96.399">  1  6  2 -1</clus>
<clus scale="  117.455">  2  5  1 -1</clus>
<clus scale="   96.399">  1  3  2 -1</clus>
</clustering>
</event>
<event>
 6    0  0.2908518E+002  0.9012230E+02  0.7546771E-02  0.1302556E+00
         21   -1    0    0  503  501  0.00000000000E+00  0.00000000000E+00  0.30604460029E+03  0.30604460029E+03  0.00000000000E+00 0. -1.
         21   -1    0    0  506  502 -0.00000000000E+00 -0.00000000000E+00 -0.29158045221E+03  0.29158045221E+03  0.00000000000E+00 0. -1.
         21    1    1    2  503  505 -0.34741924301E+02  0.30828059790E+02  0.25997554555E+03  0.26409213328E+03  0.00000000000E+00 0. -1.
         21    1    1    2  504  501  0.84292831603E+02 -0.57003811162E+02 -0.13346476873E+03  0.16783194106E+03  0.00000000000E+00 0. -1.
         21    1    1    2  505  502 -0.45388558238E+02  0.58297734771E+02 -0.34260188560E+02  0.81440208856E+02  0.00000000000E+00 0. -1.
         21    1    1    2  506  504 -0.41623490640E+01 -0.32121983398E+02 -0.77786440187E+02  0.84260769307E+02  0.00000000000E+00 0. -1.
<scales pt_clust_3="46.27027" pt_clust_4="90.12230" pt_clust_5="14000.00000" pt_clust_6="32.39054"></scales>
<clustering>
<clus scale="   32.391">  2  6  1 -1</clus>
<clus scale="   46.270">  1  3  2 -1</clus>
<clus scale="   90.122">  2  4  1 -1</clus>
<clus scale="   46.270">  1  3  2 -1</clus>
</clustering>
</event>
<event>
 6    0  0.2908518E+002  0.1039907E+03  0.7546771E-02  0.1272121E+00
         21   -1    0    0  503  501  0.00000000000E+00  0.00000000000E+00  0.33463646748E+03  0.33463646748E+03  0.00000000000E+00 0.  1.
         21   -1    0    0  504  502 -0.00000000000E+00 -0.00000000000E+00 -0.10435118842E+04  0.10435118842E+04  0.00000000000E+00 0. -1.
         21    1    1    2  503  506  0.41400654410E+02  0.13695174263E+02 -0.19101845803E+02  0.47607273570E+02  0.00000000000E+00 0.  1.
         21    1    1    2  504  505 -0.15035075521E+02 -0.46247767144E+02 -0.68230696975E+02  0.83787454141E+02  0.00000000000E+00 0. -1.
         21    1    1    2  505  501  0.63210819835E+02 -0.28257972430E+02  0.30558223858E+03  0.31332830272E+03  0.00000000000E+00 0.  1.
         21    1    1    2  506  502 -0.89576398724E+02  0.60810565310E+02 -0.92712511255E+03  0.93342532126E+03  0.00000000000E+00 0. -1.
<scales pt_clust_3="43.60702" pt_clust_4="48.01095" pt_clust_5="103.99069" pt_clust_6="14000.00000"></scales>
<clustering>
<clus scale="   43.607">  1  3  2 -1</clus>
<clus scale="   48.011">  2  4  1 -1</clus>
<clus scale="  103.991">  1  5  2 -1</clus>
<clus scale="   43.607">  1  3  2 -1</clus>
</clustering>
</event>
<event>
 6    0  0.2908518E+002  0.7801918E+02  0.7546771E-02  0.1334769E+00
         21   -1    0    0  506  501  0.00000000000E+00  0.00000000000E+00  0.16080913942E+02  0.16080913942E+02  0.00000000000E+00 0.  1.
         21   -1    0    0  505  502 -0.00000000000E+00 -0.00000000000E+00 -0.16370282637E+04  0.16370282637E+04  0.00000000000E+00 0.  1.
         21    1    1    2  503  502 -0.56557497702E+01 -0.11106377665E+03 -0.76628594358E+03  0.77431343609E+03  0.00000000000E+00 0.  1.
         21    1    1    2  504  501  0.34327794889E+02  0.22045507978E+02 -0.42915591376E+02  0.59212751220E+02  0.00000000000E+00 0.  1.
         21    1    1    2  505  504  0.18662017680E+02  0.42548837782E+02 -0.30648259739E+03  0.30998428509E+03  0.00000000000E+00 0.  1.
         21    1    1    2  506  503 -0.47334062799E+02  0.46469430889E+02 -0.50526321739E+03  0.50959870521E+03  0.00000000000E+00 0.  1.
<scales pt_clust_3="14000.00000" pt_clust_4="40.79708" pt_clust_5="54.19080" pt_clust_6="78.01918"></scales>
<clustering>
<clus scale="   40.797">  1  4  2 -1</clus>
<clus scale="   54.191">  2  5  1 -1</clus>
<clus scale="   78.019">  1  6  2 -1</clus>
<clus scale="   40.797">  1  3  2 -1</clus>
</clustering>
</event>
<event>
 6    0  0.2908518E+002  0.2073811E+03  0.7546771E-02  0.1143657E+00
         21   -1    0    0  506  501  0.00000000000E+00  0.00000000000E+00  0.54095023084E+03  0.54095023084E+03  0.00000000000E+00 0. -1.
         21   -1    0    0  504  502 -0.00000000000E+00 -0.00000000000E+00 -0.23090306746E+04  0.23090306746E+04  0.00000000000E+00 0. -1.
         21    1    1    2  503  502 -0.36759272238E+02  0.45571757071E+02 -0.39380269756E+03  0.39813137749E+03  0.00000000000E+00 0. -1.
         21    1    1    2  504  505 -0.47248828060E+02 -0.19268442471E+03 -0.73577821335E+03  0.76205598122E+03  0.00000000000E+00 0. -1.
         21    1    1    2  505  501  0.53326362404E+02  0.33496623069E+01  0.51963105777E+03  0.52237090019E+03  0.00000000000E+00 0. -1.
         21    1    1    2  506  503  0.30681737895E+02  0.14376300533E+03 -0.11581305907E+04  0.11674226466E+04  0.00000000000E+00 0. -1.
<scales pt_clust_3="51.18523" pt_clust_4="190.86395" pt_clust_5="53.43146" pt_clust_6="51.18523"></scales>
<clustering>
<clus scale="   51.185">  3  6 -1 -1</clus>
<clus scale="   53.431">  1  5  2 -1</clus>
<clus scale="  190.864">  1  4  2 -1</clus>
<clus scale="   53.431">  1  3  2 -1</clus>
</clustering>
</event>
<event>
 6    0  0.5739280E+002  0.9994641E+02  0.7546771E-02  0.1280409E+00
         21   -1    0    0  506  501  0.00000000000E+00  0.00000000000E+00  0.16439180319E+04  0.16439180319E+04  0.00000000000E+00 0. -1.
         21   -1    0    0  503  502 -0.00000000000E+00 -0.00000000000E+00 -0.34987913094E+03  0.34987913094E+03  0.00000000000E+00 0. -1.
         21    1    1    2  503  501  0.65474054108E+02  0.79142876997E+02  0.14363056966E+03  0.17657912470E+03  0.00000000000E+00 0. -1.
         21    1    1    2  504  505  0.32566310319E+00 -0.59036711839E+02 -0.52619687546E+01  0.59271643443E+02  0.00000000000E+00 0. -1.
         21    1    1    2  505  502 -0.10168938882E+03  0.93839927461E+01 -0.29209700693E+03  0.30943408438E+03  0.00000000000E+00 0. -1.
         21    1    1    2  506  504  0.35889671607E+02 -0.29490157904E+02  0.14477673070E+04  0.14485123103E+04  0.00000000000E+00 0. -1.
<scales pt_clust_3="14000.00000" pt_clust_4="63.32465" pt_clust_5="99.94641" pt_clust_6="46.45146"></scales>
<clustering>
<clus scale="   46.451">  1  6  2 -1</clus>
<clus scale="   63.325">  1  4  2 -1</clus>
<clus scale="   99.946">  2  5  1 -1</clus>
<clus scale="   46.451">  1  3  2 -1</clus>
</clustering>
</event>
<event>
 6    0  0.2908518E+002  0.9552586E+02  0.7546771E-02  0.1289996E+00
         21   -1    0    0  504  501  0.00000000000E+00  0.00000000000E+00  0.12330896651E+04  0.12330896651E+04  0.00000000000E+00 0.  1.
         21   -1    0    0  505  502 -0.00000000000E+00 -0.00000000000E+00 -0.85219858768E+02  0.85219858768E+02  0.00000000000E+00 0.  1.
         21    1    1    2  503  501 -0.88042728692E+01  0.39106253767E+02  0.76589165554E+03  0.76693992094E+03  0.00000000000E+00 0.  1.
         21    1    1    2  504  502 -0.11256325012E+03  0.27902283736E+02 -0.12454403235E+02  0.11663676468E+03  0.00000000000E+00 0.  1.
         21    1    1    2  505  506  0.21214969398E+02 -0.22453856352E+02  0.64425926852E+01  0.31555626949E+02  0.00000000000E+00 0.  1.
         21    1    1    2  506  503  0.10015255360E+03 -0.44554681151E+02  0.38798996131E+03  0.40317721126E+03  0.00000000000E+00 0.  1.
<scales pt_clust_3="39.89363" pt_clust_4="14000.00000" pt_clust_5="30.89095" pt_clust_6="95.52586"></scales>
<clustering>
<clus scale="   30.891">  2  5  1 -1</clus>
<clus scale="   39.894">  1  3  2 -1</clus>
<clus scale="   95.526">  1  6  2 -1</clus>
<clus scale="   39.894">  1  3  2 -1</clus>
</clustering>
</event>
<event>
 6    0  0.2908518E+002  0.1475540E+03  0.7546771E-02  0.1203511E+00
         21   -1    0    0  505  501  0.00000000000E+00  0.00000000000E+00  0.58266130189E+02  0.58266130189E+02  0.00000000000E+00 0.  1.
         21   -1    0    0  506  502 -0.00000000000E+00 -0.00000000000E+00 -0.15682274488E+04  0.15682274488E+04  0.00000000000E+00 0. -1.
         21    1    1    2  503  502  0.11440617147E+03 -0.28876504042E+02 -0.71375914678E+03  0.72344643490E+03  0.00000000000E+00 0. -1.
         21    1    1    2  504  501 -0.18002829648E+03  0.44760159582E+02 -0.14333770038E+03  0.23443411818E+03  0.00000000000E+00 0.  1.
         21    1    1    2  505  503  0.32804994174E+02 -0.16960326932E+02 -0.38416415265E+02  0.53288284775E+02  0.00000000000E+00 0. -1.
         21    1    1    2  506  504  0.32817130833E+02  0.10766713920E+01 -0.61444805623E+03  0.61532474117E+03  0.00000000000E+00 0. -1.
<scales pt_clust_3="14000.00000" pt_clust_4="147.55402" pt_clust_5="38.31600" pt_clust_6="32.83479"></scales>
<clustering>
<clus scale="   32.835">  2  6  1 -1</clus>
<clus scale="   38.316">  1  5  2 -1</clus>
<clus scale="  147.554">  1  4  2 -1</clus>
<clus scale="   38.316">  1  3  2 -1</clus>
</clustering>
</event>
<event>
 6    0  0.2908518E+002  0.1416168E+03  0.7546771E-02  0.1211170E+00
         21   -1    0    0  502  501  0.00000000000E+00  0.00000000000E+00  0.41433717114E+03  0.41433717114E+03  0.00000000000E+00 0. -1.
         21   -1    0    0  505  502 -0.00000000000E+00 -0.00000000000E+00 -0.61471702424E+03  0.61471702424E+03  0.00000000000E+00 0. -1.
         21    1    1    2  503  504 -0.21961042415E+02 -0.22128130869E+02 -0.11932901303E+03  0.12333432171E+03  0.00000000000E+00 0. -1.
         21    1    1    2  504  506  0.12777398436E+02 -0.95930598937E+02 -0.23606225953E+03  0.25513002979E+03  0.00000000000E+00 0. -1.
         21    1    1    2  505  503  0.69278810951E+02  0.73222762246E+00 -0.23180052759E+03  0.24193299567E+03  0.00000000000E+00 0. -1.
         21    1    1    2  506  501 -0.60095166972E+02  0.11732650218E+03  0.38681194705E+03  0.40865684821E+03  0.00000000000E+00 0. -1.
<scales pt_clust_3="30.61798" pt_clust_4="30.61798" pt_clust_5="69.28268" pt_clust_6="130.93975"></scales>
<clustering>
<clus scale="   30.618">  3  4 -1 -1</clus>
<clus scale="   69.283">  2  5  1 -1</clus>
<clus scale="  130.940">  1  6  2 -1</clus>
<clus scale="  130.940">  1  3  2 -1</clus>
</clustering>
</event>
<event>
 6    0  0.2908518E+002  0.8678371E+02  0.7546771E-02  0.1310833E+00
         21   -1    0    0  505  501  0.00000000000E+00  0.00000000000E+00  0.10494385798E+03  0.10494385798E+03  0.00000000000E+00 0. -1.
         21   -1    0    0  504  502 -0.00000000000E+00 -0.00000000000E+00 -0.42041801000E+03  0.42041801000E+03  0.00000000000E+00 0. -1.
         21    1    1    2  503  502  0.85656800134E+02  0.14412759447E+01 -0.17946840844E+03  0.19886697643E+03  0.00000000000E+00 0. -1.
         21    1    1    2  504  506 -0.81351581351E+02 -0.65393099118E+02 -0.93562017486E+02  0.14017199548E+03  0.00000000000E+00 0. -1.
         21    1    1    2  505  503  0.44153315656E+02  0.60785135892E+02 -0.90759140624E+02  0.11782007314E+03  0.00000000000E+00 0. -1.
         21    1    1    2  506  501 -0.48458534439E+02  0.31666872808E+01  0.48315414532E+02  0.68502822933E+02  0.00000000000E+00 0. -1.
<scales pt_clust_3="14000.00000" pt_clust_4="86.78371" pt_clust_5="68.63985" pt_clust_6="48.56189"></scales>
<clustering>
<clus scale="   48.562">  1  6  2 -1</clus>
<clus scale="   68.640">  1  5  2 -1</clus>
<clus scale="   86.784">  1  4  2 -1</clus>
<clus scale="   48.562">  1  3  2 -1</clus>
</clustering>
</event>
<event>
 6    0  0.2908518E+002  0.7860803E+02  0.7546771E-02  0.1333049E+00
         21   -1    0    0  503  501  0.00000000000E+00  0.00000000000E+00  0.10002887145E+03  0.10002887145E+03  0.00000000000E+00 0. -1.
         21   -1    0    0  504  502 -0.00000000000E+00 -0.00000000000E+00 -0.53879817424E+03  0.53879817424E+03  0.00000000000E+00 0. -1.
         21    1    1    2  503  502  0.51743783205E+01 -0.31006956878E+02 -0.38166892938E+02  0.49446104825E+02  0.00000000000E+00 0. -1.
         21    1    1    2  504  505 -0.36010827016E+02 -0.53862954400E+02 -0.31984535103E+03  0.32634191594E+03  0.00000000000E+00 0. -1.
         21    1    1    2  505  506  0.80237061080E+02  0.45586618886E+02 -0.14570791729E+03  0.17247296296E+03  0.00000000000E+00 0. -1.
         21    1    1    2  506  501 -0.49400612385E+02  0.39283292391E+02  0.64950858472E+02  0.90566061973E+02  0.00000000000E+00 0. -1.
<scales pt_clust_3="31.43574" pt_clust_4="14000.00000" pt_clust_5="78.60803" pt_clust_6="62.51399"></scales>
<clustering>
<clus scale="   31.436">  2  3  1 -1</clus>
<clus scale="   62.514">  1  6  2 -1</clus>
<clus scale="   78.608">  1  5  2 -1</clus>
<clus scale="   62.514">  1  3  2 -1</clus>
</clustering>
</event>
<event>
 6    0  0.2908518E+002  0.1244855E+03  0.7546771E-02  0.1235876E+00
         21   -1    0    0  503  501  0.00000000000E+00  0.00000000000E+00  0.20131386294E+04  0.20131386294E+04  0.00000000000E+00 0. -1.
         21   -1    0    0  504  502 -0.00000000000E+00 -0.00000000000E+00 -0.39998120184E+03  0.39998120184E+03  0.00000000000E+00 0. -1.
         21    1    1    2  503  505  0.69167347407E+02 -0.10189592335E+02  0.18889635991E+04  0.18902569742E+04  0.00000000000E+00 0. -1.
         21    1    1    2  504  501  0.84818264507E+02 -0.44510454156E+02 -0.29104067781E+03  0.30639842471E+03  0.00000000000E+00 0. -1.
         21    1    1    2  505  506 -0.15476612159E+03  0.90523881265E+02  0.19612339364E+02  0.18036565451E+03  0.00000000000E+00 0.  1.
         21    1    1    2  506  502  0.78050967650E+00 -0.35823834774E+02 -0.43778331568E+01  0.36098777769E+02  0.00000000000E+00 0.  1.
<scales pt_clust_3="69.92411" pt_clust_4="124.48546" pt_clust_5="14000.00000" pt_clust_6="35.83234"></scales>
<clustering>
<clus scale="   35.832">  2  6  1 -1</clus>
<clus scale="   69.924">  1  3  2 -1</clus>
<clus scale="  124.485">  2  4  1 -1</clus>
<clus scale="   69.924">  1  3  2 -1</clus>
</clustering>
</event>
<event>
 6    0  0.2908518E+002  0.7071646E+02  0.7546771E-02  0.1357673E+00
         21   -1    0    0  506  501  0.00000000000E+00  0.00000000000E+00  0.15908189887E+03  0.15908189887E+03  0.00000000000E+00 0.  1.
         21   -1    0    0  503  502 -0.00000000000E+00 -0.00000000000E+00 -0.12013397740E+03  0.12013397740E+03  0.00000000000E+00 0.  1.
         21    1    1    2  503  505  0.33982112717E+02  0.92735926583E+00 -0.62739884500E+01  0.34568871995E+02  0.00000000000E+00 0.  1.
         21    1    1    2  504  502 -0.10340317767E+03  0.24445763634E+02 -0.24766225029E+02  0.10910168842E+03  0.00000000000E+00 0.  1.
         21    1    1    2  505  501  0.46262235836E+02  0.29472090568E+02  0.45121909559E+02  0.71026652105E+02  0.00000000000E+00 0.  1.
         21    1    1    2  506  504  0.23158829121E+02 -0.54845213468E+02  0.24866225391E+02  0.64518663748E+02  0.00000000000E+00 0.  1.
<scales pt_clust_3="33.99476" pt_clust_4="14000.00000" pt_clust_5="58.68405" pt_clust_6="70.71646"></scales>
<clustering>
<clus scale="   33.995">  2  3  1 -1</clus>
<clus scale="   58.684">  1  5  2 -1</clus>
<clus scale="   70.716">  1  6  2 -1</clus>
<clus scale="   58.684">  1  3  2 -1</clus>
</clustering>
</event>
<event>
 6    0  0.2908518E+002  0.1923723E+03  0.7546771E-02  0.1156339E+00
         21   -1    0    0  504  501  0.00000000000E+00  0.00000000000E+00  0.97277612394E+03  0.97277612394E+03  0.00000000000E+00 0.  1.
         21   -1    0    0  506  502 -0.00000000000E+00 -0.00000000000E+00 -0.24779515533E+03  0.24779515533E+03  0.00000000000E+00 0.  1.
         21    1    1    2  503  505 -0.14110315917E+03 -0.49433058673E+02  0.63481817440E+03  0.65218696964E+03  0.00000000000E+00 0.  1.
         21    1    1    2  504  503 -0.36341483680E+02  0.18292092796E+02  0.27781613806E+03  0.28077946980E+03  0.00000000000E+00 0.  1.
         21    1    1    2  505  502  0.37542632929E+02 -0.33370649924E+02 -0.78703152799E+01  0.50842810959E+02  0.00000000000E+00 0. -1.
         21    1    1    2  506  501  0.13990200992E+03  0.64511615801E+02 -0.17978302856E+03  0.23676202887E+03  0.00000000000E+00 0.  1.
<scales pt_clust_3="37.13874" pt_clust_4="37.13874" pt_clust_5="50.22997" pt_clust_6="178.71341"></scales>
<clustering>
<clus scale="   37.139">  3  4 -1 -1</clus>
<clus scale="   50.230">  2  5  1 -1</clus>
<clus scale="  178.713">  2  6  1 -1</clus>
<clus scale="  192.372">  1  3  2 -1</clus>
</clustering>
</event>
<event>
 6    0  0.2908518E+002  0.2230093E+03  0.7546771E-02  0.1131659E+00
         21   -1    0    0  506  501  0.00000000000E+00  0.00000000000E+00  0.19400577985E+04  0.19400577985E+04  0.00000000000E+00 0.  1.
         21   -1    0    0  504  502 -0.00000000000E+00 -0.00000000000E+00 -0.25030948587E+03  0.25030948587E+03  0.00000000000E+00 0. -1.
         21    1    1    2  503  501  0.47038680517E+02 -0.19792396684E+03  0.17735923389E+04  0.17852216442E+04  0.00000000000E+00 0.  1.
         21    1    1    2  504  505 -0.47900969940E+02  0.74009245423E+02 -0.93578815433E+02  0.12856463755E+03  0.00000000000E+00 0. -1.
         21    1    1    2  505  503 -0.48128199160E+02  0.12449016802E+03 -0.93058856404E+02  0.16270856229E+03  0.00000000000E+00 0. -1.
         21    1    1    2  506  502  0.48990488583E+02 -0.57544660302E+00  0.10279364553E+03  0.11387244035E+03  0.00000000000E+00 0. -1.
<scales pt_clust_3="219.88704" pt_clust_4="30.22219" pt_clust_5="30.22219" pt_clust_6="48.99387"></scales>
<clustering>
<clus scale="   30.222">  4  5 -1 -1</clus>
<clus scale="   48.994">  1  6  2 -1</clus>
<clus scale="  219.887">  1  3  2 -1</clus>
<clus scale="   48.994">  1  3  2 -1</clus>
</clustering>
</event>
<event>
 6    0  0.2908518E+002  0.1503255E+03  0.7546771E-02  0.1200074E+00
         21   -1    0    0  503  501  0.00000000000E+00  0.00000000000E+00  0.22514683845E+03  0.22514683845E+03  0.00000000000E+00 0.  1.
         21   -1    0    0  505  502 -0.00000000000E+00 -0.00000000000E+00 -0.25315342254E+04  0.25315342254E+04  0.00000000000E+00 0.  1.
         21    1    1    2  503  502  0.19653865385E+02 -0.33860580088E+02 -0.11317947005E+03  0.11975978353E+03  0.00000000000E+00 0. -1.
         21    1    1    2  504  506  0.12144353523E+02  0.21218271983E+03 -0.15116216644E+04  0.15264891249E+04  0.00000000000E+00 0.  1.
         21    1    1    2  505  504 -0.56074580022E+02 -0.97809576173E+02 -0.88404418714E+03  0.89120435172E+03  0.00000000000E+00 0.  1.
         21    1    1    2  506  501  0.24276361114E+02 -0.80512563569E+02  0.20245793470E+03  0.21922780372E+03  0.00000000000E+00 0.  1.
<scales pt_clust_3="39.15116" pt_clust_4="150.32553" pt_clust_5="14000.00000" pt_clust_6="84.22515"></scales>
<clustering>
<clus scale="   39.151">  2  3  1 -1</clus>
<clus scale="   84.225">  1  6  2 -1</clus>
<clus scale="  150.326">  1  4  2 -1</clus>
<clus scale="   84.225">  1  3  2 -1</clus>
</clustering>
</event>
<event>
 6    0  0.2908518E+002  0.1065361E+03  0.7546771E-02  0.1267122E+00
         21   -1    0    0  506  501  0.00000000000E+00  0.00000000000E+00  0.21435586555E+04  0.21435586555E+04  0.00000000000E+00 0.  1.
         21   -1    0    0  503  502 -0.00000000000E+00 -0.00000000000E+00 -0.28750084935E+02  0.28750084935E+02  0.00000000000E+00 0.  1.
         21    1    1    2  503  505  0.31754178293E+02 -0.31569628316E+02  0.14152533576E+03  0.14843985291E+03  0.00000000000E+00 0.  1.
         21    1    1    2  504  502 -0.61835116996E+02 -0.15784585125E+02  0.94440707595E+02  0.11398149882E+03  0.00000000000E+00 0.  1.
         21    1    1    2  505  501  0.22756040742E+02 -0.64392944913E+02  0.70768892047E+02  0.98348995045E+02  0.00000000000E+00 0.  1.
         21    1    1    2  506  504  0.73248979613E+01  0.11174715835E+03  0.18080736352E+04  0.18115383937E+04  0.00000000000E+00 0.  1.
<scales pt_clust_3="44.77688" pt_clust_4="56.92032" pt_clust_5="14000.00000" pt_clust_6="106.53611"></scales>
<clustering>
<clus scale="   44.777">  2  3  1 -1</clus>
<clus scale="   56.920">  2  4  1 -1</clus>
<clus scale="  106.536">  1  6  2 -1</clus>
<clus scale="  106.536">  1  3  2 -1</clus>
</clustering>
</event>
<event>
 6    0  0.2908518E+002  0.1490753E+03  0.7546771E-02  0.1201614E+00
         21   -1    0    0  506  501  0.00000000000E+00  0.00000000000E+00  0.42545457070E+03  0.42545457070E+03  0.00000000000E+00 0. -1.
         21   -1    0    0  504  502 -0.00000000000E+00 -0.00000000000E+00 -0.24953210313E+03  0.24953210313E+03  0.00000000000E+00 0. -1.
         21    1    1    2  503  505  0.10535856012E+03 -0.68978044365E+02 -0.59371721196E+02  0.13922427257E+03  0.00000000000E+00 0. -1.
         21    1    1    2  504  501  0.58940203023E+02  0.97405377589E+01 -0.97349636337E+02  0.11421811285E+03  0.00000000000E+00 0. -1.
         21    1    1    2  505  502 -0.13048578685E+02  0.29392737956E+02 -0.19166798399E+02  0.37437476025E+02  0.00000000000E+00 0. -1.
         21    1    1    2  506  503 -0.15125018446E+03  0.29844768651E+02  0.35181062350E+03  0.38410681238E+03  0.00000000000E+00 0. -1.
<scales pt_clust_3="14000.00000" pt_clust_4="57.82374" pt_clust_5="32.15896" pt_clust_6="149.07528"></scales>
<clustering>
<clus scale="   32.159">  2  5  1 -1</clus>
<clus scale="   57.824">  2  4  1 -1</clus>
<clus scale="  149.075">  1  6  2 -1</clus>
<clus scale="  149.075">  1  3  2 -1</clus>
</clustering>
</event>
<event>
 6    0  0.2908518E+002  0.7991192E+02  0.7546771E-02  0.1329302E+00
         21   -1    0    0  506  501  0.00000000000E+00  0.00000000000E+00  0.64872925861E+03  0.64872925861E+03  0.00000000000E+00 0. -1.
         21   -1    0    0  503  502 -0.00000000000E+00 -0.00000000000E+00 -0.13318781750E+03  0.13318781750E+03  0.00000000000E+00 0.  1.
         21    1    1    2  503  505  0.39968546098E+02  0.68367632194E+02 -0.85530740624E+02  0.11656382544E+03  0.00000000000E+00 0.  1.
         21    1    1    2  504  501 -0.16210748423E+02 -0.30243297050E+02  0.45511140511E+03  0.45640315122E+03  0.00000000000E+00 0. -1.
         21    1    1    2  505  504 -0.11618205515E+02  0.53192029641E+02  0.34963230539E+02  0.64705503680E+02  0.00000000000E+00 0.  1.
         21    1    1    2  506  502 -0.12139592161E+02 -0.91316364784E+02  0.11099754607E+03  0.14424459577E+03  0.00000000000E+00 0.  1.
<scales pt_clust_3="14000.00000" pt_clust_4="34.31392" pt_clust_5="48.05510" pt_clust_6="79.91192"></scales>
<clustering>
<clus scale="   34.314">  1  4  2 -1</clus>
<clus scale="   48.055">  1  5  2 -1</clus>
<clus scale="   79.912">  1  6  2 -1</clus>
<clus scale="   34.314">  1  3  2 -1</clus>
</clustering>
</event>
<event>
 6    0  0.2908518E+002  0.2467821E+03  0.7546771E-02  0.1115356E+00
         21   -1    0    0  506  501  0.00000000000E+00  0.00000000000E+00  0.42592288653E+03  0.42592288653E+03  0.00000000000E+00 0. -1.
         21   -1    0    0  503  502 -0.00000000000E+00 -0.00000000000E+00 -0.21971526904E+04  0.21971526904E+04  0.00000000000E+00 0.  1.
         21    1    1    2  503  504 -0.52427416374E+02 -0.43968607345E+02 -0.26866411905E+03  0.27724047555E+03  0.00000000000E+00 0.  1.
         21    1    1    2  504  501  0.64597027012E+02  0.71555670320E+02 -0.16277685666E+03  0.18918058811E+03  0.00000000000E+00 0. -1.
         21    1    1    2  505  502  0.19294029476E+03  0.11063751035E+03 -0.17028695571E+04  0.17173326249E+04  0.00000000000E+00 0.  1.
         21    1    1    2  506  505 -0.20510990540E+03 -0.13822457332E+03  0.36308072889E+03  0.43932188843E+03  0.00000000000E+00 0. -1.
<scales pt_clust_3="68.42421" pt_clust_4="90.20653" pt_clust_5="246.78206" pt_clust_6="14000.00000"></scales>
<clustering>
<clus scale="   68.424">  2  3  1 -1</clus>
<clus scale="   90.207">  2  4  1 -1</clus>
<clus scale="  246.782">  2  5  1 -1</clus>
<clus scale="  246.782">  1  3  2 -1</clus>
</clustering>
</event>
<event>
 6    0  0.2908518E+002  0.1227157E+03  0.7546771E-02  0.1238683E+00
         21   -1    0    0  504  501  0.00000000000E+00  0.00000000000E+00  0.11036184800E+03  0.11036184800E+03  0.00000000000E+00 0. -1.
         21   -1    0    0  506  502 -0.00000000000E+00 -0.00000000000E+00 -0.30722783148E+03  0.30722783148E+03  0.00000000000E+00 0.  1.
         21    1    1    2  503  502  0.42922541608E+01  0.64986576074E+02 -0.12297563663E+03  0.13915705415E+03  0.00000000000E+00 0.  1.
         21    1    1    2  504  503  0.16131779640E+02  0.46911020895E+02 -0.43209443865E+02  0.65787036982E+02  0.00000000000E+00 0.  1.
         21    1    1    2  505  501  0.31811849518E+02  0.62869381209E+00  0.53833992257E+02  0.62533892794E+02  0.00000000000E+00 0. -1.
         21    1    1    2  506  505 -0.52235883318E+02 -0.11252629078E+03 -0.84514895240E+02  0.15011169555E+03  0.00000000000E+00 0. -1.
<scales pt_clust_3="33.94728" pt_clust_4="33.94728" pt_clust_5="31.81806" pt_clust_6="116.67373"></scales>
<clustering>
<clus scale="   31.818">  1  5  2 -1</clus>
<clus scale="   33.947">  3  4 -1 -1</clus>
<clus scale="  116.674">  1  6  2 -1</clus>
<clus scale="   31.818">  1  3  2 -1</clus>
</clustering>
</event>
<event>
 6    0  0.2908518E+002  0.2227416E+03  0.7546771E-02  0.1131855E+00
         21   -1    0    0  505  501  0.00000000000E+00  0.00000000000E+00  0.85166291148E+03  0.85166291148E+03  0.00000000000E+00 0.  1.
         21   -1    0    0  503  502 -0.00000000000E+00 -0.00000000000E+00 -0.47919960505E+03  0.47919960505E+03  0.00000000000E+00 0. -1.
         21    1    1    2  503  501  0.21062434843E+03 -0.64175562219E+02 -0.36931717181E+03  0.42997243206E+03  0.00000000000E+00 0. -1.
         21    1    1    2  504  506 -0.21379605136E+03  0.18236302394E+02  0.31239055243E+03  0.37898439486E+03  0.00000000000E+00 0.  1.
         21    1    1    2  505  504  0.15449618156E+02  0.91861515697E+02  0.45736148541E+03  0.46675127970E+03  0.00000000000E+00 0.  1.
         21    1    1    2  506  502 -0.12277915225E+02 -0.45922255872E+02 -0.27971559586E+02  0.55154409908E+02  0.00000000000E+00 0. -1.
<scales pt_clust_3="14000.00000" pt_clust_4="222.74165" pt_clust_5="92.64399" pt_clust_6="47.53526"></scales>
<clustering>
<clus scale="   47.535">  2  6  1 -1</clus>
<clus scale="   92.644">  1  5  2 -1</clus>
<clus scale="  222.742">  1  4  2 -1</clus>
<clus scale="   92.644">  1  3  2 -1</clus>
</clustering>
</event>
<event>
 6    0  0.2908518E+002  0.1226061E+03  0.7546771E-02  0.1238859E+00
         21   -1    0    0  503  501  0.00000000000E+00  0.00000000000E+00  0.36940112766E+02  0.36940112766E+02  0.00000000000E+00 0. -1.
         21   -1    0    0  505  502 -0.00000000000E+00 -0.00000000000E+00 -0.11689367026E+04  0.11689367026E+04  0.00000000000E+00 0. -1.
         21    1    1    2  503  506  0.25922945736E+01  0.49008094296E+02 -0.23597862901E+03  0.24102785451E+03  0.00000000000E+00 0. -1.
         21    1    1    2  504  501  0.16472164595E+02  0.29568138779E+02  0.23640527411E+01  0.33929276189E+02  0.00000000000E+00 0. -1.
         21    1    1    2  505  504  0.13718870280E+02 -0.13047677798E+03 -0.27684535760E+03  0.30635885660E+03  0.00000000000E+00 0. -1.
         21    1    1    2  506  502 -0.32783329449E+02  0.51900544905E+02 -0.62153665595E+03  0.62456082805E+03  0.00000000000E+00 0. -1.
<scales pt_clust_3="48.87631" pt_clust_4="33.84682" pt_clust_5="110.52156" pt_clust_6="48.87631"></scales>
<clustering>
<clus scale="   33.847">  1  4  2 -1</clus>
<clus scale="   48.876">  3  6 -1 -1</clus>
<clus scale="  110.522">  1  5  2 -1</clus>
<clus scale="   33.847">  1  3  2 -1</clus>
</clustering>
</event>
<event>
 6    0  0.2908518E+002  0.1262768E+03  0.7546771E-02  0.1233087E+00
         21   -1    0    0  504  501  0.00000000000E+00  0.00000000000E+00  0.89172871055E+03  0.89172871055E+03  0.00000000000E+00 0.  1.
         21   -1    0    0  503  502 -0.00000000000E+00 -0.00000000000E+00 -0.38340192567E+03  0.38340192567E+03  0.00000000000E+00 0. -1.
         21    1    1    2  503  501  0.42957956619E+02  0.51725260788E+02  0.12366229716E+00  0.67237667515E+02  0.00000000000E+00 0. -1.
         21    1    1    2  504  505  0.51831123679E+02 -0.10635393486E+03  0.84380145530E+03  0.85205546815E+03  0.00000000000E+00 0.  1.
         21    1    1    2  505  506 -0.37984421650E+02 -0.13263386308E+01 -0.92798885985E+02  0.10028064969E+03  0.00000000000E+00 0.  1.
         21    1    1    2  506  502 -0.56804658649E+02  0.55955012702E+02 -0.24279944673E+03  0.25555685086E+03  0.00000000000E+00 0. -1.
<scales pt_clust_3="67.23755" pt_clust_4="117.98726" pt_clust_5="31.06727" pt_clust_6="31.06727"></scales>
<clustering>
<clus scale="   31.067">  5  6 -1 -1</clus>
<clus scale="   67.238">  2  3  1 -1</clus>
<clus scale="  117.987">  1  4  2 -1</clus>
<clus scale="  117.987">  1  3  2 -1</clus>
</clustering>
</event>
<event>
 6    0  0.2908518E+002  0.8417227E+02  0.7546771E-02  0.1317611E+00
         21   -1    0    0  502  501  0.00000000000E+00  0.00000000000E+00  0.44645698325E+02  0.44645698325E+02  0.00000000000E+00 0.  1.
         21   -1    0    0  506  502 -0.00000000000E+00 -0.00000000000E+00 -0.89565208229E+03  0.89565208229E+03  0.00000000000E+00 0.  1.
         21    1    1    2  503  501 -0.47299200892E+02 -0.13714260505E+01  0.57803492985E+01  0.47670826010E+02  0.00000000000E+00 0.  1.
         21    1    1    2  504  503  0.11907145600E+02 -0.10302476690E+03 -0.22253713849E+03  0.24551712918E+03  0.00000000000E+00 0.  1.
         21    1    1    2  505  504 -0.13773952559E+02  0.60406433602E+02 -0.28050581300E+03  0.28726672295E+03  0.00000000000E+00 0.  1.
         21    1    1    2  506  505  0.49166007852E+02  0.43989759352E+02 -0.35374378178E+03  0.35984310248E+03  0.00000000000E+00 0.  1.
<scales pt_clust_3="47.31908" pt_clust_4="84.17227" pt_clust_5="14000.00000" pt_clust_6="60.04326"></scales>
<clustering>
<clus scale="   47.319">  1  3  2 -1</clus>
<clus scale="   60.043">  2  6  1 -1</clus>
<clus scale="   84.172">  1  4  2 -1</clus>
<clus scale="   47.319">  1  3  2 -1</clus>
</clustering>
</event>
<event>
 6    0  0.2908518E+002  0.1513581E+03  0.7546771E-02  0.1198814E+00
         21   -1    0    0  503  501  0.00000000000E+00  0.00000000000E+00  0.12860250939E+03  0.12860250939E+03  0.00000000000E+00 0. -1.
         21   -1    0    0  504  502 -0.00000000000E+00 -0.00000000000E+00 -0.63487620080E+03  0.63487620080E+03  0.00000000000E+00 0.  1.
         21    1    1    2  503  506 -0.29491065049E+02  0.44774489074E+02 -0.20830992305E+03  0.21509881876E+03  0.00000000000E+00 0.  1.
         21    1    1    2  504  505  0.57213069001E+02 -0.11260717534E+03 -0.19995117790E+03  0.23650409033E+03  0.00000000000E+00 0.  1.
         21    1    1    2  505  501  0.21321095316E+02 -0.22111289669E+02  0.91460325356E+02  0.96480512802E+02  0.00000000000E+00 0. -1.
         21    1    1    2  506  502 -0.49043099268E+02  0.89943975932E+02 -0.18947291582E+03  0.21539528830E+03  0.00000000000E+00 0.  1.
<scales pt_clust_3="39.23155" pt_clust_4="141.88716" pt_clust_5="30.71642" pt_clust_6="39.23155"></scales>
<clustering>
<clus scale="   30.716">  1  5  2 -1</clus>
<clus scale="   39.232">  3  6 -1 -1</clus>
<clus scale="  141.887">  1  4  2 -1</clus>
<clus scale="   30.716">  1  3  2 -1</clus>
</clustering>
</event>
<event>
 6    0  0.2908518E+002  0.1532494E+03  0.7546771E-02  0.1196536E+00
         21   -1    0    0  505  501  0.00000000000E+00  0.00000000000E+00  0.72949532635E+03  0.72949532635E+03  0.00000000000E+00 0. -1.
         21   -1    0    0  504  502 -0.00000000000E+00 -0.00000000000E+00 -0.25970186122E+03  0.25970186122E+03  0.00000000000E+00 0. -1.
         21    1    1    2  503  506 -0.21327502569E+02  0.15346080535E+03  0.46891015139E+02  0.16187602801E+03  0.00000000000E+00 0. -1.
         21    1    1    2  504  503  0.11745734829E+03 -0.11067217251E+03 -0.15652671540E+03  0.22482253238E+03  0.00000000000E+00 0. -1.
         21    1    1    2  505  502 -0.26505830551E+02 -0.25423987308E+02  0.27392889519E+02  0.45818212319E+02  0.00000000000E+00 0. -1.
         21    1    1    2  506  501 -0.69624015165E+02 -0.17364645528E+02  0.55203627587E+03  0.55668041485E+03  0.00000000000E+00 0. -1.
<scales pt_clust_3="153.24940" pt_clust_4="14000.00000" pt_clust_5="36.72789" pt_clust_6="98.34572"></scales>
<clustering>
<clus scale="   36.728">  1  5  2 -1</clus>
<clus scale="   98.346">  1  6  2 -1</clus>
<clus scale="  153.249">  1  3  2 -1</clus>
<clus scale="   36.728">  1  3  2 -1</clus>
</clustering>
</event>
<event>
 6    0  0.2908518E+002  0.1995731E+03  0.7546771E-02  0.1150100E+00
         21   -1    0    0  503  501  0.00000000000E+00  0.00000000000E+00  0.11997946899E+03  0.11997946899E+03  0.00000000000E+00 0. -1.
         21   -1    0    0  501  502 -0.00000000000E+00 -0.00000000000E+00 -0.12034534666E+04  0.12034534666E+04  0.00000000000E+00 0.  1.
         21    1    1    2  503  506 -0.18240268651E+03 -0.36483487791E+02  0.28046927077E+02  0.18811808803E+03  0.00000000000E+00 0. -1.
         21    1    1    2  504  505  0.10343410754E+03 -0.52468512576E+01 -0.47554852808E+03  0.48669553790E+03  0.00000000000E+00 0.  1.
         21    1    1    2  505  502  0.32215066556E+02 -0.81362957988E+01 -0.43643795781E+03  0.43770092625E+03  0.00000000000E+00 0.  1.
         21    1    1    2  506  504  0.46753512416E+02  0.49866634847E+02 -0.19953443879E+03  0.21091838341E+03  0.00000000000E+00 0.  1.
<scales pt_clust_3="182.88933" pt_clust_4="61.30269" pt_clust_5="33.22664" pt_clust_6="61.30269"></scales>
<clustering>
<clus scale="   33.227">  2  5  1 -1</clus>
<clus scale="   61.303">  4  6 -1 -1</clus>
<clus scale="  182.889">  1  3  2 -1</clus>
<clus scale="  182.889">  1  3  2 -1</clus>
</clustering>
</event>
<event>
 6    0  0.2908518E+002  0.1244606E+03  0.7546771E-02  0.1235915E+00
         21   -1    0    0  503  501  0.00000000000E+00  0.00000000000E+00  0.48090464092E+03  0.48090464092E+03  0.00000000000E+00 0. -1.
         21   -1    0    0  504  502 -0.00000000000E+00 -0.00000000000E+00 -0.15743030623E+03  0.15743030623E+03  0.00000000000E+00 0. -1.
         21    1    1    2  503  506 -0.36934916661E+02 -0.36050192388E+02  0.26335394311E+03  0.26836375275E+03  0.00000000000E+00 0. -1.
         21    1    1    2  504  505  0.12702798041E+03 -0.12593510256E+02 -0.36016159108E+02  0.13263433953E+03  0.00000000000E+00 0. -1.
         21    1    1    2  505  501 -0.71292245842E+02  0.11912250329E+03  0.86972930132E+02  0.16382016263E+03  0.00000000000E+00 0. -1.
         21    1    1    2  506  502 -0.18800817905E+02 -0.70478800650E+02  0.91636205605E+01  0.73516692232E+02  0.00000000000E+00 0. -1.
<scales pt_clust_3="51.61206" pt_clust_4="14000.00000" pt_clust_5="124.46064" pt_clust_6="81.62739"></scales>
<clustering>
<clus scale="   51.612">  1  3  2 -1</clus>
<clus scale="   81.627">  2  6  1 -1</clus>
<clus scale="  124.461">  1  5  2 -1</clus>
<clus scale="   51.612">  1  3  2 -1</clus>
</clustering>
</event>
<event>
 6    0  0.2908518E+002  0.6584394E+02  0.7546771E-02  0.1374825E+00
         21   -1    0    0  504  501  0.00000000000E+00  0.00000000000E+00  0.28651683832E+03  0.28651683832E+03  0.00000000000E+00 0. -1.
         21   -1    0    0  503  502 -0.00000000000E+00 -0.00000000000E+00 -0.22305023680E+03  0.22305023680E+03  0.00000000000E+00 0. -1.
         21    1    1    2  503  506 -0.61994348553E+02 -0.70801555015E+01 -0.14821813375E+03  0.16081679958E+03  0.00000000000E+00 0.  1.
         21    1    1    2  504  505  0.35929617465E+02 -0.32754441806E+02  0.18480351513E+02  0.52012635592E+02  0.00000000000E+00 0.  1.
         21    1    1    2  505  502  0.88803133649E+02  0.38444978659E+02  0.33991659857E+01  0.96827512926E+02  0.00000000000E+00 0. -1.
         21    1    1    2  506  501 -0.62738402560E+02  0.13896186487E+01  0.18980521777E+03  0.19991012702E+03  0.00000000000E+00 0. -1.
<scales pt_clust_3="14000.00000" pt_clust_4="48.61883" pt_clust_5="65.84394" pt_clust_6="42.34175"></scales>
<clustering>
<clus scale="   48.619">  1  4  2 -1</clus>
<clus scale="   42.342">  1  6  2 -1</clus>
<clus scale="   65.844">  1  5  2 -1</clus>
<clus scale="   48.619">  1  3  2 -1</clus>
</clustering>
</event>
<event>
 6    0  0.2908518E+002  0.1822502E+03  0.7546771E-02  0.1165643E+00
         21   -1    0    0  505  501  0.00000000000E+00  0.00000000000E+00  0.23092845573E+04  0.23092845573E+04  0.00000000000E+00 0.  1.
         21   -1    0    0  501  502 -0.00000000000E+00 -0.00000000000E+00 -0.56400899420E+02  0.56400899420E+02  0.00000000000E+00 0. -1.
         21    1    1    2  503  506 -0.28777081146E+02 -0.70783430163E+02  0.58600536919E+02  0.96293495690E+02  0.00000000000E+00 0. -1.
         21    1    1    2  504  502 -0.54228900011E+02 -0.22547220339E+02  0.45376554968E+02  0.74217130651E+02  0.00000000000E+00 0. -1.
         21    1    1    2  505  503  0.11933300125E+03  0.10517537857E+03  0.21510330189E+04  0.21569064129E+04  0.00000000000E+00 0.  1.
         21    1    1    2  506  504 -0.36327020093E+02 -0.11844728065E+02 -0.21264529761E+01  0.38268417449E+02  0.00000000000E+00 0. -1.
<scales pt_clust_3="67.13573" pt_clust_4="67.13573" pt_clust_5="159.06673" pt_clust_6="30.17196"></scales>
<clustering>
<clus scale="   30.172">  4  6 -1 -1</clus>
<clus scale="   67.136">  3  4 -1 -1</clus>
<clus scale="  159.067">  1  5  2 -1</clus>
<clus scale="  159.067">  1  3  2 -1</clus>
</clustering>
</event>
<event>
 6    0  0.2908518E+002  0.1232842E+03  0.7546771E-02  0.1237775E+00
         21   -1    0    0  503  501  0.00000000000E+00  0.00000000000E+00  0.35186302020E+03  0.35186302020E+03  0.00000000000E+00 0.  1.
         21   -1    0    0  505  502 -0.00000000000E+00 -0.00000000000E+00 -0.77521379473E+03  0.77521379473E+03  0.00000000000E+00 0. -1.
         21    1    1    2  503  504  0.21045023676E+02  0.57802972854E+02 -0.25124600168E+03  0.25866702544E+03  0.00000000000E+00 0. -1.
         21    1    1    2  504  502 -0.18362650282E+02  0.43140532920E+02 -0.14020235833E+03  0.14783434576E+03  0.00000000000E+00 0. -1.
         21    1    1    2  505  506  0.97982662478E+00 -0.14201680441E+03 -0.36150605351E+03  0.38840231657E+03  0.00000000000E+00 0. -1.
         21    1    1    2  506  501 -0.36622000188E+01  0.41073298636E+02  0.32960363899E+03  0.33217312715E+03  0.00000000000E+00 0.  1.
<scales pt_clust_3="37.19127" pt_clust_4="37.19127" pt_clust_5="115.69027" pt_clust_6="41.23624"></scales>
<clustering>
<clus scale="   37.191">  3  4 -1 -1</clus>
<clus scale="   41.236">  1  6  2 -1</clus>
<clus scale="  115.690">  1  5  2 -1</clus>
<clus scale="   41.236">  1  3  2 -1</clus>
</clustering>
</event>
<event>
 6    0  0.2908518E+002  0.8396225E+02  0.7546771E-02  0.1318169E+00
         21   -1    0    0  504  501  0.00000000000E+00  0.00000000000E+00  0.13668476719E+03  0.13668476719E+03  0.00000000000E+00 0. -1.
         21   -1    0    0  501  502 -0.00000000000E+00 -0.00000000000E+00 -0.34120626102E+03  0.34120626102E+03  0.00000000000E+00 0. -1.
         21    1    1    2  503  505 -0.13742783587E+02  0.74948807780E+02  0.13958206140E+01  0.76211129131E+02  0.00000000000E+00 0. -1.
         21    1    1    2  504  503 -0.54935326410E+02  0.24944489727E+02  0.69109119359E+02  0.91739784358E+02  0.00000000000E+00 0. -1.
         21    1    1    2  505  506  0.67363465717E+02 -0.32993195574E+02 -0.12708829226E+03  0.14757310561E+03  0.00000000000E+00 0. -1.
         21    1    1    2  506  502  0.13146442791E+01 -0.66900101932E+02 -0.14793814154E+03  0.16236700912E+03  0.00000000000E+00 0. -1.
<scales pt_clust_3="83.96225" pt_clust_4="60.33339" pt_clust_5="14000.00000" pt_clust_6="63.95857"></scales>
<clustering>
<clus scale="   60.333">  1  4  2 -1</clus>
<clus scale="   63.959">  2  6  1 -1</clus>
<clus scale="   83.962">  1  3  2 -1</clus>
<clus scale="   60.333">  1  3  2 -1</clus>
</clustering>
</event>
<event>
 6    0  0.2908518E+002  0.1009376E+03  0.7546771E-02  0.1278337E+00
         21   -1    0    0  505  501  0.00000000000E+00  0.00000000000E+00  0.20874094755E+03  0.20874094755E+03  0.00000000000E+00 0. -1.
         21   -1    0    0  503  502 -0.00000000000E+00 -0.00000000000E+00 -0.24128544026E+03  0.24128544026E+03  0.00000000000E+00 0. -1.
         21    1    1    2  503  506  0.52572501353E+02  0.49974856728E+02 -0.91612778006E+02  0.11685142403E+03  0.00000000000E+00 0. -1.
         21    1    1    2  504  502  0.52922694576E+02 -0.13281653681E+02 -0.56140801631E+01  0.54851908096E+02  0.00000000000E+00 0. -1.
         21    1    1    2  505  504 -0.10857243303E+02  0.57460955457E+02  0.12025640442E+03  0.13372076854E+03  0.00000000000E+00 0. -1.
         21    1    1    2  506  501 -0.94637952625E+02 -0.94154158504E+02 -0.55574038968E+02  0.14460228715E+03  0.00000000000E+00 0. -1.
<scales pt_clust_3="100.93756" pt_clust_4="54.56385" pt_clust_5="57.76959" pt_clust_6="14000.00000"></scales>
<clustering>
<clus scale="   54.564">  2  4  1 -1</clus>
<clus scale="   57.770">  1  5  2 -1</clus>
<clus scale="  100.938">  2  3  1 -1</clus>
<clus scale="   57.770">  1  3  2 -1</clus>
</clustering>
</event>
<event>
 6    0  0.2908518E+002  0.2280900E+03  0.7546771E-02  0.1127991E+00
         21   -1    0    0  504  501  0.00000000000E+00  0.00000000000E+00  0.21770751358E+03  0.21770751358E+03  0.00000000000E+00 0.  1.
         21   -1    0    0  505  502 -0.00000000000E+00 -0.00000000000E+00 -0.17385154252E+04  0.17385154252E+04  0.00000000000E+00 0. -1.
         21    1    1    2  503  502  0.18240290239E+02 -0.61390578632E+02 -0.34379471275E+03  0.34970890158E+03  0.00000000000E+00 0.  1.
         21    1    1    2  504  506 -0.30980418366E+02  0.33804541559E+02  0.14720316776E+03  0.15417946021E+03  0.00000000000E+00 0.  1.
         21    1    1    2  505  501  0.21818379014E+03  0.24686967155E+02 -0.11825560694E+04  0.12027686685E+04  0.00000000000E+00 0. -1.
         21    1    1    2  506  503 -0.20544366201E+03  0.28990699189E+01 -0.14166029722E+03  0.24956590848E+03  0.00000000000E+00 0. -1.
<scales pt_clust_3="62.23015" pt_clust_4="45.85339" pt_clust_5="14000.00000" pt_clust_6="228.08999"></scales>
<clustering>
<clus scale="   45.853">  1  4  2 -1</clus>
<clus scale="   62.230">  2  3  1 -1</clus>
<clus scale="  228.090">  1  6  2 -1</clus>
<clus scale="   45.853">  1  3  2 -1</clus>
</clustering>
</event>
<event>
 6    0  0.2908518E+002  0.7412210E+02  0.7546771E-02  0.1346611E+00
         21   -1    0    0  506  501  0.00000000000E+00  0.00000000000E+00  0.74140427120E+03  0.74140427120E+03  0.00000000000E+00 0. -1.
         21   -1    0    0  505  502 -0.00000000000E+00 -0.00000000000E+00 -0.18080313476E+03  0.18080313476E+03  0.00000000000E+00 0. -1.
         21    1    1    2  503  502  0.44446923115E+02 -0.41547921977E+02 -0.28661306879E+02  0.67254957490E+02  0.00000000000E+00 0.  1.
         21    1    1    2  504  501  0.37300257684E+02  0.74043605169E+01  0.32055723086E+02  0.49736336421E+02  0.00000000000E+00 0. -1.
         21    1    1    2  505  504 -0.98722569927E+02  0.87222871966E+02 -0.87473630514E+02  0.15813162632E+03  0.00000000000E+00 0. -1.
         21    1    1    2  506  503  0.16975389127E+02 -0.53079310506E+02  0.64468035075E+03  0.64708448573E+03  0.00000000000E+00 0. -1.
<scales pt_clust_3="61.45931" pt_clust_4="38.02807" pt_clust_5="74.12210" pt_clust_6="14000.00000"></scales>
<clustering>
<clus scale="   38.028">  1  4  2 -1</clus>
<clus scale="   61.459">  2  3  1 -1</clus>
<clus scale="   74.122">  2  5  1 -1</clus>
<clus scale="   38.028">  1  3  2 -1</clus>
</clustering>
</event>
<event>
 6    0  0.2908518E+002  0.1326149E+03  0.7546771E-02  0.1223626E+00
         21   -1    0    0  503  501  0.00000000000E+00  0.00000000000E+00  0.27990061014E+02  0.27990061014E+02  0.00000000000E+00 0.  1.
         21   -1    0    0  506  502 -0.00000000000E+00 -0.00000000000E+00 -0.17071868444E+04  0.17071868444E+04  0.00000000000E+00 0.  1.
         21    1    1    2  503  504 -0.33787042950E+01 -0.45202468181E+02 -0.12372122674E+03  0.13176350298E+03  0.00000000000E+00 0. -1.
         21    1    1    2  504  505 -0.50122574920E+02  0.50606834888E+02 -0.76287676535E+03  0.76619467720E+03  0.00000000000E+00 0.  1.
         21    1    1    2  505  502  0.46185839127E+01  0.66109192069E+02 -0.72318298433E+03  0.72621304410E+03  0.00000000000E+00 0.  1.
         21    1    1    2  506  501  0.48882695303E+02 -0.71513558776E+02 -0.69415806978E+02  0.11100568115E+03  0.00000000000E+00 0.  1.
<scales pt_clust_3="45.32856" pt_clust_4="54.26271" pt_clust_5="54.26271" pt_clust_6="119.88630"></scales>
<clustering>
<clus scale="   45.329">  1  3  2 -1</clus>
<clus scale="   54.263">  4  5 -1 -1</clus>
<clus scale="  119.886">  1  6  2 -1</clus>
<clus scale="   45.329">  1  3  2 -1</clus>
</clustering>
</event>
<event>
 6    0  0.2908518E+002  0.2804150E+03  0.7546771E-02  0.1095463E+00
         21   -1    0    0  504  501  0.00000000000E+00  0.00000000000E+00  0.31374564728E+03  0.31374564728E+03  0.00000000000E+00 0.  1.
         21   -1    0    0  505  502 -0.00000000000E+00 -0.00000000000E+00 -0.25007856160E+04  0.25007856160E+04  0.00000000000E+00 0. -1.
         21    1    1    2  503  502  0.74219928802E+02 -0.70778587733E+01 -0.85441168230E+03  0.85765844995E+03  0.00000000000E+00 0. -1.
         21    1    1    2  504  503  0.15537010162E+03  0.43743654340E+02 -0.14693216313E+04  0.14781608275E+04  0.00000000000E+00 0. -1.
         21    1    1    2  505  506  0.44289389208E+02  0.83482173948E+01 -0.10271681831E+03  0.11216945883E+03  0.00000000000E+00 0. -1.
         21    1    1    2  506  501 -0.27387941963E+03 -0.45014012962E+02  0.23941016319E+03  0.36654252700E+03  0.00000000000E+00 0.  1.
<scales pt_clust_3="32.30402" pt_clust_4="32.30402" pt_clust_5="45.06931" pt_clust_6="276.35726"></scales>
<clustering>
<clus scale="   32.304">  3  4 -1 -1</clus>
<clus scale="   45.069">  2  5  1 -1</clus>
<clus scale="  276.357">  1  6  2 -1</clus>
<clus scale="  276.357">  1  3  2 -1</clus>
</clustering>
</event>
<event>
 6    0  0.2908518E+002  0.1008975E+03  0.7546771E-02  0.1278420E+00
         21   -1    0    0  506  501  0.00000000000E+00  0.00000000000E+00  0.26860057932E+03  0.26860057932E+03  0.00000000000E+00 0.  1.
         21   -1    0    0  503  502 -0.00000000000E+00 -0.00000000000E+00 -0.15715215907E+03  0.15715215907E+03  0.00000000000E+00 0.  1.
         21    1    1    2  503  505 -0.11226930939E+03  0.55236842103E+02 -0.42987254876E+02  0.13230045592E+03  0.00000000000E+00 0.  1.
         21    1    1    2  504  501  0.46488418968E+02  0.33619345225E+02  0.76624896787E+01  0.57880456283E+02  0.00000000000E+00 0.  1.
         21    1    1    2  505  504  0.32902813043E+02 -0.83351855927E+02  0.48021092603E+01  0.89739552294E+02  0.00000000000E+00 0.  1.
         21    1    1    2  506  502  0.32878077375E+02 -0.55043314008E+01  0.14197107618E+03  0.14583227389E+03  0.00000000000E+00 0.  1.
<scales pt_clust_3="14000.00000" pt_clust_4="63.83014" pt_clust_5="100.89748" pt_clust_6="33.33565"></scales>
<clustering>
<clus scale="   33.336">  1  6  2 -1</clus>
<clus scale="   63.830">  1  4  2 -1</clus>
<clus scale="  100.897">  1  5  2 -1</clus>
<clus scale="   33.336">  1  3  2 -1</clus>
</clustering>
</event>
<event>
 6    0  0.2908518E+002  0.7263105E+02  0.7546771E-02  0.1351368E+00
         21   -1    0    0  506  501  0.00000000000E+00  0.00000000000E+00  0.38064221124E+03  0.38064221124E+03  0.00000000000E+00 0.  1.
         21   -1    0    0  504  502 -0.00000000000E+00 -0.00000000000E+00 -0.55826215682E+03  0.55826215682E+03  0.00000000000E+00 0.  1.
         21    1    1    2  503  505 -0.78703192013E+02 -0.56091548387E+02 -0.27444639540E+03  0.29096611174E+03  0.00000000000E+00 0.  1.
         21    1    1    2  504  503 -0.29394265353E+02  0.16598435197E+02 -0.64863597057E+02  0.73121933165E+02  0.00000000000E+00 0.  1.
         21    1    1    2  505  501  0.38127543391E+02  0.61568277285E+02  0.35799612344E+03  0.36524729531E+03  0.00000000000E+00 0.  1.
         21    1    1    2  506  502  0.69969913975E+02 -0.22075164095E+02 -0.19630607657E+03  0.20956902784E+03  0.00000000000E+00 0.  1.
<scales pt_clust_3="72.63105" pt_clust_4="33.75694" pt_clust_5="14000.00000" pt_clust_6="59.74138"></scales>
<clustering>
<clus scale="   33.757">  2  4  1 -1</clus>
<clus scale="   59.741">  2  6  1 -1</clus>
<clus scale="   72.631">  2  3  1 -1</clus>
<clus scale="   72.631">  1  3  2 -1</clus>
</clustering>
</event>
<event>
 6    0  0.2908518E+002  0.2391224E+03  0.7546771E-02  0.1120379E+00
         21   -1    0    0  502  501  0.00000000000E+00  0.00000000000E+00  0.83767691840E+03  0.83767691840E+03  0.00000000000E+00 0. -1.
         21   -1    0    0  506  502 -0.00000000000E+00 -0.00000000000E+00 -0.11215820031E+03  0.11215820031E+03  0.00000000000E+00 0. -1.
         21    1    1    2  503  505  0.14434674798E+03  0.62264533138E+02  0.16504912281E+03  0.22793435169E+03  0.00000000000E+00 0. -1.
         21    1    1    2  504  503  0.51918872296E+02  0.48977824822E+02  0.39111887002E+02  0.81388797322E+02  0.00000000000E+00 0. -1.
         21    1    1    2  505  501 -0.22572018453E+03 -0.73329001610E+02  0.53933642289E+03  0.58924572229E+03  0.00000000000E+00 0. -1.
         21    1    1    2  506  504  0.29454564255E+02 -0.37913356350E+02 -0.17978714609E+02  0.51266247416E+02  0.00000000000E+00 0.  1.
<scales pt_clust_3="37.54100" pt_clust_4="37.54100" pt_clust_5="232.54135" pt_clust_6="48.01035"></scales>
<clustering>
<clus scale="   37.541">  3  4 -1 -1</clus>
<clus scale="   48.010">  2  6  1 -1</clus>
<clus scale="  232.541">  1  5  2 -1</clus>
<clus scale="  232.541">  1  3  2 -1</clus>
</clustering>
</event>
<event>
 6    0  0.2908518E+002  0.1759785E+03  0.7546771E-02  0.1171753E+00
         21   -1    0    0  504  501  0.00000000000E+00  0.00000000000E+00  0.87440049756E+03  0.87440049756E+03  0.00000000000E+00 0. -1.
         21   -1    0    0  503  502 -0.00000000000E+00 -0.00000000000E+00 -0.29915000418E+03  0.29915000418E+03  0.00000000000E+00 0. -1.
         21    1    1    2  503  501 -0.35346080403E+02  0.98623645432E+02 -0.25911070487E+02  0.10792290031E+03  0.00000000000E+00 0. -1.
         21    1    1    2  504  505 -0.68946386791E+02 -0.17323161688E+03  0.79212932258E+03  0.81377617379E+03  0.00000000000E+00 0. -1.
         21    1    1    2  505  506  0.99399080473E+02  0.40715269023E+02 -0.75191548846E+02  0.13111704446E+03  0.00000000000E+00 0. -1.
         21    1    1    2  506  502  0.48933867204E+01  0.33892702420E+02 -0.11577620986E+03  0.12073438318E+03  0.00000000000E+00 0. -1.
<scales pt_clust_3="116.10984" pt_clust_4="14000.00000" pt_clust_5="175.97848" pt_clust_6="34.24413"></scales>
<clustering>
<clus scale="   34.244">  2  6  1 -1</clus>
<clus scale="  116.110">  2  3  1 -1</clus>
<clus scale="  175.978">  2  5  1 -1</clus>
<clus scale="  175.978">  1  3  2 -1</clus>
</clustering>
</event>
<event>
 6    0  0.2908518E+002  0.8049302E+02  0.7546771E-02  0.1327658E+00
         21   -1    0    0  504  501  0.00000000000E+00  0.00000000000E+00  0.27997953982E+04  0.27997953982E+04  0.00000000000E+00 0. -1.
         21   -1    0    0  505  502 -0.00000000000E+00 -0.00000000000E+00 -0.94206250283E+02  0.94206250283E+02  0.00000000000E+00 0.  1.
         21    1    1    2  503  501  0.88569093722E+02 -0.20360527433E+02  0.27708220639E+02  0.95009372859E+02  0.00000000000E+00 0. -1.
         21    1    1    2  504  506 -0.65944827403E+02 -0.46089069863E+02  0.26446418987E+04  0.26458653963E+04  0.00000000000E+00 0. -1.
         21    1    1    2  505  503  0.13629897915E+02 -0.29155427929E+02  0.39182857387E+02  0.50706108191E+02  0.00000000000E+00 0. -1.
         21    1    1    2  506  502 -0.36254164234E+02  0.95605025224E+02 -0.59438288079E+01  0.10242077120E+03  0.00000000000E+00 0.  1.
<scales pt_clust_3="14000.00000" pt_clust_4="80.49302" pt_clust_5="32.18405" pt_clust_6="80.44453"></scales>
<clustering>
<clus scale="   32.184">  2  5  1 -1</clus>
<clus scale="   80.493">  1  4  2 -1</clus>
<clus scale="   80.445">  2  6  1 -1</clus>
<clus scale="   80.493">  1  3  2 -1</clus>
</clustering>
</event>
<event>
 6    0  0.2908518E+002  0.1294126E+03  0.7546771E-02  0.1228330E+00
         21   -1    0    0  503  501  0.00000000000E+00  0.00000000000E+00  0.35644739722E+03  0.35644739722E+03  0.00000000000E+00 0.  1.
         21   -1    0    0  506  502 -0.00000000000E+00 -0.00000000000E+00 -0.28902017539E+03  0.28902017539E+03  0.00000000000E+00 0.  1.
         21    1    1    2  503  505  0.78503786034E+01 -0.13659374326E+03  0.31346775784E+03  0.34202560481E+03  0.00000000000E+00 0.  1.
         21    1    1    2  504  501  0.10116989479E+02  0.83171872247E+02 -0.70871485173E+02  0.10973915081E+03  0.00000000000E+00 0.  1.
         21    1    1    2  505  502  0.21253060165E+02  0.26723227676E+02 -0.89180821744E+02  0.95493677439E+02  0.00000000000E+00 0.  1.
         21    1    1    2  506  504 -0.39220428248E+02  0.26698643340E+02 -0.85988229095E+02  0.98209139550E+02  0.00000000000E+00 0.  1.
<scales pt_clust_3="14000.00000" pt_clust_4="129.41264" pt_clust_5="34.14416" pt_clust_6="48.93086"></scales>
<clustering>
<clus scale="   34.144">  2  5  1 -1</clus>
<clus scale="   48.931">  2  6  1 -1</clus>
<clus scale="  129.413">  2  4  1 -1</clus>
<clus scale="  129.413">  1  3  2 -1</clus>
</clustering>
</event>
<event>
 6    0  0.2908518E+002  0.8177322E+02  0.7546771E-02  0.1324093E+00
         21   -1    0    0  505  501  0.00000000000E+00  0.00000000000E+00  0.11061583038E+04  0.11061583038E+04  0.00000000000E+00 0. -1.
         21   -1    0    0  506  502 -0.00000000000E+00 -0.00000000000E+00 -0.25323262060E+03  0.25323262060E+03  0.00000000000E+00 0. -1.
         21    1    1    2  503  502 -0.33683442023E+02  0.86275125787E+02 -0.49912723730E+02  0.10521051082E+03  0.00000000000E+00 0. -1.
         21    1    1    2  504  501  0.32389290002E+02 -0.16959010679E+02  0.97625966285E+03  0.97694401245E+03  0.00000000000E+00 0. -1.
         21    1    1    2  505  503  0.52125360055E+02  0.47861715897E+01  0.82248267610E+02  0.97492246483E+02  0.00000000000E+00 0. -1.
         21    1    1    2  506  504 -0.50831208034E+02 -0.74102286698E+02 -0.15566952349E+03  0.17974415469E+03  0.00000000000E+00 0. -1.
<scales pt_clust_3="14000.00000" pt_clust_4="36.56055" pt_clust_5="74.91871" pt_clust_6="81.77322"></scales>
<clustering>
<clus scale="   36.561">  1  4  2 -1</clus>
<clus scale="   74.919">  1  5  2 -1</clus>
<clus scale="   81.773">  2  6  1 -1</clus>
<clus scale="   36.561">  1  3  2 -1</clus>
</clustering>
</event>
<event>
 6    0  0.2908518E+002  0.1168100E+03  0.7546771E-02  0.1248454E+00
         21   -1    0    0  502  501  0.00000000000E+00  0.00000000000E+00  0.28046580365E+03  0.28046580365E+03  0.00000000000E+00 0. -1.
         21   -1    0    0  506  502 -0.00000000000E+00 -0.00000000000E+00 -0.69158100029E+02  0.69158100029E+02  0.00000000000E+00 0. -1.
         21    1    1    2  503  504  0.69605339431E+02  0.21534482988E+02  0.85772858122E+01  0.73363526816E+02  0.00000000000E+00 0. -1.
         21    1    1    2  504  505 -0.10021039964E+03 -0.21073352942E+02  0.95251315395E+02  0.13985357873E+03  0.00000000000E+00 0. -1.
         21    1    1    2  505  501  0.30805591298E+00 -0.32974861148E+02  0.73186723860E+02  0.80272865375E+02  0.00000000000E+00 0. -1.
         21    1    1    2  506  503  0.30297004297E+02  0.32513731102E+02  0.34292378554E+02  0.56133932754E+02  0.00000000000E+00 0. -1.
<scales pt_clust_3="33.53128" pt_clust_4="107.77053" pt_clust_5="32.97630" pt_clust_6="33.53128"></scales>
<clustering>
<clus scale="   32.976">  1  5  2 -1</clus>
<clus scale="   33.531">  3  6 -1 -1</clus>
<clus scale="  107.771">  1  4  2 -1</clus>
<clus scale="   32.976">  1  3  2 -1</clus>
</clustering>
</event>
<event>
 6    0  0.2908518E+002  0.7725345E+02  0.7546771E-02  0.1337031E+00
         21   -1    0    0  504  501  0.00000000000E+00  0.00000000000E+00  0.15335591157E+03  0.15335591157E+03  0.00000000000E+00 0.  1.
         21   -1    0    0  501  502 -0.00000000000E+00 -0.00000000000E+00 -0.15590872633E+04  0.15590872633E+04  0.00000000000E+00 0.  1.
         21    1    1    2  503  505  0.44175678843E+02  0.67241088733E+01 -0.24253884555E+03  0.24662075307E+03  0.00000000000E+00 0.  1.
         21    1    1    2  504  506  0.33747582434E+02  0.68735777287E+02  0.13505275951E+03  0.15525061756E+03  0.00000000000E+00 0.  1.
         21    1    1    2  505  502  0.23664384760E+01  0.35231597948E+02 -0.44914778861E+03  0.45053368525E+03  0.00000000000E+00 0.  1.
         21    1    1    2  506  503 -0.80289699753E+02 -0.11069148411E+03 -0.84909747712E+03  0.86003811903E+03  0.00000000000E+00 0.  1.
<scales pt_clust_3="46.98821" pt_clust_4="77.25345" pt_clust_5="35.31098" pt_clust_6="14000.00000"></scales>
<clustering>
<clus scale="   35.311">  2  5  1 -1</clus>
<clus scale="   46.988">  2  3  1 -1</clus>
<clus scale="   77.253">  1  4  2 -1</clus>
<clus scale="   77.253">  1  3  2 -1</clus>
</clustering>
</event>
<event>
 6    0  0.2908518E+002  0.9813512E+02  0.7546771E-02  0.1284267E+00
         21   -1    0    0  503  501  0.00000000000E+00  0.00000000000E+00  0.22445854166E+03  0.22445854166E+03  0.00000000000E+00 0.  1.
         21   -1    0    0  505  502 -0.00000000000E+00 -0.00000000000E+00 -0.65610584370E+03  0.65610584370E+03  0.00000000000E+00 0.  1.
         21    1    1    2  503  504  0.44166142989E+02 -0.29315292451E+02  0.18552218714E+03  0.19294692658E+03  0.00000000000E+00 0.  1.
         21    1    1    2  504  506  0.37770179004E+02  0.95082605259E+02 -0.91509337020E+02  0.13726342195E+03  0.00000000000E+00 0.  1.
         21    1    1    2  505  501 -0.57986994418E+02  0.29275239204E+02 -0.20399338451E+03  0.21408603896E+03  0.00000000000E+00 0.  1.
         21    1    1    2  506  502 -0.23949327574E+02 -0.95042552012E+02 -0.32166676764E+03  0.33626799786E+03  0.00000000000E+00 0.  1.
<scales pt_clust_3="53.00976" pt_clust_4="98.13512" pt_clust_5="57.42376" pt_clust_6="14000.00000"></scales>
<clustering>
<clus scale="   53.010">  1  3  2 -1</clus>
<clus scale="   57.424">  2  5  1 -1</clus>
<clus scale="   98.135">  1  4  2 -1</clus>
<clus scale="   53.010">  1  3  2 -1</clus>
</clustering>
</event>
<event>
 6    0  0.2908518E+002  0.9686290E+02  0.7546771E-02  0.1287035E+00
         21   -1    0    0  506  501  0.00000000000E+00  0.00000000000E+00  0.67922182877E+03  0.67922182877E+03  0.00000000000E+00 0. -1.
         21   -1    0    0  503  502 -0.00000000000E+00 -0.00000000000E+00 -0.18355445137E+03  0.18355445137E+03  0.00000000000E+00 0.  1.
         21    1    1    2  503  505  0.75873400143E+02  0.60925589921E+02 -0.12200127961E+03  0.15605451799E+03  0.00000000000E+00 0.  1.
         21    1    1    2  504  502 -0.88465578735E+02 -0.40299851087E+02  0.53268478857E+02  0.11085020279E+03  0.00000000000E+00 0.  1.
         21    1    1    2  505  501  0.21745442899E+01 -0.49028145278E+02  0.24009342502E+02  0.54634569639E+02  0.00000000000E+00 0. -1.
         21    1    1    2  506  504  0.10417634302E+02  0.28402406444E+02  0.54039083565E+03  0.54123698973E+03  0.00000000000E+00 0. -1.
<scales pt_clust_3="96.86290" pt_clust_4="14000.00000" pt_clust_5="41.27950" pt_clust_6="30.25267"></scales>
<clustering>
<clus scale="   30.253">  1  6  2 -1</clus>
<clus scale="   41.279">  1  5  2 -1</clus>
<clus scale="   96.863">  2  3  1 -1</clus>
<clus scale="   30.253">  1  3  2 -1</clus>
</clustering>
</event>
<event>
 6    0  0.2908518E+002  0.1381435E+03  0.7546771E-02  0.1215849E+00
         21   -1    0    0  503  501  0.00000000000E+00  0.00000000000E+00  0.27608795579E+03  0.27608795579E+03  0.00000000000E+00 0. -1.
         21   -1    0    0  504  502 -0.00000000000E+00 -0.00000000000E+00 -0.17895220796E+03  0.17895220796E+03  0.00000000000E+00 0. -1.
         21    1    1    2  503  506  0.31484203077E+02 -0.15153392252E+01  0.70258633961E+01  0.32294179859E+02  0.00000000000E+00 0. -1.
         21    1    1    2  504  505 -0.69634280005E+02 -0.79869031080E+02  0.11693251077E+03  0.15780116335E+03  0.00000000000E+00 0. -1.
         21    1    1    2  505  501 -0.21989301296E+01 -0.36184338821E+02  0.88344583644E+02  0.95492969002E+02  0.00000000000E+00 0. -1.
         21    1    1    2  506  502  0.40349007058E+02  0.11756870913E+03 -0.11516720998E+03  0.16945185154E+03  0.00000000000E+00 0. -1.
<scales pt_clust_3="31.52065" pt_clust_4="36.47964" pt_clust_5="36.47964" pt_clust_6="125.27086"></scales>
<clustering>
<clus scale="   31.521">  1  3  2 -1</clus>
<clus scale="   36.480">  4  5 -1 -1</clus>
<clus scale="  125.271">  2  6  1 -1</clus>
<clus scale="   31.521">  1  3  2 -1</clus>
</clustering>
</event>
<event>
 6    0  0.2908518E+002  0.1115275E+03  0.7546771E-02  0.1257767E+00
         21   -1    0    0  506  501  0.00000000000E+00  0.00000000000E+00  0.93788965654E+02  0.93788965654E+02  0.00000000000E+00 0. -1.
         21   -1    0    0  504  502 -0.00000000000E+00 -0.00000000000E+00 -0.12245246341E+04  0.12245246341E+04  0.00000000000E+00 0. -1.
         21    1    1    2  503  502 -0.13164864864E+02 -0.53616969239E+02 -0.67138038743E+03  0.67364658218E+03  0.00000000000E+00 0. -1.
         21    1    1    2  504  505  0.57557681050E+02  0.68975612981E+02 -0.14843544132E+03  0.17350389642E+03  0.00000000000E+00 0. -1.
         21    1    1    2  505  501 -0.29726254305E+02  0.39880598465E+02  0.70059233019E+02  0.85920943082E+02  0.00000000000E+00 0. -1.
         21    1    1    2  506  503 -0.14666561881E+02 -0.55239242207E+02 -0.38097907271E+03  0.38524217807E+03  0.00000000000E+00 0. -1.
<scales pt_clust_3="33.48489" pt_clust_4="106.19644" pt_clust_5="49.74045" pt_clust_6="33.48489"></scales>
<clustering>
<clus scale="   33.485">  3  6 -1 -1</clus>
<clus scale="   49.740">  1  5  2 -1</clus>
<clus scale="  106.196">  1  4  2 -1</clus>
<clus scale="   49.740">  1  3  2 -1</clus>
</clustering>
</event>
<event>
 6    0  0.2908518E+002  0.7536156E+02  0.7546771E-02  0.1342755E+00
         21   -1    0    0  506  501  0.00000000000E+00  0.00000000000E+00  0.81901462941E+03  0.81901462941E+03  0.00000000000E+00 0.  1.
         21   -1    0    0  503  502 -0.00000000000E+00 -0.00000000000E+00 -0.72768624346E+03  0.72768624346E+03  0.00000000000E+00 0.  1.
         21    1    1    2  503  505  0.25716509709E+02 -0.31781361447E+02 -0.60832128698E+02  0.73293531017E+02  0.00000000000E+00 0. -1.
         21    1    1    2  504  502  0.32212160093E+01 -0.52652999392E+02 -0.19841406141E+03  0.20530673233E+03  0.00000000000E+00 0.  1.
         21    1    1    2  505  501  0.70861120775E+02  0.25668046534E+02  0.80022916513E+03  0.80377040489E+03  0.00000000000E+00 0.  1.
         21    1    1    2  506  504 -0.99798846494E+02  0.58766314306E+02 -0.44965458908E+03  0.46433020464E+03  0.00000000000E+00 0.  1.
<scales pt_clust_3="40.88268" pt_clust_4="63.34060" pt_clust_5="75.36156" pt_clust_6="14000.00000"></scales>
<clustering>
<clus scale="   40.883">  2  3  1 -1</clus>
<clus scale="   63.341">  2  4  1 -1</clus>
<clus scale="   75.362">  1  5  2 -1</clus>
<clus scale="   75.362">  1  3  2 -1</clus>
</clustering>
</event>
<event>
 6    0  0.2908518E+002  0.1108036E+03  0.7546771E-02  0.1259089E+00
         21   -1    0    0  506  501  0.00000000000E+00  0.00000000000E+00  0.86003030011E+02  0.86003030011E+02  0.00000000000E+00 0.  1.
         21   -1    0    0  504  502 -0.00000000000E+00 -0.00000000000E+00 -0.13741673332E+04  0.13741673332E+04  0.00000000000E+00 0.  1.
         21    1    1    2  503  501  0.40595226583E+02  0.48515697733E+00 -0.66851449802E+03  0.66974610254E+03  0.00000000000E+00 0.  1.
         21    1    1    2  504  503  0.55944354679E+02  0.12237219919E+02 -0.37446405802E+03  0.37881770170E+03  0.00000000000E+00 0.  1.
         21    1    1    2  505  502 -0.11917718115E+03  0.53180127095E+02 -0.29724049044E+03  0.32462784166E+03  0.00000000000E+00 0.  1.
         21    1    1    2  506  505  0.22637599887E+02 -0.65902503992E+02  0.52054743312E+02  0.86978717295E+02  0.00000000000E+00 0.  1.
<scales pt_clust_3="39.49254" pt_clust_4="39.49254" pt_clust_5="100.38629" pt_clust_6="69.68214"></scales>
<clustering>
<clus scale="   39.493">  3  4 -1 -1</clus>
<clus scale="   69.682">  1  6  2 -1</clus>
<clus scale="  100.386">  1  5  2 -1</clus>
<clus scale="   69.682">  1  3  2 -1</clus>
</clustering>
</event>
<event>
 6    0  0.2908518E+002  0.1315517E+03  0.7546771E-02  0.1225171E+00
         21   -1    0    0  503  501  0.00000000000E+00  0.00000000000E+00  0.49755636232E+03  0.49755636232E+03  0.00000000000E+00 0.  1.
         21   -1    0    0  505  502 -0.00000000000E+00 -0.00000000000E+00 -0.91536162368E+02  0.91536162368E+02  0.00000000000E+00 0.  1.
         21    1    1    2  503  506 -0.30385305140E+02  0.98384051811E+02  0.18911632351E+03  0.21533154027E+03  0.00000000000E+00 0. -1.
         21    1    1    2  504  502 -0.94295976257E+01  0.68013388404E+02  0.87490296753E+01  0.69219100210E+02  0.00000000000E+00 0.  1.
         21    1    1    2  505  501  0.30076899517E+02  0.19670125032E+02  0.35808032076E+02  0.50732128523E+02  0.00000000000E+00 0.  1.
         21    1    1    2  506  504  0.97380032489E+01 -0.18606756525E+03  0.17234681469E+03  0.25380975568E+03  0.00000000000E+00 0.  1.
<scales pt_clust_3="131.55172" pt_clust_4="70.03701" pt_clust_5="35.93791" pt_clust_6="14000.00000"></scales>
<clustering>
<clus scale="   35.938">  1  5  2 -1</clus>
<clus scale="   70.037">  2  4  1 -1</clus>
<clus scale="  131.552">  1  3  2 -1</clus>
<clus scale="   35.938">  1  3  2 -1</clus>
</clustering>
</event>
<event>
 6    0  0.2908518E+002  0.1232775E+03  0.7546771E-02  0.1237786E+00
         21   -1    0    0  506  501  0.00000000000E+00  0.00000000000E+00  0.77317410339E+03  0.77317410339E+03  0.00000000000E+00 0. -1.
         21   -1    0    0  505  502 -0.00000000000E+00 -0.00000000000E+00 -0.10441097573E+03  0.10441097573E+03  0.00000000000E+00 0. -1.
         21    1    1    2  503  504 -0.64057465781E+02  0.18265475817E+02 -0.17671147609E+01  0.66634144579E+02  0.00000000000E+00 0. -1.
         21    1    1    2  504  502  0.71953868400E+02 -0.11442806611E+02 -0.16636303473E+02  0.74733283041E+02  0.00000000000E+00 0. -1.
         21    1    1    2  505  501  0.90823277780E+02 -0.17573470298E+02  0.59026290059E+03  0.59746797945E+03  0.00000000000E+00 0. -1.
         21    1    1    2  506  503 -0.98719680399E+02  0.10750801092E+02  0.96903645299E+02  0.13874967205E+03  0.00000000000E+00 0. -1.
<scales pt_clust_3="62.33754" pt_clust_4="72.85806" pt_clust_5="96.97488" pt_clust_6="62.33754"></scales>
<clustering>
<clus scale="   62.338">  3  6 -1 -1</clus>
<clus scale="   72.858">  2  4  1 -1</clus>
<clus scale="   96.975">  1  5  2 -1</clus>
<clus scale="   96.975">  1  3  2 -1</clus>
</clustering>
</event>
<event>
 6    0  0.2908518E+002  0.1225700E+03  0.7546771E-02  0.1238917E+00
         21   -1    0    0  505  501  0.00000000000E+00  0.00000000000E+00  0.16659464578E+03  0.16659464578E+03  0.00000000000E+00 0. -1.
         21   -1    0    0  506  502 -0.00000000000E+00 -0.00000000000E+00 -0.40833890297E+03  0.40833890297E+03  0.00000000000E+00 0. -1.
         21    1    1    2  503  501  0.53800191839E+02 -0.24770614618E+02 -0.23911241910E+03  0.24633877680E+03  0.00000000000E+00 0. -1.
         21    1    1    2  504  502 -0.10090500496E+03  0.88999382366E+02 -0.15795210579E+02  0.13547028739E+03  0.00000000000E+00 0. -1.
         21    1    1    2  505  504  0.12152774443E+02 -0.28709009381E+02  0.93514993533E+02  0.98574596940E+02  0.00000000000E+00 0. -1.
         21    1    1    2  506  503  0.34952038678E+02 -0.35519758366E+02 -0.80351621050E+02  0.94549887612E+02  0.00000000000E+00 0. -1.
<scales pt_clust_3="47.97802" pt_clust_4="111.29903" pt_clust_5="31.17526" pt_clust_6="47.97802"></scales>
<clustering>
<clus scale="   31.175">  1  5  2 -1</clus>
<clus scale="   47.978">  3  6 -1 -1</clus>
<clus scale="  111.299">  1  4  2 -1</clus>
<clus scale="   31.175">  1  3  2 -1</clus>
</clustering>
</event>
<event>
 6    0  0.2908518E+002  0.7343788E+02  0.7546771E-02  0.1348778E+00
         21   -1    0    0  506  501  0.00000000000E+00  0.00000000000E+00  0.10005640879E+04  0.10005640879E+04  0.00000000000E+00 0.  1.
         21   -1    0    0  504  502 -0.00000000000E+00 -0.00000000000E+00 -0.16909701779E+03  0.16909701779E+03  0.00000000000E+00 0.  1.
         21    1    1    2  503  501  0.68057754884E+00  0.44323246260E+02  0.91354540504E+03  0.91462026023E+03  0.00000000000E+00 0.  1.
         21    1    1    2  504  503  0.10802921621E+02 -0.72938726249E+02 -0.87496997292E+02  0.11442239920E+03  0.00000000000E+00 0.  1.
         21    1    1    2  505  502  0.59069032198E+02  0.95866997765E+01 -0.20238186625E+02  0.63171509205E+02  0.00000000000E+00 0. -1.
         21    1    1    2  506  505 -0.70552531368E+02  0.19028780212E+02  0.25656848964E+02  0.77446937044E+02  0.00000000000E+00 0.  1.
<scales pt_clust_3="44.32847" pt_clust_4="73.43788" pt_clust_5="62.71391" pt_clust_6="14000.00000"></scales>
<clustering>
<clus scale="   44.328">  1  3  2 -1</clus>
<clus scale="   62.714">  2  5  1 -1</clus>
<clus scale="   73.438">  2  4  1 -1</clus>
<clus scale="   44.328">  1  3  2 -1</clus>
</clustering>
</event>
<event>
 6    0  0.2908518E+002  0.6089754E+02  0.7546771E-02  0.1394103E+00
         21   -1    0    0  506  501  0.00000000000E+00  0.00000000000E+00  0.14980396311E+04  0.14980396311E+04  0.00000000000E+00 0. -1.
         21   -1    0    0  503  502 -0.00000000000E+00 -0.00000000000E+00 -0.19160538587E+03  0.19160538587E+03  0.00000000000E+00 0. -1.
         21    1    1    2  503  505  0.78320770810E+01 -0.50239841512E+02  0.10201102504E+02  0.51859865010E+02  0.00000000000E+00 0.  1.
         21    1    1    2  504  501 -0.46829645666E+02  0.38579905101E+02  0.13533414688E+04  0.13547009102E+04  0.00000000000E+00 0. -1.
         21    1    1    2  505  504  0.91400905054E+02  0.69461876247E+01  0.89017158416E+02  0.12777491718E+03  0.00000000000E+00 0.  1.
         21    1    1    2  506  502 -0.52403336469E+02  0.47137487865E+01 -0.14612548449E+03  0.15530932463E+03  0.00000000000E+00 0. -1.
<scales pt_clust_3="50.84666" pt_clust_4="60.89754" pt_clust_5="14000.00000" pt_clust_6="60.32909"></scales>
<clustering>
<clus scale="   50.847">  2  3  1 -1</clus>
<clus scale="   60.329">  2  6  1 -1</clus>
<clus scale="   60.898">  1  4  2 -1</clus>
<clus scale="   60.898">  1  3  2 -1</clus>
</clustering>
</event>
<event>
 6    0  0.2908518E+002  0.3525929E+03  0.7546771E-02  0.1061556E+00
         21   -1    0    0  506  501  0.00000000000E+00  0.00000000000E+00  0.13007201792E+04  0.13007201792E+04  0.00000000000E+00 0. -1.
         21   -1    0    0  504  502 -0.00000000000E+00 -0.00000000000E+00 -0.19873494085E+03  0.19873494085E+03  0.00000000000E+00 0.  1.
         21    1    1    2  503  505  0.40248612230E+02  0.19767732145E+02  0.14172811834E+02  0.47027466611E+02  0.00000000000E+00 0.  1.
         21    1    1    2  504  503  0.56797444084E+02  0.92799101126E+01 -0.20413681455E+02  0.61063776305E+02  0.00000000000E+00 0. -1.
         21    1    1    2  505  501  0.11168616557E+03  0.21736706737E+03  0.77734460398E+01  0.24450494478E+03  0.00000000000E+00 0.  1.
         21    1    1    2  506  502 -0.20873222188E+03 -0.24641470963E+03  0.11004526619E+04  0.11468589323E+04  0.00000000000E+00 0. -1.
<scales pt_clust_3="30.86657" pt_clust_4="52.31711" pt_clust_5="52.31711" pt_clust_6="322.93862"></scales>
<clustering>
<clus scale="   30.867">  3  5 -1 -1</clus>
<clus scale="   52.317">  3  4 -1 -1</clus>
<clus scale="  322.939">  1  6  2 -1</clus>
<clus scale="  322.939">  1  3  2 -1</clus>
</clustering>
</event>
<event>
 6    0  0.2908518E+002  0.9697636E+02  0.7546771E-02  0.1286786E+00
         21   -1    0    0  506  501  0.00000000000E+00  0.00000000000E+00  0.11595414589E+04  0.11595414589E+04  0.00000000000E+00 0. -1.
         21   -1    0    0  504  502 -0.00000000000E+00 -0.00000000000E+00 -0.36806473591E+03  0.36806473591E+03  0.00000000000E+00 0. -1.
         21    1    1    2  503  502  0.71326944192E+02  0.55310182145E+02 -0.19305384286E+02  0.92300850912E+02  0.00000000000E+00 0. -1.
         21    1    1    2  504  505 -0.46724442299E+02 -0.61815951148E+01 -0.14951111214E+03  0.15676402100E+03  0.00000000000E+00 0. -1.
         21    1    1    2  505  501 -0.32361988482E+02 -0.82995164513E+02 -0.14636255046E+03  0.17134028075E+03  0.00000000000E+00 0. -1.
         21    1    1    2  506  503  0.77594865892E+01  0.33866577483E+02  0.11066557699E+04  0.11072010421E+04  0.00000000000E+00 0. -1.
<scales pt_clust_3="14000.00000" pt_clust_4="46.34955" pt_clust_5="96.97636" pt_clust_6="34.74413"></scales>
<clustering>
<clus scale="   34.744">  1  6  2 -1</clus>
<clus scale="   46.350">  2  4  1 -1</clus>
<clus scale="   96.976">  2  5  1 -1</clus>
<clus scale="   34.744">  1  3  2 -1</clus>
</clustering>
</event>
<event>
 6    0  0.2908518E+002  0.1107322E+03  0.7546771E-02  0.1259220E+00
         21   -1    0    0  506  501  0.00000000000E+00  0.00000000000E+00  0.97764943687E+02  0.97764943687E+02  0.00000000000E+00 0. -1.
         21   -1    0    0  503  502 -0.00000000000E+00 -0.00000000000E+00 -0.24464823845E+03  0.24464823845E+03  0.00000000000E+00 0. -1.
         21    1    1    2  503  501 -0.10064114653E+03 -0.66667817432E+02 -0.83721502569E+02  0.14690993244E+03  0.00000000000E+00 0. -1.
         21    1    1    2  504  502  0.59478999075E+02  0.37111432107E+01 -0.72917176273E+02  0.94172387197E+02  0.00000000000E+00 0. -1.
         21    1    1    2  505  504  0.24934521725E+02  0.30429185489E+02 -0.28484933989E+02  0.48570126287E+02  0.00000000000E+00 0. -1.
         21    1    1    2  506  505  0.16227625731E+02  0.32527488733E+02  0.38240318068E+02  0.52760736216E+02  0.00000000000E+00 0. -1.
<scales pt_clust_3="102.27313" pt_clust_4="34.48838" pt_clust_5="34.48838" pt_clust_6="36.35070"></scales>
<clustering>
<clus scale="   34.488">  4  5 -1 -1</clus>
<clus scale="   36.351">  1  6  2 -1</clus>
<clus scale="  102.273">  1  3  2 -1</clus>
<clus scale="   36.351">  1  3  2 -1</clus>
</clustering>
</event>
<event>
 6    0  0.2908518E+002  0.5491479E+02  0.7546771E-02  0.1420502E+00
         21   -1    0    0  505  501  0.00000000000E+00  0.00000000000E+00  0.30891715284E+03  0.30891715284E+03  0.00000000000E+00 0. -1.
         21   -1    0    0  504  502 -0.00000000000E+00 -0.00000000000E+00 -0.61028541932E+03  0.61028541932E+03  0.00000000000E+00 0.  1.
         21    1    1    2  503  502  0.89309083563E+01 -0.37929595831E+02 -0.36932671232E+02  0.53688337358E+02  0.00000000000E+00 0.  1.
         21    1    1    2  504  506 -0.63613834839E+01  0.11356764971E+03 -0.48591132514E+03  0.49904698592E+03  0.00000000000E+00 0.  1.
         21    1    1    2  505  503 -0.38877301228E+02 -0.34685275279E+02 -0.60147439273E+02  0.79575293422E+02  0.00000000000E+00 0.  1.
         21    1    1    2  506  501  0.36307776356E+02 -0.40952778596E+02  0.28162316916E+03  0.28689195546E+03  0.00000000000E+00 0. -1.
<scales pt_clust_3="38.96685" pt_clust_4="54.91479" pt_clust_5="54.56391" pt_clust_6="14000.00000"></scales>
<clustering>
<clus scale="   38.967">  2  3  1 -1</clus>
<clus scale="   54.564">  2  5  1 -1</clus>
<clus scale="   54.915">  2  4  1 -1</clus>
<clus scale="   54.915">  1  3  2 -1</clus>
</clustering>
</event>
<event>
 6    0  0.2908518E+002  0.1017007E+03  0.7546771E-02  0.1276760E+00
         21   -1    0    0  505  501  0.00000000000E+00  0.00000000000E+00  0.49287021812E+03  0.49287021812E+03  0.00000000000E+00 0. -1.
         21   -1    0    0  506  502 -0.00000000000E+00 -0.00000000000E+00 -0.11817618926E+03  0.11817618926E+03  0.00000000000E+00 0. -1.
         21    1    1    2  503  502 -0.10243291452E+03 -0.36239967984E+02 -0.65309495632E+02  0.12677210843E+03  0.00000000000E+00 0. -1.
         21    1    1    2  504  503  0.42200342487E+02  0.46680477882E+02  0.11997044458E+03  0.13547266696E+03  0.00000000000E+00 0.  1.
         21    1    1    2  505  504 -0.20618805074E+02  0.25843549627E+02  0.18051622627E+03  0.18351875143E+03  0.00000000000E+00 0. -1.
         21    1    1    2  506  501  0.80851377105E+02 -0.36284059525E+02  0.13951685365E+03  0.16528288056E+03  0.00000000000E+00 0. -1.
<scales pt_clust_3="14000.00000" pt_clust_4="66.48900" pt_clust_5="33.06092" pt_clust_6="101.70066"></scales>
<clustering>
<clus scale="   33.061">  1  5  2 -1</clus>
<clus scale="   66.489">  1  4  2 -1</clus>
<clus scale="  101.701">  1  6  2 -1</clus>
<clus scale="   33.061">  1  3  2 -1</clus>
</clustering>
</event>
<event>
 6    0  0.2908518E+002  0.7987274E+02  0.7546771E-02  0.1329413E+00
         21   -1    0    0  506  501  0.00000000000E+00  0.00000000000E+00  0.67416026291E+03  0.67416026291E+03  0.00000000000E+00 0.  1.
         21   -1    0    0  505  502 -0.00000000000E+00 -0.00000000000E+00 -0.16069458463E+03  0.16069458463E+03  0.00000000000E+00 0.  1.
         21    1    1    2  503  502 -0.49671340616E+02  0.33382195459E+01 -0.37662652264E+02  0.62424844124E+02  0.00000000000E+00 0.  1.
         21    1    1    2  504  503  0.10272833385E+03  0.36816793122E+02  0.54229126772E+02  0.12185805276E+03  0.00000000000E+00 0.  1.
         21    1    1    2  505  501 -0.18957947010E+02 -0.54956223652E+02 -0.65137758865E+02  0.87307032379E+02  0.00000000000E+00 0.  1.
         21    1    1    2  506  504 -0.34099046225E+02  0.14801210984E+02  0.56203696263E+03  0.56326491828E+03  0.00000000000E+00 0.  1.
<scales pt_clust_3="53.68904" pt_clust_4="79.87274" pt_clust_5="14000.00000" pt_clust_6="37.17285"></scales>
<clustering>
<clus scale="   37.173">  1  6  2 -1</clus>
<clus scale="   53.689">  2  3  1 -1</clus>
<clus scale="   79.873">  1  4  2 -1</clus>
<clus scale="   37.173">  1  3  2 -1</clus>
</clustering>
</event>
<event>
 6    0  0.2908518E+002  0.2699700E+03  0.7546771E-02  0.1101297E+00
         21   -1    0    0  506  501  0.00000000000E+00  0.00000000000E+00  0.13839604567E+03  0.13839604567E+03  0.00000000000E+00 0.  1.
         21   -1    0    0  505  502 -0.00000000000E+00 -0.00000000000E+00 -0.10764259372E+04  0.10764259372E+04  0.00000000000E+00 0.  1.
         21    1    1    2  503  504  0.12683585990E+02  0.87168843338E+02 -0.21760091716E+03  0.23475399837E+03  0.00000000000E+00 0.  1.
         21    1    1    2  504  501 -0.17000628258E+00  0.63235245895E+02  0.55474284653E+02  0.84119685469E+02  0.00000000000E+00 0.  1.
         21    1    1    2  505  503 -0.21134466104E+02  0.14714708572E+03 -0.22305229628E+03  0.26805084848E+03  0.00000000000E+00 0. -1.
         21    1    1    2  506  502  0.86208863966E+01 -0.29755117495E+03 -0.55285096269E+03  0.62789745050E+03  0.00000000000E+00 0.  1.
<scales pt_clust_3="46.58294" pt_clust_4="63.23547" pt_clust_5="46.58294" pt_clust_6="263.10015"></scales>
<clustering>
<clus scale="   46.583">  3  5 -1 -1</clus>
<clus scale="   63.235">  1  4  2 -1</clus>
<clus scale="  263.100">  1  6  2 -1</clus>
<clus scale="   63.235">  1  3  2 -1</clus>
</clustering>
</event>
<event>
 6    0  0.2908518E+002  0.8838413E+02  0.7546771E-02  0.1306813E+00
         21   -1    0    0  504  501  0.00000000000E+00  0.00000000000E+00  0.14011335717E+04  0.14011335717E+04  0.00000000000E+00 0. -1.
         21   -1    0    0  503  502 -0.00000000000E+00 -0.00000000000E+00 -0.27414804703E+03  0.27414804703E+03  0.00000000000E+00 0. -1.
         21    1    1    2  503  505 -0.44121326290E+02  0.63107361606E+02 -0.14166051279E+03  0.16123563938E+03  0.00000000000E+00 0. -1.
         21    1    1    2  504  502  0.12588868411E+02 -0.61247396288E+02 -0.59416111153E+02  0.86255419682E+02  0.00000000000E+00 0. -1.
         21    1    1    2  505  506 -0.22679625951E+02  0.47122123387E+02 -0.34899778652E+02  0.62871730498E+02  0.00000000000E+00 0. -1.
         21    1    1    2  506  501  0.54212083830E+02 -0.48982088704E+02  0.13629619273E+04  0.13649188292E+04  0.00000000000E+00 0. -1.
<scales pt_clust_3="40.68850" pt_clust_4="62.52778" pt_clust_5="40.68850" pt_clust_6="73.30814"></scales>
<clustering>
<clus scale="   40.688">  3  5 -1 -1</clus>
<clus scale="   62.528">  2  4  1 -1</clus>
<clus scale="   73.308">  1  6  2 -1</clus>
<clus scale="   73.308">  1  3  2 -1</clus>
</clustering>
</event>
<event>
 6    0  0.2908518E+002  0.6697924E+02  0.7546771E-02  0.1370677E+00
         21   -1    0    0  503  501  0.00000000000E+00  0.00000000000E+00  0.74659194304E+03  0.74659194304E+03  0.00000000000E+00 0.  1.
         21   -1    0    0  506  502 -0.00000000000E+00 -0.00000000000E+00 -0.27473065794E+03  0.27473065794E+03  0.00000000000E+00 0.  1.
         21    1    1    2  503  502 -0.11251788005E+03 -0.10089839575E+03 -0.15198289663E+03  0.21433515918E+03  0.00000000000E+00 0.  1.
         21    1    1    2  504  505  0.33817459739E+02  0.40729863601E+02  0.45334533554E+01  0.53132801276E+02  0.00000000000E+00 0.  1.
         21    1    1    2  505  501  0.55248449134E+02  0.36568209284E+02  0.68075991009E+03  0.68397637405E+03  0.00000000000E+00 0.  1.
         21    1    1    2  506  504  0.23451971173E+02  0.23600322865E+02 -0.61449181722E+02  0.69878266475E+02  0.00000000000E+00 0.  1.
<scales pt_clust_3="66.97924" pt_clust_4="56.79176" pt_clust_5="14000.00000" pt_clust_6="33.27116"></scales>
<clustering>
<clus scale="   33.271">  2  6  1 -1</clus>
<clus scale="   56.792">  2  4  1 -1</clus>
<clus scale="   66.979">  2  3  1 -1</clus>
<clus scale="   66.979">  1  3  2 -1</clus>
</clustering>
</event>
<event>
 6    0  0.2908518E+002  0.1076123E+03  0.7546771E-02  0.1265057E+00
         21   -1    0    0  503  501  0.00000000000E+00  0.00000000000E+00  0.31779891476E+04  0.31779891476E+04  0.00000000000E+00 0. -1.
         21   -1    0    0  505  502 -0.00000000000E+00 -0.00000000000E+00 -0.44169604173E+02  0.44169604173E+02  0.00000000000E+00 0. -1.
         21    1    1    2  503  506 -0.10055472399E+03 -0.33869225377E+02  0.28053505108E+04  0.28073563838E+04  0.00000000000E+00 0. -1.
         21    1    1    2  504  502  0.16914217366E+02 -0.32194309133E+02  0.91896591994E+02  0.98830905641E+02  0.00000000000E+00 0. -1.
         21    1    1    2  505  501 -0.50221484770E+02 -0.15544599110E+02  0.63833969296E+02  0.82695874928E+02  0.00000000000E+00 0. -1.
         21    1    1    2  506  504  0.13386199140E+03  0.81608133620E+02  0.17273847127E+03  0.23327558739E+03  0.00000000000E+00 0. -1.
<scales pt_clust_3="107.61229" pt_clust_4="36.36708" pt_clust_5="51.70205" pt_clust_6="14000.00000"></scales>
<clustering>
<clus scale="   36.367">  2  4  1 -1</clus>
<clus scale="   51.702">  2  5  1 -1</clus>
<clus scale="  107.612">  1  3  2 -1</clus>
<clus scale="  107.612">  1  3  2 -1</clus>
</clustering>
</event>
<event>
 6    0  0.2908518E+002  0.1367208E+03  0.7546771E-02  0.1217811E+00
         21   -1    0    0  503  501  0.00000000000E+00  0.00000000000E+00  0.14760914761E+03  0.14760914761E+03  0.00000000000E+00 0.  1.
         21   -1    0    0  501  502 -0.00000000000E+00 -0.00000000000E+00 -0.42045816134E+03  0.42045816134E+03  0.00000000000E+00 0.  1.
         21    1    1    2  503  505 -0.54781926852E+02  0.23574430938E+02  0.70312014051E+02  0.92198658469E+02  0.00000000000E+00 0.  1.
         21    1    1    2  504  502 -0.10803302831E+03 -0.21193829641E+02 -0.25681329287E+03  0.27941614308E+03  0.00000000000E+00 0. -1.
         21    1    1    2  505  506  0.50056667656E+02 -0.48870603376E+01  0.60418265951E+01  0.50656263227E+02  0.00000000000E+00 0. -1.
         21    1    1    2  506  504  0.11275828751E+03  0.25064590405E+01 -0.92389561511E+02  0.14579624417E+03  0.00000000000E+00 0.  1.
<scales pt_clust_3="59.63903" pt_clust_4="118.61409" pt_clust_5="45.40547" pt_clust_6="45.40547"></scales>
<clustering>
<clus scale="   45.405">  5  6 -1 -1</clus>
<clus scale="   59.639">  1  3  2 -1</clus>
<clus scale="  118.614">  2  4  1 -1</clus>
<clus scale="   59.639">  1  3  2 -1</clus>
</clustering>
</event>
<event>
 6    0  0.2908518E+002  0.1446654E+03  0.7546771E-02  0.1207186E+00
         21   -1    0    0  503  501  0.00000000000E+00  0.00000000000E+00  0.18381329547E+03  0.18381329547E+03  0.00000000000E+00 0.  1.
         21   -1    0    0  506  502 -0.00000000000E+00 -0.00000000000E+00 -0.90716295856E+03  0.90716295856E+03  0.00000000000E+00 0.  1.
         21    1    1    2  503  502 -0.90958714748E+02 -0.82194271362E+02  0.15678881346E+03  0.19902793286E+03  0.00000000000E+00 0.  1.
         21    1    1    2  504  501  0.12046741487E+02  0.29712896136E+02 -0.10932103601E+03  0.11392571743E+03  0.00000000000E+00 0.  1.
         21    1    1    2  505  504  0.55295949225E+02  0.16848959457E+02 -0.31967552241E+03  0.32485992222E+03  0.00000000000E+00 0.  1.
         21    1    1    2  506  505  0.23616024036E+02  0.35632415770E+02 -0.45114191812E+03  0.45316268153E+03  0.00000000000E+00 0.  1.
<scales pt_clust_3="122.59440" pt_clust_4="31.52449" pt_clust_5="34.65020" pt_clust_6="34.65020"></scales>
<clustering>
<clus scale="   31.524">  4  5 -1 -1</clus>
<clus scale="   34.650">  4  6 -1 -1</clus>
<clus scale="  122.594">  1  3  2 -1</clus>
<clus scale="  122.594">  1  3  2 -1</clus>
</clustering>
</event>
<event>
 6    0  0.2908518E+002  0.2017243E+03  0.7546771E-02  0.1148292E+00
         21   -1    0    0  504  501  0.00000000000E+00  0.00000000000E+00  0.17337856396E+04  0.17337856396E+04  0.00000000000E+00 0.  1.
         21   -1    0    0  503  502 -0.00000000000E+00 -0.00000000000E+00 -0.10576384729E+04  0.10576384729E+04  0.00000000000E+00 0.  1.
         21    1    1    2  503  505 -0.31701090794E+02  0.23755728171E+02 -0.50051535406E+02  0.63831418400E+02  0.00000000000E+00 0. -1.
         21    1    1    2  504  502 -0.64584095195E+02 -0.19153507687E+03  0.17034734336E+04  0.17154237174E+04  0.00000000000E+00 0.  1.
         21    1    1    2  505  506  0.82204652765E+02  0.19135796557E+02 -0.15539645869E+03  0.17683846589E+03  0.00000000000E+00 0. -1.
         21    1    1    2  506  501  0.14080533224E+02  0.14864355214E+03 -0.82187827286E+03  0.83533051088E+03  0.00000000000E+00 0.  1.
<scales pt_clust_3="39.61431" pt_clust_4="201.72426" pt_clust_5="80.32906" pt_clust_6="14000.00000"></scales>
<clustering>
<clus scale="   39.614">  2  3  1 -1</clus>
<clus scale="   80.329">  2  5  1 -1</clus>
<clus scale="  201.724">  1  4  2 -1</clus>
<clus scale="  201.724">  1  3  2 -1</clus>
</clustering>
</event>
<event>
 6    0  0.2908518E+002  0.1782384E+03  0.7546771E-02  0.1169519E+00
         21   -1    0    0  505  501  0.00000000000E+00  0.00000000000E+00  0.77858259281E+03  0.77858259281E+03  0.00000000000E+00 0. -1.
         21   -1    0    0  503  502 -0.00000000000E+00 -0.00000000000E+00 -0.69685402104E+02  0.69685402104E+02  0.00000000000E+00 0. -1.
         21    1    1    2  503  501  0.15895558344E+03  0.62733755910E+02  0.54281576104E+03  0.56907938996E+03  0.00000000000E+00 0. -1.
         21    1    1    2  504  506 -0.84163453918E+02 -0.31186850260E+02  0.58625380159E+02  0.10720560528E+03  0.00000000000E+00 0. -1.
         21    1    1    2  505  504 -0.56064440405E+02 -0.70099033754E+02  0.84890195631E+02  0.12354530070E+03  0.00000000000E+00 0. -1.
         21    1    1    2  506  502 -0.18727689122E+02  0.38552128104E+02  0.22565853879E+02  0.48437698980E+02  0.00000000000E+00 0. -1.
<scales pt_clust_3="170.41819" pt_clust_4="49.68941" pt_clust_5="49.68941" pt_clust_6="42.86016"></scales>
<clustering>
<clus scale="   42.860">  2  6  1 -1</clus>
<clus scale="   49.689">  4  5 -1 -1</clus>
<clus scale="  170.418">  1  3  2 -1</clus>
<clus scale="  170.418">  1  3  2 -1</clus>
</clustering>
</event>
<event>
 6    0  0.2908518E+002  0.1239752E+03  0.7546771E-02  0.1236680E+00
         21   -1    0    0  505  501  0.00000000000E+00  0.00000000000E+00  0.12533317532E+03  0.12533317532E+03  0.00000000000E+00 0.  1.
         21   -1    0    0  504  502 -0.00000000000E+00 -0.00000000000E+00 -0.11812271158E+04  0.11812271158E+04  0.00000000000E+00 0.  1.
         21    1    1    2  503  502  0.37729392217E+02  0.16319456855E+03 -0.34039152444E+03  0.37937101122E+03  0.00000000000E+00 0.  1.
         21    1    1    2  504  506 -0.70896804322E+02 -0.69165929753E+02 -0.58670016423E+03  0.59500198774E+03  0.00000000000E+00 0.  1.
         21    1    1    2  505  503  0.44222407825E+02  0.63412776486E+01  0.84840124059E+02  0.95883678520E+02  0.00000000000E+00 0.  1.
         21    1    1    2  506  501 -0.11054995720E+02 -0.10036991644E+03 -0.21364237590E+03  0.23630361368E+03  0.00000000000E+00 0.  1.
<scales pt_clust_3="14000.00000" pt_clust_4="94.81567" pt_clust_5="44.67475" pt_clust_6="123.97519"></scales>
<clustering>
<clus scale="   44.675">  1  5  2 -1</clus>
<clus scale="   94.816">  2  4  1 -1</clus>
<clus scale="  123.975">  1  6  2 -1</clus>
<clus scale="   44.675">  1  3  2 -1</clus>
</clustering>
</event>
<event>
 6    0  0.2908518E+002  0.9993426E+02  0.7546771E-02  0.1280434E+00
         21   -1    0    0  504  501  0.00000000000E+00  0.00000000000E+00  0.80161760085E+02  0.80161760085E+02  0.00000000000E+00 0.  1.
         21   -1    0    0  503  502 -0.00000000000E+00 -0.00000000000E+00 -0.13220744013E+04  0.13220744013E+04  0.00000000000E+00 0.  1.
         21    1    1    2  503  506 -0.73728993619E+02 -0.30466623365E+02 -0.63633912443E+03  0.64132024833E+03  0.00000000000E+00 0.  1.
         21    1    1    2  504  505  0.59803787385E+02 -0.17951156704E+02  0.56103452586E+02  0.83942446978E+02  0.00000000000E+00 0.  1.
         21    1    1    2  505  502 -0.34166130156E+02  0.51624098970E+02 -0.57042808084E+03  0.57377745464E+03  0.00000000000E+00 0.  1.
         21    1    1    2  506  501  0.48091336390E+02 -0.32063189009E+01 -0.91248888491E+02  0.10319601139E+03  0.00000000000E+00 0.  1.
<scales pt_clust_3="14000.00000" pt_clust_4="99.93426" pt_clust_5="61.25277" pt_clust_6="48.19810"></scales>
<clustering>
<clus scale="   48.198">  1  6  2 -1</clus>
<clus scale="   61.253">  2  5  1 -1</clus>
<clus scale="   99.934">  1  4  2 -1</clus>
<clus scale="   48.198">  1  3  2 -1</clus>
</clustering>
</event>
<event>
 6    0  0.2908518E+002  0.1192286E+03  0.7546771E-02  0.1244375E+00
         21   -1    0    0  506  501  0.00000000000E+00  0.00000000000E+00  0.11367455673E+03  0.11367455673E+03  0.00000000000E+00 0. -1.
         21   -1    0    0  504  502 -0.00000000000E+00 -0.00000000000E+00 -0.55780794609E+03  0.55780794609E+03  0.00000000000E+00 0. -1.
         21    1    1    2  503  505 -0.21322786045E+02 -0.33202628234E+02 -0.12353772549E+03  0.12968672000E+03  0.00000000000E+00 0. -1.
         21    1    1    2  504  503 -0.84777702436E+01 -0.39408158351E+02 -0.26069465832E+03  0.26379268453E+03  0.00000000000E+00 0. -1.
         21    1    1    2  505  501  0.66015515560E+02 -0.59592807246E+02 -0.10131320661E+03  0.13480992843E+03  0.00000000000E+00 0. -1.
         21    1    1    2  506  502 -0.36214959272E+02  0.13220359383E+03  0.41412201053E+02  0.14319316985E+03  0.00000000000E+00 0. -1.
<scales pt_clust_3="31.77068" pt_clust_4="84.80281" pt_clust_5="119.22864" pt_clust_6="14000.00000"></scales>
<clustering>
<clus scale="   31.771">  3  4 -1 -1</clus>
<clus scale="   84.803">  2  3  1 -1</clus>
<clus scale="  119.229">  2  5  1 -1</clus>
<clus scale="  119.229">  1  3  2 -1</clus>
</clustering>
</event>
<event>
 6    0  0.2908518E+002  0.1478297E+03  0.7546771E-02  0.1203166E+00
         21   -1    0    0  506  501  0.00000000000E+00  0.00000000000E+00  0.57406478229E+03  0.57406478229E+03  0.00000000000E+00 0. -1.
         21   -1    0    0  504  502 -0.00000000000E+00 -0.00000000000E+00 -0.56967068310E+03  0.56967068310E+03  0.00000000000E+00 0. -1.
         21    1    1    2  503  502  0.49956108775E+02  0.91338003437E+01 -0.77906891965E+02  0.92997435063E+02  0.00000000000E+00 0. -1.
         21    1    1    2  504  505  0.37168763548E+02  0.42181401971E+02 -0.27529280555E+03  0.28097493918E+03  0.00000000000E+00 0. -1.
         21    1    1    2  505  501  0.55528648330E+01  0.57322049098E+02 -0.19276325438E+03  0.20118231498E+03  0.00000000000E+00 0. -1.
         21    1    1    2  506  503 -0.92677737156E+02 -0.10863725141E+03  0.55035705109E+03  0.56858077618E+03  0.00000000000E+00 0. -1.
<scales pt_clust_3="50.78424" pt_clust_4="40.41389" pt_clust_5="40.41389" pt_clust_6="142.05823"></scales>
<clustering>
<clus scale="   40.414">  4  5 -1 -1</clus>
<clus scale="   50.784">  2  3  1 -1</clus>
<clus scale="  142.058">  1  6  2 -1</clus>
<clus scale="  142.058">  1  3  2 -1</clus>
</clustering>
</event>
<event>
 6    0  0.2908518E+002  0.7654252E+02  0.7546771E-02  0.1339160E+00
         21   -1    0    0  504  501  0.00000000000E+00  0.00000000000E+00  0.19560347266E+03  0.19560347266E+03  0.00000000000E+00 0. -1.
         21   -1    0    0  503  502 -0.00000000000E+00 -0.00000000000E+00 -0.33990672890E+03  0.33990672890E+03  0.00000000000E+00 0. -1.
         21    1    1    2  503  505  0.35478012126E+02 -0.10154823176E+03 -0.21574520904E+03  0.24107411296E+03  0.00000000000E+00 0. -1.
         21    1    1    2  504  502 -0.42001228320E+02  0.20519568373E+02 -0.61260078620E+02  0.77058115077E+02  0.00000000000E+00 0. -1.
         21    1    1    2  505  506 -0.22982983833E+02  0.56786031433E+02 -0.16436950045E+02  0.63427472270E+02  0.00000000000E+00 0. -1.
         21    1    1    2  506  501  0.29506200028E+02  0.24242631955E+02  0.14913898146E+03  0.15395050125E+03  0.00000000000E+00 0. -1.
<scales pt_clust_3="14000.00000" pt_clust_4="44.33991" pt_clust_5="76.54252" pt_clust_6="38.18797"></scales>
<clustering>
<clus scale="   38.188">  1  6  2 -1</clus>
<clus scale="   44.340">  2  4  1 -1</clus>
<clus scale="   76.543">  1  5  2 -1</clus>
<clus scale="   38.188">  1  3  2 -1</clus>
</clustering>
</event>
<event>
 6    0  0.2908518E+002  0.1236298E+03  0.7546771E-02  0.1237226E+00
         21   -1    0    0  503  501  0.00000000000E+00  0.00000000000E+00  0.27804709354E+03  0.27804709354E+03  0.00000000000E+00 0.  1.
         21   -1    0    0  506  502 -0.00000000000E+00 -0.00000000000E+00 -0.10344788794E+03  0.10344788794E+03  0.00000000000E+00 0.  1.
         21    1    1    2  503  502 -0.66961446796E+01 -0.30140967984E+02 -0.17517852620E+02  0.35499175554E+02  0.00000000000E+00 0. -1.
         21    1    1    2  504  501 -0.10703519006E+03 -0.27247970703E+01  0.18469852494E+03  0.21348887921E+03  0.00000000000E+00 0.  1.
         21    1    1    2  505  504  0.56845501211E+02 -0.12770289391E+02 -0.52015519370E+01  0.58493994920E+02  0.00000000000E+00 0.  1.
         21    1    1    2  506  505  0.56885833532E+02  0.45636054445E+02  0.12620085212E+02  0.74012931794E+02  0.00000000000E+00 0.  1.
<scales pt_clust_3="30.87582" pt_clust_4="108.61056" pt_clust_5="57.12531" pt_clust_6="57.12531"></scales>
<clustering>
<clus scale="   30.876">  2  3  1 -1</clus>
<clus scale="   57.125">  5  6 -1 -1</clus>
<clus scale="  108.611">  1  4  2 -1</clus>
<clus scale="  108.611">  1  3  2 -1</clus>
</clustering>
</event>
<event>
 6    0  0.2908518E+002  0.1987276E+03  0.7546771E-02  0.1150817E+00
         21   -1    0    0  503  501  0.00000000000E+00  0.00000000000E+00  0.20715672997E+03  0.20715672997E+03  0.00000000000E+00 0. -1.
         21   -1    0    0  504  502 -0.00000000000E+00 -0.00000000000E+00 -0.36378965175E+03  0.36378965175E+03  0.00000000000E+00 0. -1.
         21    1    1    2  503  502  0.54466511600E+01  0.41540590762E+02 -0.98348936479E+01  0.43035006946E+02  0.00000000000E+00 0.  1.
         21    1    1    2  504  505 -0.15547529870E+03  0.12682175414E+03 -0.17752316331E+03  0.26790072665E+03  0.00000000000E+00 0. -1.
         21    1    1    2  505  506  0.13960546312E+03 -0.13699263378E+03 -0.22989504429E+02  0.19693954493E+03  0.00000000000E+00 0. -1.
         21    1    1    2  506  501  0.10423184420E+02 -0.31369711119E+02  0.53714639609E+02  0.63071103189E+02  0.00000000000E+00 0. -1.
<scales pt_clust_3="38.61012" pt_clust_4="198.72762" pt_clust_5="14000.00000" pt_clust_6="33.05604"></scales>
<clustering>
<clus scale="   33.056">  1  6  2 -1</clus>
<clus scale="   38.610">  1  3  2 -1</clus>
<clus scale="  198.728">  2  4  1 -1</clus>
<clus scale="   33.056">  1  3  2 -1</clus>
</clustering>
</event>
<event>
 6    0  0.2908518E+002  0.1419348E+03  0.7546771E-02  0.1210749E+00
         21   -1    0    0  505  501  0.00000000000E+00  0.00000000000E+00  0.62627144773E+03  0.62627144773E+03  0.00000000000E+00 0.  1.
         21   -1    0    0  503  502 -0.00000000000E+00 -0.00000000000E+00 -0.15311891652E+04  0.15311891652E+04  0.00000000000E+00 0.  1.
         21    1    1    2  503  506 -0.20655388157E+02  0.44185896608E+02 -0.71823392427E+03  0.71988819166E+03  0.00000000000E+00 0.  1.
         21    1    1    2  504  502  0.25090925891E+02  0.25205905515E+02 -0.20370100049E+03  0.20678246985E+03  0.00000000000E+00 0.  1.
         21    1    1    2  505  504  0.13750403353E+03 -0.64495481756E+02 -0.58904462490E+03  0.60830962225E+03  0.00000000000E+00 0.  1.
         21    1    1    2  506  501 -0.14193957126E+03 -0.48963203669E+01  0.60606183216E+03  0.62248032920E+03  0.00000000000E+00 0.  1.
<scales pt_clust_3="58.28284" pt_clust_4="35.56532" pt_clust_5="14000.00000" pt_clust_6="141.93476"></scales>
<clustering>
<clus scale="   35.565">  2  4  1 -1</clus>
<clus scale="   58.283">  2  3  1 -1</clus>
<clus scale="  141.935">  1  6  2 -1</clus>
<clus scale="  141.935">  1  3  2 -1</clus>
</clustering>
</event>
<event>
 6    0  0.3106957E+002  0.2407327E+03  0.7546771E-02  0.1119306E+00
         21   -1    0    0  506  501  0.00000000000E+00  0.00000000000E+00  0.97652003507E+03  0.97652003507E+03  0.00000000000E+00 0. -1.
         21   -1    0    0  505  502 -0.00000000000E+00 -0.00000000000E+00 -0.33344598950E+03  0.33344598950E+03  0.00000000000E+00 0. -1.
         21    1    1    2  503  501 -0.43916133941E+02 -0.15357899938E+03  0.20058945058E+03  0.25642009195E+03  0.00000000000E+00 0.  1.
         21    1    1    2  504  502  0.67702403989E+02  0.22387727209E+03 -0.25112698418E+03  0.34317548083E+03  0.00000000000E+00 0. -1.
         21    1    1    2  505  503 -0.43629791006E+02 -0.17821620161E+02  0.70890114653E+02  0.85126829871E+02  0.00000000000E+00 0.  1.
         21    1    1    2  506  504  0.19843520958E+02 -0.52476652548E+02  0.62272146452E+03  0.62524362192E+03  0.00000000000E+00 0. -1.
<scales pt_clust_3="41.76041" pt_clust_4="228.12618" pt_clust_5="41.76041" pt_clust_6="56.10316"></scales>
<clustering>
<clus scale="   41.760">  3  5 -1 -1</clus>
<clus scale="   56.103">  1  6  2 -1</clus>
<clus scale="  228.126">  2  4  1 -1</clus>
<clus scale="   56.103">  1  3  2 -1</clus>
</clustering>
</event>
<event>
 6    0  0.2908518E+002  0.1309886E+03  0.7546771E-02  0.1225996E+00
         21   -1    0    0  506  501  0.00000000000E+00  0.00000000000E+00  0.38360704949E+03  0.38360704949E+03  0.00000000000E+00 0. -1.
         21   -1    0    0  503  502 -0.00000000000E+00 -0.00000000000E+00 -0.70860927379E+02  0.70860927379E+02  0.00000000000E+00 0. -1.
         21    1    1    2  503  505 -0.83938034493E+01 -0.31517373217E+02 -0.13885227144E+02  0.35448558274E+02  0.00000000000E+00 0. -1.
         21    1    1    2  504  501  0.20472895968E+02 -0.55547265663E+02  0.67445831875E+02  0.89741731815E+02  0.00000000000E+00 0. -1.
         21    1    1    2  505  504 -0.87247578731E+00 -0.51905443015E+02  0.27166703813E+02  0.58591518368E+02  0.00000000000E+00 0. -1.
         21    1    1    2  506  502 -0.11206616731E+02  0.13897008189E+03  0.23201881357E+03  0.27068616842E+03  0.00000000000E+00 0. -1.
<scales pt_clust_3="32.61596" pt_clust_4="31.35244" pt_clust_5="31.35244" pt_clust_6="126.63744"></scales>
<clustering>
<clus scale="   31.352">  4  5 -1 -1</clus>
<clus scale="   32.616">  2  3  1 -1</clus>
<clus scale="  126.637">  1  6  2 -1</clus>
<clus scale="  126.637">  1  3  2 -1</clus>
</clustering>
</event>
<event>
 6    0  0.2908518E+002  0.9605385E+02  0.7546771E-02  0.1288820E+00
         21   -1    0    0  503  501  0.00000000000E+00  0.00000000000E+00  0.68979681146E+03  0.68979681146E+03  0.00000000000E+00 0. -1.
         21   -1    0    0  506  502 -0.00000000000E+00 -0.00000000000E+00 -0.40853043637E+03  0.40853043637E+03  0.00000000000E+00 0. -1.
         21    1    1    2  503  505 -0.27598475519E+02 -0.56024142238E+02  0.55938921572E+03  0.56286470402E+03  0.00000000000E+00 0. -1.
         21    1    1    2  504  501  0.63690954452E+02  0.14884063375E+02 -0.35233872162E+02  0.74293329237E+02  0.00000000000E+00 0. -1.
         21    1    1    2  505  502  0.95063360905E+01  0.12421843548E+03  0.63944341921E+02  0.14003381378E+03  0.00000000000E+00 0. -1.
         21    1    1    2  506  504 -0.45598815023E+02 -0.83078356617E+02 -0.30683331040E+03  0.32113540079E+03  0.00000000000E+00 0. -1.
<scales pt_clust_3="62.45303" pt_clust_4="59.84314" pt_clust_5="14000.00000" pt_clust_6="96.05385"></scales>
<clustering>
<clus scale="   62.453">  1  3  2 -1</clus>
<clus scale="   59.843">  1  4  2 -1</clus>
<clus scale="   96.054">  2  6  1 -1</clus>
<clus scale="   62.453">  1  3  2 -1</clus>
</clustering>
</event>
<event>
 6    0  0.2908518E+002  0.1551453E+03  0.7546771E-02  0.1194289E+00
         21   -1    0    0  504  501  0.00000000000E+00  0.00000000000E+00  0.65958910324E+03  0.65958910324E+03  0.00000000000E+00 0.  1.
         21   -1    0    0  503  502 -0.00000000000E+00 -0.00000000000E+00 -0.28781518209E+03  0.28781518209E+03  0.00000000000E+00 0.  1.
         21    1    1    2  503  505 -0.46032629633E+02  0.21423069362E+02 -0.14675138313E+03  0.15528657168E+03  0.00000000000E+00 0.  1.
         21    1    1    2  504  506  0.15778687493E+03 -0.42262423088E+01  0.59302568070E+03  0.61367256497E+03  0.00000000000E+00 0.  1.
         21    1    1    2  505  501 -0.12640207025E+03  0.11772617231E+02 -0.71858557485E+02  0.14587573535E+03  0.00000000000E+00 0.  1.
         21    1    1    2  506  502  0.14647824948E+02 -0.28969444284E+02 -0.26418189197E+01  0.32569413336E+02  0.00000000000E+00 0.  1.
<scales pt_clust_3="38.20598" pt_clust_4="14000.00000" pt_clust_5="155.14531" pt_clust_6="32.46209"></scales>
<clustering>
<clus scale="   32.462">  2  6  1 -1</clus>
<clus scale="   38.206">  2  3  1 -1</clus>
<clus scale="  155.145">  2  5  1 -1</clus>
<clus scale="  155.145">  1  3  2 -1</clus>
</clustering>
</event>
<event>
 6    0  0.2908518E+002  0.1394983E+03  0.7546771E-02  0.1214006E+00
         21   -1    0    0  504  501  0.00000000000E+00  0.00000000000E+00  0.10357566432E+03  0.10357566432E+03  0.00000000000E+00 0. -1.
         21   -1    0    0  503  502 -0.00000000000E+00 -0.00000000000E+00 -0.45993566596E+03  0.45993566596E+03  0.00000000000E+00 0. -1.
         21    1    1    2  503  506  0.20312750835E+02 -0.24523536693E+02 -0.16841190245E+03  0.17139597599E+03  0.00000000000E+00 0.  1.
         21    1    1    2  504  502 -0.38468942439E+02  0.12931093841E+03  0.35376051748E+02  0.13947273340E+03  0.00000000000E+00 0. -1.
         21    1    1    2  505  501  0.32189961831E+02 -0.39874003797E+02 -0.86208697790E+02  0.10028992669E+03  0.00000000000E+00 0. -1.
         21    1    1    2  506  505 -0.14033770227E+02 -0.64913397925E+02 -0.13711545315E+03  0.15235269420E+03  0.00000000000E+00 0. -1.
<scales pt_clust_3="31.84355" pt_clust_4="129.67343" pt_clust_5="45.87833" pt_clust_6="45.87833"></scales>
<clustering>
<clus scale="   31.844">  2  3  1 -1</clus>
<clus scale="   45.878">  5  6 -1 -1</clus>
<clus scale="  129.673">  1  4  2 -1</clus>
<clus scale="  129.673">  1  3  2 -1</clus>
</clustering>
</event>
<event>
 6    0  0.2908518E+002  0.1585125E+03  0.7546771E-02  0.1190386E+00
         21   -1    0    0  503  501  0.00000000000E+00  0.00000000000E+00  0.28135647022E+04  0.28135647022E+04  0.00000000000E+00 0. -1.
         21   -1    0    0  504  502 -0.00000000000E+00 -0.00000000000E+00 -0.53673077671E+03  0.53673077671E+03  0.00000000000E+00 0. -1.
         21    1    1    2  503  505 -0.15766807686E+03 -0.26858788697E+02  0.27884331469E+04  0.27930162964E+04  0.00000000000E+00 0. -1.
         21    1    1    2  504  506  0.78212745993E+02 -0.78143924120E+01 -0.34185254731E+03  0.35077266494E+03  0.00000000000E+00 0. -1.
         21    1    1    2  505  502 -0.11549856785E+01  0.36928663157E+02 -0.54960475348E+02  0.66224723517E+02  0.00000000000E+00 0. -1.
         21    1    1    2  506  501  0.80610316548E+02 -0.22554820475E+01 -0.11478619875E+03  0.14028179410E+03  0.00000000000E+00 0. -1.
<scales pt_clust_3="158.51252" pt_clust_4="79.68218" pt_clust_5="36.94672" pt_clust_6="14000.00000"></scales>
<clustering>
<clus scale="   36.947">  2  5  1 -1</clus>
<clus scale="   79.682">  2  4  1 -1</clus>
<clus scale="  158.513">  1  3  2 -1</clus>
<clus scale="  158.513">  1  3  2 -1</clus>
</clustering>
</event>
<event>
 6    0  0.2908518E+002  0.1316785E+03  0.7546771E-02  0.1224986E+00
         21   -1    0    0  504  501  0.00000000000E+00  0.00000000000E+00  0.27641407188E+03  0.27641407188E+03  0.00000000000E+00 0.  1.
         21   -1    0    0  503  502 -0.00000000000E+00 -0.00000000000E+00 -0.35086585691E+03  0.35086585691E+03  0.00000000000E+00 0. -1.
         21    1    1    2  503  506  0.84498940167E+02 -0.48297952695E+02 -0.24450668641E+03  0.26316588461E+03  0.00000000000E+00 0. -1.
         21    1    1    2  504  505 -0.11834793244E+03  0.10767171648E+03  0.54833829176E+02  0.16913361719E+03  0.00000000000E+00 0.  1.
         21    1    1    2  505  502  0.41030799399E+02 -0.27983376687E+01 -0.21813152978E+02  0.46552882143E+02  0.00000000000E+00 0. -1.
         21    1    1    2  506  501 -0.71818071249E+01 -0.56575426116E+02  0.13703422519E+03  0.14842754484E+03  0.00000000000E+00 0.  1.
<scales pt_clust_3="131.67847" pt_clust_4="14000.00000" pt_clust_5="41.12611" pt_clust_6="56.99122"></scales>
<clustering>
<clus scale="   41.126">  2  5  1 -1</clus>
<clus scale="   56.991">  1  6  2 -1</clus>
<clus scale="  131.678">  2  3  1 -1</clus>
<clus scale="   56.991">  1  3  2 -1</clus>
</clustering>
</event>
<event>
 6    0  0.2908518E+002  0.1015763E+03  0.7546771E-02  0.1277016E+00
         21   -1    0    0  505  501  0.00000000000E+00  0.00000000000E+00  0.15446046663E+03  0.15446046663E+03  0.00000000000E+00 0. -1.
         21   -1    0    0  506  502 -0.00000000000E+00 -0.00000000000E+00 -0.91637980370E+03  0.91637980370E+03  0.00000000000E+00 0.  1.
         21    1    1    2  503  501  0.80811017185E+02  0.24711240196E+02 -0.37219670728E+02  0.92338344037E+02  0.00000000000E+00 0.  1.
         21    1    1    2  504  502 -0.47912540096E+02 -0.11926125230E+03 -0.48526958707E+03  0.50200142423E+03  0.00000000000E+00 0.  1.
         21    1    1    2  505  504 -0.70451882471E+01  0.54318799180E+02  0.11049327264E+03  0.12332449035E+03  0.00000000000E+00 0. -1.
         21    1    1    2  506  503 -0.25853288841E+02  0.40231212928E+02 -0.34992335191E+03  0.35317601172E+03  0.00000000000E+00 0. -1.
<scales pt_clust_3="101.57631" pt_clust_4="14000.00000" pt_clust_5="55.26521" pt_clust_6="47.82199"></scales>
<clustering>
<clus scale="   47.822">  2  6  1 -1</clus>
<clus scale="   55.265">  1  5  2 -1</clus>
<clus scale="  101.576">  1  3  2 -1</clus>
<clus scale="   55.265">  1  3  2 -1</clus>
</clustering>
</event>
<event>
 6    0  0.2908518E+002  0.2141686E+03  0.7546771E-02  0.1138307E+00
         21   -1    0    0  506  501  0.00000000000E+00  0.00000000000E+00  0.44886396321E+03  0.44886396321E+03  0.00000000000E+00 0.  1.
         21   -1    0    0  504  502 -0.00000000000E+00 -0.00000000000E+00 -0.11645951023E+04  0.11645951023E+04  0.00000000000E+00 0.  1.
         21    1    1    2  503  505 -0.61592707175E+02  0.11314064643E+03 -0.25377366945E+03  0.28459715873E+03  0.00000000000E+00 0.  1.
         21    1    1    2  504  501 -0.41754521285E+02  0.42786375730E+01 -0.13674437071E+03  0.14304114690E+03  0.00000000000E+00 0. -1.
         21    1    1    2  505  502 -0.24959528929E+02  0.65569638950E+02 -0.72468931728E+03  0.72807757981E+03  0.00000000000E+00 0.  1.
         21    1    1    2  506  503  0.12830675739E+03 -0.18298892295E+03  0.39947621833E+03  0.45774318009E+03  0.00000000000E+00 0.  1.
<scales pt_clust_3="14000.00000" pt_clust_4="41.97317" pt_clust_5="87.65225" pt_clust_6="214.16865"></scales>
<clustering>
<clus scale="   41.973">  2  4  1 -1</clus>
<clus scale="   87.652">  2  5  1 -1</clus>
<clus scale="  214.169">  1  6  2 -1</clus>
<clus scale="  214.169">  1  3  2 -1</clus>
</clustering>
</event>
<event>
 6    0  0.2908518E+002  0.1338868E+03  0.7546771E-02  0.1221800E+00
         21   -1    0    0  504  501  0.00000000000E+00  0.00000000000E+00  0.83177281556E+03  0.83177281556E+03  0.00000000000E+00 0.  1.
         21   -1    0    0  506  502 -0.00000000000E+00 -0.00000000000E+00 -0.21795414266E+03  0.21795414266E+03  0.00000000000E+00 0.  1.
         21    1    1    2  503  501  0.11088642022E+03  0.18968261157E+03  0.67592717109E+03  0.71074104422E+03  0.00000000000E+00 0.  1.
         21    1    1    2  504  505 -0.40680950296E+02 -0.73412640926E+02  0.91703533886E+02  0.12431369069E+03  0.00000000000E+00 0. -1.
         21    1    1    2  505  502 -0.18107303550E+02 -0.36152250880E+02 -0.94158310641E+01  0.41515269000E+02  0.00000000000E+00 0.  1.
         21    1    1    2  506  503 -0.52098166374E+02 -0.80117719759E+02 -0.14439620102E+03  0.17315695432E+03  0.00000000000E+00 0.  1.
<scales pt_clust_3="133.88680" pt_clust_4="87.35278" pt_clust_5="40.43340" pt_clust_6="14000.00000"></scales>
<clustering>
<clus scale="   40.433">  2  5  1 -1</clus>
<clus scale="   87.353">  1  4  2 -1</clus>
<clus scale="  133.887">  1  3  2 -1</clus>
<clus scale="   87.353">  1  3  2 -1</clus>
</clustering>
</event>
<event>
 6    0  0.2908518E+002  0.1971200E+03  0.7546771E-02  0.1152192E+00
         21   -1    0    0  504  501  0.00000000000E+00  0.00000000000E+00  0.94608635112E+03  0.94608635112E+03  0.00000000000E+00 0. -1.
         21   -1    0    0  506  502 -0.00000000000E+00 -0.00000000000E+00 -0.10527023316E+04  0.10527023316E+04  0.00000000000E+00 0. -1.
         21    1    1    2  503  501 -0.16115579770E+03 -0.11183129820E+03  0.90355936135E+03  0.92460637564E+03  0.00000000000E+00 0. -1.
         21    1    1    2  504  502  0.10048120910E+02 -0.40898045993E+02 -0.20271339155E+03  0.20704186537E+03  0.00000000000E+00 0.  1.
         21    1    1    2  505  503  0.20748436593E+03  0.15598354148E+03 -0.65553363142E+03  0.70505671350E+03  0.00000000000E+00 0. -1.
         21    1    1    2  506  505 -0.56376689144E+02 -0.32541972897E+01 -0.15192831884E+03  0.16208372819E+03  0.00000000000E+00 0. -1.
<scales pt_clust_3="14000.00000" pt_clust_4="42.11431" pt_clust_5="197.11997" pt_clust_6="55.58084"></scales>
<clustering>
<clus scale="   42.114">  2  4  1 -1</clus>
<clus scale="   55.581">  2  6  1 -1</clus>
<clus scale="  197.120">  2  5  1 -1</clus>
<clus scale="  197.120">  1  3  2 -1</clus>
</clustering>
</event>
<event>
 6    0  0.2908518E+002  0.1359353E+03  0.7546771E-02  0.1218905E+00
         21   -1    0    0  505  501  0.00000000000E+00  0.00000000000E+00  0.43861519562E+03  0.43861519562E+03  0.00000000000E+00 0.  1.
         21   -1    0    0  506  502 -0.00000000000E+00 -0.00000000000E+00 -0.27083551980E+03  0.27083551980E+03  0.00000000000E+00 0. -1.
         21    1    1    2  503  502 -0.37556907391E+02 -0.17011707298E+02  0.18860549580E+01  0.41273195676E+02  0.00000000000E+00 0.  1.
         21    1    1    2  504  501  0.14730118532E+03  0.13950047448E+03  0.38991106741E+02  0.20658733741E+03  0.00000000000E+00 0.  1.
         21    1    1    2  505  503 -0.54662068742E+02 -0.47398216393E+02  0.27626063268E+03  0.28557743232E+03  0.00000000000E+00 0.  1.
         21    1    1    2  506  504 -0.55082209183E+02 -0.75090550785E+02 -0.14935811857E+03  0.17601275002E+03  0.00000000000E+00 0. -1.
<scales pt_clust_3="41.23008" pt_clust_4="14000.00000" pt_clust_5="73.08344" pt_clust_6="135.93526"></scales>
<clustering>
<clus scale="   41.230">  2  3  1 -1</clus>
<clus scale="   73.083">  1  5  2 -1</clus>
<clus scale="  135.935">  2  6  1 -1</clus>
<clus scale="   73.083">  1  3  2 -1</clus>
</clustering>
</event>
<event>
 6    0  0.2908518E+002  0.1837278E+03  0.7546771E-02  0.1164243E+00
         21   -1    0    0  506  501  0.00000000000E+00  0.00000000000E+00  0.20457303700E+03  0.20457303700E+03  0.00000000000E+00 0. -1.
         21   -1    0    0  505  502 -0.00000000000E+00 -0.00000000000E+00 -0.42668067414E+03  0.42668067414E+03  0.00000000000E+00 0. -1.
         21    1    1    2  503  502  0.47570851598E+02  0.12793687690E+02 -0.34776425930E+02  0.60299785795E+02  0.00000000000E+00 0.  1.
         21    1    1    2  504  503  0.10516485255E+03 -0.18680988695E+02 -0.74916514915E+01  0.10707357467E+03  0.00000000000E+00 0. -1.
         21    1    1    2  505  501 -0.18569244921E+03 -0.14106772168E+01 -0.29239121897E+03  0.34637595274E+03  0.00000000000E+00 0. -1.
         21    1    1    2  506  504  0.32956745054E+02  0.72979782219E+01  0.11255165925E+03  0.11750439792E+03  0.00000000000E+00 0. -1.
<scales pt_clust_3="35.29038" pt_clust_4="35.29038" pt_clust_5="175.75977" pt_clust_6="33.75511"></scales>
<clustering>
<clus scale="   33.755">  1  6  2 -1</clus>
<clus scale="   35.290">  3  4 -1 -1</clus>
<clus scale="  175.760">  2  5  1 -1</clus>
<clus scale="   33.755">  1  3  2 -1</clus>
</clustering>
</event>
<event>
 6    0  0.2908518E+002  0.1148760E+03  0.7546771E-02  0.1251798E+00
         21   -1    0    0  503  501  0.00000000000E+00  0.00000000000E+00  0.27398005269E+03  0.27398005269E+03  0.00000000000E+00 0. -1.
         21   -1    0    0  506  502 -0.00000000000E+00 -0.00000000000E+00 -0.36210209172E+03  0.36210209172E+03  0.00000000000E+00 0.  1.
         21    1    1    2  503  505 -0.65468094613E+02  0.88431812845E+02  0.21238135630E+03  0.23919050449E+03  0.00000000000E+00 0. -1.
         21    1    1    2  504  501  0.58906979351E+02 -0.14554047978E+02 -0.10725818860E+02  0.61618955842E+02  0.00000000000E+00 0.  1.
         21    1    1    2  505  502 -0.53469580597E+02 -0.42587135871E+02 -0.24438838978E+03  0.25376829047E+03  0.00000000000E+00 0.  1.
         21    1    1    2  506  504  0.60030695859E+02 -0.31290628996E+02 -0.45389186698E+02  0.81504393608E+02  0.00000000000E+00 0.  1.
<scales pt_clust_3="110.04092" pt_clust_4="31.22106" pt_clust_5="68.35686" pt_clust_6="31.22106"></scales>
<clustering>
<clus scale="   31.221">  4  6 -1 -1</clus>
<clus scale="   68.357">  2  5  1 -1</clus>
<clus scale="  110.041">  1  3  2 -1</clus>
<clus scale="  110.041">  1  3  2 -1</clus>
</clustering>
</event>
<event>
 6    0  0.2908518E+002  0.2496388E+03  0.7546771E-02  0.1113533E+00
         21   -1    0    0  506  501  0.00000000000E+00  0.00000000000E+00  0.89202514299E+03  0.89202514299E+03  0.00000000000E+00 0.  1.
         21   -1    0    0  505  502 -0.00000000000E+00 -0.00000000000E+00 -0.93398072807E+02  0.93398072807E+02  0.00000000000E+00 0.  1.
         21    1    1    2  503  504  0.69862043507E+02 -0.31118445932E+02  0.84234947683E+02  0.11377429064E+03  0.00000000000E+00 0.  1.
         21    1    1    2  504  501  0.62784308656E+02 -0.13467074632E+03  0.16501919469E+03  0.22205723123E+03  0.00000000000E+00 0.  1.
         21    1    1    2  505  503  0.21136678081E+02 -0.37710250891E+02 -0.72349010578E+00  0.43235929740E+02  0.00000000000E+00 0.  1.
         21    1    1    2  506  502 -0.15378303024E+03  0.20349944314E+03  0.55009641792E+03  0.60635576419E+03  0.00000000000E+00 0.  1.
<scales pt_clust_3="53.08218" pt_clust_4="53.08218" pt_clust_5="43.22988" pt_clust_6="238.21309"></scales>
<clustering>
<clus scale="   43.230">  2  5  1 -1</clus>
<clus scale="   53.082">  3  4 -1 -1</clus>
<clus scale="  238.213">  1  6  2 -1</clus>
<clus scale="  238.213">  1  3  2 -1</clus>
</clustering>
</event>
<event>
 6    0  0.2908518E+002  0.1689539E+03  0.7546771E-02  0.1178943E+00
         21   -1    0    0  505  501  0.00000000000E+00  0.00000000000E+00  0.20360128493E+04  0.20360128493E+04  0.00000000000E+00 0. -1.
         21   -1    0    0  504  502 -0.00000000000E+00 -0.00000000000E+00 -0.60124707871E+02  0.60124707871E+02  0.00000000000E+00 0.  1.
         21    1    1    2  503  502  0.50251588023E+02  0.71963292995E+02  0.35060493190E+02  0.94515479263E+02  0.00000000000E+00 0.  1.
         21    1    1    2  504  506  0.37679718441E+02 -0.25884181246E+02  0.59241388664E+02  0.74828431438E+02  0.00000000000E+00 0.  1.
         21    1    1    2  505  503  0.61176426773E+02  0.21655109130E+02  0.36505820999E+02  0.74459209712E+02  0.00000000000E+00 0.  1.
         21    1    1    2  506  501 -0.14910773324E+03 -0.67734220879E+02  0.18450804386E+04  0.18523344368E+04  0.00000000000E+00 0. -1.
<scales pt_clust_3="40.78796" pt_clust_4="45.71381" pt_clust_5="40.78796" pt_clust_6="162.15829"></scales>
<clustering>
<clus scale="   40.788">  3  5 -1 -1</clus>
<clus scale="   45.714">  2  4  1 -1</clus>
<clus scale="  162.158">  1  6  2 -1</clus>
<clus scale="  162.158">  1  3  2 -1</clus>
</clustering>
</event>
<event>
 6    0  0.2908518E+002  0.1998677E+03  0.7546771E-02  0.1149851E+00
         21   -1    0    0  506  501  0.00000000000E+00  0.00000000000E+00  0.18557270775E+03  0.18557270775E+03  0.00000000000E+00 0. -1.
         21   -1    0    0  504  502 -0.00000000000E+00 -0.00000000000E+00 -0.52642127419E+03  0.52642127419E+03  0.00000000000E+00 0.  1.
         21    1    1    2  503  502  0.17490923041E+03 -0.96778776815E+02 -0.67938644082E+02  0.21112799408E+03  0.00000000000E+00 0. -1.
         21    1    1    2  504  505 -0.86613943103E+02 -0.15535868661E+02 -0.84496848643E+02  0.12199613021E+03  0.00000000000E+00 0.  1.
         21    1    1    2  505  501 -0.11563276460E+03 -0.22082287809E+02 -0.20930383501E+03  0.24013883283E+03  0.00000000000E+00 0.  1.
         21    1    1    2  506  503  0.27337477286E+02  0.13439693329E+03  0.20890761283E+02  0.13873102482E+03  0.00000000000E+00 0. -1.
<scales pt_clust_3="193.50207" pt_clust_4="43.26359" pt_clust_5="43.26359" pt_clust_6="137.14909"></scales>
<clustering>
<clus scale="   43.264">  4  5 -1 -1</clus>
<clus scale="  137.149">  1  6  2 -1</clus>
<clus scale="  193.502">  1  3  2 -1</clus>
<clus scale="  137.149">  1  3  2 -1</clus>
</clustering>
</event>
<event>
 6    0  0.2908518E+002  0.1064898E+03  0.7546771E-02  0.1267212E+00
         21   -1    0    0  506  501  0.00000000000E+00  0.00000000000E+00  0.18193438797E+03  0.18193438797E+03  0.00000000000E+00 0. -1.
         21   -1    0    0  503  502 -0.00000000000E+00 -0.00000000000E+00 -0.22921724788E+03  0.22921724788E+03  0.00000000000E+00 0.  1.
         21    1    1    2  503  505  0.23138952589E+02 -0.50398999176E+02 -0.26978348295E+02  0.61670913092E+02  0.00000000000E+00 0.  1.
         21    1    1    2  504  501  0.15856688353E+02  0.91070583985E+02  0.12045528360E+03  0.15183794381E+03  0.00000000000E+00 0. -1.
         21    1    1    2  505  504 -0.18456725661E+02 -0.81370620490E+02 -0.53282381075E+02  0.98999195624E+02  0.00000000000E+00 0.  1.
         21    1    1    2  506  502 -0.20538915280E+02  0.40699035681E+02 -0.87477414138E+02  0.98643583321E+02  0.00000000000E+00 0.  1.
<scales pt_clust_3="36.34955" pt_clust_4="96.70640" pt_clust_5="36.34955" pt_clust_6="45.58792"></scales>
<clustering>
<clus scale="   36.350">  3  5 -1 -1</clus>
<clus scale="   45.588">  2  6  1 -1</clus>
<clus scale="   96.706">  1  4  2 -1</clus>
<clus scale="   96.706">  1  3  2 -1</clus>
</clustering>
</event>
<event>
 6    0  0.2908518E+002  0.1348225E+03  0.7546771E-02  0.1220470E+00
         21   -1    0    0  502  501  0.00000000000E+00  0.00000000000E+00  0.58412047988E+03  0.58412047988E+03  0.00000000000E+00 0.  1.
         21   -1    0    0  503  502 -0.00000000000E+00 -0.00000000000E+00 -0.15421444989E+03  0.15421444989E+03  0.00000000000E+00 0.  1.
         21    1    1    2  503  506  0.21705553412E+02 -0.27288550834E+02 -0.11268020292E+02  0.36643748947E+02  0.00000000000E+00 0.  1.
         21    1    1    2  504  505  0.31336964098E+02  0.32822612387E+02 -0.66557956242E+01  0.45865333512E+02  0.00000000000E+00 0.  1.
         21    1    1    2  505  501 -0.11517883299E+03 -0.52972897033E+02  0.52849908008E+03  0.54349201378E+03  0.00000000000E+00 0.  1.
         21    1    1    2  506  504  0.62136315480E+02  0.47438835480E+02 -0.80669234175E+02  0.11233383353E+03  0.00000000000E+00 0.  1.
<scales pt_clust_3="34.86827" pt_clust_4="34.73453" pt_clust_5="126.31290" pt_clust_6="34.73453"></scales>
<clustering>
<clus scale="   34.868">  2  3  1 -1</clus>
<clus scale="   34.735">  4  6 -1 -1</clus>
<clus scale="  126.313">  1  5  2 -1</clus>
<clus scale="  126.313">  1  3  2 -1</clus>
</clustering>
</event>
<event>
 6    0  0.2908518E+002  0.2047425E+03  0.7546771E-02  0.1145798E+00
         21   -1    0    0  503  501  0.00000000000E+00  0.00000000000E+00  0.10720007495E+03  0.10720007495E+03  0.00000000000E+00 0. -1.
         21   -1    0    0  505  502 -0.00000000000E+00 -0.00000000000E+00 -0.14120474732E+04  0.14120474732E+04  0.00000000000E+00 0. -1.
         21    1    1    2  503  502 -0.12302872179E+03 -0.17051933736E+03 -0.98493417127E+03  0.10071287070E+04  0.00000000000E+00 0. -1.
         21    1    1    2  504  506  0.54362507946E+02  0.23408651996E+03 -0.20375183691E+03  0.31506601236E+03  0.00000000000E+00 0. -1.
         21    1    1    2  505  504  0.63300782771E+02 -0.12246103393E+02 -0.12870337782E+03  0.14394969819E+03  0.00000000000E+00 0. -1.
         21    1    1    2  506  501  0.53654310682E+01 -0.51321079208E+02  0.12541987736E+02  0.53103130585E+02  0.00000000000E+00 0. -1.
<scales pt_clust_3="204.74250" pt_clust_4="14000.00000" pt_clust_5="66.20708" pt_clust_6="51.60079"></scales>
<clustering>
<clus scale="   51.601">  1  6  2 -1</clus>
<clus scale="   66.207">  2  5  1 -1</clus>
<clus scale="  204.742">  2  3  1 -1</clus>
<clus scale="   51.601">  1  3  2 -1</clus>
</clustering>
</event>
<event>
 6    0  0.2908518E+002  0.1895676E+03  0.7546771E-02  0.1158852E+00
         21   -1    0    0  502  501  0.00000000000E+00  0.00000000000E+00  0.64358216193E+03  0.64358216193E+03  0.00000000000E+00 0. -1.
         21   -1    0    0  504  502 -0.00000000000E+00 -0.00000000000E+00 -0.51504475076E+03  0.51504475076E+03  0.00000000000E+00 0. -1.
         21    1    1    2  503  501  0.80995597805E+02  0.38921457293E+02  0.54472415873E+03  0.55208656550E+03  0.00000000000E+00 0. -1.
         21    1    1    2  504  506  0.35307463179E+02  0.68250340178E+01 -0.12379389114E+03  0.12891130877E+03  0.00000000000E+00 0. -1.
         21    1    1    2  505  503 -0.23092955450E+03 -0.85012775575E+02 -0.14062709789E+03  0.28342831865E+03  0.00000000000E+00 0. -1.
         21    1    1    2  506  505  0.11462649351E+03  0.39266284264E+02 -0.15176575853E+03  0.19420071976E+03  0.00000000000E+00 0. -1.
<scales pt_clust_3="89.86193" pt_clust_4="33.86307" pt_clust_5="179.08720" pt_clust_6="33.86307"></scales>
<clustering>
<clus scale="   33.863">  4  6 -1 -1</clus>
<clus scale="   89.862">  1  3  2 -1</clus>
<clus scale="  179.087">  1  5  2 -1</clus>
<clus scale="   89.862">  1  3  2 -1</clus>
</clustering>
</event>
<event>
 6    0  0.2908518E+002  0.1206239E+03  0.7546771E-02  0.1242071E+00
         21   -1    0    0  504  501  0.00000000000E+00  0.00000000000E+00  0.24160920790E+03  0.24160920790E+03  0.00000000000E+00 0.  1.
         21   -1    0    0  505  502 -0.00000000000E+00 -0.00000000000E+00 -0.19589468885E+03  0.19589468885E+03  0.00000000000E+00 0.  1.
         21    1    1    2  503  502 -0.35471489552E+02 -0.68320581932E+01 -0.51823556978E+02  0.63171074457E+02  0.00000000000E+00 0.  1.
         21    1    1    2  504  503 -0.10173694866E+03  0.74613926339E+02 -0.19806052785E+02  0.12771031459E+03  0.00000000000E+00 0.  1.
         21    1    1    2  505  506  0.10258757017E+03 -0.59398042174E+02 -0.55475522976E+01  0.11867228954E+03  0.00000000000E+00 0.  1.
         21    1    1    2  506  501  0.34620868045E+02 -0.83838259721E+01  0.12289168110E+03  0.12795021816E+03  0.00000000000E+00 0.  1.
<scales pt_clust_3="34.54831" pt_clust_4="120.62387" pt_clust_5="14000.00000" pt_clust_6="35.62152"></scales>
<clustering>
<clus scale="   35.622">  1  6  2 -1</clus>
<clus scale="   34.548">  2  3  1 -1</clus>
<clus scale="  120.624">  1  4  2 -1</clus>
<clus scale="   35.622">  1  3  2 -1</clus>
</clustering>
</event>
<event>
 6    0  0.2908518E+002  0.1431188E+03  0.7546771E-02  0.1209193E+00
         21   -1    0    0  503  501  0.00000000000E+00  0.00000000000E+00  0.54061163762E+03  0.54061163762E+03  0.00000000000E+00 0.  1.
         21   -1    0    0  506  502 -0.00000000000E+00 -0.00000000000E+00 -0.32844239170E+03  0.32844239170E+03  0.00000000000E+00 0.  1.
         21    1    1    2  503  502 -0.13053954367E+03 -0.13034457131E+03 -0.77111592023E+02  0.19994118474E+03  0.00000000000E+00 0.  1.
         21    1    1    2  504  505  0.38611315618E+02  0.14935204201E+03 -0.13916363582E+02  0.15488877081E+03  0.00000000000E+00 0.  1.
         21    1    1    2  505  501 -0.36843029864E+02 -0.60107987611E+02  0.36055769818E+03  0.36738567303E+03  0.00000000000E+00 0.  1.
         21    1    1    2  506  504  0.12877125792E+03  0.41100516912E+02 -0.57360496658E+02  0.14683840074E+03  0.00000000000E+00 0.  1.
<scales pt_clust_3="143.11878" pt_clust_4="14000.00000" pt_clust_5="70.50092" pt_clust_6="122.21066"></scales>
<clustering>
<clus scale="   70.501">  1  5  2 -1</clus>
<clus scale="  122.211">  2  6  1 -1</clus>
<clus scale="  143.119">  2  3  1 -1</clus>
<clus scale="   70.501">  1  3  2 -1</clus>
</clustering>
</event>
<event>
 6    0  0.2908518E+002  0.1205881E+03  0.7546771E-02  0.1242130E+00
         21   -1    0    0  506  501  0.00000000000E+00  0.00000000000E+00  0.14990923512E+03  0.14990923512E+03  0.00000000000E+00 0.  1.
         21   -1    0    0  505  502 -0.00000000000E+00 -0.00000000000E+00 -0.56195930907E+03  0.56195930907E+03  0.00000000000E+00 0.  1.
         21    1    1    2  503  504  0.51511217585E+02  0.49191553964E+01 -0.69021572083E+02  0.86264598995E+02  0.00000000000E+00 0.  1.
         21    1    1    2  504  501 -0.10841562855E+03  0.12322415246E+02  0.10765281363E+03  0.15328052294E+03  0.00000000000E+00 0.  1.
         21    1    1    2  505  503  0.70722828054E+02  0.39626782679E+02 -0.22432323908E+03  0.23852235934E+03  0.00000000000E+00 0.  1.
         21    1    1    2  506  502 -0.13818417092E+02 -0.56868353321E+02 -0.22635807642E+03  0.23380106292E+03  0.00000000000E+00 0.  1.
<scales pt_clust_3="40.02573" pt_clust_4="109.68865" pt_clust_5="40.02573" pt_clust_6="58.52314"></scales>
<clustering>
<clus scale="   40.026">  3  5 -1 -1</clus>
<clus scale="   58.523">  2  6  1 -1</clus>
<clus scale="  109.689">  1  4  2 -1</clus>
<clus scale="  109.689">  1  3  2 -1</clus>
</clustering>
</event>
<event>
 6    0  0.2908518E+002  0.7857265E+02  0.7546771E-02  0.1333152E+00
         21   -1    0    0  503  501  0.00000000000E+00  0.00000000000E+00  0.29485129780E+03  0.29485129780E+03  0.00000000000E+00 0. -1.
         21   -1    0    0  504  502 -0.00000000000E+00 -0.00000000000E+00 -0.41811709801E+03  0.41811709801E+03  0.00000000000E+00 0. -1.
         21    1    1    2  503  506 -0.40202146555E+02  0.69309349856E+02 -0.67149314123E+02  0.10454199612E+03  0.00000000000E+00 0. -1.
         21    1    1    2  504  505 -0.28112062673E+02 -0.49723695735E+02 -0.24607868850E+02  0.62195507833E+02  0.00000000000E+00 0. -1.
         21    1    1    2  505  501 -0.49556185683E+02 -0.49427791864E+02  0.23932813596E+03  0.24935292020E+03  0.00000000000E+00 0. -1.
         21    1    1    2  506  502  0.11787039491E+03  0.29842137744E+02 -0.27083675319E+03  0.29687797166E+03  0.00000000000E+00 0. -1.
<scales pt_clust_3="14000.00000" pt_clust_4="57.12035" pt_clust_5="70.72855" pt_clust_6="78.57265"></scales>
<clustering>
<clus scale="   57.120">  2  4  1 -1</clus>
<clus scale="   70.729">  1  5  2 -1</clus>
<clus scale="   78.573">  2  6  1 -1</clus>
<clus scale="   70.729">  1  3  2 -1</clus>
</clustering>
</event>
<event>
 6    0  0.2908518E+002  0.1261424E+03  0.7546771E-02  0.1233295E+00
         21   -1    0    0  506  501  0.00000000000E+00  0.00000000000E+00  0.69478329411E+03  0.69478329411E+03  0.00000000000E+00 0.  1.
         21   -1    0    0  504  502 -0.00000000000E+00 -0.00000000000E+00 -0.51134868353E+02  0.51134868353E+02  0.00000000000E+00 0.  1.
         21    1    1    2  503  502 -0.11197036129E+03 -0.11650261410E+02  0.12371954453E+03  0.16727108566E+03  0.00000000000E+00 0.  1.
         21    1    1    2  504  505  0.14383634932E+03  0.44364272830E+02  0.22110176624E+03  0.26747537293E+03  0.00000000000E+00 0.  1.
         21    1    1    2  505  501  0.15229579275E+02 -0.30760916520E+02  0.75673929227E+02  0.83094630601E+02  0.00000000000E+00 0.  1.
         21    1    1    2  506  503 -0.47095567302E+02 -0.19530949006E+01  0.22315318576E+03  0.22807707327E+03  0.00000000000E+00 0.  1.
<scales pt_clust_3="126.14245" pt_clust_4="14000.00000" pt_clust_5="34.32454" pt_clust_6="43.56956"></scales>
<clustering>
<clus scale="   34.325">  1  5  2 -1</clus>
<clus scale="   43.570">  1  6  2 -1</clus>
<clus scale="  126.142">  2  3  1 -1</clus>
<clus scale="   34.325">  1  3  2 -1</clus>
</clustering>
</event>
<event>
 6    0  0.2908518E+002  0.1128258E+03  0.7546771E-02  0.1255425E+00
         21   -1    0    0  504  501  0.00000000000E+00  0.00000000000E+00  0.12374866870E+04  0.12374866870E+04  0.00000000000E+00 0.  1.
         21   -1    0    0  503  502 -0.00000000000E+00 -0.00000000000E+00 -0.36384134771E+02  0.36384134771E+02  0.00000000000E+00 0. -1.
         21    1    1    2  503  501  0.95429250134E+02 -0.50860933175E+02  0.11198593396E+03  0.15567410096E+03  0.00000000000E+00 0. -1.
         21    1    1    2  504  505 -0.29573372970E+02 -0.24429992972E+02  0.89014864342E+03  0.89097475628E+03  0.00000000000E+00 0.  1.
         21    1    1    2  505  506 -0.15575701913E+02  0.50128323423E+02  0.11155167060E+03  0.12328514311E+03  0.00000000000E+00 0. -1.
         21    1    1    2  506  502 -0.50280175250E+02  0.25162602725E+02  0.87416304292E+02  0.10393682146E+03  0.00000000000E+00 0. -1.
<scales pt_clust_3="103.41092" pt_clust_4="38.35895" pt_clust_5="40.37413" pt_clust_6="40.37413"></scales>
<clustering>
<clus scale="   38.359">  1  4  2 -1</clus>
<clus scale="   40.374">  5  6 -1 -1</clus>
<clus scale="  103.411">  2  3  1 -1</clus>
<clus scale="   38.359">  1  3  2 -1</clus>
</clustering>
</event>
<event>
 6    0  0.2908518E+002  0.1897940E+03  0.7546771E-02  0.1158647E+00
         21   -1    0    0  505  501  0.00000000000E+00  0.00000000000E+00  0.28081632679E+04  0.28081632679E+04  0.00000000000E+00 0.  1.
         21   -1    0    0  503  502 -0.00000000000E+00 -0.00000000000E+00 -0.29090782310E+02  0.29090782310E+02  0.00000000000E+00 0. -1.
         21    1    1    2  503  506  0.46582884613E+02 -0.11919083319E+03  0.19418961232E+03  0.23256402428E+03  0.00000000000E+00 0. -1.
         21    1    1    2  504  501 -0.40150727185E+02 -0.16723331734E+01  0.12543152110E+04  0.12549587747E+04  0.00000000000E+00 0. -1.
         21    1    1    2  505  502 -0.15372402649E+02  0.17036852774E+03  0.11339500001E+04  0.11467799914E+04  0.00000000000E+00 0.  1.
         21    1    1    2  506  504  0.89402452206E+01 -0.49505361375E+02  0.19661766215E+03  0.20295125982E+03  0.00000000000E+00 0.  1.
<scales pt_clust_3="46.18429" pt_clust_4="40.18554" pt_clust_5="174.98496" pt_clust_6="46.18429"></scales>
<clustering>
<clus scale="   40.186">  1  4  2 -1</clus>
<clus scale="   46.184">  3  6 -1 -1</clus>
<clus scale="  174.985">  1  5  2 -1</clus>
<clus scale="   40.186">  1  3  2 -1</clus>
</clustering>
</event>
<event>
 6    0  0.2908518E+002  0.8509040E+02  0.7546771E-02  0.1315196E+00
         21   -1    0    0  506  501  0.00000000000E+00  0.00000000000E+00  0.24912209153E+03  0.24912209153E+03  0.00000000000E+00 0.  1.
         21   -1    0    0  503  502 -0.00000000000E+00 -0.00000000000E+00 -0.13332422532E+03  0.13332422532E+03  0.00000000000E+00 0.  1.
         21    1    1    2  503  504  0.30380176395E+02 -0.33873207082E+02 -0.22671988833E+02  0.50836683148E+02  0.00000000000E+00 0.  1.
         21    1    1    2  504  505 -0.65469575166E+02  0.92237476187E+02 -0.26886676030E+02  0.11626224939E+03  0.00000000000E+00 0.  1.
         21    1    1    2  505  501  0.84686718471E+01 -0.82433330805E+02  0.15843476739E+03  0.17879750543E+03  0.00000000000E+00 0.  1.
         21    1    1    2  506  502  0.26620726925E+02  0.24069061700E+02  0.69217636855E+01  0.36549878873E+02  0.00000000000E+00 0.  1.
<scales pt_clust_3="46.79923" pt_clust_4="85.09040" pt_clust_5="14000.00000" pt_clust_6="35.88848"></scales>
<clustering>
<clus scale="   35.888">  2  6  1 -1</clus>
<clus scale="   46.799">  2  3  1 -1</clus>
<clus scale="   85.090">  2  4  1 -1</clus>
<clus scale="   85.090">  1  3  2 -1</clus>
</clustering>
</event>
<event>
 6    0  0.2908518E+002  0.1285379E+03  0.7546771E-02  0.1229641E+00
         21   -1    0    0  503  501  0.00000000000E+00  0.00000000000E+00  0.60761174977E+03  0.60761174977E+03  0.00000000000E+00 0.  1.
         21   -1    0    0  506  502 -0.00000000000E+00 -0.00000000000E+00 -0.10538590382E+03  0.10538590382E+03  0.00000000000E+00 0. -1.
         21    1    1    2  503  502  0.13662191162E+03 -0.62909957826E+01  0.49781728470E+03  0.51626269700E+03  0.00000000000E+00 0.  1.
         21    1    1    2  504  501 -0.91586692880E+02 -0.48747552012E+02  0.22508557883E+02  0.10616534895E+03  0.00000000000E+00 0. -1.
         21    1    1    2  505  504 -0.17470866092E+02  0.34049797811E+02  0.16436235919E+02  0.41650567153E+02  0.00000000000E+00 0.  1.
         21    1    1    2  506  505 -0.27564352650E+02  0.20988749983E+02 -0.34536232560E+02  0.48919040488E+02  0.00000000000E+00 0. -1.
<scales pt_clust_3="14000.00000" pt_clust_4="128.53791" pt_clust_5="44.55911" pt_clust_6="34.64565"></scales>
<clustering>
<clus scale="   34.646">  2  6  1 -1</clus>
<clus scale="   44.559">  2  5  1 -1</clus>
<clus scale="  128.538">  2  4  1 -1</clus>
<clus scale="  128.538">  1  3  2 -1</clus>
</clustering>
</event>
<event>
 6    0  0.2908518E+002  0.7468935E+02  0.7546771E-02  0.1344836E+00
         21   -1    0    0  503  501  0.00000000000E+00  0.00000000000E+00  0.38637398172E+03  0.38637398172E+03  0.00000000000E+00 0.  1.
         21   -1    0    0  505  502 -0.00000000000E+00 -0.00000000000E+00 -0.43167459702E+03  0.43167459702E+03  0.00000000000E+00 0.  1.
         21    1    1    2  503  506 -0.36513948089E+01 -0.52357843516E+02  0.34904412546E+03  0.35296809768E+03  0.00000000000E+00 0.  1.
         21    1    1    2  504  501 -0.23477525189E+02  0.56501793470E+02 -0.41058626180E+02  0.73684853519E+02  0.00000000000E+00 0.  1.
         21    1    1    2  505  504  0.81939267765E+02  0.62255100772E+01 -0.31023019926E+03  0.32092924003E+03  0.00000000000E+00 0.  1.
         21    1    1    2  506  502 -0.54810347767E+02 -0.10369460031E+02 -0.43055915321E+02  0.70466387503E+02  0.00000000000E+00 0. -1.
<scales pt_clust_3="52.48501" pt_clust_4="40.98507" pt_clust_5="74.68935" pt_clust_6="14000.00000"></scales>
<clustering>
<clus scale="   52.485">  1  3  2 -1</clus>
<clus scale="   40.985">  1  4  2 -1</clus>
<clus scale="   74.689">  2  5  1 -1</clus>
<clus scale="   52.485">  1  3  2 -1</clus>
</clustering>
</event>
<event>
 6    0  0.2908518E+002  0.8014888E+02  0.7546771E-02  0.1328629E+00
         21   -1    0    0  505  501  0.00000000000E+00  0.00000000000E+00  0.20562229377E+04  0.20562229377E+04  0.00000000000E+00 0.  1.
         21   -1    0    0  504  502 -0.00000000000E+00 -0.00000000000E+00 -0.73856917426E+02  0.73856917426E+02  0.00000000000E+00 0. -1.
         21    1    1    2  503  501  0.72086796884E+02 -0.45498606898E+01  0.51359931237E+02  0.88628720254E+02  0.00000000000E+00 0. -1.
         21    1    1    2  504  506  0.28953057142E+02  0.90523523944E+01  0.75543125203E+02  0.81406316506E+02  0.00000000000E+00 0.  1.
         21    1    1    2  505  502 -0.16338017538E+02 -0.65490483476E+02  0.18544377824E+04  0.18556657628E+04  0.00000000000E+00 0.  1.
         21    1    1    2  506  503 -0.84701836488E+02  0.60987991771E+02  0.10251813859E+01  0.10437905557E+03  0.00000000000E+00 0. -1.
<scales pt_clust_3="80.14888" pt_clust_4="30.33520" pt_clust_5="67.36133" pt_clust_6="14000.00000"></scales>
<clustering>
<clus scale="   30.335">  2  4  1 -1</clus>
<clus scale="   67.361">  1  5  2 -1</clus>
<clus scale="   80.149">  1  3  2 -1</clus>
<clus scale="   67.361">  1  3  2 -1</clus>
</clustering>
</event>
<event>
 6    0  0.2908518E+002  0.3480568E+03  0.7546771E-02  0.1063415E+00
         21   -1    0    0  504  501  0.00000000000E+00  0.00000000000E+00  0.23491096993E+03  0.23491096993E+03  0.00000000000E+00 0.  1.
         21   -1    0    0  503  502 -0.00000000000E+00 -0.00000000000E+00 -0.71414963490E+03  0.71414963490E+03  0.00000000000E+00 0.  1.
         21    1    1    2  503  506  0.91177992415E+02  0.70160243293E+02 -0.17855912493E+03  0.21241291660E+03  0.00000000000E+00 0.  1.
         21    1    1    2  504  502  0.29323350401E+02 -0.24325229795E+02 -0.55063085443E+02  0.66959084983E+02  0.00000000000E+00 0.  1.
         21    1    1    2  505  501 -0.24838310489E+03 -0.23433091505E+03 -0.94954663468E+01  0.34160695020E+03  0.00000000000E+00 0.  1.
         21    1    1    2  506  505  0.12788176208E+03  0.18849590155E+03 -0.23612098825E+03  0.32808165305E+03  0.00000000000E+00 0.  1.
<scales pt_clust_3="52.45624" pt_clust_4="38.09955" pt_clust_5="340.38053" pt_clust_6="52.45624"></scales>
<clustering>
<clus scale="   38.100">  2  4  1 -1</clus>
<clus scale="   52.456">  3  6 -1 -1</clus>
<clus scale="  340.381">  1  5  2 -1</clus>
<clus scale="  340.381">  1  3  2 -1</clus>
</clustering>
</event>
<event>
 6    0  0.2908518E+002  0.2104394E+03  0.7546771E-02  0.1141219E+00
         21   -1    0    0  503  501  0.00000000000E+00  0.00000000000E+00  0.15874917841E+03  0.15874917841E+03  0.00000000000E+00 0. -1.
         21   -1    0    0  506  502 -0.00000000000E+00 -0.00000000000E+00 -0.13849727838E+04  0.13849727838E+04  0.00000000000E+00 0.  1.
         21    1    1    2  503  504 -0.35325559688E+02 -0.19094810818E+03  0.80947423656E+02  0.21038431639E+03  0.00000000000E+00 0. -1.
         21    1    1    2  504  502 -0.34715635193E+02  0.11860190642E+02 -0.74025096162E+02  0.82616912982E+02  0.00000000000E+00 0.  1.
         21    1    1    2  505  501  0.23299415350E+02  0.88022630275E+02 -0.34951590621E+03  0.36118169235E+03  0.00000000000E+00 0.  1.
         21    1    1    2  506  505  0.46741779531E+02  0.91065287268E+02 -0.88363002666E+03  0.88953904047E+03  0.00000000000E+00 0.  1.
<scales pt_clust_3="193.93174" pt_clust_4="36.68568" pt_clust_5="77.79836" pt_clust_6="77.79836"></scales>
<clustering>
<clus scale="   36.686">  2  4  1 -1</clus>
<clus scale="   77.798">  5  6 -1 -1</clus>
<clus scale="  193.932">  1  3  2 -1</clus>
<clus scale="  193.932">  1  3  2 -1</clus>
</clustering>
</event>
<event>
 6    0  0.2908518E+002  0.1894513E+03  0.7546771E-02  0.1158957E+00
         21   -1    0    0  505  501  0.00000000000E+00  0.00000000000E+00  0.12111733023E+04  0.12111733023E+04  0.00000000000E+00 0. -1.
         21   -1    0    0  501  502 -0.00000000000E+00 -0.00000000000E+00 -0.74149054739E+02  0.74149054739E+02  0.00000000000E+00 0.  1.
         21    1    1    2  503  504  0.71212313911E+02  0.15007813367E+02  0.14795690240E+02  0.74265338915E+02  0.00000000000E+00 0.  1.
         21    1    1    2  504  502  0.13062909580E+02  0.43316716187E+02  0.11396414060E+02  0.46656786873E+02  0.00000000000E+00 0. -1.
         21    1    1    2  505  506 -0.14481439360E+03 -0.91557463950E+02  0.10711190750E+04  0.10847350141E+04  0.00000000000E+00 0. -1.
         21    1    1    2  506  503  0.60539170109E+02  0.33232934396E+02  0.39713068252E+02  0.79665217228E+02  0.00000000000E+00 0.  1.
<scales pt_clust_3="40.70855" pt_clust_4="40.70855" pt_clust_5="171.33003" pt_clust_6="31.38159"></scales>
<clustering>
<clus scale="   31.382">  3  6 -1 -1</clus>
<clus scale="   40.709">  3  4 -1 -1</clus>
<clus scale="  171.330">  1  5  2 -1</clus>
<clus scale="  171.330">  1  3  2 -1</clus>
</clustering>
</event>
<event>
 6    0  0.2908518E+002  0.1378584E+03  0.7546771E-02  0.1216240E+00
         21   -1    0    0  505  501  0.00000000000E+00  0.00000000000E+00  0.68320972521E+03  0.68320972521E+03  0.00000000000E+00 0. -1.
         21   -1    0    0  506  502 -0.00000000000E+00 -0.00000000000E+00 -0.34996940874E+03  0.34996940874E+03  0.00000000000E+00 0.  1.
         21    1    1    2  503  502  0.38354310831E+02 -0.13845096231E+03 -0.25105833352E+03  0.28925768608E+03  0.00000000000E+00 0.  1.
         21    1    1    2  504  501 -0.14581348697E+02  0.60073116102E+02 -0.33421414516E+01  0.61907712908E+02  0.00000000000E+00 0.  1.
         21    1    1    2  505  503 -0.30423169599E+02  0.29817334062E+02  0.62116997872E+03  0.62262893053E+03  0.00000000000E+00 0. -1.
         21    1    1    2  506  504  0.66502074649E+01  0.48560512144E+02 -0.33529187280E+02  0.59384804442E+02  0.00000000000E+00 0.  1.
<scales pt_clust_3="132.35074" pt_clust_4="34.35072" pt_clust_5="42.59862" pt_clust_6="34.35072"></scales>
<clustering>
<clus scale="   34.351">  4  6 -1 -1</clus>
<clus scale="   42.599">  1  5  2 -1</clus>
<clus scale="  132.351">  2  3  1 -1</clus>
<clus scale="   42.599">  1  3  2 -1</clus>
</clustering>
</event>
<event>
 6    0  0.2908518E+002  0.1117518E+03  0.7546771E-02  0.1257360E+00
         21   -1    0    0  506  501  0.00000000000E+00  0.00000000000E+00  0.18054870463E+03  0.18054870463E+03  0.00000000000E+00 0.  1.
         21   -1    0    0  504  502 -0.00000000000E+00 -0.00000000000E+00 -0.17681010791E+03  0.17681010791E+03  0.00000000000E+00 0.  1.
         21    1    1    2  503  505  0.70023891491E+02 -0.96735324192E+01 -0.29254782868E+02  0.76503365479E+02  0.00000000000E+00 0.  1.
         21    1    1    2  504  503 -0.47768529716E+02 -0.79699585720E+02 -0.96431644153E+01  0.93417594783E+02  0.00000000000E+00 0.  1.
         21    1    1    2  505  501  0.61425362187E+02  0.30684303845E+02 -0.14736417700E+02  0.70226516565E+02  0.00000000000E+00 0.  1.
         21    1    1    2  506  502 -0.83680723962E+02  0.58688814294E+02  0.57372961700E+02  0.11721133572E+03  0.00000000000E+00 0.  1.
<scales pt_clust_3="42.66571" pt_clust_4="92.91855" pt_clust_5="42.66571" pt_clust_6="103.02618"></scales>
<clustering>
<clus scale="   42.666">  3  5 -1 -1</clus>
<clus scale="   92.919">  2  4  1 -1</clus>
<clus scale="  103.026">  1  6  2 -1</clus>
<clus scale="  103.026">  1  3  2 -1</clus>
</clustering>
</event>
<event>
 6    0  0.2908518E+002  0.1099579E+03  0.7546771E-02  0.1260648E+00
         21   -1    0    0  502  501  0.00000000000E+00  0.00000000000E+00  0.77050230771E+03  0.77050230771E+03  0.00000000000E+00 0.  1.
         21   -1    0    0  504  502 -0.00000000000E+00 -0.00000000000E+00 -0.87910035736E+02  0.87910035736E+02  0.00000000000E+00 0.  1.
         21    1    1    2  503  501  0.31822793003E+02 -0.62810883188E+02  0.59612900073E+03  0.60027300682E+03  0.00000000000E+00 0.  1.
         21    1    1    2  504  505  0.34840865653E+02  0.48964370788E+02 -0.22700374518E+02  0.64239415700E+02  0.00000000000E+00 0.  1.
         21    1    1    2  505  506 -0.47512436374E+01  0.60758335794E+02  0.12752302814E+01  0.60957164442E+02  0.00000000000E+00 0.  1.
         21    1    1    2  506  503 -0.61912415019E+02 -0.46911823394E+02  0.10788841549E+03  0.13294275649E+03  0.00000000000E+00 0.  1.
<scales pt_clust_3="70.41234" pt_clust_4="47.31869" pt_clust_5="47.31869" pt_clust_6="99.09615"></scales>
<clustering>
<clus scale="   47.319">  4  5 -1 -1</clus>
<clus scale="   70.412">  1  3  2 -1</clus>
<clus scale="   99.096">  1  6  2 -1</clus>
<clus scale="   70.412">  1  3  2 -1</clus>
</clustering>
</event>
<event>
 6    0  0.2908518E+002  0.1095689E+03  0.7546771E-02  0.1261370E+00
         21   -1    0    0  504  501  0.00000000000E+00  0.00000000000E+00  0.36567569033E+02  0.36567569033E+02  0.00000000000E+00 0. -1.
         21   -1    0    0  506  502 -0.00000000000E+00 -0.00000000000E+00 -0.18280386217E+04  0.18280386217E+04  0.00000000000E+00 0.  1.
         21    1    1    2  503  505 -0.32588788504E+02  0.20972166392E+02 -0.14920460797E+03  0.15415536299E+03  0.00000000000E+00 0. -1.
         21    1    1    2  504  502  0.87889349605E+02 -0.82058430024E+02 -0.86244857168E+02  0.14797398116E+03  0.00000000000E+00 0. -1.
         21    1    1    2  505  501 -0.36854096535E+02 -0.13001214138E+02 -0.17342078479E+03  0.17776958288E+03  0.00000000000E+00 0.  1.
         21    1    1    2  506  503 -0.18446464565E+02  0.74087477770E+02 -0.13826008028E+04  0.13847072637E+04  0.00000000000E+00 0.  1.
<scales pt_clust_3="34.51300" pt_clust_4="103.94313" pt_clust_5="34.51300" pt_clust_6="76.34937"></scales>
<clustering>
<clus scale="   34.513">  3  5 -1 -1</clus>
<clus scale="   76.349">  2  6  1 -1</clus>
<clus scale="  103.943">  1  4  2 -1</clus>
<clus scale="  103.943">  1  3  2 -1</clus>
</clustering>
</event>
<event>
 6    0  0.2908518E+002  0.2707878E+03  0.7546771E-02  0.1100830E+00
         21   -1    0    0  504  501  0.00000000000E+00  0.00000000000E+00  0.19953420628E+03  0.19953420628E+03  0.00000000000E+00 0.  1.
         21   -1    0    0  505  502 -0.00000000000E+00 -0.00000000000E+00 -0.47966533241E+03  0.47966533241E+03  0.00000000000E+00 0.  1.
         21    1    1    2  503  506 -0.10771301897E+03  0.11040132005E+03 -0.20370794434E+03  0.25551413369E+03  0.00000000000E+00 0.  1.
         21    1    1    2  504  502  0.18381963613E+03 -0.19524547795E+03 -0.37552863076E+01  0.26818754159E+03  0.00000000000E+00 0.  1.
         21    1    1    2  505  503 -0.88959870281E+02  0.57690567256E+02 -0.65444834263E+02  0.12459970466E+03  0.00000000000E+00 0. -1.
         21    1    1    2  506  501  0.12853253125E+02  0.27153590640E+02 -0.72230612167E+01  0.30898158746E+02  0.00000000000E+00 0. -1.
<scales pt_clust_3="59.17632" pt_clust_4="261.18544" pt_clust_5="59.17632" pt_clust_6="30.04203"></scales>
<clustering>
<clus scale="   30.042">  1  6  2 -1</clus>
<clus scale="   59.176">  3  5 -1 -1</clus>
<clus scale="  261.185">  1  4  2 -1</clus>
<clus scale="   30.042">  1  3  2 -1</clus>
</clustering>
</event>
<event>
 6    0  0.2908518E+002  0.1477834E+03  0.7546771E-02  0.1203223E+00
         21   -1    0    0  505  501  0.00000000000E+00  0.00000000000E+00  0.65927176262E+03  0.65927176262E+03  0.00000000000E+00 0. -1.
         21   -1    0    0  506  502 -0.00000000000E+00 -0.00000000000E+00 -0.68353032348E+03  0.68353032348E+03  0.00000000000E+00 0.  1.
         21    1    1    2  503  504 -0.31861170736E+02  0.41577924551E+02 -0.24993526924E+03  0.25536541822E+03  0.00000000000E+00 0.  1.
         21    1    1    2  504  502 -0.66926984469E+02 -0.46548842377E+01 -0.34007323417E+03  0.34662760103E+03  0.00000000000E+00 0.  1.
         21    1    1    2  505  503  0.11382404865E+03 -0.76382137865E+02  0.64047421952E+03  0.65497890875E+03  0.00000000000E+00 0. -1.
         21    1    1    2  506  501 -0.15035893445E+02  0.39459097551E+02 -0.74724276968E+02  0.85830158101E+02  0.00000000000E+00 0.  1.
<scales pt_clust_3="53.24596" pt_clust_4="53.24596" pt_clust_5="136.66303" pt_clust_6="42.22675"></scales>
<clustering>
<clus scale="   42.227">  2  6  1 -1</clus>
<clus scale="   53.246">  3  4 -1 -1</clus>
<clus scale="  136.663">  1  5  2 -1</clus>
<clus scale="  136.663">  1  3  2 -1</clus>
</clustering>
</event>
<event>
 6    0  0.2908518E+002  0.1123195E+03  0.7546771E-02  0.1256334E+00
         21   -1    0    0  504  501  0.00000000000E+00  0.00000000000E+00  0.13583131615E+03  0.13583131615E+03  0.00000000000E+00 0.  1.
         21   -1    0    0  505  502 -0.00000000000E+00 -0.00000000000E+00 -0.75090301755E+03  0.75090301755E+03  0.00000000000E+00 0.  1.
         21    1    1    2  503  506  0.36379542606E+02 -0.15156264988E+02 -0.48934854363E+02  0.62831548287E+02  0.00000000000E+00 0. -1.
         21    1    1    2  504  503 -0.10427376446E+02 -0.29357228512E+02  0.80692052631E+02  0.86497308647E+02  0.00000000000E+00 0.  1.
         21    1    1    2  505  501 -0.13219552227E+03  0.65362344558E+02 -0.95836716166E+02  0.17587657138E+03  0.00000000000E+00 0.  1.
         21    1    1    2  506  502  0.10624335611E+03 -0.20848851058E+02 -0.55099218350E+03  0.56152890539E+03  0.00000000000E+00 0.  1.
<scales pt_clust_3="39.84732" pt_clust_4="31.15409" pt_clust_5="14000.00000" pt_clust_6="112.31951"></scales>
<clustering>
<clus scale="   31.154">  1  4  2 -1</clus>
<clus scale="   39.847">  1  3  2 -1</clus>
<clus scale="  112.320">  2  6  1 -1</clus>
<clus scale="   31.154">  1  3  2 -1</clus>
</clustering>
</event>
<event>
 6    0  0.2908518E+002  0.7281953E+02  0.7546771E-02  0.1350759E+00
         21   -1    0    0  506  501  0.00000000000E+00  0.00000000000E+00  0.23747859161E+02  0.23747859161E+02  0.00000000000E+00 0.  1.
         21   -1    0    0  504  502 -0.00000000000E+00 -0.00000000000E+00 -0.17899807040E+04  0.17899807040E+04  0.00000000000E+00 0.  1.
         21    1    1    2  503  502 -0.51569449583E+02 -0.79737880159E+02 -0.46099812291E+03  0.47067696671E+03  0.00000000000E+00 0.  1.
         21    1    1    2  504  505  0.13264255808E+02  0.48923934750E+02 -0.10036769630E+04  0.10049561870E+04  0.00000000000E+00 0.  1.
         21    1    1    2  505  501 -0.31885443703E+02  0.52632457071E+01 -0.55270498230E+01  0.32786148832E+02  0.00000000000E+00 0.  1.
         21    1    1    2  506  503  0.70190637477E+02  0.25550699702E+02 -0.29603070913E+03  0.30530926057E+03  0.00000000000E+00 0.  1.
<scales pt_clust_3="14000.00000" pt_clust_4="50.52474" pt_clust_5="32.31692" pt_clust_6="72.81953"></scales>
<clustering>
<clus scale="   32.317">  1  5  2 -1</clus>
<clus scale="   50.525">  2  4  1 -1</clus>
<clus scale="   72.820">  1  6  2 -1</clus>
<clus scale="   32.317">  1  3  2 -1</clus>
</clustering>
</event>
<event>
 6    0  0.2908518E+002  0.1540355E+03  0.7546771E-02  0.1195600E+00
         21   -1    0    0  505  501  0.00000000000E+00  0.00000000000E+00  0.51097825507E+03  0.51097825507E+03  0.00000000000E+00 0.  1.
         21   -1    0    0  503  502 -0.00000000000E+00 -0.00000000000E+00 -0.33100475951E+03  0.33100475951E+03  0.00000000000E+00 0. -1.
         21    1    1    2  503  506 -0.20998737725E+02 -0.65349004615E+02 -0.13386873427E+03  0.15044027853E+03  0.00000000000E+00 0. -1.
         21    1    1    2  504  501  0.90618566960E+02  0.12157944964E+03  0.47444859679E+03  0.49809111441E+03  0.00000000000E+00 0.  1.
         21    1    1    2  505  502 -0.27400769759E+02 -0.12410106634E+02 -0.11145297882E+02  0.32078506744E+02  0.00000000000E+00 0. -1.
         21    1    1    2  506  504 -0.42219059477E+02 -0.43820338395E+02 -0.14946106909E+03  0.16137311490E+03  0.00000000000E+00 0. -1.
<scales pt_clust_3="31.48443" pt_clust_4="150.63057" pt_clust_5="30.08011" pt_clust_6="31.48443"></scales>
<clustering>
<clus scale="   30.080">  2  5  1 -1</clus>
<clus scale="   31.484">  3  6 -1 -1</clus>
<clus scale="  150.631">  1  4  2 -1</clus>
<clus scale="  150.631">  1  3  2 -1</clus>
</clustering>
</event>
<event>
 6    0  0.2908518E+002  0.1305515E+03  0.7546771E-02  0.1226640E+00
         21   -1    0    0  504  501  0.00000000000E+00  0.00000000000E+00  0.62038256184E+03  0.62038256184E+03  0.00000000000E+00 0.  1.
         21   -1    0    0  503  502 -0.00000000000E+00 -0.00000000000E+00 -0.36597781334E+03  0.36597781334E+03  0.00000000000E+00 0.  1.
         21    1    1    2  503  506  0.69882279956E+02 -0.90752351409E+02 -0.15696033369E+03  0.19430920897E+03  0.00000000000E+00 0.  1.
         21    1    1    2  504  505  0.30699357958E+01  0.13569359900E+03 -0.12062074697E+03  0.18158067605E+03  0.00000000000E+00 0.  1.
         21    1    1    2  505  502 -0.42275205483E+01  0.52442387740E+02 -0.11679149029E+02  0.53893213710E+02  0.00000000000E+00 0. -1.
         21    1    1    2  506  501 -0.68724695204E+02 -0.97383635330E+02  0.54366497819E+03  0.55657727646E+03  0.00000000000E+00 0.  1.
<scales pt_clust_3="114.54048" pt_clust_4="31.42868" pt_clust_5="31.42868" pt_clust_6="120.39719"></scales>
<clustering>
<clus scale="   31.429">  4  5 -1 -1</clus>
<clus scale="  114.540">  2  3  1 -1</clus>
<clus scale="  120.397">  1  6  2 -1</clus>
<clus scale="  120.397">  1  3  2 -1</clus>
</clustering>
</event>
<event>
 6    0  0.2908518E+002  0.9587418E+02  0.7546771E-02  0.1289219E+00
         21   -1    0    0  503  501  0.00000000000E+00  0.00000000000E+00  0.21579484990E+04  0.21579484990E+04  0.00000000000E+00 0.  1.
         21   -1    0    0  505  502 -0.00000000000E+00 -0.00000000000E+00 -0.28261248753E+03  0.28261248753E+03  0.00000000000E+00 0. -1.
         21    1    1    2  503  506 -0.47636917114E+02  0.83322237985E+02  0.19197790178E+04  0.19221767214E+04  0.00000000000E+00 0.  1.
         21    1    1    2  504  502 -0.39960603319E+02 -0.85604634197E+02 -0.18780871220E+03  0.21023110044E+03  0.00000000000E+00 0. -1.
         21    1    1    2  505  501 -0.11781450006E+02 -0.11335084988E+03  0.94494208107E+02  0.14804179511E+03  0.00000000000E+00 0.  1.
         21    1    1    2  506  504  0.99378970439E+02  0.11563324609E+03  0.48871497781E+02  0.16011136956E+03  0.00000000000E+00 0.  1.
<scales pt_clust_3="14000.00000" pt_clust_4="94.47224" pt_clust_5="95.87418" pt_clust_6="93.49410"></scales>
<clustering>
<clus scale="   94.472">  2  4  1 -1</clus>
<clus scale="   93.494">  2  6  1 -1</clus>
<clus scale="   95.874">  2  5  1 -1</clus>
<clus scale="   95.874">  1  3  2 -1</clus>
</clustering>
</event>
<event>
 6    0  0.2908518E+002  0.1446019E+03  0.7546771E-02  0.1207268E+00
         21   -1    0    0  503  501  0.00000000000E+00  0.00000000000E+00  0.41394893267E+02  0.41394893267E+02  0.00000000000E+00 0.  1.
         21   -1    0    0  505  502 -0.00000000000E+00 -0.00000000000E+00 -0.11466853959E+04  0.11466853959E+04  0.00000000000E+00 0.  1.
         21    1    1    2  503  504  0.68448782286E+02 -0.22076247029E+02 -0.19138127762E+03  0.20444899096E+03  0.00000000000E+00 0. -1.
         21    1    1    2  504  502  0.37926931801E+02 -0.24332982045E+02 -0.22668984772E+03  0.23112514625E+03  0.00000000000E+00 0. -1.
         21    1    1    2  505  506  0.10540466012E+02 -0.48559810218E+02 -0.53865063924E+03  0.54093776698E+03  0.00000000000E+00 0.  1.
         21    1    1    2  506  501 -0.11691618010E+03  0.94969039292E+02 -0.14856873803E+03  0.21156838496E+03  0.00000000000E+00 0.  1.
<scales pt_clust_3="30.36643" pt_clust_4="30.36643" pt_clust_5="49.69061" pt_clust_6="139.42008"></scales>
<clustering>
<clus scale="   30.366">  3  4 -1 -1</clus>
<clus scale="   49.691">  2  5  1 -1</clus>
<clus scale="  139.420">  1  6  2 -1</clus>
<clus scale="  139.420">  1  3  2 -1</clus>
</clustering>
</event>
<event>
 6    0  0.2908518E+002  0.2103003E+03  0.7546771E-02  0.1141328E+00
         21   -1    0    0  504  501  0.00000000000E+00  0.00000000000E+00  0.50196028949E+03  0.50196028949E+03  0.00000000000E+00 0.  1.
         21   -1    0    0  503  502 -0.00000000000E+00 -0.00000000000E+00 -0.96480252043E+03  0.96480252043E+03  0.00000000000E+00 0.  1.
         21    1    1    2  503  505 -0.15244003014E+03 -0.10354771946E+03 -0.23413565217E+03  0.29795905191E+03  0.00000000000E+00 0.  1.
         21    1    1    2  504  506  0.11582895475E+03  0.11775831668E+03 -0.43227400960E+03  0.46275715800E+03  0.00000000000E+00 0.  1.
         21    1    1    2  505  501  0.58409517256E+00 -0.37420664554E+02  0.45220075721E+03  0.45374681501E+03  0.00000000000E+00 0.  1.
         21    1    1    2  506  502  0.36026980214E+02  0.23210067339E+02 -0.24863332638E+03  0.25229978501E+03  0.00000000000E+00 0.  1.
<scales pt_clust_3="198.71311" pt_clust_4="35.06632" pt_clust_5="37.42522" pt_clust_6="35.06632"></scales>
<clustering>
<clus scale="   35.066">  4  6 -1 -1</clus>
<clus scale="   37.425">  1  5  2 -1</clus>
<clus scale="  198.713">  1  3  2 -1</clus>
<clus scale="   37.425">  1  3  2 -1</clus>
</clustering>
</event>
<event>
 6    0  0.2908518E+002  0.1595421E+03  0.7546771E-02  0.1189215E+00
         21   -1    0    0  505  501  0.00000000000E+00  0.00000000000E+00  0.78707514370E+03  0.78707514370E+03  0.00000000000E+00 0. -1.
         21   -1    0    0  506  502 -0.00000000000E+00 -0.00000000000E+00 -0.21849494997E+03  0.21849494997E+03  0.00000000000E+00 0. -1.
         21    1    1    2  503  502 -0.38486329373E+02 -0.12023896903E+02 -0.32200950129E+02  0.51601093346E+02  0.00000000000E+00 0.  1.
         21    1    1    2  504  503 -0.50163720731E+02  0.13153800800E+03  0.88993987695E+01  0.14105972397E+03  0.00000000000E+00 0. -1.
         21    1    1    2  505  504  0.24212516846E+02 -0.16088129604E+03  0.67824679600E+03  0.69748674086E+03  0.00000000000E+00 0. -1.
         21    1    1    2  506  501  0.64437533258E+02  0.41367184941E+02 -0.86365050915E+02  0.11542253550E+03  0.00000000000E+00 0. -1.
<scales pt_clust_3="40.32086" pt_clust_4="159.54211" pt_clust_5="14000.00000" pt_clust_6="54.69920"></scales>
<clustering>
<clus scale="   40.321">  2  3  1 -1</clus>
<clus scale="   54.699">  2  6  1 -1</clus>
<clus scale="  159.542">  2  4  1 -1</clus>
<clus scale="  159.542">  1  3  2 -1</clus>
</clustering>
</event>
<event>
 6    0  0.2908518E+002  0.1681941E+03  0.7546771E-02  0.1179744E+00
         21   -1    0    0  502  501  0.00000000000E+00  0.00000000000E+00  0.33174769814E+03  0.33174769814E+03  0.00000000000E+00 0. -1.
         21   -1    0    0  504  502 -0.00000000000E+00 -0.00000000000E+00 -0.99699308296E+03  0.99699308296E+03  0.00000000000E+00 0. -1.
         21    1    1    2  503  505 -0.12015562395E+03 -0.74958284206E+02 -0.59666032696E+02  0.15367548209E+03  0.00000000000E+00 0.  1.
         21    1    1    2  504  503  0.10646482365E+03  0.27230715791E+02 -0.61649568359E+03  0.62621338091E+03  0.00000000000E+00 0. -1.
         21    1    1    2  505  506  0.59092915317E+02 -0.11886564929E+03 -0.22215212763E+03  0.25879061620E+03  0.00000000000E+00 0. -1.
         21    1    1    2  506  501 -0.45402115018E+02  0.16659321771E+03  0.23306845909E+03  0.29006130189E+03  0.00000000000E+00 0. -1.
<scales pt_clust_3="112.27354" pt_clust_4="109.89209" pt_clust_5="168.19407" pt_clust_6="14000.00000"></scales>
<clustering>
<clus scale="  109.892">  2  4  1 -1</clus>
<clus scale="  112.274">  2  3  1 -1</clus>
<clus scale="  168.194">  2  5  1 -1</clus>
<clus scale="  168.194">  1  3  2 -1</clus>
</clustering>
</event>
<event>
 6    0  0.2908518E+002  0.1433731E+03  0.7546771E-02  0.1208861E+00
         21   -1    0    0  506  501  0.00000000000E+00  0.00000000000E+00  0.10544077318E+03  0.10544077318E+03  0.00000000000E+00 0.  1.
         21   -1    0    0  503  502 -0.00000000000E+00 -0.00000000000E+00 -0.15066870203E+04  0.15066870203E+04  0.00000000000E+00 0.  1.
         21    1    1    2  503  505  0.29995605314E+02  0.10031954888E+03 -0.80769024320E+03  0.81444906359E+03  0.00000000000E+00 0.  1.
         21    1    1    2  504  501 -0.35719322625E+02 -0.10011183633E+03 -0.38400139579E+03  0.39844111453E+03  0.00000000000E+00 0. -1.
         21    1    1    2  505  504  0.41446040388E+01  0.61317191918E+02 -0.29085060534E+03  0.29727268693E+03  0.00000000000E+00 0.  1.
         21    1    1    2  506  502  0.15791132719E+01 -0.61524904462E+02  0.81295997205E+02  0.10196492843E+03  0.00000000000E+00 0.  1.
<scales pt_clust_3="32.87414" pt_clust_4="136.80129" pt_clust_5="32.87414" pt_clust_6="61.54517"></scales>
<clustering>
<clus scale="   32.874">  3  5 -1 -1</clus>
<clus scale="   61.545">  1  6  2 -1</clus>
<clus scale="  136.801">  1  4  2 -1</clus>
<clus scale="   61.545">  1  3  2 -1</clus>
</clustering>
</event>
<event>
 6    0  0.2908518E+002  0.1085189E+03  0.7546771E-02  0.1263337E+00
         21   -1    0    0  506  501  0.00000000000E+00  0.00000000000E+00  0.11596127053E+04  0.11596127053E+04  0.00000000000E+00 0. -1.
         21   -1    0    0  503  502 -0.00000000000E+00 -0.00000000000E+00 -0.10815560127E+03  0.10815560127E+03  0.00000000000E+00 0. -1.
         21    1    1    2  503  505 -0.36134682952E+02  0.10815980664E+02 -0.60330530998E+02  0.71151062678E+02  0.00000000000E+00 0. -1.
         21    1    1    2  504  501 -0.49447115116E+02 -0.90808752840E+02  0.76423659931E+03  0.77119960225E+03  0.00000000000E+00 0. -1.
         21    1    1    2  505  504 -0.37417260991E+02  0.57484511558E+01 -0.10777255538E+02  0.39360454109E+02  0.00000000000E+00 0. -1.
         21    1    1    2  506  502  0.12299905906E+03  0.74244321020E+02  0.35832829129E+03  0.38605718757E+03  0.00000000000E+00 0. -1.
<scales pt_clust_3="37.71871" pt_clust_4="14000.00000" pt_clust_5="60.01522" pt_clust_6="108.51892"></scales>
<clustering>
<clus scale="   37.719">  2  3  1 -1</clus>
<clus scale="   60.015">  2  5  1 -1</clus>
<clus scale="  108.519">  2  6  1 -1</clus>
<clus scale="  108.519">  1  3  2 -1</clus>
</clustering>
</event>
<event>
 6    0  0.2908518E+002  0.1333949E+03  0.7546771E-02  0.1222503E+00
         21   -1    0    0  505  501  0.00000000000E+00  0.00000000000E+00  0.99701942281E+03  0.99701942281E+03  0.00000000000E+00 0. -1.
         21   -1    0    0  504  502 -0.00000000000E+00 -0.00000000000E+00 -0.19926945812E+03  0.19926945812E+03  0.00000000000E+00 0.  1.
         21    1    1    2  503  502  0.54298468822E+02 -0.32979704943E+02 -0.75159522343E+02  0.98412084895E+02  0.00000000000E+00 0.  1.
         21    1    1    2  504  501 -0.20026180488E+01 -0.33049311421E+02  0.23626731016E+02  0.40675421115E+02  0.00000000000E+00 0. -1.
         21    1    1    2  505  506 -0.31289186375E+02  0.13342398378E+03  0.93566226173E+03  0.94564519809E+03  0.00000000000E+00 0. -1.
         21    1    1    2  506  503 -0.21006664398E+02 -0.67394967420E+02 -0.86379505718E+02  0.11155617684E+03  0.00000000000E+00 0.  1.
<scales pt_clust_3="71.80388" pt_clust_4="33.10993" pt_clust_5="133.39495" pt_clust_6="14000.00000"></scales>
<clustering>
<clus scale="   33.110">  2  4  1 -1</clus>
<clus scale="   71.804">  2  3  1 -1</clus>
<clus scale="  133.395">  1  5  2 -1</clus>
<clus scale="  133.395">  1  3  2 -1</clus>
</clustering>
</event>
<event>
 6    0  0.2908518E+002  0.6056899E+02  0.7546771E-02  0.1395459E+00
         21   -1    0    0  505  501  0.00000000000E+00  0.00000000000E+00  0.34818760464E+03  0.34818760464E+03  0.00000000000E+00 0.  1.
         21   -1    0    0  506  502 -0.00000000000E+00 -0.00000000000E+00 -0.12157210332E+03  0.12157210332E+03  0.00000000000E+00 0.  1.
         21    1    1    2  503  502  0.61869561088E+02  0.11282022986E+02 -0.31712558386E+02  0.70433039061E+02  0.00000000000E+00 0.  1.
         21    1    1    2  504  501 -0.88776589080E+02 -0.65006547537E+02  0.44001800165E+01  0.11012036858E+03  0.00000000000E+00 0.  1.
         21    1    1    2  505  503  0.50619080927E+02  0.27328682235E+02  0.24627997305E+03  0.25290902189E+03  0.00000000000E+00 0.  1.
         21    1    1    2  506  504 -0.23712052935E+02  0.26395842316E+02  0.76479066401E+01  0.36297278437E+02  0.00000000000E+00 0.  1.
<scales pt_clust_3="55.91967" pt_clust_4="60.56899" pt_clust_5="14000.00000" pt_clust_6="35.48242"></scales>
<clustering>
<clus scale="   35.482">  2  6  1 -1</clus>
<clus scale="   55.920">  2  3  1 -1</clus>
<clus scale="   60.569">  2  4  1 -1</clus>
<clus scale="   60.569">  1  3  2 -1</clus>
</clustering>
</event>
<event>
 6    0  0.2908518E+002  0.8673977E+02  0.7546771E-02  0.1310945E+00
         21   -1    0    0  504  501  0.00000000000E+00  0.00000000000E+00  0.11921465043E+04  0.11921465043E+04  0.00000000000E+00 0. -1.
         21   -1    0    0  505  502 -0.00000000000E+00 -0.00000000000E+00 -0.34653499741E+03  0.34653499741E+03  0.00000000000E+00 0. -1.
         21    1    1    2  503  501  0.37876727880E+02  0.46023485709E+02  0.11430090360E+04  0.11445621277E+04  0.00000000000E+00 0. -1.
         21    1    1    2  504  502  0.55499126581E+02  0.49843255387E+02 -0.75195234526E+02  0.10591896173E+03  0.00000000000E+00 0.  1.
         21    1    1    2  505  506 -0.29243624616E+02 -0.34806845277E+02  0.36518158084E+01  0.45607475456E+02  0.00000000000E+00 0. -1.
         21    1    1    2  506  503 -0.64132229845E+02 -0.61059895820E+02 -0.22585411043E+03  0.24259293679E+03  0.00000000000E+00 0. -1.
<scales pt_clust_3="59.49700" pt_clust_4="86.73977" pt_clust_5="45.46104" pt_clust_6="14000.00000"></scales>
<clustering>
<clus scale="   45.461">  2  5  1 -1</clus>
<clus scale="   59.497">  1  3  2 -1</clus>
<clus scale="   86.740">  1  4  2 -1</clus>
<clus scale="   59.497">  1  3  2 -1</clus>
</clustering>
</event>
<event>
 6    0  0.2908518E+002  0.3017849E+03  0.7546771E-02  0.1084352E+00
         21   -1    0    0  505  501  0.00000000000E+00  0.00000000000E+00  0.11012070062E+03  0.11012070062E+03  0.00000000000E+00 0. -1.
         21   -1    0    0  506  502 -0.00000000000E+00 -0.00000000000E+00 -0.13790220757E+04  0.13790220757E+04  0.00000000000E+00 0.  1.
         21    1    1    2  503  504 -0.14802782301E+03  0.80442291959E+02 -0.55715976329E+02  0.17744708716E+03  0.00000000000E+00 0. -1.
         21    1    1    2  504  502  0.26519159631E+03 -0.14470602097E+03 -0.89465755918E+03  0.94428733098E+03  0.00000000000E+00 0.  1.
         21    1    1    2  505  503 -0.11314477750E+03  0.22443282412E+02 -0.12801233488E+03  0.17231540698E+03  0.00000000000E+00 0. -1.
         21    1    1    2  506  501 -0.40189957987E+01  0.41820446595E+02 -0.19051550472E+03  0.19509295123E+03  0.00000000000E+00 0.  1.
<scales pt_clust_3="81.84690" pt_clust_4="285.11928" pt_clust_5="81.84690" pt_clust_6="42.01312"></scales>
<clustering>
<clus scale="   42.013">  2  6  1 -1</clus>
<clus scale="   81.847">  3  5 -1 -1</clus>
<clus scale="  285.119">  2  4  1 -1</clus>
<clus scale="  301.785">  1  3  2 -1</clus>
</clustering>
</event>
<event>
 6    0  0.2908518E+002  0.3148756E+03  0.7546771E-02  0.1078032E+00
         21   -1    0    0  503  501  0.00000000000E+00  0.00000000000E+00  0.17553731079E+03  0.17553731079E+03  0.00000000000E+00 0.  1.
         21   -1    0    0  506  502 -0.00000000000E+00 -0.00000000000E+00 -0.13839803782E+04  0.13839803782E+04  0.00000000000E+00 0.  1.
         21    1    1    2  503  502  0.26934100770E+03  0.13459624879E+03 -0.56673569644E+03  0.64175546608E+03  0.00000000000E+00 0.  1.
         21    1    1    2  504  501  0.32496554890E+02 -0.86362744726E+02  0.83834732912E+02  0.12467081534E+03  0.00000000000E+00 0.  1.
         21    1    1    2  505  504 -0.80370814866E+02 -0.27990458190E+02 -0.31371811077E+03  0.32505689757E+03  0.00000000000E+00 0.  1.
         21    1    1    2  506  505 -0.22146674772E+03 -0.20243045872E+02 -0.41182399314E+03  0.46803451003E+03  0.00000000000E+00 0.  1.
<scales pt_clust_3="299.99397" pt_clust_4="92.27432" pt_clust_5="59.17490" pt_clust_6="59.17490"></scales>
<clustering>
<clus scale="   59.175">  5  6 -1 -1</clus>
<clus scale="   92.274">  1  4  2 -1</clus>
<clus scale="  299.994">  1  3  2 -1</clus>
<clus scale="   92.274">  1  3  2 -1</clus>
</clustering>
</event>
<event>
 6    0  0.2908518E+002  0.9461829E+02  0.7546771E-02  0.1292038E+00
         21   -1    0    0  506  501  0.00000000000E+00  0.00000000000E+00  0.18871630247E+04  0.18871630247E+04  0.00000000000E+00 0. -1.
         21   -1    0    0  503  502 -0.00000000000E+00 -0.00000000000E+00 -0.11930435876E+03  0.11930435876E+03  0.00000000000E+00 0.  1.
         21    1    1    2  503  504  0.65029940403E+02 -0.30055526259E+02  0.22145889452E+02  0.74984453236E+02  0.00000000000E+00 0.  1.
         21    1    1    2  504  505 -0.47440763539E+02  0.15094861706E+03  0.14859868855E+03  0.21706607583E+03  0.00000000000E+00 0.  1.
         21    1    1    2  505  501  0.23097973942E+02 -0.89283420886E+02  0.16429019364E+04  0.16454883222E+04  0.00000000000E+00 0. -1.
         21    1    1    2  506  502 -0.40687150807E+02 -0.31609669911E+02 -0.45787848549E+02  0.68928532173E+02  0.00000000000E+00 0.  1.
<scales pt_clust_3="64.56448" pt_clust_4="14000.00000" pt_clust_5="94.61829" pt_clust_6="51.52296"></scales>
<clustering>
<clus scale="   51.523">  2  6  1 -1</clus>
<clus scale="   64.564">  2  3  1 -1</clus>
<clus scale="   94.618">  1  5  2 -1</clus>
<clus scale="   94.618">  1  3  2 -1</clus>
</clustering>
</event>
<event>
 6    0  0.2908518E+002  0.8152119E+02  0.7546771E-02  0.1324789E+00
         21   -1    0    0  506  501  0.00000000000E+00  0.00000000000E+00  0.99188743051E+03  0.99188743051E+03  0.00000000000E+00 0.  1.
         21   -1    0    0  504  502 -0.00000000000E+00 -0.00000000000E+00 -0.11343837052E+04  0.11343837052E+04  0.00000000000E+00 0.  1.
         21    1    1    2  503  502 -0.10107252488E+01 -0.45137262552E+02 -0.29455983044E+03  0.29799981165E+03  0.00000000000E+00 0.  1.
         21    1    1    2  504  505 -0.78120169808E+02 -0.35416338819E+02 -0.47609791756E+03  0.48376265367E+03  0.00000000000E+00 0.  1.
         21    1    1    2  505  501  0.12485567370E+01  0.70389799466E+02  0.98075223887E+03  0.98327576844E+03  0.00000000000E+00 0.  1.
         21    1    1    2  506  503  0.77882338319E+02  0.10163801905E+02 -0.35259076560E+03  0.36123290199E+03  0.00000000000E+00 0.  1.
<scales pt_clust_3="45.14858" pt_clust_4="81.52119" pt_clust_5="70.33290" pt_clust_6="14000.00000"></scales>
<clustering>
<clus scale="   45.149">  2  3  1 -1</clus>
<clus scale="   70.333">  1  5  2 -1</clus>
<clus scale="   81.521">  1  4  2 -1</clus>
<clus scale="   70.333">  1  3  2 -1</clus>
</clustering>
</event>
<event>
 6    0  0.2908518E+002  0.1058911E+03  0.7546771E-02  0.1268374E+00
         21   -1    0    0  506  501  0.00000000000E+00  0.00000000000E+00  0.19291138178E+03  0.19291138178E+03  0.00000000000E+00 0. -1.
         21   -1    0    0  505  502 -0.00000000000E+00 -0.00000000000E+00 -0.67789362261E+03  0.67789362261E+03  0.00000000000E+00 0. -1.
         21    1    1    2  503  501 -0.76384561746E+02 -0.10483972150E+03 -0.28477252052E+03  0.31292388360E+03  0.00000000000E+00 0. -1.
         21    1    1    2  504  502  0.16842259879E+00  0.40440028356E+02 -0.80143243117E+02  0.89768389074E+02  0.00000000000E+00 0. -1.
         21    1    1    2  505  503 -0.20428824666E+02  0.22076503395E+02 -0.27720956646E+03  0.27883660559E+03  0.00000000000E+00 0. -1.
         21    1    1    2  506  504  0.96644963813E+02  0.42323189754E+02  0.15714308927E+03  0.18927612614E+03  0.00000000000E+00 0. -1.
<scales pt_clust_3="105.89111" pt_clust_4="45.32278" pt_clust_5="30.07838" pt_clust_6="14000.00000"></scales>
<clustering>
<clus scale="   30.078">  2  5  1 -1</clus>
<clus scale="   45.323">  2  4  1 -1</clus>
<clus scale="  105.891">  2  3  1 -1</clus>
<clus scale="  105.891">  1  3  2 -1</clus>
</clustering>
</event>
<event>
 6    0  0.2908518E+002  0.2446160E+03  0.7546771E-02  0.1116755E+00
         21   -1    0    0  503  501  0.00000000000E+00  0.00000000000E+00  0.21886959033E+03  0.21886959033E+03  0.00000000000E+00 0. -1.
         21   -1    0    0  504  502 -0.00000000000E+00 -0.00000000000E+00 -0.93143085101E+03  0.93143085101E+03  0.00000000000E+00 0. -1.
         21    1    1    2  503  502  0.43740058771E+02  0.27684748112E+02  0.14749542563E+03  0.15631550979E+03  0.00000000000E+00 0. -1.
         21    1    1    2  504  506  0.11011794559E+03  0.13517359296E+03 -0.44387603190E+03  0.47688970829E+03  0.00000000000E+00 0. -1.
         21    1    1    2  505  501 -0.16196226904E+03 -0.20610197245E+03 -0.36847926063E+03  0.45220212865E+03  0.00000000000E+00 0. -1.
         21    1    1    2  506  505  0.81042646777E+01  0.43243631382E+02 -0.47701393769E+02  0.64893094614E+02  0.00000000000E+00 0. -1.
<scales pt_clust_3="51.76522" pt_clust_4="39.14082" pt_clust_5="231.87484" pt_clust_6="39.14082"></scales>
<clustering>
<clus scale="   39.141">  4  6 -1 -1</clus>
<clus scale="   51.765">  1  3  2 -1</clus>
<clus scale="  231.875">  1  5  2 -1</clus>
<clus scale="   51.765">  1  3  2 -1</clus>
</clustering>
</event>
<event>
 6    0  0.2908518E+002  0.1541485E+03  0.7546771E-02  0.1195466E+00
         21   -1    0    0  502  501  0.00000000000E+00  0.00000000000E+00  0.15926182787E+04  0.15926182787E+04  0.00000000000E+00 0.  1.
         21   -1    0    0  505  502 -0.00000000000E+00 -0.00000000000E+00 -0.33791704923E+03  0.33791704923E+03  0.00000000000E+00 0.  1.
         21    1    1    2  503  501  0.28767140396E+02 -0.16252685631E+02  0.14103672942E+04  0.14107542673E+04  0.00000000000E+00 0.  1.
         21    1    1    2  504  506 -0.37121959664E+02 -0.29542655279E+02  0.47242803039E+02  0.66952899931E+02  0.00000000000E+00 0. -1.
         21    1    1    2  505  504  0.13307799736E+03  0.49422367064E+02 -0.27445530327E+03  0.30899520585E+03  0.00000000000E+00 0.  1.
         21    1    1    2  506  503 -0.12472317810E+03 -0.36270261549E+01  0.71546435525E+02  0.14383295488E+03  0.00000000000E+00 0.  1.
<scales pt_clust_3="33.04086" pt_clust_4="35.26558" pt_clust_5="144.00019" pt_clust_6="35.26558"></scales>
<clustering>
<clus scale="   33.041">  1  3  2 -1</clus>
<clus scale="   35.266">  4  6 -1 -1</clus>
<clus scale="  144.000">  2  5  1 -1</clus>
<clus scale="   33.041">  1  3  2 -1</clus>
</clustering>
</event>
<event>
 6    0  0.2908518E+002  0.3024461E+03  0.7546771E-02  0.1084024E+00
         21   -1    0    0  506  501  0.00000000000E+00  0.00000000000E+00  0.49134893251E+03  0.49134893251E+03  0.00000000000E+00 0. -1.
         21   -1    0    0  504  502 -0.00000000000E+00 -0.00000000000E+00 -0.66883618311E+03  0.66883618311E+03  0.00000000000E+00 0.  1.
         21    1    1    2  503  505  0.75098870892E+01  0.55035414516E+02 -0.51252725862E+02  0.75578681937E+02  0.00000000000E+00 0.  1.
         21    1    1    2  504  501 -0.21924678771E+03 -0.13088320281E+03  0.16910838331E+03  0.30626330502E+03  0.00000000000E+00 0. -1.
         21    1    1    2  505  502  0.95361322841E+02  0.24030138318E+03 -0.45363342096E+03  0.52213199219E+03  0.00000000000E+00 0.  1.
         21    1    1    2  506  503  0.11637557778E+03 -0.16445359489E+03  0.15829051291E+03  0.25621113647E+03  0.00000000000E+00 0. -1.
<scales pt_clust_3="31.23759" pt_clust_4="294.84218" pt_clust_5="31.23759" pt_clust_6="201.46528"></scales>
<clustering>
<clus scale="   31.238">  3  5 -1 -1</clus>
<clus scale="  201.465">  1  6  2 -1</clus>
<clus scale="  294.842">  1  4  2 -1</clus>
<clus scale="  201.465">  1  3  2 -1</clus>
</clustering>
</event>
<event>
 6    0  0.2908518E+002  0.1310023E+03  0.7546771E-02  0.1225976E+00
         21   -1    0    0  504  501  0.00000000000E+00  0.00000000000E+00  0.35813170190E+03  0.35813170190E+03  0.00000000000E+00 0. -1.
         21   -1    0    0  505  502 -0.00000000000E+00 -0.00000000000E+00 -0.16466644907E+04  0.16466644907E+04  0.00000000000E+00 0. -1.
         21    1    1    2  503  506 -0.25278688425E+02 -0.50737180455E+02 -0.59044492980E+03  0.59315974973E+03  0.00000000000E+00 0. -1.
         21    1    1    2  504  503 -0.31140680797E+01 -0.45576209130E+02 -0.27279031324E+03  0.27658894276E+03  0.00000000000E+00 0. -1.
         21    1    1    2  505  501  0.61653305468E+01  0.12654334875E+03  0.34309490865E+03  0.36573945200E+03  0.00000000000E+00 0. -1.
         21    1    1    2  506  502  0.22227425958E+02 -0.30229959164E+02 -0.76839245440E+03  0.76930804810E+03  0.00000000000E+00 0. -1.
<scales pt_clust_3="31.16613" pt_clust_4="31.16613" pt_clust_5="126.31832" pt_clust_6="37.52211"></scales>
<clustering>
<clus scale="   31.166">  3  4 -1 -1</clus>
<clus scale="   37.522">  2  6  1 -1</clus>
<clus scale="  126.318">  1  5  2 -1</clus>
<clus scale="  126.318">  1  3  2 -1</clus>
</clustering>
</event>
<event>
 6    0  0.2908518E+002  0.1514328E+03  0.7546771E-02  0.1198723E+00
         21   -1    0    0  503  501  0.00000000000E+00  0.00000000000E+00  0.66343519929E+03  0.66343519929E+03  0.00000000000E+00 0. -1.
         21   -1    0    0  506  502 -0.00000000000E+00 -0.00000000000E+00 -0.11564503193E+03  0.11564503193E+03  0.00000000000E+00 0. -1.
         21    1    1    2  503  502 -0.37754245991E+02 -0.17429386166E+02  0.41853492689E+03  0.42059559153E+03  0.00000000000E+00 0. -1.
         21    1    1    2  504  501  0.12320043523E+03  0.58603923895E+02  0.11399571445E+03  0.17778579822E+03  0.00000000000E+00 0. -1.
         21    1    1    2  505  504  0.39081889262E+02 -0.18965134763E+02  0.30804744314E+02  0.53254132958E+02  0.00000000000E+00 0. -1.
         21    1    1    2  506  505 -0.12452807850E+03 -0.22209402967E+02 -0.15545218294E+02  0.12744470851E+03  0.00000000000E+00 0. -1.
<scales pt_clust_3="41.58325" pt_clust_4="37.87611" pt_clust_5="37.87611" pt_clust_6="135.74386"></scales>
<clustering>
<clus scale="   37.876">  4  5 -1 -1</clus>
<clus scale="   41.583">  1  3  2 -1</clus>
<clus scale="  135.744">  2  6  1 -1</clus>
<clus scale="   41.583">  1  3  2 -1</clus>
</clustering>
</event>
<event>
 6    0  0.2908518E+002  0.3115639E+03  0.7546771E-02  0.1079599E+00
         21   -1    0    0  502  501  0.00000000000E+00  0.00000000000E+00  0.92327497651E+02  0.92327497651E+02  0.00000000000E+00 0. -1.
         21   -1    0    0  505  502 -0.00000000000E+00 -0.00000000000E+00 -0.12369515415E+04  0.12369515415E+04  0.00000000000E+00 0. -1.
         21    1    1    2  503  501  0.23273306492E+03  0.16783558522E+03 -0.24524781733E+03  0.37746517068E+03  0.00000000000E+00 0. -1.
         21    1    1    2  504  506 -0.12730104356E+03 -0.10732343746E+03 -0.49826002086E+03  0.52534457674E+03  0.00000000000E+00 0. -1.
         21    1    1    2  505  504 -0.53757961203E+02 -0.20926181550E+02 -0.30485364363E+03  0.31026370639E+03  0.00000000000E+00 0. -1.
         21    1    1    2  506  503 -0.51674060159E+02 -0.39585966211E+02 -0.96262561978E+02  0.11620558529E+03  0.00000000000E+00 0. -1.
<scales pt_clust_3="286.93808" pt_clust_4="53.55917" pt_clust_5="37.31665" pt_clust_6="53.55917"></scales>
<clustering>
<clus scale="   37.317">  4  5 -1 -1</clus>
<clus scale="   53.559">  4  6 -1 -1</clus>
<clus scale="  286.938">  1  3  2 -1</clus>
<clus scale="  286.938">  1  3  2 -1</clus>
</clustering>
</event>
<event>
 6    0  0.2908518E+002  0.9510014E+02  0.7546771E-02  0.1290951E+00
         21   -1    0    0  504  501  0.00000000000E+00  0.00000000000E+00  0.32516441376E+02  0.32516441376E+02  0.00000000000E+00 0. -1.
         21   -1    0    0  506  502 -0.00000000000E+00 -0.00000000000E+00 -0.77406896005E+03  0.77406896005E+03  0.00000000000E+00 0. -1.
         21    1    1    2  503  501 -0.14544181621E+02  0.10177490043E+03 -0.96135008757E+02  0.14075369795E+03  0.00000000000E+00 0. -1.
         21    1    1    2  504  502 -0.40183880020E+02 -0.13928157938E+02 -0.10812632225E+03  0.11618966976E+03  0.00000000000E+00 0. -1.
         21    1    1    2  505  503  0.27327208624E+02 -0.72700665023E+02 -0.28419049792E+03  0.29461229121E+03  0.00000000000E+00 0.  1.
         21    1    1    2  506  505  0.27400853017E+02 -0.15146077472E+02 -0.25310068975E+03  0.25502974250E+03  0.00000000000E+00 0. -1.
<scales pt_clust_3="95.10014" pt_clust_4="38.34534" pt_clust_5="14000.00000" pt_clust_6="31.30831"></scales>
<clustering>
<clus scale="   31.308">  2  6  1 -1</clus>
<clus scale="   38.345">  2  4  1 -1</clus>
<clus scale="   95.100">  1  3  2 -1</clus>
<clus scale="   95.100">  1  3  2 -1</clus>
</clustering>
</event>
<event>
 6    0  0.2908518E+002  0.1182063E+03  0.7546771E-02  0.1246086E+00
         21   -1    0    0  503  501  0.00000000000E+00  0.00000000000E+00  0.19176053708E+03  0.19176053708E+03  0.00000000000E+00 0.  1.
         21   -1    0    0  506  502 -0.00000000000E+00 -0.00000000000E+00 -0.36618932889E+03  0.36618932889E+03  0.00000000000E+00 0.  1.
         21    1    1    2  503  504  0.19381914260E+02  0.30495151519E+02  0.13208059544E+03  0.13693391310E+03  0.00000000000E+00 0.  1.
         21    1    1    2  504  505 -0.49895358340E+02 -0.47344775203E+02 -0.29691591435E+02  0.74917722368E+02  0.00000000000E+00 0. -1.
         21    1    1    2  505  502 -0.71036888549E+02 -0.13764983107E+02 -0.31662520874E+02  0.78982463388E+02  0.00000000000E+00 0.  1.
         21    1    1    2  506  501  0.10155033263E+03  0.30614606791E+02 -0.24515527495E+03  0.26711576711E+03  0.00000000000E+00 0.  1.
<scales pt_clust_3="36.13327" pt_clust_4="36.93195" pt_clust_5="36.93195" pt_clust_6="111.40375"></scales>
<clustering>
<clus scale="   36.133">  1  3  2 -1</clus>
<clus scale="   36.932">  4  5 -1 -1</clus>
<clus scale="  111.404">  2  6  1 -1</clus>
<clus scale="   36.133">  1  3  2 -1</clus>
</clustering>
</event>
<event>
 6    0  0.2908518E+002  0.1254555E+03  0.7546771E-02  0.1234359E+00
         21   -1    0    0  504  501  0.00000000000E+00  0.00000000000E+00  0.16239943331E+04  0.16239943331E+04  0.00000000000E+00 0.  1.
         21   -1    0    0  503  502 -0.00000000000E+00 -0.00000000000E+00 -0.70432009533E+02  0.70432009533E+02  0.00000000000E+00 0. -1.
         21    1    1    2  503  506  0.90014074448E+01 -0.91032591898E+02  0.33381670256E+02  0.97377071391E+02  0.00000000000E+00 0. -1.
         21    1    1    2  504  505  0.20274214571E+02  0.10978334803E+03  0.14154030929E+04  0.14197990501E+04  0.00000000000E+00 0.  1.
         21    1    1    2  505  502 -0.46221718876E+02  0.48050730383E+02  0.23514336423E+02  0.70698260259E+02  0.00000000000E+00 0. -1.
         21    1    1    2  506  501  0.16946096861E+02 -0.66801486510E+02  0.81263224069E+02  0.10655196096E+03  0.00000000000E+00 0. -1.
<scales pt_clust_3="46.40835" pt_clust_4="113.49161" pt_clust_5="66.67323" pt_clust_6="46.40835"></scales>
<clustering>
<clus scale="   46.408">  3  6 -1 -1</clus>
<clus scale="   66.673">  2  5  1 -1</clus>
<clus scale="  113.492">  1  4  2 -1</clus>
<clus scale="  113.492">  1  3  2 -1</clus>
</clustering>
</event>
<event>
 6    0  0.2908518E+002  0.1594196E+03  0.7546771E-02  0.1189354E+00
         21   -1    0    0  506  501  0.00000000000E+00  0.00000000000E+00  0.23484390170E+04  0.23484390170E+04  0.00000000000E+00 0.  1.
         21   -1    0    0  504  502 -0.00000000000E+00 -0.00000000000E+00 -0.10262006056E+03  0.10262006056E+03  0.00000000000E+00 0. -1.
         21    1    1    2  503  505 -0.51755080441E+01  0.12787066579E+03  0.77147695311E+02  0.14943045187E+03  0.00000000000E+00 0. -1.
         21    1    1    2  504  501  0.11446957021E+03  0.29437803705E+02  0.26415679771E+02  0.12111009425E+03  0.00000000000E+00 0. -1.
         21    1    1    2  505  502 -0.52016421550E+02 -0.47394368050E+01  0.26635766532E+02  0.58631343417E+02  0.00000000000E+00 0. -1.
         21    1    1    2  506  503 -0.57277640614E+02 -0.15256903269E+03  0.21156198148E+04  0.21218871880E+04  0.00000000000E+00 0.  1.
<scales pt_clust_3="14000.00000" pt_clust_4="90.12915" pt_clust_5="52.23189" pt_clust_6="159.41958"></scales>
<clustering>
<clus scale="   52.232">  2  5  1 -1</clus>
<clus scale="   90.129">  2  4  1 -1</clus>
<clus scale="  159.420">  1  6  2 -1</clus>
<clus scale="  159.420">  1  3  2 -1</clus>
</clustering>
</event>
<event>
 6    0  0.2908518E+002  0.9146415E+02  0.7546771E-02  0.1299344E+00
         21   -1    0    0  506  501  0.00000000000E+00  0.00000000000E+00  0.26051643071E+03  0.26051643071E+03  0.00000000000E+00 0. -1.
         21   -1    0    0  503  502 -0.00000000000E+00 -0.00000000000E+00 -0.84906212308E+03  0.84906212308E+03  0.00000000000E+00 0.  1.
         21    1    1    2  503  505 -0.83088007714E+01  0.40846031753E+02 -0.67956417190E+02  0.79721447036E+02  0.00000000000E+00 0.  1.
         21    1    1    2  504  502  0.28236276600E+02 -0.13432989134E+03 -0.75150883684E+03  0.76394197350E+03  0.00000000000E+00 0.  1.
         21    1    1    2  505  501 -0.12578063123E+02  0.57672844906E+02  0.39475339014E+02  0.71011739182E+02  0.00000000000E+00 0.  1.
         21    1    1    2  506  504 -0.73494127055E+01  0.35811014685E+02  0.19144422264E+03  0.19490339407E+03  0.00000000000E+00 0. -1.
<scales pt_clust_3="44.87590" pt_clust_4="91.46415" pt_clust_5="14000.00000" pt_clust_6="36.55739"></scales>
<clustering>
<clus scale="   36.557">  1  6  2 -1</clus>
<clus scale="   44.876">  2  3  1 -1</clus>
<clus scale="   91.464">  2  4  1 -1</clus>
<clus scale="   36.557">  1  3  2 -1</clus>
</clustering>
</event>
<event>
 6    0  0.2908518E+002  0.1379102E+03  0.7546771E-02  0.1216169E+00
         21   -1    0    0  503  501  0.00000000000E+00  0.00000000000E+00  0.30586238652E+03  0.30586238652E+03  0.00000000000E+00 0. -1.
         21   -1    0    0  506  502 -0.00000000000E+00 -0.00000000000E+00 -0.20246949770E+03  0.20246949770E+03  0.00000000000E+00 0. -1.
         21    1    1    2  503  502 -0.26548433794E+02  0.12347233769E+03  0.23207439902E+03  0.26421348223E+03  0.00000000000E+00 0. -1.
         21    1    1    2  504  505  0.41960481851E+02 -0.86320515691E+02 -0.58424522540E+02  0.11236253068E+03  0.00000000000E+00 0. -1.
         21    1    1    2  505  501  0.19193600489E+02 -0.39952519789E+02  0.89997800855E+01  0.45228245365E+02  0.00000000000E+00 0. -1.
         21    1    1    2  506  504 -0.34605648545E+02  0.28006977857E+01 -0.79256767745E+02  0.86527625951E+02  0.00000000000E+00 0. -1.
<scales pt_clust_3="127.71796" pt_clust_4="36.31246" pt_clust_5="36.31246" pt_clust_6="34.71880"></scales>
<clustering>
<clus scale="   34.719">  2  6  1 -1</clus>
<clus scale="   36.312">  4  5 -1 -1</clus>
<clus scale="  127.718">  1  3  2 -1</clus>
<clus scale="  127.718">  1  3  2 -1</clus>
</clustering>
</event>
<event>
 6    0  0.2908518E+002  0.2079923E+03  0.7546771E-02  0.1143166E+00
         21   -1    0    0  505  501  0.00000000000E+00  0.00000000000E+00  0.21879049259E+04  0.21879049259E+04  0.00000000000E+00 0.  1.
         21   -1    0    0  504  502 -0.00000000000E+00 -0.00000000000E+00 -0.66843072118E+02  0.66843072118E+02  0.00000000000E+00 0.  1.
         21    1    1    2  503  501 -0.27416136298E+02 -0.15922876473E+02  0.12744005358E+04  0.12747948495E+04  0.00000000000E+00 0.  1.
         21    1    1    2  504  506  0.12307262099E+03  0.18803890489E+03  0.22696436999E+03  0.31940307612E+03  0.00000000000E+00 0.  1.
         21    1    1    2  505  502 -0.12265131446E+03 -0.13094593698E+03  0.48055828438E+03  0.51295852467E+03  0.00000000000E+00 0.  1.
         21    1    1    2  506  503  0.26994829763E+02 -0.41170091435E+02  0.13913866361E+03  0.14759154777E+03  0.00000000000E+00 0.  1.
<scales pt_clust_3="31.70461" pt_clust_4="207.99231" pt_clust_5="14000.00000" pt_clust_6="49.21303"></scales>
<clustering>
<clus scale="   31.705">  1  3  2 -1</clus>
<clus scale="   49.213">  1  6  2 -1</clus>
<clus scale="  207.992">  2  4  1 -1</clus>
<clus scale="   31.705">  1  3  2 -1</clus>
</clustering>
</event>
<event>
 6    0  0.2908518E+002  0.1267813E+03  0.7546771E-02  0.1232311E+00
         21   -1    0    0  506  501  0.00000000000E+00  0.00000000000E+00  0.21341490504E+03  0.21341490504E+03  0.00000000000E+00 0.  1.
         21   -1    0    0  504  502 -0.00000000000E+00 -0.00000000000E+00 -0.18206643075E+03  0.18206643075E+03  0.00000000000E+00 0.  1.
         21    1    1    2  503  501 -0.46429423181E+02  0.40420187711E+02  0.86174869124E+02  0.10590368728E+03  0.00000000000E+00 0.  1.
         21    1    1    2  504  503 -0.60286413794E+02  0.24053765108E+02  0.25628735480E+02  0.69784435130E+02  0.00000000000E+00 0.  1.
         21    1    1    2  505  502  0.10944736060E+03 -0.32467932627E+02 -0.12212796442E+03  0.16717694543E+03  0.00000000000E+00 0.  1.
         21    1    1    2  506  505 -0.27315236202E+01 -0.32006020192E+02  0.41672834113E+02  0.52616267949E+02  0.00000000000E+00 0.  1.
<scales pt_clust_3="48.67179" pt_clust_4="48.67179" pt_clust_5="115.11898" pt_clust_6="32.12237"></scales>
<clustering>
<clus scale="   32.122">  1  6  2 -1</clus>
<clus scale="   48.672">  3  4 -1 -1</clus>
<clus scale="  115.119">  2  5  1 -1</clus>
<clus scale="   32.122">  1  3  2 -1</clus>
</clustering>
</event>
<event>
 6    0  0.2908518E+002  0.1303544E+03  0.7546771E-02  0.1226931E+00
         21   -1    0    0  504  501  0.00000000000E+00  0.00000000000E+00  0.29489068209E+03  0.29489068209E+03  0.00000000000E+00 0. -1.
         21   -1    0    0  503  502 -0.00000000000E+00 -0.00000000000E+00 -0.20906135714E+03  0.20906135714E+03  0.00000000000E+00 0. -1.
         21    1    1    2  503  506  0.35357038665E+02  0.59331174469E+02 -0.42274966468E+02  0.80978276327E+02  0.00000000000E+00 0. -1.
         21    1    1    2  504  505 -0.46467086079E+02 -0.25176791788E+01 -0.11880582352E+02  0.48027877677E+02  0.00000000000E+00 0.  1.
         21    1    1    2  505  502 -0.69734075055E+02  0.33065702429E+02 -0.87905514959E+02  0.11697675607E+03  0.00000000000E+00 0. -1.
         21    1    1    2  506  501  0.80844122469E+02 -0.89879197720E+02  0.22789038873E+03  0.25796912916E+03  0.00000000000E+00 0. -1.
<scales pt_clust_3="69.06742" pt_clust_4="41.33337" pt_clust_5="41.33337" pt_clust_6="118.99118"></scales>
<clustering>
<clus scale="   41.333">  4  5 -1 -1</clus>
<clus scale="   69.067">  2  3  1 -1</clus>
<clus scale="  118.991">  1  6  2 -1</clus>
<clus scale="  118.991">  1  3  2 -1</clus>
</clustering>
</event>
<event>
 6    0  0.3231603E+002  0.1332511E+03  0.7546771E-02  0.1222710E+00
         21   -1    0    0  504  501  0.00000000000E+00  0.00000000000E+00  0.86876099471E+03  0.86876099471E+03  0.00000000000E+00 0.  1.
         21   -1    0    0  505  502 -0.00000000000E+00 -0.00000000000E+00 -0.13037474145E+04  0.13037474145E+04  0.00000000000E+00 0.  1.
         21    1    1    2  503  502 -0.39969905480E+02 -0.11196115689E+02 -0.40903502821E+03  0.41113574480E+03  0.00000000000E+00 0. -1.
         21    1    1    2  504  503 -0.28491476815E+02 -0.18040851472E+03 -0.83099793639E+03  0.85083286650E+03  0.00000000000E+00 0.  1.
         21    1    1    2  505  506  0.19305865326E+02  0.68057261903E+02 -0.21052117091E+02  0.73808529099E+02  0.00000000000E+00 0. -1.
         21    1    1    2  506  501  0.49155516969E+02  0.12354736851E+03  0.82609866187E+03  0.83673126884E+03  0.00000000000E+00 0.  1.
<scales pt_clust_3="41.50839" pt_clust_4="133.25114" pt_clust_5="69.61730" pt_clust_6="14000.00000"></scales>
<clustering>
<clus scale="   41.508">  2  3  1 -1</clus>
<clus scale="   69.617">  2  5  1 -1</clus>
<clus scale="  133.251">  2  4  1 -1</clus>
<clus scale="  133.251">  1  3  2 -1</clus>
</clustering>
</event>
<event>
 6    0  0.2908518E+002  0.2082282E+03  0.7546771E-02  0.1142977E+00
         21   -1    0    0  506  501  0.00000000000E+00  0.00000000000E+00  0.51890350257E+03  0.51890350257E+03  0.00000000000E+00 0.  1.
         21   -1    0    0  503  502 -0.00000000000E+00 -0.00000000000E+00 -0.23560889427E+03  0.23560889427E+03  0.00000000000E+00 0.  1.
         21    1    1    2  503  505  0.21461603065E+03 -0.18190948745E+02 -0.23060808771E+01  0.21539793229E+03  0.00000000000E+00 0.  1.
         21    1    1    2  504  502 -0.75622543570E+02 -0.77215849127E+02  0.24039253279E+01  0.10810566733E+03  0.00000000000E+00 0.  1.
         21    1    1    2  505  501 -0.78329981393E+02  0.19293367339E+03  0.20393791100E+03  0.29146124932E+03  0.00000000000E+00 0.  1.
         21    1    1    2  506  504 -0.60663505684E+02 -0.97526875514E+02  0.79258852855E+02  0.13954754790E+03  0.00000000000E+00 0.  1.
<scales pt_clust_3="192.65689" pt_clust_4="72.29613" pt_clust_5="208.22821" pt_clust_6="72.29613"></scales>
<clustering>
<clus scale="   72.296">  4  6 -1 -1</clus>
<clus scale="  208.228">  1  5  2 -1</clus>
<clus scale="  192.657">  2  3  1 -1</clus>
<clus scale="  208.228">  1  3  2 -1</clus>
</clustering>
</event>
<event>
 6    0  0.2908518E+002  0.1202529E+03  0.7546771E-02  0.1242680E+00
         21   -1    0    0  505  501  0.00000000000E+00  0.00000000000E+00  0.27496047711E+03  0.27496047711E+03  0.00000000000E+00 0. -1.
         21   -1    0    0  503  502 -0.00000000000E+00 -0.00000000000E+00 -0.28575879549E+03  0.28575879549E+03  0.00000000000E+00 0.  1.
         21    1    1    2  503  501  0.93270185099E+02  0.79866653554E+02  0.21865984292E+03  0.25077905950E+03  0.00000000000E+00 0. -1.
         21    1    1    2  504  502 -0.76725649414E+02  0.12083575720E+02 -0.18422259552E+03  0.19992699362E+03  0.00000000000E+00 0.  1.
         21    1    1    2  505  506 -0.22075350327E+02 -0.44131297718E+02 -0.99746480211E+01  0.50342686991E+02  0.00000000000E+00 0. -1.
         21    1    1    2  506  504  0.55308146414E+01 -0.47818931557E+02 -0.35260917766E+02  0.59670532489E+02  0.00000000000E+00 0.  1.
<scales pt_clust_3="114.59791" pt_clust_4="77.67135" pt_clust_5="35.99448" pt_clust_6="35.99448"></scales>
<clustering>
<clus scale="   35.994">  5  6 -1 -1</clus>
<clus scale="   77.671">  2  4  1 -1</clus>
<clus scale="  114.598">  1  3  2 -1</clus>
<clus scale="  114.598">  1  3  2 -1</clus>
</clustering>
</event>
<event>
 6    0  0.2908518E+002  0.1553163E+03  0.7546771E-02  0.1194088E+00
         21   -1    0    0  505  501  0.00000000000E+00  0.00000000000E+00  0.49959921549E+02  0.49959921549E+02  0.00000000000E+00 0. -1.
         21   -1    0    0  503  502 -0.00000000000E+00 -0.00000000000E+00 -0.11809151920E+04  0.11809151920E+04  0.00000000000E+00 0.  1.
         21    1    1    2  503  504 -0.54488643767E+02 -0.25958907098E+02 -0.20240377840E+03  0.21121118973E+03  0.00000000000E+00 0. -1.
         21    1    1    2  504  506  0.19957728066E+02  0.87229768102E+02 -0.47133108249E+03  0.47975028158E+03  0.00000000000E+00 0.  1.
         21    1    1    2  505  502 -0.10085805328E+02 -0.14448424808E+03 -0.11509434695E+03  0.18499764894E+03  0.00000000000E+00 0. -1.
         21    1    1    2  506  501  0.44616721029E+02  0.83213387077E+02 -0.34212606256E+03  0.35491599325E+03  0.00000000000E+00 0.  1.
<scales pt_clust_3="60.35625" pt_clust_4="40.54449" pt_clust_5="149.62826" pt_clust_6="40.54449"></scales>
<clustering>
<clus scale="   40.544">  4  6 -1 -1</clus>
<clus scale="   60.356">  2  3  1 -1</clus>
<clus scale="  149.628">  1  5  2 -1</clus>
<clus scale="  149.628">  1  3  2 -1</clus>
</clustering>
</event>
<event>
 6    0  0.4064281E+002  0.8884410E+02  0.7546771E-02  0.1305675E+00
         21   -1    0    0  504  501  0.00000000000E+00  0.00000000000E+00  0.20456146453E+03  0.20456146453E+03  0.00000000000E+00 0.  1.
         21   -1    0    0  501  502 -0.00000000000E+00 -0.00000000000E+00 -0.49883256487E+03  0.49883256487E+03  0.00000000000E+00 0. -1.
         21    1    1    2  503  502  0.36148433962E+01 -0.31782731402E+02 -0.35176527661E+02  0.47545738047E+02  0.00000000000E+00 0. -1.
         21    1    1    2  504  506  0.40115569926E+02  0.78386563688E+02  0.15663989289E+03  0.17969354012E+03  0.00000000000E+00 0.  1.
         21    1    1    2  505  503 -0.12564962320E+02  0.67213220985E+02 -0.33546898943E+02  0.76163572540E+02  0.00000000000E+00 0. -1.
         21    1    1    2  506  505 -0.31165451002E+02 -0.11381705327E+03 -0.38218756663E+03  0.39999117870E+03  0.00000000000E+00 0. -1.
<scales pt_clust_3="31.98764" pt_clust_4="88.84410" pt_clust_5="64.55237" pt_clust_6="14000.00000"></scales>
<clustering>
<clus scale="   31.988">  2  3  1 -1</clus>
<clus scale="   64.552">  2  5  1 -1</clus>
<clus scale="   88.844">  1  4  2 -1</clus>
<clus scale="   88.844">  1  3  2 -1</clus>
</clustering>
</event>
<event>
 6    0  0.2908518E+002  0.7644939E+02  0.7546771E-02  0.1339441E+00
         21   -1    0    0  504  501  0.00000000000E+00  0.00000000000E+00  0.63950842095E+02  0.63950842095E+02  0.00000000000E+00 0. -1.
         21   -1    0    0  506  502 -0.00000000000E+00 -0.00000000000E+00 -0.11639092776E+04  0.11639092776E+04  0.00000000000E+00 0. -1.
         21    1    1    2  503  501 -0.61826340284E+02  0.19330180179E+02  0.33652165249E+02  0.72997400259E+02  0.00000000000E+00 0. -1.
         21    1    1    2  504  502 -0.19520471928E+02 -0.90045279659E+02 -0.47806400637E+03  0.48686178265E+03  0.00000000000E+00 0. -1.
         21    1    1    2  505  503  0.75497920897E+02  0.30419658700E+02 -0.52438202262E+03  0.53066165995E+03  0.00000000000E+00 0. -1.
         21    1    1    2  506  505  0.58488913152E+01  0.40295440780E+02 -0.13116457181E+03  0.13733927688E+03  0.00000000000E+00 0. -1.
<scales pt_clust_3="64.90534" pt_clust_4="14000.00000" pt_clust_5="76.44939" pt_clust_6="40.71771"></scales>
<clustering>
<clus scale="   40.718">  2  6  1 -1</clus>
<clus scale="   64.905">  1  3  2 -1</clus>
<clus scale="   76.449">  1  5  2 -1</clus>
<clus scale="   64.905">  1  3  2 -1</clus>
</clustering>
</event>
<event>
 6    0  0.2908518E+002  0.1471473E+03  0.7546771E-02  0.1204023E+00
         21   -1    0    0  504  501  0.00000000000E+00  0.00000000000E+00  0.41686695692E+03  0.41686695692E+03  0.00000000000E+00 0.  1.
         21   -1    0    0  506  502 -0.00000000000E+00 -0.00000000000E+00 -0.17565758382E+03  0.17565758382E+03  0.00000000000E+00 0.  1.
         21    1    1    2  503  505  0.10070503410E+03  0.22498775265E+02 -0.71214483916E+02  0.12537623978E+03  0.00000000000E+00 0.  1.
         21    1    1    2  504  503 -0.12844818564E+03 -0.43952780839E+02  0.34752362297E+03  0.37309978807E+03  0.00000000000E+00 0.  1.
         21    1    1    2  505  502  0.25531615867E+02 -0.26339990038E+02 -0.26939249985E+02  0.45512434276E+02  0.00000000000E+00 0.  1.
         21    1    1    2  506  501  0.22115356801E+01  0.47793995612E+02 -0.81605159724E+01  0.48536078618E+02  0.00000000000E+00 0.  1.
<scales pt_clust_3="35.86528" pt_clust_4="134.29069" pt_clust_5="35.86528" pt_clust_6="47.84513"></scales>
<clustering>
<clus scale="   35.865">  3  5 -1 -1</clus>
<clus scale="   47.845">  2  6  1 -1</clus>
<clus scale="  134.291">  1  4  2 -1</clus>
<clus scale="  134.291">  1  3  2 -1</clus>
</clustering>
</event>
<event>
 6    0  0.2908518E+002  0.1257215E+03  0.7546771E-02  0.1233946E+00
         21   -1    0    0  505  501  0.00000000000E+00  0.00000000000E+00  0.58529396116E+03  0.58529396116E+03  0.00000000000E+00 0.  1.
         21   -1    0    0  503  502 -0.00000000000E+00 -0.00000000000E+00 -0.22300041809E+03  0.22300041809E+03  0.00000000000E+00 0.  1.
         21    1    1    2  503  506  0.62473974621E+02 -0.11830238995E+03  0.49808700714E+02  0.14275629457E+03  0.00000000000E+00 0.  1.
         21    1    1    2  504  502  0.31942456617E+02  0.78342546149E+02 -0.97966634712E+02  0.12944240645E+03  0.00000000000E+00 0.  1.
         21    1    1    2  505  504 -0.71918539836E+02 -0.83698952799E+02  0.39420691045E+03  0.40936155086E+03  0.00000000000E+00 0.  1.
         21    1    1    2  506  501 -0.22497891402E+02  0.12365879660E+03  0.16244566619E+02  0.12673412737E+03  0.00000000000E+00 0.  1.
<scales pt_clust_3="14000.00000" pt_clust_4="84.60423" pt_clust_5="104.80680" pt_clust_6="125.72152"></scales>
<clustering>
<clus scale="   84.604">  2  4  1 -1</clus>
<clus scale="  104.807">  1  5  2 -1</clus>
<clus scale="  125.722">  1  6  2 -1</clus>
<clus scale="  104.807">  1  3  2 -1</clus>
</clustering>
</event>
<event>
 6    0  0.2908518E+002  0.1634806E+03  0.7546771E-02  0.1184822E+00
         21   -1    0    0  506  501  0.00000000000E+00  0.00000000000E+00  0.10721101246E+03  0.10721101246E+03  0.00000000000E+00 0. -1.
         21   -1    0    0  505  502 -0.00000000000E+00 -0.00000000000E+00 -0.24354656756E+04  0.24354656756E+04  0.00000000000E+00 0.  1.
         21    1    1    2  503  501  0.99535514335E+01 -0.13523107010E+03 -0.40903640066E+03  0.43092608713E+03  0.00000000000E+00 0.  1.
         21    1    1    2  504  502 -0.98044318689E+02  0.56265542949E+02 -0.69848245761E+03  0.70757066314E+03  0.00000000000E+00 0.  1.
         21    1    1    2  505  503  0.52073447945E-01 -0.70115164623E+02 -0.12288555809E+04  0.12308542472E+04  0.00000000000E+00 0.  1.
         21    1    1    2  506  504  0.88038693808E+02  0.14908069177E+03  0.81197760481E+01  0.17332569062E+03  0.00000000000E+00 0. -1.
<scales pt_clust_3="163.48058" pt_clust_4="99.21320" pt_clust_5="70.11518" pt_clust_6="14000.00000"></scales>
<clustering>
<clus scale="   70.115">  2  5  1 -1</clus>
<clus scale="   99.213">  2  4  1 -1</clus>
<clus scale="  163.481">  2  3  1 -1</clus>
<clus scale="  163.481">  1  3  2 -1</clus>
</clustering>
</event>
<event>
 6    0  0.2908518E+002  0.1007705E+03  0.7546771E-02  0.1278684E+00
         21   -1    0    0  503  501  0.00000000000E+00  0.00000000000E+00  0.11691771511E+03  0.11691771511E+03  0.00000000000E+00 0. -1.
         21   -1    0    0  505  502 -0.00000000000E+00 -0.00000000000E+00 -0.20432629423E+04  0.20432629423E+04  0.00000000000E+00 0. -1.
         21    1    1    2  503  504  0.31656827632E+02  0.12056666576E+01  0.93901892379E+02  0.99101835302E+02  0.00000000000E+00 0. -1.
         21    1    1    2  504  502  0.62676749535E+02 -0.98354178367E+01 -0.46731700049E+03  0.47160395389E+03  0.00000000000E+00 0. -1.
         21    1    1    2  505  506  0.42181391047E+02 -0.22024436126E+02 -0.12963746091E+04  0.12972476527E+04  0.00000000000E+00 0. -1.
         21    1    1    2  506  501 -0.13651496821E+03  0.30654187305E+02 -0.25655551000E+03  0.29222721547E+03  0.00000000000E+00 0. -1.
<scales pt_clust_3="31.67978" pt_clust_4="100.77050" pt_clust_5="48.17439" pt_clust_6="14000.00000"></scales>
<clustering>
<clus scale="   31.680">  1  3  2 -1</clus>
<clus scale="   48.174">  2  5  1 -1</clus>
<clus scale="  100.770">  2  4  1 -1</clus>
<clus scale="   31.680">  1  3  2 -1</clus>
</clustering>
</event>
<event>
 6    0  0.2908518E+002  0.1256401E+03  0.7546771E-02  0.1234072E+00
         21   -1    0    0  505  501  0.00000000000E+00  0.00000000000E+00  0.81735667747E+03  0.81735667747E+03  0.00000000000E+00 0.  1.
         21   -1    0    0  504  502 -0.00000000000E+00 -0.00000000000E+00 -0.64463866393E+02  0.64463866393E+02  0.00000000000E+00 0.  1.
         21    1    1    2  503  502  0.93707940590E+02 -0.46964114120E+02  0.54922351892E+02  0.11833541685E+03  0.00000000000E+00 0.  1.
         21    1    1    2  504  501  0.10445810387E+02 -0.31488152346E+02 -0.88647243532E+01  0.34339511217E+02  0.00000000000E+00 0.  1.
         21    1    1    2  505  506  0.25520422159E+02  0.19763457137E+02  0.78240414807E+02  0.84637159064E+02  0.00000000000E+00 0. -1.
         21    1    1    2  506  503 -0.12967417314E+03  0.58688809329E+02  0.62859476873E+03  0.64450845673E+03  0.00000000000E+00 0.  1.
<scales pt_clust_3="14000.00000" pt_clust_4="32.99419" pt_clust_5="32.27826" pt_clust_6="125.64012"></scales>
<clustering>
<clus scale="   32.278">  1  5  2 -1</clus>
<clus scale="   32.994">  2  4  1 -1</clus>
<clus scale="  125.640">  1  6  2 -1</clus>
<clus scale="   32.278">  1  3  2 -1</clus>
</clustering>
</event>
<event>
 6    0  0.2908518E+002  0.1071519E+03  0.7546771E-02  0.1265937E+00
         21   -1    0    0  503  501  0.00000000000E+00  0.00000000000E+00  0.21020298762E+03  0.21020298762E+03  0.00000000000E+00 0. -1.
         21   -1    0    0  505  502 -0.00000000000E+00 -0.00000000000E+00 -0.11631617260E+04  0.11631617260E+04  0.00000000000E+00 0. -1.
         21    1    1    2  503  504 -0.78081694793E+02 -0.51192388410E+02 -0.30965259081E+03  0.32342253893E+03  0.00000000000E+00 0. -1.
         21    1    1    2  504  502  0.19997436834E+02 -0.79424040357E+02 -0.36611163594E+03  0.37516103960E+03  0.00000000000E+00 0. -1.
         21    1    1    2  505  506 -0.45418380232E+02  0.99799769923E+02 -0.45430125330E+03  0.46734618014E+03  0.00000000000E+00 0. -1.
         21    1    1    2  506  501  0.10350263819E+03  0.30816658843E+02  0.17710674168E+03  0.20743495492E+03  0.00000000000E+00 0. -1.
<scales pt_clust_3="14000.00000" pt_clust_4="81.90284" pt_clust_5="63.37714" pt_clust_6="107.15186"></scales>
<clustering>
<clus scale="   81.903">  2  4  1 -1</clus>
<clus scale="   63.377">  2  5  1 -1</clus>
<clus scale="  107.152">  1  6  2 -1</clus>
<clus scale="  107.152">  1  3  2 -1</clus>
</clustering>
</event>
<event>
 6    0  0.2908518E+002  0.7454156E+02  0.7546771E-02  0.1345297E+00
         21   -1    0    0  503  501  0.00000000000E+00  0.00000000000E+00  0.15034638417E+03  0.15034638417E+03  0.00000000000E+00 0.  1.
         21   -1    0    0  505  502 -0.00000000000E+00 -0.00000000000E+00 -0.37356378677E+03  0.37356378677E+03  0.00000000000E+00 0.  1.
         21    1    1    2  503  504 -0.70846158064E+02  0.27549307115E+02  0.10708434220E+03  0.13132097616E+03  0.00000000000E+00 0.  1.
         21    1    1    2  504  502  0.12813867659E+02  0.59877426999E+02 -0.34543608616E+02  0.70304781947E+02  0.00000000000E+00 0. -1.
         21    1    1    2  505  506  0.34030778611E+01 -0.57759879299E+02 -0.19930603104E+03  0.20753476481E+03  0.00000000000E+00 0.  1.
         21    1    1    2  506  501  0.54629212544E+02 -0.29666854815E+02 -0.96452105138E+02  0.11474964803E+03  0.00000000000E+00 0.  1.
<scales pt_clust_3="14000.00000" pt_clust_4="44.30510" pt_clust_5="57.86004" pt_clust_6="74.54156"></scales>
<clustering>
<clus scale="   57.860">  2  5  1 -1</clus>
<clus scale="   44.305">  2  4  1 -1</clus>
<clus scale="   74.542">  2  6  1 -1</clus>
<clus scale="   74.542">  1  3  2 -1</clus>
</clustering>
</event>
<event>
 6    0  0.2908518E+002  0.1453896E+03  0.7546771E-02  0.1206255E+00
         21   -1    0    0  505  501  0.00000000000E+00  0.00000000000E+00  0.53983327135E+03  0.53983327135E+03  0.00000000000E+00 0. -1.
         21   -1    0    0  503  502 -0.00000000000E+00 -0.00000000000E+00 -0.41620737388E+03  0.41620737388E+03  0.00000000000E+00 0.  1.
         21    1    1    2  503  501  0.97369502859E+01  0.14426245947E+03 -0.30830273331E+03  0.34052465517E+03  0.00000000000E+00 0.  1.
         21    1    1    2  504  502  0.10318774395E+01  0.35043575549E+02 -0.10262750554E+02  0.36530001468E+02  0.00000000000E+00 0. -1.
         21    1    1    2  505  506  0.51174994359E+02 -0.81621176488E+02  0.45270307471E+03  0.46284011316E+03  0.00000000000E+00 0. -1.
         21    1    1    2  506  504 -0.61943822085E+02 -0.97684858527E+02 -0.10511693370E+02  0.11614587542E+03  0.00000000000E+00 0.  1.
<scales pt_clust_3="145.38961" pt_clust_4="35.05876" pt_clust_5="95.96171" pt_clust_6="14000.00000"></scales>
<clustering>
<clus scale="   35.059">  2  4  1 -1</clus>
<clus scale="   95.962">  1  5  2 -1</clus>
<clus scale="  145.390">  2  3  1 -1</clus>
<clus scale="   95.962">  1  3  2 -1</clus>
</clustering>
</event>
<event>
 6    0  0.2908518E+002  0.1185202E+03  0.7546771E-02  0.1245558E+00
         21   -1    0    0  505  501  0.00000000000E+00  0.00000000000E+00  0.11514359198E+04  0.11514359198E+04  0.00000000000E+00 0.  1.
         21   -1    0    0  503  502 -0.00000000000E+00 -0.00000000000E+00 -0.19162391320E+03  0.19162391320E+03  0.00000000000E+00 0.  1.
         21    1    1    2  503  504  0.24062175924E+02  0.22342190765E+02 -0.51684354993E+02  0.61232624878E+02  0.00000000000E+00 0.  1.
         21    1    1    2  504  506  0.22363227285E+02 -0.13198408800E+03 -0.91979868596E+02  0.16241985608E+03  0.00000000000E+00 0.  1.
         21    1    1    2  505  502  0.72618555138E+01  0.43289015057E+02  0.71436342572E+02  0.83844048150E+02  0.00000000000E+00 0.  1.
         21    1    1    2  506  501 -0.53687258722E+02  0.66352882182E+02  0.10320398876E+04  0.10355633039E+04  0.00000000000E+00 0.  1.
<scales pt_clust_3="32.83537" pt_clust_4="118.52016" pt_clust_5="45.09731" pt_clust_6="14000.00000"></scales>
<clustering>
<clus scale="   32.835">  2  3  1 -1</clus>
<clus scale="   45.097">  1  5  2 -1</clus>
<clus scale="  118.520">  2  4  1 -1</clus>
<clus scale="   45.097">  1  3  2 -1</clus>
</clustering>
</event>
<event>
 6    0  0.2908518E+002  0.1966565E+03  0.7546771E-02  0.1152591E+00
         21   -1    0    0  504  501  0.00000000000E+00  0.00000000000E+00  0.29876593838E+03  0.29876593838E+03  0.00000000000E+00 0.  1.
         21   -1    0    0  503  502 -0.00000000000E+00 -0.00000000000E+00 -0.46676168905E+03  0.46676168905E+03  0.00000000000E+00 0.  1.
         21    1    1    2  503  501 -0.35939446646E+02 -0.10909550770E+03 -0.30851541932E+03  0.32920394528E+03  0.00000000000E+00 0.  1.
         21    1    1    2  504  506  0.32502651116E+02  0.20546713173E+03  0.20474313281E+03  0.29187825370E+03  0.00000000000E+00 0.  1.
         21    1    1    2  505  502 -0.29803580908E+02 -0.10383608809E+02 -0.36339661805E+02  0.48131525915E+02  0.00000000000E+00 0.  1.
         21    1    1    2  506  505  0.33240376437E+02 -0.85988015218E+02 -0.27883802359E+02  0.96313902532E+02  0.00000000000E+00 0.  1.
<scales pt_clust_3="196.65649" pt_clust_4="14000.00000" pt_clust_5="31.56062" pt_clust_6="92.14965"></scales>
<clustering>
<clus scale="   31.561">  2  5  1 -1</clus>
<clus scale="   92.150">  2  6  1 -1</clus>
<clus scale="  196.656">  2  3  1 -1</clus>
<clus scale="  196.656">  1  3  2 -1</clus>
</clustering>
</event>
<event>
 6    0  0.2908518E+002  0.1296758E+03  0.7546771E-02  0.1227938E+00
         21   -1    0    0  504  501  0.00000000000E+00  0.00000000000E+00  0.31188306299E+03  0.31188306299E+03  0.00000000000E+00 0.  1.
         21   -1    0    0  503  502 -0.00000000000E+00 -0.00000000000E+00 -0.95994520676E+03  0.95994520676E+03  0.00000000000E+00 0. -1.
         21    1    1    2  503  505 -0.74245519739E+01  0.44264795268E+02 -0.29821270416E+03  0.30157140613E+03  0.00000000000E+00 0. -1.
         21    1    1    2  504  502  0.96412245400E+02 -0.22016126123E+02  0.28280063976E+03  0.29959344573E+03  0.00000000000E+00 0.  1.
         21    1    1    2  505  506  0.22982967459E+02  0.71965332318E+02 -0.24128658406E+03  0.25283678826E+03  0.00000000000E+00 0. -1.
         21    1    1    2  506  501 -0.11197066088E+03 -0.94214001464E+02 -0.39136349531E+03  0.41782662964E+03  0.00000000000E+00 0. -1.
<scales pt_clust_3="38.97979" pt_clust_4="98.89404" pt_clust_5="38.97979" pt_clust_6="119.40839"></scales>
<clustering>
<clus scale="   38.980">  3  5 -1 -1</clus>
<clus scale="   98.894">  1  4  2 -1</clus>
<clus scale="  119.408">  1  6  2 -1</clus>
<clus scale="   98.894">  1  3  2 -1</clus>
</clustering>
</event>
<event>
 6    0  0.2908518E+002  0.1012498E+03  0.7546771E-02  0.1277690E+00
         21   -1    0    0  505  501  0.00000000000E+00  0.00000000000E+00  0.66110980796E+02  0.66110980796E+02  0.00000000000E+00 0. -1.
         21   -1    0    0  506  502 -0.00000000000E+00 -0.00000000000E+00 -0.14534719657E+04  0.14534719657E+04  0.00000000000E+00 0.  1.
         21    1    1    2  503  501  0.22610473972E+02  0.10837428102E+03  0.10331562300E+02  0.11118884611E+03  0.00000000000E+00 0. -1.
         21    1    1    2  504  503 -0.26472910159E+02 -0.37513011265E+02 -0.19992264614E+03  0.20512704704E+03  0.00000000000E+00 0. -1.
         21    1    1    2  505  502  0.36915494090E+02 -0.41623641946E+02 -0.35411270006E+03  0.35845653240E+03  0.00000000000E+00 0.  1.
         21    1    1    2  506  504 -0.33053057903E+02 -0.29237627805E+02 -0.84365720096E+03  0.84481052092E+03  0.00000000000E+00 0.  1.
<scales pt_clust_3="101.24980" pt_clust_4="60.28414" pt_clust_5="14000.00000" pt_clust_6="44.12872"></scales>
<clustering>
<clus scale="   44.129">  2  6  1 -1</clus>
<clus scale="   60.284">  2  4  1 -1</clus>
<clus scale="  101.250">  1  3  2 -1</clus>
<clus scale="  101.250">  1  3  2 -1</clus>
</clustering>
</event>
<event>
 6    0  0.2908518E+002  0.6964896E+02  0.7546771E-02  0.1361291E+00
         21   -1    0    0  504  501  0.00000000000E+00  0.00000000000E+00  0.21722105482E+03  0.21722105482E+03  0.00000000000E+00 0.  1.
         21   -1    0    0  505  502 -0.00000000000E+00 -0.00000000000E+00 -0.17021326807E+03  0.17021326807E+03  0.00000000000E+00 0.  1.
         21    1    1    2  503  506 -0.59508261254E+02 -0.62569611507E+02 -0.92750634287E+02  0.12672359529E+03  0.00000000000E+00 0.  1.
         21    1    1    2  504  503  0.11536902297E+02  0.90377386116E+02  0.37341887478E+02  0.98466179961E+02  0.00000000000E+00 0.  1.
         21    1    1    2  505  501  0.18454156861E+02 -0.40209474962E+02  0.11844628573E+03  0.12643923594E+03  0.00000000000E+00 0.  1.
         21    1    1    2  506  502  0.29517202096E+02  0.12401700354E+02 -0.16029752171E+02  0.35805311700E+02  0.00000000000E+00 0. -1.
<scales pt_clust_3="14000.00000" pt_clust_4="69.64896" pt_clust_5="44.27973" pt_clust_6="32.01667"></scales>
<clustering>
<clus scale="   32.017">  2  6  1 -1</clus>
<clus scale="   44.280">  1  5  2 -1</clus>
<clus scale="   69.649">  1  4  2 -1</clus>
<clus scale="   44.280">  1  3  2 -1</clus>
</clustering>
</event>
<event>
 6    0  0.2908518E+002  0.1045729E+03  0.7546771E-02  0.1270963E+00
         21   -1    0    0  506  501  0.00000000000E+00  0.00000000000E+00  0.30554298280E+04  0.30554298280E+04  0.00000000000E+00 0.  1.
         21   -1    0    0  503  502 -0.00000000000E+00 -0.00000000000E+00 -0.66923960430E+02  0.66923960430E+02  0.00000000000E+00 0. -1.
         21    1    1    2  503  504  0.30857263605E+02  0.15434087656E+02  0.11680739410E+02  0.36425560423E+02  0.00000000000E+00 0. -1.
         21    1    1    2  504  501 -0.11824419141E+02 -0.10256348142E+03  0.86871134422E+01  0.10360767611E+03  0.00000000000E+00 0. -1.
         21    1    1    2  505  502 -0.33183495662E+02 -0.16508575153E+02  0.49646730067E+02  0.61955429498E+02  0.00000000000E+00 0. -1.
         21    1    1    2  506  505  0.14150651199E+02  0.10363796892E+03  0.29184912846E+04  0.29203651224E+04  0.00000000000E+00 0.  1.
<scales pt_clust_3="34.50191" pt_clust_4="104.57287" pt_clust_5="33.17076" pt_clust_6="14000.00000"></scales>
<clustering>
<clus scale="   34.502">  2  3  1 -1</clus>
<clus scale="   33.171">  2  5  1 -1</clus>
<clus scale="  104.573">  2  4  1 -1</clus>
<clus scale="  104.573">  1  3  2 -1</clus>
</clustering>
</event>
<event>
 6    0  0.2908518E+002  0.8899603E+02  0.7546771E-02  0.1305301E+00
         21   -1    0    0  505  501  0.00000000000E+00  0.00000000000E+00  0.75393311793E+02  0.75393311793E+02  0.00000000000E+00 0.  1.
         21   -1    0    0  504  502 -0.00000000000E+00 -0.00000000000E+00 -0.26915953143E+03  0.26915953143E+03  0.00000000000E+00 0.  1.
         21    1    1    2  503  501  0.13141955769E+02 -0.30471823241E+02 -0.16467841145E+02  0.37046360213E+02  0.00000000000E+00 0.  1.
         21    1    1    2  504  506  0.62307281832E+02  0.48170966442E+02 -0.57252387397E+02  0.97367732026E+02  0.00000000000E+00 0.  1.
         21    1    1    2  505  502 -0.60704075729E+02 -0.82272176694E+02 -0.94252952407E+02  0.13905867433E+03  0.00000000000E+00 0.  1.
         21    1    1    2  506  503 -0.14745161872E+02  0.64573033493E+02 -0.25793038690E+02  0.71080076660E+02  0.00000000000E+00 0.  1.
<scales pt_clust_3="33.18498" pt_clust_4="88.99603" pt_clust_5="14000.00000" pt_clust_6="54.92535"></scales>
<clustering>
<clus scale="   33.185">  1  3  2 -1</clus>
<clus scale="   54.925">  1  6  2 -1</clus>
<clus scale="   88.996">  2  4  1 -1</clus>
<clus scale="   33.185">  1  3  2 -1</clus>
</clustering>
</event>
<event>
 6    0  0.2908518E+002  0.2784153E+03  0.7546771E-02  0.1096558E+00
         21   -1    0    0  506  501  0.00000000000E+00  0.00000000000E+00  0.21081496805E+04  0.21081496805E+04  0.00000000000E+00 0.  1.
         21   -1    0    0  504  502 -0.00000000000E+00 -0.00000000000E+00 -0.35451509344E+03  0.35451509344E+03  0.00000000000E+00 0.  1.
         21    1    1    2  503  505  0.86125512950E+02 -0.30918748472E+02 -0.16460357784E+02  0.92975891318E+02  0.00000000000E+00 0.  1.
         21    1    1    2  504  501  0.51866135507E+02 -0.94747693217E+02  0.18128683346E+04  0.18160833737E+04  0.00000000000E+00 0.  1.
         21    1    1    2  505  502  0.12841348728E+03 -0.85943944074E+02 -0.13050214937E+03  0.20225527491E+03  0.00000000000E+00 0.  1.
         21    1    1    2  506  503 -0.26640513574E+03  0.21161038576E+03  0.87728759599E+02  0.35135023406E+03  0.00000000000E+00 0.  1.
<scales pt_clust_3="59.00776" pt_clust_4="108.01491" pt_clust_5="59.00776" pt_clust_6="267.64806"></scales>
<clustering>
<clus scale="   59.008">  3  5 -1 -1</clus>
<clus scale="  108.015">  1  4  2 -1</clus>
<clus scale="  267.648">  1  6  2 -1</clus>
<clus scale="  108.015">  1  3  2 -1</clus>
</clustering>
</event>
<event>
 6    0  0.2908518E+002  0.1163741E+03  0.7546771E-02  0.1249201E+00
         21   -1    0    0  503  501  0.00000000000E+00  0.00000000000E+00  0.99375720986E+03  0.99375720986E+03  0.00000000000E+00 0. -1.
         21   -1    0    0  504  502 -0.00000000000E+00 -0.00000000000E+00 -0.32148365578E+03  0.32148365578E+03  0.00000000000E+00 0. -1.
         21    1    1    2  503  506 -0.29726864300E+02  0.13590249018E+02  0.87260033644E+03  0.87321230436E+03  0.00000000000E+00 0. -1.
         21    1    1    2  504  505 -0.15070192390E+03 -0.85474850888E+02 -0.57864500619E+02  0.18266176511E+03  0.00000000000E+00 0. -1.
         21    1    1    2  505  501  0.79294080916E+02  0.58788396225E+02 -0.21267081951E+02  0.10097482644E+03  0.00000000000E+00 0. -1.
         21    1    1    2  506  502  0.10113470729E+03  0.13096205645E+02 -0.12119519979E+03  0.15839196972E+03  0.00000000000E+00 0. -1.
<scales pt_clust_3="32.68610" pt_clust_4="14000.00000" pt_clust_5="93.97919" pt_clust_6="116.37407"></scales>
<clustering>
<clus scale="   32.686">  1  3  2 -1</clus>
<clus scale="   93.979">  1  5  2 -1</clus>
<clus scale="  116.374">  2  6  1 -1</clus>
<clus scale="   32.686">  1  3  2 -1</clus>
</clustering>
</event>
<event>
 6    0  0.2908518E+002  0.8792515E+02  0.7546771E-02  0.1307955E+00
         21   -1    0    0  506  501  0.00000000000E+00  0.00000000000E+00  0.54817132797E+03  0.54817132797E+03  0.00000000000E+00 0.  1.
         21   -1    0    0  504  502 -0.00000000000E+00 -0.00000000000E+00 -0.64756027516E+02  0.64756027516E+02  0.00000000000E+00 0. -1.
         21    1    1    2  503  505  0.31434715579E+02  0.71652975770E+02  0.70888714138E+01  0.78565529198E+02  0.00000000000E+00 0. -1.
         21    1    1    2  504  503 -0.26139258041E+02  0.24022217700E+02  0.35036712285E+01  0.35673568174E+02  0.00000000000E+00 0. -1.
         21    1    1    2  505  501 -0.56068213939E+02 -0.98894248784E+01  0.13634019644E+03  0.14775010831E+03  0.00000000000E+00 0. -1.
         21    1    1    2  506  502  0.50772756402E+02 -0.85785768591E+02  0.33648256137E+03  0.35093814981E+03  0.00000000000E+00 0.  1.
<scales pt_clust_3="87.92515" pt_clust_4="35.50110" pt_clust_5="59.55370" pt_clust_6="14000.00000"></scales>
<clustering>
<clus scale="   35.501">  2  4  1 -1</clus>
<clus scale="   59.554">  1  5  2 -1</clus>
<clus scale="   87.925">  2  3  1 -1</clus>
<clus scale="   59.554">  1  3  2 -1</clus>
</clustering>
</event>
<event>
 6    0  0.2908518E+002  0.1926785E+03  0.7546771E-02  0.1156067E+00
         21   -1    0    0  504  501  0.00000000000E+00  0.00000000000E+00  0.14540135661E+03  0.14540135661E+03  0.00000000000E+00 0.  1.
         21   -1    0    0  506  502 -0.00000000000E+00 -0.00000000000E+00 -0.59752956073E+03  0.59752956073E+03  0.00000000000E+00 0.  1.
         21    1    1    2  503  502 -0.14527086472E+03  0.12401470053E+03 -0.40775541773E+03  0.45027519449E+03  0.00000000000E+00 0.  1.
         21    1    1    2  504  503 -0.26102807716E+01 -0.31728863105E+02  0.70663316306E+02  0.77503797268E+02  0.00000000000E+00 0.  1.
         21    1    1    2  505  501  0.50420383410E+02 -0.35286969399E+02 -0.12845589082E+02  0.62868071638E+02  0.00000000000E+00 0.  1.
         21    1    1    2  506  505  0.97460762081E+02 -0.56998868028E+02 -0.10219051361E+03  0.15228385395E+03  0.00000000000E+00 0.  1.
<scales pt_clust_3="185.61642" pt_clust_4="31.83605" pt_clust_5="39.16838" pt_clust_6="39.16838"></scales>
<clustering>
<clus scale="   31.836">  1  4  2 -1</clus>
<clus scale="   39.168">  5  6 -1 -1</clus>
<clus scale="  185.616">  2  3  1 -1</clus>
<clus scale="   31.836">  1  3  2 -1</clus>
</clustering>
</event>
<event>
 6    0  0.2908518E+002  0.1841580E+03  0.7546771E-02  0.1163839E+00
         21   -1    0    0  505  501  0.00000000000E+00  0.00000000000E+00  0.15806900197E+04  0.15806900197E+04  0.00000000000E+00 0.  1.
         21   -1    0    0  506  502 -0.00000000000E+00 -0.00000000000E+00 -0.92268266071E+02  0.92268266071E+02  0.00000000000E+00 0.  1.
         21    1    1    2  503  502 -0.52575536135E+02 -0.64353967119E+02  0.35559398447E+02  0.90388555148E+02  0.00000000000E+00 0.  1.
         21    1    1    2  504  503 -0.85935081921E+01 -0.74752796193E+02  0.30267551660E+02  0.81104584366E+02  0.00000000000E+00 0.  1.
         21    1    1    2  505  504  0.12078105893E+03  0.13660853072E+03  0.14297880703E+04  0.14413687525E+04  0.00000000000E+00 0.  1.
         21    1    1    2  506  501 -0.59612014602E+02  0.24982325956E+01 -0.71932667659E+01  0.60096393717E+02  0.00000000000E+00 0.  1.
<scales pt_clust_3="42.38863" pt_clust_4="42.38863" pt_clust_5="178.68908" pt_clust_6="59.66434"></scales>
<clustering>
<clus scale="   42.389">  3  4 -1 -1</clus>
<clus scale="   59.664">  2  6  1 -1</clus>
<clus scale="  178.689">  1  5  2 -1</clus>
<clus scale="  178.689">  1  3  2 -1</clus>
</clustering>
</event>
<event>
 6    0  0.2908518E+002  0.1093453E+03  0.7546771E-02  0.1261787E+00
         21   -1    0    0  506  501  0.00000000000E+00  0.00000000000E+00  0.10904595130E+03  0.10904595130E+03  0.00000000000E+00 0.  1.
         21   -1    0    0  504  502 -0.00000000000E+00 -0.00000000000E+00 -0.62755412194E+03  0.62755412194E+03  0.00000000000E+00 0.  1.
         21    1    1    2  503  501  0.31985739906E+02 -0.27138556659E+02  0.54049096225E+02  0.68417056481E+02  0.00000000000E+00 0.  1.
         21    1    1    2  504  505 -0.42235230911E+02  0.13325165616E+02 -0.98720565144E+02  0.10819946742E+03  0.00000000000E+00 0. -1.
         21    1    1    2  505  503  0.13244531318E+03  0.16363946805E+02 -0.38886244941E+03  0.41112473083E+03  0.00000000000E+00 0.  1.
         21    1    1    2  506  502 -0.12219582217E+03 -0.25505557620E+01 -0.84974252309E+02  0.14885881850E+03  0.00000000000E+00 0.  1.
<scales pt_clust_3="41.94745" pt_clust_4="40.48643" pt_clust_5="109.34532" pt_clust_6="14000.00000"></scales>
<clustering>
<clus scale="   41.947">  1  3  2 -1</clus>
<clus scale="   40.486">  2  4  1 -1</clus>
<clus scale="  109.345">  2  5  1 -1</clus>
<clus scale="   41.947">  1  3  2 -1</clus>
</clustering>
</event>
<event>
 6    0  0.2908518E+002  0.2274530E+03  0.7546771E-02  0.1128445E+00
         21   -1    0    0  505  501  0.00000000000E+00  0.00000000000E+00  0.29927421530E+03  0.29927421530E+03  0.00000000000E+00 0. -1.
         21   -1    0    0  503  502 -0.00000000000E+00 -0.00000000000E+00 -0.39154629039E+03  0.39154629039E+03  0.00000000000E+00 0. -1.
         21    1    1    2  503  504 -0.41616581566E+01 -0.65377559420E+02 -0.11641824287E+03  0.13358425037E+03  0.00000000000E+00 0.  1.
         21    1    1    2  504  506  0.20825404835E+02 -0.14942759036E+03 -0.14777675179E+03  0.21118776153E+03  0.00000000000E+00 0. -1.
         21    1    1    2  505  502  0.88386543709E+01 -0.40659062067E+02  0.10959613566E+02  0.43027831327E+02  0.00000000000E+00 0.  1.
         21    1    1    2  506  501 -0.25502401049E+02  0.25546421185E+03  0.16096330601E+03  0.30302066246E+03  0.00000000000E+00 0. -1.
<scales pt_clust_3="33.92008" pt_clust_4="33.92008" pt_clust_5="41.60867" pt_clust_6="221.55145"></scales>
<clustering>
<clus scale="   33.920">  3  4 -1 -1</clus>
<clus scale="   41.609">  1  5  2 -1</clus>
<clus scale="  221.551">  1  6  2 -1</clus>
<clus scale="   41.609">  1  3  2 -1</clus>
</clustering>
</event>
<event>
 6    0  0.2908518E+002  0.6755571E+02  0.7546771E-02  0.1368608E+00
         21   -1    0    0  504  501  0.00000000000E+00  0.00000000000E+00  0.69970543303E+02  0.69970543303E+02  0.00000000000E+00 0.  1.
         21   -1    0    0  506  502 -0.00000000000E+00 -0.00000000000E+00 -0.10092734735E+04  0.10092734735E+04  0.00000000000E+00 0.  1.
         21    1    1    2  503  502  0.38670339259E+02  0.32272396257E+01 -0.97734508567E+02  0.10515628549E+03  0.00000000000E+00 0.  1.
         21    1    1    2  504  503 -0.50120281260E+02 -0.55525840990E+02 -0.22937600195E+03  0.24126440243E+03  0.00000000000E+00 0. -1.
         21    1    1    2  505  501  0.64742648833E+02 -0.16330223024E+02  0.38016331113E+02  0.76834420628E+02  0.00000000000E+00 0.  1.
         21    1    1    2  506  505 -0.53292706831E+02  0.68628824388E+02 -0.65020875084E+03  0.65598890830E+03  0.00000000000E+00 0.  1.
<scales pt_clust_3="38.80477" pt_clust_4="14000.00000" pt_clust_5="67.55571" pt_clust_6="63.77969"></scales>
<clustering>
<clus scale="   38.805">  2  3  1 -1</clus>
<clus scale="   67.556">  1  5  2 -1</clus>
<clus scale="   63.780">  2  6  1 -1</clus>
<clus scale="   67.556">  1  3  2 -1</clus>
</clustering>
</event>
<event>
 6    0  0.2908518E+002  0.1645048E+03  0.7546771E-02  0.1183703E+00
         21   -1    0    0  505  501  0.00000000000E+00  0.00000000000E+00  0.65233165799E+02  0.65233165799E+02  0.00000000000E+00 0. -1.
         21   -1    0    0  506  502 -0.00000000000E+00 -0.00000000000E+00 -0.20515567624E+04  0.20515567624E+04  0.00000000000E+00 0. -1.
         21    1    1    2  503  502  0.75282456013E+02 -0.14585127147E+03 -0.83140231750E+03  0.84744902804E+03  0.00000000000E+00 0. -1.
         21    1    1    2  504  501  0.29087499483E+02  0.16520214737E+02  0.36889274048E+02  0.49797777671E+02  0.00000000000E+00 0. -1.
         21    1    1    2  505  503 -0.78978234988E+02 -0.38177374885E+02 -0.34741896231E+03  0.35832249292E+03  0.00000000000E+00 0. -1.
         21    1    1    2  506  504 -0.25391720508E+02  0.16750843162E+03 -0.84439159083E+03  0.86122062957E+03  0.00000000000E+00 0. -1.
<scales pt_clust_3="164.50481" pt_clust_4="33.45146" pt_clust_5="79.41044" pt_clust_6="14000.00000"></scales>
<clustering>
<clus scale="   33.451">  1  4  2 -1</clus>
<clus scale="   79.410">  1  5  2 -1</clus>
<clus scale="  164.505">  2  3  1 -1</clus>
<clus scale="   33.451">  1  3  2 -1</clus>
</clustering>
</event>
<event>
 6    0  0.2908518E+002  0.2243812E+03  0.7546771E-02  0.1130658E+00
         21   -1    0    0  506  501  0.00000000000E+00  0.00000000000E+00  0.24823116248E+03  0.24823116248E+03  0.00000000000E+00 0. -1.
         21   -1    0    0  505  502 -0.00000000000E+00 -0.00000000000E+00 -0.37152264276E+03  0.37152264276E+03  0.00000000000E+00 0. -1.
         21    1    1    2  503  504 -0.37120011015E+02 -0.91259099224E+02 -0.41241853398E+02  0.10680359957E+03  0.00000000000E+00 0. -1.
         21    1    1    2  504  501 -0.74494804470E+02 -0.39457686501E+02  0.84868643069E+01  0.84725508454E+02  0.00000000000E+00 0. -1.
         21    1    1    2  505  503 -0.13123384427E+03  0.19603916941E+02 -0.91469115209E+02  0.16116213724E+03  0.00000000000E+00 0. -1.
         21    1    1    2  506  502  0.24284865976E+03  0.11111286878E+03  0.93262401477E+00  0.26706255998E+03  0.00000000000E+00 0. -1.
<scales pt_clust_3="72.04330" pt_clust_4="72.04330" pt_clust_5="132.69000" pt_clust_6="210.43093"></scales>
<clustering>
<clus scale="   72.043">  3  4 -1 -1</clus>
<clus scale="  132.690">  2  5  1 -1</clus>
<clus scale="  210.431">  2  6  1 -1</clus>
<clus scale="  224.381">  1  3  2 -1</clus>
</clustering>
</event>
<event>
 6    0  0.2908518E+002  0.9579247E+02  0.7546771E-02  0.1289401E+00
         21   -1    0    0  503  501  0.00000000000E+00  0.00000000000E+00  0.25525024483E+03  0.25525024483E+03  0.00000000000E+00 0. -1.
         21   -1    0    0  504  502 -0.00000000000E+00 -0.00000000000E+00 -0.12152598693E+03  0.12152598693E+03  0.00000000000E+00 0.  1.
         21    1    1    2  503  505 -0.88859442039E+01  0.39697790903E+02  0.10064762270E+03  0.10855790419E+03  0.00000000000E+00 0. -1.
         21    1    1    2  504  501  0.38722568730E+02 -0.92543702797E+02  0.14694580743E+01  0.10032912620E+03  0.00000000000E+00 0.  1.
         21    1    1    2  505  506 -0.90620125634E+02  0.47812377336E+02  0.30441656338E+02  0.10688650540E+03  0.00000000000E+00 0.  1.
         21    1    1    2  506  502  0.60783501108E+02  0.50335345586E+01  0.11655207879E+01  0.61002695972E+02  0.00000000000E+00 0.  1.
<scales pt_clust_3="40.68015" pt_clust_4="14000.00000" pt_clust_5="95.79247" pt_clust_6="60.41518"></scales>
<clustering>
<clus scale="   40.680">  1  3  2 -1</clus>
<clus scale="   60.415">  2  6  1 -1</clus>
<clus scale="   95.792">  2  5  1 -1</clus>
<clus scale="   40.680">  1  3  2 -1</clus>
</clustering>
</event>
<event>
 6    0  0.2908518E+002  0.7643079E+02  0.7546771E-02  0.1339497E+00
         21   -1    0    0  506  501  0.00000000000E+00  0.00000000000E+00  0.11110027712E+03  0.11110027712E+03  0.00000000000E+00 0.  1.
         21   -1    0    0  503  502 -0.00000000000E+00 -0.00000000000E+00 -0.20168574315E+03  0.20168574315E+03  0.00000000000E+00 0.  1.
         21    1    1    2  503  505  0.52172734319E+02  0.25000844601E+02 -0.21795419514E+02  0.61822946782E+02  0.00000000000E+00 0.  1.
         21    1    1    2  504  502 -0.83625192471E+02 -0.43046905955E+02 -0.97603533595E+02  0.13554578082E+03  0.00000000000E+00 0.  1.
         21    1    1    2  505  501  0.69414108041E+00  0.58584585353E+02  0.37908124054E+01  0.58711206183E+02  0.00000000000E+00 0.  1.
         21    1    1    2  506  504  0.30758317071E+02 -0.40538523998E+02  0.25022674669E+02  0.56706086486E+02  0.00000000000E+00 0. -1.
<scales pt_clust_3="76.43079" pt_clust_4="14000.00000" pt_clust_5="43.02160" pt_clust_6="50.88660"></scales>
<clustering>
<clus scale="   50.887">  1  6  2 -1</clus>
<clus scale="   43.022">  1  5  2 -1</clus>
<clus scale="   76.431">  1  3  2 -1</clus>
<clus scale="   50.887">  1  3  2 -1</clus>
</clustering>
</event>
<event>
 6    0  0.2908518E+002  0.1337333E+03  0.7546771E-02  0.1222019E+00
         21   -1    0    0  505  501  0.00000000000E+00  0.00000000000E+00  0.85873209762E+03  0.85873209762E+03  0.00000000000E+00 0. -1.
         21   -1    0    0  503  502 -0.00000000000E+00 -0.00000000000E+00 -0.20380910687E+03  0.20380910687E+03  0.00000000000E+00 0.  1.
         21    1    1    2  503  504 -0.12617615179E+03  0.75277212776E+02 -0.13414672513E+03  0.19895332092E+03  0.00000000000E+00 0.  1.
         21    1    1    2  504  506  0.14547232357E+03 -0.16807194703E+02  0.35641055911E+03  0.38532215790E+03  0.00000000000E+00 0. -1.
         21    1    1    2  505  502  0.13449261580E+01 -0.33505237522E+02 -0.95547986399E+01  0.34866946308E+02  0.00000000000E+00 0. -1.
         21    1    1    2  506  501 -0.20641097939E+02 -0.24964780550E+02  0.44221395540E+03  0.44339877937E+03  0.00000000000E+00 0. -1.
<scales pt_clust_3="133.73332" pt_clust_4="14000.00000" pt_clust_5="34.27238" pt_clust_6="32.39283"></scales>
<clustering>
<clus scale="   32.393">  1  6  2 -1</clus>
<clus scale="   34.272">  2  5  1 -1</clus>
<clus scale="  133.733">  2  3  1 -1</clus>
<clus scale="   32.393">  1  3  2 -1</clus>
</clustering>
</event>
<event>
 6    0  0.2908518E+002  0.9577713E+02  0.7546771E-02  0.1289435E+00
         21   -1    0    0  506  501  0.00000000000E+00  0.00000000000E+00  0.57072839360E+03  0.57072839360E+03  0.00000000000E+00 0. -1.
         21   -1    0    0  504  502 -0.00000000000E+00 -0.00000000000E+00 -0.35612610234E+03  0.35612610234E+03  0.00000000000E+00 0. -1.
         21    1    1    2  503  501  0.29458623472E+02 -0.22487021298E+02  0.49946873961E+03  0.50084178986E+03  0.00000000000E+00 0. -1.
         21    1    1    2  504  503 -0.58002115149E+02  0.26278665589E+02 -0.18782585247E+03  0.19832640894E+03  0.00000000000E+00 0. -1.
         21    1    1    2  505  502 -0.78888724362E+01  0.74318434924E+02 -0.11735879349E+03  0.13913500813E+03  0.00000000000E+00 0. -1.
         21    1    1    2  506  505  0.36432364114E+02 -0.78110079215E+02  0.20318197614E+02  0.88551289003E+02  0.00000000000E+00 0. -1.
<scales pt_clust_3="37.06045" pt_clust_4="60.99393" pt_clust_5="14000.00000" pt_clust_6="95.77713"></scales>
<clustering>
<clus scale="   37.060">  1  3  2 -1</clus>
<clus scale="   60.994">  2  4  1 -1</clus>
<clus scale="   95.777">  1  6  2 -1</clus>
<clus scale="   37.060">  1  3  2 -1</clus>
</clustering>
</event>
<event>
 6    0  0.2908518E+002  0.3808622E+03  0.7546771E-02  0.1050616E+00
         21   -1    0    0  503  501  0.00000000000E+00  0.00000000000E+00  0.39123784634E+03  0.39123784634E+03  0.00000000000E+00 0.  1.
         21   -1    0    0  505  502 -0.00000000000E+00 -0.00000000000E+00 -0.73298390562E+03  0.73298390562E+03  0.00000000000E+00 0.  1.
         21    1    1    2  503  504  0.24307104603E+03 -0.14729848550E+03 -0.24927811411E+03  0.37804755709E+03  0.00000000000E+00 0.  1.
         21    1    1    2  504  502  0.96319832766E+02 -0.60143956300E+02 -0.35513203574E+02  0.11897896155E+03  0.00000000000E+00 0.  1.
         21    1    1    2  505  506 -0.31771174508E+03  0.14385461947E+03 -0.24585251818E+03  0.42670641571E+03  0.00000000000E+00 0.  1.
         21    1    1    2  506  501 -0.21679133714E+02  0.63587822326E+02  0.18889777658E+03  0.20048881761E+03  0.00000000000E+00 0.  1.
<scales pt_clust_3="55.50409" pt_clust_4="55.50409" pt_clust_5="370.60124" pt_clust_6="67.18181"></scales>
<clustering>
<clus scale="   55.504">  3  4 -1 -1</clus>
<clus scale="   67.182">  1  6  2 -1</clus>
<clus scale="  370.601">  2  5  1 -1</clus>
<clus scale="   67.182">  1  3  2 -1</clus>
</clustering>
</event>
<event>
 6    0  0.2908518E+002  0.1884362E+03  0.7546771E-02  0.1159879E+00
         21   -1    0    0  503  501  0.00000000000E+00  0.00000000000E+00  0.20376148248E+03  0.20376148248E+03  0.00000000000E+00 0.  1.
         21   -1    0    0  501  502 -0.00000000000E+00 -0.00000000000E+00 -0.58969962961E+03  0.58969962961E+03  0.00000000000E+00 0.  1.
         21    1    1    2  503  504 -0.65504629572E+02 -0.16936152018E+03  0.13801167782E+03  0.22808201206E+03  0.00000000000E+00 0.  1.
         21    1    1    2  504  505  0.52391603888E+02  0.38733007843E+02 -0.14150683619E+03  0.15578610574E+03  0.00000000000E+00 0.  1.
         21    1    1    2  505  506  0.18647185398E+02  0.99781950271E+02 -0.19797680833E+03  0.22248364381E+03  0.00000000000E+00 0.  1.
         21    1    1    2  506  502 -0.55341597136E+01  0.30846562067E+02 -0.18446618043E+03  0.18710935048E+03  0.00000000000E+00 0.  1.
<scales pt_clust_3="178.61202" pt_clust_4="46.80474" pt_clust_5="46.80474" pt_clust_6="31.33907"></scales>
<clustering>
<clus scale="   31.339">  2  6  1 -1</clus>
<clus scale="   46.805">  4  5 -1 -1</clus>
<clus scale="  178.612">  1  3  2 -1</clus>
<clus scale="  178.612">  1  3  2 -1</clus>
</clustering>
</event>
<event>
 6    0  0.3503424E+002  0.1383265E+03  0.7546771E-02  0.1215599E+00
         21   -1    0    0  506  501  0.00000000000E+00  0.00000000000E+00  0.57689842609E+03  0.57689842609E+03  0.00000000000E+00 0. -1.
         21   -1    0    0  503  502 -0.00000000000E+00 -0.00000000000E+00 -0.36921543198E+03  0.36921543198E+03  0.00000000000E+00 0.  1.
         21    1    1    2  503  504 -0.50709897964E+01 -0.36431982393E+02  0.34994930063E+02  0.50770556514E+02  0.00000000000E+00 0. -1.
         21    1    1    2  504  501 -0.80007012599E+02 -0.76181519242E+02  0.21138483975E+03  0.23851267558E+03  0.00000000000E+00 0. -1.
         21    1    1    2  505  502  0.49780717308E+02  0.11610722257E+03 -0.33519911015E+03  0.35821425208E+03  0.00000000000E+00 0.  1.
         21    1    1    2  506  505  0.35297285088E+02 -0.34937209302E+01  0.29650233446E+03  0.29861637390E+03  0.00000000000E+00 0. -1.
<scales pt_clust_3="31.92832" pt_clust_4="31.92832" pt_clust_5="126.77733" pt_clust_6="35.46977"></scales>
<clustering>
<clus scale="   31.928">  3  4 -1 -1</clus>
<clus scale="   35.470">  1  6  2 -1</clus>
<clus scale="  126.777">  2  5  1 -1</clus>
<clus scale="   35.470">  1  3  2 -1</clus>
</clustering>
</event>
<event>
 6    0  0.2908518E+002  0.1343733E+03  0.7546771E-02  0.1221107E+00
         21   -1    0    0  503  501  0.00000000000E+00  0.00000000000E+00  0.53526047568E+03  0.53526047568E+03  0.00000000000E+00 0.  1.
         21   -1    0    0  504  502 -0.00000000000E+00 -0.00000000000E+00 -0.60725702002E+02  0.60725702002E+02  0.00000000000E+00 0.  1.
         21    1    1    2  503  502  0.93072400636E+02  0.63480211128E+02  0.97745406273E+02  0.14915218206E+03  0.00000000000E+00 0.  1.
         21    1    1    2  504  506 -0.95442389151E+02 -0.94990373466E+00  0.71783672802E+02  0.11942800193E+03  0.00000000000E+00 0.  1.
         21    1    1    2  505  501  0.28760051498E+02 -0.23483245869E+02  0.25864626196E+03  0.26129770803E+03  0.00000000000E+00 0.  1.
         21    1    1    2  506  505 -0.26390062982E+02 -0.39047061524E+02  0.46359432645E+02  0.66108285661E+02  0.00000000000E+00 0.  1.
<scales pt_clust_3="118.46166" pt_clust_4="47.60302" pt_clust_5="37.12955" pt_clust_6="47.60302"></scales>
<clustering>
<clus scale="   37.130">  1  5  2 -1</clus>
<clus scale="   47.603">  4  6 -1 -1</clus>
<clus scale="  118.462">  2  3  1 -1</clus>
<clus scale="   37.130">  1  3  2 -1</clus>
</clustering>
</event>
<event>
 6    0  0.2908518E+002  0.9815316E+02  0.7546771E-02  0.1284228E+00
         21   -1    0    0  506  501  0.00000000000E+00  0.00000000000E+00  0.52691266808E+02  0.52691266808E+02  0.00000000000E+00 0.  1.
         21   -1    0    0  504  502 -0.00000000000E+00 -0.00000000000E+00 -0.22144173574E+04  0.22144173574E+04  0.00000000000E+00 0. -1.
         21    1    1    2  503  502 -0.54456652365E+00 -0.15752614380E+03 -0.54301143289E+03  0.56539914996E+03  0.00000000000E+00 0.  1.
         21    1    1    2  504  505  0.59487822974E+02  0.72554737721E+02 -0.13757553603E+04  0.13789509790E+04  0.00000000000E+00 0. -1.
         21    1    1    2  505  501 -0.29356721155E+02  0.38956202529E+02  0.21059887940E+02  0.53131174206E+02  0.00000000000E+00 0.  1.
         21    1    1    2  506  503 -0.29586535295E+02  0.46015203552E+02 -0.26401918534E+03  0.26962732104E+03  0.00000000000E+00 0.  1.
<scales pt_clust_3="14000.00000" pt_clust_4="98.15316" pt_clust_5="48.77912" pt_clust_6="63.45559"></scales>
<clustering>
<clus scale="   48.779">  1  5  2 -1</clus>
<clus scale="   63.456">  1  6  2 -1</clus>
<clus scale="   98.153">  2  4  1 -1</clus>
<clus scale="   48.779">  1  3  2 -1</clus>
</clustering>
</event>
<event>
 6    0  0.2908518E+002  0.2300167E+03  0.7546771E-02  0.1126628E+00
         21   -1    0    0  503  501  0.00000000000E+00  0.00000000000E+00  0.16176052037E+04  0.16176052037E+04  0.00000000000E+00 0. -1.
         21   -1    0    0  505  502 -0.00000000000E+00 -0.00000000000E+00 -0.81621517764E+02  0.81621517764E+02  0.00000000000E+00 0. -1.
         21    1    1    2  503  502 -0.51009752404E+02 -0.34305143479E+02  0.65047926502E+03  0.65337746513E+03  0.00000000000E+00 0. -1.
         21    1    1    2  504  506 -0.61855575682E+02  0.31451559429E+01  0.28114727424E+02  0.68017954593E+02  0.00000000000E+00 0.  1.
         21    1    1    2  505  504 -0.12963886518E+03  0.93630761788E+02  0.12248981985E+03  0.20143661754E+03  0.00000000000E+00 0. -1.
         21    1    1    2  506  501  0.24250419327E+03 -0.62470774252E+02  0.73489987360E+03  0.77639468417E+03  0.00000000000E+00 0. -1.
<scales pt_clust_3="61.47225" pt_clust_4="38.80668" pt_clust_5="38.80668" pt_clust_6="221.40311"></scales>
<clustering>
<clus scale="   38.807">  4  5 -1 -1</clus>
<clus scale="   61.472">  1  3  2 -1</clus>
<clus scale="  221.403">  1  6  2 -1</clus>
<clus scale="   61.472">  1  3  2 -1</clus>
</clustering>
</event>
<event>
 6    0  0.2908518E+002  0.3161695E+03  0.7546771E-02  0.1077426E+00
         21   -1    0    0  506  501  0.00000000000E+00  0.00000000000E+00  0.32764656309E+04  0.32764656309E+04  0.00000000000E+00 0.  1.
         21   -1    0    0  505  502 -0.00000000000E+00 -0.00000000000E+00 -0.21698852298E+03  0.21698852298E+03  0.00000000000E+00 0. -1.
         21    1    1    2  503  502  0.16550901417E+03  0.71724674697E+02  0.61155791292E+02  0.19046704057E+03  0.00000000000E+00 0.  1.
         21    1    1    2  504  503  0.14035217837E+02  0.55123108708E+02  0.86558484534E+00  0.56888431957E+02  0.00000000000E+00 0.  1.
         21    1    1    2  505  501 -0.17301523226E+03 -0.26899544525E+03  0.30698350855E+04  0.30864510805E+04  0.00000000000E+00 0.  1.
         21    1    1    2  506  504 -0.65289997499E+01  0.14214766184E+03 -0.72379353732E+02  0.15964760084E+03  0.00000000000E+00 0. -1.
<scales pt_clust_3="180.38199" pt_clust_4="33.46464" pt_clust_5="311.70761" pt_clust_6="33.46464"></scales>
<clustering>
<clus scale="   33.465">  4  6 -1 -1</clus>
<clus scale="  180.382">  2  3  1 -1</clus>
<clus scale="  311.708">  1  5  2 -1</clus>
<clus scale="  311.708">  1  3  2 -1</clus>
</clustering>
</event>
<event>
 6    0  0.2908518E+002  0.1717489E+03  0.7546771E-02  0.1176036E+00
         21   -1    0    0  506  501  0.00000000000E+00  0.00000000000E+00  0.64347848522E+03  0.64347848522E+03  0.00000000000E+00 0. -1.
         21   -1    0    0  504  502 -0.00000000000E+00 -0.00000000000E+00 -0.23327118366E+03  0.23327118366E+03  0.00000000000E+00 0. -1.
         21    1    1    2  503  501 -0.63526629176E+02  0.78782429828E+01  0.49756183503E+03  0.50166271438E+03  0.00000000000E+00 0. -1.
         21    1    1    2  504  505 -0.32638270969E+02  0.10245043138E+03 -0.54161942953E+02  0.12039461652E+03  0.00000000000E+00 0. -1.
         21    1    1    2  505  503 -0.45857377065E+02  0.21975211189E+02 -0.32949285296E+02  0.60592609612E+02  0.00000000000E+00 0. -1.
         21    1    1    2  506  502  0.14202227721E+03 -0.13230388555E+03 -0.24330521465E+00  0.19409972837E+03  0.00000000000E+00 0. -1.
<scales pt_clust_3="64.01327" pt_clust_4="40.82801" pt_clust_5="40.82801" pt_clust_6="161.16135"></scales>
<clustering>
<clus scale="   40.828">  4  5 -1 -1</clus>
<clus scale="   64.013">  1  3  2 -1</clus>
<clus scale="  161.161">  1  6  2 -1</clus>
<clus scale="   64.013">  1  3  2 -1</clus>
</clustering>
</event>
<event>
 6    0  0.2908518E+002  0.7737774E+02  0.7546771E-02  0.1336662E+00
         21   -1    0    0  504  501  0.00000000000E+00  0.00000000000E+00  0.38067721124E+03  0.38067721124E+03  0.00000000000E+00 0.  1.
         21   -1    0    0  506  502 -0.00000000000E+00 -0.00000000000E+00 -0.18924387333E+04  0.18924387333E+04  0.00000000000E+00 0.  1.
         21    1    1    2  503  502  0.10386328715E+03  0.73823002952E+02 -0.85937642015E+03  0.86877226573E+03  0.00000000000E+00 0.  1.
         21    1    1    2  504  503 -0.68008474115E+02 -0.24221714234E+02 -0.11229441129E+03  0.13349860973E+03  0.00000000000E+00 0.  1.
         21    1    1    2  505  501  0.20830083781E+02 -0.30125353152E+02  0.36346395271E+03  0.36530463208E+03  0.00000000000E+00 0.  1.
         21    1    1    2  506  505 -0.56684896813E+02 -0.19475935566E+02 -0.90355464337E+03  0.90554043706E+03  0.00000000000E+00 0.  1.
<scales pt_clust_3="77.37774" pt_clust_4="14000.00000" pt_clust_5="36.62553" pt_clust_6="59.37230"></scales>
<clustering>
<clus scale="   36.626">  1  5  2 -1</clus>
<clus scale="   59.372">  2  6  1 -1</clus>
<clus scale="   77.378">  2  3  1 -1</clus>
<clus scale="   36.626">  1  3  2 -1</clus>
</clustering>
</event>
<event>
 6    0  0.2908518E+002  0.2261695E+03  0.7546771E-02  0.1129365E+00
         21   -1    0    0  505  501  0.00000000000E+00  0.00000000000E+00  0.45853852667E+03  0.45853852667E+03  0.00000000000E+00 0. -1.
         21   -1    0    0  506  502 -0.00000000000E+00 -0.00000000000E+00 -0.16678040239E+03  0.16678040239E+03  0.00000000000E+00 0. -1.
         21    1    1    2  503  502 -0.37450430095E+02 -0.15578548439E+03  0.20325798764E+03  0.25881549684E+03  0.00000000000E+00 0. -1.
         21    1    1    2  504  501  0.77380049144E+02  0.11576981204E+03 -0.42389062875E+02  0.14555807788E+03  0.00000000000E+00 0. -1.
         21    1    1    2  505  503 -0.70366642187E+01 -0.37865784298E+02  0.13085239866E+03  0.13640264843E+03  0.00000000000E+00 0. -1.
         21    1    1    2  506  504 -0.32892954830E+02  0.77881456657E+02  0.36800853248E-01  0.84542705911E+02  0.00000000000E+00 0. -1.
<scales pt_clust_3="211.11047" pt_clust_4="84.18374" pt_clust_5="34.97097" pt_clust_6="84.18374"></scales>
<clustering>
<clus scale="   34.971">  3  5 -1 -1</clus>
<clus scale="   84.184">  4  6 -1 -1</clus>
<clus scale="  211.110">  1  3  2 -1</clus>
<clus scale="  211.110">  1  3  2 -1</clus>
</clustering>
</event>
<event>
 6    0  0.2908518E+002  0.1018160E+03  0.7546771E-02  0.1276523E+00
         21   -1    0    0  505  501  0.00000000000E+00  0.00000000000E+00  0.91998756282E+02  0.91998756282E+02  0.00000000000E+00 0.  1.
         21   -1    0    0  503  502 -0.00000000000E+00 -0.00000000000E+00 -0.83459947977E+03  0.83459947977E+03  0.00000000000E+00 0.  1.
         21    1    1    2  503  501 -0.94408540975E+02  0.27941377231E+01 -0.39472884728E+03  0.40587146080E+03  0.00000000000E+00 0.  1.
         21    1    1    2  504  506  0.27582924965E+02 -0.58394162279E+02 -0.24245916487E+03  0.25091261938E+03  0.00000000000E+00 0.  1.
         21    1    1    2  505  504  0.21741913321E+02  0.94375255223E+02  0.45945949243E+02  0.10719342258E+03  0.00000000000E+00 0.  1.
         21    1    1    2  506  502  0.45083702688E+02 -0.38775230667E+02 -0.15135866058E+03  0.16262073328E+03  0.00000000000E+00 0.  1.
<scales pt_clust_3="94.44988" pt_clust_4="33.17158" pt_clust_5="95.76779" pt_clust_6="33.17158"></scales>
<clustering>
<clus scale="   33.172">  4  6 -1 -1</clus>
<clus scale="   94.450">  2  3  1 -1</clus>
<clus scale="   95.768">  1  5  2 -1</clus>
<clus scale="   95.768">  1  3  2 -1</clus>
</clustering>
</event>
<event>
 6    0  0.2908518E+002  0.1315641E+03  0.7546771E-02  0.1225153E+00
         21   -1    0    0  504  501  0.00000000000E+00  0.00000000000E+00  0.57997276667E+03  0.57997276667E+03  0.00000000000E+00 0.  1.
         21   -1    0    0  505  502 -0.00000000000E+00 -0.00000000000E+00 -0.35247120640E+03  0.35247120640E+03  0.00000000000E+00 0. -1.
         21    1    1    2  503  501 -0.61160824960E+02  0.57203671408E+01 -0.52283364489E+02  0.80665477822E+02  0.00000000000E+00 0. -1.
         21    1    1    2  504  506 -0.93304648287E+01 -0.41665243643E+02  0.53393750076E+03  0.53564195580E+03  0.00000000000E+00 0.  1.
         21    1    1    2  505  503 -0.33921806432E+02 -0.44676148947E+02 -0.76440791873E+02  0.94814776794E+02  0.00000000000E+00 0.  1.
         21    1    1    2  506  502  0.10441309622E+03  0.80621025449E+02 -0.17771178412E+03  0.22132176265E+03  0.00000000000E+00 0. -1.
<scales pt_clust_3="60.34220" pt_clust_4="42.69719" pt_clust_5="60.34220" pt_clust_6="116.80742"></scales>
<clustering>
<clus scale="   42.697">  1  4  2 -1</clus>
<clus scale="   60.342">  3  5 -1 -1</clus>
<clus scale="  116.807">  1  6  2 -1</clus>
<clus scale="   42.697">  1  3  2 -1</clus>
</clustering>
</event>
<event>
 6    0  0.2908518E+002  0.1202667E+03  0.7546771E-02  0.1242658E+00
         21   -1    0    0  505  501  0.00000000000E+00  0.00000000000E+00  0.18362737487E+03  0.18362737487E+03  0.00000000000E+00 0. -1.
         21   -1    0    0  506  502 -0.00000000000E+00 -0.00000000000E+00 -0.27436993580E+03  0.27436993580E+03  0.00000000000E+00 0. -1.
         21    1    1    2  503  501  0.11112552396E+03  0.37053534973E+02  0.96082732386E+02  0.15150491078E+03  0.00000000000E+00 0. -1.
         21    1    1    2  504  502  0.10924724758E+02 -0.28567328724E+02 -0.46695266494E+02  0.55820155808E+02  0.00000000000E+00 0. -1.
         21    1    1    2  505  504  0.30289184645E+02 -0.38228196390E+02 -0.14204829625E+02  0.50799674116E+02  0.00000000000E+00 0. -1.
         21    1    1    2  506  503 -0.15233943336E+03  0.29741990141E+02 -0.12592519720E+03  0.19987256996E+03  0.00000000000E+00 0. -1.
<scales pt_clust_3="14000.00000" pt_clust_4="30.58499" pt_clust_5="53.04028" pt_clust_6="120.26668"></scales>
<clustering>
<clus scale="   30.585">  2  4  1 -1</clus>
<clus scale="   53.040">  2  5  1 -1</clus>
<clus scale="  120.267">  2  6  1 -1</clus>
<clus scale="  120.267">  1  3  2 -1</clus>
</clustering>
</event>
<event>
 6    0  0.2908518E+002  0.1281346E+03  0.7546771E-02  0.1230250E+00
         21   -1    0    0  505  501  0.00000000000E+00  0.00000000000E+00  0.51380022207E+03  0.51380022207E+03  0.00000000000E+00 0.  1.
         21   -1    0    0  506  502 -0.00000000000E+00 -0.00000000000E+00 -0.58523602521E+03  0.58523602521E+03  0.00000000000E+00 0.  1.
         21    1    1    2  503  501 -0.79717065302E+01  0.60593917182E+02 -0.35722832632E+03  0.36241860884E+03  0.00000000000E+00 0.  1.
         21    1    1    2  504  502 -0.41375623320E+02  0.13627160780E+02 -0.38434352682E+02  0.58093383291E+02  0.00000000000E+00 0. -1.
         21    1    1    2  505  504 -0.61698476036E+01 -0.12960310557E+03  0.48370736642E+03  0.50080719676E+03  0.00000000000E+00 0.  1.
         21    1    1    2  506  503  0.55517177454E+02  0.55382027606E+02 -0.15948049056E+03  0.17771705839E+03  0.00000000000E+00 0.  1.
<scales pt_clust_3="128.13464" pt_clust_4="43.56193" pt_clust_5="14000.00000" pt_clust_6="73.26569"></scales>
<clustering>
<clus scale="   43.562">  2  4  1 -1</clus>
<clus scale="   73.266">  2  6  1 -1</clus>
<clus scale="  128.135">  2  3  1 -1</clus>
<clus scale="  128.135">  1  3  2 -1</clus>
</clustering>
</event>
<event>
 6    0  0.3464438E+002  0.2359516E+03  0.7546771E-02  0.1122519E+00
         21   -1    0    0  506  501  0.00000000000E+00  0.00000000000E+00  0.11700465689E+04  0.11700465689E+04  0.00000000000E+00 0. -1.
         21   -1    0    0  503  502 -0.00000000000E+00 -0.00000000000E+00 -0.15314757685E+03  0.15314757685E+03  0.00000000000E+00 0. -1.
         21    1    1    2  503  505  0.11474045989E+03  0.10921173183E+03 -0.50435756338E+02  0.16624181491E+03  0.00000000000E+00 0. -1.
         21    1    1    2  504  501 -0.16012259138E+02 -0.32474015670E+02  0.43944564005E+03  0.44093471705E+03  0.00000000000E+00 0. -1.
         21    1    1    2  505  504  0.60089612561E+02  0.42648885806E+02  0.19811677708E+02  0.76303286769E+02  0.00000000000E+00 0. -1.
         21    1    1    2  506  502 -0.15881781332E+03 -0.11938660197E+03  0.60807743061E+03  0.63971432700E+03  0.00000000000E+00 0. -1.
<scales pt_clust_3="44.27414" pt_clust_4="36.20710" pt_clust_5="44.27414" pt_clust_6="226.73790"></scales>
<clustering>
<clus scale="   36.207">  1  4  2 -1</clus>
<clus scale="   44.274">  3  5 -1 -1</clus>
<clus scale="  226.738">  1  6  2 -1</clus>
<clus scale="   36.207">  1  3  2 -1</clus>
</clustering>
</event>
<event>
 6    0  0.2908518E+002  0.1361371E+03  0.7546771E-02  0.1218623E+00
         21   -1    0    0  503  501  0.00000000000E+00  0.00000000000E+00  0.16714540823E+03  0.16714540823E+03  0.00000000000E+00 0.  1.
         21   -1    0    0  504  502 -0.00000000000E+00 -0.00000000000E+00 -0.34935773211E+03  0.34935773211E+03  0.00000000000E+00 0.  1.
         21    1    1    2  503  505 -0.40544788255E+02 -0.12546385282E+03 -0.18458838704E+02  0.13313822496E+03  0.00000000000E+00 0.  1.
         21    1    1    2  504  506  0.39711539333E+02  0.17040836806E+03 -0.10920765582E+03  0.20625792191E+03  0.00000000000E+00 0.  1.
         21    1    1    2  505  502 -0.22706108735E+02 -0.67915719279E+02 -0.98766596021E+02  0.12199570807E+03  0.00000000000E+00 0. -1.
         21    1    1    2  506  501  0.23539357657E+02  0.22971204034E+02  0.44220766667E+02  0.55111285398E+02  0.00000000000E+00 0. -1.
<scales pt_clust_3="14000.00000" pt_clust_4="136.13711" pt_clust_5="68.73517" pt_clust_6="32.89039"></scales>
<clustering>
<clus scale="   32.890">  1  6  2 -1</clus>
<clus scale="   68.735">  2  5  1 -1</clus>
<clus scale="  136.137">  2  4  1 -1</clus>
<clus scale="   32.890">  1  3  2 -1</clus>
</clustering>
</event>
<event>
 6    0  0.2908518E+002  0.7292279E+02  0.7546771E-02  0.1350427E+00
         21   -1    0    0  506  501  0.00000000000E+00  0.00000000000E+00  0.25807096203E+04  0.25807096203E+04  0.00000000000E+00 0.  1.
         21   -1    0    0  503  502 -0.00000000000E+00 -0.00000000000E+00 -0.26251325164E+03  0.26251325164E+03  0.00000000000E+00 0. -1.
         21    1    1    2  503  501  0.54135346926E+02 -0.90153510274E+01  0.86777852344E+01  0.55562723993E+02  0.00000000000E+00 0. -1.
         21    1    1    2  504  505 -0.32670533220E+02 -0.68974373622E+02 -0.15684564796E+03  0.17442873972E+03  0.00000000000E+00 0. -1.
         21    1    1    2  505  502 -0.45288403223E+02  0.90781159059E+01 -0.65593286395E+02  0.80224253658E+02  0.00000000000E+00 0. -1.
         21    1    1    2  506  504  0.23823589517E+02  0.68911608743E+02  0.25319575178E+04  0.25330071546E+04  0.00000000000E+00 0.  1.
<scales pt_clust_3="49.17353" pt_clust_4="72.92279" pt_clust_5="46.18930" pt_clust_6="14000.00000"></scales>
<clustering>
<clus scale="   46.189">  2  5  1 -1</clus>
<clus scale="   49.174">  2  3  1 -1</clus>
<clus scale="   72.923">  2  4  1 -1</clus>
<clus scale="   72.923">  1  3  2 -1</clus>
</clustering>
</event>
<event>
 6    0  0.2908518E+002  0.1107719E+03  0.7546771E-02  0.1259147E+00
         21   -1    0    0  505  501  0.00000000000E+00  0.00000000000E+00  0.54356269074E+03  0.54356269074E+03  0.00000000000E+00 0. -1.
         21   -1    0    0  501  502 -0.00000000000E+00 -0.00000000000E+00 -0.54043629972E+02  0.54043629972E+02  0.00000000000E+00 0. -1.
         21    1    1    2  503  504 -0.63940579364E+02 -0.20560319392E+02  0.60818327297E+02  0.90609013669E+02  0.00000000000E+00 0. -1.
         21    1    1    2  504  506 -0.53358466546E+02 -0.53816831371E+02  0.86975804568E+02  0.11536103272E+03  0.00000000000E+00 0. -1.
         21    1    1    2  505  503  0.38655917575E+02  0.34207237383E+02  0.27796148420E+03  0.28271363913E+03  0.00000000000E+00 0. -1.
         21    1    1    2  506  502  0.78643128335E+02  0.40169913380E+02  0.63763444702E+02  0.10892263518E+03  0.00000000000E+00 0. -1.
<scales pt_clust_3="33.80607" pt_clust_4="33.80607" pt_clust_5="51.61797" pt_clust_6="104.78972"></scales>
<clustering>
<clus scale="   33.806">  3  4 -1 -1</clus>
<clus scale="   51.618">  1  5  2 -1</clus>
<clus scale="  104.790">  2  6  1 -1</clus>
<clus scale="   51.618">  1  3  2 -1</clus>
</clustering>
</event>
<event>
 6    0  0.2908518E+002  0.1886669E+03  0.7546771E-02  0.1159669E+00
         21   -1    0    0  506  501  0.00000000000E+00  0.00000000000E+00  0.20619691590E+03  0.20619691590E+03  0.00000000000E+00 0. -1.
         21   -1    0    0  505  502 -0.00000000000E+00 -0.00000000000E+00 -0.34166763140E+03  0.34166763140E+03  0.00000000000E+00 0. -1.
         21    1    1    2  503  502  0.20723472503E+03  0.62606444508E+01 -0.21682992314E+03  0.30000107083E+03  0.00000000000E+00 0. -1.
         21    1    1    2  504  503 -0.66710381013E+02  0.12883053020E+02 -0.11641620955E+01  0.67952948894E+02  0.00000000000E+00 0. -1.
         21    1    1    2  505  501 -0.61620299962E+02  0.73836206117E+00  0.76618709645E+02  0.98326157322E+02  0.00000000000E+00 0. -1.
         21    1    1    2  506  504 -0.78904044056E+02 -0.19882059532E+02  0.59046600992E+01  0.81584370259E+02  0.00000000000E+00 0. -1.
<scales pt_clust_3="185.76544" pt_clust_4="30.11841" pt_clust_5="61.62472" pt_clust_6="30.11841"></scales>
<clustering>
<clus scale="   30.118">  4  6 -1 -1</clus>
<clus scale="   61.625">  1  5  2 -1</clus>
<clus scale="  185.765">  2  3  1 -1</clus>
<clus scale="   61.625">  1  3  2 -1</clus>
</clustering>
</event>
<event>
 6    0  0.2908518E+002  0.6740951E+02  0.7546771E-02  0.1369130E+00
         21   -1    0    0  503  501  0.00000000000E+00  0.00000000000E+00  0.86581577584E+03  0.86581577584E+03  0.00000000000E+00 0. -1.
         21   -1    0    0  506  502 -0.00000000000E+00 -0.00000000000E+00 -0.66327848706E+02  0.66327848706E+02  0.00000000000E+00 0.  1.
         21    1    1    2  503  502  0.53394530478E+02  0.19737454612E+01  0.54424151607E+02  0.76268340970E+02  0.00000000000E+00 0.  1.
         21    1    1    2  504  501  0.65548336399E+02  0.13060881674E+02  0.68945601810E+03  0.69268807694E+03  0.00000000000E+00 0. -1.
         21    1    1    2  505  504 -0.82637987050E+02  0.30972479308E+02  0.56110463984E+02  0.10457875285E+03  0.00000000000E+00 0.  1.
         21    1    1    2  506  505 -0.36304879827E+02 -0.46007106444E+02 -0.50270655542E+00  0.58608453797E+02  0.00000000000E+00 0.  1.
<scales pt_clust_3="53.43100" pt_clust_4="14000.00000" pt_clust_5="67.40951" pt_clust_6="45.62970"></scales>
<clustering>
<clus scale="   53.431">  2  3  1 -1</clus>
<clus scale="   45.630">  2  6  1 -1</clus>
<clus scale="   67.410">  2  5  1 -1</clus>
<clus scale="   67.410">  1  3  2 -1</clus>
</clustering>
</event>
<event>
 6    0  0.2908518E+002  0.9530244E+02  0.7546771E-02  0.1290496E+00
         21   -1    0    0  505  501  0.00000000000E+00  0.00000000000E+00  0.13728844086E+03  0.13728844086E+03  0.00000000000E+00 0. -1.
         21   -1    0    0  503  502 -0.00000000000E+00 -0.00000000000E+00 -0.49313737179E+03  0.49313737179E+03  0.00000000000E+00 0. -1.
         21    1    1    2  503  504  0.35038639999E+02  0.75319226139E+01 -0.59566202644E+02  0.69516678924E+02  0.00000000000E+00 0. -1.
         21    1    1    2  504  506  0.22682429489E+02  0.74119678692E+02 -0.37602040719E+03  0.38392651119E+03  0.00000000000E+00 0. -1.
         21    1    1    2  505  502 -0.72267548865E+01 -0.98069678156E+02  0.26613422612E+02  0.10187326452E+03  0.00000000000E+00 0. -1.
         21    1    1    2  506  501 -0.50494314601E+02  0.16418076851E+02  0.53124256289E+02  0.75109358010E+02  0.00000000000E+00 0. -1.
<scales pt_clust_3="35.83903" pt_clust_4="95.30244" pt_clust_5="14000.00000" pt_clust_6="52.30356"></scales>
<clustering>
<clus scale="   35.839">  2  3  1 -1</clus>
<clus scale="   52.304">  1  6  2 -1</clus>
<clus scale="   95.302">  2  4  1 -1</clus>
<clus scale="   52.304">  1  3  2 -1</clus>
</clustering>
</event>
<event>
 6    0  0.2908518E+002  0.9099496E+02  0.7546771E-02  0.1300460E+00
         21   -1    0    0  503  501  0.00000000000E+00  0.00000000000E+00  0.91362328553E+03  0.91362328553E+03  0.00000000000E+00 0.  1.
         21   -1    0    0  506  502 -0.00000000000E+00 -0.00000000000E+00 -0.62555443337E+02  0.62555443337E+02  0.00000000000E+00 0.  1.
         21    1    1    2  503  505  0.86582101415E+01 -0.12593365043E+03  0.72289662349E+03  0.73383497952E+03  0.00000000000E+00 0.  1.
         21    1    1    2  504  501  0.54440997490E+01  0.33820100404E+02  0.12378640309E+03  0.12843874416E+03  0.00000000000E+00 0.  1.
         21    1    1    2  505  502 -0.27317753770E+02  0.64069272392E+02  0.27862469441E+02  0.75016321819E+02  0.00000000000E+00 0.  1.
         21    1    1    2  506  504  0.13215443880E+02  0.28044277629E+02 -0.23477653826E+02  0.38888683365E+02  0.00000000000E+00 0.  1.
<scales pt_clust_3="90.99496" pt_clust_4="36.46975" pt_clust_5="14000.00000" pt_clust_6="31.00209"></scales>
<clustering>
<clus scale="   31.002">  2  6  1 -1</clus>
<clus scale="   36.470">  1  4  2 -1</clus>
<clus scale="   90.995">  1  3  2 -1</clus>
<clus scale="   36.470">  1  3  2 -1</clus>
</clustering>
</event>
<event>
 6    0  0.2908518E+002  0.1486663E+03  0.7546771E-02  0.1202121E+00
         21   -1    0    0  505  501  0.00000000000E+00  0.00000000000E+00  0.66082338831E+03  0.66082338831E+03  0.00000000000E+00 0. -1.
         21   -1    0    0  503  502 -0.00000000000E+00 -0.00000000000E+00 -0.15192057352E+03  0.15192057352E+03  0.00000000000E+00 0.  1.
         21    1    1    2  503  506  0.49977087995E+02  0.37551866687E+02 -0.24809258506E+02  0.67255864605E+02  0.00000000000E+00 0.  1.
         21    1    1    2  504  501 -0.58633956998E+02 -0.13102917479E+03  0.58905948377E+03  0.60629832671E+03  0.00000000000E+00 0. -1.
         21    1    1    2  505  502 -0.31805040152E+02  0.76897155928E+01 -0.17073590959E+02  0.36907991184E+02  0.00000000000E+00 0.  1.
         21    1    1    2  506  504  0.40461909155E+02  0.85787592512E+02 -0.38273819510E+02  0.10228177932E+03  0.00000000000E+00 0.  1.
<scales pt_clust_3="30.06728" pt_clust_4="143.97908" pt_clust_5="32.72143" pt_clust_6="30.06728"></scales>
<clustering>
<clus scale="   30.067">  3  6 -1 -1</clus>
<clus scale="   32.721">  2  5  1 -1</clus>
<clus scale="  143.979">  1  4  2 -1</clus>
<clus scale="  143.979">  1  3  2 -1</clus>
</clustering>
</event>
<event>
 6    0  0.2908518E+002  0.1159751E+03  0.7546771E-02  0.1249889E+00
         21   -1    0    0  505  501  0.00000000000E+00  0.00000000000E+00  0.44786309312E+03  0.44786309312E+03  0.00000000000E+00 0.  1.
         21   -1    0    0  503  502 -0.00000000000E+00 -0.00000000000E+00 -0.92354017388E+02  0.92354017388E+02  0.00000000000E+00 0. -1.
         21    1    1    2  503  506 -0.30964708762E+02 -0.62176990102E+02 -0.32561755319E+02  0.76714139481E+02  0.00000000000E+00 0. -1.
         21    1    1    2  504  502 -0.34006640563E+02  0.10972208714E+03  0.30006721821E+03  0.32130316440E+03  0.00000000000E+00 0.  1.
         21    1    1    2  505  504  0.51289385350E+02 -0.70170840389E+01  0.84738980847E+02  0.99300228565E+02  0.00000000000E+00 0.  1.
         21    1    1    2  506  501  0.13681963976E+02 -0.40528013002E+02  0.32646319971E+01  0.42899578065E+02  0.00000000000E+00 0. -1.
<scales pt_clust_3="40.03032" pt_clust_4="104.15424" pt_clust_5="51.76718" pt_clust_6="40.03032"></scales>
<clustering>
<clus scale="   40.030">  3  6 -1 -1</clus>
<clus scale="   51.767">  1  5  2 -1</clus>
<clus scale="  104.154">  1  4  2 -1</clus>
<clus scale="   51.767">  1  3  2 -1</clus>
</clustering>
</event>
<event>
 6    0  0.2908518E+002  0.1655407E+03  0.7546771E-02  0.1182580E+00
         21   -1    0    0  503  501  0.00000000000E+00  0.00000000000E+00  0.20238738207E+04  0.20238738207E+04  0.00000000000E+00 0.  1.
         21   -1    0    0  504  502 -0.00000000000E+00 -0.00000000000E+00 -0.31095100694E+03  0.31095100694E+03  0.00000000000E+00 0. -1.
         21    1    1    2  503  502  0.43454449061E+02 -0.35547534959E+02  0.16137802033E+04  0.16147564711E+04  0.00000000000E+00 0.  1.
         21    1    1    2  504  506  0.45808428357E+02 -0.14817572449E+03 -0.26060506249E+03  0.30326466334E+03  0.00000000000E+00 0. -1.
         21    1    1    2  505  501 -0.82404113632E+02  0.12260605254E+03  0.23229086079E+03  0.27528480900E+03  0.00000000000E+00 0. -1.
         21    1    1    2  506  505 -0.68587637862E+01  0.61117206903E+02  0.12745681215E+03  0.14151888420E+03  0.00000000000E+00 0. -1.
<scales pt_clust_3="56.14193" pt_clust_4="157.54014" pt_clust_5="32.80423" pt_clust_6="32.80423"></scales>
<clustering>
<clus scale="   32.804">  5  6 -1 -1</clus>
<clus scale="   56.142">  1  3  2 -1</clus>
<clus scale="  157.540">  2  4  1 -1</clus>
<clus scale="   56.142">  1  3  2 -1</clus>
</clustering>
</event>
<event>
 6    0  0.2908518E+002  0.9886417E+02  0.7546771E-02  0.1282703E+00
         21   -1    0    0  505  501  0.00000000000E+00  0.00000000000E+00  0.58984368864E+03  0.58984368864E+03  0.00000000000E+00 0.  1.
         21   -1    0    0  504  502 -0.00000000000E+00 -0.00000000000E+00 -0.10211971532E+03  0.10211971532E+03  0.00000000000E+00 0.  1.
         21    1    1    2  503  501  0.51932353628E+02  0.84053904375E+02  0.45328472742E+03  0.46392787403E+03  0.00000000000E+00 0.  1.
         21    1    1    2  504  503  0.28365400000E+02 -0.15549380355E+02 -0.24727880055E+02  0.40716669788E+02  0.00000000000E+00 0.  1.
         21    1    1    2  505  506 -0.18852391331E+02 -0.10384697029E+03  0.46401470706E+02  0.11529398242E+03  0.00000000000E+00 0.  1.
         21    1    1    2  506  502 -0.61445362297E+02  0.35342446274E+02  0.12765655257E+02  0.72024877721E+02  0.00000000000E+00 0. -1.
<scales pt_clust_3="14000.00000" pt_clust_4="32.34778" pt_clust_5="98.86417" pt_clust_6="57.07711"></scales>
<clustering>
<clus scale="   32.348">  2  4  1 -1</clus>
<clus scale="   57.077">  2  6  1 -1</clus>
<clus scale="   98.864">  2  5  1 -1</clus>
<clus scale="   98.864">  1  3  2 -1</clus>
</clustering>
</event>
<event>
 6    0  0.2908518E+002  0.8365941E+02  0.7546771E-02  0.1318976E+00
         21   -1    0    0  505  501  0.00000000000E+00  0.00000000000E+00  0.70319999552E+03  0.70319999552E+03  0.00000000000E+00 0. -1.
         21   -1    0    0  504  502 -0.00000000000E+00 -0.00000000000E+00 -0.10551737509E+03  0.10551737509E+03  0.00000000000E+00 0.  1.
         21    1    1    2  503  501  0.42276022218E+02  0.12133196367E+02  0.56918448125E+03  0.57088129257E+03  0.00000000000E+00 0. -1.
         21    1    1    2  504  503  0.80620488377E+02 -0.24204959204E+02  0.41573716613E+02  0.93882464333E+02  0.00000000000E+00 0.  1.
         21    1    1    2  505  506 -0.46316586838E+02 -0.21525284688E+02  0.18849314771E+02  0.54441351605E+02  0.00000000000E+00 0.  1.
         21    1    1    2  506  502 -0.76579923757E+02  0.33597047524E+02 -0.31924892196E+02  0.89512262103E+02  0.00000000000E+00 0.  1.
<scales pt_clust_3="43.98268" pt_clust_4="14000.00000" pt_clust_5="39.16188" pt_clust_6="83.65941"></scales>
<clustering>
<clus scale="   43.983">  1  3  2 -1</clus>
<clus scale="   39.162">  1  5  2 -1</clus>
<clus scale="   83.659">  2  6  1 -1</clus>
<clus scale="   43.983">  1  3  2 -1</clus>
</clustering>
</event>
<event>
 6    0  0.2908518E+002  0.3218690E+03  0.7546771E-02  0.1074792E+00
         21   -1    0    0  502  501  0.00000000000E+00  0.00000000000E+00  0.56075926952E+03  0.56075926952E+03  0.00000000000E+00 0. -1.
         21   -1    0    0  503  502 -0.00000000000E+00 -0.00000000000E+00 -0.28532452045E+03  0.28532452045E+03  0.00000000000E+00 0. -1.
         21    1    1    2  503  506  0.63611820560E+02  0.30773129813E+03 -0.41311380462E+02  0.31694107610E+03  0.00000000000E+00 0. -1.
         21    1    1    2  504  501 -0.18919351719E+02  0.31172869971E+02  0.41404935006E+02  0.55172985551E+02  0.00000000000E+00 0. -1.
         21    1    1    2  505  504 -0.40547607789E+02  0.58842874582E+01  0.28496882162E+02  0.49907971601E+02  0.00000000000E+00 0.  1.
         21    1    1    2  506  505 -0.41448610517E+01 -0.34478845556E+03  0.24684431237E+03  0.42406175672E+03  0.00000000000E+00 0. -1.
<scales pt_clust_3="321.86905" pt_clust_4="33.30309" pt_clust_5="78.45855" pt_clust_6="14000.00000"></scales>
<clustering>
<clus scale="   33.303">  4  5 -1 -1</clus>
<clus scale="   78.459">  1  4  2 -1</clus>
<clus scale="  321.869">  2  3  1 -1</clus>
<clus scale="   78.459">  1  3  2 -1</clus>
</clustering>
</event>
<event>
 6    0  0.2908518E+002  0.1235447E+03  0.7546771E-02  0.1237361E+00
         21   -1    0    0  504  501  0.00000000000E+00  0.00000000000E+00  0.31335271077E+03  0.31335271077E+03  0.00000000000E+00 0. -1.
         21   -1    0    0  505  502 -0.00000000000E+00 -0.00000000000E+00 -0.41148420062E+03  0.41148420062E+03  0.00000000000E+00 0.  1.
         21    1    1    2  503  501  0.34856082339E+02  0.11724270594E+03  0.26876120251E+03  0.29528525623E+03  0.00000000000E+00 0. -1.
         21    1    1    2  504  506  0.24480680681E+02 -0.50544597213E+02 -0.47774328606E+02  0.73732262327E+02  0.00000000000E+00 0.  1.
         21    1    1    2  505  503 -0.51065259798E+02 -0.27663826419E+02 -0.30933062766E+03  0.31473542105E+03  0.00000000000E+00 0.  1.
         21    1    1    2  506  502 -0.82715032228E+01 -0.39034282303E+02 -0.97877360805E+01  0.41083971790E+02  0.00000000000E+00 0.  1.
<scales pt_clust_3="116.96597" pt_clust_4="33.52849" pt_clust_5="58.07709" pt_clust_6="33.52849"></scales>
<clustering>
<clus scale="   33.528">  4  6 -1 -1</clus>
<clus scale="   58.077">  2  5  1 -1</clus>
<clus scale="  116.966">  1  3  2 -1</clus>
<clus scale="  116.966">  1  3  2 -1</clus>
</clustering>
</event>
<event>
 6    0  0.2908518E+002  0.9748661E+02  0.7546771E-02  0.1285672E+00
         21   -1    0    0  506  501  0.00000000000E+00  0.00000000000E+00  0.89529652039E+03  0.89529652039E+03  0.00000000000E+00 0. -1.
         21   -1    0    0  505  502 -0.00000000000E+00 -0.00000000000E+00 -0.69720859197E+02  0.69720859197E+02  0.00000000000E+00 0.  1.
         21    1    1    2  503  502 -0.10442699737E+03  0.59131971137E+02  0.74306412044E+02  0.14114896621E+03  0.00000000000E+00 0.  1.
         21    1    1    2  504  501 -0.20014094509E+02 -0.36049361597E+02  0.21089182914E+02  0.46312785347E+02  0.00000000000E+00 0. -1.
         21    1    1    2  505  504  0.27627089873E+02 -0.27288190850E+02 -0.21028932252E+01  0.38888605203E+02  0.00000000000E+00 0.  1.
         21    1    1    2  506  503  0.96814002009E+02  0.42055813111E+01  0.73228295946E+03  0.73866702283E+03  0.00000000000E+00 0. -1.
<scales pt_clust_3="14000.00000" pt_clust_4="44.94268" pt_clust_5="38.83171" pt_clust_6="97.48661"></scales>
<clustering>
<clus scale="   38.832">  2  5  1 -1</clus>
<clus scale="   44.943">  2  4  1 -1</clus>
<clus scale="   97.487">  1  6  2 -1</clus>
<clus scale="   97.487">  1  3  2 -1</clus>
</clustering>
</event>
<event>
 6    0  0.2908518E+002  0.1097124E+03  0.7546771E-02  0.1261103E+00
         21   -1    0    0  504  501  0.00000000000E+00  0.00000000000E+00  0.80109829923E+03  0.80109829923E+03  0.00000000000E+00 0.  1.
         21   -1    0    0  506  502 -0.00000000000E+00 -0.00000000000E+00 -0.37178530982E+03  0.37178530982E+03  0.00000000000E+00 0. -1.
         21    1    1    2  503  501 -0.11307454480E+03  0.40413426385E+02 -0.75885895505E+02  0.14204846655E+03  0.00000000000E+00 0. -1.
         21    1    1    2  504  505  0.26026576356E+02 -0.81776222136E+02  0.72507596410E+03  0.73013689600E+03  0.00000000000E+00 0.  1.
         21    1    1    2  505  502  0.10817920271E+03 -0.42718774496E+02 -0.10434357078E+03  0.15625368590E+03  0.00000000000E+00 0. -1.
         21    1    1    2  506  503 -0.21131234269E+02  0.84081570247E+02 -0.11553350842E+03  0.14444456059E+03  0.00000000000E+00 0. -1.
<scales pt_clust_3="14000.00000" pt_clust_4="85.81802" pt_clust_5="109.71237" pt_clust_6="69.85637"></scales>
<clustering>
<clus scale="   85.818">  1  4  2 -1</clus>
<clus scale="   69.856">  2  6  1 -1</clus>
<clus scale="  109.712">  2  5  1 -1</clus>
<clus scale="   85.818">  1  3  2 -1</clus>
</clustering>
</event>
<event>
 6    0  0.2908518E+002  0.2569149E+03  0.7546771E-02  0.1109011E+00
         21   -1    0    0  506  501  0.00000000000E+00  0.00000000000E+00  0.44783038827E+03  0.44783038827E+03  0.00000000000E+00 0. -1.
         21   -1    0    0  505  502 -0.00000000000E+00 -0.00000000000E+00 -0.26781311857E+03  0.26781311857E+03  0.00000000000E+00 0.  1.
         21    1    1    2  503  504  0.36223539878E+02  0.33460076892E+02 -0.22197230657E+02  0.54078079068E+02  0.00000000000E+00 0.  1.
         21    1    1    2  504  501  0.99407800446E+02  0.17795189084E+03  0.31126090521E+02  0.20619801104E+03  0.00000000000E+00 0.  1.
         21    1    1    2  505  503  0.99281598141E+02 -0.10015773477E+03 -0.54944686593E+01  0.14113325884E+03  0.00000000000E+00 0.  1.
         21    1    1    2  506  502 -0.23491293846E+03 -0.11125423297E+03  0.17658287850E+03  0.31423415790E+03  0.00000000000E+00 0. -1.
<scales pt_clust_3="33.26146" pt_clust_4="33.26146" pt_clust_5="141.02627" pt_clust_6="247.85527"></scales>
<clustering>
<clus scale="   33.261">  3  4 -1 -1</clus>
<clus scale="  141.026">  2  5  1 -1</clus>
<clus scale="  247.855">  1  6  2 -1</clus>
<clus scale="  247.855">  1  3  2 -1</clus>
</clustering>
</event>
<event>
 6    0  0.2908518E+002  0.2151054E+03  0.7546771E-02  0.1137586E+00
         21   -1    0    0  506  501  0.00000000000E+00  0.00000000000E+00  0.17108412349E+03  0.17108412349E+03  0.00000000000E+00 0. -1.
         21   -1    0    0  504  502 -0.00000000000E+00 -0.00000000000E+00 -0.27331575606E+04  0.27331575606E+04  0.00000000000E+00 0. -1.
         21    1    1    2  503  502  0.45993954965E+02 -0.21334328648E+03 -0.17319329264E+04  0.17456295321E+04  0.00000000000E+00 0. -1.
         21    1    1    2  504  501  0.52844509448E+01  0.36703621809E+02  0.15230671059E+03  0.15675591014E+03  0.00000000000E+00 0. -1.
         21    1    1    2  505  503 -0.68197042595E+02  0.14552722774E+03 -0.81810039985E+03  0.83373693386E+03  0.00000000000E+00 0. -1.
         21    1    1    2  506  505  0.16918636686E+02  0.31112436935E+02 -0.16434682136E+03  0.16811930791E+03  0.00000000000E+00 0. -1.
<scales pt_clust_3="203.93129" pt_clust_4="37.08209" pt_clust_5="32.12169" pt_clust_6="32.12169"></scales>
<clustering>
<clus scale="   32.122">  5  6 -1 -1</clus>
<clus scale="   37.082">  1  4  2 -1</clus>
<clus scale="  203.931">  2  3  1 -1</clus>
<clus scale="   37.082">  1  3  2 -1</clus>
</clustering>
</event>
<event>
 6    0  0.2908518E+002  0.1535773E+03  0.7546771E-02  0.1196145E+00
         21   -1    0    0  504  501  0.00000000000E+00  0.00000000000E+00  0.69054602495E+03  0.69054602495E+03  0.00000000000E+00 0. -1.
         21   -1    0    0  506  502 -0.00000000000E+00 -0.00000000000E+00 -0.31591112435E+03  0.31591112435E+03  0.00000000000E+00 0. -1.
         21    1    1    2  503  505  0.38772209126E+02 -0.34129618707E+02  0.41919223188E+02  0.66523201564E+02  0.00000000000E+00 0. -1.
         21    1    1    2  504  502 -0.11878413071E+03  0.77923809585E+02 -0.24077503080E+03  0.27956109397E+03  0.00000000000E+00 0. -1.
         21    1    1    2  505  501  0.61456066088E+01 -0.37085197744E+02  0.58422205619E+03  0.58543017629E+03  0.00000000000E+00 0. -1.
         21    1    1    2  506  503  0.73866314974E+02 -0.67089931334E+01 -0.10731347994E+02  0.74942677470E+02  0.00000000000E+00 0. -1.
<scales pt_clust_3="63.83029" pt_clust_4="137.48205" pt_clust_5="37.59096" pt_clust_6="63.83029"></scales>
<clustering>
<clus scale="   37.591">  1  5  2 -1</clus>
<clus scale="   63.830">  3  6 -1 -1</clus>
<clus scale="  137.482">  2  4  1 -1</clus>
<clus scale="   37.591">  1  3  2 -1</clus>
</clustering>
</event>
<event>
 6    0  0.2908518E+002  0.9833008E+02  0.7546771E-02  0.1283847E+00
         21   -1    0    0  504  501  0.00000000000E+00  0.00000000000E+00  0.45405646417E+02  0.45405646417E+02  0.00000000000E+00 0. -1.
         21   -1    0    0  506  502 -0.00000000000E+00 -0.00000000000E+00 -0.84296929517E+03  0.84296929517E+03  0.00000000000E+00 0. -1.
         21    1    1    2  503  502 -0.34465616294E+02 -0.85714781430E+01 -0.33877714611E+03  0.34063367959E+03  0.00000000000E+00 0. -1.
         21    1    1    2  504  503 -0.29503635550E+02 -0.21333122928E+02  0.66532816446E+01  0.37011252358E+02  0.00000000000E+00 0.  1.
         21    1    1    2  505  501 -0.71507159772E+02  0.15292202119E+02 -0.14089657266E+03  0.15874183296E+03  0.00000000000E+00 0. -1.
         21    1    1    2  506  505  0.13547641162E+03  0.14612398952E+02 -0.32454321163E+03  0.35198817668E+03  0.00000000000E+00 0. -1.
<scales pt_clust_3="35.51547" pt_clust_4="37.40433" pt_clust_5="14000.00000" pt_clust_6="98.33008"></scales>
<clustering>
<clus scale="   35.515">  2  3  1 -1</clus>
<clus scale="   37.404">  1  4  2 -1</clus>
<clus scale="   98.330">  2  6  1 -1</clus>
<clus scale="   37.404">  1  3  2 -1</clus>
</clustering>
</event>
<event>
 6    0  0.2908518E+002  0.1168667E+03  0.7546771E-02  0.1248357E+00
         21   -1    0    0  504  501  0.00000000000E+00  0.00000000000E+00  0.51464109811E+02  0.51464109811E+02  0.00000000000E+00 0.  1.
         21   -1    0    0  506  502 -0.00000000000E+00 -0.00000000000E+00 -0.38381163003E+03  0.38381163003E+03  0.00000000000E+00 0.  1.
         21    1    1    2  503  502  0.98416575912E+01  0.39741697479E+02 -0.72801052923E+02  0.83523972902E+02  0.00000000000E+00 0. -1.
         21    1    1    2  504  503 -0.10809951315E+03 -0.41746991746E+02 -0.74719015154E+02  0.13788127969E+03  0.00000000000E+00 0.  1.
         21    1    1    2  505  501  0.49152186484E+02  0.86070494906E+00 -0.48893826974E+02  0.69334584194E+02  0.00000000000E+00 0.  1.
         21    1    1    2  506  505  0.49105669078E+02  0.11445893171E+01 -0.13593362517E+03  0.14453590305E+03  0.00000000000E+00 0.  1.
<scales pt_clust_3="40.94216" pt_clust_4="108.33766" pt_clust_5="41.76039" pt_clust_6="41.76039"></scales>
<clustering>
<clus scale="   40.942">  2  3  1 -1</clus>
<clus scale="   41.760">  5  6 -1 -1</clus>
<clus scale="  108.338">  1  4  2 -1</clus>
<clus scale="  108.338">  1  3  2 -1</clus>
</clustering>
</event>
<event>
 6    0  0.2908518E+002  0.8658186E+02  0.7546771E-02  0.1311347E+00
         21   -1    0    0  503  501  0.00000000000E+00  0.00000000000E+00  0.27884991207E+03  0.27884991207E+03  0.00000000000E+00 0.  1.
         21   -1    0    0  506  502 -0.00000000000E+00 -0.00000000000E+00 -0.42094097101E+03  0.42094097101E+03  0.00000000000E+00 0.  1.
         21    1    1    2  503  502 -0.41793337942E+02  0.91786329639E+02 -0.17186368917E+03  0.19927002048E+03  0.00000000000E+00 0.  1.
         21    1    1    2  504  501 -0.37971731608E+02 -0.78782660082E+02  0.23535631404E+03  0.25107997629E+03  0.00000000000E+00 0.  1.
         21    1    1    2  505  504  0.42321878927E+02 -0.14023560278E+02 -0.44015760451E+01  0.44801512814E+02  0.00000000000E+00 0.  1.
         21    1    1    2  506  505  0.37443190623E+02  0.10198907215E+01 -0.20118210776E+03  0.20463937350E+03  0.00000000000E+00 0.  1.
<scales pt_clust_3="14000.00000" pt_clust_4="86.58186" pt_clust_5="48.58035" pt_clust_6="37.45708"></scales>
<clustering>
<clus scale="   37.457">  2  6  1 -1</clus>
<clus scale="   48.580">  2  5  1 -1</clus>
<clus scale="   86.582">  1  4  2 -1</clus>
<clus scale="   86.582">  1  3  2 -1</clus>
</clustering>
</event>
<event>
 6    0  0.2908518E+002  0.1418309E+03  0.7546771E-02  0.1210886E+00
         21   -1    0    0  504  501  0.00000000000E+00  0.00000000000E+00  0.24388923449E+04  0.24388923449E+04  0.00000000000E+00 0. -1.
         21   -1    0    0  506  502 -0.00000000000E+00 -0.00000000000E+00 -0.93739313809E+02  0.93739313809E+02  0.00000000000E+00 0.  1.
         21    1    1    2  503  502  0.51945420358E+02  0.72437904191E+01  0.19305726606E+02  0.55888373349E+02  0.00000000000E+00 0.  1.
         21    1    1    2  504  503  0.55668163439E+02 -0.10634173134E+03 -0.20971182424E+02  0.12184949215E+03  0.00000000000E+00 0.  1.
         21    1    1    2  505  501 -0.13947379592E+01  0.35790896819E+02  0.13444527020E+04  0.13449297385E+04  0.00000000000E+00 0. -1.
         21    1    1    2  506  505 -0.10621884584E+03  0.63307044104E+02  0.10023657849E+04  0.10099640547E+04  0.00000000000E+00 0. -1.
<scales pt_clust_3="52.58471" pt_clust_4="14000.00000" pt_clust_5="35.81806" pt_clust_6="141.83090"></scales>
<clustering>
<clus scale="   35.818">  1  5  2 -1</clus>
<clus scale="   52.585">  2  3  1 -1</clus>
<clus scale="  141.831">  1  6  2 -1</clus>
<clus scale="   35.818">  1  3  2 -1</clus>
</clustering>
</event>
<event>
 6    0  0.2908518E+002  0.1059768E+03  0.7546771E-02  0.1268207E+00
         21   -1    0    0  505  501  0.00000000000E+00  0.00000000000E+00  0.14722446829E+04  0.14722446829E+04  0.00000000000E+00 0.  1.
         21   -1    0    0  504  502 -0.00000000000E+00 -0.00000000000E+00 -0.49972082832E+03  0.49972082832E+03  0.00000000000E+00 0.  1.
         21    1    1    2  503  501 -0.63350319375E+02 -0.61400215945E+01 -0.61433385844E+02  0.88459164174E+02  0.00000000000E+00 0. -1.
         21    1    1    2  504  503  0.29609992629E+02 -0.31249050736E+02 -0.27931319656E+03  0.28261124643E+03  0.00000000000E+00 0.  1.
         21    1    1    2  505  506  0.36617077644E+02  0.10012731899E+03  0.14481717336E+04  0.14520907893E+04  0.00000000000E+00 0.  1.
         21    1    1    2  506  502 -0.28767508980E+01 -0.62738246660E+02 -0.13490129653E+03  0.14880431141E+03  0.00000000000E+00 0.  1.
<scales pt_clust_3="55.80915" pt_clust_4="43.04945" pt_clust_5="14000.00000" pt_clust_6="105.97676"></scales>
<clustering>
<clus scale="   43.049">  2  4  1 -1</clus>
<clus scale="   55.809">  2  3  1 -1</clus>
<clus scale="  105.977">  2  6  1 -1</clus>
<clus scale="  105.977">  1  3  2 -1</clus>
</clustering>
</event>
<event>
 6    0  0.2908518E+002  0.1033042E+03  0.7546771E-02  0.1273497E+00
         21   -1    0    0  505  501  0.00000000000E+00  0.00000000000E+00  0.21362959388E+04  0.21362959388E+04  0.00000000000E+00 0.  1.
         21   -1    0    0  503  502 -0.00000000000E+00 -0.00000000000E+00 -0.37149081862E+02  0.37149081862E+02  0.00000000000E+00 0.  1.
         21    1    1    2  503  506 -0.60621663670E+01  0.31801296388E+02  0.10343033778E+03  0.10837853610E+03  0.00000000000E+00 0.  1.
         21    1    1    2  504  501 -0.22929466299E+01  0.33634421345E+02  0.12875658972E+04  0.12880071706E+04  0.00000000000E+00 0.  1.
         21    1    1    2  505  502 -0.57190875737E+02  0.48918038183E+02  0.22062966371E+02  0.78425411776E+02  0.00000000000E+00 0.  1.
         21    1    1    2  506  504  0.65545988734E+02 -0.11435375592E+03  0.68608765560E+03  0.69863390220E+03  0.00000000000E+00 0.  1.
<scales pt_clust_3="32.37394" pt_clust_4="33.91700" pt_clust_5="14000.00000" pt_clust_6="103.30420"></scales>
<clustering>
<clus scale="   32.374">  2  3  1 -1</clus>
<clus scale="   33.917">  1  4  2 -1</clus>
<clus scale="  103.304">  1  6  2 -1</clus>
<clus scale="   33.917">  1  3  2 -1</clus>
</clustering>
</event>
<event>
 6    0  0.2908518E+002  0.7011950E+02  0.7546771E-02  0.1359687E+00
         21   -1    0    0  505  501  0.00000000000E+00  0.00000000000E+00  0.20448003998E+03  0.20448003998E+03  0.00000000000E+00 0. -1.
         21   -1    0    0  506  502 -0.00000000000E+00 -0.00000000000E+00 -0.46399789572E+03  0.46399789572E+03  0.00000000000E+00 0. -1.
         21    1    1    2  503  501 -0.33982065572E+02 -0.63843092182E+02  0.17036950726E+03  0.18508508909E+03  0.00000000000E+00 0. -1.
         21    1    1    2  504  502 -0.63627769625E+02  0.33283344856E-01 -0.18442025581E+03  0.19508799278E+03  0.00000000000E+00 0. -1.
         21    1    1    2  505  504  0.23227713439E+02  0.26445750716E+02 -0.72143138838E+01  0.35929802774E+02  0.00000000000E+00 0. -1.
         21    1    1    2  506  503  0.74382121759E+02  0.37364058121E+02 -0.23825279330E+03  0.25237505105E+03  0.00000000000E+00 0. -1.
<scales pt_clust_3="41.00012" pt_clust_4="14000.00000" pt_clust_5="35.19807" pt_clust_6="70.11950"></scales>
<clustering>
<clus scale="   35.198">  1  5  2 -1</clus>
<clus scale="   41.000">  1  3  2 -1</clus>
<clus scale="   70.120">  1  6  2 -1</clus>
<clus scale="   35.198">  1  3  2 -1</clus>
</clustering>
</event>
<event>
 6    0  0.2908518E+002  0.1134891E+03  0.7546771E-02  0.1254242E+00
         21   -1    0    0  503  501  0.00000000000E+00  0.00000000000E+00  0.57804064141E+03  0.57804064141E+03  0.00000000000E+00 0. -1.
         21   -1    0    0  506  502 -0.00000000000E+00 -0.00000000000E+00 -0.50278446700E+03  0.50278446700E+03  0.00000000000E+00 0. -1.
         21    1    1    2  503  505  0.75453313498E+02  0.20428903882E+02 -0.37231306471E+03  0.38043075689E+03  0.00000000000E+00 0. -1.
         21    1    1    2  504  501 -0.55940201186E+02 -0.99800035680E+02  0.54777807278E+03  0.55959822216E+03  0.00000000000E+00 0. -1.
         21    1    1    2  505  502 -0.19347373970E+02  0.43300566443E+02 -0.92442778745E+02  0.10389863943E+03  0.00000000000E+00 0. -1.
         21    1    1    2  506  504 -0.16573834138E+00  0.36070565356E+02 -0.77660549189E+01  0.36897489932E+02  0.00000000000E+00 0. -1.
<scales pt_clust_3="14000.00000" pt_clust_4="113.48910" pt_clust_5="54.25097" pt_clust_6="36.07095"></scales>
<clustering>
<clus scale="   36.071">  2  6  1 -1</clus>
<clus scale="   54.251">  2  5  1 -1</clus>
<clus scale="  113.489">  1  4  2 -1</clus>
<clus scale="  113.489">  1  3  2 -1</clus>
</clustering>
</event>
<event>
 6    0  0.2908518E+002  0.7226313E+02  0.7546771E-02  0.1352562E+00
         21   -1    0    0  503  501  0.00000000000E+00  0.00000000000E+00  0.37480168465E+02  0.37480168465E+02  0.00000000000E+00 0. -1.
         21   -1    0    0  505  502 -0.00000000000E+00 -0.00000000000E+00 -0.14884701448E+04  0.14884701448E+04  0.00000000000E+00 0. -1.
         21    1    1    2  503  502  0.24833467768E+02 -0.56111186554E+02 -0.22448337160E+03  0.23271860798E+03  0.00000000000E+00 0. -1.
         21    1    1    2  504  506  0.42317270501E+02  0.88575473093E+02 -0.60529913609E+03  0.61320747709E+03  0.00000000000E+00 0. -1.
         21    1    1    2  505  504 -0.36750677791E+02 -0.50691479744E+02 -0.63781502559E+03  0.64088083549E+03  0.00000000000E+00 0. -1.
         21    1    1    2  506  501 -0.30400060478E+02  0.18227193205E+02  0.16607556893E+02  0.39143392739E+02  0.00000000000E+00 0. -1.
<scales pt_clust_3="49.71779" pt_clust_4="72.26313" pt_clust_5="14000.00000" pt_clust_6="35.44565"></scales>
<clustering>
<clus scale="   35.446">  1  6  2 -1</clus>
<clus scale="   49.718">  1  3  2 -1</clus>
<clus scale="   72.263">  1  4  2 -1</clus>
<clus scale="   35.446">  1  3  2 -1</clus>
</clustering>
</event>
<event>
 6    0  0.2908518E+002  0.1223670E+03  0.7546771E-02  0.1239243E+00
         21   -1    0    0  503  501  0.00000000000E+00  0.00000000000E+00  0.39342168935E+03  0.39342168935E+03  0.00000000000E+00 0. -1.
         21   -1    0    0  506  502 -0.00000000000E+00 -0.00000000000E+00 -0.62963571444E+02  0.62963571444E+02  0.00000000000E+00 0. -1.
         21    1    1    2  503  504 -0.30065864901E+02 -0.60558668278E+01  0.11844882024E+03  0.12235502757E+03  0.00000000000E+00 0. -1.
         21    1    1    2  504  502  0.12986103205E+03 -0.19341930705E+02  0.16375448392E+03  0.20988932544E+03  0.00000000000E+00 0. -1.
         21    1    1    2  505  501 -0.58798548230E+02 -0.16469002230E+00  0.47878231630E+02  0.75826258385E+02  0.00000000000E+00 0. -1.
         21    1    1    2  506  505 -0.40996618920E+02  0.25562487555E+02  0.37658211831E+00  0.48314649403E+02  0.00000000000E+00 0. -1.
<scales pt_clust_3="30.66969" pt_clust_4="111.78263" pt_clust_5="43.59930" pt_clust_6="43.59930"></scales>
<clustering>
<clus scale="   30.670">  1  3  2 -1</clus>
<clus scale="   43.599">  5  6 -1 -1</clus>
<clus scale="  111.783">  1  4  2 -1</clus>
<clus scale="   30.670">  1  3  2 -1</clus>
</clustering>
</event>
<event>
 6    0  0.2908518E+002  0.1622570E+03  0.7546771E-02  0.1186172E+00
         21   -1    0    0  505  501  0.00000000000E+00  0.00000000000E+00  0.12058212143E+04  0.12058212143E+04  0.00000000000E+00 0.  1.
         21   -1    0    0  504  502 -0.00000000000E+00 -0.00000000000E+00 -0.46172286979E+02  0.46172286979E+02  0.00000000000E+00 0.  1.
         21    1    1    2  503  502 -0.37179501742E+02  0.67865340922E+02  0.14298338405E+03  0.16258003556E+03  0.00000000000E+00 0.  1.
         21    1    1    2  504  506  0.94446578379E+02 -0.10901747675E+03  0.19543835675E+03  0.24290145675E+03  0.00000000000E+00 0.  1.
         21    1    1    2  505  503 -0.89758147848E+02  0.37761405991E+02  0.18168125814E+03  0.20613230811E+03  0.00000000000E+00 0.  1.
         21    1    1    2  506  501  0.32491071210E+02  0.33907298385E+01  0.63954592834E+03  0.64037970081E+03  0.00000000000E+00 0.  1.
<scales pt_clust_3="52.67792" pt_clust_4="151.84152" pt_clust_5="52.67792" pt_clust_6="32.66752"></scales>
<clustering>
<clus scale="   32.668">  1  6  2 -1</clus>
<clus scale="   52.678">  3  5 -1 -1</clus>
<clus scale="  151.842">  2  4  1 -1</clus>
<clus scale="   32.668">  1  3  2 -1</clus>
</clustering>
</event>
<event>
 6    0  0.2908518E+002  0.1218024E+03  0.7546771E-02  0.1240153E+00
         21   -1    0    0  506  501  0.00000000000E+00  0.00000000000E+00  0.42413866611E+03  0.42413866611E+03  0.00000000000E+00 0.  1.
         21   -1    0    0  504  502 -0.00000000000E+00 -0.00000000000E+00 -0.20166944590E+04  0.20166944590E+04  0.00000000000E+00 0. -1.
         21    1    1    2  503  502  0.28602439601E+02 -0.10379066105E+02 -0.53115489938E+03  0.53202570586E+03  0.00000000000E+00 0. -1.
         21    1    1    2  504  501 -0.38654168883E+01  0.73116849343E+02 -0.37350688316E+03  0.38061582583E+03  0.00000000000E+00 0. -1.
         21    1    1    2  505  503  0.31176749966E+02  0.47043997721E+02 -0.10982710897E+04  0.10997201980E+04  0.00000000000E+00 0. -1.
         21    1    1    2  506  505 -0.55913772678E+02 -0.10978178096E+03  0.41037707935E+03  0.42847139539E+03  0.00000000000E+00 0.  1.
<scales pt_clust_3="30.42737" pt_clust_4="14000.00000" pt_clust_5="65.49240" pt_clust_6="121.80237"></scales>
<clustering>
<clus scale="   30.427">  2  3  1 -1</clus>
<clus scale="   65.492">  2  5  1 -1</clus>
<clus scale="  121.802">  1  6  2 -1</clus>
<clus scale="  121.802">  1  3  2 -1</clus>
</clustering>
</event>
<event>
 6    0  0.2908518E+002  0.1598258E+03  0.7546771E-02  0.1188894E+00
         21   -1    0    0  504  501  0.00000000000E+00  0.00000000000E+00  0.82996170253E+03  0.82996170253E+03  0.00000000000E+00 0. -1.
         21   -1    0    0  503  502 -0.00000000000E+00 -0.00000000000E+00 -0.30173133229E+03  0.30173133229E+03  0.00000000000E+00 0.  1.
         21    1    1    2  503  501 -0.10673252707E+03  0.70486001013E+01  0.78598338426E+02  0.13273738697E+03  0.00000000000E+00 0. -1.
         21    1    1    2  504  505 -0.42044733344E+02  0.71778931533E+02  0.69407162188E+03  0.69903890515E+03  0.00000000000E+00 0. -1.
         21    1    1    2  505  506  0.69479431664E+02 -0.58582566186E+02 -0.11204265286E+03  0.14426664391E+03  0.00000000000E+00 0.  1.
         21    1    1    2  506  502  0.79297828747E+02 -0.20244965448E+02 -0.13239693721E+03  0.15565009878E+03  0.00000000000E+00 0.  1.
<scales pt_clust_3="153.92662" pt_clust_4="83.18638" pt_clust_5="40.82633" pt_clust_6="40.82633"></scales>
<clustering>
<clus scale="   40.826">  5  6 -1 -1</clus>
<clus scale="   83.186">  1  4  2 -1</clus>
<clus scale="  153.927">  1  3  2 -1</clus>
<clus scale="   83.186">  1  3  2 -1</clus>
</clustering>
</event>
<event>
 6    0  0.2908518E+002  0.1031770E+03  0.7546771E-02  0.1273754E+00
         21   -1    0    0  506  501  0.00000000000E+00  0.00000000000E+00  0.15371797113E+03  0.15371797113E+03  0.00000000000E+00 0. -1.
         21   -1    0    0  504  502 -0.00000000000E+00 -0.00000000000E+00 -0.20411558927E+03  0.20411558927E+03  0.00000000000E+00 0. -1.
         21    1    1    2  503  501 -0.20388428016E+02  0.26731160224E+02 -0.17338136330E+01  0.33663764400E+02  0.00000000000E+00 0.  1.
         21    1    1    2  504  503 -0.65170489714E+02 -0.20202281594E+02  0.25036835467E+01  0.68275862078E+02  0.00000000000E+00 0. -1.
         21    1    1    2  505  502  0.10440230357E+03 -0.63966583192E+02 -0.11500194178E+03  0.16797919921E+03  0.00000000000E+00 0. -1.
         21    1    1    2  506  505 -0.18843385839E+02  0.57437704563E+02  0.63834453731E+02  0.87914734706E+02  0.00000000000E+00 0. -1.
<scales pt_clust_3="33.61909" pt_clust_4="71.66007" pt_clust_5="103.17702" pt_clust_6="14000.00000"></scales>
<clustering>
<clus scale="   33.619">  1  3  2 -1</clus>
<clus scale="   71.660">  1  4  2 -1</clus>
<clus scale="  103.177">  2  5  1 -1</clus>
<clus scale="   33.619">  1  3  2 -1</clus>
</clustering>
</event>
<event>
 6    0  0.2908518E+002  0.1462394E+03  0.7546771E-02  0.1205172E+00
         21   -1    0    0  505  501  0.00000000000E+00  0.00000000000E+00  0.68620761133E+02  0.68620761133E+02  0.00000000000E+00 0.  1.
         21   -1    0    0  504  502 -0.00000000000E+00 -0.00000000000E+00 -0.10844366506E+04  0.10844366506E+04  0.00000000000E+00 0. -1.
         21    1    1    2  503  502  0.65444919476E+02  0.20270169237E+02 -0.81136724218E+02  0.10619362157E+03  0.00000000000E+00 0.  1.
         21    1    1    2  504  501 -0.13293319057E+03  0.40770532427E+02 -0.79110475055E+03  0.80323109738E+03  0.00000000000E+00 0. -1.
         21    1    1    2  505  506 -0.11624058943E+02 -0.52573821577E+02  0.23371036538E+02  0.58696940383E+02  0.00000000000E+00 0.  1.
         21    1    1    2  506  503  0.79112330040E+02 -0.84668800870E+01 -0.16694545125E+03  0.18493575240E+03  0.00000000000E+00 0.  1.
<scales pt_clust_3="43.28106" pt_clust_4="138.60211" pt_clust_5="53.84353" pt_clust_6="43.28106"></scales>
<clustering>
<clus scale="   43.281">  3  6 -1 -1</clus>
<clus scale="   53.844">  1  5  2 -1</clus>
<clus scale="  138.602">  2  4  1 -1</clus>
<clus scale="   53.844">  1  3  2 -1</clus>
</clustering>
</event>
<event>
 6    0  0.2908518E+002  0.8023064E+02  0.7546771E-02  0.1328398E+00
         21   -1    0    0  505  501  0.00000000000E+00  0.00000000000E+00  0.52547768093E+02  0.52547768093E+02  0.00000000000E+00 0. -1.
         21   -1    0    0  504  502 -0.00000000000E+00 -0.00000000000E+00 -0.50171887563E+03  0.50171887563E+03  0.00000000000E+00 0. -1.
         21    1    1    2  503  506  0.38634437534E+02  0.40171432479E+02 -0.41075137885E+02  0.69235328433E+02  0.00000000000E+00 0. -1.
         21    1    1    2  504  503  0.61154594937E+02 -0.24416311673E+02 -0.18111074007E+03  0.19270999177E+03  0.00000000000E+00 0. -1.
         21    1    1    2  505  502 -0.13045878411E+03 -0.38150382792E+01 -0.22403256746E+03  0.25927714931E+03  0.00000000000E+00 0. -1.
         21    1    1    2  506  501  0.30669751638E+02 -0.11940082527E+02 -0.29526621198E+01  0.33044174220E+02  0.00000000000E+00 0. -1.
<scales pt_clust_3="61.55186" pt_clust_4="14000.00000" pt_clust_5="80.23064" pt_clust_6="32.91199"></scales>
<clustering>
<clus scale="   32.912">  1  6  2 -1</clus>
<clus scale="   61.552">  1  3  2 -1</clus>
<clus scale="   80.231">  1  5  2 -1</clus>
<clus scale="   32.912">  1  3  2 -1</clus>
</clustering>
</event>
<event>
 6    0  0.2908518E+002  0.1377251E+03  0.7546771E-02  0.1216423E+00
         21   -1    0    0  503  501  0.00000000000E+00  0.00000000000E+00  0.13270238899E+03  0.13270238899E+03  0.00000000000E+00 0. -1.
         21   -1    0    0  504  502 -0.00000000000E+00 -0.00000000000E+00 -0.85687981001E+03  0.85687981001E+03  0.00000000000E+00 0. -1.
         21    1    1    2  503  505  0.34643774910E+02  0.33282182006E+02 -0.11690311758E+03  0.12638921504E+03  0.00000000000E+00 0. -1.
         21    1    1    2  504  501 -0.81996408378E+02 -0.94267478519E+02  0.92817906795E+02  0.15564360673E+03  0.00000000000E+00 0. -1.
         21    1    1    2  505  506  0.13654881699E+01  0.55599951985E+02 -0.34568734196E+03  0.35013277141E+03  0.00000000000E+00 0. -1.
         21    1    1    2  506  502  0.45987145298E+02  0.53853445279E+01 -0.35440486827E+03  0.35741660583E+03  0.00000000000E+00 0. -1.
<scales pt_clust_3="57.25945" pt_clust_4="122.80735" pt_clust_5="57.25945" pt_clust_6="46.30140"></scales>
<clustering>
<clus scale="   46.301">  2  6  1 -1</clus>
<clus scale="   57.259">  3  5 -1 -1</clus>
<clus scale="  122.807">  1  4  2 -1</clus>
<clus scale="  122.807">  1  3  2 -1</clus>
</clustering>
</event>
<event>
 6    0  0.2908518E+002  0.1109972E+03  0.7546771E-02  0.1258734E+00
         21   -1    0    0  503  501  0.00000000000E+00  0.00000000000E+00  0.12964398841E+04  0.12964398841E+04  0.00000000000E+00 0.  1.
         21   -1    0    0  504  502 -0.00000000000E+00 -0.00000000000E+00 -0.27435983260E+02  0.27435983260E+02  0.00000000000E+00 0. -1.
         21    1    1    2  503  505 -0.90949387536E+01  0.10556443998E+03  0.10041152617E+04  0.10096900651E+04  0.00000000000E+00 0.  1.
         21    1    1    2  504  501  0.52861680797E+02 -0.63269095382E+01  0.68098342736E+02  0.86439408630E+02  0.00000000000E+00 0. -1.
         21    1    1    2  505  506 -0.23621252849E+02 -0.40725704023E+02  0.12140899588E+03  0.13021785913E+03  0.00000000000E+00 0. -1.
         21    1    1    2  506  502 -0.20145489194E+02 -0.58511826423E+02  0.75381300602E+02  0.97528534525E+02  0.00000000000E+00 0. -1.
<scales pt_clust_3="104.60397" pt_clust_4="53.23896" pt_clust_5="32.38318" pt_clust_6="32.38318"></scales>
<clustering>
<clus scale="   32.383">  5  6 -1 -1</clus>
<clus scale="   53.239">  2  4  1 -1</clus>
<clus scale="  104.604">  1  3  2 -1</clus>
<clus scale="  104.604">  1  3  2 -1</clus>
</clustering>
</event>
<event>
 6    0  0.2908518E+002  0.1538845E+03  0.7546771E-02  0.1195779E+00
         21   -1    0    0  502  501  0.00000000000E+00  0.00000000000E+00  0.50552496618E+02  0.50552496618E+02  0.00000000000E+00 0.  1.
         21   -1    0    0  505  502 -0.00000000000E+00 -0.00000000000E+00 -0.60295721124E+03  0.60295721124E+03  0.00000000000E+00 0. -1.
         21    1    1    2  503  504 -0.59098981410E+02  0.63737624531E+02 -0.33302060404E+03  0.34417713042E+03  0.00000000000E+00 0. -1.
         21    1    1    2  504  506  0.83105414087E+02 -0.65076784492E+02 -0.51453717051E+02  0.11742649926E+03  0.00000000000E+00 0.  1.
         21    1    1    2  505  503 -0.45429236015E+02  0.31936401235E+02 -0.10070071069E+03  0.11499731450E+03  0.00000000000E+00 0. -1.
         21    1    1    2  506  501  0.21422803338E+02 -0.30597241274E+02 -0.67229682831E+02  0.76908763674E+02  0.00000000000E+00 0. -1.
<scales pt_clust_3="150.75474" pt_clust_4="35.69569" pt_clust_5="41.12560" pt_clust_6="35.69569"></scales>
<clustering>
<clus scale="   35.696">  4  6 -1 -1</clus>
<clus scale="   41.126">  3  5 -1 -1</clus>
<clus scale="  150.755">  2  3  1 -1</clus>
<clus scale="  153.885">  1  3  2 -1</clus>
</clustering>
</event>
<event>
 6    0  0.2908518E+002  0.2438917E+03  0.7546771E-02  0.1117227E+00
         21   -1    0    0  505  501  0.00000000000E+00  0.00000000000E+00  0.59251065856E+03  0.59251065856E+03  0.00000000000E+00 0. -1.
         21   -1    0    0  503  502 -0.00000000000E+00 -0.00000000000E+00 -0.78606994153E+03  0.78606994153E+03  0.00000000000E+00 0. -1.
         21    1    1    2  503  504  0.70836545164E+02  0.57305599991E+02 -0.46344095073E+03  0.47231267475E+03  0.00000000000E+00 0. -1.
         21    1    1    2  504  506  0.17647132793E+03  0.46893864863E+02 -0.22572228632E+03  0.29033035439E+03  0.00000000000E+00 0. -1.
         21    1    1    2  505  502 -0.19141722725E+03 -0.40818387275E+02  0.49406482666E+03  0.53141955983E+03  0.00000000000E+00 0. -1.
         21    1    1    2  506  501 -0.55890645842E+02 -0.63381077579E+02  0.15391274123E+01  0.84518011104E+02  0.00000000000E+00 0.  1.
<scales pt_clust_3="90.44141" pt_clust_4="14000.00000" pt_clust_5="243.89166" pt_clust_6="84.50400"></scales>
<clustering>
<clus scale="   84.504">  1  6  2 -1</clus>
<clus scale="   90.441">  2  3  1 -1</clus>
<clus scale="  243.892">  1  5  2 -1</clus>
<clus scale="   84.504">  1  3  2 -1</clus>
</clustering>
</event>
<event>
 6    0  0.2908518E+002  0.1510294E+03  0.7546771E-02  0.1199214E+00
         21   -1    0    0  505  501  0.00000000000E+00  0.00000000000E+00  0.15607262360E+03  0.15607262360E+03  0.00000000000E+00 0.  1.
         21   -1    0    0  504  502 -0.00000000000E+00 -0.00000000000E+00 -0.68366140903E+03  0.68366140903E+03  0.00000000000E+00 0.  1.
         21    1    1    2  503  502  0.44533460495E+02 -0.37023573841E+02 -0.14198376209E+03  0.15334067569E+03  0.00000000000E+00 0.  1.
         21    1    1    2  504  501  0.29783495601E+02  0.18364409584E+02  0.11412478241E+03  0.11936822906E+03  0.00000000000E+00 0.  1.
         21    1    1    2  505  506 -0.11183757276E+03  0.10043381080E+03 -0.17812981395E+03  0.23307686211E+03  0.00000000000E+00 0.  1.
         21    1    1    2  506  503  0.37520616666E+02 -0.81774646546E+02 -0.32159999180E+03  0.33394826578E+03  0.00000000000E+00 0.  1.
<scales pt_clust_3="33.02836" pt_clust_4="34.99012" pt_clust_5="145.31053" pt_clust_6="33.02836"></scales>
<clustering>
<clus scale="   33.028">  3  6 -1 -1</clus>
<clus scale="   34.990">  1  4  2 -1</clus>
<clus scale="  145.311">  1  5  2 -1</clus>
<clus scale="   34.990">  1  3  2 -1</clus>
</clustering>
</event>
<event>
 6    0  0.2908518E+002  0.1819422E+03  0.7546771E-02  0.1165937E+00
         21   -1    0    0  504  501  0.00000000000E+00  0.00000000000E+00  0.49649513966E+03  0.49649513966E+03  0.00000000000E+00 0.  1.
         21   -1    0    0  506  502 -0.00000000000E+00 -0.00000000000E+00 -0.18016475013E+03  0.18016475013E+03  0.00000000000E+00 0. -1.
         21    1    1    2  503  505  0.49996423036E+02 -0.17463354548E+02  0.21653057842E+01  0.53002826506E+02  0.00000000000E+00 0. -1.
         21    1    1    2  504  502  0.12011727867E+03  0.24736402526E+02 -0.63756123975E+02  0.13822045286E+03  0.00000000000E+00 0. -1.
         21    1    1    2  505  501 -0.21921962105E+03  0.44303459837E+02  0.33334568081E+03  0.40142170061E+03  0.00000000000E+00 0.  1.
         21    1    1    2  506  503  0.49105919338E+02 -0.51576507815E+02  0.44575526914E+02  0.84014909821E+02  0.00000000000E+00 0. -1.
<scales pt_clust_3="38.57874" pt_clust_4="122.63788" pt_clust_5="176.35640" pt_clust_6="38.57874"></scales>
<clustering>
<clus scale="   38.579">  3  6 -1 -1</clus>
<clus scale="  122.638">  2  4  1 -1</clus>
<clus scale="  176.356">  1  5  2 -1</clus>
<clus scale="  176.356">  1  3  2 -1</clus>
</clustering>
</event>
<event>
 6    0  0.2908518E+002  0.9116275E+02  0.7546771E-02  0.1300060E+00
         21   -1    0    0  505  501  0.00000000000E+00  0.00000000000E+00  0.34421256653E+03  0.34421256653E+03  0.00000000000E+00 0. -1.
         21   -1    0    0  504  502 -0.00000000000E+00 -0.00000000000E+00 -0.25109685850E+03  0.25109685850E+03  0.00000000000E+00 0. -1.
         21    1    1    2  503  502 -0.51234502385E+02 -0.27781934506E+02  0.22832779928E+02  0.62595095325E+02  0.00000000000E+00 0. -1.
         21    1    1    2  504  506  0.10375079820E+03  0.85927482247E+01 -0.16653725324E+03  0.19639938943E+03  0.00000000000E+00 0. -1.
         21    1    1    2  505  503 -0.48493364427E+02  0.75118752422E+02 -0.35587041515E+01  0.89482387843E+02  0.00000000000E+00 0. -1.
         21    1    1    2  506  501 -0.40229313929E+01 -0.55929566141E+02  0.24037888550E+03  0.24683255243E+03  0.00000000000E+00 0. -1.
<scales pt_clust_3="91.16275" pt_clust_4="14000.00000" pt_clust_5="71.73722" pt_clust_6="56.07406"></scales>
<clustering>
<clus scale="   56.074">  1  6  2 -1</clus>
<clus scale="   71.737">  1  5  2 -1</clus>
<clus scale="   91.163">  1  3  2 -1</clus>
<clus scale="   56.074">  1  3  2 -1</clus>
</clustering>
</event>
<event>
 6    0  0.2908518E+002  0.1292005E+03  0.7546771E-02  0.1228647E+00
         21   -1    0    0  505  501  0.00000000000E+00  0.00000000000E+00  0.64671490823E+03  0.64671490823E+03  0.00000000000E+00 0.  1.
         21   -1    0    0  504  502 -0.00000000000E+00 -0.00000000000E+00 -0.27572762900E+03  0.27572762900E+03  0.00000000000E+00 0. -1.
         21    1    1    2  503  506  0.27000859582E+02  0.20005381250E+03  0.30647306195E+02  0.20418087984E+03  0.00000000000E+00 0. -1.
         21    1    1    2  504  503 -0.36576157775E+02 -0.10664146878E+03 -0.87343042278E+02  0.14261495439E+03  0.00000000000E+00 0. -1.
         21    1    1    2  505  502  0.59559849410E+02 -0.10701620698E+03 -0.20760605250E+02  0.12422096018E+03  0.00000000000E+00 0. -1.
         21    1    1    2  506  501 -0.49984551218E+02  0.13603863258E+02  0.44844362057E+03  0.45142574282E+03  0.00000000000E+00 0.  1.
<scales pt_clust_3="129.20048" pt_clust_4="14000.00000" pt_clust_5="113.37823" pt_clust_6="51.80271"></scales>
<clustering>
<clus scale="   51.803">  1  6  2 -1</clus>
<clus scale="  113.378">  1  5  2 -1</clus>
<clus scale="  129.200">  1  3  2 -1</clus>
<clus scale="   51.803">  1  3  2 -1</clus>
</clustering>
</event>
<event>
 6    0  0.2908518E+002  0.1523698E+03  0.7546771E-02  0.1197591E+00
         21   -1    0    0  503  501  0.00000000000E+00  0.00000000000E+00  0.38767683989E+03  0.38767683989E+03  0.00000000000E+00 0.  1.
         21   -1    0    0  504  502 -0.00000000000E+00 -0.00000000000E+00 -0.27428539427E+03  0.27428539427E+03  0.00000000000E+00 0. -1.
         21    1    1    2  503  505 -0.20567814752E+02 -0.29717007952E+02 -0.61413263859E+01  0.36658579556E+02  0.00000000000E+00 0. -1.
         21    1    1    2  504  506  0.15800444849E+03  0.13921735557E+02 -0.13408635158E+03  0.20769778560E+03  0.00000000000E+00 0. -1.
         21    1    1    2  505  502  0.81425819181E+01 -0.30904549875E+02 -0.60406871795E+02  0.68340200492E+02  0.00000000000E+00 0. -1.
         21    1    1    2  506  501 -0.14557921565E+03  0.46699822270E+02  0.31402599538E+03  0.34926566851E+03  0.00000000000E+00 0.  1.
<scales pt_clust_3="38.33874" pt_clust_4="14000.00000" pt_clust_5="31.95924" pt_clust_6="152.36980"></scales>
<clustering>
<clus scale="   31.959">  2  5  1 -1</clus>
<clus scale="   38.339">  2  3  1 -1</clus>
<clus scale="  152.370">  1  6  2 -1</clus>
<clus scale="  152.370">  1  3  2 -1</clus>
</clustering>
</event>
<event>
 6    0  0.2908518E+002  0.1227349E+03  0.7546771E-02  0.1238652E+00
         21   -1    0    0  504  501  0.00000000000E+00  0.00000000000E+00  0.53728932046E+02  0.53728932046E+02  0.00000000000E+00 0. -1.
         21   -1    0    0  503  502 -0.00000000000E+00 -0.00000000000E+00 -0.17007004264E+04  0.17007004264E+04  0.00000000000E+00 0. -1.
         21    1    1    2  503  505  0.37275413710E+02  0.21625171581E+02 -0.34146828669E+03  0.34417683729E+03  0.00000000000E+00 0. -1.
         21    1    1    2  504  502  0.68123091335E+02 -0.31611271133E+02 -0.10477092508E+04  0.10503974021E+04  0.00000000000E+00 0. -1.
         21    1    1    2  505  506  0.15452168766E+02  0.53319559974E+02 -0.21872121486E+03  0.22565618721E+03  0.00000000000E+00 0. -1.
         21    1    1    2  506  501 -0.12085067381E+03 -0.43333460422E+02 -0.39072742006E+02  0.13419893189E+03  0.00000000000E+00 0. -1.
<scales pt_clust_3="43.09414" pt_clust_4="14000.00000" pt_clust_5="60.80550" pt_clust_6="122.73489"></scales>
<clustering>
<clus scale="   43.094">  2  3  1 -1</clus>
<clus scale="   60.805">  2  5  1 -1</clus>
<clus scale="  122.735">  1  6  2 -1</clus>
<clus scale="  122.735">  1  3  2 -1</clus>
</clustering>
</event>
<event>
 6    0  0.2908518E+002  0.1360494E+03  0.7546771E-02  0.1218746E+00
         21   -1    0    0  503  501  0.00000000000E+00  0.00000000000E+00  0.49391407566E+03  0.49391407566E+03  0.00000000000E+00 0.  1.
         21   -1    0    0  505  502 -0.00000000000E+00 -0.00000000000E+00 -0.76760043419E+02  0.76760043419E+02  0.00000000000E+00 0.  1.
         21    1    1    2  503  506  0.45825447492E+02  0.10984778439E+03  0.32761368611E+03  0.34856453449E+03  0.00000000000E+00 0.  1.
         21    1    1    2  504  501 -0.44618455715E+01 -0.55134661721E+02  0.30931120647E+02  0.63375651582E+02  0.00000000000E+00 0.  1.
         21    1    1    2  505  504 -0.74928425353E+02 -0.75690509865E+02  0.32640359670E+02  0.11139441319E+03  0.00000000000E+00 0.  1.
         21    1    1    2  506  502  0.33564823433E+02  0.20977387194E+02  0.25968865808E+02  0.47339519821E+02  0.00000000000E+00 0.  1.
<scales pt_clust_3="124.19436" pt_clust_4="42.97870" pt_clust_5="42.97870" pt_clust_6="39.58091"></scales>
<clustering>
<clus scale="   39.581">  2  6  1 -1</clus>
<clus scale="   42.979">  4  5 -1 -1</clus>
<clus scale="  124.194">  1  3  2 -1</clus>
<clus scale="  124.194">  1  3  2 -1</clus>
</clustering>
</event>
<event>
 6    0  0.2908518E+002  0.1155801E+03  0.7546771E-02  0.1250572E+00
         21   -1    0    0  504  501  0.00000000000E+00  0.00000000000E+00  0.91328976135E+03  0.91328976135E+03  0.00000000000E+00 0. -1.
         21   -1    0    0  503  502 -0.00000000000E+00 -0.00000000000E+00 -0.28148257726E+03  0.28148257726E+03  0.00000000000E+00 0.  1.
         21    1    1    2  503  505 -0.86710678853E+02 -0.84783230199E+02 -0.15418963526E+03  0.19616671882E+03  0.00000000000E+00 0.  1.
         21    1    1    2  504  502  0.30048685604E+02 -0.16496899219E+02 -0.83640213461E+02  0.90392236935E+02  0.00000000000E+00 0.  1.
         21    1    1    2  505  506  0.94230545659E+02  0.71660082590E+02  0.17122510085E+03  0.20816483453E+03  0.00000000000E+00 0.  1.
         21    1    1    2  506  501 -0.37568552410E+02  0.29620046827E+02  0.69841193197E+03  0.70004854833E+03  0.00000000000E+00 0. -1.
<scales pt_clust_3="115.58005" pt_clust_4="34.27931" pt_clust_5="14000.00000" pt_clust_6="47.69854"></scales>
<clustering>
<clus scale="   34.279">  2  4  1 -1</clus>
<clus scale="   47.699">  1  6  2 -1</clus>
<clus scale="  115.580">  2  3  1 -1</clus>
<clus scale="   47.699">  1  3  2 -1</clus>
</clustering>
</event>
<event>
 6    0  0.2908518E+002  0.1127925E+03  0.7546771E-02  0.1255484E+00
         21   -1    0    0  503  501  0.00000000000E+00  0.00000000000E+00  0.93547949062E+02  0.93547949062E+02  0.00000000000E+00 0.  1.
         21   -1    0    0  504  502 -0.00000000000E+00 -0.00000000000E+00 -0.11733762345E+04  0.11733762345E+04  0.00000000000E+00 0.  1.
         21    1    1    2  503  505  0.96532980428E+01 -0.83234646916E+02 -0.49747147588E+02  0.97447274480E+02  0.00000000000E+00 0.  1.
         21    1    1    2  504  506  0.36096596259E+02  0.78786727542E+02 -0.83261181972E+03  0.83710976284E+03  0.00000000000E+00 0.  1.
         21    1    1    2  505  502  0.55941924478E+02  0.28353198629E+01 -0.22098990546E+03  0.22797823639E+03  0.00000000000E+00 0.  1.
         21    1    1    2  506  501 -0.10169181878E+03  0.16125995108E+01  0.23520587285E+02  0.10438890990E+03  0.00000000000E+00 0.  1.
<scales pt_clust_3="84.18568" pt_clust_4="14000.00000" pt_clust_5="56.01373" pt_clust_6="112.79246"></scales>
<clustering>
<clus scale="   56.014">  2  5  1 -1</clus>
<clus scale="   84.186">  1  3  2 -1</clus>
<clus scale="  112.792">  1  6  2 -1</clus>
<clus scale="   84.186">  1  3  2 -1</clus>
</clustering>
</event>
<event>
 6    0  0.2908518E+002  0.9146192E+02  0.7546771E-02  0.1299350E+00
         21   -1    0    0  505  501  0.00000000000E+00  0.00000000000E+00  0.32459339413E+03  0.32459339413E+03  0.00000000000E+00 0.  1.
         21   -1    0    0  506  502 -0.00000000000E+00 -0.00000000000E+00 -0.20211100540E+03  0.20211100540E+03  0.00000000000E+00 0.  1.
         21    1    1    2  503  501  0.40181078782E+02 -0.32574722679E+02  0.16219972436E+03  0.17024800214E+03  0.00000000000E+00 0.  1.
         21    1    1    2  504  502  0.32970771545E+01 -0.91293771531E+02 -0.14549436112E+03  0.17179648586E+03  0.00000000000E+00 0.  1.
         21    1    1    2  505  504  0.19656696310E+02  0.36288469126E+02  0.43760313259E+02  0.60151506364E+02  0.00000000000E+00 0. -1.
         21    1    1    2  506  503 -0.63134852246E+02  0.87580025083E+02  0.62016712226E+02  0.12450840517E+03  0.00000000000E+00 0.  1.
<scales pt_clust_3="53.20195" pt_clust_4="14000.00000" pt_clust_5="41.27031" pt_clust_6="91.46192"></scales>
<clustering>
<clus scale="   41.270">  1  5  2 -1</clus>
<clus scale="   53.202">  1  3  2 -1</clus>
<clus scale="   91.462">  1  6  2 -1</clus>
<clus scale="   41.270">  1  3  2 -1</clus>
</clustering>
</event>
<event>
 6    0  0.2908518E+002  0.5845129E+03  0.7546771E-02  0.9938068E-01
         21   -1    0    0  504  501  0.00000000000E+00  0.00000000000E+00  0.45208990159E+03  0.45208990159E+03  0.00000000000E+00 0.  1.
         21   -1    0    0  501  502 -0.00000000000E+00 -0.00000000000E+00 -0.26413684266E+04  0.26413684266E+04  0.00000000000E+00 0.  1.
         21    1    1    2  503  505 -0.35633677326E+02  0.87689105287E+02 -0.11208347319E+03  0.14670324846E+03  0.00000000000E+00 0.  1.
         21    1    1    2  504  503  0.30597560212E+03 -0.52425219148E+03  0.15926996037E+03  0.62755744729E+03  0.00000000000E+00 0.  1.
         21    1    1    2  505  506 -0.11864440939E+03  0.32642500172E+03 -0.82200010082E+03  0.89236424367E+03  0.00000000000E+00 0.  1.
         21    1    1    2  506  502 -0.15169751540E+03  0.11013808448E+03 -0.14144649113E+04  0.14268333887E+04  0.00000000000E+00 0.  1.
<scales pt_clust_3="56.84453" pt_clust_4="574.28083" pt_clust_5="56.84453" pt_clust_6="187.46342"></scales>
<clustering>
<clus scale="   56.845">  3  5 -1 -1</clus>
<clus scale="  187.463">  2  6  1 -1</clus>
<clus scale="  574.281">  1  4  2 -1</clus>
<clus scale="  574.281">  1  3  2 -1</clus>
</clustering>
</event>
<event>
 6    0  0.2908518E+002  0.6575523E+02  0.7546771E-02  0.1375153E+00
         21   -1    0    0  505  501  0.00000000000E+00  0.00000000000E+00  0.18785136498E+04  0.18785136498E+04  0.00000000000E+00 0.  1.
         21   -1    0    0  504  502 -0.00000000000E+00 -0.00000000000E+00 -0.38448137972E+02  0.38448137972E+02  0.00000000000E+00 0.  1.
         21    1    1    2  503  501 -0.26279253669E+02 -0.24428503182E+02  0.15127615896E+04  0.15131870268E+04  0.00000000000E+00 0.  1.
         21    1    1    2  504  503 -0.60443463192E+02 -0.65782435998E+02  0.88464135665E+02  0.12572447823E+03  0.00000000000E+00 0.  1.
         21    1    1    2  505  506  0.67961626322E+02  0.36628475023E+02  0.18207870177E+03  0.19777027449E+03  0.00000000000E+00 0.  1.
         21    1    1    2  506  502  0.18761090539E+02  0.53582464157E+02  0.56761084748E+02  0.80280008253E+02  0.00000000000E+00 0.  1.
<scales pt_clust_3="35.87967" pt_clust_4="65.75523" pt_clust_5="14000.00000" pt_clust_6="50.91890"></scales>
<clustering>
<clus scale="   35.880">  1  3  2 -1</clus>
<clus scale="   50.919">  2  6  1 -1</clus>
<clus scale="   65.755">  2  4  1 -1</clus>
<clus scale="   35.880">  1  3  2 -1</clus>
</clustering>
</event>
<event>
 6    0  0.2908518E+002  0.1628939E+03  0.7546771E-02  0.1185468E+00
         21   -1    0    0  506  501  0.00000000000E+00  0.00000000000E+00  0.23311335640E+03  0.23311335640E+03  0.00000000000E+00 0. -1.
         21   -1    0    0  504  502 -0.00000000000E+00 -0.00000000000E+00 -0.49332079516E+03  0.49332079516E+03  0.00000000000E+00 0. -1.
         21    1    1    2  503  505 -0.51987371748E+02  0.11836856767E+03 -0.32663182984E+03  0.35128643142E+03  0.00000000000E+00 0. -1.
         21    1    1    2  504  501 -0.42147492553E+02 -0.53812056466E+02 -0.58347817093E+02  0.89869996713E+02  0.00000000000E+00 0. -1.
         21    1    1    2  505  502 -0.51984285975E+02  0.20952913379E+02 -0.22974442802E+02  0.60574050462E+02  0.00000000000E+00 0.  1.
         21    1    1    2  506  503  0.14611915028E+03 -0.85509424587E+02  0.14774665097E+03  0.22470367297E+03  0.00000000000E+00 0. -1.
<scales pt_clust_3="162.89393" pt_clust_4="71.45523" pt_clust_5="56.04811" pt_clust_6="14000.00000"></scales>
<clustering>
<clus scale="   56.048">  2  5  1 -1</clus>
<clus scale="   71.455">  2  4  1 -1</clus>
<clus scale="  162.894">  2  3  1 -1</clus>
<clus scale="  162.894">  1  3  2 -1</clus>
</clustering>
</event>
<event>
 6    0  0.2908518E+002  0.1112483E+03  0.7546771E-02  0.1258276E+00
         21   -1    0    0  505  501  0.00000000000E+00  0.00000000000E+00  0.10174570257E+04  0.10174570257E+04  0.00000000000E+00 0. -1.
         21   -1    0    0  503  502 -0.00000000000E+00 -0.00000000000E+00 -0.68819504561E+02  0.68819504561E+02  0.00000000000E+00 0. -1.
         21    1    1    2  503  504 -0.22077792470E+02  0.23512049778E+02 -0.15072518758E+02  0.35600930140E+02  0.00000000000E+00 0. -1.
         21    1    1    2  504  501  0.39433794021E+02  0.15623456730E+02  0.48709486297E+02  0.64588935325E+02  0.00000000000E+00 0. -1.
         21    1    1    2  505  506 -0.33417899149E+02 -0.11071290082E+03  0.90463912761E+03  0.91200112588E+03  0.00000000000E+00 0. -1.
         21    1    1    2  506  502  0.16061897598E+02  0.71577394308E+02  0.10361426001E+02  0.74085538934E+02  0.00000000000E+00 0. -1.
<scales pt_clust_3="32.25284" pt_clust_4="40.62031" pt_clust_5="111.24826" pt_clust_6="14000.00000"></scales>
<clustering>
<clus scale="   32.253">  2  3  1 -1</clus>
<clus scale="   40.620">  2  4  1 -1</clus>
<clus scale="  111.248">  1  5  2 -1</clus>
<clus scale="  111.248">  1  3  2 -1</clus>
</clustering>
</event>
<event>
 6    0  0.2908518E+002  0.7534544E+02  0.7546771E-02  0.1342805E+00
         21   -1    0    0  503  501  0.00000000000E+00  0.00000000000E+00  0.40270101746E+03  0.40270101746E+03  0.00000000000E+00 0. -1.
         21   -1    0    0  506  502 -0.00000000000E+00 -0.00000000000E+00 -0.72120072116E+02  0.72120072116E+02  0.00000000000E+00 0.  1.
         21    1    1    2  503  505 -0.18782540071E+02  0.41807041211E+02  0.35694031615E+02  0.58091965015E+02  0.00000000000E+00 0.  1.
         21    1    1    2  504  501 -0.74500540271E+02 -0.18974238947E+02  0.24534604220E+03  0.25710898986E+03  0.00000000000E+00 0. -1.
         21    1    1    2  505  502  0.14780206682E+02  0.42316815296E+02 -0.28957126187E+01  0.44917173975E+02  0.00000000000E+00 0.  1.
         21    1    1    2  506  504  0.78502873660E+02 -0.65149617561E+02  0.52436584142E+02  0.11470296072E+03  0.00000000000E+00 0.  1.
<scales pt_clust_3="53.86941" pt_clust_4="14000.00000" pt_clust_5="44.82374" pt_clust_6="75.34544"></scales>
<clustering>
<clus scale="   44.824">  2  5  1 -1</clus>
<clus scale="   53.869">  2  3  1 -1</clus>
<clus scale="   75.345">  2  6  1 -1</clus>
<clus scale="   75.345">  1  3  2 -1</clus>
</clustering>
</event>
<event>
 6    0  0.2908518E+002  0.8528222E+02  0.7546771E-02  0.1314696E+00
         21   -1    0    0  504  501  0.00000000000E+00  0.00000000000E+00  0.11868593573E+04  0.11868593573E+04  0.00000000000E+00 0. -1.
         21   -1    0    0  503  502 -0.00000000000E+00 -0.00000000000E+00 -0.38446445380E+02  0.38446445380E+02  0.00000000000E+00 0. -1.
         21    1    1    2  503  505 -0.42128948085E+02  0.56824448666E+02  0.11381165227E+03  0.13400357616E+03  0.00000000000E+00 0. -1.
         21    1    1    2  504  506  0.54299203486E+02 -0.33760524297E+02  0.19681110362E+03  0.20693667391E+03  0.00000000000E+00 0. -1.
         21    1    1    2  505  501 -0.46012836023E+02  0.72946117473E+02  0.73376659895E+03  0.73881779816E+03  0.00000000000E+00 0. -1.
         21    1    1    2  506  502  0.33842580623E+02 -0.96010041841E+02  0.10402355707E+03  0.14554775444E+03  0.00000000000E+00 0. -1.
<scales pt_clust_3="14000.00000" pt_clust_4="63.93885" pt_clust_5="48.01685" pt_clust_6="85.28222"></scales>
<clustering>
<clus scale="   63.939">  1  4  2 -1</clus>
<clus scale="   48.017">  1  5  2 -1</clus>
<clus scale="   85.282">  1  6  2 -1</clus>
<clus scale="   63.939">  1  3  2 -1</clus>
</clustering>
</event>
<event>
 6    0  0.2908518E+002  0.1360736E+03  0.7546771E-02  0.1218712E+00
         21   -1    0    0  505  501  0.00000000000E+00  0.00000000000E+00  0.69671392567E+03  0.69671392567E+03  0.00000000000E+00 0.  1.
         21   -1    0    0  503  502 -0.00000000000E+00 -0.00000000000E+00 -0.14589701569E+03  0.14589701569E+03  0.00000000000E+00 0. -1.
         21    1    1    2  503  504 -0.29319677402E+02 -0.29291445343E+02  0.59054122729E+01  0.41862944800E+02  0.00000000000E+00 0. -1.
         21    1    1    2  504  506 -0.85908151120E+02 -0.66181150295E+01  0.35043267014E+02  0.93016345007E+02  0.00000000000E+00 0. -1.
         21    1    1    2  505  502  0.13602866852E+03 -0.36189890534E+02 -0.45025977653E+02  0.14778648619E+03  0.00000000000E+00 0. -1.
         21    1    1    2  506  501 -0.20800840002E+02  0.72099450906E+02  0.55489420835E+03  0.55994516537E+03  0.00000000000E+00 0.  1.
<scales pt_clust_3="30.61562" pt_clust_4="30.61562" pt_clust_5="128.71419" pt_clust_6="75.04003"></scales>
<clustering>
<clus scale="   30.616">  3  4 -1 -1</clus>
<clus scale="   75.040">  1  6  2 -1</clus>
<clus scale="  128.714">  2  5  1 -1</clus>
<clus scale="   75.040">  1  3  2 -1</clus>
</clustering>
</event>
<event>
 6    0  0.2908518E+002  0.1273701E+03  0.7546771E-02  0.1231411E+00
         21   -1    0    0  503  501  0.00000000000E+00  0.00000000000E+00  0.31212972974E+03  0.31212972974E+03  0.00000000000E+00 0. -1.
         21   -1    0    0  506  502 -0.00000000000E+00 -0.00000000000E+00 -0.64584683106E+02  0.64584683106E+02  0.00000000000E+00 0. -1.
         21    1    1    2  503  502 -0.65654513785E+01  0.30049501406E+02  0.10099728792E+02  0.32374097797E+02  0.00000000000E+00 0. -1.
         21    1    1    2  504  501 -0.58658340837E+02 -0.33881377623E+02  0.57439709643E+02  0.88814801375E+02  0.00000000000E+00 0. -1.
         21    1    1    2  505  504 -0.57486574355E+02  0.79071177042E+01  0.67285621481E+02  0.88851469315E+02  0.00000000000E+00 0. -1.
         21    1    1    2  506  505  0.12271036657E+03 -0.40752414873E+01  0.11271998672E+03  0.16667404436E+03  0.00000000000E+00 0. -1.
<scales pt_clust_3="30.75838" pt_clust_4="41.23879" pt_clust_5="41.23879" pt_clust_6="119.91064"></scales>
<clustering>
<clus scale="   30.758">  2  3  1 -1</clus>
<clus scale="   41.239">  4  5 -1 -1</clus>
<clus scale="  119.911">  2  6  1 -1</clus>
<clus scale="  127.370">  1  3  2 -1</clus>
</clustering>
</event>
<event>
 6    0  0.2908518E+002  0.9433583E+02  0.7546771E-02  0.1292679E+00
         21   -1    0    0  506  501  0.00000000000E+00  0.00000000000E+00  0.10981739198E+04  0.10981739198E+04  0.00000000000E+00 0.  1.
         21   -1    0    0  503  502 -0.00000000000E+00 -0.00000000000E+00 -0.29320388410E+02  0.29320388410E+02  0.00000000000E+00 0.  1.
         21    1    1    2  503  505 -0.25656747746E+02 -0.13533492122E+03  0.37553706438E+03  0.40000237041E+03  0.00000000000E+00 0.  1.
         21    1    1    2  504  502  0.43197421491E+02  0.38353357251E+02  0.58254030232E+02  0.82039802987E+02  0.00000000000E+00 0.  1.
         21    1    1    2  505  501 -0.29044802848E+02  0.60855844319E+02  0.51880436195E+03  0.52316823331E+03  0.00000000000E+00 0.  1.
         21    1    1    2  506  504  0.11504129104E+02  0.36125719652E+02  0.11625807484E+03  0.12228390153E+03  0.00000000000E+00 0.  1.
<scales pt_clust_3="94.33583" pt_clust_4="60.11798" pt_clust_5="14000.00000" pt_clust_6="37.91322"></scales>
<clustering>
<clus scale="   37.913">  1  6  2 -1</clus>
<clus scale="   60.118">  2  4  1 -1</clus>
<clus scale="   94.336">  2  3  1 -1</clus>
<clus scale="   37.913">  1  3  2 -1</clus>
</clustering>
</event>
<event>
 6    0  0.2908518E+002  0.2001592E+03  0.7546771E-02  0.1149605E+00
         21   -1    0    0  506  501  0.00000000000E+00  0.00000000000E+00  0.14649024165E+04  0.14649024165E+04  0.00000000000E+00 0. -1.
         21   -1    0    0  505  502 -0.00000000000E+00 -0.00000000000E+00 -0.37515170283E+03  0.37515170283E+03  0.00000000000E+00 0.  1.
         21    1    1    2  503  502  0.62812633186E+02  0.11596183441E+03 -0.17026511882E+03  0.21536662837E+03  0.00000000000E+00 0.  1.
         21    1    1    2  504  503 -0.13778979509E+03  0.76445687328E+02 -0.66501163304E+02  0.17103325835E+03  0.00000000000E+00 0.  1.
         21    1    1    2  505  501 -0.34317147373E+02 -0.20131490526E+02 -0.48983375272E+02  0.63105582698E+02  0.00000000000E+00 0.  1.
         21    1    1    2  506  504  0.10929430927E+03 -0.17227603121E+03  0.13755003711E+04  0.13905486499E+04  0.00000000000E+00 0. -1.
<scales pt_clust_3="112.00193" pt_clust_4="14000.00000" pt_clust_5="39.78622" pt_clust_6="200.15915"></scales>
<clustering>
<clus scale="   39.786">  2  5  1 -1</clus>
<clus scale="  112.002">  2  3  1 -1</clus>
<clus scale="  200.159">  1  6  2 -1</clus>
<clus scale="  200.159">  1  3  2 -1</clus>
</clustering>
</event>
<event>
 6    0  0.2908518E+002  0.1062047E+03  0.7546771E-02  0.1267764E+00
         21   -1    0    0  505  501  0.00000000000E+00  0.00000000000E+00  0.68891238067E+03  0.68891238067E+03  0.00000000000E+00 0.  1.
         21   -1    0    0  506  502 -0.00000000000E+00 -0.00000000000E+00 -0.16139702973E+03  0.16139702973E+03  0.00000000000E+00 0.  1.
         21    1    1    2  503  501 -0.57514210215E+02 -0.92513991005E+02  0.62583607316E+03  0.63524602586E+03  0.00000000000E+00 0.  1.
         21    1    1    2  504  503  0.28445595774E+02  0.66277410518E+02 -0.38436032790E+02  0.81726223947E+02  0.00000000000E+00 0.  1.
         21    1    1    2  505  502 -0.39261727650E+02  0.11677677863E+02  0.54364220771E+00  0.40965192117E+02  0.00000000000E+00 0.  1.
         21    1    1    2  506  504  0.68330342091E+02  0.14558902625E+02 -0.60428331640E+02  0.92371968479E+02  0.00000000000E+00 0.  1.
<scales pt_clust_3="14000.00000" pt_clust_4="106.20466" pt_clust_5="40.96158" pt_clust_6="51.50588"></scales>
<clustering>
<clus scale="   40.962">  2  5  1 -1</clus>
<clus scale="   51.506">  2  6  1 -1</clus>
<clus scale="  106.205">  2  4  1 -1</clus>
<clus scale="  106.205">  1  3  2 -1</clus>
</clustering>
</event>
<event>
 6    0  0.2908518E+002  0.1144954E+03  0.7546771E-02  0.1252465E+00
         21   -1    0    0  506  501  0.00000000000E+00  0.00000000000E+00  0.10191275689E+03  0.10191275689E+03  0.00000000000E+00 0. -1.
         21   -1    0    0  505  502 -0.00000000000E+00 -0.00000000000E+00 -0.42880193769E+03  0.42880193769E+03  0.00000000000E+00 0.  1.
         21    1    1    2  503  501  0.46092286206E+02  0.28614014040E+02 -0.52068782822E+02  0.75195869513E+02  0.00000000000E+00 0.  1.
         21    1    1    2  504  502 -0.65860744922E+02 -0.96107258038E+02 -0.23800446750E+03  0.26499126272E+03  0.00000000000E+00 0.  1.
         21    1    1    2  505  503  0.36716748525E+02  0.33141489598E+02 -0.10288524579E+03  0.11415713625E+03  0.00000000000E+00 0.  1.
         21    1    1    2  506  504 -0.16948289808E+02  0.34351754399E+02  0.66069315306E+02  0.76370426100E+02  0.00000000000E+00 0. -1.
<scales pt_clust_3="32.69847" pt_clust_4="109.25412" pt_clust_5="32.69847" pt_clust_6="38.30519"></scales>
<clustering>
<clus scale="   32.698">  3  5 -1 -1</clus>
<clus scale="   38.305">  1  6  2 -1</clus>
<clus scale="  109.254">  2  4  1 -1</clus>
<clus scale="   38.305">  1  3  2 -1</clus>
</clustering>
</event>
<event>
 6    0  0.2908518E+002  0.1095721E+03  0.7546771E-02  0.1261364E+00
         21   -1    0    0  504  501  0.00000000000E+00  0.00000000000E+00  0.51729519879E+02  0.51729519879E+02  0.00000000000E+00 0.  1.
         21   -1    0    0  503  502 -0.00000000000E+00 -0.00000000000E+00 -0.56247206792E+03  0.56247206792E+03  0.00000000000E+00 0.  1.
         21    1    1    2  503  506  0.51769280997E+02  0.86272418684E+02 -0.31787111838E+03  0.33341421172E+03  0.00000000000E+00 0.  1.
         21    1    1    2  504  505 -0.60769638396E+02 -0.84779751374E+02 -0.10498569672E+03  0.14799510704E+03  0.00000000000E+00 0.  1.
         21    1    1    2  505  502  0.39218937913E+02  0.17281294148E+01 -0.93933368425E+02  0.10180662663E+03  0.00000000000E+00 0.  1.
         21    1    1    2  506  501 -0.30218580515E+02 -0.32207967250E+01  0.60476354818E+01  0.30985642397E+02  0.00000000000E+00 0.  1.
<scales pt_clust_3="109.57212" pt_clust_4="14000.00000" pt_clust_5="35.66264" pt_clust_6="30.38974"></scales>
<clustering>
<clus scale="   30.390">  1  6  2 -1</clus>
<clus scale="   35.663">  2  5  1 -1</clus>
<clus scale="  109.572">  2  3  1 -1</clus>
<clus scale="   30.390">  1  3  2 -1</clus>
</clustering>
</event>
<event>
 6    0  0.2908518E+002  0.8810991E+02  0.7546771E-02  0.1307494E+00
         21   -1    0    0  502  501  0.00000000000E+00  0.00000000000E+00  0.29231473904E+03  0.29231473904E+03  0.00000000000E+00 0. -1.
         21   -1    0    0  506  502 -0.00000000000E+00 -0.00000000000E+00 -0.17802896157E+03  0.17802896157E+03  0.00000000000E+00 0. -1.
         21    1    1    2  503  504  0.41804120110E+02 -0.11010654974E+03  0.22899890401E+03  0.25751026153E+03  0.00000000000E+00 0. -1.
         21    1    1    2  504  501  0.14722529778E+02  0.26704522405E+02  0.14967307581E+02  0.33969172733E+02  0.00000000000E+00 0. -1.
         21    1    1    2  505  503 -0.11948614766E+02  0.54165948631E+02 -0.23876371347E+02  0.60388744768E+02  0.00000000000E+00 0. -1.
         21    1    1    2  506  505 -0.44578035123E+02  0.29236078707E+02 -0.10580406277E+03  0.11847552158E+03  0.00000000000E+00 0. -1.
<scales pt_clust_3="14000.00000" pt_clust_4="30.49401" pt_clust_5="88.10991" pt_clust_6="53.37000"></scales>
<clustering>
<clus scale="   30.494">  1  4  2 -1</clus>
<clus scale="   53.370">  2  6  1 -1</clus>
<clus scale="   88.110">  2  5  1 -1</clus>
<clus scale="   30.494">  1  3  2 -1</clus>
</clustering>
</event>
<event>
 6    0  0.2908518E+002  0.9568941E+02  0.7546771E-02  0.1289631E+00
         21   -1    0    0  505  501  0.00000000000E+00  0.00000000000E+00  0.61270701052E+03  0.61270701052E+03  0.00000000000E+00 0. -1.
         21   -1    0    0  504  502 -0.00000000000E+00 -0.00000000000E+00 -0.18702266767E+03  0.18702266767E+03  0.00000000000E+00 0. -1.
         21    1    1    2  503  501 -0.10727826471E+03  0.67864536605E+01  0.76910526499E+02  0.13217379134E+03  0.00000000000E+00 0. -1.
         21    1    1    2  504  503  0.46395973653E+02 -0.83914748029E+02 -0.12316112958E+03  0.15608630672E+03  0.00000000000E+00 0. -1.
         21    1    1    2  505  506  0.25722223327E+02  0.51303947500E+02  0.46349647395E+03  0.46703608979E+03  0.00000000000E+00 0. -1.
         21    1    1    2  506  502  0.35160067726E+02  0.25824346869E+02  0.84384719747E+01  0.44433490330E+02  0.00000000000E+00 0. -1.
<scales pt_clust_3="95.68941" pt_clust_4="14000.00000" pt_clust_5="57.79810" pt_clust_6="43.62485"></scales>
<clustering>
<clus scale="   43.625">  2  6  1 -1</clus>
<clus scale="   57.798">  1  5  2 -1</clus>
<clus scale="   95.689">  1  3  2 -1</clus>
<clus scale="   57.798">  1  3  2 -1</clus>
</clustering>
</event>
<event>
 6    0  0.2908518E+002  0.1325373E+03  0.7546771E-02  0.1223739E+00
         21   -1    0    0  504  501  0.00000000000E+00  0.00000000000E+00  0.26909923599E+03  0.26909923599E+03  0.00000000000E+00 0.  1.
         21   -1    0    0  503  502 -0.00000000000E+00 -0.00000000000E+00 -0.52981172032E+03  0.52981172032E+03  0.00000000000E+00 0. -1.
         21    1    1    2  503  506 -0.74359870675E+01  0.64392327229E+02 -0.21026142422E+03  0.22002620804E+03  0.00000000000E+00 0. -1.
         21    1    1    2  504  505  0.11554109762E+02  0.31077640218E+02  0.23368739023E+03  0.23602778126E+03  0.00000000000E+00 0.  1.
         21    1    1    2  505  502 -0.16503063283E+02 -0.14233027633E+03 -0.21755040703E+03  0.26049652254E+03  0.00000000000E+00 0. -1.
         21    1    1    2  506  501  0.12384940589E+02  0.46860308878E+02 -0.66588043299E+02  0.82360444462E+02  0.00000000000E+00 0. -1.
<scales pt_clust_3="44.05388" pt_clust_4="33.15595" pt_clust_5="123.18971" pt_clust_6="44.05388"></scales>
<clustering>
<clus scale="   33.156">  1  4  2 -1</clus>
<clus scale="   44.054">  3  6 -1 -1</clus>
<clus scale="  123.190">  1  5  2 -1</clus>
<clus scale="   33.156">  1  3  2 -1</clus>
</clustering>
</event>
<event>
 6    0  0.2908518E+002  0.1872353E+03  0.7546771E-02  0.1160979E+00
         21   -1    0    0  506  501  0.00000000000E+00  0.00000000000E+00  0.38286171017E+03  0.38286171017E+03  0.00000000000E+00 0. -1.
         21   -1    0    0  505  502 -0.00000000000E+00 -0.00000000000E+00 -0.39630120815E+03  0.39630120815E+03  0.00000000000E+00 0. -1.
         21    1    1    2  503  502  0.20732469352E+02 -0.42185869693E+02  0.35514126661E+02  0.58912953412E+02  0.00000000000E+00 0. -1.
         21    1    1    2  504  501 -0.23850424315E+03 -0.10415289060E+02  0.11783416828E+03  0.26622855493E+03  0.00000000000E+00 0. -1.
         21    1    1    2  505  504  0.17472139559E+03  0.46225764089E+02 -0.27970073909E+03  0.33301184782E+03  0.00000000000E+00 0. -1.
         21    1    1    2  506  503  0.43050378200E+02  0.63753946645E+01  0.11291294617E+03  0.12100956215E+03  0.00000000000E+00 0. -1.
<scales pt_clust_3="49.90637" pt_clust_4="187.23531" pt_clust_5="14000.00000" pt_clust_6="43.51989"></scales>
<clustering>
<clus scale="   43.520">  1  6  2 -1</clus>
<clus scale="   49.906">  1  3  2 -1</clus>
<clus scale="  187.235">  1  4  2 -1</clus>
<clus scale="   43.520">  1  3  2 -1</clus>
</clustering>
</event>
<event>
 6    0  0.2908518E+002  0.1453206E+03  0.7546771E-02  0.1206344E+00
         21   -1    0    0  505  501  0.00000000000E+00  0.00000000000E+00  0.77318509332E+03  0.77318509332E+03  0.00000000000E+00 0.  1.
         21   -1    0    0  501  502 -0.00000000000E+00 -0.00000000000E+00 -0.59812500050E+02  0.59812500050E+02  0.00000000000E+00 0.  1.
         21    1    1    2  503  502  0.51295228673E+02 -0.16692379375E+02  0.12138665215E+02  0.55291800541E+02  0.00000000000E+00 0.  1.
         21    1    1    2  504  506  0.13223346986E+02 -0.69761103359E+02  0.35014984505E+02  0.79167654931E+02  0.00000000000E+00 0.  1.
         21    1    1    2  505  504 -0.85883895951E+02  0.12292655484E+03  0.61022782912E+03  0.62838283307E+03  0.00000000000E+00 0.  1.
         21    1    1    2  506  503  0.21365320291E+02 -0.36473072107E+02  0.55991114426E+02  0.70155304822E+02  0.00000000000E+00 0. -1.
<scales pt_clust_3="53.94290" pt_clust_4="30.21142" pt_clust_5="139.94616" pt_clust_6="30.21142"></scales>
<clustering>
<clus scale="   30.211">  4  6 -1 -1</clus>
<clus scale="   53.943">  2  3  1 -1</clus>
<clus scale="  139.946">  1  5  2 -1</clus>
<clus scale="  139.946">  1  3  2 -1</clus>
</clustering>
</event>
<event>
 6    0  0.2908518E+002  0.1352662E+03  0.7546771E-02  0.1219844E+00
         21   -1    0    0  506  501  0.00000000000E+00  0.00000000000E+00  0.12184404088E+03  0.12184404088E+03  0.00000000000E+00 0.  1.
         21   -1    0    0  505  502 -0.00000000000E+00 -0.00000000000E+00 -0.50257008457E+03  0.50257008457E+03  0.00000000000E+00 0.  1.
         21    1    1    2  503  502 -0.72372283346E+02  0.15488232161E+03 -0.13372631900E+03  0.21704609957E+03  0.00000000000E+00 0.  1.
         21    1    1    2  504  501 -0.91615355494E+02 -0.94506481243E+02 -0.10566420314E+03  0.16878913526E+03  0.00000000000E+00 0.  1.
         21    1    1    2  505  504  0.47871188346E+02 -0.55561819671E+01 -0.86364189360E+02  0.98900429905E+02  0.00000000000E+00 0. -1.
         21    1    1    2  506  503  0.11611645049E+03 -0.54819658399E+02 -0.54971332194E+02  0.13967846071E+03  0.00000000000E+00 0.  1.
<scales pt_clust_3="14000.00000" pt_clust_4="122.47614" pt_clust_5="48.19255" pt_clust_6="135.26617"></scales>
<clustering>
<clus scale="   48.193">  2  5  1 -1</clus>
<clus scale="  122.476">  2  4  1 -1</clus>
<clus scale="  135.266">  1  6  2 -1</clus>
<clus scale="  135.266">  1  3  2 -1</clus>
</clustering>
</event>
<event>
 6    0  0.2908518E+002  0.1001695E+03  0.7546771E-02  0.1279940E+00
         21   -1    0    0  504  501  0.00000000000E+00  0.00000000000E+00  0.15551836716E+04  0.15551836716E+04  0.00000000000E+00 0. -1.
         21   -1    0    0  505  502 -0.00000000000E+00 -0.00000000000E+00 -0.59116930773E+02  0.59116930773E+02  0.00000000000E+00 0. -1.
         21    1    1    2  503  506 -0.49616256433E+02  0.29693779564E+02  0.16520946571E+03  0.17503617056E+03  0.00000000000E+00 0.  1.
         21    1    1    2  504  503 -0.55758000720E+02 -0.72187542292E+01  0.10901950687E+04  0.10916438764E+04  0.00000000000E+00 0. -1.
         21    1    1    2  505  501  0.44862301271E+02 -0.11126199936E+03  0.19903150499E+03  0.23239061632E+03  0.00000000000E+00 0. -1.
         21    1    1    2  506  502  0.60511955882E+02  0.88786974024E+02  0.41630701433E+02  0.11522993909E+03  0.00000000000E+00 0. -1.
<scales pt_clust_3="75.08889" pt_clust_4="56.22335" pt_clust_5="14000.00000" pt_clust_6="100.16946"></scales>
<clustering>
<clus scale="   56.223">  1  4  2 -1</clus>
<clus scale="   75.089">  1  3  2 -1</clus>
<clus scale="  100.169">  2  6  1 -1</clus>
<clus scale="   56.223">  1  3  2 -1</clus>
</clustering>
</event>
<event>
 6    0  0.7476856E+002  0.1340396E+03  0.7546771E-02  0.1221582E+00
         21   -1    0    0  503  501  0.00000000000E+00  0.00000000000E+00  0.55836305169E+03  0.55836305169E+03  0.00000000000E+00 0.  1.
         21   -1    0    0  504  502 -0.00000000000E+00 -0.00000000000E+00 -0.21776233978E+04  0.21776233978E+04  0.00000000000E+00 0. -1.
         21    1    1    2  503  502 -0.92442829298E+02 -0.69902390100E+02 -0.17308981665E+04  0.17347738999E+04  0.00000000000E+00 0. -1.
         21    1    1    2  504  506  0.10816503874E+02  0.28560678595E+02 -0.45588249403E+02  0.54872557818E+02  0.00000000000E+00 0. -1.
         21    1    1    2  505  501  0.99603611421E+02  0.89828983296E+02  0.54187619657E+03  0.55822928807E+03  0.00000000000E+00 0.  1.
         21    1    1    2  506  505 -0.17977285997E+02 -0.48487271791E+02 -0.38465012674E+03  0.38811070371E+03  0.00000000000E+00 0. -1.
<scales pt_clust_3="14000.00000" pt_clust_4="30.54029" pt_clust_5="134.03963" pt_clust_6="46.16603"></scales>
<clustering>
<clus scale="   30.540">  2  4  1 -1</clus>
<clus scale="   46.166">  2  6  1 -1</clus>
<clus scale="  134.040">  1  5  2 -1</clus>
<clus scale="  134.040">  1  3  2 -1</clus>
</clustering>
</event>
<event>
 6    0  0.2908518E+002  0.1612857E+03  0.7546771E-02  0.1187253E+00
         21   -1    0    0  505  501  0.00000000000E+00  0.00000000000E+00  0.29370644626E+03  0.29370644626E+03  0.00000000000E+00 0.  1.
         21   -1    0    0  506  502 -0.00000000000E+00 -0.00000000000E+00 -0.71018819263E+03  0.71018819263E+03  0.00000000000E+00 0.  1.
         21    1    1    2  503  504 -0.86416405773E+02 -0.40598303609E+01  0.83483794875E+02  0.12022404675E+03  0.00000000000E+00 0.  1.
         21    1    1    2  504  502  0.50465253310E+02  0.55881267180E+02 -0.24073291670E+03  0.25223361195E+03  0.00000000000E+00 0. -1.
         21    1    1    2  505  503 -0.59759456261E+02 -0.19058022887E+02  0.17483004529E+03  0.18574160973E+03  0.00000000000E+00 0.  1.
         21    1    1    2  506  501  0.95710608724E+02 -0.32763413932E+02 -0.43406266983E+03  0.44569537047E+03  0.00000000000E+00 0.  1.
<scales pt_clust_3="60.13223" pt_clust_4="75.29580" pt_clust_5="60.13223" pt_clust_6="145.00333"></scales>
<clustering>
<clus scale="   60.132">  3  5 -1 -1</clus>
<clus scale="   75.296">  2  4  1 -1</clus>
<clus scale="  145.003">  2  6  1 -1</clus>
<clus scale="  161.286">  1  3  2 -1</clus>
</clustering>
</event>
<event>
 6    0  0.2908518E+002  0.2727338E+03  0.7546771E-02  0.1099725E+00
         21   -1    0    0  502  501  0.00000000000E+00  0.00000000000E+00  0.92122387366E+02  0.92122387366E+02  0.00000000000E+00 0.  1.
         21   -1    0    0  504  502 -0.00000000000E+00 -0.00000000000E+00 -0.16879735997E+04  0.16879735997E+04  0.00000000000E+00 0. -1.
         21    1    1    2  503  505 -0.74014473202E+02  0.67292645312E+02 -0.14431943175E+03  0.17559766723E+03  0.00000000000E+00 0.  1.
         21    1    1    2  504  503  0.18919920329E+03 -0.18060269992E+03 -0.10778727027E+04  0.11091542891E+04  0.00000000000E+00 0. -1.
         21    1    1    2  505  506 -0.15520150314E+03  0.93865726863E+02 -0.40307765294E+03  0.44200664651E+03  0.00000000000E+00 0.  1.
         21    1    1    2  506  501  0.40016773060E+02  0.19444327740E+02  0.29418575017E+02  0.53337384295E+02  0.00000000000E+00 0.  1.
<scales pt_clust_3="42.52877" pt_clust_4="266.65368" pt_clust_5="42.52877" pt_clust_6="44.49072"></scales>
<clustering>
<clus scale="   42.529">  3  5 -1 -1</clus>
<clus scale="   44.491">  1  6  2 -1</clus>
<clus scale="  266.654">  2  4  1 -1</clus>
<clus scale="   44.491">  1  3  2 -1</clus>
</clustering>
</event>
<event>
 6    0  0.2908518E+002  0.1286111E+03  0.7546771E-02  0.1229531E+00
         21   -1    0    0  503  501  0.00000000000E+00  0.00000000000E+00  0.32062224091E+02  0.32062224091E+02  0.00000000000E+00 0.  1.
         21   -1    0    0  504  502 -0.00000000000E+00 -0.00000000000E+00 -0.13139335460E+04  0.13139335460E+04  0.00000000000E+00 0. -1.
         21    1    1    2  503  505 -0.55494139972E+01  0.10373140671E+03 -0.39209680529E+03  0.40562409377E+03  0.00000000000E+00 0. -1.
         21    1    1    2  504  506  0.36121787135E+02 -0.13322037935E+02 -0.14261686469E+03  0.14772213881E+03  0.00000000000E+00 0.  1.
         21    1    1    2  505  502 -0.46263429983E+02  0.53386949890E+02 -0.50992732255E+03  0.51479738311E+03  0.00000000000E+00 0. -1.
         21    1    1    2  506  501  0.15691056845E+02 -0.14379631866E+03 -0.23723032938E+03  0.27785215440E+03  0.00000000000E+00 0.  1.
<scales pt_clust_3="128.61111" pt_clust_4="38.50013" pt_clust_5="56.44987" pt_clust_6="14000.00000"></scales>
<clustering>
<clus scale="   38.500">  2  4  1 -1</clus>
<clus scale="   56.450">  2  5  1 -1</clus>
<clus scale="  128.611">  2  3  1 -1</clus>
<clus scale="  128.611">  1  3  2 -1</clus>
</clustering>
</event>
<event>
 6    0  0.2908518E+002  0.1991335E+03  0.7546771E-02  0.1150472E+00
         21   -1    0    0  504  501  0.00000000000E+00  0.00000000000E+00  0.12692857178E+03  0.12692857178E+03  0.00000000000E+00 0. -1.
         21   -1    0    0  506  502 -0.00000000000E+00 -0.00000000000E+00 -0.44415370243E+03  0.44415370243E+03  0.00000000000E+00 0. -1.
         21    1    1    2  503  501  0.17363037727E+03 -0.16472175312E+01 -0.98267322025E+02  0.19951613422E+03  0.00000000000E+00 0. -1.
         21    1    1    2  504  502 -0.43445146861E+02 -0.21835014657E+02  0.99410505090E+01  0.49629357603E+02  0.00000000000E+00 0. -1.
         21    1    1    2  505  503  0.38771340800E+02 -0.29235656249E+02 -0.38398739188E+02  0.61906410290E+02  0.00000000000E+00 0. -1.
         21    1    1    2  506  505 -0.16895657121E+03  0.52717888437E+02 -0.19050011994E+03  0.26003037210E+03  0.00000000000E+00 0. -1.
<scales pt_clust_3="31.71129" pt_clust_4="48.62354" pt_clust_5="31.71129" pt_clust_6="189.89008"></scales>
<clustering>
<clus scale="   31.711">  3  5 -1 -1</clus>
<clus scale="   48.624">  1  4  2 -1</clus>
<clus scale="  189.890">  2  6  1 -1</clus>
<clus scale="   48.624">  1  3  2 -1</clus>
</clustering>
</event>
<event>
 6    0  0.2908518E+002  0.1216597E+03  0.7546771E-02  0.1240384E+00
         21   -1    0    0  503  501  0.00000000000E+00  0.00000000000E+00  0.11822715068E+04  0.11822715068E+04  0.00000000000E+00 0. -1.
         21   -1    0    0  506  502 -0.00000000000E+00 -0.00000000000E+00 -0.36350894864E+02  0.36350894864E+02  0.00000000000E+00 0. -1.
         21    1    1    2  503  502 -0.61482034025E+02  0.12605458177E+03  0.74773570825E+03  0.76077492564E+03  0.00000000000E+00 0. -1.
         21    1    1    2  504  505  0.76144177466E+02 -0.18899606360E+02  0.23185977413E+03  0.24477353971E+03  0.00000000000E+00 0. -1.
         21    1    1    2  505  501  0.27115772452E+02 -0.77021065889E+02  0.10336735074E+03  0.13172820087E+03  0.00000000000E+00 0. -1.
         21    1    1    2  506  504 -0.41777915893E+02 -0.30133909521E+02  0.62957778785E+02  0.81345735407E+02  0.00000000000E+00 0. -1.
<scales pt_clust_3="121.65968" pt_clust_4="71.15646" pt_clust_5="14000.00000" pt_clust_6="51.51162"></scales>
<clustering>
<clus scale="   51.512">  2  6  1 -1</clus>
<clus scale="   71.156">  2  4  1 -1</clus>
<clus scale="  121.660">  1  3  2 -1</clus>
<clus scale="  121.660">  1  3  2 -1</clus>
</clustering>
</event>
<event>
 6    0  0.3044269E+002  0.1063239E+03  0.7546771E-02  0.1267533E+00
         21   -1    0    0  502  501  0.00000000000E+00  0.00000000000E+00  0.93593788554E+02  0.93593788554E+02  0.00000000000E+00 0. -1.
         21   -1    0    0  503  502 -0.00000000000E+00 -0.00000000000E+00 -0.42241780207E+03  0.42241780207E+03  0.00000000000E+00 0. -1.
         21    1    1    2  503  505  0.57039139965E+02 -0.26394848885E+02 -0.27979328826E+03  0.28676547158E+03  0.00000000000E+00 0. -1.
         21    1    1    2  504  501 -0.10244713128E+03  0.67720416436E+02  0.27135727259E+02  0.12576890396E+03  0.00000000000E+00 0. -1.
         21    1    1    2  505  506  0.29805303617E+02 -0.74358487970E+01 -0.46873922648E+02  0.56042953129E+02  0.00000000000E+00 0. -1.
         21    1    1    2  506  504  0.15602687702E+02 -0.33889718754E+02 -0.29292529868E+02  0.47434261951E+02  0.00000000000E+00 0.  1.
<scales pt_clust_3="62.85023" pt_clust_4="100.83772" pt_clust_5="30.59032" pt_clust_6="30.59032"></scales>
<clustering>
<clus scale="   30.590">  5  6 -1 -1</clus>
<clus scale="   62.850">  2  3  1 -1</clus>
<clus scale="  100.838">  1  4  2 -1</clus>
<clus scale="  100.838">  1  3  2 -1</clus>
</clustering>
</event>
<event>
 6    0  0.2908518E+002  0.9334163E+02  0.7546771E-02  0.1294955E+00
         21   -1    0    0  505  501  0.00000000000E+00  0.00000000000E+00  0.27464303110E+03  0.27464303110E+03  0.00000000000E+00 0. -1.
         21   -1    0    0  506  502 -0.00000000000E+00 -0.00000000000E+00 -0.98017580493E+02  0.98017580493E+02  0.00000000000E+00 0. -1.
         21    1    1    2  503  501  0.40691473339E+02  0.70784187674E+01  0.28535124934E+00  0.41303528180E+02  0.00000000000E+00 0. -1.
         21    1    1    2  504  502 -0.12710702182E+03  0.12980085525E+02  0.13167104724E+03  0.18347191147E+03  0.00000000000E+00 0. -1.
         21    1    1    2  505  504  0.48128040745E+02 -0.32123115121E+02  0.77016112601E+02  0.96331118706E+02  0.00000000000E+00 0. -1.
         21    1    1    2  506  503  0.38287507739E+02  0.12064610828E+02 -0.32347060484E+02  0.51554053238E+02  0.00000000000E+00 0. -1.
<scales pt_clust_3="31.02651" pt_clust_4="87.87615" pt_clust_5="57.86366" pt_clust_6="31.02651"></scales>
<clustering>
<clus scale="   31.027">  3  6 -1 -1</clus>
<clus scale="   57.864">  1  5  2 -1</clus>
<clus scale="   87.876">  1  4  2 -1</clus>
<clus scale="   57.864">  1  3  2 -1</clus>
</clustering>
</event>
<event>
 6    0  0.2908518E+002  0.7487753E+02  0.7546771E-02  0.1344251E+00
         21   -1    0    0  502  501  0.00000000000E+00  0.00000000000E+00  0.16816462626E+04  0.16816462626E+04  0.00000000000E+00 0.  1.
         21   -1    0    0  504  502 -0.00000000000E+00 -0.00000000000E+00 -0.16656160204E+02  0.16656160204E+02  0.00000000000E+00 0.  1.
         21    1    1    2  503  505  0.71801205049E+02  0.55737016684E+02  0.31934047049E+03  0.33202464392E+03  0.00000000000E+00 0.  1.
         21    1    1    2  504  503 -0.10777842110E+02 -0.72674352542E+02  0.22248710813E+03  0.23430372741E+03  0.00000000000E+00 0.  1.
         21    1    1    2  505  506 -0.38974692072E+02  0.41438514676E+02  0.19254270797E+03  0.20077069386E+03  0.00000000000E+00 0.  1.
         21    1    1    2  506  501 -0.22048670867E+02 -0.24501178818E+02  0.93061981580E+03  0.93120335761E+03  0.00000000000E+00 0.  1.
<scales pt_clust_3="74.87753" pt_clust_4="14000.00000" pt_clust_5="56.82450" pt_clust_6="32.96137"></scales>
<clustering>
<clus scale="   32.961">  1  6  2 -1</clus>
<clus scale="   56.825">  1  5  2 -1</clus>
<clus scale="   74.878">  1  3  2 -1</clus>
<clus scale="   32.961">  1  3  2 -1</clus>
</clustering>
</event>
<event>
 6    0  0.2908518E+002  0.9087230E+02  0.7546771E-02  0.1300753E+00
         21   -1    0    0  506  501  0.00000000000E+00  0.00000000000E+00  0.46081341006E+03  0.46081341006E+03  0.00000000000E+00 0. -1.
         21   -1    0    0  503  502 -0.00000000000E+00 -0.00000000000E+00 -0.18239921006E+03  0.18239921006E+03  0.00000000000E+00 0. -1.
         21    1    1    2  503  501  0.41719241880E+02  0.12372360865E+03 -0.63439197284E+02  0.14516390127E+03  0.00000000000E+00 0. -1.
         21    1    1    2  504  502 -0.21081987497E+02 -0.27705779190E+02 -0.34874088945E+02  0.49277403312E+02  0.00000000000E+00 0. -1.
         21    1    1    2  505  504 -0.34386634862E+01 -0.64494289175E+02 -0.55379586617E+01  0.64822887385E+02  0.00000000000E+00 0. -1.
         21    1    1    2  506  505 -0.17198590896E+02 -0.31523540287E+02  0.38226544489E+03  0.38394842815E+03  0.00000000000E+00 0. -1.
<scales pt_clust_3="14000.00000" pt_clust_4="34.81466" pt_clust_5="90.87230" pt_clust_6="36.11637"></scales>
<clustering>
<clus scale="   34.815">  2  4  1 -1</clus>
<clus scale="   36.116">  1  6  2 -1</clus>
<clus scale="   90.872">  1  5  2 -1</clus>
<clus scale="   36.116">  1  3  2 -1</clus>
</clustering>
</event>
<event>
 6    0  0.2908518E+002  0.9936163E+02  0.7546771E-02  0.1281644E+00
         21   -1    0    0  503  501  0.00000000000E+00  0.00000000000E+00  0.12839355187E+04  0.12839355187E+04  0.00000000000E+00 0.  1.
         21   -1    0    0  504  502 -0.00000000000E+00 -0.00000000000E+00 -0.11131727688E+03  0.11131727688E+03  0.00000000000E+00 0. -1.
         21    1    1    2  503  505 -0.58641374790E+02  0.78927668794E+02  0.11083866990E+04  0.11127396202E+04  0.00000000000E+00 0.  1.
         21    1    1    2  504  506  0.21532728032E+02  0.34375326169E+02  0.12776609039E+02  0.42527204990E+02  0.00000000000E+00 0. -1.
         21    1    1    2  505  502  0.87152810507E+02 -0.11062270660E+03 -0.30338170480E+02  0.14406040463E+03  0.00000000000E+00 0. -1.
         21    1    1    2  506  501 -0.50044163750E+02 -0.26802883679E+01  0.81793104205E+02  0.95925565761E+02  0.00000000000E+00 0. -1.
<scales pt_clust_3="99.36163" pt_clust_4="40.56256" pt_clust_5="14000.00000" pt_clust_6="48.46675"></scales>
<clustering>
<clus scale="   40.563">  2  4  1 -1</clus>
<clus scale="   48.467">  2  6  1 -1</clus>
<clus scale="   99.362">  1  3  2 -1</clus>
<clus scale="   99.362">  1  3  2 -1</clus>
</clustering>
</event>
<event>
 6    0  0.2908518E+002  0.4184969E+03  0.7546771E-02  0.1037557E+00
         21   -1    0    0  503  501  0.00000000000E+00  0.00000000000E+00  0.98365519692E+03  0.98365519692E+03  0.00000000000E+00 0.  1.
         21   -1    0    0  505  502 -0.00000000000E+00 -0.00000000000E+00 -0.85552926338E+03  0.85552926338E+03  0.00000000000E+00 0.  1.
         21    1    1    2  503  506 -0.50030298627E+02  0.11516605455E+03  0.74059047782E+03  0.75115944162E+03  0.00000000000E+00 0.  1.
         21    1    1    2  504  501 -0.19069150319E+01  0.11623862462E+03  0.21853448117E+02  0.11829043652E+03  0.00000000000E+00 0.  1.
         21    1    1    2  505  504 -0.10900339055E+02  0.21736851417E+03 -0.38255859090E+02  0.22097827744E+03  0.00000000000E+00 0.  1.
         21    1    1    2  506  502  0.62837552713E+02 -0.44877319334E+03 -0.59606213330E+03  0.74875630472E+03  0.00000000000E+00 0.  1.
<scales pt_clust_3="125.56373" pt_clust_4="42.46832" pt_clust_5="42.46832" pt_clust_6="414.44326"></scales>
<clustering>
<clus scale="   42.468">  4  5 -1 -1</clus>
<clus scale="  125.564">  1  3  2 -1</clus>
<clus scale="  414.443">  2  6  1 -1</clus>
<clus scale="  125.564">  1  3  2 -1</clus>
</clustering>
</event>
<event>
 6    0  0.2908518E+002  0.1741541E+03  0.7546771E-02  0.1173584E+00
         21   -1    0    0  503  501  0.00000000000E+00  0.00000000000E+00  0.50422282536E+03  0.50422282536E+03  0.00000000000E+00 0. -1.
         21   -1    0    0  504  502 -0.00000000000E+00 -0.00000000000E+00 -0.16412909656E+03  0.16412909656E+03  0.00000000000E+00 0. -1.
         21    1    1    2  503  506  0.38589861671E+02  0.34821179253E+02  0.28249739380E+03  0.28723939397E+03  0.00000000000E+00 0. -1.
         21    1    1    2  504  501  0.55288751107E+02 -0.16249516612E+03  0.10679089892E+03  0.20215296462E+03  0.00000000000E+00 0. -1.
         21    1    1    2  505  502 -0.47744761084E+02  0.15051450571E+02 -0.95803975826E+01  0.50969524160E+02  0.00000000000E+00 0. -1.
         21    1    1    2  506  505 -0.46133851694E+02  0.11262253630E+03 -0.39614166330E+02  0.12799003917E+03  0.00000000000E+00 0. -1.
<scales pt_clust_3="51.97780" pt_clust_4="160.73917" pt_clust_5="42.98760" pt_clust_6="42.98760"></scales>
<clustering>
<clus scale="   42.988">  5  6 -1 -1</clus>
<clus scale="   51.978">  1  3  2 -1</clus>
<clus scale="  160.739">  1  4  2 -1</clus>
<clus scale="   51.978">  1  3  2 -1</clus>
</clustering>
</event>
<event>
 6    0  0.3593224E+002  0.8572840E+02  0.7546771E-02  0.1313539E+00
         21   -1    0    0  506  501  0.00000000000E+00  0.00000000000E+00  0.47257246016E+03  0.47257246016E+03  0.00000000000E+00 0. -1.
         21   -1    0    0  504  502 -0.00000000000E+00 -0.00000000000E+00 -0.21049230826E+04  0.21049230826E+04  0.00000000000E+00 0. -1.
         21    1    1    2  503  505 -0.10522434628E+02  0.74556861888E+02 -0.49591536660E+03  0.50159894150E+03  0.00000000000E+00 0.  1.
         21    1    1    2  504  501 -0.10048701468E+02 -0.75915843231E+02 -0.17079539858E+03  0.18717708148E+03  0.00000000000E+00 0.  1.
         21    1    1    2  505  502 -0.25606277883E+01  0.57486507322E+02 -0.14246000846E+04  0.14257617810E+04  0.00000000000E+00 0. -1.
         21    1    1    2  506  503  0.23131763884E+02 -0.56127525979E+02  0.45896022727E+03  0.46295773877E+03  0.00000000000E+00 0. -1.
<scales pt_clust_3="14000.00000" pt_clust_4="85.72840" pt_clust_5="57.54351" pt_clust_6="60.54819"></scales>
<clustering>
<clus scale="   57.544">  2  5  1 -1</clus>
<clus scale="   60.548">  1  6  2 -1</clus>
<clus scale="   85.728">  2  4  1 -1</clus>
<clus scale="   60.548">  1  3  2 -1</clus>
</clustering>
</event>
<event>
 6    0  0.2908518E+002  0.8372642E+02  0.7546771E-02  0.1318797E+00
         21   -1    0    0  503  501  0.00000000000E+00  0.00000000000E+00  0.19697938248E+04  0.19697938248E+04  0.00000000000E+00 0.  1.
         21   -1    0    0  505  502 -0.00000000000E+00 -0.00000000000E+00 -0.25992352858E+02  0.25992352858E+02  0.00000000000E+00 0.  1.
         21    1    1    2  503  506  0.35791464127E+02 -0.19864501421E+02  0.27546332927E+03  0.27848819202E+03  0.00000000000E+00 0.  1.
         21    1    1    2  504  501 -0.43965977074E+02 -0.69999202749E+02  0.14967595668E+04  0.14990403919E+04  0.00000000000E+00 0.  1.
         21    1    1    2  505  504 -0.40930877732E+02  0.68909850669E+02  0.11777755771E+03  0.14246212609E+03  0.00000000000E+00 0.  1.
         21    1    1    2  506  502  0.49105390680E+02  0.20953853500E+02  0.53801018147E+02  0.75795467701E+02  0.00000000000E+00 0.  1.
<scales pt_clust_3="40.93443" pt_clust_4="83.72642" pt_clust_5="14000.00000" pt_clust_6="54.36493"></scales>
<clustering>
<clus scale="   40.934">  1  3  2 -1</clus>
<clus scale="   54.365">  2  6  1 -1</clus>
<clus scale="   83.726">  1  4  2 -1</clus>
<clus scale="   40.934">  1  3  2 -1</clus>
</clustering>
</event>
<event>
 6    0  0.2908518E+002  0.2117679E+03  0.7546771E-02  0.1140174E+00
         21   -1    0    0  505  501  0.00000000000E+00  0.00000000000E+00  0.92074085168E+03  0.92074085168E+03  0.00000000000E+00 0.  1.
         21   -1    0    0  506  502 -0.00000000000E+00 -0.00000000000E+00 -0.18505325089E+03  0.18505325089E+03  0.00000000000E+00 0. -1.
         21    1    1    2  503  501  0.57715511160E+02  0.27112276460E+02  0.56715878647E+01  0.64018143306E+02  0.00000000000E+00 0.  1.
         21    1    1    2  504  502 -0.14570720753E+03  0.42642352256E+02  0.13889288330E+03  0.20576732871E+03  0.00000000000E+00 0. -1.
         21    1    1    2  505  504 -0.96588702472E+02 -0.82896635980E+02  0.63350842803E+03  0.64616883095E+03  0.00000000000E+00 0.  1.
         21    1    1    2  506  503  0.18458039884E+03  0.13142007264E+02 -0.42385298409E+02  0.18983979960E+03  0.00000000000E+00 0. -1.
<scales pt_clust_3="30.88562" pt_clust_4="205.12772" pt_clust_5="127.28405" pt_clust_6="30.88562"></scales>
<clustering>
<clus scale="   30.886">  3  6 -1 -1</clus>
<clus scale="  127.284">  1  5  2 -1</clus>
<clus scale="  205.128">  1  4  2 -1</clus>
<clus scale="  127.284">  1  3  2 -1</clus>
</clustering>
</event>
<event>
 6    0  0.2908518E+002  0.1715559E+03  0.7546771E-02  0.1176235E+00
         21   -1    0    0  502  501  0.00000000000E+00  0.00000000000E+00  0.74584059462E+03  0.74584059462E+03  0.00000000000E+00 0. -1.
         21   -1    0    0  504  502 -0.00000000000E+00 -0.00000000000E+00 -0.15706283597E+03  0.15706283597E+03  0.00000000000E+00 0. -1.
         21    1    1    2  503  505 -0.46013887927E+02  0.13486520184E+03  0.33932573533E+03  0.36803241054E+03  0.00000000000E+00 0. -1.
         21    1    1    2  504  506  0.17883298455E+01 -0.55549984629E+02 -0.52260611044E+01  0.55823925253E+02  0.00000000000E+00 0. -1.
         21    1    1    2  505  501  0.22690682599E+02  0.31856621799E+02  0.33686445834E+03  0.33912737242E+03  0.00000000000E+00 0. -1.
         21    1    1    2  506  503  0.21534875482E+02 -0.11117183901E+03 -0.82186373929E+02  0.13991972238E+03  0.00000000000E+00 0. -1.
<scales pt_clust_3="164.61147" pt_clust_4="33.84971" pt_clust_5="39.11153" pt_clust_6="33.84971"></scales>
<clustering>
<clus scale="   33.850">  4  6 -1 -1</clus>
<clus scale="   39.112">  1  5  2 -1</clus>
<clus scale="  164.611">  1  3  2 -1</clus>
<clus scale="   39.112">  1  3  2 -1</clus>
</clustering>
</event>
<event>
 6    0  0.2908518E+002  0.1126521E+03  0.7546771E-02  0.1255736E+00
         21   -1    0    0  504  501  0.00000000000E+00  0.00000000000E+00  0.15066760015E+04  0.15066760015E+04  0.00000000000E+00 0.  1.
         21   -1    0    0  503  502 -0.00000000000E+00 -0.00000000000E+00 -0.49021773053E+02  0.49021773053E+02  0.00000000000E+00 0. -1.
         21    1    1    2  503  501 -0.50433561522E+01 -0.35372319695E+02  0.77699491338E+02  0.85521034817E+02  0.00000000000E+00 0.  1.
         21    1    1    2  504  506  0.11029125080E+03 -0.36642454584E+02  0.12988977043E+04  0.13040866826E+04  0.00000000000E+00 0.  1.
         21    1    1    2  505  502 -0.50478392529E+02 -0.40988564178E+01  0.21603009601E+02  0.55059592807E+02  0.00000000000E+00 0.  1.
         21    1    1    2  506  505 -0.54769502119E+02  0.76113630697E+02  0.59454023259E+02  0.11103046439E+03  0.00000000000E+00 0. -1.
<scales pt_clust_3="35.73005" pt_clust_4="112.65214" pt_clust_5="55.10680" pt_clust_6="14000.00000"></scales>
<clustering>
<clus scale="   35.730">  2  3  1 -1</clus>
<clus scale="   55.107">  2  5  1 -1</clus>
<clus scale="  112.652">  1  4  2 -1</clus>
<clus scale="  112.652">  1  3  2 -1</clus>
</clustering>
</event>
<event>
 6    0  0.2908518E+002  0.9674942E+02  0.7546771E-02  0.1287284E+00
         21   -1    0    0  504  501  0.00000000000E+00  0.00000000000E+00  0.72458284142E+03  0.72458284142E+03  0.00000000000E+00 0. -1.
         21   -1    0    0  506  502 -0.00000000000E+00 -0.00000000000E+00 -0.63637244765E+02  0.63637244765E+02  0.00000000000E+00 0. -1.
         21    1    1    2  503  502  0.25654295100E+02  0.17591899916E+02  0.96313937627E+01  0.32563500205E+02  0.00000000000E+00 0. -1.
         21    1    1    2  504  503  0.22574108506E+02  0.25992952686E+02  0.85932702819E+02  0.92572422340E+02  0.00000000000E+00 0. -1.
         21    1    1    2  505  501  0.72336996057E+02 -0.42078438314E+02  0.53120901929E+03  0.53776040961E+03  0.00000000000E+00 0. -1.
         21    1    1    2  506  505 -0.12056539966E+03 -0.15064142882E+01  0.34172480777E+02  0.12532375402E+03  0.00000000000E+00 0. -1.
<scales pt_clust_3="31.10656" pt_clust_4="36.34613" pt_clust_5="96.74942" pt_clust_6="14000.00000"></scales>
<clustering>
<clus scale="   31.107">  2  3  1 -1</clus>
<clus scale="   36.346">  1  4  2 -1</clus>
<clus scale="   96.749">  1  5  2 -1</clus>
<clus scale="   36.346">  1  3  2 -1</clus>
</clustering>
</event>
<event>
 6    0  0.2908518E+002  0.8964590E+02  0.7546771E-02  0.1303711E+00
         21   -1    0    0  504  501  0.00000000000E+00  0.00000000000E+00  0.10992819643E+03  0.10992819643E+03  0.00000000000E+00 0. -1.
         21   -1    0    0  503  502 -0.00000000000E+00 -0.00000000000E+00 -0.11147257602E+04  0.11147257602E+04  0.00000000000E+00 0.  1.
         21    1    1    2  503  501  0.88102752938E+02  0.20163527133E+02  0.83607710373E+02  0.12312153400E+03  0.00000000000E+00 0. -1.
         21    1    1    2  504  505 -0.56898277006E+02 -0.65091459855E+02 -0.51071464455E+03  0.51798046317E+03  0.00000000000E+00 0.  1.
         21    1    1    2  505  506 -0.47426776960E+02  0.17732348893E+02 -0.33526449512E+03  0.33906639034E+03  0.00000000000E+00 0.  1.
         21    1    1    2  506  502  0.16222301028E+02  0.27195583829E+02 -0.24242613449E+03  0.24448556913E+03  0.00000000000E+00 0. -1.
<scales pt_clust_3="89.64590" pt_clust_4="14000.00000" pt_clust_5="49.91669" pt_clust_6="31.66643"></scales>
<clustering>
<clus scale="   31.666">  2  6  1 -1</clus>
<clus scale="   49.917">  2  5  1 -1</clus>
<clus scale="   89.646">  1  3  2 -1</clus>
<clus scale="   89.646">  1  3  2 -1</clus>
</clustering>
</event>
<event>
 6    0  0.2908518E+002  0.1877329E+03  0.7546771E-02  0.1160522E+00
         21   -1    0    0  506  501  0.00000000000E+00  0.00000000000E+00  0.56897821608E+03  0.56897821608E+03  0.00000000000E+00 0. -1.
         21   -1    0    0  503  502 -0.00000000000E+00 -0.00000000000E+00 -0.10071051570E+03  0.10071051570E+03  0.00000000000E+00 0.  1.
         21    1    1    2  503  504  0.11082671442E+03  0.15237457730E+03  0.23577445344E+03  0.30181147316E+03  0.00000000000E+00 0. -1.
         21    1    1    2  504  501 -0.20448447172E+02 -0.21971597938E+02  0.17765473315E+03  0.18017240165E+03  0.00000000000E+00 0.  1.
         21    1    1    2  505  502 -0.52174578626E+02 -0.13262950655E+02  0.31275571032E+02  0.62259568407E+02  0.00000000000E+00 0.  1.
         21    1    1    2  506  505 -0.38203688618E+02 -0.11714002871E+03  0.23562942762E+02  0.12544528856E+03  0.00000000000E+00 0.  1.
<scales pt_clust_3="167.90165" pt_clust_4="30.01483" pt_clust_5="55.89349" pt_clust_6="55.89349"></scales>
<clustering>
<clus scale="   30.015">  1  4  2 -1</clus>
<clus scale="   55.893">  5  6 -1 -1</clus>
<clus scale="  167.902">  1  3  2 -1</clus>
<clus scale="   30.015">  1  3  2 -1</clus>
</clustering>
</event>
<event>
 6    0  0.2908518E+002  0.1094515E+03  0.7546771E-02  0.1261589E+00
         21   -1    0    0  506  501  0.00000000000E+00  0.00000000000E+00  0.72158019355E+03  0.72158019355E+03  0.00000000000E+00 0.  1.
         21   -1    0    0  504  502 -0.00000000000E+00 -0.00000000000E+00 -0.81934131328E+03  0.81934131328E+03  0.00000000000E+00 0. -1.
         21    1    1    2  503  501 -0.15031651763E+03 -0.50740079709E+01 -0.95357595276E+02  0.17808389036E+03  0.00000000000E+00 0.  1.
         21    1    1    2  504  503  0.25661450180E+01  0.40792808090E+02 -0.85374794690E+02  0.94654602955E+02  0.00000000000E+00 0. -1.
         21    1    1    2  505  502  0.93929085167E+02  0.27062257894E+01 -0.58724322022E+03  0.59471387776E+03  0.00000000000E+00 0. -1.
         21    1    1    2  506  505  0.53821287441E+02 -0.38425025908E+02  0.67021449046E+03  0.67346913576E+03  0.00000000000E+00 0.  1.
<scales pt_clust_3="14000.00000" pt_clust_4="40.87344" pt_clust_5="109.45152" pt_clust_6="66.08210"></scales>
<clustering>
<clus scale="   40.873">  2  4  1 -1</clus>
<clus scale="   66.082">  1  6  2 -1</clus>
<clus scale="  109.452">  2  5  1 -1</clus>
<clus scale="   66.082">  1  3  2 -1</clus>
</clustering>
</event>
<event>
 6    0  0.2908518E+002  0.3359297E+03  0.7546771E-02  0.1068543E+00
         21   -1    0    0  504  501  0.00000000000E+00  0.00000000000E+00  0.21928398839E+04  0.21928398839E+04  0.00000000000E+00 0. -1.
         21   -1    0    0  505  502 -0.00000000000E+00 -0.00000000000E+00 -0.97013474810E+03  0.97013474810E+03  0.00000000000E+00 0. -1.
         21    1    1    2  503  506 -0.99808968675E+02 -0.85903131385E+02 -0.25535857903E+03  0.28731373460E+03  0.00000000000E+00 0. -1.
         21    1    1    2  504  502  0.39816408835E+03  0.10563609770E+03  0.19662280151E+04  0.20089166817E+04  0.00000000000E+00 0. -1.
         21    1    1    2  505  503 -0.15810222306E+03 -0.11433490065E+03 -0.62145767550E+03  0.65136658257E+03  0.00000000000E+00 0. -1.
         21    1    1    2  506  501 -0.14025289661E+03  0.94601934331E+02  0.13329337516E+03  0.21537763312E+03  0.00000000000E+00 0. -1.
<scales pt_clust_3="62.02767" pt_clust_4="327.33506" pt_clust_5="62.02767" pt_clust_6="169.17565"></scales>
<clustering>
<clus scale="   62.028">  3  5 -1 -1</clus>
<clus scale="  169.176">  1  6  2 -1</clus>
<clus scale="  327.335">  1  4  2 -1</clus>
<clus scale="  169.176">  1  3  2 -1</clus>
</clustering>
</event>
<event>
 6    0  0.2908518E+002  0.1844588E+03  0.7546771E-02  0.1163556E+00
         21   -1    0    0  504  501  0.00000000000E+00  0.00000000000E+00  0.10964175795E+03  0.10964175795E+03  0.00000000000E+00 0. -1.
         21   -1    0    0  506  502 -0.00000000000E+00 -0.00000000000E+00 -0.65480696725E+03  0.65480696725E+03  0.00000000000E+00 0. -1.
         21    1    1    2  503  502  0.62428301439E+02 -0.52253151209E+02 -0.12116393430E+03  0.14597391413E+03  0.00000000000E+00 0. -1.
         21    1    1    2  504  503 -0.71610075794E+02  0.17730703582E+03 -0.20090757419E+02  0.19227435201E+03  0.00000000000E+00 0. -1.
         21    1    1    2  505  501  0.69677293447E+01 -0.57486812638E+02 -0.27061991871E+03  0.27674613509E+03  0.00000000000E+00 0. -1.
         21    1    1    2  506  505  0.22140450106E+01 -0.67567071974E+02 -0.13329059887E+03  0.14945432398E+03  0.00000000000E+00 0. -1.
<scales pt_clust_3="81.41059" pt_clust_4="176.76174" pt_clust_5="48.80147" pt_clust_6="48.80147"></scales>
<clustering>
<clus scale="   48.801">  5  6 -1 -1</clus>
<clus scale="   81.411">  2  3  1 -1</clus>
<clus scale="  176.762">  1  4  2 -1</clus>
<clus scale="  176.762">  1  3  2 -1</clus>
</clustering>
</event>
<event>
 6    0  0.2908518E+002  0.6788994E+02  0.7546771E-02  0.1367419E+00
         21   -1    0    0  504  501  0.00000000000E+00  0.00000000000E+00  0.26714790476E+03  0.26714790476E+03  0.00000000000E+00 0.  1.
         21   -1    0    0  506  502 -0.00000000000E+00 -0.00000000000E+00 -0.17445794133E+03  0.17445794133E+03  0.00000000000E+00 0. -1.
         21    1    1    2  503  501 -0.66318962908E+02  0.53382449093E+01  0.18444128194E+03  0.19607470052E+03  0.00000000000E+00 0.  1.
         21    1    1    2  504  502  0.33858531937E+02  0.55716453460E+02 -0.15272978197E+02  0.66962580850E+02  0.00000000000E+00 0.  1.
         21    1    1    2  505  503  0.87042670283E+02 -0.27942765610E+02 -0.68493841669E+02  0.11423060425E+03  0.00000000000E+00 0.  1.
         21    1    1    2  506  505 -0.54582239312E+02 -0.33111932760E+02 -0.79844986455E+01  0.64337960474E+02  0.00000000000E+00 0. -1.
<scales pt_clust_3="67.88994" pt_clust_4="49.14314" pt_clust_5="14000.00000" pt_clust_6="63.84059"></scales>
<clustering>
<clus scale="   63.841">  2  6  1 -1</clus>
<clus scale="   49.143">  2  4  1 -1</clus>
<clus scale="   67.890">  1  3  2 -1</clus>
<clus scale="   67.890">  1  3  2 -1</clus>
</clustering>
</event>
<event>
 6    0  0.2908518E+002  0.8550439E+02  0.7546771E-02  0.1314119E+00
         21   -1    0    0  504  501  0.00000000000E+00  0.00000000000E+00  0.25486978522E+03  0.25486978522E+03  0.00000000000E+00 0. -1.
         21   -1    0    0  506  502 -0.00000000000E+00 -0.00000000000E+00 -0.17688798491E+04  0.17688798491E+04  0.00000000000E+00 0.  1.
         21    1    1    2  503  502 -0.58095900141E+02 -0.55933554583E+02 -0.11600687457E+04  0.11628685183E+04  0.00000000000E+00 0.  1.
         21    1    1    2  504  503  0.57435409845E+02  0.91662331124E+02 -0.33093691244E+03  0.34816669753E+03  0.00000000000E+00 0.  1.
         21    1    1    2  505  501 -0.26268453582E+02 -0.17052446121E+02  0.24284330373E+03  0.24485442152E+03  0.00000000000E+00 0. -1.
         21    1    1    2  506  505  0.26928943879E+02 -0.18676330420E+02 -0.26584770948E+03  0.26785999696E+03  0.00000000000E+00 0.  1.
<scales pt_clust_3="14000.00000" pt_clust_4="85.50439" pt_clust_5="31.31801" pt_clust_6="31.79841"></scales>
<clustering>
<clus scale="   31.318">  1  5  2 -1</clus>
<clus scale="   31.798">  2  6  1 -1</clus>
<clus scale="   85.504">  1  4  2 -1</clus>
<clus scale="   31.318">  1  3  2 -1</clus>
</clustering>
</event>
<event>
 6    0  0.2908518E+002  0.1553884E+03  0.7546771E-02  0.1194004E+00
         21   -1    0    0  506  501  0.00000000000E+00  0.00000000000E+00  0.21685552714E+03  0.21685552714E+03  0.00000000000E+00 0.  1.
         21   -1    0    0  504  502 -0.00000000000E+00 -0.00000000000E+00 -0.35785027097E+03  0.35785027097E+03  0.00000000000E+00 0.  1.
         21    1    1    2  503  502 -0.11841654820E+03 -0.10412238618E+03 -0.15977060961E+03  0.22447850206E+03  0.00000000000E+00 0.  1.
         21    1    1    2  504  505  0.42259572167E+02  0.21022041556E+01 -0.60369530824E+02  0.73720899031E+02  0.00000000000E+00 0.  1.
         21    1    1    2  505  501  0.76927573469E+02  0.63999011152E+02 -0.70302820226E+02  0.12229559076E+03  0.00000000000E+00 0.  1.
         21    1    1    2  506  503 -0.77059743296E+00  0.38021170867E+02  0.14944821683E+03  0.15421080626E+03  0.00000000000E+00 0.  1.
<scales pt_clust_3="146.19607" pt_clust_4="34.23722" pt_clust_5="34.23722" pt_clust_6="38.02898"></scales>
<clustering>
<clus scale="   34.237">  4  5 -1 -1</clus>
<clus scale="   38.029">  1  6  2 -1</clus>
<clus scale="  146.196">  1  3  2 -1</clus>
<clus scale="   38.029">  1  3  2 -1</clus>
</clustering>
</event>
<event>
 6    0  0.2908518E+002  0.2231364E+03  0.7546771E-02  0.1131566E+00
         21   -1    0    0  506  501  0.00000000000E+00  0.00000000000E+00  0.13624887158E+03  0.13624887158E+03  0.00000000000E+00 0. -1.
         21   -1    0    0  504  502 -0.00000000000E+00 -0.00000000000E+00 -0.69037602408E+03  0.69037602408E+03  0.00000000000E+00 0. -1.
         21    1    1    2  503  502 -0.15331041782E+02 -0.62125297106E+02 -0.80661421570E+02  0.10296046966E+03  0.00000000000E+00 0. -1.
         21    1    1    2  504  505  0.17412005748E+03  0.13083223471E+03 -0.25023811407E+03  0.33174384966E+03  0.00000000000E+00 0. -1.
         21    1    1    2  505  501 -0.33291991193E+02  0.16981057890E+02  0.59892872022E+02  0.70596523453E+02  0.00000000000E+00 0. -1.
         21    1    1    2  506  503 -0.12549702451E+03 -0.85687995497E+02 -0.28312048888E+03  0.32132405288E+03  0.00000000000E+00 0. -1.
<scales pt_clust_3="49.02417" pt_clust_4="209.26317" pt_clust_5="37.37262" pt_clust_6="49.02417"></scales>
<clustering>
<clus scale="   37.373">  1  5  2 -1</clus>
<clus scale="   49.024">  3  6 -1 -1</clus>
<clus scale="  209.263">  1  4  2 -1</clus>
<clus scale="   37.373">  1  3  2 -1</clus>
</clustering>
</event>
<event>
 6    0  0.2908518E+002  0.8423442E+02  0.7546771E-02  0.1317447E+00
         21   -1    0    0  506  501  0.00000000000E+00  0.00000000000E+00  0.14374191889E+03  0.14374191889E+03  0.00000000000E+00 0. -1.
         21   -1    0    0  504  502 -0.00000000000E+00 -0.00000000000E+00 -0.85779796042E+03  0.85779796042E+03  0.00000000000E+00 0. -1.
         21    1    1    2  503  505 -0.27738342036E+02 -0.50803762450E+02 -0.99957750814E+02  0.11550753155E+03  0.00000000000E+00 0. -1.
         21    1    1    2  504  501  0.99345807737E+01  0.61042491964E+02  0.12083620078E+03  0.13574339446E+03  0.00000000000E+00 0. -1.
         21    1    1    2  505  502  0.51460931536E+02  0.47717140440E+02 -0.53116029014E+03  0.53577645226E+03  0.00000000000E+00 0. -1.
         21    1    1    2  506  503 -0.33657170273E+02 -0.57955869953E+02 -0.20377420135E+03  0.21451250105E+03  0.00000000000E+00 0. -1.
<scales pt_clust_3="30.28634" pt_clust_4="61.84563" pt_clust_5="77.67484" pt_clust_6="30.28634"></scales>
<clustering>
<clus scale="   30.286">  3  6 -1 -1</clus>
<clus scale="   61.846">  1  4  2 -1</clus>
<clus scale="   77.675">  2  5  1 -1</clus>
<clus scale="   61.846">  1  3  2 -1</clus>
</clustering>
</event>
<event>
 6    0  0.2908518E+002  0.1363504E+03  0.7546771E-02  0.1218326E+00
         21   -1    0    0  504  501  0.00000000000E+00  0.00000000000E+00  0.32807031879E+02  0.32807031879E+02  0.00000000000E+00 0.  1.
         21   -1    0    0  505  502 -0.00000000000E+00 -0.00000000000E+00 -0.11061356030E+04  0.11061356030E+04  0.00000000000E+00 0.  1.
         21    1    1    2  503  501  0.11184622577E+03 -0.54889499905E+02 -0.14480393176E+03  0.19102516607E+03  0.00000000000E+00 0.  1.
         21    1    1    2  504  506 -0.84189051614E+02  0.10684203403E+02 -0.43362483993E+03  0.44185116320E+03  0.00000000000E+00 0.  1.
         21    1    1    2  505  503  0.30548576420E+02  0.38736601305E+01 -0.22214056881E+03  0.22426469423E+03  0.00000000000E+00 0.  1.
         21    1    1    2  506  502 -0.58205750577E+02  0.40331636372E+02 -0.27275923064E+03  0.28180161140E+03  0.00000000000E+00 0. -1.
<scales pt_clust_3="129.52003" pt_clust_4="40.67702" pt_clust_5="30.79319" pt_clust_6="40.67702"></scales>
<clustering>
<clus scale="   30.793">  2  5  1 -1</clus>
<clus scale="   40.677">  4  6 -1 -1</clus>
<clus scale="  129.520">  1  3  2 -1</clus>
<clus scale="  129.520">  1  3  2 -1</clus>
</clustering>
</event>
<event>
 6    0  0.2908518E+002  0.1260179E+03  0.7546771E-02  0.1233487E+00
         21   -1    0    0  506  501  0.00000000000E+00  0.00000000000E+00  0.39868600237E+02  0.39868600237E+02  0.00000000000E+00 0. -1.
         21   -1    0    0  505  502 -0.00000000000E+00 -0.00000000000E+00 -0.10664918279E+04  0.10664918279E+04  0.00000000000E+00 0. -1.
         21    1    1    2  503  502  0.50335328878E+02  0.39431182152E+02 -0.33937874350E+03  0.34534967062E+03  0.00000000000E+00 0. -1.
         21    1    1    2  504  503  0.36127255620E+02  0.50931060344E+02 -0.49569034418E+03  0.49960791509E+03  0.00000000000E+00 0. -1.
         21    1    1    2  505  501 -0.10661887447E+03 -0.50147542409E+02 -0.17970243638E+03  0.21488444812E+03  0.00000000000E+00 0. -1.
         21    1    1    2  506  504  0.20156289973E+02 -0.40214700086E+02 -0.11851703575E+02  0.46518394277E+02  0.00000000000E+00 0. -1.
<scales pt_clust_3="30.80683" pt_clust_4="30.80683" pt_clust_5="122.10114" pt_clust_6="44.98331"></scales>
<clustering>
<clus scale="   30.807">  3  4 -1 -1</clus>
<clus scale="   44.983">  1  6  2 -1</clus>
<clus scale="  122.101">  1  5  2 -1</clus>
<clus scale="   44.983">  1  3  2 -1</clus>
</clustering>
</event>
<event>
 6    0  0.2908518E+002  0.9163008E+02  0.7546771E-02  0.1298952E+00
         21   -1    0    0  503  501  0.00000000000E+00  0.00000000000E+00  0.19693217654E+03  0.19693217654E+03  0.00000000000E+00 0. -1.
         21   -1    0    0  506  502 -0.00000000000E+00 -0.00000000000E+00 -0.25532324464E+04  0.25532324464E+04  0.00000000000E+00 0.  1.
         21    1    1    2  503  505  0.81397737533E+02 -0.85115158778E+02 -0.17575808580E+03  0.21156816078E+03  0.00000000000E+00 0.  1.
         21    1    1    2  504  501 -0.80376865919E+01  0.39922345680E+02  0.17405338349E+03  0.17875396050E+03  0.00000000000E+00 0. -1.
         21    1    1    2  505  502 -0.76128794923E+02  0.85477299538E+02 -0.15408434948E+04  0.15450892005E+04  0.00000000000E+00 0.  1.
         21    1    1    2  506  504  0.27687439826E+01 -0.40284486439E+02 -0.81375207281E+03  0.81475330119E+03  0.00000000000E+00 0.  1.
<scales pt_clust_3="14000.00000" pt_clust_4="40.66932" pt_clust_5="91.63008" pt_clust_6="40.37952"></scales>
<clustering>
<clus scale="   40.380">  2  6  1 -1</clus>
<clus scale="   40.669">  1  4  2 -1</clus>
<clus scale="   91.630">  2  5  1 -1</clus>
<clus scale="   40.669">  1  3  2 -1</clus>
</clustering>
</event>
<event>
 6    0  0.2908518E+002  0.1066401E+03  0.7546771E-02  0.1266922E+00
         21   -1    0    0  505  501  0.00000000000E+00  0.00000000000E+00  0.17729458437E+03  0.17729458437E+03  0.00000000000E+00 0. -1.
         21   -1    0    0  503  502 -0.00000000000E+00 -0.00000000000E+00 -0.20245948229E+03  0.20245948229E+03  0.00000000000E+00 0.  1.
         21    1    1    2  503  506 -0.20005518272E+02 -0.27301679273E+02 -0.47046415893E+01  0.34172153940E+02  0.00000000000E+00 0.  1.
         21    1    1    2  504  502 -0.32581125597E+02  0.90179757368E+01 -0.49257000009E+02  0.59741992614E+02  0.00000000000E+00 0.  1.
         21    1    1    2  505  504  0.53633673040E+02  0.10026339977E+03  0.11855768252E+03  0.16427186095E+03  0.00000000000E+00 0. -1.
         21    1    1    2  506  501 -0.10470291711E+01 -0.81979696229E+02 -0.89760938842E+02  0.12156805915E+03  0.00000000000E+00 0.  1.
<scales pt_clust_3="35.66369" pt_clust_4="33.80612" pt_clust_5="14000.00000" pt_clust_6="106.64009"></scales>
<clustering>
<clus scale="   33.806">  2  4  1 -1</clus>
<clus scale="   35.664">  2  3  1 -1</clus>
<clus scale="  106.640">  2  6  1 -1</clus>
<clus scale="  106.640">  1  3  2 -1</clus>
</clustering>
</event>
<event>
 6    0  0.2908518E+002  0.1303314E+03  0.7546771E-02  0.1226965E+00
         21   -1    0    0  506  501  0.00000000000E+00  0.00000000000E+00  0.12063926504E+03  0.12063926504E+03  0.00000000000E+00 0.  1.
         21   -1    0    0  501  502 -0.00000000000E+00 -0.00000000000E+00 -0.25471868334E+04  0.25471868334E+04  0.00000000000E+00 0.  1.
         21    1    1    2  503  504  0.63522887189E+01 -0.11006335162E+03 -0.15556989217E+04  0.15596004064E+04  0.00000000000E+00 0.  1.
         21    1    1    2  504  505 -0.30979170383E+02 -0.33501343250E+02 -0.68583450167E+03  0.68735072029E+03  0.00000000000E+00 0. -1.
         21    1    1    2  505  502 -0.54350854012E+02  0.56209515936E+02 -0.26645702073E+03  0.27769203970E+03  0.00000000000E+00 0.  1.
         21    1    1    2  506  503  0.78977735676E+02  0.87355178936E+02  0.81442875698E+02  0.14318293202E+03  0.00000000000E+00 0.  1.
<scales pt_clust_3="35.81948" pt_clust_4="35.81948" pt_clust_5="78.18903" pt_clust_6="117.84014"></scales>
<clustering>
<clus scale="   35.819">  3  4 -1 -1</clus>
<clus scale="   78.189">  2  5  1 -1</clus>
<clus scale="  117.840">  1  6  2 -1</clus>
<clus scale="  117.840">  1  3  2 -1</clus>
</clustering>
</event>
<event>
 6    0  0.2908518E+002  0.5868070E+02  0.7546771E-02  0.1403453E+00
         21   -1    0    0  506  501  0.00000000000E+00  0.00000000000E+00  0.19745337735E+03  0.19745337735E+03  0.00000000000E+00 0.  1.
         21   -1    0    0  505  502 -0.00000000000E+00 -0.00000000000E+00 -0.22825227703E+04  0.22825227703E+04  0.00000000000E+00 0.  1.
         21    1    1    2  503  504  0.68449129011E+02 -0.58100384222E+02 -0.15067532244E+04  0.15094257905E+04  0.00000000000E+00 0.  1.
         21    1    1    2  504  502  0.43548827620E+02  0.29428953466E+02 -0.21565962039E+03  0.22197215041E+03  0.00000000000E+00 0.  1.
         21    1    1    2  505  501 -0.53447689945E+02  0.25392224476E+02 -0.54953667240E+03  0.55271328457E+03  0.00000000000E+00 0.  1.
         21    1    1    2  506  503 -0.58550266685E+02  0.32792062797E+01  0.18688012419E+03  0.19586492218E+03  0.00000000000E+00 0.  1.
<scales pt_clust_3="14000.00000" pt_clust_4="52.56010" pt_clust_5="53.42637" pt_clust_6="58.68070"></scales>
<clustering>
<clus scale="   52.560">  2  4  1 -1</clus>
<clus scale="   53.426">  2  5  1 -1</clus>
<clus scale="   58.681">  1  6  2 -1</clus>
<clus scale="   58.681">  1  3  2 -1</clus>
</clustering>
</event>
<event>
 6    0  0.2908518E+002  0.1064279E+03  0.7546771E-02  0.1267332E+00
         21   -1    0    0  505  501  0.00000000000E+00  0.00000000000E+00  0.22318311985E+03  0.22318311985E+03  0.00000000000E+00 0. -1.
         21   -1    0    0  504  502 -0.00000000000E+00 -0.00000000000E+00 -0.18504554276E+04  0.18504554276E+04  0.00000000000E+00 0. -1.
         21    1    1    2  503  506 -0.20499034937E+02  0.11919447626E+03 -0.54547593170E+03  0.55872312076E+03  0.00000000000E+00 0. -1.
         21    1    1    2  504  503 -0.49560240270E+02  0.12179707640E+02 -0.21692088481E+03  0.22284351676E+03  0.00000000000E+00 0.  1.
         21    1    1    2  505  502  0.10370439216E+02 -0.10495917487E+03 -0.10708351168E+04  0.10760166457E+04  0.00000000000E+00 0. -1.
         21    1    1    2  506  501  0.59688835991E+02 -0.26415009035E+02  0.20595962558E+03  0.21605526425E+03  0.00000000000E+00 0. -1.
<scales pt_clust_3="14000.00000" pt_clust_4="51.03492" pt_clust_5="106.42786" pt_clust_6="65.11703"></scales>
<clustering>
<clus scale="   51.035">  2  4  1 -1</clus>
<clus scale="   65.117">  1  6  2 -1</clus>
<clus scale="  106.428">  2  5  1 -1</clus>
<clus scale="   65.117">  1  3  2 -1</clus>
</clustering>
</event>
<event>
 6    0  0.2908518E+002  0.7222348E+02  0.7546771E-02  0.1352691E+00
         21   -1    0    0  504  501  0.00000000000E+00  0.00000000000E+00  0.93240950702E+03  0.93240950702E+03  0.00000000000E+00 0.  1.
         21   -1    0    0  506  502 -0.00000000000E+00 -0.00000000000E+00 -0.69201577962E+02  0.69201577962E+02  0.00000000000E+00 0.  1.
         21    1    1    2  503  501 -0.30100589508E+02  0.16278367209E+02  0.62961976454E+03  0.63054902952E+03  0.00000000000E+00 0.  1.
         21    1    1    2  504  505 -0.24376555337E+02 -0.48755594796E+02  0.47961432131E+02  0.72605946354E+02  0.00000000000E+00 0.  1.
         21    1    1    2  505  502  0.11666526158E+03  0.51437237007E+02  0.19478081055E+03  0.23280063739E+03  0.00000000000E+00 0.  1.
         21    1    1    2  506  503 -0.62188116732E+02 -0.18960009420E+02 -0.91540781617E+01  0.65655471721E+02  0.00000000000E+00 0.  1.
<scales pt_clust_3="34.22033" pt_clust_4="54.71738" pt_clust_5="72.22348" pt_clust_6="14000.00000"></scales>
<clustering>
<clus scale="   34.220">  1  3  2 -1</clus>
<clus scale="   54.717">  1  4  2 -1</clus>
<clus scale="   72.223">  1  5  2 -1</clus>
<clus scale="   34.220">  1  3  2 -1</clus>
</clustering>
</event>
<event>
 6    0  0.2908518E+002  0.1029425E+03  0.7546771E-02  0.1274227E+00
         21   -1    0    0  506  501  0.00000000000E+00  0.00000000000E+00  0.49516580049E+02  0.49516580049E+02  0.00000000000E+00 0.  1.
         21   -1    0    0  503  502 -0.00000000000E+00 -0.00000000000E+00 -0.15771936500E+04  0.15771936500E+04  0.00000000000E+00 0.  1.
         21    1    1    2  503  504 -0.19729379435E+02  0.37146811000E+02 -0.25094654673E+03  0.25444705402E+03  0.00000000000E+00 0.  1.
         21    1    1    2  504  501 -0.63881355267E+02  0.22209133116E+02 -0.34542290662E+03  0.35198161537E+03  0.00000000000E+00 0.  1.
         21    1    1    2  505  502  0.24683807649E+02 -0.96311953313E+02 -0.94430180657E+03  0.94952155562E+03  0.00000000000E+00 0.  1.
         21    1    1    2  506  505  0.58926927053E+02  0.36956009197E+02  0.12994189918E+02  0.70760005083E+02  0.00000000000E+00 0.  1.
<scales pt_clust_3="31.39954" pt_clust_4="31.39954" pt_clust_5="94.93074" pt_clust_6="69.55666"></scales>
<clustering>
<clus scale="   31.400">  3  4 -1 -1</clus>
<clus scale="   69.557">  1  6  2 -1</clus>
<clus scale="   94.931">  2  5  1 -1</clus>
<clus scale="   69.557">  1  3  2 -1</clus>
</clustering>
</event>
<event>
 6    0  0.2908518E+002  0.6454086E+02  0.7546771E-02  0.1379707E+00
         21   -1    0    0  505  501  0.00000000000E+00  0.00000000000E+00  0.24167935310E+04  0.24167935310E+04  0.00000000000E+00 0. -1.
         21   -1    0    0  503  502 -0.00000000000E+00 -0.00000000000E+00 -0.13548075680E+03  0.13548075680E+03  0.00000000000E+00 0.  1.
         21    1    1    2  503  506  0.25606776998E+02  0.67107958635E+02 -0.37376996216E+02  0.80970519244E+02  0.00000000000E+00 0.  1.
         21    1    1    2  504  502  0.25335064887E+02 -0.57982089449E+02 -0.46850555226E+02  0.78732221705E+02  0.00000000000E+00 0.  1.
         21    1    1    2  505  504 -0.15946782155E+02 -0.64130005489E+02  0.70588039617E+02  0.96693478591E+02  0.00000000000E+00 0. -1.
         21    1    1    2  506  501 -0.34995059730E+02  0.55004136303E+02  0.22949522861E+04  0.22958780683E+04  0.00000000000E+00 0. -1.
<scales pt_clust_3="50.33488" pt_clust_4="63.27549" pt_clust_5="64.54086" pt_clust_6="14000.00000"></scales>
<clustering>
<clus scale="   63.275">  2  4  1 -1</clus>
<clus scale="   50.335">  2  3  1 -1</clus>
<clus scale="   64.541">  2  5  1 -1</clus>
<clus scale="   64.541">  1  3  2 -1</clus>
</clustering>
</event>
<event>
 6    0  0.2908518E+002  0.7789114E+02  0.7546771E-02  0.1335145E+00
         21   -1    0    0  505  501  0.00000000000E+00  0.00000000000E+00  0.10775779867E+04  0.10775779867E+04  0.00000000000E+00 0. -1.
         21   -1    0    0  506  502 -0.00000000000E+00 -0.00000000000E+00 -0.79927789622E+02  0.79927789622E+02  0.00000000000E+00 0. -1.
         21    1    1    2  503  501 -0.24913899380E+02  0.84474328332E+02  0.93088573422E+03  0.93504270742E+03  0.00000000000E+00 0. -1.
         21    1    1    2  504  502  0.89503212719E+02 -0.35110012867E+02  0.29043007050E+02  0.10043422897E+03  0.00000000000E+00 0. -1.
         21    1    1    2  505  504 -0.23713324263E+02 -0.25779094511E+02  0.60283357329E+02  0.69720632758E+02  0.00000000000E+00 0. -1.
         21    1    1    2  506  503 -0.40875989076E+02 -0.23585220954E+02 -0.22561901565E+02  0.52308207125E+02  0.00000000000E+00 0. -1.
<scales pt_clust_3="14000.00000" pt_clust_4="77.89114" pt_clust_5="35.02690" pt_clust_6="47.68344"></scales>
<clustering>
<clus scale="   35.027">  1  5  2 -1</clus>
<clus scale="   47.683">  2  6  1 -1</clus>
<clus scale="   77.891">  2  4  1 -1</clus>
<clus scale="   35.027">  1  3  2 -1</clus>
</clustering>
</event>
<event>
 6    0  0.2908518E+002  0.8861828E+02  0.7546771E-02  0.1306233E+00
         21   -1    0    0  505  501  0.00000000000E+00  0.00000000000E+00  0.28350641110E+03  0.28350641110E+03  0.00000000000E+00 0. -1.
         21   -1    0    0  504  502 -0.00000000000E+00 -0.00000000000E+00 -0.67508452349E+03  0.67508452349E+03  0.00000000000E+00 0.  1.
         21    1    1    2  503  502  0.96478471213E+02 -0.95855327717E+01 -0.22602720626E+03  0.24594364358E+03  0.00000000000E+00 0.  1.
         21    1    1    2  504  506 -0.41893388178E+02  0.17056455652E+02 -0.24880469014E+03  0.25288288295E+03  0.00000000000E+00 0.  1.
         21    1    1    2  505  503 -0.12579660773E+03  0.23015985410E+01 -0.16147094985E+03  0.20470210433E+03  0.00000000000E+00 0.  1.
         21    1    1    2  506  501  0.71211524694E+02 -0.97725214213E+01  0.24472473386E+03  0.25506230374E+03  0.00000000000E+00 0. -1.
<scales pt_clust_3="14000.00000" pt_clust_4="45.23250" pt_clust_5="88.61828" pt_clust_6="71.34515"></scales>
<clustering>
<clus scale="   45.232">  2  4  1 -1</clus>
<clus scale="   71.345">  1  6  2 -1</clus>
<clus scale="   88.618">  1  5  2 -1</clus>
<clus scale="   71.345">  1  3  2 -1</clus>
</clustering>
</event>
<event>
 6    0  0.2908518E+002  0.1393758E+03  0.7546771E-02  0.1214171E+00
         21   -1    0    0  505  501  0.00000000000E+00  0.00000000000E+00  0.42298032519E+03  0.42298032519E+03  0.00000000000E+00 0.  1.
         21   -1    0    0  506  502 -0.00000000000E+00 -0.00000000000E+00 -0.35653054691E+03  0.35653054691E+03  0.00000000000E+00 0.  1.
         21    1    1    2  503  501  0.22662361141E+02 -0.48901722714E+02  0.37012820103E+03  0.37403187872E+03  0.00000000000E+00 0.  1.
         21    1    1    2  504  502 -0.14621488829E+01  0.11210072278E+03 -0.19753034682E+03  0.22712760255E+03  0.00000000000E+00 0.  1.
         21    1    1    2  505  504  0.29219242545E+01  0.37400544927E+02 -0.14754220620E+02  0.40311604139E+02  0.00000000000E+00 0. -1.
         21    1    1    2  506  503 -0.24122136513E+02 -0.10059954499E+03 -0.91393855312E+02  0.13803978669E+03  0.00000000000E+00 0. -1.
<scales pt_clust_3="53.89769" pt_clust_4="37.06796" pt_clust_5="37.06796" pt_clust_6="123.77154"></scales>
<clustering>
<clus scale="   37.068">  4  5 -1 -1</clus>
<clus scale="   53.898">  1  3  2 -1</clus>
<clus scale="  123.772">  2  6  1 -1</clus>
<clus scale="   53.898">  1  3  2 -1</clus>
</clustering>
</event>
<event>
 6    0  0.2908518E+002  0.8805363E+02  0.7546771E-02  0.1307635E+00
         21   -1    0    0  504  501  0.00000000000E+00  0.00000000000E+00  0.14513547070E+04  0.14513547070E+04  0.00000000000E+00 0.  1.
         21   -1    0    0  505  502 -0.00000000000E+00 -0.00000000000E+00 -0.77601483554E+02  0.77601483554E+02  0.00000000000E+00 0.  1.
         21    1    1    2  503  502 -0.44559002656E+02 -0.30744793175E+02  0.69054312166E+02  0.87745342063E+02  0.00000000000E+00 0.  1.
         21    1    1    2  504  506 -0.72778423598E+02  0.66370620080E+01  0.11988478527E+04  0.12010732381E+04  0.00000000000E+00 0.  1.
         21    1    1    2  505  501  0.41361625508E+02 -0.77971323095E+02  0.45550300856E+02  0.99323417168E+02  0.00000000000E+00 0.  1.
         21    1    1    2  506  503  0.75975800746E+02  0.10207905426E+03  0.60300757775E+02  0.14081419320E+03  0.00000000000E+00 0.  1.
<scales pt_clust_3="54.13637" pt_clust_4="73.76047" pt_clust_5="14000.00000" pt_clust_6="88.05363"></scales>
<clustering>
<clus scale="   54.136">  2  3  1 -1</clus>
<clus scale="   73.760">  1  4  2 -1</clus>
<clus scale="   88.054">  2  6  1 -1</clus>
<clus scale="   73.760">  1  3  2 -1</clus>
</clustering>
</event>
<event>
 6    0  0.2908518E+002  0.1035070E+03  0.7546771E-02  0.1273089E+00
         21   -1    0    0  506  501  0.00000000000E+00  0.00000000000E+00  0.14761115257E+04  0.14761115257E+04  0.00000000000E+00 0.  1.
         21   -1    0    0  503  502 -0.00000000000E+00 -0.00000000000E+00 -0.23805615062E+02  0.23805615062E+02  0.00000000000E+00 0. -1.
         21    1    1    2  503  504  0.48033502357E+02 -0.66986668871E+02  0.22922382065E+03  0.24359390614E+03  0.00000000000E+00 0. -1.
         21    1    1    2  504  501  0.26787362237E+02  0.28621247729E+02  0.22988700651E+03  0.23320543381E+03  0.00000000000E+00 0. -1.
         21    1    1    2  505  502 -0.23545803071E+02 -0.59033531356E+02  0.74821130563E+02  0.98171096792E+02  0.00000000000E+00 0. -1.
         21    1    1    2  506  505 -0.51275061523E+02  0.97398952497E+02  0.91837395293E+03  0.92494670403E+03  0.00000000000E+00 0.  1.
<scales pt_clust_3="14000.00000" pt_clust_4="39.20126" pt_clust_5="61.02673" pt_clust_6="103.50698"></scales>
<clustering>
<clus scale="   39.201">  1  4  2 -1</clus>
<clus scale="   61.027">  2  5  1 -1</clus>
<clus scale="  103.507">  1  6  2 -1</clus>
<clus scale="   39.201">  1  3  2 -1</clus>
</clustering>
</event>
<event>
 6    0  0.2908518E+002  0.1159477E+03  0.7546771E-02  0.1249936E+00
         21   -1    0    0  504  501  0.00000000000E+00  0.00000000000E+00  0.78393315076E+02  0.78393315076E+02  0.00000000000E+00 0. -1.
         21   -1    0    0  505  502 -0.00000000000E+00 -0.00000000000E+00 -0.54833667883E+03  0.54833667883E+03  0.00000000000E+00 0.  1.
         21    1    1    2  503  506  0.26468741866E+02 -0.29624985459E+02 -0.44013542915E+02  0.59291028152E+02  0.00000000000E+00 0.  1.
         21    1    1    2  504  502  0.38978263838E+02  0.10054421578E+03 -0.25906334009E+03  0.28061051042E+03  0.00000000000E+00 0.  1.
         21    1    1    2  505  503  0.50172935040E+02 -0.22447650824E+02 -0.15071235995E+03  0.16042267882E+03  0.00000000000E+00 0.  1.
         21    1    1    2  506  501 -0.11561994074E+03 -0.48471579498E+02 -0.16154120794E+02  0.12640577651E+03  0.00000000000E+00 0. -1.
<scales pt_clust_3="35.77145" pt_clust_4="115.94771" pt_clust_5="101.76412" pt_clust_6="14000.00000"></scales>
<clustering>
<clus scale="   35.771">  3  5 -1 -1</clus>
<clus scale="  101.764">  2  3  1 -1</clus>
<clus scale="  115.948">  2  4  1 -1</clus>
<clus scale="  115.948">  1  3  2 -1</clus>
</clustering>
</event>
<event>
 6    0  0.2908518E+002  0.1477081E+03  0.7546771E-02  0.1203318E+00
         21   -1    0    0  504  501  0.00000000000E+00  0.00000000000E+00  0.53363920649E+03  0.53363920649E+03  0.00000000000E+00 0. -1.
         21   -1    0    0  503  502 -0.00000000000E+00 -0.00000000000E+00 -0.65736883469E+02  0.65736883469E+02  0.00000000000E+00 0. -1.
         21    1    1    2  503  501  0.55845604760E+02 -0.94462314068E+01  0.12730553229E+03  0.13933650422E+03  0.00000000000E+00 0. -1.
         21    1    1    2  504  505 -0.43504608145E+02  0.14754329343E+03  0.23476925766E+03  0.28067468484E+03  0.00000000000E+00 0. -1.
         21    1    1    2  505  506 -0.20506463208E+02 -0.44238464215E+02  0.50066012959E+02  0.69886782749E+02  0.00000000000E+00 0.  1.
         21    1    1    2  506  502  0.81654665924E+01 -0.93858597809E+02  0.55761520114E+02  0.10947811815E+03  0.00000000000E+00 0. -1.
<scales pt_clust_3="56.63888" pt_clust_4="141.66330" pt_clust_5="30.08826" pt_clust_6="30.08826"></scales>
<clustering>
<clus scale="   30.088">  5  6 -1 -1</clus>
<clus scale="   56.639">  1  3  2 -1</clus>
<clus scale="  141.663">  1  4  2 -1</clus>
<clus scale="   56.639">  1  3  2 -1</clus>
</clustering>
</event>
<event>
 6    0  0.2908518E+002  0.1401184E+03  0.7546771E-02  0.1213170E+00
         21   -1    0    0  505  501  0.00000000000E+00  0.00000000000E+00  0.83015837855E+03  0.83015837855E+03  0.00000000000E+00 0.  1.
         21   -1    0    0  501  502 -0.00000000000E+00 -0.00000000000E+00 -0.21627129606E+03  0.21627129606E+03  0.00000000000E+00 0. -1.
         21    1    1    2  503  504  0.62305148284E+02  0.48800396896E+02 -0.24065233771E+02  0.82719681554E+02  0.00000000000E+00 0. -1.
         21    1    1    2  504  506  0.46580119629E+02 -0.37653849540E+02 -0.39787543819E+02  0.71906665706E+02  0.00000000000E+00 0. -1.
         21    1    1    2  505  503 -0.14819638567E+03 -0.20814274337E+02  0.77349690754E+03  0.78784063662E+03  0.00000000000E+00 0.  1.
         21    1    1    2  506  502  0.39311117760E+02  0.96677269807E+01 -0.95757047464E+02  0.10396269073E+03  0.00000000000E+00 0. -1.
<scales pt_clust_3="14000.00000" pt_clust_4="73.29622" pt_clust_5="140.11845" pt_clust_6="40.48245"></scales>
<clustering>
<clus scale="   40.482">  2  6  1 -1</clus>
<clus scale="   73.296">  2  4  1 -1</clus>
<clus scale="  140.118">  1  5  2 -1</clus>
<clus scale="  140.118">  1  3  2 -1</clus>
</clustering>
</event>
<event>
 6    0  0.2908518E+002  0.6378756E+02  0.7546771E-02  0.1382591E+00
         21   -1    0    0  503  501  0.00000000000E+00  0.00000000000E+00  0.53413165479E+03  0.53413165479E+03  0.00000000000E+00 0.  1.
         21   -1    0    0  505  502 -0.00000000000E+00 -0.00000000000E+00 -0.11927272726E+03  0.11927272726E+03  0.00000000000E+00 0. -1.
         21    1    1    2  503  502  0.56283544921E+02  0.57907359583E+02 -0.66086752737E+02  0.10434825638E+03  0.00000000000E+00 0. -1.
         21    1    1    2  504  506 -0.61667865475E+02 -0.58694943879E+02  0.41917261863E+03  0.42773088067E+03  0.00000000000E+00 0.  1.
         21    1    1    2  505  504 -0.40321862138E+02  0.15983284270E+01 -0.47259563402E+01  0.40629322950E+02  0.00000000000E+00 0. -1.
         21    1    1    2  506  501  0.45706182692E+02 -0.81074413104E+00  0.66499017982E+02  0.80695922046E+02  0.00000000000E+00 0.  1.
<scales pt_clust_3="14000.00000" pt_clust_4="63.78756" pt_clust_5="40.35353" pt_clust_6="42.74869"></scales>
<clustering>
<clus scale="   40.354">  2  5  1 -1</clus>
<clus scale="   42.749">  1  6  2 -1</clus>
<clus scale="   63.788">  1  4  2 -1</clus>
<clus scale="   42.749">  1  3  2 -1</clus>
</clustering>
</event>
<event>
 6    0  0.2908518E+002  0.8916414E+02  0.7546771E-02  0.1304889E+00
         21   -1    0    0  506  501  0.00000000000E+00  0.00000000000E+00  0.33305121286E+03  0.33305121286E+03  0.00000000000E+00 0.  1.
         21   -1    0    0  505  502 -0.00000000000E+00 -0.00000000000E+00 -0.18121836446E+03  0.18121836446E+03  0.00000000000E+00 0.  1.
         21    1    1    2  503  504 -0.42660376193E+02 -0.41684462315E+02  0.17427103683E+03  0.18419526696E+03  0.00000000000E+00 0.  1.
         21    1    1    2  504  501 -0.23556062584E+02  0.19659541656E+02  0.46364143776E+02  0.55596937781E+02  0.00000000000E+00 0. -1.
         21    1    1    2  505  503  0.51665532058E+02 -0.75367272790E+02 -0.12972942679E+03  0.15867979451E+03  0.00000000000E+00 0.  1.
         21    1    1    2  506  502  0.14550906719E+02  0.97392193449E+02  0.60927094592E+02  0.11579757807E+03  0.00000000000E+00 0.  1.
<scales pt_clust_3="64.60049" pt_clust_4="30.68201" pt_clust_5="14000.00000" pt_clust_6="89.16414"></scales>
<clustering>
<clus scale="   30.682">  1  4  2 -1</clus>
<clus scale="   64.600">  1  3  2 -1</clus>
<clus scale="   89.164">  1  6  2 -1</clus>
<clus scale="   30.682">  1  3  2 -1</clus>
</clustering>
</event>
<event>
 6    0  0.2908518E+002  0.1379718E+03  0.7546771E-02  0.1216084E+00
         21   -1    0    0  503  501  0.00000000000E+00  0.00000000000E+00  0.64400996516E+03  0.64400996516E+03  0.00000000000E+00 0.  1.
         21   -1    0    0  505  502 -0.00000000000E+00 -0.00000000000E+00 -0.40392480088E+03  0.40392480088E+03  0.00000000000E+00 0.  1.
         21    1    1    2  503  506 -0.15947942146E+02  0.13697004827E+03  0.59961553574E+03  0.61526735789E+03  0.00000000000E+00 0.  1.
         21    1    1    2  504  502  0.15622170257E+02  0.28608005064E+02 -0.15092945480E+03  0.15440910104E+03  0.00000000000E+00 0.  1.
         21    1    1    2  505  501  0.19558222160E+02 -0.13880805613E+03 -0.19992633440E+03  0.24417358515E+03  0.00000000000E+00 0.  1.
         21    1    1    2  506  504 -0.19232450271E+02 -0.26769997204E+02 -0.86745822565E+01  0.34084721960E+02  0.00000000000E+00 0. -1.
<scales pt_clust_3="14000.00000" pt_clust_4="32.59555" pt_clust_5="137.97178" pt_clust_6="30.21174"></scales>
<clustering>
<clus scale="   32.596">  2  4  1 -1</clus>
<clus scale="   30.212">  2  6  1 -1</clus>
<clus scale="  137.972">  2  5  1 -1</clus>
<clus scale="  137.972">  1  3  2 -1</clus>
</clustering>
</event>
<event>
 6    0  0.2908518E+002  0.1076465E+03  0.7546771E-02  0.1264991E+00
         21   -1    0    0  504  501  0.00000000000E+00  0.00000000000E+00  0.93124659032E+03  0.93124659032E+03  0.00000000000E+00 0.  1.
         21   -1    0    0  503  502 -0.00000000000E+00 -0.00000000000E+00 -0.21274224849E+03  0.21274224849E+03  0.00000000000E+00 0.  1.
         21    1    1    2  503  501 -0.33014131575E+02 -0.35684980243E+02 -0.22046520045E+02  0.53379769058E+02  0.00000000000E+00 0. -1.
         21    1    1    2  504  505 -0.82471276288E+01  0.10992797206E+03  0.89791683581E+03  0.90465839861E+03  0.00000000000E+00 0.  1.
         21    1    1    2  505  506  0.45110498433E+02 -0.29200308796E+02 -0.90012034045E+02  0.10483215812E+03  0.00000000000E+00 0.  1.
         21    1    1    2  506  502 -0.38492392295E+01 -0.45042683024E+02 -0.67353939888E+02  0.81118513023E+02  0.00000000000E+00 0.  1.
<scales pt_clust_3="58.81652" pt_clust_4="107.64646" pt_clust_5="14000.00000" pt_clust_6="45.20686"></scales>
<clustering>
<clus scale="   45.207">  2  6  1 -1</clus>
<clus scale="   58.817">  2  3  1 -1</clus>
<clus scale="  107.646">  1  4  2 -1</clus>
<clus scale="  107.646">  1  3  2 -1</clus>
</clustering>
</event>
<event>
 6    0  0.2908518E+002  0.1665115E+03  0.7546771E-02  0.1181535E+00
         21   -1    0    0  506  501  0.00000000000E+00  0.00000000000E+00  0.67703422956E+03  0.67703422956E+03  0.00000000000E+00 0. -1.
         21   -1    0    0  505  502 -0.00000000000E+00 -0.00000000000E+00 -0.13394447493E+03  0.13394447493E+03  0.00000000000E+00 0. -1.
         21    1    1    2  503  504  0.10748239504E+03  0.18133495506E+03  0.14497385004E+03  0.25583637030E+03  0.00000000000E+00 0. -1.
         21    1    1    2  504  502 -0.14299248533E+03 -0.64617032573E+02  0.29169859854E+02  0.15960292129E+03  0.00000000000E+00 0. -1.
         21    1    1    2  505  501 -0.38803275854E+01 -0.30556464002E+02  0.27831423510E+02  0.41513161396E+02  0.00000000000E+00 0. -1.
         21    1    1    2  506  503  0.39390417869E+02 -0.86161458487E+02  0.34111462122E+03  0.35402625151E+03  0.00000000000E+00 0. -1.
<scales pt_clust_3="14000.00000" pt_clust_4="166.51152" pt_clust_5="30.80186" pt_clust_6="109.25599"></scales>
<clustering>
<clus scale="   30.802">  1  5  2 -1</clus>
<clus scale="  109.256">  1  6  2 -1</clus>
<clus scale="  166.512">  2  4  1 -1</clus>
<clus scale="   30.802">  1  3  2 -1</clus>
</clustering>
</event>
<event>
 6    0  0.2908518E+002  0.9686574E+02  0.7546771E-02  0.1287028E+00
         21   -1    0    0  504  501  0.00000000000E+00  0.00000000000E+00  0.64011723057E+02  0.64011723057E+02  0.00000000000E+00 0. -1.
         21   -1    0    0  505  502 -0.00000000000E+00 -0.00000000000E+00 -0.52392968676E+03  0.52392968676E+03  0.00000000000E+00 0. -1.
         21    1    1    2  503  501  0.10861970617E+03 -0.85175311198E+00 -0.70740676997E+01  0.10885315101E+03  0.00000000000E+00 0. -1.
         21    1    1    2  504  502 -0.46621565970E+02 -0.45463106041E+02 -0.23457999687E+03  0.24345069184E+03  0.00000000000E+00 0. -1.
         21    1    1    2  505  506 -0.26861245262E+02  0.22479866256E+02 -0.15851814959E+03  0.16234184498E+03  0.00000000000E+00 0. -1.
         21    1    1    2  506  503 -0.35136894937E+02  0.23834992897E+02 -0.59745749544E+02  0.73295721981E+02  0.00000000000E+00 0. -1.
<scales pt_clust_3="14000.00000" pt_clust_4="96.86574" pt_clust_5="35.02672" pt_clust_6="48.83996"></scales>
<clustering>
<clus scale="   35.027">  2  5  1 -1</clus>
<clus scale="   48.840">  2  6  1 -1</clus>
<clus scale="   96.866">  2  4  1 -1</clus>
<clus scale="   96.866">  1  3  2 -1</clus>
</clustering>
</event>
<event>
 6    0  0.2908518E+002  0.1228135E+03  0.7546771E-02  0.1238527E+00
         21   -1    0    0  502  501  0.00000000000E+00  0.00000000000E+00  0.17023576148E+03  0.17023576148E+03  0.00000000000E+00 0.  1.
         21   -1    0    0  504  502 -0.00000000000E+00 -0.00000000000E+00 -0.13753538459E+03  0.13753538459E+03  0.00000000000E+00 0.  1.
         21    1    1    2  503  501 -0.10485498665E+03 -0.56108834434E+02  0.74962864699E+02  0.14057809435E+03  0.00000000000E+00 0.  1.
         21    1    1    2  504  505 -0.63547269504E+01  0.36563586636E+02 -0.27309302949E+02  0.46076853732E+02  0.00000000000E+00 0.  1.
         21    1    1    2  505  506  0.50041069832E+02 -0.83623475145E+01 -0.17946091508E+02  0.53815422755E+02  0.00000000000E+00 0.  1.
         21    1    1    2  506  503  0.61168643766E+02  0.27907595313E+02  0.29929066460E+01  0.67300775230E+02  0.00000000000E+00 0.  1.
<scales pt_clust_3="115.70318" pt_clust_4="37.11170" pt_clust_5="35.77347" pt_clust_6="35.77347"></scales>
<clustering>
<clus scale="   35.773">  5  6 -1 -1</clus>
<clus scale="   37.112">  2  4  1 -1</clus>
<clus scale="  115.703">  1  3  2 -1</clus>
<clus scale="  115.703">  1  3  2 -1</clus>
</clustering>
</event>
<event>
 6    0  0.2908518E+002  0.1218363E+03  0.7546771E-02  0.1240098E+00
         21   -1    0    0  504  501  0.00000000000E+00  0.00000000000E+00  0.10711235027E+04  0.10711235027E+04  0.00000000000E+00 0.  1.
         21   -1    0    0  505  502 -0.00000000000E+00 -0.00000000000E+00 -0.18583690305E+03  0.18583690305E+03  0.00000000000E+00 0.  1.
         21    1    1    2  503  501 -0.36006779623E+02  0.50428573887E+02  0.88855201184E+03  0.89070994549E+03  0.00000000000E+00 0.  1.
         21    1    1    2  504  502 -0.12047686489E+03 -0.88988698696E+02 -0.25110759398E+02  0.15186906764E+03  0.00000000000E+00 0.  1.
         21    1    1    2  505  506  0.25524332493E+02  0.44110938234E+02 -0.44331245023E+02  0.67546470717E+02  0.00000000000E+00 0.  1.
         21    1    1    2  506  503  0.13095931202E+03 -0.55508134250E+01  0.66176592245E+02  0.14683492192E+03  0.00000000000E+00 0.  1.
<scales pt_clust_3="62.14012" pt_clust_4="121.83634" pt_clust_5="50.96338" pt_clust_6="14000.00000"></scales>
<clustering>
<clus scale="   50.963">  2  5  1 -1</clus>
<clus scale="   62.140">  1  3  2 -1</clus>
<clus scale="  121.836">  2  4  1 -1</clus>
<clus scale="   62.140">  1  3  2 -1</clus>
</clustering>
</event>
<event>
 6    0  0.2908518E+002  0.6843218E+02  0.7546771E-02  0.1365507E+00
         21   -1    0    0  503  501  0.00000000000E+00  0.00000000000E+00  0.13866119173E+03  0.13866119173E+03  0.00000000000E+00 0.  1.
         21   -1    0    0  504  502 -0.00000000000E+00 -0.00000000000E+00 -0.39138965843E+03  0.39138965843E+03  0.00000000000E+00 0.  1.
         21    1    1    2  503  505  0.63668072966E+02  0.37675015211E+02  0.95821409815E+02  0.12105689929E+03  0.00000000000E+00 0.  1.
         21    1    1    2  504  506 -0.40499256149E+02  0.25128464611E+01 -0.19668991429E+03  0.20083183644E+03  0.00000000000E+00 0.  1.
         21    1    1    2  505  502  0.35890159120E+02 -0.64294236443E+02 -0.10813910130E+03  0.13082781658E+03  0.00000000000E+00 0.  1.
         21    1    1    2  506  501 -0.59058975936E+02  0.24106374771E+02 -0.43720860933E+02  0.77334297850E+02  0.00000000000E+00 0.  1.
<scales pt_clust_3="68.43218" pt_clust_4="40.57714" pt_clust_5="63.65321" pt_clust_6="14000.00000"></scales>
<clustering>
<clus scale="   40.577">  2  4  1 -1</clus>
<clus scale="   63.653">  2  5  1 -1</clus>
<clus scale="   68.432">  1  3  2 -1</clus>
<clus scale="   68.432">  1  3  2 -1</clus>
</clustering>
</event>
<event>
 6    0  0.2908518E+002  0.8728846E+02  0.7546771E-02  0.1309554E+00
         21   -1    0    0  506  501  0.00000000000E+00  0.00000000000E+00  0.76246025813E+03  0.76246025813E+03  0.00000000000E+00 0.  1.
         21   -1    0    0  505  502 -0.00000000000E+00 -0.00000000000E+00 -0.25569910233E+03  0.25569910233E+03  0.00000000000E+00 0. -1.
         21    1    1    2  503  504 -0.49320347321E+02  0.13982330447E+02  0.70994352962E+02  0.87568261243E+02  0.00000000000E+00 0. -1.
         21    1    1    2  504  501 -0.28596883191E+02 -0.17662744688E+02  0.62068720938E+03  0.62159662657E+03  0.00000000000E+00 0.  1.
         21    1    1    2  505  503  0.76299397082E+02 -0.83486280050E+02 -0.99864816566E+01  0.11353980257E+03  0.00000000000E+00 0. -1.
         21    1    1    2  506  502  0.16178334297E+01  0.87166694291E+02 -0.17493392488E+03  0.19545467007E+03  0.00000000000E+00 0. -1.
<scales pt_clust_3="65.49034" pt_clust_4="33.61182" pt_clust_5="87.28846" pt_clust_6="14000.00000"></scales>
<clustering>
<clus scale="   33.612">  1  4  2 -1</clus>
<clus scale="   65.490">  1  3  2 -1</clus>
<clus scale="   87.288">  1  5  2 -1</clus>
<clus scale="   33.612">  1  3  2 -1</clus>
</clustering>
</event>
<event>
 6    0  0.2908518E+002  0.8261995E+02  0.7546771E-02  0.1321777E+00
         21   -1    0    0  503  501  0.00000000000E+00  0.00000000000E+00  0.41713536809E+03  0.41713536809E+03  0.00000000000E+00 0. -1.
         21   -1    0    0  504  502 -0.00000000000E+00 -0.00000000000E+00 -0.12636767419E+03  0.12636767419E+03  0.00000000000E+00 0. -1.
         21    1    1    2  503  505  0.64844446988E+02 -0.45699246922E+02  0.29051441890E+03  0.30115087758E+03  0.00000000000E+00 0. -1.
         21    1    1    2  504  506 -0.27890984727E+02  0.18258539809E+02 -0.33908041931E+02  0.47550358701E+02  0.00000000000E+00 0. -1.
         21    1    1    2  505  502  0.23942891506E+02 -0.67001683649E+02 -0.14046735633E+02  0.72524467922E+02  0.00000000000E+00 0. -1.
         21    1    1    2  506  501 -0.60896353767E+02  0.94442390761E+02  0.48208052561E+02  0.12227733807E+03  0.00000000000E+00 0. -1.
<scales pt_clust_3="82.61995" pt_clust_4="33.33589" pt_clust_5="58.60590" pt_clust_6="14000.00000"></scales>
<clustering>
<clus scale="   33.336">  2  4  1 -1</clus>
<clus scale="   58.606">  2  5  1 -1</clus>
<clus scale="   82.620">  1  3  2 -1</clus>
<clus scale="   82.620">  1  3  2 -1</clus>
</clustering>
</event>
<event>
 6    0  0.2908518E+002  0.7740018E+02  0.7546771E-02  0.1336596E+00
         21   -1    0    0  504  501  0.00000000000E+00  0.00000000000E+00  0.49718750704E+02  0.49718750704E+02  0.00000000000E+00 0.  1.
         21   -1    0    0  506  502 -0.00000000000E+00 -0.00000000000E+00 -0.82443950535E+03  0.82443950535E+03  0.00000000000E+00 0.  1.
         21    1    1    2  503  501  0.93756072665E+02 -0.47477429877E-01 -0.31420951558E+02  0.98881138811E+02  0.00000000000E+00 0.  1.
         21    1    1    2  504  505 -0.38650151409E+02  0.64919733304E+02 -0.11110777838E+03  0.13436273439E+03  0.00000000000E+00 0.  1.
         21    1    1    2  505  502 -0.32935124438E+02 -0.84891145947E+01 -0.10790263186E+03  0.11313604841E+03  0.00000000000E+00 0. -1.
         21    1    1    2  506  503 -0.22170796818E+02 -0.56383141279E+02 -0.52428939285E+03  0.52777833444E+03  0.00000000000E+00 0.  1.
<scales pt_clust_3="14000.00000" pt_clust_4="77.40018" pt_clust_5="34.01158" pt_clust_6="75.28666"></scales>
<clustering>
<clus scale="   34.012">  2  5  1 -1</clus>
<clus scale="   77.400">  1  4  2 -1</clus>
<clus scale="   75.287">  2  6  1 -1</clus>
<clus scale="   77.400">  1  3  2 -1</clus>
</clustering>
</event>
<event>
 6    0  0.2908518E+002  0.9394217E+02  0.7546771E-02  0.1293577E+00
         21   -1    0    0  506  501  0.00000000000E+00  0.00000000000E+00  0.10703887460E+04  0.10703887460E+04  0.00000000000E+00 0.  1.
         21   -1    0    0  503  502 -0.00000000000E+00 -0.00000000000E+00 -0.25306071891E+03  0.25306071891E+03  0.00000000000E+00 0.  1.
         21    1    1    2  503  504  0.59301220285E+02 -0.80979706301E+02  0.83309454214E+02  0.13044083993E+03  0.00000000000E+00 0. -1.
         21    1    1    2  504  501  0.28605846211E+02  0.36857837974E+02  0.94896318555E+03  0.95010942643E+03  0.00000000000E+00 0.  1.
         21    1    1    2  505  502 -0.18562160131E+02  0.26364392944E+02 -0.27948270297E+02  0.42670139636E+02  0.00000000000E+00 0. -1.
         21    1    1    2  506  505 -0.69344906364E+02  0.17757475384E+02 -0.18699634238E+03  0.20022905891E+03  0.00000000000E+00 0.  1.
<scales pt_clust_3="14000.00000" pt_clust_4="46.68107" pt_clust_5="32.24337" pt_clust_6="93.94217"></scales>
<clustering>
<clus scale="   32.243">  2  5  1 -1</clus>
<clus scale="   46.681">  1  4  2 -1</clus>
<clus scale="   93.942">  2  6  1 -1</clus>
<clus scale="   46.681">  1  3  2 -1</clus>
</clustering>
</event>
<event>
 6    0  0.2908518E+002  0.1097139E+03  0.7546771E-02  0.1261101E+00
         21   -1    0    0  504  501  0.00000000000E+00  0.00000000000E+00  0.94510527582E+03  0.94510527582E+03  0.00000000000E+00 0. -1.
         21   -1    0    0  506  502 -0.00000000000E+00 -0.00000000000E+00 -0.39115213919E+02  0.39115213919E+02  0.00000000000E+00 0. -1.
         21    1    1    2  503  505 -0.57623784118E+02 -0.13414993794E+03  0.60027518670E+03  0.61777585427E+03  0.00000000000E+00 0. -1.
         21    1    1    2  504  502  0.70428742951E+02  0.64849290563E+02  0.10372390284E+03  0.14115341420E+03  0.00000000000E+00 0. -1.
         21    1    1    2  505  501  0.88615390621E+01  0.40027420054E+02  0.17558201482E+03  0.18030464542E+03  0.00000000000E+00 0.  1.
         21    1    1    2  506  503 -0.21666497895E+02  0.29273227323E+02  0.26408957544E+02  0.44986575859E+02  0.00000000000E+00 0. -1.
<scales pt_clust_3="14000.00000" pt_clust_4="109.71389" pt_clust_5="42.94372" pt_clust_6="36.41921"></scales>
<clustering>
<clus scale="   36.419">  2  6  1 -1</clus>
<clus scale="   42.944">  1  5  2 -1</clus>
<clus scale="  109.714">  2  4  1 -1</clus>
<clus scale="   42.944">  1  3  2 -1</clus>
</clustering>
</event>
<event>
 6    0  0.2908518E+002  0.9070005E+02  0.7546771E-02  0.1301165E+00
         21   -1    0    0  505  501  0.00000000000E+00  0.00000000000E+00  0.22726635932E+03  0.22726635932E+03  0.00000000000E+00 0. -1.
         21   -1    0    0  504  502 -0.00000000000E+00 -0.00000000000E+00 -0.21020525249E+03  0.21020525249E+03  0.00000000000E+00 0. -1.
         21    1    1    2  503  501  0.55373727216E+02  0.14923218942E+01  0.83752715775E+01  0.56023404613E+02  0.00000000000E+00 0. -1.
         21    1    1    2  504  503  0.86294673138E+02 -0.80984486617E+01 -0.98865434523E+02  0.13147900831E+03  0.00000000000E+00 0. -1.
         21    1    1    2  505  506 -0.42326180596E+02 -0.20801522062E+01  0.13907173469E+03  0.14538493728E+03  0.00000000000E+00 0. -1.
         21    1    1    2  506  502 -0.99342219758E+02  0.86862789737E+01 -0.31520464912E+02  0.10458426161E+03  0.00000000000E+00 0. -1.
<scales pt_clust_3="39.35338" pt_clust_4="90.70005" pt_clust_5="42.37727" pt_clust_6="14000.00000"></scales>
<clustering>
<clus scale="   42.377">  1  5  2 -1</clus>
<clus scale="   39.353">  1  3  2 -1</clus>
<clus scale="   90.700">  2  4  1 -1</clus>
<clus scale="   42.377">  1  3  2 -1</clus>
</clustering>
</event>
<event>
 6    0  0.2908518E+002  0.1426708E+03  0.7546771E-02  0.1209780E+00
         21   -1    0    0  505  501  0.00000000000E+00  0.00000000000E+00  0.45919248940E+02  0.45919248940E+02  0.00000000000E+00 0. -1.
         21   -1    0    0  504  502 -0.00000000000E+00 -0.00000000000E+00 -0.30108015601E+04  0.30108015601E+04  0.00000000000E+00 0. -1.
         21    1    1    2  503  502  0.42472525756E+02 -0.21355310674E+02 -0.23520066144E+04  0.23524869986E+04  0.00000000000E+00 0. -1.
         21    1    1    2  504  506  0.24965633936E+02  0.49870006157E+02 -0.34132625707E+03  0.34585244564E+03  0.00000000000E+00 0. -1.
         21    1    1    2  505  503 -0.12337733321E+03 -0.58338437304E+02 -0.83636754555E+02  0.16006388203E+03  0.00000000000E+00 0. -1.
         21    1    1    2  506  501  0.55939173517E+02  0.29823741821E+02 -0.18791268517E+03  0.19831748274E+03  0.00000000000E+00 0. -1.
<scales pt_clust_3="47.53909" pt_clust_4="51.37684" pt_clust_5="131.24252" pt_clust_6="51.37684"></scales>
<clustering>
<clus scale="   47.539">  2  3  1 -1</clus>
<clus scale="   51.377">  4  6 -1 -1</clus>
<clus scale="  131.243">  1  5  2 -1</clus>
<clus scale="  131.243">  1  3  2 -1</clus>
</clustering>
</event>
<event>
 6    0  0.2908518E+002  0.1704357E+03  0.7546771E-02  0.1177394E+00
         21   -1    0    0  503  501  0.00000000000E+00  0.00000000000E+00  0.10316812312E+04  0.10316812312E+04  0.00000000000E+00 0.  1.
         21   -1    0    0  501  502 -0.00000000000E+00 -0.00000000000E+00 -0.48126220957E+02  0.48126220957E+02  0.00000000000E+00 0.  1.
         21    1    1    2  503  504 -0.13706251039E+03 -0.61177610550E+02  0.85034420248E+03  0.86348948718E+03  0.00000000000E+00 0.  1.
         21    1    1    2  504  505  0.43509962109E+02 -0.76483036979E+01  0.42253936012E+02  0.61131076064E+02  0.00000000000E+00 0.  1.
         21    1    1    2  505  506  0.60651515986E+02  0.30672290573E+02  0.25512587599E+02  0.72596748731E+02  0.00000000000E+00 0.  1.
         21    1    1    2  506  502  0.32901032295E+02  0.38153623676E+02  0.65444284137E+02  0.82590140161E+02  0.00000000000E+00 0.  1.
<scales pt_clust_3="150.09608" pt_clust_4="35.24481" pt_clust_5="43.40169" pt_clust_6="43.40169"></scales>
<clustering>
<clus scale="   35.245">  4  5 -1 -1</clus>
<clus scale="   43.402">  4  6 -1 -1</clus>
<clus scale="  150.096">  1  3  2 -1</clus>
<clus scale="  150.096">  1  3  2 -1</clus>
</clustering>
</event>
<event>
 6    0  0.2908518E+002  0.1882582E+03  0.7546771E-02  0.1160042E+00
         21   -1    0    0  506  501  0.00000000000E+00  0.00000000000E+00  0.64071002092E+02  0.64071002092E+02  0.00000000000E+00 0. -1.
         21   -1    0    0  505  502 -0.00000000000E+00 -0.00000000000E+00 -0.15430306354E+04  0.15430306354E+04  0.00000000000E+00 0. -1.
         21    1    1    2  503  502  0.15830700657E+03  0.79238692496E+02 -0.88032164107E+03  0.89794547187E+03  0.00000000000E+00 0. -1.
         21    1    1    2  504  501  0.22512010786E+01  0.33395905328E+02 -0.73380121703E+02  0.80653559500E+02  0.00000000000E+00 0. -1.
         21    1    1    2  505  504 -0.23421620674E+03 -0.38524865271E+02 -0.40270117607E+03  0.46745014060E+03  0.00000000000E+00 0. -1.
         21    1    1    2  506  503  0.73657999085E+02 -0.74109732552E+02 -0.12255669444E+03  0.16105246549E+03  0.00000000000E+00 0. -1.
<scales pt_clust_3="14000.00000" pt_clust_4="33.47170" pt_clust_5="188.25824" pt_clust_6="97.77785"></scales>
<clustering>
<clus scale="   33.472">  1  4  2 -1</clus>
<clus scale="   97.778">  1  6  2 -1</clus>
<clus scale="  188.258">  1  5  2 -1</clus>
<clus scale="   33.472">  1  3  2 -1</clus>
</clustering>
</event>
<event>
 6    0  0.2908518E+002  0.1348070E+03  0.7546771E-02  0.1220492E+00
         21   -1    0    0  506  501  0.00000000000E+00  0.00000000000E+00  0.18265847677E+03  0.18265847677E+03  0.00000000000E+00 0. -1.
         21   -1    0    0  503  502 -0.00000000000E+00 -0.00000000000E+00 -0.20271298518E+03  0.20271298518E+03  0.00000000000E+00 0. -1.
         21    1    1    2  503  504 -0.71631680376E+02  0.67488155153E+02  0.60964497340E+02  0.11576881556E+03  0.00000000000E+00 0. -1.
         21    1    1    2  504  501 -0.60125657018E+02  0.14817594501E+02  0.19728887713E+02  0.64991420581E+02  0.00000000000E+00 0. -1.
         21    1    1    2  505  502  0.11444400954E+03 -0.41057183006E+02 -0.10366749497E+03  0.15978132903E+03  0.00000000000E+00 0. -1.
         21    1    1    2  506  505  0.17313327858E+02 -0.41248566649E+02  0.29196014988E+01  0.44829896776E+02  0.00000000000E+00 0. -1.
<scales pt_clust_3="35.72707" pt_clust_4="35.72707" pt_clust_5="127.06033" pt_clust_6="44.73472"></scales>
<clustering>
<clus scale="   35.727">  3  4 -1 -1</clus>
<clus scale="   44.735">  1  6  2 -1</clus>
<clus scale="  127.060">  2  5  1 -1</clus>
<clus scale="   44.735">  1  3  2 -1</clus>
</clustering>
</event>
<event>
 6    0  0.2908518E+002  0.2328167E+03  0.7546771E-02  0.1124673E+00
         21   -1    0    0  505  501  0.00000000000E+00  0.00000000000E+00  0.10884753481E+04  0.10884753481E+04  0.00000000000E+00 0.  1.
         21   -1    0    0  506  502 -0.00000000000E+00 -0.00000000000E+00 -0.14235771938E+03  0.14235771938E+03  0.00000000000E+00 0.  1.
         21    1    1    2  503  504  0.53349030979E+02 -0.22663987695E+02 -0.87693160773E+01  0.58623172458E+02  0.00000000000E+00 0.  1.
         21    1    1    2  504  501  0.89055589056E+02 -0.16288312569E+03  0.21961573762E+03  0.28756370214E+03  0.00000000000E+00 0.  1.
         21    1    1    2  505  502 -0.17579541902E+03  0.19865990288E+03  0.78198097155E+03  0.82575058354E+03  0.00000000000E+00 0.  1.
         21    1    1    2  506  503  0.33390798982E+02 -0.13112789497E+02 -0.46709764402E+02  0.58895609306E+02  0.00000000000E+00 0.  1.
<scales pt_clust_3="103.59892" pt_clust_4="232.81670" pt_clust_5="14000.00000" pt_clust_6="34.55170"></scales>
<clustering>
<clus scale="   34.552">  3  6 -1 -1</clus>
<clus scale="  103.599">  2  3  1 -1</clus>
<clus scale="  232.817">  2  4  1 -1</clus>
<clus scale="  232.817">  1  3  2 -1</clus>
</clustering>
</event>
<event>
 6    0  0.2908518E+002  0.1492517E+03  0.7546771E-02  0.1201396E+00
         21   -1    0    0  503  501  0.00000000000E+00  0.00000000000E+00  0.44482041771E+03  0.44482041771E+03  0.00000000000E+00 0. -1.
         21   -1    0    0  504  502 -0.00000000000E+00 -0.00000000000E+00 -0.30853089608E+03  0.30853089608E+03  0.00000000000E+00 0.  1.
         21    1    1    2  503  505 -0.25235328249E+02  0.42505248879E+02  0.33291532725E+03  0.33656519888E+03  0.00000000000E+00 0. -1.
         21    1    1    2  504  506  0.12447782598E+03 -0.92503857664E+02 -0.18534060806E+03  0.24166678265E+03  0.00000000000E+00 0.  1.
         21    1    1    2  505  502 -0.13132855088E+03  0.49727276495E+02 -0.20061300704E+02  0.14185360795E+03  0.00000000000E+00 0.  1.
         21    1    1    2  506  501  0.32086053148E+02  0.27133228920E+00  0.87761031372E+01  0.33265724314E+02  0.00000000000E+00 0. -1.
<scales pt_clust_3="42.71970" pt_clust_4="14000.00000" pt_clust_5="149.25171" pt_clust_6="32.08720"></scales>
<clustering>
<clus scale="   32.087">  1  6  2 -1</clus>
<clus scale="   42.720">  1  3  2 -1</clus>
<clus scale="  149.252">  1  5  2 -1</clus>
<clus scale="   32.087">  1  3  2 -1</clus>
</clustering>
</event>
<event>
 6    0  0.2908518E+002  0.1257780E+03  0.7546771E-02  0.1233858E+00
         21   -1    0    0  505  501  0.00000000000E+00  0.00000000000E+00  0.73822246056E+03  0.73822246056E+03  0.00000000000E+00 0.  1.
         21   -1    0    0  504  502 -0.00000000000E+00 -0.00000000000E+00 -0.23194588824E+03  0.23194588824E+03  0.00000000000E+00 0.  1.
         21    1    1    2  503  502 -0.71309153237E+02  0.10428510431E+03 -0.64764957797E+02  0.14196787691E+03  0.00000000000E+00 0.  1.
         21    1    1    2  504  506  0.74549485327E+02 -0.10064246722E+03 -0.57734369449E+02  0.13791225249E+03  0.00000000000E+00 0.  1.
         21    1    1    2  505  503 -0.43562268558E+02 -0.50894903609E+01 -0.14159842488E+02  0.46087691343E+02  0.00000000000E+00 0.  1.
         21    1    1    2  506  501  0.40321936468E+02  0.14468532681E+01  0.64293574205E+03  0.64420052806E+03  0.00000000000E+00 0.  1.
<scales pt_clust_3="14000.00000" pt_clust_4="125.77799" pt_clust_5="37.07973" pt_clust_6="40.34789"></scales>
<clustering>
<clus scale="   40.348">  1  6  2 -1</clus>
<clus scale="   37.080">  1  5  2 -1</clus>
<clus scale="  125.778">  1  4  2 -1</clus>
<clus scale="   40.348">  1  3  2 -1</clus>
</clustering>
</event>
<event>
 6    0  0.2908518E+002  0.3129917E+03  0.7546771E-02  0.1078921E+00
         21   -1    0    0  505  501  0.00000000000E+00  0.00000000000E+00  0.14420355581E+04  0.14420355581E+04  0.00000000000E+00 0. -1.
         21   -1    0    0  504  502 -0.00000000000E+00 -0.00000000000E+00 -0.11870770607E+04  0.11870770607E+04  0.00000000000E+00 0.  1.
         21    1    1    2  503  506 -0.67446207234E+02 -0.10272304211E+03  0.51863421905E+02  0.13338226562E+03  0.00000000000E+00 0. -1.
         21    1    1    2  504  503 -0.95099908469E+02 -0.13407689068E+03 -0.25983930784E+02  0.16642046107E+03  0.00000000000E+00 0. -1.
         21    1    1    2  505  502  0.76406729287E+02  0.29654539441E+03 -0.10255574598E+04  0.10703014821E+04  0.00000000000E+00 0.  1.
         21    1    1    2  506  501  0.86139386417E+02 -0.59745461617E+02  0.12546364662E+04  0.12590084100E+04  0.00000000000E+00 0. -1.
<scales pt_clust_3="70.85958" pt_clust_4="70.85958" pt_clust_5="302.07175" pt_clust_6="104.83088"></scales>
<clustering>
<clus scale="   70.860">  3  4 -1 -1</clus>
<clus scale="  104.831">  1  6  2 -1</clus>
<clus scale="  302.072">  2  5  1 -1</clus>
<clus scale="  104.831">  1  3  2 -1</clus>
</clustering>
</event>
<event>
 6    0  0.2908518E+002  0.1538834E+03  0.7546771E-02  0.1195781E+00
         21   -1    0    0  504  501  0.00000000000E+00  0.00000000000E+00  0.85859151697E+03  0.85859151697E+03  0.00000000000E+00 0.  1.
         21   -1    0    0  505  502 -0.00000000000E+00 -0.00000000000E+00 -0.67161276188E+02  0.67161276188E+02  0.00000000000E+00 0.  1.
         21    1    1    2  503  502 -0.77655774123E+02 -0.10082465092E+03  0.13695594650E+03  0.18695710943E+03  0.00000000000E+00 0.  1.
         21    1    1    2  504  503 -0.21468060734E+02 -0.31416201187E+02  0.51565541145E+03  0.51705740367E+03  0.00000000000E+00 0.  1.
         21    1    1    2  505  506  0.30039085914E+02  0.67122019527E+02  0.36286341423E+02  0.82002504607E+02  0.00000000000E+00 0.  1.
         21    1    1    2  506  501  0.69084748943E+02  0.65118832576E+02  0.10253254141E+03  0.13973577545E+03  0.00000000000E+00 0.  1.
<scales pt_clust_3="145.24493" pt_clust_4="38.05069" pt_clust_5="46.02245" pt_clust_6="46.02245"></scales>
<clustering>
<clus scale="   38.051">  1  4  2 -1</clus>
<clus scale="   46.022">  5  6 -1 -1</clus>
<clus scale="  145.245">  2  3  1 -1</clus>
<clus scale="   38.051">  1  3  2 -1</clus>
</clustering>
</event>
<event>
 6    0  0.2908518E+002  0.1289974E+03  0.7546771E-02  0.1228951E+00
         21   -1    0    0  504  501  0.00000000000E+00  0.00000000000E+00  0.12402824316E+04  0.12402824316E+04  0.00000000000E+00 0. -1.
         21   -1    0    0  505  502 -0.00000000000E+00 -0.00000000000E+00 -0.17305818937E+03  0.17305818937E+03  0.00000000000E+00 0. -1.
         21    1    1    2  503  501  0.51706229910E+01 -0.53403982230E+02  0.10865123673E+04  0.10878363135E+04  0.00000000000E+00 0. -1.
         21    1    1    2  504  502  0.81704733960E+02 -0.45585927058E+02  0.10485256870E+03  0.14052687096E+03  0.00000000000E+00 0.  1.
         21    1    1    2  505  506 -0.32658636920E+02  0.65930347062E+02 -0.69291160442E+02  0.10106761175E+03  0.00000000000E+00 0. -1.
         21    1    1    2  506  503 -0.54216720031E+02  0.33059562227E+02 -0.54849533333E+02  0.83909824767E+02  0.00000000000E+00 0. -1.
<scales pt_clust_3="53.65371" pt_clust_4="123.21088" pt_clust_5="35.49047" pt_clust_6="35.49047"></scales>
<clustering>
<clus scale="   35.490">  5  6 -1 -1</clus>
<clus scale="   53.654">  1  3  2 -1</clus>
<clus scale="  123.211">  1  4  2 -1</clus>
<clus scale="   53.654">  1  3  2 -1</clus>
</clustering>
</event>
<event>
 6    0  0.2908518E+002  0.5204188E+03  0.7546771E-02  0.1008583E+00
         21   -1    0    0  503  501  0.00000000000E+00  0.00000000000E+00  0.71915137310E+03  0.71915137310E+03  0.00000000000E+00 0. -1.
         21   -1    0    0  501  502 -0.00000000000E+00 -0.00000000000E+00 -0.97313040967E+03  0.97313040967E+03  0.00000000000E+00 0. -1.
         21    1    1    2  503  505 -0.32022871919E+02  0.88197449864E+01  0.24784787304E+03  0.25006363269E+03  0.00000000000E+00 0. -1.
         21    1    1    2  504  502 -0.39721489205E+03  0.31717653699E+03 -0.69723839319E+03  0.86285688443E+03  0.00000000000E+00 0. -1.
         21    1    1    2  505  506  0.37747080820E+03 -0.25991472789E+03  0.18704744104E+03  0.49500163840E+03  0.00000000000E+00 0. -1.
         21    1    1    2  506  504  0.51766955767E+02 -0.66081554081E+02  0.83640425352E+01  0.84359627232E+02  0.00000000000E+00 0.  1.
<scales pt_clust_3="33.21524" pt_clust_4="513.69308" pt_clust_5="36.03654" pt_clust_6="36.03654"></scales>
<clustering>
<clus scale="   33.215">  1  3  2 -1</clus>
<clus scale="   36.037">  5  6 -1 -1</clus>
<clus scale="  513.693">  2  4  1 -1</clus>
<clus scale="   33.215">  1  3  2 -1</clus>
</clustering>
</event>
<event>
 6    0  0.2908518E+002  0.1849941E+03  0.7546771E-02  0.1163055E+00
         21   -1    0    0  504  501  0.00000000000E+00  0.00000000000E+00  0.68215612068E+03  0.68215612068E+03  0.00000000000E+00 0.  1.
         21   -1    0    0  506  502 -0.00000000000E+00 -0.00000000000E+00 -0.43904829277E+03  0.43904829277E+03  0.00000000000E+00 0.  1.
         21    1    1    2  503  501 -0.85398071951E+02  0.71832739137E+02  0.39262500585E+03  0.40817541367E+03  0.00000000000E+00 0.  1.
         21    1    1    2  504  505 -0.80518950482E+02 -0.81967578987E+01  0.42040774682E+02  0.91202603924E+02  0.00000000000E+00 0.  1.
         21    1    1    2  505  502 -0.16460808201E+03 -0.29633866034E+01 -0.23079303911E+03  0.28349608326E+03  0.00000000000E+00 0.  1.
         21    1    1    2  506  503  0.33052510444E+03 -0.60672594635E+02  0.39235086484E+02  0.33833031259E+03  0.00000000000E+00 0.  1.
<scales pt_clust_3="152.98467" pt_clust_4="80.93509" pt_clust_5="14000.00000" pt_clust_6="184.99415"></scales>
<clustering>
<clus scale="   80.935">  1  4  2 -1</clus>
<clus scale="  152.985">  1  3  2 -1</clus>
<clus scale="  184.994">  1  6  2 -1</clus>
<clus scale="   80.935">  1  3  2 -1</clus>
</clustering>
</event>
<event>
 6    0  0.2908518E+002  0.1231682E+03  0.7546771E-02  0.1237960E+00
         21   -1    0    0  506  501  0.00000000000E+00  0.00000000000E+00  0.13319209961E+04  0.13319209961E+04  0.00000000000E+00 0.  1.
         21   -1    0    0  503  502 -0.00000000000E+00 -0.00000000000E+00 -0.15198303045E+02  0.15198303045E+02  0.00000000000E+00 0.  1.
         21    1    1    2  503  504  0.99016543324E+02  0.25178269384E+02  0.46636253175E+03  0.47742248808E+03  0.00000000000E+00 0.  1.
         21    1    1    2  504  501  0.22766114422E+02 -0.28511092816E+02  0.34884611853E+03  0.35074890277E+03  0.00000000000E+00 0. -1.
         21    1    1    2  505  502 -0.28334708320E+02 -0.16760793946E+02  0.19862934326E+03  0.20133900743E+03  0.00000000000E+00 0.  1.
         21    1    1    2  506  505 -0.93447949426E+02  0.20093617377E+02  0.30288469951E+03  0.31760890086E+03  0.00000000000E+00 0.  1.
<scales pt_clust_3="110.55283" pt_clust_4="36.48532" pt_clust_5="31.86703" pt_clust_6="31.86703"></scales>
<clustering>
<clus scale="   31.867">  5  6 -1 -1</clus>
<clus scale="   36.485">  1  4  2 -1</clus>
<clus scale="  110.553">  1  3  2 -1</clus>
<clus scale="   36.485">  1  3  2 -1</clus>
</clustering>
</event>
<event>
 6    0  0.2908518E+002  0.1281035E+03  0.7546771E-02  0.1230297E+00
         21   -1    0    0  505  501  0.00000000000E+00  0.00000000000E+00  0.91327451354E+02  0.91327451354E+02  0.00000000000E+00 0.  1.
         21   -1    0    0  504  502 -0.00000000000E+00 -0.00000000000E+00 -0.55671292342E+03  0.55671292342E+03  0.00000000000E+00 0. -1.
         21    1    1    2  503  501  0.56730766956E+02 -0.45954321847E+02 -0.15092153364E+03  0.16765288227E+03  0.00000000000E+00 0.  1.
         21    1    1    2  504  503  0.52151642233E+02  0.10655106241E+02 -0.11257965709E+03  0.12452913020E+03  0.00000000000E+00 0. -1.
         21    1    1    2  505  506 -0.96955196643E+02 -0.85047406107E+02 -0.10409977071E+02  0.12938987234E+03  0.00000000000E+00 0.  1.
         21    1    1    2  506  502 -0.11927212546E+02  0.12034662171E+03 -0.19147430426E+03  0.22646848997E+03  0.00000000000E+00 0. -1.
<scales pt_clust_3="45.47206" pt_clust_4="45.47206" pt_clust_5="116.50948" pt_clust_6="120.93621"></scales>
<clustering>
<clus scale="   45.472">  3  4 -1 -1</clus>
<clus scale="  120.936">  2  6  1 -1</clus>
<clus scale="  116.509">  1  5  2 -1</clus>
<clus scale="  116.509">  1  3  2 -1</clus>
</clustering>
</event>
<event>
 6    0  0.2908518E+002  0.7686273E+02  0.7546771E-02  0.1338198E+00
         21   -1    0    0  504  501  0.00000000000E+00  0.00000000000E+00  0.59444212490E+03  0.59444212490E+03  0.00000000000E+00 0. -1.
         21   -1    0    0  505  502 -0.00000000000E+00 -0.00000000000E+00 -0.20142217635E+03  0.20142217635E+03  0.00000000000E+00 0. -1.
         21    1    1    2  503  501 -0.17034377997E+02  0.26625299949E+02  0.48848410540E+03  0.48950566683E+03  0.00000000000E+00 0. -1.
         21    1    1    2  504  502  0.52476081814E+02  0.92065316862E+02  0.25627784958E+01  0.10600155454E+03  0.00000000000E+00 0. -1.
         21    1    1    2  505  506  0.32376071361E+01 -0.73608290848E+02 -0.11676730628E+03  0.13806978814E+03  0.00000000000E+00 0. -1.
         21    1    1    2  506  503 -0.38679310953E+02 -0.45082325962E+02  0.18740370936E+02  0.62287291744E+02  0.00000000000E+00 0. -1.
<scales pt_clust_3="31.60817" pt_clust_4="14000.00000" pt_clust_5="76.86273" pt_clust_6="57.09574"></scales>
<clustering>
<clus scale="   31.608">  1  3  2 -1</clus>
<clus scale="   57.096">  1  6  2 -1</clus>
<clus scale="   76.863">  2  5  1 -1</clus>
<clus scale="   31.608">  1  3  2 -1</clus>
</clustering>
</event>
<event>
 6    0  0.2908518E+002  0.1508925E+03  0.7546771E-02  0.1199381E+00
         21   -1    0    0  504  501  0.00000000000E+00  0.00000000000E+00  0.16692427451E+03  0.16692427451E+03  0.00000000000E+00 0.  1.
         21   -1    0    0  503  502 -0.00000000000E+00 -0.00000000000E+00 -0.46789846693E+03  0.46789846693E+03  0.00000000000E+00 0.  1.
         21    1    1    2  503  505  0.48281286780E+02 -0.55898287047E+02 -0.23156499731E+03  0.24305976451E+03  0.00000000000E+00 0.  1.
         21    1    1    2  504  502 -0.69437276079E+02  0.17077681703E+03  0.63951701774E+02  0.19513092196E+03  0.00000000000E+00 0.  1.
         21    1    1    2  505  506 -0.34690050537E+01 -0.67997529488E+02 -0.12593118434E+03  0.14315851774E+03  0.00000000000E+00 0. -1.
         21    1    1    2  506  501  0.24624994353E+02 -0.46881000500E+02 -0.74297125479E+01  0.53473537224E+02  0.00000000000E+00 0.  1.
<scales pt_clust_3="61.10860" pt_clust_4="136.98836" pt_clust_5="61.10860" pt_clust_6="52.95487"></scales>
<clustering>
<clus scale="   52.955">  1  6  2 -1</clus>
<clus scale="   61.109">  3  5 -1 -1</clus>
<clus scale="  136.988">  1  4  2 -1</clus>
<clus scale="   52.955">  1  3  2 -1</clus>
</clustering>
</event>
<event>
 6    0  0.2908518E+002  0.1136456E+03  0.7546771E-02  0.1253964E+00
         21   -1    0    0  504  501  0.00000000000E+00  0.00000000000E+00  0.10931466823E+04  0.10931466823E+04  0.00000000000E+00 0.  1.
         21   -1    0    0  503  502 -0.00000000000E+00 -0.00000000000E+00 -0.51169837032E+03  0.51169837032E+03  0.00000000000E+00 0.  1.
         21    1    1    2  503  505 -0.14044352011E+03 -0.85794930964E+02 -0.30211205471E+03  0.34403029827E+03  0.00000000000E+00 0.  1.
         21    1    1    2  504  506  0.62511135789E+02  0.20627803407E+02  0.67943115352E+02  0.94601349328E+02  0.00000000000E+00 0.  1.
         21    1    1    2  505  501 -0.12470423551E+02  0.81578188617E+02  0.97701559083E+03  0.98049476136E+03  0.00000000000E+00 0.  1.
         21    1    1    2  506  502  0.90402807876E+02 -0.16411061060E+02 -0.16139833952E+03  0.18571864364E+03  0.00000000000E+00 0.  1.
<scales pt_clust_3="14000.00000" pt_clust_4="65.82665" pt_clust_5="113.64562" pt_clust_6="92.57595"></scales>
<clustering>
<clus scale="   65.827">  1  4  2 -1</clus>
<clus scale="   92.576">  2  6  1 -1</clus>
<clus scale="  113.646">  1  5  2 -1</clus>
<clus scale="   65.827">  1  3  2 -1</clus>
</clustering>
</event>
<event>
 6    0  0.2908518E+002  0.8009893E+02  0.7546771E-02  0.1328771E+00
         21   -1    0    0  505  501  0.00000000000E+00  0.00000000000E+00  0.20043819582E+04  0.20043819582E+04  0.00000000000E+00 0.  1.
         21   -1    0    0  506  502 -0.00000000000E+00 -0.00000000000E+00 -0.90450470968E+02  0.90450470968E+02  0.00000000000E+00 0. -1.
         21    1    1    2  503  501  0.44848130303E+01 -0.76994730500E+02  0.15642591152E+04  0.15661592772E+04  0.00000000000E+00 0.  1.
         21    1    1    2  504  503  0.46074315805E+02  0.11368777609E+03  0.35562079665E+03  0.37618333831E+03  0.00000000000E+00 0. -1.
         21    1    1    2  505  502 -0.36315199832E+02 -0.70269728073E+02  0.44099699385E+02  0.90561647004E+02  0.00000000000E+00 0. -1.
         21    1    1    2  506  504 -0.14243929003E+02  0.33576682486E+02 -0.50048123954E+02  0.61928166706E+02  0.00000000000E+00 0. -1.
<scales pt_clust_3="80.09893" pt_clust_4="14000.00000" pt_clust_5="66.16296" pt_clust_6="36.47305"></scales>
<clustering>
<clus scale="   36.473">  2  6  1 -1</clus>
<clus scale="   66.163">  2  5  1 -1</clus>
<clus scale="   80.099">  1  3  2 -1</clus>
<clus scale="   80.099">  1  3  2 -1</clus>
</clustering>
</event>
<event>
 6    0  0.2908518E+002  0.7189024E+02  0.7546771E-02  0.1353781E+00
         21   -1    0    0  506  501  0.00000000000E+00  0.00000000000E+00  0.10683889488E+04  0.10683889488E+04  0.00000000000E+00 0.  1.
         21   -1    0    0  504  502 -0.00000000000E+00 -0.00000000000E+00 -0.72020906489E+03  0.72020906489E+03  0.00000000000E+00 0.  1.
         21    1    1    2  503  502  0.40318688143E+02  0.52136894205E+02 -0.43532831980E+03  0.44028922128E+03  0.00000000000E+00 0.  1.
         21    1    1    2  504  501 -0.87388104850E+02 -0.57060079968E+02 -0.22174747794E+03  0.24508055323E+03  0.00000000000E+00 0.  1.
         21    1    1    2  505  503  0.77689258228E+02 -0.33237844424E+02 -0.11514425829E+02  0.85281634295E+02  0.00000000000E+00 0. -1.
         21    1    1    2  506  505 -0.30619841521E+02  0.38161030186E+02  0.10167701075E+04  0.10179466049E+04  0.00000000000E+00 0.  1.
<scales pt_clust_3="14000.00000" pt_clust_4="71.89024" pt_clust_5="55.84518" pt_clust_6="48.92687"></scales>
<clustering>
<clus scale="   48.927">  1  6  2 -1</clus>
<clus scale="   55.845">  1  5  2 -1</clus>
<clus scale="   71.890">  1  4  2 -1</clus>
<clus scale="   48.927">  1  3  2 -1</clus>
</clustering>
</event>
<event>
 6    0  0.2908518E+002  0.8773792E+02  0.7546771E-02  0.1308424E+00
         21   -1    0    0  506  501  0.00000000000E+00  0.00000000000E+00  0.14869928305E+03  0.14869928305E+03  0.00000000000E+00 0.  1.
         21   -1    0    0  503  502 -0.00000000000E+00 -0.00000000000E+00 -0.46713791593E+03  0.46713791593E+03  0.00000000000E+00 0.  1.
         21    1    1    2  503  504 -0.21987282283E+02 -0.21020532017E+02 -0.19223199856E+03  0.19462385419E+03  0.00000000000E+00 0.  1.
         21    1    1    2  504  505 -0.92509420622E+02  0.79727682532E+01 -0.18881093031E+03  0.21040704680E+03  0.00000000000E+00 0.  1.
         21    1    1    2  505  501  0.47497039836E+02  0.38970105338E+02  0.10911659550E+03  0.12522407642E+03  0.00000000000E+00 0.  1.
         21    1    1    2  506  502  0.66999663069E+02 -0.25922341575E+02 -0.46512299511E+02  0.85582221576E+02  0.00000000000E+00 0.  1.
<scales pt_clust_3="30.41880" pt_clust_4="14000.00000" pt_clust_5="60.54564" pt_clust_6="87.73792"></scales>
<clustering>
<clus scale="   30.419">  2  3  1 -1</clus>
<clus scale="   60.546">  1  5  2 -1</clus>
<clus scale="   87.738">  1  6  2 -1</clus>
<clus scale="   60.546">  1  3  2 -1</clus>
</clustering>
</event>
<event>
 6    0  0.2908518E+002  0.9888334E+02  0.7546771E-02  0.1282662E+00
         21   -1    0    0  506  501  0.00000000000E+00  0.00000000000E+00  0.15531598808E+04  0.15531598808E+04  0.00000000000E+00 0.  1.
         21   -1    0    0  504  502 -0.00000000000E+00 -0.00000000000E+00 -0.57470144040E+02  0.57470144040E+02  0.00000000000E+00 0.  1.
         21    1    1    2  503  501 -0.69475930615E+02 -0.91867821781E+01  0.30649115608E+01  0.70147669844E+02  0.00000000000E+00 0.  1.
         21    1    1    2  504  503 -0.45546792635E+02  0.27416759146E+02  0.51547913840E+02  0.74049823921E+02  0.00000000000E+00 0.  1.
         21    1    1    2  505  502  0.10289335138E+03  0.38757012337E+02  0.24048851574E+03  0.26443122729E+03  0.00000000000E+00 0.  1.
         21    1    1    2  506  505  0.12129371874E+02 -0.56986989304E+02  0.12005883956E+04  0.12020013038E+04  0.00000000000E+00 0.  1.
<scales pt_clust_3="98.88334" pt_clust_4="53.16191" pt_clust_5="14000.00000" pt_clust_6="57.71177"></scales>
<clustering>
<clus scale="   53.162">  2  4  1 -1</clus>
<clus scale="   57.712">  1  6  2 -1</clus>
<clus scale="   98.883">  2  3  1 -1</clus>
<clus scale="   57.712">  1  3  2 -1</clus>
</clustering>
</event>
<event>
 6    0  0.2908518E+002  0.1500172E+03  0.7546771E-02  0.1200452E+00
         21   -1    0    0  503  501  0.00000000000E+00  0.00000000000E+00  0.15418631096E+03  0.15418631096E+03  0.00000000000E+00 0.  1.
         21   -1    0    0  505  502 -0.00000000000E+00 -0.00000000000E+00 -0.16839601750E+04  0.16839601750E+04  0.00000000000E+00 0.  1.
         21    1    1    2  503  502  0.43273123894E+02 -0.65438260216E+01 -0.20665210279E+03  0.21123559477E+03  0.00000000000E+00 0. -1.
         21    1    1    2  504  501 -0.55435388672E+02 -0.53612265663E+02  0.87229359930E+02  0.11643160473E+03  0.00000000000E+00 0.  1.
         21    1    1    2  505  506  0.82716871375E+02 -0.84111800567E+02 -0.13218657764E+04  0.13271194395E+04  0.00000000000E+00 0.  1.
         21    1    1    2  506  504 -0.70554606596E+02  0.14426789225E+03 -0.88485344788E+02  0.18335984699E+03  0.00000000000E+00 0.  1.
<scales pt_clust_3="43.76511" pt_clust_4="76.85700" pt_clust_5="150.01721" pt_clust_6="14000.00000"></scales>
<clustering>
<clus scale="   43.765">  2  3  1 -1</clus>
<clus scale="   76.857">  1  4  2 -1</clus>
<clus scale="  150.017">  2  5  1 -1</clus>
<clus scale="   76.857">  1  3  2 -1</clus>
</clustering>
</event>
<event>
 6    0  0.2908518E+002  0.1582492E+03  0.7546771E-02  0.1190688E+00
         21   -1    0    0  505  501  0.00000000000E+00  0.00000000000E+00  0.19419688115E+03  0.19419688115E+03  0.00000000000E+00 0.  1.
         21   -1    0    0  503  502 -0.00000000000E+00 -0.00000000000E+00 -0.32782423819E+03  0.32782423819E+03  0.00000000000E+00 0.  1.
         21    1    1    2  503  504 -0.84152727672E+02 -0.29352941680E+02  0.33942700695E+02  0.95369721036E+02  0.00000000000E+00 0.  1.
         21    1    1    2  504  506 -0.24323244497E+02 -0.37785758309E+02  0.77711020418E+01  0.45604536844E+02  0.00000000000E+00 0.  1.
         21    1    1    2  505  502  0.13157288074E+03  0.88281976518E+02 -0.25231956000E+03  0.29794343537E+03  0.00000000000E+00 0.  1.
         21    1    1    2  506  501 -0.23096908574E+02 -0.21143276529E+02  0.76978400213E+02  0.83103426087E+02  0.00000000000E+00 0.  1.
<scales pt_clust_3="30.61620" pt_clust_4="30.61620" pt_clust_5="152.26208" pt_clust_6="31.31302"></scales>
<clustering>
<clus scale="   30.616">  3  4 -1 -1</clus>
<clus scale="   31.313">  1  6  2 -1</clus>
<clus scale="  152.262">  2  5  1 -1</clus>
<clus scale="   31.313">  1  3  2 -1</clus>
</clustering>
</event>
<event>
 6    0  0.2908518E+002  0.9141033E+02  0.7546771E-02  0.1299472E+00
         21   -1    0    0  503  501  0.00000000000E+00  0.00000000000E+00  0.10104274309E+03  0.10104274309E+03  0.00000000000E+00 0.  1.
         21   -1    0    0  506  502 -0.00000000000E+00 -0.00000000000E+00 -0.13041618839E+04  0.13041618839E+04  0.00000000000E+00 0. -1.
         21    1    1    2  503  502  0.89943906741E+02  0.88868039107E+02 -0.66685996323E+03  0.67874122115E+03  0.00000000000E+00 0. -1.
         21    1    1    2  504  505  0.21829472710E+02 -0.38575582773E+02 -0.41308111320E+03  0.41545229275E+03  0.00000000000E+00 0. -1.
         21    1    1    2  505  501 -0.89543667706E+02 -0.15952148324E+02  0.69229249329E+02  0.11430323016E+03  0.00000000000E+00 0.  1.
         21    1    1    2  506  504 -0.22229711745E+02 -0.34340308010E+02 -0.19240731368E+03  0.19670788290E+03  0.00000000000E+00 0. -1.
<scales pt_clust_3="91.41033" pt_clust_4="53.14748" pt_clust_5="14000.00000" pt_clust_6="40.90742"></scales>
<clustering>
<clus scale="   40.907">  2  6  1 -1</clus>
<clus scale="   53.147">  2  4  1 -1</clus>
<clus scale="   91.410">  2  3  1 -1</clus>
<clus scale="   91.410">  1  3  2 -1</clus>
</clustering>
</event>
<event>
 6    0  0.2908518E+002  0.1470346E+03  0.7546771E-02  0.1204165E+00
         21   -1    0    0  506  501  0.00000000000E+00  0.00000000000E+00  0.92492421750E+02  0.92492421750E+02  0.00000000000E+00 0.  1.
         21   -1    0    0  504  502 -0.00000000000E+00 -0.00000000000E+00 -0.60848936942E+03  0.60848936942E+03  0.00000000000E+00 0.  1.
         21    1    1    2  503  501  0.56418514760E+02  0.10424870732E+02 -0.14539930740E+03  0.15630958170E+03  0.00000000000E+00 0.  1.
         21    1    1    2  504  503  0.83130363036E+02 -0.44905373537E+02 -0.15368557124E+03  0.18040622117E+03  0.00000000000E+00 0.  1.
         21    1    1    2  505  502 -0.48095635892E+02 -0.69423697504E+02 -0.20923184820E+03  0.22563423115E+03  0.00000000000E+00 0.  1.
         21    1    1    2  506  505 -0.91453241904E+02  0.10390420031E+03 -0.76802208263E+01  0.13863175714E+03  0.00000000000E+00 0.  1.
<scales pt_clust_3="44.51275" pt_clust_4="44.51275" pt_clust_5="84.45614" pt_clust_6="135.48511"></scales>
<clustering>
<clus scale="   44.513">  3  4 -1 -1</clus>
<clus scale="   84.456">  2  5  1 -1</clus>
<clus scale="  135.485">  1  6  2 -1</clus>
<clus scale="  135.485">  1  3  2 -1</clus>
</clustering>
</event>
<event>
 6    0  0.2908518E+002  0.9450896E+02  0.7546771E-02  0.1292286E+00
         21   -1    0    0  503  501  0.00000000000E+00  0.00000000000E+00  0.81541532046E+03  0.81541532046E+03  0.00000000000E+00 0. -1.
         21   -1    0    0  506  502 -0.00000000000E+00 -0.00000000000E+00 -0.34779563120E+03  0.34779563120E+03  0.00000000000E+00 0.  1.
         21    1    1    2  503  505 -0.60685717723E+02  0.21727316968E+02  0.47219751808E+02  0.79903301552E+02  0.00000000000E+00 0.  1.
         21    1    1    2  504  501 -0.36783219009E+02  0.46456554344E+01  0.73461316932E+03  0.73554816012E+03  0.00000000000E+00 0. -1.
         21    1    1    2  505  502 -0.15012137660E+02 -0.33084478246E+02 -0.75174470972E+02  0.83493401319E+02  0.00000000000E+00 0.  1.
         21    1    1    2  506  504  0.11248107439E+03  0.67115058441E+01 -0.23903876090E+03  0.26426608867E+03  0.00000000000E+00 0.  1.
<scales pt_clust_3="14000.00000" pt_clust_4="37.09419" pt_clust_5="36.33107" pt_clust_6="94.50896"></scales>
<clustering>
<clus scale="   36.331">  2  5  1 -1</clus>
<clus scale="   37.094">  1  4  2 -1</clus>
<clus scale="   94.509">  2  6  1 -1</clus>
<clus scale="   37.094">  1  3  2 -1</clus>
</clustering>
</event>
<event>
 6    0  0.2908518E+002  0.1726741E+03  0.7546771E-02  0.1175088E+00
         21   -1    0    0  503  501  0.00000000000E+00  0.00000000000E+00  0.60441197169E+03  0.60441197169E+03  0.00000000000E+00 0.  1.
         21   -1    0    0  506  502 -0.00000000000E+00 -0.00000000000E+00 -0.16825819217E+03  0.16825819217E+03  0.00000000000E+00 0.  1.
         21    1    1    2  503  504 -0.38367615808E+02  0.13853147449E+03  0.28712799699E+03  0.32110049832E+03  0.00000000000E+00 0.  1.
         21    1    1    2  504  502  0.11150888248E+03 -0.14111464822E+03 -0.87340752559E+02  0.19993994566E+03  0.00000000000E+00 0.  1.
         21    1    1    2  505  501 -0.31404962573E+02  0.13351494959E+02  0.16303915491E+03  0.16657220695E+03  0.00000000000E+00 0.  1.
         21    1    1    2  506  505 -0.41736304100E+02 -0.10768321232E+02  0.73327380178E+02  0.85057512930E+02  0.00000000000E+00 0.  1.
<scales pt_clust_3="172.67413" pt_clust_4="14000.00000" pt_clust_5="34.12527" pt_clust_6="48.12595"></scales>
<clustering>
<clus scale="   34.125">  1  5  2 -1</clus>
<clus scale="   48.126">  1  6  2 -1</clus>
<clus scale="  172.674">  1  3  2 -1</clus>
<clus scale="   34.125">  1  3  2 -1</clus>
</clustering>
</event>
<event>
 6    0  0.2908518E+002  0.3278096E+03  0.7546771E-02  0.1072110E+00
         21   -1    0    0  503  501  0.00000000000E+00  0.00000000000E+00  0.22148287287E+03  0.22148287287E+03  0.00000000000E+00 0. -1.
         21   -1    0    0  504  502 -0.00000000000E+00 -0.00000000000E+00 -0.14631372987E+04  0.14631372987E+04  0.00000000000E+00 0. -1.
         21    1    1    2  503  506 -0.24267580866E+03 -0.19159602839E+02 -0.29360417428E+03  0.38139487364E+03  0.00000000000E+00 0. -1.
         21    1    1    2  504  501  0.42314211000E+02 -0.32942587067E+02  0.12379720692E+03  0.13491276788E+03  0.00000000000E+00 0. -1.
         21    1    1    2  505  502  0.31082269054E+03  0.24243695306E+02 -0.95718919911E+03  0.10066825044E+04  0.00000000000E+00 0. -1.
         21    1    1    2  506  505 -0.11046109288E+03  0.27858494600E+02 -0.11465825938E+03  0.16163002569E+03  0.00000000000E+00 0. -1.
<scales pt_clust_3="39.98542" pt_clust_4="53.62561" pt_clust_5="322.55639" pt_clust_6="39.98542"></scales>
<clustering>
<clus scale="   39.985">  3  6 -1 -1</clus>
<clus scale="   53.626">  1  4  2 -1</clus>
<clus scale="  322.556">  2  5  1 -1</clus>
<clus scale="   53.626">  1  3  2 -1</clus>
</clustering>
</event>
<event>
 6    0  0.2908518E+002  0.2139306E+03  0.7546771E-02  0.1138491E+00
         21   -1    0    0  505  501  0.00000000000E+00  0.00000000000E+00  0.21803570268E+03  0.21803570268E+03  0.00000000000E+00 0.  1.
         21   -1    0    0  504  502 -0.00000000000E+00 -0.00000000000E+00 -0.79217099552E+03  0.79217099552E+03  0.00000000000E+00 0.  1.
         21    1    1    2  503  502 -0.36555826089E+02  0.10579870095E+03 -0.13617078116E+03  0.17627301321E+03  0.00000000000E+00 0.  1.
         21    1    1    2  504  506  0.42602233185E+02  0.12906261787E+02 -0.71207656219E+02  0.83976497723E+02  0.00000000000E+00 0.  1.
         21    1    1    2  505  503 -0.19532161324E+03 -0.21897616457E+02  0.11193164149E+03  0.22618295818E+03  0.00000000000E+00 0.  1.
         21    1    1    2  506  501  0.18927520614E+03 -0.96807346284E+02 -0.47868849694E+03  0.52377422909E+03  0.00000000000E+00 0.  1.
<scales pt_clust_3="111.93611" pt_clust_4="35.93910" pt_clust_5="198.99168" pt_clust_6="35.93910"></scales>
<clustering>
<clus scale="   35.939">  4  6 -1 -1</clus>
<clus scale="  111.936">  2  3  1 -1</clus>
<clus scale="  198.992">  1  5  2 -1</clus>
<clus scale="  198.992">  1  3  2 -1</clus>
</clustering>
</event>
<event>
 6    0  0.2908518E+002  0.7495800E+02  0.7546771E-02  0.1344001E+00
         21   -1    0    0  503  501  0.00000000000E+00  0.00000000000E+00  0.27096200023E+03  0.27096200023E+03  0.00000000000E+00 0.  1.
         21   -1    0    0  504  502 -0.00000000000E+00 -0.00000000000E+00 -0.33753653923E+03  0.33753653923E+03  0.00000000000E+00 0. -1.
         21    1    1    2  503  505  0.36368937377E+02 -0.66856866101E+02  0.22873472992E+03  0.24106454908E+03  0.00000000000E+00 0.  1.
         21    1    1    2  504  506  0.36746901380E+02  0.11229264412E+02 -0.97191931205E+02  0.10451173442E+03  0.00000000000E+00 0. -1.
         21    1    1    2  505  502 -0.86482822404E+02 -0.23324224337E+01 -0.42632212759E+02  0.96448039535E+02  0.00000000000E+00 0. -1.
         21    1    1    2  506  501  0.13366983646E+02  0.57960024122E+02 -0.15548512496E+03  0.16647421642E+03  0.00000000000E+00 0. -1.
<scales pt_clust_3="14000.00000" pt_clust_4="38.42436" pt_clust_5="75.69242" pt_clust_6="74.95800"></scales>
<clustering>
<clus scale="   38.424">  2  4  1 -1</clus>
<clus scale="   75.692">  2  5  1 -1</clus>
<clus scale="   74.958">  2  6  1 -1</clus>
<clus scale="   74.958">  1  3  2 -1</clus>
</clustering>
</event>
<event>
 6    0  0.2908518E+002  0.1677443E+03  0.7546771E-02  0.1180221E+00
         21   -1    0    0  506  501  0.00000000000E+00  0.00000000000E+00  0.46651219790E+03  0.46651219790E+03  0.00000000000E+00 0. -1.
         21   -1    0    0  503  502 -0.00000000000E+00 -0.00000000000E+00 -0.10365262098E+03  0.10365262098E+03  0.00000000000E+00 0. -1.
         21    1    1    2  503  504 -0.34093047768E+02  0.29027098166E+02  0.30953914317E+02  0.54433933769E+02  0.00000000000E+00 0. -1.
         21    1    1    2  504  505 -0.87018312074E+02  0.52420608508E+02  0.18535840973E+03  0.21137134832E+03  0.00000000000E+00 0. -1.
         21    1    1    2  505  501  0.16257460722E+02  0.49017691611E+02  0.12544074832E+03  0.13565552130E+03  0.00000000000E+00 0. -1.
         21    1    1    2  506  502  0.10485389912E+03 -0.13046539828E+03  0.21106504552E+02  0.16870401550E+03  0.00000000000E+00 0. -1.
<scales pt_clust_3="33.58924" pt_clust_4="33.58924" pt_clust_5="51.64338" pt_clust_6="159.93251"></scales>
<clustering>
<clus scale="   33.589">  3  4 -1 -1</clus>
<clus scale="   51.643">  1  5  2 -1</clus>
<clus scale="  159.933">  2  6  1 -1</clus>
<clus scale="   51.643">  1  3  2 -1</clus>
</clustering>
</event>
<event>
 6    0  0.2908518E+002  0.3095786E+03  0.7546771E-02  0.1080548E+00
         21   -1    0    0  502  501  0.00000000000E+00  0.00000000000E+00  0.52660395911E+03  0.52660395911E+03  0.00000000000E+00 0.  1.
         21   -1    0    0  503  502 -0.00000000000E+00 -0.00000000000E+00 -0.81822191969E+03  0.81822191969E+03  0.00000000000E+00 0. -1.
         21    1    1    2  503  506  0.97364347273E+02 -0.59600994795E+02 -0.36819977903E+03  0.38549081958E+03  0.00000000000E+00 0. -1.
         21    1    1    2  504  505 -0.14190353661E+03 -0.56511748719E+02 -0.11711313563E+03  0.19247253825E+03  0.00000000000E+00 0. -1.
         21    1    1    2  505  501  0.20939178510E+03  0.21959453978E+03  0.38751877674E+03  0.49217627319E+03  0.00000000000E+00 0.  1.
         21    1    1    2  506  504 -0.16485259576E+03 -0.10348179626E+03 -0.19382382266E+03  0.27468624778E+03  0.00000000000E+00 0. -1.
<scales pt_clust_3="114.15820" pt_clust_4="38.18728" pt_clust_5="306.56260" pt_clust_6="38.18728"></scales>
<clustering>
<clus scale="   38.187">  4  6 -1 -1</clus>
<clus scale="  114.158">  2  3  1 -1</clus>
<clus scale="  306.563">  1  5  2 -1</clus>
<clus scale="  306.563">  1  3  2 -1</clus>
</clustering>
</event>
<event>
 6    0  0.2908518E+002  0.1910798E+03  0.7546771E-02  0.1157491E+00
         21   -1    0    0  506  501  0.00000000000E+00  0.00000000000E+00  0.56306296813E+03  0.56306296813E+03  0.00000000000E+00 0.  1.
         21   -1    0    0  503  502 -0.00000000000E+00 -0.00000000000E+00 -0.93412052104E+03  0.93412052104E+03  0.00000000000E+00 0. -1.
         21    1    1    2  503  505  0.12753005080E+02 -0.32800541481E+02 -0.18469109904E+03  0.18801413969E+03  0.00000000000E+00 0. -1.
         21    1    1    2  504  501  0.11319561260E+03  0.14611042941E+03  0.53170490332E+03  0.56291350003E+03  0.00000000000E+00 0.  1.
         21    1    1    2  505  504 -0.52165982430E+02 -0.75807738893E+02 -0.56307921560E+03  0.57054912675E+03  0.00000000000E+00 0. -1.
         21    1    1    2  506  502 -0.73782635253E+02 -0.37502149035E+02 -0.15499214159E+03  0.17570672270E+03  0.00000000000E+00 0. -1.
<scales pt_clust_3="33.35217" pt_clust_4="183.31077" pt_clust_5="33.35217" pt_clust_6="82.76647"></scales>
<clustering>
<clus scale="   33.352">  3  5 -1 -1</clus>
<clus scale="   82.766">  2  6  1 -1</clus>
<clus scale="  183.311">  1  4  2 -1</clus>
<clus scale="  183.311">  1  3  2 -1</clus>
</clustering>
</event>
<event>
 6    0  0.2908518E+002  0.3141020E+03  0.7546771E-02  0.1078396E+00
         21   -1    0    0  503  501  0.00000000000E+00  0.00000000000E+00  0.38642162365E+03  0.38642162365E+03  0.00000000000E+00 0.  1.
         21   -1    0    0  501  502 -0.00000000000E+00 -0.00000000000E+00 -0.57129851104E+03  0.57129851104E+03  0.00000000000E+00 0.  1.
         21    1    1    2  503  505 -0.23336137396E+03 -0.24164857714E+03  0.21032833756E+03  0.39634527280E+03  0.00000000000E+00 0.  1.
         21    1    1    2  504  506  0.14734514987E+03  0.54240505012E+02 -0.22572093061E+03  0.27495920441E+03  0.00000000000E+00 0.  1.
         21    1    1    2  505  504  0.43787405957E+02  0.47343213807E+02 -0.11199125271E+03  0.12923141065E+03  0.00000000000E+00 0. -1.
         21    1    1    2  506  502  0.42228818131E+02  0.14006485832E+03 -0.57493041621E+02  0.15718424683E+03  0.00000000000E+00 0. -1.
<scales pt_clust_3="310.14580" pt_clust_4="31.84857" pt_clust_5="31.84857" pt_clust_6="146.29230"></scales>
<clustering>
<clus scale="   31.849">  4  5 -1 -1</clus>
<clus scale="  146.292">  2  6  1 -1</clus>
<clus scale="  310.146">  1  3  2 -1</clus>
<clus scale="  310.146">  1  3  2 -1</clus>
</clustering>
</event>
<event>
 6    0  0.2908518E+002  0.2288530E+03  0.7546771E-02  0.1127450E+00
         21   -1    0    0  505  501  0.00000000000E+00  0.00000000000E+00  0.13386381989E+04  0.13386381989E+04  0.00000000000E+00 0.  1.
         21   -1    0    0  506  502 -0.00000000000E+00 -0.00000000000E+00 -0.11264524813E+03  0.11264524813E+03  0.00000000000E+00 0.  1.
         21    1    1    2  503  504 -0.44149506376E+02 -0.81234391930E+02  0.58364367858E+02  0.10933711529E+03  0.00000000000E+00 0. -1.
         21    1    1    2  504  502 -0.29340359852E+02 -0.11428580534E+03  0.16017834557E+03  0.19894522967E+03  0.00000000000E+00 0.  1.
         21    1    1    2  505  503  0.55453526430E+02 -0.37600891308E+02  0.86835970018E+03  0.87094057749E+03  0.00000000000E+00 0.  1.
         21    1    1    2  506  501  0.18036339797E+02  0.23312108858E+03  0.13909053712E+03  0.27206052454E+03  0.00000000000E+00 0.  1.
<scales pt_clust_3="53.46636" pt_clust_4="53.46636" pt_clust_5="66.99941" pt_clust_6="220.73859"></scales>
<clustering>
<clus scale="   53.466">  3  4 -1 -1</clus>
<clus scale="   66.999">  1  5  2 -1</clus>
<clus scale="  220.739">  2  6  1 -1</clus>
<clus scale="   66.999">  1  3  2 -1</clus>
</clustering>
</event>
<event>
 6    0  0.2908518E+002  0.1229961E+03  0.7546771E-02  0.1238235E+00
         21   -1    0    0  506  501  0.00000000000E+00  0.00000000000E+00  0.32425504543E+03  0.32425504543E+03  0.00000000000E+00 0. -1.
         21   -1    0    0  503  502 -0.00000000000E+00 -0.00000000000E+00 -0.27929259285E+03  0.27929259285E+03  0.00000000000E+00 0.  1.
         21    1    1    2  503  501 -0.15821773552E+03  0.20265117740E+02  0.57566481133E+02  0.16958014795E+03  0.00000000000E+00 0. -1.
         21    1    1    2  504  502  0.49502044168E+02  0.18716576580E+01 -0.11694511878E+03  0.12700439475E+03  0.00000000000E+00 0.  1.
         21    1    1    2  505  504  0.53754951146E+02 -0.35771143669E+02 -0.86475163586E+02  0.10792183935E+03  0.00000000000E+00 0.  1.
         21    1    1    2  506  505  0.54960740203E+02  0.13634368270E+02  0.19081625381E+03  0.19904125622E+03  0.00000000000E+00 0. -1.
<scales pt_clust_3="114.58054" pt_clust_4="39.16497" pt_clust_5="39.16497" pt_clust_6="56.62666"></scales>
<clustering>
<clus scale="   39.165">  4  5 -1 -1</clus>
<clus scale="   56.627">  1  6  2 -1</clus>
<clus scale="  114.581">  1  3  2 -1</clus>
<clus scale="   56.627">  1  3  2 -1</clus>
</clustering>
</event>
<event>
 6    0  0.2908518E+002  0.9626818E+02  0.7546771E-02  0.1288345E+00
         21   -1    0    0  506  501  0.00000000000E+00  0.00000000000E+00  0.74473849580E+03  0.74473849580E+03  0.00000000000E+00 0. -1.
         21   -1    0    0  503  502 -0.00000000000E+00 -0.00000000000E+00 -0.10677859594E+03  0.10677859594E+03  0.00000000000E+00 0.  1.
         21    1    1    2  503  501 -0.81334395135E+02  0.16771618361E+02 -0.54946947511E+02  0.99577799008E+02  0.00000000000E+00 0.  1.
         21    1    1    2  504  502  0.65991003739E+02  0.15916534204E+02  0.51882991112E+02  0.85439998843E+02  0.00000000000E+00 0. -1.
         21    1    1    2  505  504  0.70045416845E+02 -0.48324946703E+01  0.10105390017E+03  0.12305122577E+03  0.00000000000E+00 0. -1.
         21    1    1    2  506  505 -0.54702025448E+02 -0.27855657894E+02  0.53996995609E+03  0.54344806812E+03  0.00000000000E+00 0. -1.
<scales pt_clust_3="88.41623" pt_clust_4="37.44384" pt_clust_5="37.44384" pt_clust_6="61.38607"></scales>
<clustering>
<clus scale="   37.444">  4  5 -1 -1</clus>
<clus scale="   61.386">  1  6  2 -1</clus>
<clus scale="   88.416">  2  3  1 -1</clus>
<clus scale="   61.386">  1  3  2 -1</clus>
</clustering>
</event>
<event>
 6    0  0.2908518E+002  0.9798663E+02  0.7546771E-02  0.1284588E+00
         21   -1    0    0  505  501  0.00000000000E+00  0.00000000000E+00  0.70425485034E+03  0.70425485034E+03  0.00000000000E+00 0. -1.
         21   -1    0    0  504  502 -0.00000000000E+00 -0.00000000000E+00 -0.91849862813E+02  0.91849862813E+02  0.00000000000E+00 0. -1.
         21    1    1    2  503  506  0.92855081304E+02  0.69776755818E+02  0.22299797429E+02  0.11827147899E+03  0.00000000000E+00 0. -1.
         21    1    1    2  504  501 -0.22594982592E+02 -0.27061031346E+02 -0.16694356261E+02  0.39006847947E+02  0.00000000000E+00 0.  1.
         21    1    1    2  505  503 -0.96322981884E+02 -0.15144664511E+02  0.58882558622E+03  0.59684424157E+03  0.00000000000E+00 0. -1.
         21    1    1    2  506  502  0.26062883171E+02 -0.27571059961E+02  0.17973960138E+02  0.41982144652E+02  0.00000000000E+00 0. -1.
<scales pt_clust_3="14000.00000" pt_clust_4="35.25383" pt_clust_5="97.98663" pt_clust_6="39.27004"></scales>
<clustering>
<clus scale="   35.254">  2  4  1 -1</clus>
<clus scale="   39.270">  2  6  1 -1</clus>
<clus scale="   97.987">  1  5  2 -1</clus>
<clus scale="   97.987">  1  3  2 -1</clus>
</clustering>
</event>
<event>
 6    0  0.2908518E+002  0.1438819E+03  0.7546771E-02  0.1208199E+00
         21   -1    0    0  503  501  0.00000000000E+00  0.00000000000E+00  0.92398141841E+03  0.92398141841E+03  0.00000000000E+00 0.  1.
         21   -1    0    0  506  502 -0.00000000000E+00 -0.00000000000E+00 -0.48827540907E+02  0.48827540907E+02  0.00000000000E+00 0.  1.
         21    1    1    2  503  502 -0.52365521735E+02 -0.95335577436E+01  0.38394181225E-01  0.53226291097E+02  0.00000000000E+00 0.  1.
         21    1    1    2  504  501  0.12415016730E+03  0.90539523237E+02  0.58893809352E+03  0.60865322418E+03  0.00000000000E+00 0.  1.
         21    1    1    2  505  504 -0.32174111620E+02 -0.63440595700E+02  0.22489022283E+03  0.23587177654E+03  0.00000000000E+00 0.  1.
         21    1    1    2  506  505 -0.39610533946E+02 -0.17565369793E+02  0.61287166973E+02  0.75057667504E+02  0.00000000000E+00 0.  1.
<scales pt_clust_3="53.22628" pt_clust_4="132.80584" pt_clust_5="43.20661" pt_clust_6="43.20661"></scales>
<clustering>
<clus scale="   43.207">  5  6 -1 -1</clus>
<clus scale="   53.226">  2  3  1 -1</clus>
<clus scale="  132.806">  1  4  2 -1</clus>
<clus scale="  132.806">  1  3  2 -1</clus>
</clustering>
</event>
<event>
 6    0  0.2908518E+002  0.8000386E+02  0.7546771E-02  0.1329040E+00
         21   -1    0    0  506  501  0.00000000000E+00  0.00000000000E+00  0.38921668271E+03  0.38921668271E+03  0.00000000000E+00 0.  1.
         21   -1    0    0  503  502 -0.00000000000E+00 -0.00000000000E+00 -0.34400998045E+04  0.34400998045E+04  0.00000000000E+00 0.  1.
         21    1    1    2  503  501 -0.36895266988E+02 -0.92495300086E+02 -0.24531946696E+04  0.24552150065E+04  0.00000000000E+00 0.  1.
         21    1    1    2  504  505 -0.37010378489E+02  0.11085392725E+03 -0.14617898978E+03  0.18715410323E+03  0.00000000000E+00 0. -1.
         21    1    1    2  505  502  0.26896495376E+02  0.15645615145E+02 -0.81664174955E+03  0.81723433228E+03  0.00000000000E+00 0.  1.
         21    1    1    2  506  504  0.47009150101E+02 -0.34004242310E+02  0.36513228713E+03  0.36971304521E+03  0.00000000000E+00 0.  1.
<scales pt_clust_3="80.00386" pt_clust_4="14000.00000" pt_clust_5="31.11602" pt_clust_6="58.02955"></scales>
<clustering>
<clus scale="   31.116">  2  5  1 -1</clus>
<clus scale="   58.030">  1  6  2 -1</clus>
<clus scale="   80.004">  2  3  1 -1</clus>
<clus scale="   58.030">  1  3  2 -1</clus>
</clustering>
</event>
<event>
 6    0  0.2908518E+002  0.1953667E+03  0.7546771E-02  0.1153708E+00
         21   -1    0    0  503  501  0.00000000000E+00  0.00000000000E+00  0.81925382933E+03  0.81925382933E+03  0.00000000000E+00 0.  1.
         21   -1    0    0  505  502 -0.00000000000E+00 -0.00000000000E+00 -0.28021269846E+03  0.28021269846E+03  0.00000000000E+00 0.  1.
         21    1    1    2  503  506  0.15049805154E+02 -0.59449173965E+02  0.46804925002E+03  0.47204957512E+03  0.00000000000E+00 0.  1.
         21    1    1    2  504  502 -0.10755502989E+03  0.63674265446E+02 -0.13578940856E+03  0.18455692892E+03  0.00000000000E+00 0.  1.
         21    1    1    2  505  501  0.13723525841E+03 -0.65283443828E+02  0.29181731871E+03  0.32901792001E+03  0.00000000000E+00 0.  1.
         21    1    1    2  506  504 -0.44730033672E+02  0.61058352347E+02 -0.85036029311E+02  0.11384210374E+03  0.00000000000E+00 0. -1.
<scales pt_clust_3="61.32455" pt_clust_4="30.43015" pt_clust_5="191.41313" pt_clust_6="30.43015"></scales>
<clustering>
<clus scale="   30.430">  4  6 -1 -1</clus>
<clus scale="   61.325">  1  3  2 -1</clus>
<clus scale="  191.413">  1  5  2 -1</clus>
<clus scale="   61.325">  1  3  2 -1</clus>
</clustering>
</event>
<event>
 6    0  0.2908518E+002  0.6989725E+02  0.7546771E-02  0.1360443E+00
         21   -1    0    0  506  501  0.00000000000E+00  0.00000000000E+00  0.43088789919E+03  0.43088789919E+03  0.00000000000E+00 0. -1.
         21   -1    0    0  505  502 -0.00000000000E+00 -0.00000000000E+00 -0.24734621866E+03  0.24734621866E+03  0.00000000000E+00 0. -1.
         21    1    1    2  503  501 -0.65923117691E+02 -0.17862887972E+02  0.35660520489E+03  0.36308705894E+03  0.00000000000E+00 0. -1.
         21    1    1    2  504  503 -0.26043300170E+02 -0.43887084884E+02 -0.10310633191E+02  0.52063796060E+02  0.00000000000E+00 0. -1.
         21    1    1    2  505  504 -0.88361597273E+01 -0.40262155516E+02 -0.96839259328E+02  0.10524714263E+03  0.00000000000E+00 0. -1.
         21    1    1    2  506  502  0.10080257759E+03  0.10201212837E+03 -0.65913631837E+02  0.15783612022E+03  0.00000000000E+00 0. -1.
<scales pt_clust_3="69.89725" pt_clust_4="59.43889" pt_clust_5="41.22037" pt_clust_6="14000.00000"></scales>
<clustering>
<clus scale="   41.220">  2  5  1 -1</clus>
<clus scale="   59.439">  2  4  1 -1</clus>
<clus scale="   69.897">  1  3  2 -1</clus>
<clus scale="   69.897">  1  3  2 -1</clus>
</clustering>
</event>
<event>
 6    0  0.2908518E+002  0.8671905E+02  0.7546771E-02  0.1310997E+00
         21   -1    0    0  504  501  0.00000000000E+00  0.00000000000E+00  0.14746163946E+04  0.14746163946E+04  0.00000000000E+00 0. -1.
         21   -1    0    0  505  502 -0.00000000000E+00 -0.00000000000E+00 -0.13772075583E+03  0.13772075583E+03  0.00000000000E+00 0. -1.
         21    1    1    2  503  506  0.45283514828E+01 -0.10696205847E+03  0.32278899451E+02  0.11181822423E+03  0.00000000000E+00 0. -1.
         21    1    1    2  504  503  0.44054244539E+02  0.40669787104E+02  0.13550884536E+04  0.13564142159E+04  0.00000000000E+00 0. -1.
         21    1    1    2  505  501 -0.30306750327E+02 -0.10951388962E+02  0.20027370891E+02  0.37941107264E+02  0.00000000000E+00 0. -1.
         21    1    1    2  506  502 -0.18275845695E+02  0.77243660329E+02 -0.70499085169E+02  0.10616360302E+03  0.00000000000E+00 0. -1.
<scales pt_clust_3="86.71905" pt_clust_4="59.80387" pt_clust_5="32.22471" pt_clust_6="14000.00000"></scales>
<clustering>
<clus scale="   32.225">  2  5  1 -1</clus>
<clus scale="   59.804">  1  4  2 -1</clus>
<clus scale="   86.719">  1  3  2 -1</clus>
<clus scale="   59.804">  1  3  2 -1</clus>
</clustering>
</event>
<event>
 6    0  0.2908518E+002  0.1218473E+03  0.7546771E-02  0.1240080E+00
         21   -1    0    0  506  501  0.00000000000E+00  0.00000000000E+00  0.43826323515E+02  0.43826323515E+02  0.00000000000E+00 0. -1.
         21   -1    0    0  504  502 -0.00000000000E+00 -0.00000000000E+00 -0.12146929737E+04  0.12146929737E+04  0.00000000000E+00 0. -1.
         21    1    1    2  503  505 -0.10759531518E+02  0.57157220749E+02 -0.46029865201E+03  0.46395858053E+03  0.00000000000E+00 0.  1.
         21    1    1    2  504  503  0.32160068044E+02  0.28089561338E+02 -0.33145956810E+03  0.33419865158E+03  0.00000000000E+00 0. -1.
         21    1    1    2  505  501 -0.93144977522E+02  0.51492656800E+02 -0.16599695014E+03  0.19718637884E+03  0.00000000000E+00 0. -1.
         21    1    1    2  506  502  0.71744440997E+02 -0.13673943889E+03 -0.21311147988E+03  0.26317568622E+03  0.00000000000E+00 0. -1.
<scales pt_clust_3="100.86569" pt_clust_4="42.40163" pt_clust_5="121.84730" pt_clust_6="14000.00000"></scales>
<clustering>
<clus scale="   42.402">  3  4 -1 -1</clus>
<clus scale="  100.866">  2  3  1 -1</clus>
<clus scale="  121.847">  1  5  2 -1</clus>
<clus scale="  121.847">  1  3  2 -1</clus>
</clustering>
</event>
<event>
 6    0  0.2908518E+002  0.1486397E+03  0.7546771E-02  0.1202154E+00
         21   -1    0    0  505  501  0.00000000000E+00  0.00000000000E+00  0.83060420773E+03  0.83060420773E+03  0.00000000000E+00 0.  1.
         21   -1    0    0  504  502 -0.00000000000E+00 -0.00000000000E+00 -0.12249631377E+03  0.12249631377E+03  0.00000000000E+00 0. -1.
         21    1    1    2  503  501  0.27163127300E+02  0.34520946378E+02  0.14849682699E+02  0.46368570172E+02  0.00000000000E+00 0. -1.
         21    1    1    2  504  503  0.15953487404E+03  0.27148866622E+02  0.21478813573E+02  0.16324759240E+03  0.00000000000E+00 0. -1.
         21    1    1    2  505  506 -0.66427404764E+02 -0.11528435836E+03  0.54386705241E+03  0.55990575464E+03  0.00000000000E+00 0.  1.
         21    1    1    2  506  502 -0.12027059657E+03  0.53614545362E+02  0.12791234528E+03  0.18357860428E+03  0.00000000000E+00 0. -1.
<scales pt_clust_3="32.78505" pt_clust_4="32.78505" pt_clust_5="134.66220" pt_clust_6="131.67967"></scales>
<clustering>
<clus scale="   32.785">  3  4 -1 -1</clus>
<clus scale="  131.680">  2  6  1 -1</clus>
<clus scale="  134.662">  1  5  2 -1</clus>
<clus scale="  134.662">  1  3  2 -1</clus>
</clustering>
</event>
<event>
 6    0  0.2908518E+002  0.1303261E+03  0.7546771E-02  0.1226973E+00
         21   -1    0    0  505  501  0.00000000000E+00  0.00000000000E+00  0.34562287983E+03  0.34562287983E+03  0.00000000000E+00 0.  1.
         21   -1    0    0  503  502 -0.00000000000E+00 -0.00000000000E+00 -0.16566635521E+03  0.16566635521E+03  0.00000000000E+00 0.  1.
         21    1    1    2  503  501 -0.95416313041E+02 -0.97069003201E+02  0.23819534377E+03  0.27434227886E+03  0.00000000000E+00 0.  1.
         21    1    1    2  504  502  0.10479460211E+03 -0.73747299224E+01 -0.61081850318E+02  0.12152072955E+03  0.00000000000E+00 0.  1.
         21    1    1    2  505  506  0.98418948918E+01  0.55258962229E+02  0.20485771537E+02  0.59750168512E+02  0.00000000000E+00 0.  1.
         21    1    1    2  506  504 -0.19220183957E+02  0.49184770894E+02 -0.17642740376E+02  0.55676058115E+02  0.00000000000E+00 0.  1.
<scales pt_clust_3="121.10406" pt_clust_4="105.05377" pt_clust_5="46.70612" pt_clust_6="46.70612"></scales>
<clustering>
<clus scale="   46.706">  5  6 -1 -1</clus>
<clus scale="  105.054">  2  4  1 -1</clus>
<clus scale="  121.104">  1  3  2 -1</clus>
<clus scale="  121.104">  1  3  2 -1</clus>
</clustering>
</event>
<event>
 6    0  0.2908518E+002  0.1164065E+03  0.7546771E-02  0.1249146E+00
         21   -1    0    0  505  501  0.00000000000E+00  0.00000000000E+00  0.22641745185E+04  0.22641745185E+04  0.00000000000E+00 0.  1.
         21   -1    0    0  506  502 -0.00000000000E+00 -0.00000000000E+00 -0.46900569590E+02  0.46900569590E+02  0.00000000000E+00 0.  1.
         21    1    1    2  503  502  0.84591979615E+01 -0.10698081678E+03  0.14061444254E+03  0.17688661521E+03  0.00000000000E+00 0.  1.
         21    1    1    2  504  501 -0.35230769956E+02 -0.92387088405E+01  0.70020496238E+02  0.78926743162E+02  0.00000000000E+00 0.  1.
         21    1    1    2  505  503 -0.34944702395E+02 -0.67197137309E+01  0.18347974658E+04  0.18351425087E+04  0.00000000000E+00 0.  1.
         21    1    1    2  506  504  0.61716274389E+02  0.12293923935E+03  0.17184154433E+03  0.22011922100E+03  0.00000000000E+00 0.  1.
<scales pt_clust_3="14000.00000" pt_clust_4="42.58485" pt_clust_5="35.58492" pt_clust_6="116.40655"></scales>
<clustering>
<clus scale="   35.585">  1  5  2 -1</clus>
<clus scale="   42.585">  1  4  2 -1</clus>
<clus scale="  116.407">  1  6  2 -1</clus>
<clus scale="   35.585">  1  3  2 -1</clus>
</clustering>
</event>
<event>
 6    0  0.2908518E+002  0.1408440E+03  0.7546771E-02  0.1212198E+00
         21   -1    0    0  505  501  0.00000000000E+00  0.00000000000E+00  0.70435227490E+03  0.70435227490E+03  0.00000000000E+00 0.  1.
         21   -1    0    0  506  502 -0.00000000000E+00 -0.00000000000E+00 -0.27629151996E+03  0.27629151996E+03  0.00000000000E+00 0. -1.
         21    1    1    2  503  502  0.45466419533E+02 -0.16315075123E+03 -0.18389480951E+03  0.25000532774E+03  0.00000000000E+00 0. -1.
         21    1    1    2  504  501  0.44697708388E+02  0.15629519537E+03  0.60263968033E+03  0.62417998809E+03  0.00000000000E+00 0.  1.
         21    1    1    2  505  503 -0.30631897805E+02 -0.19820865626E+02  0.17935881858E+02  0.40655574469E+02  0.00000000000E+00 0. -1.
         21    1    1    2  506  504 -0.59532230116E+02  0.26676421494E+02 -0.86199977300E+01  0.65802904550E+02  0.00000000000E+00 0.  1.
<scales pt_clust_3="140.84401" pt_clust_4="14000.00000" pt_clust_5="36.48534" pt_clust_6="66.08925"></scales>
<clustering>
<clus scale="   36.485">  1  5  2 -1</clus>
<clus scale="   66.089">  2  6  1 -1</clus>
<clus scale="  140.844">  2  3  1 -1</clus>
<clus scale="   36.485">  1  3  2 -1</clus>
</clustering>
</event>
<event>
 6    0  0.2908518E+002  0.1715890E+03  0.7546771E-02  0.1176201E+00
         21   -1    0    0  504  501  0.00000000000E+00  0.00000000000E+00  0.86585838906E+03  0.86585838906E+03  0.00000000000E+00 0.  1.
         21   -1    0    0  506  502 -0.00000000000E+00 -0.00000000000E+00 -0.12177144961E+03  0.12177144961E+03  0.00000000000E+00 0.  1.
         21    1    1    2  503  501 -0.47966542823E+02  0.20667095411E+02  0.60051806359E+03  0.60278508837E+03  0.00000000000E+00 0.  1.
         21    1    1    2  504  502 -0.11885617547E+03  0.83131183039E+02  0.22294224723E+02  0.14674677679E+03  0.00000000000E+00 0.  1.
         21    1    1    2  505  503  0.74203351390E+02 -0.13956312373E+02  0.38025883209E+02  0.84539244179E+02  0.00000000000E+00 0.  1.
         21    1    1    2  506  505  0.92619366906E+02 -0.89841966077E+02  0.83248767923E+02  0.15355872934E+03  0.00000000000E+00 0.  1.
<scales pt_clust_3="52.22948" pt_clust_4="161.44225" pt_clust_5="44.46724" pt_clust_6="44.46724"></scales>
<clustering>
<clus scale="   44.467">  5  6 -1 -1</clus>
<clus scale="   52.229">  1  3  2 -1</clus>
<clus scale="  161.442">  2  4  1 -1</clus>
<clus scale="   52.229">  1  3  2 -1</clus>
</clustering>
</event>
<event>
 6    0  0.3249742E+002  0.2139821E+03  0.7546771E-02  0.1138451E+00
         21   -1    0    0  505  501  0.00000000000E+00  0.00000000000E+00  0.10605581781E+04  0.10605581781E+04  0.00000000000E+00 0. -1.
         21   -1    0    0  506  502 -0.00000000000E+00 -0.00000000000E+00 -0.33172218204E+03  0.33172218204E+03  0.00000000000E+00 0. -1.
         21    1    1    2  503  504  0.11149606473E+03 -0.80971318287E+02 -0.21849266705E+03  0.25831525776E+03  0.00000000000E+00 0. -1.
         21    1    1    2  504  502  0.39144745566E+02 -0.63631396518E+02 -0.57354807524E+02  0.94185135103E+02  0.00000000000E+00 0. -1.
         21    1    1    2  505  503 -0.11832079258E+03  0.93502888405E+02  0.33508103177E+03  0.36745325954E+03  0.00000000000E+00 0.  1.
         21    1    1    2  506  501 -0.32320017722E+02  0.51099826400E+02  0.66960243888E+03  0.67232670776E+03  0.00000000000E+00 0. -1.
<scales pt_clust_3="49.73330" pt_clust_4="49.73330" pt_clust_5="203.04243" pt_clust_6="60.46301"></scales>
<clustering>
<clus scale="   49.733">  3  4 -1 -1</clus>
<clus scale="   60.463">  1  6  2 -1</clus>
<clus scale="  203.042">  1  5  2 -1</clus>
<clus scale="   60.463">  1  3  2 -1</clus>
</clustering>
</event>
<event>
 6    0  0.2908518E+002  0.7308313E+02  0.7546771E-02  0.1349912E+00
         21   -1    0    0  504  501  0.00000000000E+00  0.00000000000E+00  0.39274024018E+03  0.39274024018E+03  0.00000000000E+00 0.  1.
         21   -1    0    0  503  502 -0.00000000000E+00 -0.00000000000E+00 -0.85851996152E+02  0.85851996152E+02  0.00000000000E+00 0.  1.
         21    1    1    2  503  501  0.22856435290E+02 -0.51150475973E+02  0.31206607413E+02  0.64129869583E+02  0.00000000000E+00 0.  1.
         21    1    1    2  504  506 -0.13022967887E+02  0.52480369497E+02  0.22720003895E+03  0.23354580830E+03  0.00000000000E+00 0.  1.
         21    1    1    2  505  502  0.45254311104E+02  0.55235187147E+02 -0.22372282541E+02  0.74829122664E+02  0.00000000000E+00 0.  1.
         21    1    1    2  506  505 -0.55087778507E+02 -0.56565080670E+02  0.70853880211E+02  0.10608743579E+03  0.00000000000E+00 0.  1.
<scales pt_clust_3="40.49484" pt_clust_4="54.07205" pt_clust_5="73.08313" pt_clust_6="14000.00000"></scales>
<clustering>
<clus scale="   54.072">  1  4  2 -1</clus>
<clus scale="   40.495">  1  3  2 -1</clus>
<clus scale="   73.083">  2  5  1 -1</clus>
<clus scale="   54.072">  1  3  2 -1</clus>
</clustering>
</event>
<event>
 6    0  0.2908518E+002  0.1136798E+03  0.7546771E-02  0.1253903E+00
         21   -1    0    0  506  501  0.00000000000E+00  0.00000000000E+00  0.65342143781E+03  0.65342143781E+03  0.00000000000E+00 0. -1.
         21   -1    0    0  504  502 -0.00000000000E+00 -0.00000000000E+00 -0.52262765716E+02  0.52262765716E+02  0.00000000000E+00 0. -1.
         21    1    1    2  503  501 -0.28780470808E+02 -0.21373539952E+02  0.91325049139E+02  0.98109165271E+02  0.00000000000E+00 0. -1.
         21    1    1    2  504  503  0.30266722421E+01 -0.89595224532E+02  0.14792869080E+03  0.17297214390E+03  0.00000000000E+00 0. -1.
         21    1    1    2  505  502 -0.41275788820E+02  0.13226502285E+03  0.12203756408E+03  0.18463719576E+03  0.00000000000E+00 0. -1.
         21    1    1    2  506  505  0.67029587386E+02 -0.21296258367E+02  0.23986736808E+03  0.24996569859E+03  0.00000000000E+00 0. -1.
<scales pt_clust_3="35.84890" pt_clust_4="113.67979" pt_clust_5="14000.00000" pt_clust_6="62.45945"></scales>
<clustering>
<clus scale="   35.849">  1  3  2 -1</clus>
<clus scale="   62.459">  1  6  2 -1</clus>
<clus scale="  113.680">  1  4  2 -1</clus>
<clus scale="   35.849">  1  3  2 -1</clus>
</clustering>
</event>
<event>
 6    0  0.2908518E+002  0.1712885E+03  0.7546771E-02  0.1176511E+00
         21   -1    0    0  505  501  0.00000000000E+00  0.00000000000E+00  0.21681051715E+04  0.21681051715E+04  0.00000000000E+00 0. -1.
         21   -1    0    0  503  502 -0.00000000000E+00 -0.00000000000E+00 -0.16769301183E+03  0.16769301183E+03  0.00000000000E+00 0. -1.
         21    1    1    2  503  506  0.72754974887E+02 -0.64019790270E+01 -0.52600026018E+02  0.90005746724E+02  0.00000000000E+00 0. -1.
         21    1    1    2  504  501 -0.15505522602E+03 -0.62427246162E+02  0.21028916311E+04  0.21095242346E+04  0.00000000000E+00 0. -1.
         21    1    1    2  505  502  0.91149625038E+01  0.35071105705E+02  0.79169169876E+01  0.37091003915E+02  0.00000000000E+00 0. -1.
         21    1    1    2  506  504  0.73185288626E+02  0.33758119484E+02 -0.57796362449E+02  0.99177198058E+02  0.00000000000E+00 0. -1.
<scales pt_clust_3="35.94746" pt_clust_4="166.68482" pt_clust_5="36.23624" pt_clust_6="35.94746"></scales>
<clustering>
<clus scale="   36.236">  2  5  1 -1</clus>
<clus scale="   35.947">  3  6 -1 -1</clus>
<clus scale="  166.685">  1  4  2 -1</clus>
<clus scale="  166.685">  1  3  2 -1</clus>
</clustering>
</event>
<event>
 6    0  0.2908518E+002  0.1055812E+03  0.7546771E-02  0.1268979E+00
         21   -1    0    0  506  501  0.00000000000E+00  0.00000000000E+00  0.27565872806E+03  0.27565872806E+03  0.00000000000E+00 0.  1.
         21   -1    0    0  503  502 -0.00000000000E+00 -0.00000000000E+00 -0.14441154934E+03  0.14441154934E+03  0.00000000000E+00 0.  1.
         21    1    1    2  503  504 -0.11684101451E+02  0.28667654871E+02 -0.17680932120E+02  0.35650638468E+02  0.00000000000E+00 0.  1.
         21    1    1    2  504  501 -0.10249972966E+03 -0.34343402484E+02  0.21228148582E+03  0.23822068151E+03  0.00000000000E+00 0.  1.
         21    1    1    2  505  502  0.29973784394E+02 -0.24082589855E+02 -0.33383202830E+01  0.38594601531E+02  0.00000000000E+00 0. -1.
         21    1    1    2  506  505  0.84210046715E+02  0.29758337467E+02 -0.60015054700E+02  0.10760435589E+03  0.00000000000E+00 0.  1.
<scales pt_clust_3="30.95727" pt_clust_4="105.58117" pt_clust_5="33.73711" pt_clust_6="14000.00000"></scales>
<clustering>
<clus scale="   30.957">  2  3  1 -1</clus>
<clus scale="   33.737">  2  5  1 -1</clus>
<clus scale="  105.581">  1  4  2 -1</clus>
<clus scale="  105.581">  1  3  2 -1</clus>
</clustering>
</event>
<event>
 6    0  0.2908518E+002  0.1455270E+03  0.7546771E-02  0.1206080E+00
         21   -1    0    0  504  501  0.00000000000E+00  0.00000000000E+00  0.13739653229E+04  0.13739653229E+04  0.00000000000E+00 0.  1.
         21   -1    0    0  505  502 -0.00000000000E+00 -0.00000000000E+00 -0.16616445307E+04  0.16616445307E+04  0.00000000000E+00 0. -1.
         21    1    1    2  503  502  0.28005918152E+02 -0.13888004135E+03 -0.13387530218E+04  0.13462286769E+04  0.00000000000E+00 0. -1.
         21    1    1    2  504  506 -0.24428305139E+02  0.76141970108E+02 -0.13743335991E+03  0.15900399404E+03  0.00000000000E+00 0.  1.
         21    1    1    2  505  501  0.90742805560E+01  0.30549271506E+02  0.13575037737E+04  0.13578777913E+04  0.00000000000E+00 0.  1.
         21    1    1    2  506  503 -0.12651893569E+02  0.32188799734E+02 -0.16899659980E+03  0.17249939125E+03  0.00000000000E+00 0.  1.
<scales pt_clust_3="135.25325" pt_clust_4="33.13456" pt_clust_5="31.86849" pt_clust_6="33.13456"></scales>
<clustering>
<clus scale="   31.868">  1  5  2 -1</clus>
<clus scale="   33.135">  4  6 -1 -1</clus>
<clus scale="  135.253">  2  3  1 -1</clus>
<clus scale="   31.868">  1  3  2 -1</clus>
</clustering>
</event>
<event>
 6    0  0.2908518E+002  0.9630197E+02  0.7546771E-02  0.1288270E+00
         21   -1    0    0  505  501  0.00000000000E+00  0.00000000000E+00  0.11429962900E+02  0.11429962900E+02  0.00000000000E+00 0. -1.
         21   -1    0    0  504  502 -0.00000000000E+00 -0.00000000000E+00 -0.18494072849E+04  0.18494072849E+04  0.00000000000E+00 0. -1.
         21    1    1    2  503  501 -0.23141314177E+02 -0.24806941948E+02 -0.14226771088E+03  0.14625664549E+03  0.00000000000E+00 0. -1.
         21    1    1    2  504  506  0.39392831048E+02 -0.20450150767E+01 -0.47533995613E+03  0.47697384742E+03  0.00000000000E+00 0. -1.
         21    1    1    2  505  502 -0.82969018177E+02  0.80481204107E+02 -0.82641803163E+03  0.83446260862E+03  0.00000000000E+00 0. -1.
         21    1    1    2  506  503  0.66717501306E+02 -0.53629247082E+02 -0.39395162332E+03  0.40314414623E+03  0.00000000000E+00 0. -1.
<scales pt_clust_3="33.92499" pt_clust_4="37.62357" pt_clust_5="96.30197" pt_clust_6="14000.00000"></scales>
<clustering>
<clus scale="   33.925">  1  3  2 -1</clus>
<clus scale="   37.624">  2  4  1 -1</clus>
<clus scale="   96.302">  2  5  1 -1</clus>
<clus scale="   33.925">  1  3  2 -1</clus>
</clustering>
</event>
<event>
 6    0  0.2908518E+002  0.8717235E+02  0.7546771E-02  0.1309847E+00
         21   -1    0    0  505  501  0.00000000000E+00  0.00000000000E+00  0.64573775941E+03  0.64573775941E+03  0.00000000000E+00 0. -1.
         21   -1    0    0  503  502 -0.00000000000E+00 -0.00000000000E+00 -0.52284890058E+02  0.52284890058E+02  0.00000000000E+00 0. -1.
         21    1    1    2  503  504  0.35897721198E+02  0.33641550840E+02  0.55281189015E+01  0.49507175527E+02  0.00000000000E+00 0. -1.
         21    1    1    2  504  506 -0.35384352213E+02 -0.54622295763E+02  0.63520368456E+02  0.90942205739E+02  0.00000000000E+00 0. -1.
         21    1    1    2  505  502 -0.80090649514E+02 -0.28255882820E+02  0.34417073732E+03  0.35449457468E+03  0.00000000000E+00 0. -1.
         21    1    1    2  506  501  0.79577280530E+02  0.49236627743E+02  0.18023364468E+03  0.20307869352E+03  0.00000000000E+00 0. -1.
<scales pt_clust_3="49.19756" pt_clust_4="43.79935" pt_clust_5="14000.00000" pt_clust_6="87.17235"></scales>
<clustering>
<clus scale="   49.198">  2  3  1 -1</clus>
<clus scale="   43.799">  2  4  1 -1</clus>
<clus scale="   87.172">  2  6  1 -1</clus>
<clus scale="   87.172">  1  3  2 -1</clus>
</clustering>
</event>
<event>
 6    0  0.2908518E+002  0.1374357E+03  0.7546771E-02  0.1216822E+00
         21   -1    0    0  504  501  0.00000000000E+00  0.00000000000E+00  0.15027820522E+04  0.15027820522E+04  0.00000000000E+00 0. -1.
         21   -1    0    0  506  502 -0.00000000000E+00 -0.00000000000E+00 -0.25992571453E+03  0.25992571453E+03  0.00000000000E+00 0.  1.
         21    1    1    2  503  501 -0.67794475276E+02  0.12047636012E+03  0.14472695815E+04  0.14538569001E+04  0.00000000000E+00 0. -1.
         21    1    1    2  504  505  0.54248986764E+02 -0.31297311669E+02 -0.66333018068E+02  0.91227975801E+02  0.00000000000E+00 0.  1.
         21    1    1    2  505  502  0.24797723017E+02  0.34530666212E+02 -0.23232265369E+02  0.48446177662E+02  0.00000000000E+00 0.  1.
         21    1    1    2  506  503 -0.11252234505E+02 -0.12370971467E+03 -0.11484796041E+03  0.16917671322E+03  0.00000000000E+00 0.  1.
<scales pt_clust_3="137.43572" pt_clust_4="65.81679" pt_clust_5="42.51228" pt_clust_6="14000.00000"></scales>
<clustering>
<clus scale="   42.512">  2  5  1 -1</clus>
<clus scale="   65.817">  2  4  1 -1</clus>
<clus scale="  137.436">  1  3  2 -1</clus>
<clus scale="  137.436">  1  3  2 -1</clus>
</clustering>
</event>
<event>
 6    0  0.2908518E+002  0.1185482E+03  0.7546771E-02  0.1245511E+00
         21   -1    0    0  506  501  0.00000000000E+00  0.00000000000E+00  0.11545977316E+04  0.11545977316E+04  0.00000000000E+00 0. -1.
         21   -1    0    0  503  502 -0.00000000000E+00 -0.00000000000E+00 -0.60923500085E+02  0.60923500085E+02  0.00000000000E+00 0.  1.
         21    1    1    2  503  501 -0.10309768771E+02  0.13643258205E+03  0.82981928307E+03  0.84102329535E+03  0.00000000000E+00 0. -1.
         21    1    1    2  504  502 -0.24638456950E+02 -0.34303997580E+02 -0.25183544527E+02  0.49173455500E+02  0.00000000000E+00 0.  1.
         21    1    1    2  505  504  0.10641468612E-01 -0.91584033280E+02  0.11255746310E+03  0.14510967495E+03  0.00000000000E+00 0.  1.
         21    1    1    2  506  505  0.34937584252E+02 -0.10544551188E+02  0.17648102993E+03  0.18021480593E+03  0.00000000000E+00 0. -1.
<scales pt_clust_3="14000.00000" pt_clust_4="42.09221" pt_clust_5="118.54825" pt_clust_6="36.49414"></scales>
<clustering>
<clus scale="   36.494">  1  6  2 -1</clus>
<clus scale="   42.092">  2  4  1 -1</clus>
<clus scale="  118.548">  2  5  1 -1</clus>
<clus scale="   36.494">  1  3  2 -1</clus>
</clustering>
</event>
<event>
 6    0  0.2908518E+002  0.1875277E+03  0.7546771E-02  0.1160710E+00
         21   -1    0    0  503  501  0.00000000000E+00  0.00000000000E+00  0.98108491226E+03  0.98108491226E+03  0.00000000000E+00 0. -1.
         21   -1    0    0  505  502 -0.00000000000E+00 -0.00000000000E+00 -0.79169047088E+02  0.79169047088E+02  0.00000000000E+00 0. -1.
         21    1    1    2  503  504 -0.12485589817E+03  0.12680383674E+03  0.48875030430E+03  0.52013947002E+03  0.00000000000E+00 0. -1.
         21    1    1    2  504  506  0.13170772895E+03 -0.12144573264E+03  0.92716109268E+02  0.20172324794E+03  0.00000000000E+00 0. -1.
         21    1    1    2  505  501 -0.39032851162E+02 -0.14096575507E+02  0.29087208926E+03  0.29381771428E+03  0.00000000000E+00 0. -1.
         21    1    1    2  506  502  0.32181020391E+02  0.87384714091E+01  0.29577362336E+02  0.44573527107E+02  0.00000000000E+00 0. -1.
<scales pt_clust_3="14000.00000" pt_clust_4="187.52770" pt_clust_5="40.81738" pt_clust_6="33.34635"></scales>
<clustering>
<clus scale="   33.346">  2  6  1 -1</clus>
<clus scale="   40.817">  1  5  2 -1</clus>
<clus scale="  187.528">  2  4  1 -1</clus>
<clus scale="   40.817">  1  3  2 -1</clus>
</clustering>
</event>
<event>
 6    0  0.2908518E+002  0.8502286E+02  0.7546771E-02  0.1315373E+00
         21   -1    0    0  503  501  0.00000000000E+00  0.00000000000E+00  0.13817450937E+02  0.13817450937E+02  0.00000000000E+00 0.  1.
         21   -1    0    0  505  502 -0.00000000000E+00 -0.00000000000E+00 -0.32018216553E+04  0.32018216553E+04  0.00000000000E+00 0.  1.
         21    1    1    2  503  506  0.57749696160E+02 -0.18712972256E+01 -0.11715601385E+03  0.13062947883E+03  0.00000000000E+00 0.  1.
         21    1    1    2  504  501 -0.10673685388E+03 -0.30348076709E+02 -0.17637821290E+04  0.17672694079E+04  0.00000000000E+00 0.  1.
         21    1    1    2  505  504  0.49786871613E+02 -0.55160501491E+02 -0.77409131260E+03  0.77764951858E+03  0.00000000000E+00 0.  1.
         21    1    1    2  506  502 -0.79971389228E+00  0.87379875425E+02 -0.53297474894E+03  0.54009070088E+03  0.00000000000E+00 0.  1.
<scales pt_clust_3="57.78001" pt_clust_4="14000.00000" pt_clust_5="85.02286" pt_clust_6="84.15096"></scales>
<clustering>
<clus scale="   57.780">  1  3  2 -1</clus>
<clus scale="   85.023">  2  5  1 -1</clus>
<clus scale="   84.151">  1  6  2 -1</clus>
<clus scale="   57.780">  1  3  2 -1</clus>
</clustering>
</event>
<event>
 6    0  0.2908518E+002  0.2472953E+03  0.7546771E-02  0.1115026E+00
         21   -1    0    0  505  501  0.00000000000E+00  0.00000000000E+00  0.92173553422E+02  0.92173553422E+02  0.00000000000E+00 0. -1.
         21   -1    0    0  503  502 -0.00000000000E+00 -0.00000000000E+00 -0.12865949523E+04  0.12865949523E+04  0.00000000000E+00 0. -1.
         21    1    1    2  503  506  0.12945697996E+03  0.50991815773E+01 -0.35360696702E+03  0.37659394371E+03  0.00000000000E+00 0. -1.
         21    1    1    2  504  502  0.33695013134E+02 -0.15018183657E+03 -0.54892191317E+03  0.57009227736E+03  0.00000000000E+00 0. -1.
         21    1    1    2  505  504  0.25666437069E+02 -0.39206109640E+02 -0.83951902077E+02  0.96144718457E+02  0.00000000000E+00 0.  1.
         21    1    1    2  506  501 -0.18881843016E+03  0.18428876463E+03 -0.20794061658E+03  0.33593756617E+03  0.00000000000E+00 0. -1.
<scales pt_clust_3="129.55737" pt_clust_4="34.68239" pt_clust_5="34.68239" pt_clust_6="239.17373"></scales>
<clustering>
<clus scale="   34.682">  4  5 -1 -1</clus>
<clus scale="  129.557">  2  3  1 -1</clus>
<clus scale="  239.174">  1  6  2 -1</clus>
<clus scale="  239.174">  1  3  2 -1</clus>
</clustering>
</event>
<event>
 6    0  0.2908518E+002  0.1837170E+03  0.7546771E-02  0.1164253E+00
         21   -1    0    0  503  501  0.00000000000E+00  0.00000000000E+00  0.50320005685E+03  0.50320005685E+03  0.00000000000E+00 0.  1.
         21   -1    0    0  501  502 -0.00000000000E+00 -0.00000000000E+00 -0.10062287582E+03  0.10062287582E+03  0.00000000000E+00 0. -1.
         21    1    1    2  503  506  0.41919230020E+01  0.34705301194E+02  0.17514730751E+03  0.17860181824E+03  0.00000000000E+00 0.  1.
         21    1    1    2  504  505 -0.23011750451E+02 -0.46672552042E+02  0.58388726009E+02  0.78211962626E+02  0.00000000000E+00 0. -1.
         21    1    1    2  505  502 -0.81728377602E+02 -0.10983408187E+03  0.38808598323E+02  0.14229954515E+03  0.00000000000E+00 0. -1.
         21    1    1    2  506  504  0.10054820505E+03  0.12180133272E+03  0.13023254919E+03  0.20470960666E+03  0.00000000000E+00 0.  1.
<scales pt_clust_3="34.95755" pt_clust_4="36.12943" pt_clust_5="36.12943" pt_clust_6="173.31691"></scales>
<clustering>
<clus scale="   34.958">  1  3  2 -1</clus>
<clus scale="   36.129">  4  5 -1 -1</clus>
<clus scale="  173.317">  1  6  2 -1</clus>
<clus scale="   34.958">  1  3  2 -1</clus>
</clustering>
</event>
<event>
 6    0  0.2908518E+002  0.1854707E+03  0.7546771E-02  0.1162611E+00
         21   -1    0    0  504  501  0.00000000000E+00  0.00000000000E+00  0.13135559298E+04  0.13135559298E+04  0.00000000000E+00 0.  1.
         21   -1    0    0  503  502 -0.00000000000E+00 -0.00000000000E+00 -0.41618534560E+03  0.41618534560E+03  0.00000000000E+00 0.  1.
         21    1    1    2  503  506  0.17622310128E+01  0.10090705190E+03 -0.31259321798E+02  0.10565265629E+03  0.00000000000E+00 0. -1.
         21    1    1    2  504  502  0.75310027362E+02 -0.16449533517E+03 -0.29899244931E+03  0.34946645084E+03  0.00000000000E+00 0.  1.
         21    1    1    2  505  501 -0.34740039429E+02  0.29087277523E+02  0.12183951735E+04  0.12192373595E+04  0.00000000000E+00 0.  1.
         21    1    1    2  506  505 -0.42332218946E+02  0.34501005748E+02  0.92271818275E+01  0.55384808775E+02  0.00000000000E+00 0. -1.
<scales pt_clust_3="58.22850" pt_clust_4="170.09703" pt_clust_5="45.30938" pt_clust_6="58.22850"></scales>
<clustering>
<clus scale="   45.309">  1  5  2 -1</clus>
<clus scale="   58.229">  3  6 -1 -1</clus>
<clus scale="  170.097">  2  4  1 -1</clus>
<clus scale="   45.309">  1  3  2 -1</clus>
</clustering>
</event>
<event>
 6    0  0.2908518E+002  0.2446907E+03  0.7546771E-02  0.1116707E+00
         21   -1    0    0  505  501  0.00000000000E+00  0.00000000000E+00  0.34334674525E+03  0.34334674525E+03  0.00000000000E+00 0. -1.
         21   -1    0    0  504  502 -0.00000000000E+00 -0.00000000000E+00 -0.61127202842E+03  0.61127202842E+03  0.00000000000E+00 0. -1.
         21    1    1    2  503  502  0.58343397093E+01  0.62709254352E+02  0.11476052486E+02  0.64017106166E+02  0.00000000000E+00 0. -1.
         21    1    1    2  504  501 -0.84499072455E+02 -0.22255087695E+03 -0.49273718282E+03  0.54722839602E+03  0.00000000000E+00 0. -1.
         21    1    1    2  505  506 -0.30598520884E+02  0.22409132535E+02  0.15314062788E+03  0.15776720384E+03  0.00000000000E+00 0. -1.
         21    1    1    2  506  503  0.10926325363E+03  0.13743249006E+03  0.60195219283E+02  0.18560606764E+03  0.00000000000E+00 0. -1.
<scales pt_clust_3="37.26244" pt_clust_4="236.64896" pt_clust_5="37.92675" pt_clust_6="37.26244"></scales>
<clustering>
<clus scale="   37.262">  3  6 -1 -1</clus>
<clus scale="   37.927">  1  5  2 -1</clus>
<clus scale="  236.649">  2  4  1 -1</clus>
<clus scale="   37.927">  1  3  2 -1</clus>
</clustering>
</event>
<event>
 6    0  0.2908518E+002  0.1710676E+03  0.7546771E-02  0.1176739E+00
         21   -1    0    0  502  501  0.00000000000E+00  0.00000000000E+00  0.37018658935E+03  0.37018658935E+03  0.00000000000E+00 0.  1.
         21   -1    0    0  504  502 -0.00000000000E+00 -0.00000000000E+00 -0.13591094765E+03  0.13591094765E+03  0.00000000000E+00 0.  1.
         21    1    1    2  503  506 -0.33831971652E+02 -0.36202938079E+02  0.20856108421E+02  0.53760880665E+02  0.00000000000E+00 0.  1.
         21    1    1    2  504  503  0.59542507983E+02  0.16221083231E+03 -0.19556544094E+02  0.17389687401E+03  0.00000000000E+00 0.  1.
         21    1    1    2  505  501  0.15540412269E+02 -0.32173322573E+02  0.12307873727E+03  0.12816006658E+03  0.00000000000E+00 0.  1.
         21    1    1    2  506  505 -0.41250948600E+02 -0.93834571655E+02  0.10989734011E+03  0.15027971573E+03  0.00000000000E+00 0.  1.
<scales pt_clust_3="31.00742" pt_clust_4="165.15211" pt_clust_5="35.72992" pt_clust_6="31.00742"></scales>
<clustering>
<clus scale="   31.007">  3  6 -1 -1</clus>
<clus scale="   35.730">  1  5  2 -1</clus>
<clus scale="  165.152">  2  4  1 -1</clus>
<clus scale="   35.730">  1  3  2 -1</clus>
</clustering>
</event>
<event>
 6    0  0.2908518E+002  0.1237196E+03  0.7546771E-02  0.1237084E+00
         21   -1    0    0  506  501  0.00000000000E+00  0.00000000000E+00  0.45574773271E+02  0.45574773271E+02  0.00000000000E+00 0.  1.
         21   -1    0    0  504  502 -0.00000000000E+00 -0.00000000000E+00 -0.52243559411E+03  0.52243559411E+03  0.00000000000E+00 0. -1.
         21    1    1    2  503  505  0.18157953653E+00  0.58250249275E+02 -0.13083535097E+03  0.14321666654E+03  0.00000000000E+00 0.  1.
         21    1    1    2  504  501 -0.41242298245E+02  0.42960042794E+01 -0.12151676368E+02  0.43209328343E+02  0.00000000000E+00 0.  1.
         21    1    1    2  505  502  0.58068444353E+02 -0.10844395886E+03 -0.29314159051E+03  0.31790569125E+03  0.00000000000E+00 0. -1.
         21    1    1    2  506  503 -0.17007725644E+02  0.45897705310E+02 -0.40732202987E+02  0.63678681240E+02  0.00000000000E+00 0.  1.
<scales pt_clust_3="46.53841" pt_clust_4="41.46544" pt_clust_5="114.30741" pt_clust_6="46.53841"></scales>
<clustering>
<clus scale="   41.465">  1  4  2 -1</clus>
<clus scale="   46.538">  3  6 -1 -1</clus>
<clus scale="  114.307">  2  5  1 -1</clus>
<clus scale="   41.465">  1  3  2 -1</clus>
</clustering>
</event>
<event>
 6    0  0.2908518E+002  0.1634230E+03  0.7546771E-02  0.1184886E+00
         21   -1    0    0  505  501  0.00000000000E+00  0.00000000000E+00  0.23933848678E+03  0.23933848678E+03  0.00000000000E+00 0. -1.
         21   -1    0    0  506  502 -0.00000000000E+00 -0.00000000000E+00 -0.43824828046E+03  0.43824828046E+03  0.00000000000E+00 0. -1.
         21    1    1    2  503  501  0.83790487418E+02  0.38046467987E+02 -0.44096822858E+02  0.10204366367E+03  0.00000000000E+00 0. -1.
         21    1    1    2  504  502 -0.16354843575E+03 -0.20430255387E+02 -0.25864523552E+03  0.30669666452E+03  0.00000000000E+00 0. -1.
         21    1    1    2  505  504  0.31438305392E+02 -0.21685153146E+02  0.17699756841E+03  0.18107112452E+03  0.00000000000E+00 0. -1.
         21    1    1    2  506  503  0.48319642943E+02  0.40689405449E+01 -0.73165303713E+02  0.87775314518E+02  0.00000000000E+00 0. -1.
<scales pt_clust_3="39.38305" pt_clust_4="153.79545" pt_clust_5="38.19179" pt_clust_6="39.38305"></scales>
<clustering>
<clus scale="   38.192">  1  5  2 -1</clus>
<clus scale="   39.383">  3  6 -1 -1</clus>
<clus scale="  153.795">  2  4  1 -1</clus>
<clus scale="   38.192">  1  3  2 -1</clus>
</clustering>
</event>
<event>
 6    0  0.2908518E+002  0.9233299E+02  0.7546771E-02  0.1297298E+00
         21   -1    0    0  505  501  0.00000000000E+00  0.00000000000E+00  0.23324605628E+03  0.23324605628E+03  0.00000000000E+00 0.  1.
         21   -1    0    0  503  502 -0.00000000000E+00 -0.00000000000E+00 -0.31055073424E+04  0.31055073424E+04  0.00000000000E+00 0.  1.
         21    1    1    2  503  501 -0.62424378210E+02 -0.19485980457E+02 -0.14195358196E+03  0.15629243699E+03  0.00000000000E+00 0.  1.
         21    1    1    2  504  506  0.58426207396E+02  0.58450312480E+02 -0.14516733328E+04  0.14540239083E+04  0.00000000000E+00 0.  1.
         21    1    1    2  505  504 -0.59747483502E+02 -0.42560945779E+02  0.21822093132E+03  0.23022070010E+03  0.00000000000E+00 0.  1.
         21    1    1    2  506  502  0.63745654317E+02  0.35966137562E+01 -0.14968553027E+04  0.14982163533E+04  0.00000000000E+00 0.  1.
<scales pt_clust_3="65.39500" pt_clust_4="49.14002" pt_clust_5="73.48278" pt_clust_6="49.14002"></scales>
<clustering>
<clus scale="   49.140">  4  6 -1 -1</clus>
<clus scale="   65.395">  2  3  1 -1</clus>
<clus scale="   73.483">  1  5  2 -1</clus>
<clus scale="   73.483">  1  3  2 -1</clus>
</clustering>
</event>
<event>
 6    0  0.2908518E+002  0.8153662E+02  0.7546771E-02  0.1324746E+00
         21   -1    0    0  506  501  0.00000000000E+00  0.00000000000E+00  0.50029400812E+03  0.50029400812E+03  0.00000000000E+00 0. -1.
         21   -1    0    0  504  502 -0.00000000000E+00 -0.00000000000E+00 -0.22002347844E+04  0.22002347844E+04  0.00000000000E+00 0. -1.
         21    1    1    2  503  502 -0.57162440434E+02 -0.15741867947E+02 -0.21896888778E+03  0.22685397246E+03  0.00000000000E+00 0. -1.
         21    1    1    2  504  505  0.62765427963E+02  0.70944748687E+01 -0.11976920468E+04  0.11993565230E+04  0.00000000000E+00 0. -1.
         21    1    1    2  505  501  0.48412391674E+02  0.43921048717E+02 -0.77531813891E+03  0.77806878534E+03  0.00000000000E+00 0. -1.
         21    1    1    2  506  503 -0.54015379204E+02 -0.35273655638E+02  0.49203829716E+03  0.49624951168E+03  0.00000000000E+00 0. -1.
<scales pt_clust_3="59.29040" pt_clust_4="48.93958" pt_clust_5="48.93958" pt_clust_6="64.57286"></scales>
<clustering>
<clus scale="   48.940">  4  5 -1 -1</clus>
<clus scale="   59.290">  2  3  1 -1</clus>
<clus scale="   64.573">  1  6  2 -1</clus>
<clus scale="   64.573">  1  3  2 -1</clus>
</clustering>
</event>
<event>
 6    0  0.2908518E+002  0.1557064E+03  0.7546771E-02  0.1193631E+00
         21   -1    0    0  505  501  0.00000000000E+00  0.00000000000E+00  0.95226260108E+03  0.95226260108E+03  0.00000000000E+00 0. -1.
         21   -1    0    0  503  502 -0.00000000000E+00 -0.00000000000E+00 -0.26786727653E+03  0.26786727653E+03  0.00000000000E+00 0. -1.
         21    1    1    2  503  504  0.13330054470E+03  0.28264725269E+02 -0.17167439221E+03  0.21918035234E+03  0.00000000000E+00 0. -1.
         21    1    1    2  504  501 -0.44293187693E+02 -0.36227753202E+02  0.68884526560E+02  0.89551184121E+02  0.00000000000E+00 0. -1.
         21    1    1    2  505  506 -0.98266911923E+02 -0.36821012078E+02  0.83712876192E+03  0.84368047088E+03  0.00000000000E+00 0. -1.
         21    1    1    2  506  502  0.92595549178E+01  0.44784040011E+02 -0.49943571729E+02  0.67717870271E+02  0.00000000000E+00 0.  1.
<scales pt_clust_3="155.70641" pt_clust_4="55.48419" pt_clust_5="14000.00000" pt_clust_6="45.73128"></scales>
<clustering>
<clus scale="   45.731">  2  6  1 -1</clus>
<clus scale="   55.484">  1  4  2 -1</clus>
<clus scale="  155.706">  2  3  1 -1</clus>
<clus scale="   55.484">  1  3  2 -1</clus>
</clustering>
</event>
<event>
 6    0  0.2908518E+002  0.8838769E+02  0.7546771E-02  0.1306804E+00
         21   -1    0    0  505  501  0.00000000000E+00  0.00000000000E+00  0.20472642750E+02  0.20472642750E+02  0.00000000000E+00 0. -1.
         21   -1    0    0  503  502 -0.00000000000E+00 -0.00000000000E+00 -0.17973167127E+04  0.17973167127E+04  0.00000000000E+00 0.  1.
         21    1    1    2  503  506  0.76965055075E+02 -0.40336403636E+01 -0.76707701499E+03  0.77093906172E+03  0.00000000000E+00 0.  1.
         21    1    1    2  504  502 -0.88031953051E+02 -0.84751089638E+02 -0.68006007233E+03  0.69095157133E+03  0.00000000000E+00 0.  1.
         21    1    1    2  505  504 -0.28695479861E+02  0.84881779870E+02 -0.18166113233E+03  0.20255644675E+03  0.00000000000E+00 0. -1.
         21    1    1    2  506  501  0.39762377837E+02  0.39029501312E+01 -0.14804585028E+03  0.15334227564E+03  0.00000000000E+00 0.  1.
<scales pt_clust_3="81.35291" pt_clust_4="14000.00000" pt_clust_5="88.38769" pt_clust_6="39.95347"></scales>
<clustering>
<clus scale="   39.953">  1  6  2 -1</clus>
<clus scale="   81.353">  2  3  1 -1</clus>
<clus scale="   88.388">  1  5  2 -1</clus>
<clus scale="   39.953">  1  3  2 -1</clus>
</clustering>
</event>
<event>
 6    0  0.2908518E+002  0.2106363E+03  0.7546771E-02  0.1141063E+00
         21   -1    0    0  505  501  0.00000000000E+00  0.00000000000E+00  0.45664304689E+03  0.45664304689E+03  0.00000000000E+00 0.  1.
         21   -1    0    0  504  502 -0.00000000000E+00 -0.00000000000E+00 -0.11492133787E+04  0.11492133787E+04  0.00000000000E+00 0. -1.
         21    1    1    2  503  502 -0.30538014297E+02  0.38864982212E+02 -0.21382205641E+03  0.21946054080E+03  0.00000000000E+00 0.  1.
         21    1    1    2  504  506  0.17467082553E+03  0.12079009267E+03 -0.83030635646E+03  0.85703488223E+03  0.00000000000E+00 0. -1.
         21    1    1    2  505  503 -0.40278515487E+02 -0.12876973785E+03  0.39133490953E+03  0.41394083588E+03  0.00000000000E+00 0.  1.
         21    1    1    2  506  501 -0.10385429575E+03 -0.30885337036E+02 -0.39776828442E+02  0.11542016665E+03  0.00000000000E+00 0.  1.
<scales pt_clust_3="49.42729" pt_clust_4="210.63630" pt_clust_5="14000.00000" pt_clust_6="109.92983"></scales>
<clustering>
<clus scale="   49.427">  2  3  1 -1</clus>
<clus scale="  109.930">  1  6  2 -1</clus>
<clus scale="  210.636">  2  4  1 -1</clus>
<clus scale="  109.930">  1  3  2 -1</clus>
</clustering>
</event>
<event>
 6    0  0.2908518E+002  0.7039324E+02  0.7546771E-02  0.1358761E+00
         21   -1    0    0  503  501  0.00000000000E+00  0.00000000000E+00  0.10074948025E+04  0.10074948025E+04  0.00000000000E+00 0.  1.
         21   -1    0    0  504  502 -0.00000000000E+00 -0.00000000000E+00 -0.14381582766E+03  0.14381582766E+03  0.00000000000E+00 0. -1.
         21    1    1    2  503  506 -0.46578674780E+01 -0.30204331544E+02  0.61321722687E+02  0.68515334391E+02  0.00000000000E+00 0. -1.
         21    1    1    2  504  505  0.45741481351E+02  0.11930385018E+03 -0.81545612920E+02  0.15157631336E+03  0.00000000000E+00 0. -1.
         21    1    1    2  505  501 -0.25586800772E+02 -0.33142480030E+02  0.87065805815E+03  0.87166424877E+03  0.00000000000E+00 0.  1.
         21    1    1    2  506  502 -0.15496813101E+02 -0.55957038607E+02  0.13244806894E+02  0.59554733612E+02  0.00000000000E+00 0. -1.
<scales pt_clust_3="30.56137" pt_clust_4="70.39324" pt_clust_5="14000.00000" pt_clust_6="59.23552"></scales>
<clustering>
<clus scale="   30.561">  1  3  2 -1</clus>
<clus scale="   59.236">  2  6  1 -1</clus>
<clus scale="   70.393">  2  4  1 -1</clus>
<clus scale="   30.561">  1  3  2 -1</clus>
</clustering>
</event>
<event>
 6    0  0.2908518E+002  0.8144061E+02  0.7546771E-02  0.1325012E+00
         21   -1    0    0  506  501  0.00000000000E+00  0.00000000000E+00  0.28672507542E+03  0.28672507542E+03  0.00000000000E+00 0. -1.
         21   -1    0    0  504  502 -0.00000000000E+00 -0.00000000000E+00 -0.13577034397E+03  0.13577034397E+03  0.00000000000E+00 0. -1.
         21    1    1    2  503  505 -0.29516442590E+02  0.47796740664E+02  0.13901748314E+03  0.14993868553E+03  0.00000000000E+00 0. -1.
         21    1    1    2  504  501 -0.59857337680E+02 -0.22886420309E+02 -0.16775099008E+02  0.66242683033E+02  0.00000000000E+00 0. -1.
         21    1    1    2  505  502  0.13468409219E+03 -0.18976138733E+02 -0.22296192568E+02  0.13782967291E+03  0.00000000000E+00 0. -1.
         21    1    1    2  506  503 -0.45310311920E+02 -0.59341816224E+01  0.51008539884E+02  0.68484377919E+02  0.00000000000E+00 0.  1.
<scales pt_clust_3="14000.00000" pt_clust_4="68.93598" pt_clust_5="81.44061" pt_clust_6="45.69725"></scales>
<clustering>
<clus scale="   45.697">  1  6  2 -1</clus>
<clus scale="   68.936">  2  4  1 -1</clus>
<clus scale="   81.441">  2  5  1 -1</clus>
<clus scale="   45.697">  1  3  2 -1</clus>
</clustering>
</event>
<event>
 6    0  0.2908518E+002  0.1406775E+03  0.7546771E-02  0.1212420E+00
         21   -1    0    0  504  501  0.00000000000E+00  0.00000000000E+00  0.33891342686E+02  0.33891342686E+02  0.00000000000E+00 0.  1.
         21   -1    0    0  506  502 -0.00000000000E+00 -0.00000000000E+00 -0.11364355396E+04  0.11364355396E+04  0.00000000000E+00 0. -1.
         21    1    1    2  503  502  0.57365279048E+01 -0.36301643736E+02 -0.17731518415E+03  0.18108393529E+03  0.00000000000E+00 0. -1.
         21    1    1    2  504  505 -0.11018947173E+03  0.81973725984E+02 -0.15029449565E+03  0.20359235460E+03  0.00000000000E+00 0.  1.
         21    1    1    2  505  503  0.66313713174E+02 -0.53278281533E+02 -0.62465590944E+03  0.63042135833E+03  0.00000000000E+00 0. -1.
         21    1    1    2  506  501  0.38139230649E+02  0.76061992858E+01 -0.15027860767E+03  0.15522923406E+03  0.00000000000E+00 0.  1.
<scales pt_clust_3="30.60098" pt_clust_4="132.75076" pt_clust_5="30.60098" pt_clust_6="38.89030"></scales>
<clustering>
<clus scale="   30.601">  3  5 -1 -1</clus>
<clus scale="   38.890">  2  6  1 -1</clus>
<clus scale="  132.751">  1  4  2 -1</clus>
<clus scale="  132.751">  1  3  2 -1</clus>
</clustering>
</event>
<event>
 6    0  0.2908518E+002  0.3423008E+03  0.7546771E-02  0.1065820E+00
         21   -1    0    0  504  501  0.00000000000E+00  0.00000000000E+00  0.93396863471E+03  0.93396863471E+03  0.00000000000E+00 0.  1.
         21   -1    0    0  506  502 -0.00000000000E+00 -0.00000000000E+00 -0.50284005496E+03  0.50284005496E+03  0.00000000000E+00 0.  1.
         21    1    1    2  503  502 -0.22208019411E+03 -0.19917869050E+03 -0.14436166043E+03  0.33140919173E+03  0.00000000000E+00 0.  1.
         21    1    1    2  504  505  0.66431273844E+02 -0.46249082896E+02  0.39965835689E+03  0.40777309137E+03  0.00000000000E+00 0.  1.
         21    1    1    2  505  503  0.32704803505E+03  0.33593105782E+03  0.62199420358E+02  0.47294699569E+03  0.00000000000E+00 0.  1.
         21    1    1    2  506  501 -0.17139911479E+03 -0.90503284424E+02  0.11363246294E+03  0.22467941088E+03  0.00000000000E+00 0.  1.
<scales pt_clust_3="14000.00000" pt_clust_4="80.94499" pt_clust_5="342.30085" pt_clust_6="183.41533"></scales>
<clustering>
<clus scale="   80.945">  1  4  2 -1</clus>
<clus scale="  183.415">  1  6  2 -1</clus>
<clus scale="  342.301">  1  5  2 -1</clus>
<clus scale="   80.945">  1  3  2 -1</clus>
</clustering>
</event>
<event>
 6    0  0.2908518E+002  0.1768191E+03  0.7546771E-02  0.1170918E+00
         21   -1    0    0  504  501  0.00000000000E+00  0.00000000000E+00  0.11893090600E+04  0.11893090600E+04  0.00000000000E+00 0.  1.
         21   -1    0    0  506  502 -0.00000000000E+00 -0.00000000000E+00 -0.46200885431E+03  0.46200885431E+03  0.00000000000E+00 0.  1.
         21    1    1    2  503  505  0.46246996564E+02  0.66165904183E+02 -0.35066837770E+02  0.88013605078E+02  0.00000000000E+00 0.  1.
         21    1    1    2  504  503  0.39107813108E+02  0.37975623530E+02  0.11243506069E+04  0.11256712914E+04  0.00000000000E+00 0.  1.
         21    1    1    2  505  502  0.16518433113E+02  0.54209278787E+02 -0.10107546296E+03  0.11587818497E+03  0.00000000000E+00 0.  1.
         21    1    1    2  506  501 -0.10187324279E+03 -0.15835080650E+03 -0.26090810054E+03  0.32175483282E+03  0.00000000000E+00 0.  1.
<scales pt_clust_3="52.80166" pt_clust_4="54.51210" pt_clust_5="52.80166" pt_clust_6="163.27139"></scales>
<clustering>
<clus scale="   54.512">  1  4  2 -1</clus>
<clus scale="   52.802">  3  5 -1 -1</clus>
<clus scale="  163.271">  2  6  1 -1</clus>
<clus scale="   54.512">  1  3  2 -1</clus>
</clustering>
</event>
<event>
 6    0  0.2908518E+002  0.6685889E+02  0.7546771E-02  0.1371112E+00
         21   -1    0    0  505  501  0.00000000000E+00  0.00000000000E+00  0.54994898775E+03  0.54994898775E+03  0.00000000000E+00 0. -1.
         21   -1    0    0  506  502 -0.00000000000E+00 -0.00000000000E+00 -0.43443096018E+02  0.43443096018E+02  0.00000000000E+00 0. -1.
         21    1    1    2  503  504  0.24168664764E+02 -0.87137353511E+02  0.83534611736E+02  0.12310594661E+03  0.00000000000E+00 0. -1.
         21    1    1    2  504  502 -0.22582737499E+02  0.25080712879E+02  0.26642643762E+02  0.42998286688E+02  0.00000000000E+00 0. -1.
         21    1    1    2  505  503 -0.54091571076E+02  0.15177725930E+02  0.31393297774E+03  0.31892032851E+03  0.00000000000E+00 0. -1.
         21    1    1    2  506  501  0.52505643812E+02  0.46878914701E+02  0.82395658488E+02  0.10836752195E+03  0.00000000000E+00 0. -1.
<scales pt_clust_3="14000.00000" pt_clust_4="33.74940" pt_clust_5="58.21122" pt_clust_6="66.85889"></scales>
<clustering>
<clus scale="   33.749">  2  4  1 -1</clus>
<clus scale="   58.211">  1  5  2 -1</clus>
<clus scale="   66.859">  1  6  2 -1</clus>
<clus scale="   58.211">  1  3  2 -1</clus>
</clustering>
</event>
<event>
 6    0  0.2908518E+002  0.5944517E+02  0.7546771E-02  0.1400175E+00
         21   -1    0    0  504  501  0.00000000000E+00  0.00000000000E+00  0.25211689715E+03  0.25211689715E+03  0.00000000000E+00 0. -1.
         21   -1    0    0  506  502 -0.00000000000E+00 -0.00000000000E+00 -0.39505628731E+03  0.39505628731E+03  0.00000000000E+00 0. -1.
         21    1    1    2  503  505 -0.18034043324E+02 -0.48814876851E+02 -0.86608861841E+02  0.10104065454E+03  0.00000000000E+00 0. -1.
         21    1    1    2  504  502  0.11673105120E+03  0.18517858147E+02 -0.17302958360E+03  0.20954304137E+03  0.00000000000E+00 0. -1.
         21    1    1    2  505  501 -0.57107193448E+02  0.12307109436E+02  0.21795948438E+03  0.22565246136E+03  0.00000000000E+00 0. -1.
         21    1    1    2  506  503 -0.41589814428E+02  0.17989909268E+02 -0.10126042910E+03  0.11093702719E+03  0.00000000000E+00 0. -1.
<scales pt_clust_3="53.30468" pt_clust_4="59.44517" pt_clust_5="14000.00000" pt_clust_6="45.31390"></scales>
<clustering>
<clus scale="   45.314">  2  6  1 -1</clus>
<clus scale="   53.305">  2  3  1 -1</clus>
<clus scale="   59.445">  2  4  1 -1</clus>
<clus scale="   59.445">  1  3  2 -1</clus>
</clustering>
</event>
<event>
 6    0  0.2908518E+002  0.7523539E+02  0.7546771E-02  0.1343144E+00
         21   -1    0    0  506  501  0.00000000000E+00  0.00000000000E+00  0.17038284855E+03  0.17038284855E+03  0.00000000000E+00 0. -1.
         21   -1    0    0  504  502 -0.00000000000E+00 -0.00000000000E+00 -0.27658189918E+03  0.27658189918E+03  0.00000000000E+00 0.  1.
         21    1    1    2  503  502  0.43863157162E+02 -0.40447891213E+02 -0.52539030988E+02  0.79500680732E+02  0.00000000000E+00 0.  1.
         21    1    1    2  504  505  0.39612107678E+02  0.63639683553E+02 -0.15328610738E+03  0.17063340562E+03  0.00000000000E+00 0.  1.
         21    1    1    2  505  501 -0.16245041211E+02 -0.56866544156E+02 -0.13813829292E+02  0.60733245327E+02  0.00000000000E+00 0.  1.
         21    1    1    2  506  503 -0.67230223628E+02  0.33674751816E+02  0.11343991703E+03  0.13609741605E+03  0.00000000000E+00 0. -1.
<scales pt_clust_3="62.29597" pt_clust_4="14000.00000" pt_clust_5="59.14140" pt_clust_6="75.23539"></scales>
<clustering>
<clus scale="   59.141">  1  5  2 -1</clus>
<clus scale="   62.296">  2  3  1 -1</clus>
<clus scale="   75.235">  1  6  2 -1</clus>
<clus scale="   59.141">  1  3  2 -1</clus>
</clustering>
</event>
<event>
 6    0  0.2908518E+002  0.1716803E+03  0.7546771E-02  0.1176107E+00
         21   -1    0    0  506  501  0.00000000000E+00  0.00000000000E+00  0.60109356210E+02  0.60109356210E+02  0.00000000000E+00 0. -1.
         21   -1    0    0  503  502 -0.00000000000E+00 -0.00000000000E+00 -0.77826084957E+03  0.77826084957E+03  0.00000000000E+00 0. -1.
         21    1    1    2  503  504  0.17837221247E+02 -0.12006678099E+03 -0.47547491665E+03  0.49072456096E+03  0.00000000000E+00 0. -1.
         21    1    1    2  504  501  0.62594164711E+01 -0.48234918015E+02 -0.80477205114E+02  0.94033867056E+02  0.00000000000E+00 0. -1.
         21    1    1    2  505  502 -0.37100690590E+02  0.13697452643E+03 -0.16722419602E+03  0.21932262507E+03  0.00000000000E+00 0. -1.
         21    1    1    2  506  505  0.13004052872E+02  0.31327172577E+02  0.50248244217E+01  0.34289152706E+02  0.00000000000E+00 0. -1.
<scales pt_clust_3="38.64772" pt_clust_4="38.64772" pt_clust_5="159.75166" pt_clust_6="33.91898"></scales>
<clustering>
<clus scale="   33.919">  1  6  2 -1</clus>
<clus scale="   38.648">  3  4 -1 -1</clus>
<clus scale="  159.752">  1  5  2 -1</clus>
<clus scale="   33.919">  1  3  2 -1</clus>
</clustering>
</event>
<event>
 6    0  0.2973870E+002  0.1563217E+03  0.7546771E-02  0.1192913E+00
         21   -1    0    0  505  501  0.00000000000E+00  0.00000000000E+00  0.10655195576E+03  0.10655195576E+03  0.00000000000E+00 0. -1.
         21   -1    0    0  503  502 -0.00000000000E+00 -0.00000000000E+00 -0.19806687143E+04  0.19806687143E+04  0.00000000000E+00 0. -1.
         21    1    1    2  503  506 -0.27986477403E+02 -0.13526361563E+02 -0.10869919379E+03  0.11305626964E+03  0.00000000000E+00 0. -1.
         21    1    1    2  504  502 -0.32779852497E+02  0.72645586863E+01 -0.40080745634E+03  0.40221127483E+03  0.00000000000E+00 0. -1.
         21    1    1    2  505  504 -0.60892060043E+02 -0.72964925636E+02 -0.14150662048E+04  0.14182538868E+04  0.00000000000E+00 0. -1.
         21    1    1    2  506  501  0.12165838994E+03  0.79226728512E+02  0.50456096380E+02  0.15369923883E+03  0.00000000000E+00 0. -1.
<scales pt_clust_3="31.08384" pt_clust_4="34.69716" pt_clust_5="34.69716" pt_clust_6="144.33018"></scales>
<clustering>
<clus scale="   31.084">  2  3  1 -1</clus>
<clus scale="   34.697">  4  5 -1 -1</clus>
<clus scale="  144.330">  1  6  2 -1</clus>
<clus scale="  144.330">  1  3  2 -1</clus>
</clustering>
</event>
<event>
 6    0  0.2908518E+002  0.2088462E+03  0.7546771E-02  0.1142483E+00
         21   -1    0    0  503  501  0.00000000000E+00  0.00000000000E+00  0.27865652551E+03  0.27865652551E+03  0.00000000000E+00 0. -1.
         21   -1    0    0  505  502 -0.00000000000E+00 -0.00000000000E+00 -0.19296874607E+04  0.19296874607E+04  0.00000000000E+00 0.  1.
         21    1    1    2  503  506  0.21578953345E+03  0.11046227842E+03 -0.13542870229E+04  0.13758126247E+04  0.00000000000E+00 0.  1.
         21    1    1    2  504  501 -0.15002165145E+03 -0.14425931138E+03  0.21924903764E+03  0.30230346563E+03  0.00000000000E+00 0. -1.
         21    1    1    2  505  504 -0.75483695137E+02  0.42476775745E+01 -0.46003152714E+03  0.46620257073E+03  0.00000000000E+00 0.  1.
         21    1    1    2  506  502  0.97158131377E+01  0.29549355378E+02 -0.55961422779E+02  0.64025325205E+02  0.00000000000E+00 0. -1.
<scales pt_clust_3="14000.00000" pt_clust_4="208.84616" pt_clust_5="73.98689" pt_clust_6="31.10565"></scales>
<clustering>
<clus scale="   31.106">  2  6  1 -1</clus>
<clus scale="   73.987">  2  5  1 -1</clus>
<clus scale="  208.846">  1  4  2 -1</clus>
<clus scale="  208.846">  1  3  2 -1</clus>
</clustering>
</event>
<event>
 6    0  0.2908518E+002  0.1434586E+03  0.7546771E-02  0.1208749E+00
         21   -1    0    0  505  501  0.00000000000E+00  0.00000000000E+00  0.20232631596E+03  0.20232631596E+03  0.00000000000E+00 0.  1.
         21   -1    0    0  504  502 -0.00000000000E+00 -0.00000000000E+00 -0.52812894425E+03  0.52812894425E+03  0.00000000000E+00 0. -1.
         21    1    1    2  503  501  0.59619644989E+02 -0.58736313117E+01  0.13207301377E+03  0.14502511017E+03  0.00000000000E+00 0.  1.
         21    1    1    2  504  503  0.11876441404E+03  0.46817812181E+02 -0.71937762961E+02  0.14653305197E+03  0.00000000000E+00 0. -1.
         21    1    1    2  505  506 -0.30717294149E+02 -0.13093285547E+02 -0.11310215348E+02  0.35254889838E+02  0.00000000000E+00 0.  1.
         21    1    1    2  506  502 -0.14766676488E+03 -0.27850895322E+02 -0.37462766376E+03  0.40364220824E+03  0.00000000000E+00 0. -1.
<scales pt_clust_3="40.32037" pt_clust_4="14000.00000" pt_clust_5="33.39141" pt_clust_6="143.45862"></scales>
<clustering>
<clus scale="   33.391">  1  5  2 -1</clus>
<clus scale="   40.320">  1  3  2 -1</clus>
<clus scale="  143.459">  2  6  1 -1</clus>
<clus scale="   33.391">  1  3  2 -1</clus>
</clustering>
</event>
<event>
 6    0  0.2908518E+002  0.1085566E+03  0.7546771E-02  0.1263266E+00
         21   -1    0    0  503  501  0.00000000000E+00  0.00000000000E+00  0.17183071978E+04  0.17183071978E+04  0.00000000000E+00 0. -1.
         21   -1    0    0  504  502 -0.00000000000E+00 -0.00000000000E+00 -0.51569447995E+02  0.51569447995E+02  0.00000000000E+00 0.  1.
         21    1    1    2  503  506 -0.16109839370E+02  0.33554464254E+02  0.13563282907E+04  0.13568389223E+04  0.00000000000E+00 0. -1.
         21    1    1    2  504  501 -0.90457245711E+01 -0.40576087835E+02  0.42577963314E+02  0.59507369266E+02  0.00000000000E+00 0.  1.
         21    1    1    2  505  502 -0.97677402222E+02 -0.20053453025E+02  0.81835503408E+02  0.12899637786E+03  0.00000000000E+00 0.  1.
         21    1    1    2  506  505  0.12283296616E+03  0.27075076606E+02  0.18599599240E+03  0.22453397636E+03  0.00000000000E+00 0.  1.
<scales pt_clust_3="37.22135" pt_clust_4="37.58608" pt_clust_5="14000.00000" pt_clust_6="108.55661"></scales>
<clustering>
<clus scale="   37.221">  1  3  2 -1</clus>
<clus scale="   37.586">  1  4  2 -1</clus>
<clus scale="  108.557">  1  6  2 -1</clus>
<clus scale="   37.221">  1  3  2 -1</clus>
</clustering>
</event>
<event>
 6    0  0.2908518E+002  0.1248570E+03  0.7546771E-02  0.1235293E+00
         21   -1    0    0  504  501  0.00000000000E+00  0.00000000000E+00  0.72107908218E+03  0.72107908218E+03  0.00000000000E+00 0.  1.
         21   -1    0    0  506  502 -0.00000000000E+00 -0.00000000000E+00 -0.45375542850E+02  0.45375542850E+02  0.00000000000E+00 0.  1.
         21    1    1    2  503  501  0.12494655511E+02  0.28734614174E+02  0.10404897902E+03  0.10866455035E+03  0.00000000000E+00 0.  1.
         21    1    1    2  504  502 -0.99666138384E+02 -0.10021587094E+03  0.49605980630E+03  0.51580218238E+03  0.00000000000E+00 0.  1.
         21    1    1    2  505  503  0.65659586670E+02  0.28971644241E+02  0.53252986156E+02  0.89366761305E+02  0.00000000000E+00 0.  1.
         21    1    1    2  506  505  0.21511896203E+02  0.42509612525E+02  0.22341767853E+02  0.52621130984E+02  0.00000000000E+00 0.  1.
<scales pt_clust_3="31.33360" pt_clust_4="117.69333" pt_clust_5="33.99952" pt_clust_6="33.99952"></scales>
<clustering>
<clus scale="   31.334">  1  3  2 -1</clus>
<clus scale="   34.000">  5  6 -1 -1</clus>
<clus scale="  117.693">  1  4  2 -1</clus>
<clus scale="   31.334">  1  3  2 -1</clus>
</clustering>
</event>
<event>
 6    0  0.2908518E+002  0.9291027E+02  0.7546771E-02  0.1295953E+00
         21   -1    0    0  503  501  0.00000000000E+00  0.00000000000E+00  0.24747732730E+03  0.24747732730E+03  0.00000000000E+00 0.  1.
         21   -1    0    0  504  502 -0.00000000000E+00 -0.00000000000E+00 -0.53090226577E+03  0.53090226577E+03  0.00000000000E+00 0.  1.
         21    1    1    2  503  506  0.48397151172E+02  0.85390303386E+00  0.20630470803E+03  0.21190716351E+03  0.00000000000E+00 0.  1.
         21    1    1    2  504  505 -0.75734694377E+02 -0.58745292068E+02 -0.34597686979E+03  0.35900800507E+03  0.00000000000E+00 0.  1.
         21    1    1    2  505  501  0.79651219307E+02  0.30978912542E+02 -0.57304209748E+02  0.10289694949E+03  0.00000000000E+00 0.  1.
         21    1    1    2  506  502 -0.52313676102E+02  0.26912476492E+02 -0.86448566969E+02  0.10456747501E+03  0.00000000000E+00 0.  1.
<scales pt_clust_3="48.40468" pt_clust_4="14000.00000" pt_clust_5="92.91027" pt_clust_6="49.06050"></scales>
<clustering>
<clus scale="   48.405">  1  3  2 -1</clus>
<clus scale="   49.060">  1  6  2 -1</clus>
<clus scale="   92.910">  1  5  2 -1</clus>
<clus scale="   48.405">  1  3  2 -1</clus>
</clustering>
</event>
<event>
 6    0  0.2908518E+002  0.1088495E+03  0.7546771E-02  0.1262715E+00
         21   -1    0    0  506  501  0.00000000000E+00  0.00000000000E+00  0.69444561958E+02  0.69444561958E+02  0.00000000000E+00 0.  1.
         21   -1    0    0  503  502 -0.00000000000E+00 -0.00000000000E+00 -0.25938765622E+03  0.25938765622E+03  0.00000000000E+00 0.  1.
         21    1    1    2  503  505  0.36296854539E+02  0.18113168997E+02 -0.47967564176E+02  0.62820663427E+02  0.00000000000E+00 0. -1.
         21    1    1    2  504  501 -0.85492923905E+02 -0.63501226455E+02 -0.45849487701E+02  0.11594663135E+03  0.00000000000E+00 0.  1.
         21    1    1    2  505  504  0.90668061618E+01  0.66130316369E+02 -0.74351562872E+02  0.99917869366E+02  0.00000000000E+00 0.  1.
         21    1    1    2  506  502  0.40129263204E+02 -0.20742258910E+02 -0.21774479509E+02  0.50147054030E+02  0.00000000000E+00 0.  1.
<scales pt_clust_3="37.92780" pt_clust_4="97.37135" pt_clust_5="37.92780" pt_clust_6="45.17299"></scales>
<clustering>
<clus scale="   37.928">  3  5 -1 -1</clus>
<clus scale="   45.173">  1  6  2 -1</clus>
<clus scale="   97.371">  1  4  2 -1</clus>
<clus scale="   45.173">  1  3  2 -1</clus>
</clustering>
</event>
<event>
 6    0  0.2908518E+002  0.1160235E+03  0.7546771E-02  0.1249805E+00
         21   -1    0    0  505  501  0.00000000000E+00  0.00000000000E+00  0.39132406537E+03  0.39132406537E+03  0.00000000000E+00 0. -1.
         21   -1    0    0  503  502 -0.00000000000E+00 -0.00000000000E+00 -0.18785445462E+03  0.18785445462E+03  0.00000000000E+00 0. -1.
         21    1    1    2  503  506  0.46083276857E+02 -0.13288090681E+02 -0.42259155654E+01  0.48146652243E+02  0.00000000000E+00 0. -1.
         21    1    1    2  504  502 -0.17283598722E+02 -0.28333459316E+02 -0.54934299605E+02  0.64181656060E+02  0.00000000000E+00 0. -1.
         21    1    1    2  505  504 -0.95236110830E+02 -0.35121293307E+02 -0.67213405901E+02  0.12174179226E+03  0.00000000000E+00 0. -1.
         21    1    1    2  506  501  0.66436432695E+02  0.76742843304E+02  0.32984323182E+03  0.34510841944E+03  0.00000000000E+00 0. -1.
<scales pt_clust_3="47.96084" pt_clust_4="31.11126" pt_clust_5="31.11126" pt_clust_6="102.47530"></scales>
<clustering>
<clus scale="   31.111">  4  5 -1 -1</clus>
<clus scale="   47.961">  2  3  1 -1</clus>
<clus scale="  102.475">  1  6  2 -1</clus>
<clus scale="  102.475">  1  3  2 -1</clus>
</clustering>
</event>
<event>
 6    0  0.2908518E+002  0.1089748E+03  0.7546771E-02  0.1262480E+00
         21   -1    0    0  506  501  0.00000000000E+00  0.00000000000E+00  0.37233248137E+03  0.37233248137E+03  0.00000000000E+00 0. -1.
         21   -1    0    0  504  502 -0.00000000000E+00 -0.00000000000E+00 -0.16864784632E+03  0.16864784632E+03  0.00000000000E+00 0. -1.
         21    1    1    2  503  501 -0.52000344460E+02  0.49525647048E+02  0.21133356922E+03  0.22320103723E+03  0.00000000000E+00 0. -1.
         21    1    1    2  504  503  0.14951844171E+03  0.38935977263E+02 -0.20403691884E+02  0.15584635183E+03  0.00000000000E+00 0. -1.
         21    1    1    2  505  502 -0.80773409985E+02 -0.34580224432E+02 -0.28126168251E+02  0.92256257364E+02  0.00000000000E+00 0. -1.
         21    1    1    2  506  505 -0.16744687260E+02 -0.53881399880E+02  0.40880925972E+02  0.69676681269E+02  0.00000000000E+00 0.  1.
<scales pt_clust_3="64.71392" pt_clust_4="14000.00000" pt_clust_5="108.97476" pt_clust_6="56.42331"></scales>
<clustering>
<clus scale="   56.423">  1  6  2 -1</clus>
<clus scale="   64.714">  1  3  2 -1</clus>
<clus scale="  108.975">  2  5  1 -1</clus>
<clus scale="   56.423">  1  3  2 -1</clus>
</clustering>
</event>
<event>
 6    0  0.2908518E+002  0.1616137E+03  0.7546771E-02  0.1186887E+00
         21   -1    0    0  505  501  0.00000000000E+00  0.00000000000E+00  0.67664251272E+03  0.67664251272E+03  0.00000000000E+00 0. -1.
         21   -1    0    0  504  502 -0.00000000000E+00 -0.00000000000E+00 -0.17913821274E+03  0.17913821274E+03  0.00000000000E+00 0.  1.
         21    1    1    2  503  502  0.59234622946E+02  0.50474179268E+02 -0.18983484664E+02  0.80104656658E+02  0.00000000000E+00 0.  1.
         21    1    1    2  504  501  0.13171860429E+02  0.90236202212E+02  0.85046233024E+02  0.12469535616E+03  0.00000000000E+00 0. -1.
         21    1    1    2  505  506 -0.18703293878E+03 -0.63481321584E+02  0.46803421967E+03  0.50800317830E+03  0.00000000000E+00 0. -1.
         21    1    1    2  506  503  0.11462645540E+03 -0.77229059895E+02 -0.36592668051E+02  0.14297753434E+03  0.00000000000E+00 0.  1.
<scales pt_clust_3="77.82277" pt_clust_4="100.44889" pt_clust_5="161.61373" pt_clust_6="14000.00000"></scales>
<clustering>
<clus scale="   77.823">  2  3  1 -1</clus>
<clus scale="  100.449">  1  4  2 -1</clus>
<clus scale="  161.614">  1  5  2 -1</clus>
<clus scale="  100.449">  1  3  2 -1</clus>
</clustering>
</event>
<event>
 6    0  0.2908518E+002  0.1421811E+03  0.7546771E-02  0.1210424E+00
         21   -1    0    0  505  501  0.00000000000E+00  0.00000000000E+00  0.87222224602E+02  0.87222224602E+02  0.00000000000E+00 0. -1.
         21   -1    0    0  506  502 -0.00000000000E+00 -0.00000000000E+00 -0.99708437147E+03  0.99708437147E+03  0.00000000000E+00 0. -1.
         21    1    1    2  503  502 -0.40265281098E+02  0.44681021130E+02 -0.13100264432E+03  0.14415054398E+03  0.00000000000E+00 0. -1.
         21    1    1    2  504  501 -0.55295842914E+02 -0.44315581136E+02 -0.76170150043E+02  0.10403553591E+03  0.00000000000E+00 0.  1.
         21    1    1    2  505  503  0.77845950055E+02 -0.11155571335E+03 -0.12273838613E+02  0.13658446557E+03  0.00000000000E+00 0. -1.
         21    1    1    2  506  504  0.17715173957E+02  0.11119027336E+03 -0.69041551389E+03  0.69953605061E+03  0.00000000000E+00 0. -1.
<scales pt_clust_3="60.14721" pt_clust_4="71.50473" pt_clust_5="14000.00000" pt_clust_6="142.18106"></scales>
<clustering>
<clus scale="   60.147">  2  3  1 -1</clus>
<clus scale="   71.505">  1  4  2 -1</clus>
<clus scale="  142.181">  2  6  1 -1</clus>
<clus scale="   71.505">  1  3  2 -1</clus>
</clustering>
</event>
<event>
 6    0  0.2908518E+002  0.1261559E+03  0.7546771E-02  0.1233274E+00
         21   -1    0    0  502  501  0.00000000000E+00  0.00000000000E+00  0.35945394728E+04  0.35945394728E+04  0.00000000000E+00 0.  1.
         21   -1    0    0  503  502 -0.00000000000E+00 -0.00000000000E+00 -0.67156053301E+02  0.67156053301E+02  0.00000000000E+00 0. -1.
         21    1    1    2  503  505  0.11228823372E+03 -0.67144530421E+02  0.48607419261E+01  0.13092235183E+03  0.00000000000E+00 0. -1.
         21    1    1    2  504  506 -0.36446377376E+02  0.82843750678E+01  0.28458078607E+03  0.28702472558E+03  0.00000000000E+00 0.  1.
         21    1    1    2  505  504 -0.28778141565E+02  0.16679368266E+02  0.10443044636E+03  0.10959973031E+03  0.00000000000E+00 0. -1.
         21    1    1    2  506  501 -0.47063714780E+02  0.42180787087E+02  0.31335114452E+04  0.31341487184E+04  0.00000000000E+00 0.  1.
<scales pt_clust_3="121.70254" pt_clust_4="31.34178" pt_clust_5="31.34178" pt_clust_6="63.19978"></scales>
<clustering>
<clus scale="   31.342">  4  5 -1 -1</clus>
<clus scale="   63.200">  1  6  2 -1</clus>
<clus scale="  121.703">  2  3  1 -1</clus>
<clus scale="   63.200">  1  3  2 -1</clus>
</clustering>
</event>
<event>
 6    0  0.2908518E+002  0.7211771E+02  0.7546771E-02  0.1353036E+00
         21   -1    0    0  506  501  0.00000000000E+00  0.00000000000E+00  0.18179799095E+03  0.18179799095E+03  0.00000000000E+00 0.  1.
         21   -1    0    0  505  502 -0.00000000000E+00 -0.00000000000E+00 -0.10785365912E+04  0.10785365912E+04  0.00000000000E+00 0. -1.
         21    1    1    2  503  501  0.13448694820E+00 -0.37367598058E+02 -0.72249136740E+02  0.81340600139E+02  0.00000000000E+00 0. -1.
         21    1    1    2  504  503  0.40646679856E+02  0.10707189950E+03 -0.45824626284E+03  0.47234117082E+03  0.00000000000E+00 0. -1.
         21    1    1    2  505  504 -0.44947423226E+01 -0.61936234185E+02 -0.53259968508E+03  0.53620772501E+03  0.00000000000E+00 0. -1.
         21    1    1    2  506  502 -0.36286424482E+02 -0.77680672606E+01  0.16635648445E+03  0.17044508614E+03  0.00000000000E+00 0.  1.
<scales pt_clust_3="41.81582" pt_clust_4="72.11771" pt_clust_5="14000.00000" pt_clust_6="37.10859"></scales>
<clustering>
<clus scale="   37.109">  1  6  2 -1</clus>
<clus scale="   41.816">  1  3  2 -1</clus>
<clus scale="   72.118">  1  4  2 -1</clus>
<clus scale="   37.109">  1  3  2 -1</clus>
</clustering>
</event>
<event>
 6    0  0.2908518E+002  0.1349688E+03  0.7546771E-02  0.1220264E+00
         21   -1    0    0  504  501  0.00000000000E+00  0.00000000000E+00  0.25411890964E+03  0.25411890964E+03  0.00000000000E+00 0. -1.
         21   -1    0    0  505  502 -0.00000000000E+00 -0.00000000000E+00 -0.58349984269E+03  0.58349984269E+03  0.00000000000E+00 0. -1.
         21    1    1    2  503  502  0.30495760183E+02  0.62047178412E+01 -0.74566958246E+02  0.80800502317E+02  0.00000000000E+00 0. -1.
         21    1    1    2  504  503 -0.68725771518E+02  0.14124472682E+03 -0.44637665549E+03  0.47320758985E+03  0.00000000000E+00 0. -1.
         21    1    1    2  505  506 -0.74454928189E+01 -0.84850934762E+02  0.94533072660E+01  0.85699950475E+02  0.00000000000E+00 0. -1.
         21    1    1    2  506  501  0.45675504155E+02 -0.62598509897E+02  0.18210937342E+03  0.19791070968E+03  0.00000000000E+00 0. -1.
<scales pt_clust_3="31.12057" pt_clust_4="134.96884" pt_clust_5="14000.00000" pt_clust_6="77.69454"></scales>
<clustering>
<clus scale="   31.121">  2  3  1 -1</clus>
<clus scale="   77.695">  1  6  2 -1</clus>
<clus scale="  134.969">  2  4  1 -1</clus>
<clus scale="   77.695">  1  3  2 -1</clus>
</clustering>
</event>
<event>
 6    0  0.2908518E+002  0.9361699E+02  0.7546771E-02  0.1294322E+00
         21   -1    0    0  504  501  0.00000000000E+00  0.00000000000E+00  0.33521125140E+03  0.33521125140E+03  0.00000000000E+00 0.  1.
         21   -1    0    0  503  502 -0.00000000000E+00 -0.00000000000E+00 -0.83765335266E+03  0.83765335266E+03  0.00000000000E+00 0. -1.
         21    1    1    2  503  506 -0.69441442364E+02 -0.86638439156E+00 -0.66745837739E+03  0.67106150992E+03  0.00000000000E+00 0. -1.
         21    1    1    2  504  505 -0.53523819811E+02 -0.27908858118E+02  0.24957608268E+02  0.65319107917E+02  0.00000000000E+00 0. -1.
         21    1    1    2  505  502  0.41664847951E+01  0.69858043247E+02 -0.12492815135E+03  0.14319409485E+03  0.00000000000E+00 0. -1.
         21    1    1    2  506  501  0.11879877738E+03 -0.41082800738E+02  0.26498681921E+03  0.29328989137E+03  0.00000000000E+00 0.  1.
<scales pt_clust_3="93.61699" pt_clust_4="60.36310" pt_clust_5="69.02394" pt_clust_6="14000.00000"></scales>
<clustering>
<clus scale="   60.363">  1  4  2 -1</clus>
<clus scale="   69.024">  2  5  1 -1</clus>
<clus scale="   93.617">  2  3  1 -1</clus>
<clus scale="   60.363">  1  3  2 -1</clus>
</clustering>
</event>
<event>
 6    0  0.2908518E+002  0.4738778E+03  0.7546771E-02  0.1020831E+00
         21   -1    0    0  503  501  0.00000000000E+00  0.00000000000E+00  0.18188675480E+04  0.18188675480E+04  0.00000000000E+00 0. -1.
         21   -1    0    0  506  502 -0.00000000000E+00 -0.00000000000E+00 -0.21992310034E+04  0.21992310034E+04  0.00000000000E+00 0.  1.
         21    1    1    2  503  504  0.31555347419E+03  0.35595390440E+03 -0.12860450506E+03  0.49276393522E+03  0.00000000000E+00 0.  1.
         21    1    1    2  504  502  0.58842759141E+02  0.16030807393E+02 -0.15574145841E+02  0.62944508161E+02  0.00000000000E+00 0.  1.
         21    1    1    2  505  501 -0.11211940759E+03  0.10107606001E+01  0.15829820908E+04  0.15869480404E+04  0.00000000000E+00 0. -1.
         21    1    1    2  506  505 -0.26227682574E+03 -0.37299547239E+03 -0.18191668953E+04  0.18754420675E+04  0.00000000000E+00 0.  1.
<scales pt_clust_3="34.86150" pt_clust_4="34.86150" pt_clust_5="112.12396" pt_clust_6="463.76817"></scales>
<clustering>
<clus scale="   34.862">  3  4 -1 -1</clus>
<clus scale="  112.124">  1  5  2 -1</clus>
<clus scale="  463.768">  2  6  1 -1</clus>
<clus scale="  112.124">  1  3  2 -1</clus>
</clustering>
</event>
<event>
 6    0  0.2908518E+002  0.7204677E+02  0.7546771E-02  0.1353268E+00
         21   -1    0    0  503  501  0.00000000000E+00  0.00000000000E+00  0.33459632632E+03  0.33459632632E+03  0.00000000000E+00 0. -1.
         21   -1    0    0  504  502 -0.00000000000E+00 -0.00000000000E+00 -0.13330342872E+03  0.13330342872E+03  0.00000000000E+00 0. -1.
         21    1    1    2  503  506  0.41044201187E+02 -0.19739946865E+02  0.20752366734E+03  0.21246261897E+03  0.00000000000E+00 0. -1.
         21    1    1    2  504  501 -0.11363824657E+02 -0.46901424187E+02  0.26310699420E+02  0.54964834263E+02  0.00000000000E+00 0. -1.
         21    1    1    2  505  502  0.60515490142E+02  0.41198773281E+02 -0.68342940122E+02  0.10015099067E+03  0.00000000000E+00 0. -1.
         21    1    1    2  506  505 -0.90195866672E+02  0.25442597771E+02  0.35801470959E+02  0.10032131114E+03  0.00000000000E+00 0. -1.
<scales pt_clust_3="45.54440" pt_clust_4="53.37768" pt_clust_5="72.04677" pt_clust_6="14000.00000"></scales>
<clustering>
<clus scale="   45.544">  1  3  2 -1</clus>
<clus scale="   53.378">  1  4  2 -1</clus>
<clus scale="   72.047">  2  5  1 -1</clus>
<clus scale="   45.544">  1  3  2 -1</clus>
</clustering>
</event>
<event>
 6    0  0.2908518E+002  0.3162972E+03  0.7546771E-02  0.1077366E+00
         21   -1    0    0  504  501  0.00000000000E+00  0.00000000000E+00  0.30210941320E+03  0.30210941320E+03  0.00000000000E+00 0. -1.
         21   -1    0    0  506  502 -0.00000000000E+00 -0.00000000000E+00 -0.62562721406E+03  0.62562721406E+03  0.00000000000E+00 0. -1.
         21    1    1    2  503  502 -0.17816860445E+03 -0.86158114234E+02 -0.22124635000E+03  0.29684544741E+03  0.00000000000E+00 0. -1.
         21    1    1    2  504  505 -0.54905355437E+02  0.36177894659E+02  0.74746945219E+02  0.99551714889E+02  0.00000000000E+00 0. -1.
         21    1    1    2  505  503 -0.10429196931E+03  0.16059450730E+02 -0.16023263390E+03  0.19185728495E+03  0.00000000000E+00 0. -1.
         21    1    1    2  506  501  0.33736592920E+03  0.33920768845E+02 -0.16785762181E+02  0.33948218002E+03  0.00000000000E+00 0. -1.
<scales pt_clust_3="68.09093" pt_clust_4="65.75286" pt_clust_5="68.09093" pt_clust_6="302.38642"></scales>
<clustering>
<clus scale="   65.753">  1  4  2 -1</clus>
<clus scale="   68.091">  3  5 -1 -1</clus>
<clus scale="  302.386">  1  6  2 -1</clus>
<clus scale="   65.753">  1  3  2 -1</clus>
</clustering>
</event>
<event>
 6    0  0.2908518E+002  0.1349361E+03  0.7546771E-02  0.1220310E+00
         21   -1    0    0  506  501  0.00000000000E+00  0.00000000000E+00  0.16235669738E+03  0.16235669738E+03  0.00000000000E+00 0.  1.
         21   -1    0    0  504  502 -0.00000000000E+00 -0.00000000000E+00 -0.53204546259E+03  0.53204546259E+03  0.00000000000E+00 0. -1.
         21    1    1    2  503  502  0.14446835659E+03 -0.29591867238E+02 -0.72865315431E+02  0.16448750365E+03  0.00000000000E+00 0.  1.
         21    1    1    2  504  505 -0.75975570433E+02  0.36811887054E+02 -0.34660942078E+03  0.35674289468E+03  0.00000000000E+00 0. -1.
         21    1    1    2  505  501 -0.30459984616E+02  0.17418059082E+02 -0.51438633700E+02  0.62266624141E+02  0.00000000000E+00 0. -1.
         21    1    1    2  506  503 -0.38032801542E+02 -0.24638078898E+02  0.10122460471E+03  0.11090513750E+03  0.00000000000E+00 0.  1.
<scales pt_clust_3="123.89690" pt_clust_4="34.46100" pt_clust_5="34.46100" pt_clust_6="45.31588"></scales>
<clustering>
<clus scale="   34.461">  4  5 -1 -1</clus>
<clus scale="   45.316">  1  6  2 -1</clus>
<clus scale="  123.897">  1  3  2 -1</clus>
<clus scale="   45.316">  1  3  2 -1</clus>
</clustering>
</event>
<event>
 6    0  0.2908518E+002  0.1219901E+03  0.7546771E-02  0.1239850E+00
         21   -1    0    0  506  501  0.00000000000E+00  0.00000000000E+00  0.36297959900E+04  0.36297959900E+04  0.00000000000E+00 0.  1.
         21   -1    0    0  503  502 -0.00000000000E+00 -0.00000000000E+00 -0.92821993122E+02  0.92821993122E+02  0.00000000000E+00 0.  1.
         21    1    1    2  503  501 -0.75159713415E+02 -0.76071337041E+02  0.59134499263E+02  0.12219950836E+03  0.00000000000E+00 0.  1.
         21    1    1    2  504  505  0.67981009674E+02  0.15407807196E+02  0.19851564369E+02  0.72476912232E+02  0.00000000000E+00 0.  1.
         21    1    1    2  505  502  0.50306249308E+02  0.33766401179E+02 -0.84119809552E+01  0.61169028042E+02  0.00000000000E+00 0.  1.
         21    1    1    2  506  504 -0.43127545567E+02  0.26897128665E+02  0.34663999142E+04  0.34667725344E+04  0.00000000000E+00 0.  1.
<scales pt_clust_3="116.45255" pt_clust_4="33.87755" pt_clust_5="33.87755" pt_clust_6="50.82756"></scales>
<clustering>
<clus scale="   33.878">  4  5 -1 -1</clus>
<clus scale="   50.828">  1  6  2 -1</clus>
<clus scale="  116.453">  1  3  2 -1</clus>
<clus scale="   50.828">  1  3  2 -1</clus>
</clustering>
</event>
<event>
 6    0  0.2908518E+002  0.9342824E+02  0.7546771E-02  0.1294756E+00
         21   -1    0    0  506  501  0.00000000000E+00  0.00000000000E+00  0.36822349160E+03  0.36822349160E+03  0.00000000000E+00 0.  1.
         21   -1    0    0  505  502 -0.00000000000E+00 -0.00000000000E+00 -0.28641330696E+03  0.28641330696E+03  0.00000000000E+00 0.  1.
         21    1    1    2  503  502  0.62321382944E+02  0.34610438527E+02 -0.19836370768E+03  0.21078424455E+03  0.00000000000E+00 0.  1.
         21    1    1    2  504  501  0.17911904213E+02 -0.61622925127E+02  0.23995992054E+01  0.64218216186E+02  0.00000000000E+00 0.  1.
         21    1    1    2  505  504  0.13982750395E+02  0.33007996432E+02 -0.36695612575E+02  0.51299250670E+02  0.00000000000E+00 0.  1.
         21    1    1    2  506  503 -0.94216037552E+02 -0.59955098321E+01  0.31446990569E+03  0.32833508715E+03  0.00000000000E+00 0.  1.
<scales pt_clust_3="93.42824" pt_clust_4="60.69826" pt_clust_5="35.84753" pt_clust_6="14000.00000"></scales>
<clustering>
<clus scale="   35.848">  2  5  1 -1</clus>
<clus scale="   60.698">  2  4  1 -1</clus>
<clus scale="   93.428">  2  3  1 -1</clus>
<clus scale="   93.428">  1  3  2 -1</clus>
</clustering>
</event>
<event>
 6    0  0.2908518E+002  0.1644359E+03  0.7546771E-02  0.1183778E+00
         21   -1    0    0  504  501  0.00000000000E+00  0.00000000000E+00  0.10692962960E+03  0.10692962960E+03  0.00000000000E+00 0.  1.
         21   -1    0    0  506  502 -0.00000000000E+00 -0.00000000000E+00 -0.41087904452E+03  0.41087904452E+03  0.00000000000E+00 0.  1.
         21    1    1    2  503  505 -0.47025088612E+02 -0.58784031199E+02 -0.44760225896E+02  0.87580814709E+02  0.00000000000E+00 0.  1.
         21    1    1    2  504  502  0.85285036583E+02  0.16128746738E+03 -0.11183735100E+03  0.21399714409E+03  0.00000000000E+00 0.  1.
         21    1    1    2  505  501 -0.68915329461E+02 -0.36789892929E+02 -0.43042491813E+02  0.89193469256E+02  0.00000000000E+00 0.  1.
         21    1    1    2  506  503  0.30655381490E+02 -0.65713543253E+02 -0.10430934621E+03  0.12703724607E+03  0.00000000000E+00 0.  1.
<scales pt_clust_3="30.46697" pt_clust_4="161.48028" pt_clust_5="30.46697" pt_clust_6="72.51222"></scales>
<clustering>
<clus scale="   30.467">  3  5 -1 -1</clus>
<clus scale="   72.512">  2  6  1 -1</clus>
<clus scale="  161.480">  2  4  1 -1</clus>
<clus scale="  164.436">  1  3  2 -1</clus>
</clustering>
</event>
<event>
 6    0  0.2908518E+002  0.2155099E+03  0.7546771E-02  0.1137276E+00
         21   -1    0    0  504  501  0.00000000000E+00  0.00000000000E+00  0.91447152869E+03  0.91447152869E+03  0.00000000000E+00 0. -1.
         21   -1    0    0  503  502 -0.00000000000E+00 -0.00000000000E+00 -0.33978450971E+04  0.33978450971E+04  0.00000000000E+00 0. -1.
         21    1    1    2  503  506  0.22821813234E+03  0.20108360116E+02 -0.60664654264E+03  0.64846579691E+03  0.00000000000E+00 0. -1.
         21    1    1    2  504  505 -0.67796156995E+02 -0.17345205038E+02 -0.55205146797E+03  0.55646922496E+03  0.00000000000E+00 0. -1.
         21    1    1    2  505  502 -0.12069547747E+03 -0.39375266555E+02 -0.22133893135E+04  0.22170273032E+04  0.00000000000E+00 0. -1.
         21    1    1    2  506  501 -0.39726497872E+02  0.36612111476E+02  0.88871375568E+03  0.89035430076E+03  0.00000000000E+00 0. -1.
<scales pt_clust_3="201.42133" pt_clust_4="57.55018" pt_clust_5="57.55018" pt_clust_6="54.02445"></scales>
<clustering>
<clus scale="   54.024">  1  6  2 -1</clus>
<clus scale="   57.550">  4  5 -1 -1</clus>
<clus scale="  201.421">  1  3  2 -1</clus>
<clus scale="   54.024">  1  3  2 -1</clus>
</clustering>
</event>
<event>
 6    0  0.2908518E+002  0.1482546E+03  0.7546771E-02  0.1202634E+00
         21   -1    0    0  506  501  0.00000000000E+00  0.00000000000E+00  0.13461052784E+03  0.13461052784E+03  0.00000000000E+00 0.  1.
         21   -1    0    0  504  502 -0.00000000000E+00 -0.00000000000E+00 -0.51534959063E+03  0.51534959063E+03  0.00000000000E+00 0.  1.
         21    1    1    2  503  505 -0.17310911750E+01 -0.11013583581E+03 -0.12489118424E+03  0.16652539418E+03  0.00000000000E+00 0.  1.
         21    1    1    2  504  503  0.13157688775E+02 -0.66919954617E+02 -0.12821916118E+03  0.14522933035E+03  0.00000000000E+00 0. -1.
         21    1    1    2  505  501 -0.34916090486E+01  0.54633326227E+02  0.80061469034E+02  0.96988816325E+02  0.00000000000E+00 0.  1.
         21    1    1    2  506  502 -0.79349885515E+01  0.12242246420E+03 -0.20769018641E+03  0.24121657761E+03  0.00000000000E+00 0.  1.
<scales pt_clust_3="31.93234" pt_clust_4="31.93234" pt_clust_5="54.74479" pt_clust_6="142.59233"></scales>
<clustering>
<clus scale="   31.932">  3  4 -1 -1</clus>
<clus scale="   54.745">  1  5  2 -1</clus>
<clus scale="  142.592">  2  6  1 -1</clus>
<clus scale="   54.745">  1  3  2 -1</clus>
</clustering>
</event>
<event>
 6    0  0.2908518E+002  0.9228005E+02  0.7546771E-02  0.1297422E+00
         21   -1    0    0  505  501  0.00000000000E+00  0.00000000000E+00  0.24408294414E+03  0.24408294414E+03  0.00000000000E+00 0. -1.
         21   -1    0    0  503  502 -0.00000000000E+00 -0.00000000000E+00 -0.98990107993E+02  0.98990107993E+02  0.00000000000E+00 0. -1.
         21    1    1    2  503  504 -0.10978515941E+02  0.44940503883E+02 -0.20878923337E+02  0.50755355789E+02  0.00000000000E+00 0. -1.
         21    1    1    2  504  501 -0.29000585549E+02  0.92994651753E+01  0.16539139901E+02  0.34656271632E+02  0.00000000000E+00 0.  1.
         21    1    1    2  505  506  0.86668462261E+02  0.42947022898E+02  0.99747639742E+02  0.13894409221E+03  0.00000000000E+00 0. -1.
         21    1    1    2  506  502 -0.46689360770E+02 -0.97186991956E+02  0.49684979845E+02  0.11871733250E+03  0.00000000000E+00 0. -1.
<scales pt_clust_3="47.38352" pt_clust_4="30.45511" pt_clust_5="14000.00000" pt_clust_6="92.28005"></scales>
<clustering>
<clus scale="   30.455">  1  4  2 -1</clus>
<clus scale="   47.384">  2  3  1 -1</clus>
<clus scale="   92.280">  2  6  1 -1</clus>
<clus scale="   30.455">  1  3  2 -1</clus>
</clustering>
</event>
<event>
 6    0  0.3420646E+002  0.8607724E+02  0.7546771E-02  0.1312639E+00
         21   -1    0    0  506  501  0.00000000000E+00  0.00000000000E+00  0.67525772079E+02  0.67525772079E+02  0.00000000000E+00 0. -1.
         21   -1    0    0  503  502 -0.00000000000E+00 -0.00000000000E+00 -0.24395239897E+04  0.24395239897E+04  0.00000000000E+00 0.  1.
         21    1    1    2  503  501 -0.40700811272E+02  0.11289592727E+03 -0.21097925601E+04  0.21132029465E+04  0.00000000000E+00 0.  1.
         21    1    1    2  504  505  0.55502126679E+02 -0.28499774708E+02 -0.17197718321E+03  0.18294500476E+03  0.00000000000E+00 0. -1.
         21    1    1    2  505  502 -0.16463921346E+02 -0.30615292066E+02 -0.13593096932E+03  0.14030532861E+03  0.00000000000E+00 0. -1.
         21    1    1    2  506  504  0.16626059384E+01 -0.53780860492E+02  0.45702494984E+02  0.70596481935E+02  0.00000000000E+00 0. -1.
<scales pt_clust_3="86.07724" pt_clust_4="14000.00000" pt_clust_5="34.76143" pt_clust_6="53.96939"></scales>
<clustering>
<clus scale="   34.761">  2  5  1 -1</clus>
<clus scale="   53.969">  1  6  2 -1</clus>
<clus scale="   86.077">  2  3  1 -1</clus>
<clus scale="   53.969">  1  3  2 -1</clus>
</clustering>
</event>
<event>
 6    0  0.2908518E+002  0.1369755E+03  0.7546771E-02  0.1217458E+00
         21   -1    0    0  505  501  0.00000000000E+00  0.00000000000E+00  0.42810897400E+03  0.42810897400E+03  0.00000000000E+00 0.  1.
         21   -1    0    0  503  502 -0.00000000000E+00 -0.00000000000E+00 -0.20486835128E+04  0.20486835128E+04  0.00000000000E+00 0. -1.
         21    1    1    2  503  504 -0.42471203832E+02 -0.22619716827E+02 -0.23262944686E+03  0.23755402394E+03  0.00000000000E+00 0.  1.
         21    1    1    2  504  506 -0.64710130731E+02  0.79775471638E+01 -0.18226841871E+03  0.19357897287E+03  0.00000000000E+00 0. -1.
         21    1    1    2  505  502  0.13422272469E+03 -0.39797515309E+02 -0.16204345677E+04  0.16264709559E+04  0.00000000000E+00 0. -1.
         21    1    1    2  506  501 -0.27041390124E+02  0.54439684973E+02  0.41475789449E+03  0.41918853410E+03  0.00000000000E+00 0.  1.
<scales pt_clust_3="38.73685" pt_clust_4="38.73685" pt_clust_5="129.34098" pt_clust_6="60.78582"></scales>
<clustering>
<clus scale="   38.737">  3  4 -1 -1</clus>
<clus scale="   60.786">  1  6  2 -1</clus>
<clus scale="  129.341">  2  5  1 -1</clus>
<clus scale="   60.786">  1  3  2 -1</clus>
</clustering>
</event>
<event>
 6    0  0.2908518E+002  0.1023622E+03  0.7546771E-02  0.1275405E+00
         21   -1    0    0  506  501  0.00000000000E+00  0.00000000000E+00  0.63149572528E+02  0.63149572528E+02  0.00000000000E+00 0. -1.
         21   -1    0    0  503  502 -0.00000000000E+00 -0.00000000000E+00 -0.58378328667E+03  0.58378328667E+03  0.00000000000E+00 0. -1.
         21    1    1    2  503  504  0.31013977735E+02 -0.65443599471E+02 -0.19165076290E+03  0.20487739369E+03  0.00000000000E+00 0. -1.
         21    1    1    2  504  501  0.29534835750E+02  0.14859519430E+03 -0.20909075892E+03  0.25820879876E+03  0.00000000000E+00 0. -1.
         21    1    1    2  505  502 -0.51921287080E+02 -0.45500657402E+02 -0.12701877776E+03  0.14456797633E+03  0.00000000000E+00 0. -1.
         21    1    1    2  506  505 -0.86275264054E+01 -0.37650937423E+02  0.71265854388E+01  0.39278690415E+02  0.00000000000E+00 0. -1.
<scales pt_clust_3="14000.00000" pt_clust_4="102.36225" pt_clust_5="76.07572" pt_clust_6="38.62677"></scales>
<clustering>
<clus scale="   38.627">  1  6  2 -1</clus>
<clus scale="   76.076">  2  5  1 -1</clus>
<clus scale="  102.362">  1  4  2 -1</clus>
<clus scale="   38.627">  1  3  2 -1</clus>
</clustering>
</event>
<event>
 6    0  0.2908518E+002  0.3319185E+03  0.7546771E-02  0.1070291E+00
         21   -1    0    0  505  501  0.00000000000E+00  0.00000000000E+00  0.45575551725E+03  0.45575551725E+03  0.00000000000E+00 0.  1.
         21   -1    0    0  506  502 -0.00000000000E+00 -0.00000000000E+00 -0.62332426490E+03  0.62332426490E+03  0.00000000000E+00 0.  1.
         21    1    1    2  503  502 -0.95440546763E+02 -0.14740485028E+03 -0.91614239623E+02  0.19806629384E+03  0.00000000000E+00 0.  1.
         21    1    1    2  504  501  0.18005993368E+02  0.16463878934E+03  0.17852904046E+03  0.24352159050E+03  0.00000000000E+00 0.  1.
         21    1    1    2  505  503 -0.11846367992E+03 -0.21074209714E+03  0.27560138909E+02  0.24332167233E+03  0.00000000000E+00 0.  1.
         21    1    1    2  506  504  0.19589823332E+03  0.19350815808E+03 -0.28204368739E+03  0.39417022548E+03  0.00000000000E+00 0.  1.
<scales pt_clust_3="110.12555" pt_clust_4="165.62049" pt_clust_5="110.12555" pt_clust_6="305.73475"></scales>
<clustering>
<clus scale="  110.126">  3  5 -1 -1</clus>
<clus scale="  165.620">  1  4  2 -1</clus>
<clus scale="  305.735">  2  6  1 -1</clus>
<clus scale="  165.620">  1  3  2 -1</clus>
</clustering>
</event>
<event>
 6    0  0.2908518E+002  0.8727982E+02  0.7546771E-02  0.1309576E+00
         21   -1    0    0  505  501  0.00000000000E+00  0.00000000000E+00  0.83836833602E+02  0.83836833602E+02  0.00000000000E+00 0.  1.
         21   -1    0    0  503  502 -0.00000000000E+00 -0.00000000000E+00 -0.31791431208E+03  0.31791431208E+03  0.00000000000E+00 0.  1.
         21    1    1    2  503  506  0.43057145830E+02  0.32639858990E+02 -0.65493031208E+02  0.84903564935E+02  0.00000000000E+00 0. -1.
         21    1    1    2  504  502 -0.39871636649E+02  0.44196160672E+01 -0.77807000880E+02  0.87539761258E+02  0.00000000000E+00 0.  1.
         21    1    1    2  505  504 -0.69019454473E+02 -0.55198634522E+02 -0.12487202894E+03  0.15298234525E+03  0.00000000000E+00 0.  1.
         21    1    1    2  506  501  0.65833945292E+02  0.18139159465E+02  0.34094582544E+02  0.76325474237E+02  0.00000000000E+00 0.  1.
<scales pt_clust_3="54.03035" pt_clust_4="32.56514" pt_clust_5="32.56514" pt_clust_6="72.67359"></scales>
<clustering>
<clus scale="   32.565">  4  5 -1 -1</clus>
<clus scale="   54.030">  2  3  1 -1</clus>
<clus scale="   72.674">  1  6  2 -1</clus>
<clus scale="   72.674">  1  3  2 -1</clus>
</clustering>
</event>
<event>
 6    0  0.2908518E+002  0.8883775E+02  0.7546771E-02  0.1305691E+00
         21   -1    0    0  503  501  0.00000000000E+00  0.00000000000E+00  0.12055900277E+04  0.12055900277E+04  0.00000000000E+00 0.  1.
         21   -1    0    0  505  502 -0.00000000000E+00 -0.00000000000E+00 -0.13529940020E+03  0.13529940020E+03  0.00000000000E+00 0. -1.
         21    1    1    2  503  506  0.32679329863E+02  0.11459790007E+03 -0.65422334749E+02  0.13594373536E+03  0.00000000000E+00 0. -1.
         21    1    1    2  504  501 -0.60520491992E+02 -0.17397301456E+02  0.10608967898E+04  0.10627640353E+04  0.00000000000E+00 0.  1.
         21    1    1    2  505  504 -0.14260274255E+02 -0.62792997567E+02  0.53725942461E+02  0.83861748483E+02  0.00000000000E+00 0.  1.
         21    1    1    2  506  502  0.42101436384E+02 -0.34407601046E+02  0.21090229919E+02  0.58319908722E+02  0.00000000000E+00 0.  1.
<scales pt_clust_3="14000.00000" pt_clust_4="62.72472" pt_clust_5="88.83775" pt_clust_6="54.37292"></scales>
<clustering>
<clus scale="   54.373">  2  6  1 -1</clus>
<clus scale="   62.725">  1  4  2 -1</clus>
<clus scale="   88.838">  1  5  2 -1</clus>
<clus scale="   62.725">  1  3  2 -1</clus>
</clustering>
</event>
<event>
 6    0  0.2908518E+002  0.1041478E+03  0.7546771E-02  0.1271808E+00
         21   -1    0    0  504  501  0.00000000000E+00  0.00000000000E+00  0.15683926781E+03  0.15683926781E+03  0.00000000000E+00 0.  1.
         21   -1    0    0  505  502 -0.00000000000E+00 -0.00000000000E+00 -0.16285863128E+03  0.16285863128E+03  0.00000000000E+00 0.  1.
         21    1    1    2  503  506 -0.20326170045E+02 -0.29425000734E+02  0.54483659731E+01  0.36175524166E+02  0.00000000000E+00 0.  1.
         21    1    1    2  504  503 -0.41928471327E+02 -0.65406846986E+01 -0.63137411419E+01  0.42902687460E+02  0.00000000000E+00 0.  1.
         21    1    1    2  505  501  0.79531838273E+02  0.10237350170E+03  0.62800336536E+02  0.14404696949E+03  0.00000000000E+00 0.  1.
         21    1    1    2  506  502 -0.17277196902E+02 -0.66407816265E+02 -0.67954324835E+02  0.96572717978E+02  0.00000000000E+00 0.  1.
<scales pt_clust_3="30.21722" pt_clust_4="30.21722" pt_clust_5="98.80955" pt_clust_6="68.61851"></scales>
<clustering>
<clus scale="   30.217">  3  4 -1 -1</clus>
<clus scale="   68.619">  2  6  1 -1</clus>
<clus scale="   98.810">  2  5  1 -1</clus>
<clus scale="  104.148">  1  3  2 -1</clus>
</clustering>
</event>
<event>
 6    0  0.2908518E+002  0.7276547E+02  0.7546771E-02  0.1350934E+00
         21   -1    0    0  504  501  0.00000000000E+00  0.00000000000E+00  0.14330041523E+04  0.14330041523E+04  0.00000000000E+00 0.  1.
         21   -1    0    0  505  502 -0.00000000000E+00 -0.00000000000E+00 -0.23918387607E+02  0.23918387607E+02  0.00000000000E+00 0. -1.
         21    1    1    2  503  501  0.40600315766E+02 -0.38740280433E+02  0.12926002978E+03  0.14091611075E+03  0.00000000000E+00 0. -1.
         21    1    1    2  504  506  0.51444189940E+02  0.40438087459E+02  0.10047014791E+04  0.10068300779E+04  0.00000000000E+00 0.  1.
         21    1    1    2  505  503  0.20705548027E+01 -0.33502519432E+02  0.31320551180E+02  0.45909508075E+02  0.00000000000E+00 0. -1.
         21    1    1    2  506  502 -0.94115060509E+02  0.31804712406E+02  0.24380370463E+03  0.26326684321E+03  0.00000000000E+00 0. -1.
<scales pt_clust_3="14000.00000" pt_clust_4="64.23807" pt_clust_5="33.56644" pt_clust_6="72.76547"></scales>
<clustering>
<clus scale="   33.566">  2  5  1 -1</clus>
<clus scale="   64.238">  1  4  2 -1</clus>
<clus scale="   72.765">  1  6  2 -1</clus>
<clus scale="   64.238">  1  3  2 -1</clus>
</clustering>
</event>
<event>
 6    0  0.2908518E+002  0.1014549E+03  0.7546771E-02  0.1277266E+00
         21   -1    0    0  504  501  0.00000000000E+00  0.00000000000E+00  0.77900684621E+03  0.77900684621E+03  0.00000000000E+00 0.  1.
         21   -1    0    0  506  502 -0.00000000000E+00 -0.00000000000E+00 -0.58447307516E+03  0.58447307516E+03  0.00000000000E+00 0.  1.
         21    1    1    2  503  505 -0.66850576661E+02 -0.94584970403E+02 -0.21042669368E+03  0.24019723071E+03  0.00000000000E+00 0.  1.
         21    1    1    2  504  502 -0.17204359331E+02  0.54108230624E+02  0.62610076833E+00  0.56781005657E+02  0.00000000000E+00 0.  1.
         21    1    1    2  505  501  0.20256064102E+02 -0.30047167577E+02  0.72812910829E+03  0.72903027287E+03  0.00000000000E+00 0.  1.
         21    1    1    2  506  503  0.63798871889E+02  0.70523907356E+02 -0.32379474433E+03  0.33747141215E+03  0.00000000000E+00 0.  1.
<scales pt_clust_3="14000.00000" pt_clust_4="37.43767" pt_clust_5="36.23728" pt_clust_6="101.45491"></scales>
<clustering>
<clus scale="   36.237">  1  5  2 -1</clus>
<clus scale="   37.438">  1  4  2 -1</clus>
<clus scale="  101.455">  2  6  1 -1</clus>
<clus scale="   36.237">  1  3  2 -1</clus>
</clustering>
</event>
<event>
 6    0  0.2908518E+002  0.9645213E+02  0.7546771E-02  0.1287939E+00
         21   -1    0    0  503  501  0.00000000000E+00  0.00000000000E+00  0.89921528171E+02  0.89921528171E+02  0.00000000000E+00 0.  1.
         21   -1    0    0  505  502 -0.00000000000E+00 -0.00000000000E+00 -0.28372381723E+03  0.28372381723E+03  0.00000000000E+00 0.  1.
         21    1    1    2  503  506  0.43279189474E+02  0.20981083001E+02 -0.51916669124E+01  0.48376104543E+02  0.00000000000E+00 0.  1.
         21    1    1    2  504  502 -0.56371217395E+02 -0.88599528277E+02 -0.17473701226E+03  0.20386420484E+03  0.00000000000E+00 0.  1.
         21    1    1    2  505  501 -0.20176361120E+02  0.77431926451E+02  0.79716108774E+01  0.80413527232E+02  0.00000000000E+00 0.  1.
         21    1    1    2  506  504  0.33268389040E+02 -0.98134811754E+01 -0.21845220762E+02  0.40991508782E+02  0.00000000000E+00 0.  1.
<scales pt_clust_3="30.27931" pt_clust_4="89.61966" pt_clust_5="80.01743" pt_clust_6="30.27931"></scales>
<clustering>
<clus scale="   30.279">  3  6 -1 -1</clus>
<clus scale="   80.017">  1  5  2 -1</clus>
<clus scale="   89.620">  2  4  1 -1</clus>
<clus scale="   80.017">  1  3  2 -1</clus>
</clustering>
</event>
<event>
 6    0  0.2908518E+002  0.8634753E+02  0.7546771E-02  0.1311946E+00
         21   -1    0    0  504  501  0.00000000000E+00  0.00000000000E+00  0.27998997729E+03  0.27998997729E+03  0.00000000000E+00 0. -1.
         21   -1    0    0  505  502 -0.00000000000E+00 -0.00000000000E+00 -0.11644061668E+03  0.11644061668E+03  0.00000000000E+00 0.  1.
         21    1    1    2  503  502  0.67713962710E+02 -0.23933258335E+01 -0.64330699595E+02  0.93430978079E+02  0.00000000000E+00 0.  1.
         21    1    1    2  504  503  0.83099024493E+01 -0.49086207859E+02  0.54667670090E+02  0.73939599902E+02  0.00000000000E+00 0. -1.
         21    1    1    2  505  506  0.20448541556E+02  0.30305621441E+02  0.93552157956E+01  0.37737164775E+02  0.00000000000E+00 0.  1.
         21    1    1    2  506  501 -0.96472406714E+02  0.21173912251E+02  0.16385717433E+03  0.19132285121E+03  0.00000000000E+00 0. -1.
<scales pt_clust_3="86.34753" pt_clust_4="47.35006" pt_clust_5="36.55918" pt_clust_6="14000.00000"></scales>
<clustering>
<clus scale="   36.559">  2  5  1 -1</clus>
<clus scale="   47.350">  1  4  2 -1</clus>
<clus scale="   86.348">  2  3  1 -1</clus>
<clus scale="   47.350">  1  3  2 -1</clus>
</clustering>
</event>
<event>
 6    0  0.2908518E+002  0.2225697E+03  0.7546771E-02  0.1131982E+00
         21   -1    0    0  502  501  0.00000000000E+00  0.00000000000E+00  0.11600099179E+03  0.11600099179E+03  0.00000000000E+00 0.  1.
         21   -1    0    0  504  502 -0.00000000000E+00 -0.00000000000E+00 -0.11109664930E+04  0.11109664930E+04  0.00000000000E+00 0. -1.
         21    1    1    2  503  505 -0.85154023848E+02 -0.63005818481E+02 -0.30282485171E+03  0.32081744304E+03  0.00000000000E+00 0. -1.
         21    1    1    2  504  503 -0.54251339851E+02  0.26592162910E+02 -0.11124319317E+03  0.12659146508E+03  0.00000000000E+00 0.  1.
         21    1    1    2  505  506 -0.50190804848E+02 -0.43543920334E+02 -0.56962067973E+03  0.57348313721E+03  0.00000000000E+00 0. -1.
         21    1    1    2  506  501  0.18959616855E+03  0.79957575904E+02 -0.11276776632E+02  0.20607543950E+03  0.00000000000E+00 0.  1.
<scales pt_clust_3="81.54726" pt_clust_4="60.41813" pt_clust_5="81.54726" pt_clust_6="201.48451"></scales>
<clustering>
<clus scale="   60.418">  2  4  1 -1</clus>
<clus scale="   81.547">  3  5 -1 -1</clus>
<clus scale="  201.485">  1  6  2 -1</clus>
<clus scale="  201.485">  1  3  2 -1</clus>
</clustering>
</event>
<event>
 6    0  0.2908518E+002  0.9848417E+02  0.7546771E-02  0.1283516E+00
         21   -1    0    0  505  501  0.00000000000E+00  0.00000000000E+00  0.33711481788E+02  0.33711481788E+02  0.00000000000E+00 0. -1.
         21   -1    0    0  506  502 -0.00000000000E+00 -0.00000000000E+00 -0.93328417449E+03  0.93328417449E+03  0.00000000000E+00 0.  1.
         21    1    1    2  503  501 -0.31231441840E+01 -0.35001643594E+02 -0.65934363844E+02  0.74714184860E+02  0.00000000000E+00 0. -1.
         21    1    1    2  504  502  0.65572678243E+02 -0.12900016795E+02 -0.59331320252E+03  0.59706510772E+03  0.00000000000E+00 0.  1.
         21    1    1    2  505  504 -0.80208793294E+02  0.79999654340E+02 -0.10311264625E+03  0.15318489819E+03  0.00000000000E+00 0. -1.
         21    1    1    2  506  503  0.17759259235E+02 -0.32097993951E+02 -0.13721248008E+03  0.14203146551E+03  0.00000000000E+00 0. -1.
<scales pt_clust_3="30.84931" pt_clust_4="66.82953" pt_clust_5="93.30419" pt_clust_6="30.84931"></scales>
<clustering>
<clus scale="   30.849">  3  6 -1 -1</clus>
<clus scale="   66.830">  2  4  1 -1</clus>
<clus scale="   93.304">  1  5  2 -1</clus>
<clus scale="   93.304">  1  3  2 -1</clus>
</clustering>
</event>
<event>
 6    0  0.2908518E+002  0.1665391E+03  0.7546771E-02  0.1181506E+00
         21   -1    0    0  503  501  0.00000000000E+00  0.00000000000E+00  0.52992791676E+03  0.52992791676E+03  0.00000000000E+00 0. -1.
         21   -1    0    0  504  502 -0.00000000000E+00 -0.00000000000E+00 -0.86964812093E+03  0.86964812093E+03  0.00000000000E+00 0. -1.
         21    1    1    2  503  505 -0.12385696755E+02  0.11396065800E+03  0.46890853701E+03  0.48271694930E+03  0.00000000000E+00 0. -1.
         21    1    1    2  504  501 -0.14701971969E+03 -0.83626996427E+02 -0.12036631837E+03  0.20759653925E+03  0.00000000000E+00 0. -1.
         21    1    1    2  505  506  0.10308907173E+03 -0.37380512021E+02 -0.36725882642E+03  0.38328019121E+03  0.00000000000E+00 0. -1.
         21    1    1    2  506  502  0.56316344721E+02  0.70468504525E+01 -0.32100359640E+03  0.32598235793E+03  0.00000000000E+00 0. -1.
<scales pt_clust_3="114.63175" pt_clust_4="157.21732" pt_clust_5="39.52249" pt_clust_6="39.52249"></scales>
<clustering>
<clus scale="   39.522">  5  6 -1 -1</clus>
<clus scale="  114.632">  1  3  2 -1</clus>
<clus scale="  157.217">  1  4  2 -1</clus>
<clus scale="  114.632">  1  3  2 -1</clus>
</clustering>
</event>
<event>
 6    0  0.2908518E+002  0.1772620E+03  0.7546771E-02  0.1170479E+00
         21   -1    0    0  505  501  0.00000000000E+00  0.00000000000E+00  0.17112815637E+03  0.17112815637E+03  0.00000000000E+00 0.  1.
         21   -1    0    0  504  502 -0.00000000000E+00 -0.00000000000E+00 -0.38280046413E+03  0.38280046413E+03  0.00000000000E+00 0.  1.
         21    1    1    2  503  501  0.11229534124E+03 -0.62874263909E+02 -0.26053022167E+02  0.13130946916E+03  0.00000000000E+00 0.  1.
         21    1    1    2  504  503 -0.27217809618E+02 -0.14727818339E+03 -0.72097030299E+02  0.16622170208E+03  0.00000000000E+00 0.  1.
         21    1    1    2  505  506 -0.51656133066E+02  0.12623354736E+03 -0.88773935545E+02  0.16273928903E+03  0.00000000000E+00 0.  1.
         21    1    1    2  506  502 -0.33421398554E+02  0.83918899944E+02 -0.24748319751E+02  0.93658160241E+02  0.00000000000E+00 0.  1.
<scales pt_clust_3="128.69894" pt_clust_4="173.12339" pt_clust_5="30.98972" pt_clust_6="30.98972"></scales>
<clustering>
<clus scale="   30.990">  5  6 -1 -1</clus>
<clus scale="  128.699">  1  3  2 -1</clus>
<clus scale="  173.123">  2  4  1 -1</clus>
<clus scale="  128.699">  1  3  2 -1</clus>
</clustering>
</event>
<event>
 6    0  0.2908518E+002  0.8227632E+02  0.7546771E-02  0.1322713E+00
         21   -1    0    0  503  501  0.00000000000E+00  0.00000000000E+00  0.14555598388E+04  0.14555598388E+04  0.00000000000E+00 0.  1.
         21   -1    0    0  506  502 -0.00000000000E+00 -0.00000000000E+00 -0.11351339017E+04  0.11351339017E+04  0.00000000000E+00 0. -1.
         21    1    1    2  503  504  0.31079591146E+02  0.91912365008E+02 -0.76927108179E+02  0.12382085366E+03  0.00000000000E+00 0.  1.
         21    1    1    2  504  502 -0.23422147799E+02 -0.83808859129E+02 -0.10089503208E+04  0.10126960411E+04  0.00000000000E+00 0. -1.
         21    1    1    2  505  501  0.17141657098E+02 -0.35573583937E+02  0.14154939212E+04  0.14160446169E+04  0.00000000000E+00 0.  1.
         21    1    1    2  506  505 -0.24799100445E+02  0.27470078058E+02 -0.91905550701E+01  0.38132228808E+02  0.00000000000E+00 0.  1.
<scales pt_clust_3="82.27632" pt_clust_4="14000.00000" pt_clust_5="39.47938" pt_clust_6="37.00811"></scales>
<clustering>
<clus scale="   37.008">  2  6  1 -1</clus>
<clus scale="   39.479">  1  5  2 -1</clus>
<clus scale="   82.276">  1  3  2 -1</clus>
<clus scale="   39.479">  1  3  2 -1</clus>
</clustering>
</event>
<event>
 6    0  0.2908518E+002  0.1570313E+03  0.7546771E-02  0.1192090E+00
         21   -1    0    0  505  501  0.00000000000E+00  0.00000000000E+00  0.14062472010E+03  0.14062472010E+03  0.00000000000E+00 0. -1.
         21   -1    0    0  503  502 -0.00000000000E+00 -0.00000000000E+00 -0.63463288880E+03  0.63463288880E+03  0.00000000000E+00 0. -1.
         21    1    1    2  503  504 -0.14603981563E+03 -0.16359397741E+02 -0.70078745612E+01  0.14712024996E+03  0.00000000000E+00 0. -1.
         21    1    1    2  504  501 -0.45651153349E+02  0.95131625499E+01  0.33300485907E+02  0.57301399856E+02  0.00000000000E+00 0. -1.
         21    1    1    2  505  506  0.53174323695E+02  0.11552640192E+02 -0.31736663806E+02  0.62993555427E+02  0.00000000000E+00 0.  1.
         21    1    1    2  506  502  0.13851664528E+03 -0.47064050005E+01 -0.48856411624E+03  0.50784240365E+03  0.00000000000E+00 0. -1.
<scales pt_clust_3="36.95886" pt_clust_4="36.95886" pt_clust_5="54.41482" pt_clust_6="142.66824"></scales>
<clustering>
<clus scale="   36.959">  3  4 -1 -1</clus>
<clus scale="   54.415">  1  5  2 -1</clus>
<clus scale="  142.668">  2  6  1 -1</clus>
<clus scale="   54.415">  1  3  2 -1</clus>
</clustering>
</event>
<event>
 6    0  0.2908518E+002  0.1243327E+03  0.7546771E-02  0.1236116E+00
         21   -1    0    0  504  501  0.00000000000E+00  0.00000000000E+00  0.58735432117E+03  0.58735432117E+03  0.00000000000E+00 0. -1.
         21   -1    0    0  505  502 -0.00000000000E+00 -0.00000000000E+00 -0.11181814119E+03  0.11181814119E+03  0.00000000000E+00 0. -1.
         21    1    1    2  503  501 -0.11298569689E+03  0.64980255743E+02  0.45934119942E+03  0.47747517090E+03  0.00000000000E+00 0. -1.
         21    1    1    2  504  506  0.33446794896E+02 -0.43796315655E+02  0.23106174942E+02  0.59755340131E+02  0.00000000000E+00 0.  1.
         21    1    1    2  505  503  0.10368613602E+03  0.23434451095E+02 -0.22916738658E+02  0.10874357550E+03  0.00000000000E+00 0. -1.
         21    1    1    2  506  502 -0.24147234031E+02 -0.44618391184E+02  0.16005544269E+02  0.53198375826E+02  0.00000000000E+00 0. -1.
<scales pt_clust_3="14000.00000" pt_clust_4="59.89144" pt_clust_5="124.33267" pt_clust_6="50.73352"></scales>
<clustering>
<clus scale="   50.734">  2  6  1 -1</clus>
<clus scale="   59.891">  2  4  1 -1</clus>
<clus scale="  124.333">  2  5  1 -1</clus>
<clus scale="  124.333">  1  3  2 -1</clus>
</clustering>
</event>
<event>
 6    0  0.2908518E+002  0.2629702E+03  0.7546771E-02  0.1105372E+00
         21   -1    0    0  502  501  0.00000000000E+00  0.00000000000E+00  0.57684874077E+03  0.57684874077E+03  0.00000000000E+00 0.  1.
         21   -1    0    0  503  502 -0.00000000000E+00 -0.00000000000E+00 -0.27480940599E+03  0.27480940599E+03  0.00000000000E+00 0.  1.
         21    1    1    2  503  505  0.10125156759E+03 -0.11860006254E+03  0.11780115891E+02  0.15638614358E+03  0.00000000000E+00 0.  1.
         21    1    1    2  504  501 -0.27393246551E+03  0.91971666801E+02  0.39211095067E+03  0.48708190358E+03  0.00000000000E+00 0.  1.
         21    1    1    2  505  506  0.12368815997E+03 -0.14072014932E+01 -0.81755105636E+02  0.14827217685E+03  0.00000000000E+00 0.  1.
         21    1    1    2  506  504  0.48992737956E+02  0.28035597230E+02 -0.20096626146E+02  0.59917922752E+02  0.00000000000E+00 0.  1.
<scales pt_clust_3="155.94183" pt_clust_4="258.28620" pt_clust_5="33.37938" pt_clust_6="33.37938"></scales>
<clustering>
<clus scale="   33.379">  5  6 -1 -1</clus>
<clus scale="  155.942">  2  3  1 -1</clus>
<clus scale="  258.286">  1  4  2 -1</clus>
<clus scale="  258.286">  1  3  2 -1</clus>
</clustering>
</event>
<event>
 6    0  0.2908518E+002  0.1525905E+03  0.7546771E-02  0.1197325E+00
         21   -1    0    0  503  501  0.00000000000E+00  0.00000000000E+00  0.43266541176E+03  0.43266541176E+03  0.00000000000E+00 0.  1.
         21   -1    0    0  505  502 -0.00000000000E+00 -0.00000000000E+00 -0.29636838197E+03  0.29636838197E+03  0.00000000000E+00 0.  1.
         21    1    1    2  503  504  0.14609353594E+02 -0.37853199791E+02  0.34020862958E+03  0.34261962814E+03  0.00000000000E+00 0.  1.
         21    1    1    2  504  506  0.18912936740E+02  0.59151267401E+02 -0.48856663380E+02  0.79016107015E+02  0.00000000000E+00 0.  1.
         21    1    1    2  505  501 -0.97686247384E+02 -0.85267500369E+02 -0.21716920688E+01  0.12968371445E+03  0.00000000000E+00 0.  1.
         21    1    1    2  506  502  0.64163957051E+02  0.63969432759E+02 -0.15288324434E+03  0.17771434413E+03  0.00000000000E+00 0.  1.
<scales pt_clust_3="40.57460" pt_clust_4="45.05813" pt_clust_5="141.89010" pt_clust_6="45.05813"></scales>
<clustering>
<clus scale="   40.575">  1  3  2 -1</clus>
<clus scale="   45.058">  4  6 -1 -1</clus>
<clus scale="  141.890">  1  5  2 -1</clus>
<clus scale="   40.575">  1  3  2 -1</clus>
</clustering>
</event>
<event>
 6    0  0.2908518E+002  0.2324110E+03  0.7546771E-02  0.1124954E+00
         21   -1    0    0  503  501  0.00000000000E+00  0.00000000000E+00  0.97105693504E+03  0.97105693504E+03  0.00000000000E+00 0. -1.
         21   -1    0    0  505  502 -0.00000000000E+00 -0.00000000000E+00 -0.90171380631E+02  0.90171380631E+02  0.00000000000E+00 0. -1.
         21    1    1    2  503  506 -0.14845841174E+02 -0.35705276979E+02  0.34766132669E+03  0.34980517989E+03  0.00000000000E+00 0. -1.
         21    1    1    2  504  501  0.33054328040E+02  0.19623387156E+03  0.17102790834E+03  0.26239448618E+03  0.00000000000E+00 0. -1.
         21    1    1    2  505  504  0.20323065009E+02  0.32122790955E+02  0.11976086425E+01  0.38030710440E+02  0.00000000000E+00 0. -1.
         21    1    1    2  506  502 -0.38531551875E+02 -0.19265138553E+03  0.36099871073E+03  0.41099793915E+03  0.00000000000E+00 0. -1.
<scales pt_clust_3="38.66867" pt_clust_4="32.69956" pt_clust_5="32.69956" pt_clust_6="220.03894"></scales>
<clustering>
<clus scale="   32.700">  4  5 -1 -1</clus>
<clus scale="   38.669">  1  3  2 -1</clus>
<clus scale="  220.039">  1  6  2 -1</clus>
<clus scale="   38.669">  1  3  2 -1</clus>
</clustering>
</event>
<event>
 6    0  0.2908518E+002  0.5568651E+02  0.7546771E-02  0.1416880E+00
         21   -1    0    0  505  501  0.00000000000E+00  0.00000000000E+00  0.11205081480E+04  0.11205081480E+04  0.00000000000E+00 0.  1.
         21   -1    0    0  506  502 -0.00000000000E+00 -0.00000000000E+00 -0.50494149669E+03  0.50494149669E+03  0.00000000000E+00 0.  1.
         21    1    1    2  503  502  0.47843191883E+02 -0.64790703873E+02 -0.45706093354E+02  0.92605903093E+02  0.00000000000E+00 0.  1.
         21    1    1    2  504  501 -0.50818354508E+02 -0.15170600636E+02  0.59277206958E+02  0.79538918419E+02  0.00000000000E+00 0.  1.
         21    1    1    2  505  503  0.48442468361E+02  0.50467005324E+02  0.10247277443E+04  0.10271127208E+04  0.00000000000E+00 0.  1.
         21    1    1    2  506  504 -0.45467305736E+02  0.29494299185E+02 -0.42273220661E+03  0.42619210232E+03  0.00000000000E+00 0.  1.
<scales pt_clust_3="55.68651" pt_clust_4="53.03444" pt_clust_5="35.67864" pt_clust_6="14000.00000"></scales>
<clustering>
<clus scale="   53.034">  1  4  2 -1</clus>
<clus scale="   35.679">  1  5  2 -1</clus>
<clus scale="   55.687">  1  3  2 -1</clus>
<clus scale="   53.034">  1  3  2 -1</clus>
</clustering>
</event>
<event>
 6    0  0.2908518E+002  0.1103007E+03  0.7546771E-02  0.1260014E+00
         21   -1    0    0  504  501  0.00000000000E+00  0.00000000000E+00  0.19314503809E+04  0.19314503809E+04  0.00000000000E+00 0. -1.
         21   -1    0    0  506  502 -0.00000000000E+00 -0.00000000000E+00 -0.28233202566E+03  0.28233202566E+03  0.00000000000E+00 0.  1.
         21    1    1    2  503  505 -0.13038636375E+03 -0.31522875654E+02  0.88001988819E+01  0.13443116842E+03  0.00000000000E+00 0.  1.
         21    1    1    2  504  503 -0.10166629636E+02  0.94594142295E+02 -0.15549272931E+02  0.96401203329E+02  0.00000000000E+00 0.  1.
         21    1    1    2  505  502  0.10519601549E+03  0.20883296827E+01 -0.14577656115E+03  0.17978144670E+03  0.00000000000E+00 0.  1.
         21    1    1    2  506  501  0.35356977898E+02 -0.65159596323E+02  0.18016439905E+04  0.18031685881E+04  0.00000000000E+00 0. -1.
<scales pt_clust_3="110.30068" pt_clust_4="74.18701" pt_clust_5="14000.00000" pt_clust_6="74.13426"></scales>
<clustering>
<clus scale="   74.134">  1  6  2 -1</clus>
<clus scale="   74.187">  1  4  2 -1</clus>
<clus scale="  110.301">  1  3  2 -1</clus>
<clus scale="   74.134">  1  3  2 -1</clus>
</clustering>
</event>
<event>
 6    0  0.2908518E+002  0.1217964E+03  0.7546771E-02  0.1240163E+00
         21   -1    0    0  506  501  0.00000000000E+00  0.00000000000E+00  0.11245631781E+04  0.11245631781E+04  0.00000000000E+00 0.  1.
         21   -1    0    0  505  502 -0.00000000000E+00 -0.00000000000E+00 -0.42731778191E+02  0.42731778191E+02  0.00000000000E+00 0.  1.
         21    1    1    2  503  501 -0.46086134248E+02  0.10045140124E+03  0.81740578437E+03  0.82484339853E+03  0.00000000000E+00 0.  1.
         21    1    1    2  504  502  0.65087900229E+02 -0.21776205875E+02  0.78676115175E+02  0.10440579006E+03  0.00000000000E+00 0.  1.
         21    1    1    2  505  503 -0.65077401633E+02 -0.13288802530E+02  0.10601692014E+03  0.12510494727E+03  0.00000000000E+00 0.  1.
         21    1    1    2  506  504  0.46075635653E+02 -0.65386392835E+02  0.79732580207E+02  0.11294082041E+03  0.00000000000E+00 0.  1.
<scales pt_clust_3="112.44015" pt_clust_4="43.36427" pt_clust_5="66.42033" pt_clust_6="43.36427"></scales>
<clustering>
<clus scale="   43.364">  4  6 -1 -1</clus>
<clus scale="   66.420">  2  5  1 -1</clus>
<clus scale="  112.440">  1  3  2 -1</clus>
<clus scale="  112.440">  1  3  2 -1</clus>
</clustering>
</event>
<event>
 6    0  0.2908518E+002  0.1092768E+03  0.7546771E-02  0.1261915E+00
         21   -1    0    0  503  501  0.00000000000E+00  0.00000000000E+00  0.12950398748E+03  0.12950398748E+03  0.00000000000E+00 0.  1.
         21   -1    0    0  504  502 -0.00000000000E+00 -0.00000000000E+00 -0.72621387696E+03  0.72621387696E+03  0.00000000000E+00 0.  1.
         21    1    1    2  503  506 -0.51963249098E+01  0.58816294607E+02 -0.61573809972E+02  0.85309392087E+02  0.00000000000E+00 0.  1.
         21    1    1    2  504  505  0.55266148859E+02  0.17200600806E+02 -0.21260648122E+03  0.22034455685E+03  0.00000000000E+00 0.  1.
         21    1    1    2  505  501 -0.54153341689E+02 -0.10606766062E+03  0.81876490927E+02  0.14452229175E+03  0.00000000000E+00 0.  1.
         21    1    1    2  506  502  0.40835177399E+01  0.30050765206E+02 -0.40440608922E+03  0.40554162376E+03  0.00000000000E+00 0.  1.
<scales pt_clust_3="65.82464" pt_clust_4="109.27676" pt_clust_5="14000.00000" pt_clust_6="30.32695"></scales>
<clustering>
<clus scale="   30.327">  2  6  1 -1</clus>
<clus scale="   65.825">  2  3  1 -1</clus>
<clus scale="  109.277">  2  4  1 -1</clus>
<clus scale="  109.277">  1  3  2 -1</clus>
</clustering>
</event>
<event>
 6    0  0.2908518E+002  0.2050493E+03  0.7546771E-02  0.1145547E+00
         21   -1    0    0  503  501  0.00000000000E+00  0.00000000000E+00  0.12852380547E+04  0.12852380547E+04  0.00000000000E+00 0.  1.
         21   -1    0    0  504  502 -0.00000000000E+00 -0.00000000000E+00 -0.35590778138E+03  0.35590778138E+03  0.00000000000E+00 0. -1.
         21    1    1    2  503  502 -0.75425096218E+02  0.64830838455E+02  0.10228895270E+04  0.10277134655E+04  0.00000000000E+00 0.  1.
         21    1    1    2  504  505  0.46027183269E+02 -0.31051241219E+02 -0.87342629575E+02  0.10349597153E+03  0.00000000000E+00 0.  1.
         21    1    1    2  505  506  0.16002661754E+03 -0.55037855599E+01 -0.21131805373E+03  0.26513040151E+03  0.00000000000E+00 0. -1.
         21    1    1    2  506  501 -0.13062870459E+03 -0.28275811677E+02  0.20510142958E+03  0.24480599748E+03  0.00000000000E+00 0. -1.
<scales pt_clust_3="99.45845" pt_clust_4="31.67116" pt_clust_5="31.67116" pt_clust_6="197.86981"></scales>
<clustering>
<clus scale="   31.671">  4  5 -1 -1</clus>
<clus scale="   99.458">  1  3  2 -1</clus>
<clus scale="  197.870">  1  6  2 -1</clus>
<clus scale="   99.458">  1  3  2 -1</clus>
</clustering>
</event>
<event>
 6    0  0.2908518E+002  0.1524783E+03  0.7546771E-02  0.1197460E+00
         21   -1    0    0  504  501  0.00000000000E+00  0.00000000000E+00  0.34826702046E+03  0.34826702046E+03  0.00000000000E+00 0.  1.
         21   -1    0    0  505  502 -0.00000000000E+00 -0.00000000000E+00 -0.70053718128E+03  0.70053718128E+03  0.00000000000E+00 0. -1.
         21    1    1    2  503  502 -0.63496045050E+02  0.76017009857E+02 -0.17110072057E+03  0.19770126480E+03  0.00000000000E+00 0.  1.
         21    1    1    2  504  503  0.70740836569E+02 -0.11197099607E+03  0.30231364242E+03  0.33005349311E+03  0.00000000000E+00 0.  1.
         21    1    1    2  505  506 -0.12885097040E+02  0.72704483499E+02 -0.47775840345E+03  0.48343051178E+03  0.00000000000E+00 0. -1.
         21    1    1    2  506  501  0.56403055208E+01 -0.36750497286E+02 -0.57246792143E+01  0.37618932058E+02  0.00000000000E+00 0.  1.
<scales pt_clust_3="152.47829" pt_clust_4="14000.00000" pt_clust_5="73.52022" pt_clust_6="37.18080"></scales>
<clustering>
<clus scale="   37.181">  1  6  2 -1</clus>
<clus scale="   73.520">  2  5  1 -1</clus>
<clus scale="  152.478">  2  3  1 -1</clus>
<clus scale="   37.181">  1  3  2 -1</clus>
</clustering>
</event>
<event>
 6    0  0.2908518E+002  0.5469391E+02  0.7546771E-02  0.1421552E+00
         21   -1    0    0  505  501  0.00000000000E+00  0.00000000000E+00  0.28516410729E+03  0.28516410729E+03  0.00000000000E+00 0. -1.
         21   -1    0    0  503  502 -0.00000000000E+00 -0.00000000000E+00 -0.16160074539E+04  0.16160074539E+04  0.00000000000E+00 0. -1.
         21    1    1    2  503  501  0.69983599280E+02 -0.60769686933E+02 -0.12161354065E+04  0.12196622426E+04  0.00000000000E+00 0. -1.
         21    1    1    2  504  502 -0.34184352300E+02  0.38004913864E+02 -0.61427930156E+02  0.79914542001E+02  0.00000000000E+00 0. -1.
         21    1    1    2  505  506 -0.21802839731E+02 -0.50098432954E+02  0.26715361362E+03  0.27268346132E+03  0.00000000000E+00 0. -1.
         21    1    1    2  506  504 -0.13996407248E+02  0.72863206023E+02 -0.32043362355E+03  0.32891131526E+03  0.00000000000E+00 0. -1.
<scales pt_clust_3="52.93747" pt_clust_4="51.11696" pt_clust_5="54.69391" pt_clust_6="14000.00000"></scales>
<clustering>
<clus scale="   51.117">  2  4  1 -1</clus>
<clus scale="   52.937">  2  3  1 -1</clus>
<clus scale="   54.694">  1  5  2 -1</clus>
<clus scale="   54.694">  1  3  2 -1</clus>
</clustering>
</event>
<event>
 6    0  0.2908518E+002  0.1251107E+03  0.7546771E-02  0.1234896E+00
         21   -1    0    0  506  501  0.00000000000E+00  0.00000000000E+00  0.14863603886E+03  0.14863603886E+03  0.00000000000E+00 0.  1.
         21   -1    0    0  505  502 -0.00000000000E+00 -0.00000000000E+00 -0.34593382157E+03  0.34593382157E+03  0.00000000000E+00 0. -1.
         21    1    1    2  503  504 -0.52599114892E+02 -0.61276055415E+01 -0.18599767813E+03  0.19338911734E+03  0.00000000000E+00 0. -1.
         21    1    1    2  504  501  0.40985536440E+01 -0.50628785261E+02  0.44032221371E+02  0.67222827655E+02  0.00000000000E+00 0. -1.
         21    1    1    2  505  503 -0.58841243879E+02 -0.14778775355E+02 -0.82230627781E+02  0.10218894425E+03  0.00000000000E+00 0. -1.
         21    1    1    2  506  502  0.10734180513E+03  0.71535166157E+02  0.26898301831E+02  0.13176897118E+03  0.00000000000E+00 0.  1.
<scales pt_clust_3="47.30681" pt_clust_4="50.79441" pt_clust_5="47.30681" pt_clust_6="114.40605"></scales>
<clustering>
<clus scale="   47.307">  3  5 -1 -1</clus>
<clus scale="   50.794">  1  4  2 -1</clus>
<clus scale="  114.406">  1  6  2 -1</clus>
<clus scale="   50.794">  1  3  2 -1</clus>
</clustering>
</event>
<event>
 6    0  0.2908518E+002  0.1954981E+03  0.7546771E-02  0.1153594E+00
         21   -1    0    0  506  501  0.00000000000E+00  0.00000000000E+00  0.26583321533E+03  0.26583321533E+03  0.00000000000E+00 0. -1.
         21   -1    0    0  501  502 -0.00000000000E+00 -0.00000000000E+00 -0.40917006107E+03  0.40917006107E+03  0.00000000000E+00 0. -1.
         21    1    1    2  503  504  0.24347557655E+02  0.11342190475E+03 -0.10207660909E+03  0.15452173363E+03  0.00000000000E+00 0. -1.
         21    1    1    2  504  502 -0.80416424710E+02 -0.13216617444E+03 -0.95085836749E+02  0.18159299375E+03  0.00000000000E+00 0. -1.
         21    1    1    2  505  503  0.77319559951E+02  0.83387237519E+02 -0.11202043832E+03  0.15962557544E+03  0.00000000000E+00 0. -1.
         21    1    1    2  506  505 -0.21250692896E+02 -0.64642967838E+02  0.16584603841E+03  0.17926297358E+03  0.00000000000E+00 0. -1.
<scales pt_clust_3="60.88001" pt_clust_4="185.57625" pt_clust_5="60.88001" pt_clust_6="68.04635"></scales>
<clustering>
<clus scale="   60.880">  3  5 -1 -1</clus>
<clus scale="   68.046">  1  6  2 -1</clus>
<clus scale="  185.576">  2  4  1 -1</clus>
<clus scale="   68.046">  1  3  2 -1</clus>
</clustering>
</event>
<event>
 6    0  0.2908518E+002  0.1141657E+03  0.7546771E-02  0.1253044E+00
         21   -1    0    0  504  501  0.00000000000E+00  0.00000000000E+00  0.75653539635E+03  0.75653539635E+03  0.00000000000E+00 0. -1.
         21   -1    0    0  506  502 -0.00000000000E+00 -0.00000000000E+00 -0.14546001061E+03  0.14546001061E+03  0.00000000000E+00 0. -1.
         21    1    1    2  503  501  0.60264975409E+02  0.56369873287E+02  0.10353771189E+03  0.13239897152E+03  0.00000000000E+00 0. -1.
         21    1    1    2  504  505 -0.64178192838E+02 -0.11415249738E+03  0.60533655290E+03  0.61933995137E+03  0.00000000000E+00 0. -1.
         21    1    1    2  505  502  0.49696116223E+02  0.36268410248E+02 -0.39694472905E+02  0.73217161436E+02  0.00000000000E+00 0. -1.
         21    1    1    2  506  503 -0.45782898794E+02  0.21514213841E+02 -0.58104406144E+02  0.77039322638E+02  0.00000000000E+00 0. -1.
<scales pt_clust_3="114.16575" pt_clust_4="14000.00000" pt_clust_5="54.42747" pt_clust_6="50.58592"></scales>
<clustering>
<clus scale="   50.586">  2  6  1 -1</clus>
<clus scale="   54.427">  2  5  1 -1</clus>
<clus scale="  114.166">  2  3  1 -1</clus>
<clus scale="  114.166">  1  3  2 -1</clus>
</clustering>
</event>
<event>
 6    0  0.2908518E+002  0.2170597E+03  0.7546771E-02  0.1136094E+00
         21   -1    0    0  505  501  0.00000000000E+00  0.00000000000E+00  0.22217142390E+03  0.22217142390E+03  0.00000000000E+00 0.  1.
         21   -1    0    0  503  502 -0.00000000000E+00 -0.00000000000E+00 -0.59656658549E+03  0.59656658549E+03  0.00000000000E+00 0. -1.
         21    1    1    2  503  504  0.62128954125E+02  0.16083474336E+02 -0.18598932467E+03  0.19675038496E+03  0.00000000000E+00 0.  1.
         21    1    1    2  504  501  0.19798902500E+02  0.16987862750E+03 -0.14319328770E+03  0.22305842791E+03  0.00000000000E+00 0.  1.
         21    1    1    2  505  506 -0.67587975259E+02 -0.22878095118E+03  0.91079439320E+02  0.25535137025E+03  0.00000000000E+00 0.  1.
         21    1    1    2  506  502 -0.14339881366E+02  0.42818849351E+02 -0.13629198853E+03  0.14357782627E+03  0.00000000000E+00 0. -1.
<scales pt_clust_3="65.63006" pt_clust_4="14000.00000" pt_clust_5="217.05973" pt_clust_6="45.15624"></scales>
<clustering>
<clus scale="   45.156">  2  6  1 -1</clus>
<clus scale="   65.630">  2  3  1 -1</clus>
<clus scale="  217.060">  1  5  2 -1</clus>
<clus scale="  217.060">  1  3  2 -1</clus>
</clustering>
</event>
<event>
 6    0  0.2908518E+002  0.9274551E+02  0.7546771E-02  0.1296336E+00
         21   -1    0    0  504  501  0.00000000000E+00  0.00000000000E+00  0.20400385511E+03  0.20400385511E+03  0.00000000000E+00 0.  1.
         21   -1    0    0  506  502 -0.00000000000E+00 -0.00000000000E+00 -0.21940171333E+04  0.21940171333E+04  0.00000000000E+00 0.  1.
         21    1    1    2  503  505  0.55548817440E+02  0.21190684390E+02 -0.11644584049E+04  0.11659751682E+04  0.00000000000E+00 0.  1.
         21    1    1    2  504  502 -0.10826325308E+03 -0.10085199832E+03 -0.66598608942E+03  0.68222395798E+03  0.00000000000E+00 0.  1.
         21    1    1    2  505  501  0.34141488377E+02  0.46763877319E+02  0.18979038661E+03  0.19842603736E+03  0.00000000000E+00 0.  1.
         21    1    1    2  506  503  0.18572947263E+02  0.32897436612E+02 -0.34935917053E+03  0.35139582487E+03  0.00000000000E+00 0.  1.
<scales pt_clust_3="92.74551" pt_clust_4="14000.00000" pt_clust_5="57.98867" pt_clust_6="37.77824"></scales>
<clustering>
<clus scale="   37.778">  2  6  1 -1</clus>
<clus scale="   57.989">  1  5  2 -1</clus>
<clus scale="   92.746">  2  3  1 -1</clus>
<clus scale="   57.989">  1  3  2 -1</clus>
</clustering>
</event>
<event>
 6    0  0.2908518E+002  0.1387692E+03  0.7546771E-02  0.1214995E+00
         21   -1    0    0  502  501  0.00000000000E+00  0.00000000000E+00  0.18233345624E+03  0.18233345624E+03  0.00000000000E+00 0.  1.
         21   -1    0    0  506  502 -0.00000000000E+00 -0.00000000000E+00 -0.35488183221E+03  0.35488183221E+03  0.00000000000E+00 0.  1.
         21    1    1    2  503  501  0.32446282687E+02 -0.12616660918E+03  0.11565331377E+03  0.17420236370E+03  0.00000000000E+00 0.  1.
         21    1    1    2  504  503 -0.45331910878E+02  0.31849983317E+02 -0.10527899079E+03  0.11896667383E+03  0.00000000000E+00 0.  1.
         21    1    1    2  505  504 -0.43456103542E+02  0.92469918604E+02 -0.13937140900E+03  0.17281061434E+03  0.00000000000E+00 0.  1.
         21    1    1    2  506  505  0.56341731732E+02  0.18467072629E+01 -0.43551289944E+02  0.71235636574E+02  0.00000000000E+00 0.  1.
<scales pt_clust_3="131.58829" pt_clust_4="32.44570" pt_clust_5="32.44570" pt_clust_6="56.37199"></scales>
<clustering>
<clus scale="   32.446">  4  5 -1 -1</clus>
<clus scale="   56.372">  2  6  1 -1</clus>
<clus scale="  131.588">  1  3  2 -1</clus>
<clus scale="  131.588">  1  3  2 -1</clus>
</clustering>
</event>
<event>
 6    0  0.2908518E+002  0.1157299E+03  0.7546771E-02  0.1250312E+00
         21   -1    0    0  503  501  0.00000000000E+00  0.00000000000E+00  0.84476823123E+02  0.84476823123E+02  0.00000000000E+00 0.  1.
         21   -1    0    0  506  502 -0.00000000000E+00 -0.00000000000E+00 -0.36965692209E+03  0.36965692209E+03  0.00000000000E+00 0.  1.
         21    1    1    2  503  502  0.12061686011E+03 -0.26254884097E+02 -0.18298311414E+03  0.22072735658E+03  0.00000000000E+00 0.  1.
         21    1    1    2  504  501 -0.29321611197E+02 -0.16102186843E+02  0.22010523642E+02  0.40043731786E+02  0.00000000000E+00 0.  1.
         21    1    1    2  505  504  0.15593511313E+02  0.37384771066E+02 -0.26075599422E+02  0.48173806035E+02  0.00000000000E+00 0.  1.
         21    1    1    2  506  505 -0.10688876022E+03  0.49722998744E+01 -0.98131909047E+02  0.14518885081E+03  0.00000000000E+00 0.  1.
<scales pt_clust_3="115.72988" pt_clust_4="33.45201" pt_clust_5="35.36499" pt_clust_6="14000.00000"></scales>
<clustering>
<clus scale="   33.452">  1  4  2 -1</clus>
<clus scale="   35.365">  1  5  2 -1</clus>
<clus scale="  115.730">  2  3  1 -1</clus>
<clus scale="   33.452">  1  3  2 -1</clus>
</clustering>
</event>
<event>
 6    0  0.2908518E+002  0.1317388E+03  0.7546771E-02  0.1224898E+00
         21   -1    0    0  504  501  0.00000000000E+00  0.00000000000E+00  0.75323155411E+02  0.75323155411E+02  0.00000000000E+00 0.  1.
         21   -1    0    0  506  502 -0.00000000000E+00 -0.00000000000E+00 -0.18862546697E+04  0.18862546697E+04  0.00000000000E+00 0.  1.
         21    1    1    2  503  501 -0.18524600705E+02 -0.37850353286E+02 -0.34913189679E+03  0.35166588039E+03  0.00000000000E+00 0. -1.
         21    1    1    2  504  502 -0.30938385375E+02  0.12580240891E+03  0.13142573745E+02  0.13021580941E+03  0.00000000000E+00 0.  1.
         21    1    1    2  505  503  0.15614133263E+02 -0.55998330821E+02 -0.45593348860E+03  0.45962480377E+03  0.00000000000E+00 0.  1.
         21    1    1    2  506  505  0.33848852817E+02 -0.31953724800E+02 -0.10190087027E+04  0.10200713316E+04  0.00000000000E+00 0.  1.
<scales pt_clust_3="30.05630" pt_clust_4="126.92071" pt_clust_5="30.05630" pt_clust_6="46.54874"></scales>
<clustering>
<clus scale="   30.056">  3  5 -1 -1</clus>
<clus scale="   46.549">  2  6  1 -1</clus>
<clus scale="  126.921">  1  4  2 -1</clus>
<clus scale="  126.921">  1  3  2 -1</clus>
</clustering>
</event>
<event>
 6    0  0.2908518E+002  0.1164492E+03  0.7546771E-02  0.1249072E+00
         21   -1    0    0  503  501  0.00000000000E+00  0.00000000000E+00  0.37548041778E+03  0.37548041778E+03  0.00000000000E+00 0. -1.
         21   -1    0    0  504  502 -0.00000000000E+00 -0.00000000000E+00 -0.90711533438E+02  0.90711533438E+02  0.00000000000E+00 0. -1.
         21    1    1    2  503  506 -0.10754156154E+03  0.27202324715E+02  0.29191151672E+03  0.31227790111E+03  0.00000000000E+00 0. -1.
         21    1    1    2  504  501  0.18845513912E+02 -0.43292919306E+02  0.16627152699E+02  0.50058889955E+02  0.00000000000E+00 0. -1.
         21    1    1    2  505  502  0.40575542011E+02  0.30390623156E+02 -0.15234101258E+02  0.52934321819E+02  0.00000000000E+00 0. -1.
         21    1    1    2  506  505  0.48120505618E+02 -0.14300028566E+02 -0.85356838220E+01  0.50920838330E+02  0.00000000000E+00 0. -1.
<scales pt_clust_3="107.07671" pt_clust_4="47.21684" pt_clust_5="45.54735" pt_clust_6="45.54735"></scales>
<clustering>
<clus scale="   45.547">  5  6 -1 -1</clus>
<clus scale="   47.217">  2  4  1 -1</clus>
<clus scale="  107.077">  1  3  2 -1</clus>
<clus scale="  107.077">  1  3  2 -1</clus>
</clustering>
</event>
<event>
 6    0  0.2908518E+002  0.9448478E+02  0.7546771E-02  0.1292341E+00
         21   -1    0    0  506  501  0.00000000000E+00  0.00000000000E+00  0.73402312230E+03  0.73402312230E+03  0.00000000000E+00 0.  1.
         21   -1    0    0  503  502 -0.00000000000E+00 -0.00000000000E+00 -0.22277987674E+03  0.22277987674E+03  0.00000000000E+00 0.  1.
         21    1    1    2  503  505 -0.15928469909E+02  0.37213167784E+02 -0.71707800788E+02  0.82344062955E+02  0.00000000000E+00 0.  1.
         21    1    1    2  504  501 -0.98507426467E+02 -0.28302854439E+01 -0.42714951004E+02  0.10740712557E+03  0.00000000000E+00 0.  1.
         21    1    1    2  505  504  0.90607654992E+02  0.18974397145E+02 -0.38543649433E+02  0.10027655659E+03  0.00000000000E+00 0.  1.
         21    1    1    2  506  502  0.23828241384E+02 -0.53357279484E+02  0.66420964678E+03  0.66677525392E+03  0.00000000000E+00 0.  1.
<scales pt_clust_3="40.47883" pt_clust_4="14000.00000" pt_clust_5="94.48478" pt_clust_6="58.07994"></scales>
<clustering>
<clus scale="   40.479">  2  3  1 -1</clus>
<clus scale="   58.080">  1  6  2 -1</clus>
<clus scale="   94.485">  2  5  1 -1</clus>
<clus scale="   58.080">  1  3  2 -1</clus>
</clustering>
</event>
<event>
 6    0  0.2908518E+002  0.1211935E+03  0.7546771E-02  0.1241141E+00
         21   -1    0    0  504  501  0.00000000000E+00  0.00000000000E+00  0.12166714499E+04  0.12166714499E+04  0.00000000000E+00 0. -1.
         21   -1    0    0  506  502 -0.00000000000E+00 -0.00000000000E+00 -0.64622175620E+02  0.64622175620E+02  0.00000000000E+00 0. -1.
         21    1    1    2  503  505 -0.51834340443E+02 -0.48964057242E+01  0.96421716596E+02  0.10958066011E+03  0.00000000000E+00 0. -1.
         21    1    1    2  504  502  0.39721371524E+02 -0.31742239803E+02  0.92703374974E+03  0.92842712708E+03  0.00000000000E+00 0. -1.
         21    1    1    2  505  501 -0.91394647140E+02  0.23425764211E+02  0.94432499477E+02  0.13348874451E+03  0.00000000000E+00 0. -1.
         21    1    1    2  506  503  0.10350761606E+03  0.13212881317E+02  0.34161308471E+02  0.10979709382E+03  0.00000000000E+00 0. -1.
<scales pt_clust_3="31.51253" pt_clust_4="50.84641" pt_clust_5="31.51253" pt_clust_6="113.52680"></scales>
<clustering>
<clus scale="   31.513">  3  5 -1 -1</clus>
<clus scale="   50.846">  1  4  2 -1</clus>
<clus scale="  113.527">  2  6  1 -1</clus>
<clus scale="   50.846">  1  3  2 -1</clus>
</clustering>
</event>
<event>
 6    0  0.2908518E+002  0.1327498E+03  0.7546771E-02  0.1223432E+00
         21   -1    0    0  506  501  0.00000000000E+00  0.00000000000E+00  0.25530586216E+03  0.25530586216E+03  0.00000000000E+00 0.  1.
         21   -1    0    0  503  502 -0.00000000000E+00 -0.00000000000E+00 -0.10054990533E+04  0.10054990533E+04  0.00000000000E+00 0.  1.
         21    1    1    2  503  505 -0.11938158509E+03  0.66910581850E+02 -0.42978890232E+03  0.45105153739E+03  0.00000000000E+00 0. -1.
         21    1    1    2  504  502  0.33255291513E+02  0.36947193954E+01 -0.74215441141E+02  0.81409440907E+02  0.00000000000E+00 0. -1.
         21    1    1    2  505  501  0.25176410144E+02 -0.16593405735E+03 -0.45823221613E+03  0.48800074479E+03  0.00000000000E+00 0.  1.
         21    1    1    2  506  504  0.60949883437E+02  0.95328756109E+02  0.21204336844E+03  0.24034319239E+03  0.00000000000E+00 0.  1.
<scales pt_clust_3="14000.00000" pt_clust_4="33.45991" pt_clust_5="132.74985" pt_clust_6="113.46937"></scales>
<clustering>
<clus scale="   33.460">  2  4  1 -1</clus>
<clus scale="  113.469">  1  6  2 -1</clus>
<clus scale="  132.750">  1  5  2 -1</clus>
<clus scale="  113.469">  1  3  2 -1</clus>
</clustering>
</event>
<event>
 6    0  0.2908518E+002  0.2104939E+03  0.7546771E-02  0.1141175E+00
         21   -1    0    0  504  501  0.00000000000E+00  0.00000000000E+00  0.53264582853E+03  0.53264582853E+03  0.00000000000E+00 0. -1.
         21   -1    0    0  505  502 -0.00000000000E+00 -0.00000000000E+00 -0.54750368042E+03  0.54750368042E+03  0.00000000000E+00 0. -1.
         21    1    1    2  503  506  0.11242294012E+03  0.12685930847E+03 -0.34460519104E+03  0.38403767953E+03  0.00000000000E+00 0. -1.
         21    1    1    2  504  503  0.46052523661E+02 -0.17032680712E+02  0.40173019592E+03  0.40471977646E+03  0.00000000000E+00 0. -1.
         21    1    1    2  505  501 -0.15561181835E+03 -0.14811131977E+03 -0.58339088261E+01  0.21490936589E+03  0.00000000000E+00 0.  1.
         21    1    1    2  506  502 -0.28636454273E+01  0.38284692014E+02 -0.66148947947E+02  0.76482687075E+02  0.00000000000E+00 0. -1.
<scales pt_clust_3="30.41467" pt_clust_4="49.10140" pt_clust_5="200.55777" pt_clust_6="30.41467"></scales>
<clustering>
<clus scale="   30.415">  3  6 -1 -1</clus>
<clus scale="   49.101">  1  4  2 -1</clus>
<clus scale="  200.558">  1  5  2 -1</clus>
<clus scale="   49.101">  1  3  2 -1</clus>
</clustering>
</event>
<event>
 6    0  0.2908518E+002  0.1277039E+03  0.7546771E-02  0.1230903E+00
         21   -1    0    0  503  501  0.00000000000E+00  0.00000000000E+00  0.22503944577E+04  0.22503944577E+04  0.00000000000E+00 0. -1.
         21   -1    0    0  504  502 -0.00000000000E+00 -0.00000000000E+00 -0.31267024102E+03  0.31267024102E+03  0.00000000000E+00 0. -1.
         21    1    1    2  503  505 -0.33038536110E+02 -0.11768319673E+03  0.29082570502E+03  0.31546865195E+03  0.00000000000E+00 0. -1.
         21    1    1    2  504  506 -0.75341318454E+02  0.17919696026E+02 -0.25698771970E+02  0.81595690161E+02  0.00000000000E+00 0.  1.
         21    1    1    2  505  502  0.76975153473E+02  0.11196392133E+03 -0.22783297310E+03  0.26527147899E+03  0.00000000000E+00 0. -1.
         21    1    1    2  506  501  0.31404701092E+02 -0.12200420625E+02  0.19004302567E+04  0.19007288776E+04  0.00000000000E+00 0. -1.
<scales pt_clust_3="14000.00000" pt_clust_4="74.77745" pt_clust_5="127.70386" pt_clust_6="33.69133"></scales>
<clustering>
<clus scale="   33.691">  1  6  2 -1</clus>
<clus scale="   74.777">  2  4  1 -1</clus>
<clus scale="  127.704">  2  5  1 -1</clus>
<clus scale="   33.691">  1  3  2 -1</clus>
</clustering>
</event>
<event>
 6    0  0.2908518E+002  0.1736051E+03  0.7546771E-02  0.1174140E+00
         21   -1    0    0  503  501  0.00000000000E+00  0.00000000000E+00  0.23169070643E+03  0.23169070643E+03  0.00000000000E+00 0. -1.
         21   -1    0    0  505  502 -0.00000000000E+00 -0.00000000000E+00 -0.20266104978E+03  0.20266104978E+03  0.00000000000E+00 0. -1.
         21    1    1    2  503  502 -0.14439435095E+03 -0.84016489323E+02  0.12634228194E+03  0.20945374494E+03  0.00000000000E+00 0. -1.
         21    1    1    2  504  506  0.53558674944E+02  0.36715549180E+02 -0.84030369014E+01  0.65476516726E+02  0.00000000000E+00 0. -1.
         21    1    1    2  505  504  0.25989013780E+02 -0.20993679605E+02 -0.59878669498E+01  0.33941390237E+02  0.00000000000E+00 0. -1.
         21    1    1    2  506  501  0.64846662226E+02  0.68294619749E+02 -0.82921721442E+02  0.12548010430E+03  0.00000000000E+00 0. -1.
<scales pt_clust_3="164.50376" pt_clust_4="46.03165" pt_clust_5="33.40903" pt_clust_6="46.03165"></scales>
<clustering>
<clus scale="   33.409">  2  5  1 -1</clus>
<clus scale="   46.032">  4  6 -1 -1</clus>
<clus scale="  164.504">  1  3  2 -1</clus>
<clus scale="  164.504">  1  3  2 -1</clus>
</clustering>
</event>
<event>
 6    0  0.2908518E+002  0.8731097E+02  0.7546771E-02  0.1309497E+00
         21   -1    0    0  503  501  0.00000000000E+00  0.00000000000E+00  0.17754626309E+02  0.17754626309E+02  0.00000000000E+00 0.  1.
         21   -1    0    0  506  502 -0.00000000000E+00 -0.00000000000E+00 -0.13084986016E+04  0.13084986016E+04  0.00000000000E+00 0.  1.
         21    1    1    2  503  505 -0.93897849246E+01  0.34469587958E+02 -0.33750789064E+02  0.49147088595E+02  0.00000000000E+00 0. -1.
         21    1    1    2  504  502  0.37248999949E+02  0.56969672366E+01 -0.35961712431E+03  0.36158597806E+03  0.00000000000E+00 0.  1.
         21    1    1    2  505  504 -0.15260133081E+02  0.68850680362E+02 -0.30307694608E+03  0.31117346142E+03  0.00000000000E+00 0.  1.
         21    1    1    2  506  501 -0.12599081944E+02 -0.10901723556E+03 -0.59429911584E+03  0.60434669983E+03  0.00000000000E+00 0.  1.
<scales pt_clust_3="35.72563" pt_clust_4="37.44521" pt_clust_5="87.31097" pt_clust_6="14000.00000"></scales>
<clustering>
<clus scale="   35.726">  1  3  2 -1</clus>
<clus scale="   37.445">  2  4  1 -1</clus>
<clus scale="   87.311">  2  5  1 -1</clus>
<clus scale="   35.726">  1  3  2 -1</clus>
</clustering>
</event>
<event>
 6    0  0.2908518E+002  0.1586059E+03  0.7546771E-02  0.1190280E+00
         21   -1    0    0  505  501  0.00000000000E+00  0.00000000000E+00  0.33802401411E+03  0.33802401411E+03  0.00000000000E+00 0.  1.
         21   -1    0    0  506  502 -0.00000000000E+00 -0.00000000000E+00 -0.17029227825E+04  0.17029227825E+04  0.00000000000E+00 0.  1.
         21    1    1    2  503  501 -0.30259033494E+02  0.10426899968E+02  0.31363951796E+03  0.31526826129E+03  0.00000000000E+00 0.  1.
         21    1    1    2  504  503  0.41905882671E+02 -0.10968849936E+03 -0.86786405189E+03  0.87577147844E+03  0.00000000000E+00 0.  1.
         21    1    1    2  505  502 -0.10033625811E+02  0.13385914964E+03 -0.21658955898E+03  0.25481362335E+03  0.00000000000E+00 0.  1.
         21    1    1    2  506  504 -0.16132233659E+01 -0.34597550245E+02 -0.59408467546E+03  0.59509343349E+03  0.00000000000E+00 0.  1.
<scales pt_clust_3="32.00515" pt_clust_4="33.46432" pt_clust_5="146.45234" pt_clust_6="33.46432"></scales>
<clustering>
<clus scale="   32.005">  1  3  2 -1</clus>
<clus scale="   33.464">  4  6 -1 -1</clus>
<clus scale="  146.452">  1  5  2 -1</clus>
<clus scale="   32.005">  1  3  2 -1</clus>
</clustering>
</event>
<event>
 6    0  0.2908518E+002  0.1196307E+03  0.7546771E-02  0.1243708E+00
         21   -1    0    0  504  501  0.00000000000E+00  0.00000000000E+00  0.11693664629E+03  0.11693664629E+03  0.00000000000E+00 0. -1.
         21   -1    0    0  503  502 -0.00000000000E+00 -0.00000000000E+00 -0.14005980585E+04  0.14005980585E+04  0.00000000000E+00 0.  1.
         21    1    1    2  503  501  0.33682338417E+02 -0.55713526786E+02  0.95788586837E+02  0.11581860972E+03  0.00000000000E+00 0. -1.
         21    1    1    2  504  505  0.54272278077E+02 -0.45514271961E+02 -0.17291757039E+03  0.18686228959E+03  0.00000000000E+00 0. -1.
         21    1    1    2  505  506 -0.50227456979E+02  0.46197014249E+02 -0.42122346382E+03  0.42671555869E+03  0.00000000000E+00 0. -1.
         21    1    1    2  506  502 -0.37727159515E+02  0.55030784498E+02 -0.78530896479E+03  0.78813824675E+03  0.00000000000E+00 0.  1.
<scales pt_clust_3="65.10374" pt_clust_4="110.20579" pt_clust_5="46.02081" pt_clust_6="46.02081"></scales>
<clustering>
<clus scale="   46.021">  5  6 -1 -1</clus>
<clus scale="   65.104">  1  3  2 -1</clus>
<clus scale="  110.206">  1  4  2 -1</clus>
<clus scale="   65.104">  1  3  2 -1</clus>
</clustering>
</event>
<event>
 6    0  0.2908518E+002  0.1333800E+03  0.7546771E-02  0.1222525E+00
         21   -1    0    0  502  501  0.00000000000E+00  0.00000000000E+00  0.19670371976E+03  0.19670371976E+03  0.00000000000E+00 0.  1.
         21   -1    0    0  505  502 -0.00000000000E+00 -0.00000000000E+00 -0.56417890057E+03  0.56417890057E+03  0.00000000000E+00 0.  1.
         21    1    1    2  503  504  0.13627280305E+03 -0.52349287817E+01 -0.13875400898E+03  0.19455168037E+03  0.00000000000E+00 0.  1.
         21    1    1    2  504  501 -0.24908770080E+02 -0.41950559588E+02  0.15414377789E+03  0.16168055090E+03  0.00000000000E+00 0.  1.
         21    1    1    2  505  506 -0.69976807969E+02  0.30463034643E+02 -0.15887041457E+03  0.17625140782E+03  0.00000000000E+00 0.  1.
         21    1    1    2  506  503 -0.41387224997E+02  0.16722453727E+02 -0.22399453515E+03  0.22839898124E+03  0.00000000000E+00 0.  1.
<scales pt_clust_3="123.54063" pt_clust_4="48.78828" pt_clust_5="38.45181" pt_clust_6="38.45181"></scales>
<clustering>
<clus scale="   38.452">  5  6 -1 -1</clus>
<clus scale="   48.788">  1  4  2 -1</clus>
<clus scale="  123.541">  1  3  2 -1</clus>
<clus scale="   48.788">  1  3  2 -1</clus>
</clustering>
</event>
<event>
 6    0  0.2908518E+002  0.1145466E+03  0.7546771E-02  0.1252375E+00
         21   -1    0    0  504  501  0.00000000000E+00  0.00000000000E+00  0.94241351764E+02  0.94241351764E+02  0.00000000000E+00 0.  1.
         21   -1    0    0  506  502 -0.00000000000E+00 -0.00000000000E+00 -0.20606347521E+03  0.20606347521E+03  0.00000000000E+00 0.  1.
         21    1    1    2  503  501 -0.36920798699E+01 -0.46194922795E+02  0.68337752246E+01  0.46843386188E+02  0.00000000000E+00 0.  1.
         21    1    1    2  504  502 -0.78575991090E+02 -0.45295750935E+02 -0.48447291572E+02  0.10282524733E+03  0.00000000000E+00 0.  1.
         21    1    1    2  505  503  0.33053374149E+02  0.26239185814E+02  0.10329569130E+01  0.42214777209E+02  0.00000000000E+00 0.  1.
         21    1    1    2  506  505  0.49214696811E+02  0.65251487915E+02 -0.71241564010E+02  0.10842141624E+03  0.00000000000E+00 0.  1.
<scales pt_clust_3="46.34223" pt_clust_4="102.45723" pt_clust_5="36.80534" pt_clust_6="36.80534"></scales>
<clustering>
<clus scale="   36.805">  5  6 -1 -1</clus>
<clus scale="   46.342">  1  3  2 -1</clus>
<clus scale="  102.457">  2  4  1 -1</clus>
<clus scale="   46.342">  1  3  2 -1</clus>
</clustering>
</event>
<event>
 6    0  0.2908518E+002  0.9135258E+02  0.7546771E-02  0.1299609E+00
         21   -1    0    0  505  501  0.00000000000E+00  0.00000000000E+00  0.56802031928E+03  0.56802031928E+03  0.00000000000E+00 0.  1.
         21   -1    0    0  503  502 -0.00000000000E+00 -0.00000000000E+00 -0.77492853041E+02  0.77492853041E+02  0.00000000000E+00 0.  1.
         21    1    1    2  503  504  0.12558386552E+02  0.40994975439E+02  0.35768628857E+02  0.55836331311E+02  0.00000000000E+00 0.  1.
         21    1    1    2  504  501 -0.35350776291E+02  0.74433401482E+02 -0.17514770596E+02  0.84242363628E+02  0.00000000000E+00 0.  1.
         21    1    1    2  505  506 -0.43694645999E+02 -0.66589132276E+02  0.34265569344E+03  0.35179007785E+03  0.00000000000E+00 0.  1.
         21    1    1    2  506  502  0.66487035738E+02 -0.48839244645E+02  0.12961791454E+03  0.15364439953E+03  0.00000000000E+00 0.  1.
<scales pt_clust_3="42.87541" pt_clust_4="91.35258" pt_clust_5="76.86237" pt_clust_6="14000.00000"></scales>
<clustering>
<clus scale="   42.875">  2  3  1 -1</clus>
<clus scale="   76.862">  1  5  2 -1</clus>
<clus scale="   91.353">  2  4  1 -1</clus>
<clus scale="   76.862">  1  3  2 -1</clus>
</clustering>
</event>
<event>
 6    0  0.2908518E+002  0.1626071E+03  0.7546771E-02  0.1185784E+00
         21   -1    0    0  504  501  0.00000000000E+00  0.00000000000E+00  0.16934117174E+03  0.16934117174E+03  0.00000000000E+00 0. -1.
         21   -1    0    0  503  502 -0.00000000000E+00 -0.00000000000E+00 -0.55690664962E+03  0.55690664962E+03  0.00000000000E+00 0.  1.
         21    1    1    2  503  505  0.79662532793E+02 -0.99769128821E+01 -0.16317838437E+03  0.18185940462E+03  0.00000000000E+00 0.  1.
         21    1    1    2  504  502 -0.73284227162E+01 -0.61131214085E+02 -0.14672870013E+03  0.15912272797E+03  0.00000000000E+00 0.  1.
         21    1    1    2  505  506  0.80543522433E+02  0.21858422709E+02 -0.17750496344E+03  0.19614551153E+03  0.00000000000E+00 0.  1.
         21    1    1    2  506  501 -0.15287763251E+03  0.49249704258E+02  0.99846570051E+02  0.18912017725E+03  0.00000000000E+00 0. -1.
<scales pt_clust_3="31.25426" pt_clust_4="61.56891" pt_clust_5="31.25426" pt_clust_6="159.45421"></scales>
<clustering>
<clus scale="   31.254">  3  5 -1 -1</clus>
<clus scale="   61.569">  2  4  1 -1</clus>
<clus scale="  159.454">  1  6  2 -1</clus>
<clus scale="  159.454">  1  3  2 -1</clus>
</clustering>
</event>
<event>
 6    0  0.2908518E+002  0.9043317E+02  0.7546771E-02  0.1301806E+00
         21   -1    0    0  505  501  0.00000000000E+00  0.00000000000E+00  0.47853063274E+02  0.47853063274E+02  0.00000000000E+00 0.  1.
         21   -1    0    0  504  502 -0.00000000000E+00 -0.00000000000E+00 -0.12850757760E+04  0.12850757760E+04  0.00000000000E+00 0.  1.
         21    1    1    2  503  501 -0.10646142935E+03  0.16651728028E+02 -0.34287280324E+02  0.11307932428E+03  0.00000000000E+00 0.  1.
         21    1    1    2  504  506  0.22711115066E+02 -0.45325757126E+02 -0.32129657215E+03  0.32527174222E+03  0.00000000000E+00 0.  1.
         21    1    1    2  505  502  0.25344535906E+02  0.20629836230E+02 -0.74556244706E+03  0.74627829803E+03  0.00000000000E+00 0.  1.
         21    1    1    2  506  503  0.58405778382E+02  0.80441928681E+01 -0.13607641324E+03  0.14829947481E+03  0.00000000000E+00 0. -1.
<scales pt_clust_3="14000.00000" pt_clust_4="50.23052" pt_clust_5="32.67928" pt_clust_6="90.43317"></scales>
<clustering>
<clus scale="   32.679">  2  5  1 -1</clus>
<clus scale="   50.231">  2  4  1 -1</clus>
<clus scale="   90.433">  2  6  1 -1</clus>
<clus scale="   90.433">  1  3  2 -1</clus>
</clustering>
</event>
<event>
 6    0  0.2908518E+002  0.1911899E+03  0.7546771E-02  0.1157392E+00
         21   -1    0    0  503  501  0.00000000000E+00  0.00000000000E+00  0.23186904178E+02  0.23186904178E+02  0.00000000000E+00 0. -1.
         21   -1    0    0  504  502 -0.00000000000E+00 -0.00000000000E+00 -0.31301481111E+04  0.31301481111E+04  0.00000000000E+00 0. -1.
         21    1    1    2  503  505  0.32953425285E+02 -0.44557137355E+02 -0.72910980207E+03  0.73121294450E+03  0.00000000000E+00 0. -1.
         21    1    1    2  504  501 -0.15837726175E+03  0.48340407498E+02 -0.32445455708E+03  0.36426763739E+03  0.00000000000E+00 0. -1.
         21    1    1    2  505  506  0.61747200468E+02 -0.20618647337E+02 -0.76056337623E+03  0.76334428317E+03  0.00000000000E+00 0. -1.
         21    1    1    2  506  502  0.63676636001E+02  0.16835377194E+02 -0.12928334715E+04  0.12945101502E+04  0.00000000000E+00 0. -1.
<scales pt_clust_3="34.01408" pt_clust_4="165.59031" pt_clust_5="62.00271" pt_clust_6="62.00271"></scales>
<clustering>
<clus scale="   34.014">  3  5 -1 -1</clus>
<clus scale="   62.003">  3  6 -1 -1</clus>
<clus scale="  165.590">  1  4  2 -1</clus>
<clus scale="  165.590">  1  3  2 -1</clus>
</clustering>
</event>
<event>
 6    0  0.2908518E+002  0.1669732E+03  0.7546771E-02  0.1181042E+00
         21   -1    0    0  505  501  0.00000000000E+00  0.00000000000E+00  0.36006379091E+03  0.36006379091E+03  0.00000000000E+00 0. -1.
         21   -1    0    0  504  502 -0.00000000000E+00 -0.00000000000E+00 -0.17949750521E+03  0.17949750521E+03  0.00000000000E+00 0. -1.
         21    1    1    2  503  506  0.18646841768E+02 -0.36427114316E+02 -0.25200571979E+02  0.48059423565E+02  0.00000000000E+00 0.  1.
         21    1    1    2  504  501 -0.12882972105E+03  0.51083295803E+02  0.30254689759E+03  0.33277804222E+03  0.00000000000E+00 0. -1.
         21    1    1    2  505  503  0.70331502836E+02 -0.95274327517E+01 -0.22816642929E+02  0.74551267330E+02  0.00000000000E+00 0. -1.
         21    1    1    2  506  502  0.39851376450E+02 -0.51287487356E+01 -0.73963396994E+02  0.84172563008E+02  0.00000000000E+00 0. -1.
<scales pt_clust_3="39.44694" pt_clust_4="138.58788" pt_clust_5="39.44694" pt_clust_6="38.96669"></scales>
<clustering>
<clus scale="   39.447">  3  5 -1 -1</clus>
<clus scale="   38.967">  3  6 -1 -1</clus>
<clus scale="  138.588">  1  4  2 -1</clus>
<clus scale="  138.588">  1  3  2 -1</clus>
</clustering>
</event>
<event>
 6    0  0.2908518E+002  0.2696855E+03  0.7546771E-02  0.1101460E+00
         21   -1    0    0  505  501  0.00000000000E+00  0.00000000000E+00  0.25398501043E+04  0.25398501043E+04  0.00000000000E+00 0. -1.
         21   -1    0    0  504  502 -0.00000000000E+00 -0.00000000000E+00 -0.28883166035E+02  0.28883166035E+02  0.00000000000E+00 0.  1.
         21    1    1    2  503  506 -0.63688989023E+02 -0.12062786479E+02  0.12081540432E+03  0.13710638228E+03  0.00000000000E+00 0.  1.
         21    1    1    2  504  501  0.22424086408E+03  0.18714139246E+02  0.16824064312E+04  0.16973878708E+04  0.00000000000E+00 0. -1.
         21    1    1    2  505  503 -0.12586615026E+03  0.41786211922E+02  0.54585331780E+03  0.56173322836E+03  0.00000000000E+00 0.  1.
         21    1    1    2  506  502 -0.34685724794E+02 -0.48437564688E+02  0.16189178495E+03  0.17250578893E+03  0.00000000000E+00 0. -1.
<scales pt_clust_3="122.51879" pt_clust_4="225.02041" pt_clust_5="122.51879" pt_clust_6="48.86920"></scales>
<clustering>
<clus scale="   48.869">  3  6 -1 -1</clus>
<clus scale="  122.519">  3  5 -1 -1</clus>
<clus scale="  225.020">  1  4  2 -1</clus>
<clus scale="  225.020">  1  3  2 -1</clus>
</clustering>
</event>
<event>
 6    0  0.2908518E+002  0.1367296E+03  0.7546771E-02  0.1217799E+00
         21   -1    0    0  506  501  0.00000000000E+00  0.00000000000E+00  0.11724261966E+04  0.11724261966E+04  0.00000000000E+00 0. -1.
         21   -1    0    0  504  502 -0.00000000000E+00 -0.00000000000E+00 -0.36681639408E+03  0.36681639408E+03  0.00000000000E+00 0.  1.
         21    1    1    2  503  502 -0.15713111536E+03 -0.18092386950E+02 -0.28007433883E+03  0.32165067566E+03  0.00000000000E+00 0.  1.
         21    1    1    2  504  501  0.20101826773E+02 -0.30613860573E+02 -0.24770093323E+02  0.44213679128E+02  0.00000000000E+00 0.  1.
         21    1    1    2  505  503  0.52318736520E+02  0.11161216198E+03  0.10362751966E+03  0.16103784563E+03  0.00000000000E+00 0. -1.
         21    1    1    2  506  505  0.84710552066E+02 -0.62905914457E+02  0.10068267150E+04  0.10123403903E+04  0.00000000000E+00 0. -1.
<scales pt_clust_3="136.72960" pt_clust_4="36.62365" pt_clust_5="14000.00000" pt_clust_6="105.79852"></scales>
<clustering>
<clus scale="   36.624">  2  4  1 -1</clus>
<clus scale="  105.799">  1  6  2 -1</clus>
<clus scale="  136.730">  2  3  1 -1</clus>
<clus scale="  105.799">  1  3  2 -1</clus>
</clustering>
</event>
<event>
 6    0  0.2908518E+002  0.1392599E+03  0.7546771E-02  0.1214328E+00
         21   -1    0    0  504  501  0.00000000000E+00  0.00000000000E+00  0.48068270184E+02  0.48068270184E+02  0.00000000000E+00 0.  1.
         21   -1    0    0  505  502 -0.00000000000E+00 -0.00000000000E+00 -0.65577813928E+03  0.65577813928E+03  0.00000000000E+00 0.  1.
         21    1    1    2  503  501  0.25320074406E+02 -0.25139336813E+02 -0.55080749633E+02  0.65627596356E+02  0.00000000000E+00 0.  1.
         21    1    1    2  504  502  0.79786026552E+02  0.11033013410E+03 -0.11324245616E+03  0.17709433193E+03  0.00000000000E+00 0.  1.
         21    1    1    2  505  506 -0.64958392748E+02 -0.44673802706E+02 -0.30723326224E+03  0.31718704081E+03  0.00000000000E+00 0.  1.
         21    1    1    2  506  503 -0.40147708210E+02 -0.40516994585E+02 -0.13215340107E+03  0.14393744036E+03  0.00000000000E+00 0.  1.
<scales pt_clust_3="35.68042" pt_clust_4="134.62141" pt_clust_5="30.31710" pt_clust_6="30.31710"></scales>
<clustering>
<clus scale="   30.317">  5  6 -1 -1</clus>
<clus scale="   35.680">  1  3  2 -1</clus>
<clus scale="  134.621">  1  4  2 -1</clus>
<clus scale="   35.680">  1  3  2 -1</clus>
</clustering>
</event>
<event>
 6    0  0.2908518E+002  0.1893605E+03  0.7546771E-02  0.1159039E+00
         21   -1    0    0  503  501  0.00000000000E+00  0.00000000000E+00  0.26363054044E+03  0.26363054044E+03  0.00000000000E+00 0.  1.
         21   -1    0    0  505  502 -0.00000000000E+00 -0.00000000000E+00 -0.35631853491E+03  0.35631853491E+03  0.00000000000E+00 0.  1.
         21    1    1    2  503  502  0.13653046337E+03  0.45996713793E+02 -0.41602755779E+01  0.14413040277E+03  0.00000000000E+00 0.  1.
         21    1    1    2  504  506 -0.57731230369E+02 -0.54558695331E+02 -0.55241520708E+02  0.96753148818E+02  0.00000000000E+00 0.  1.
         21    1    1    2  505  504 -0.11221971582E+03 -0.21076646035E+02 -0.18693872424E+03  0.21905153788E+03  0.00000000000E+00 0.  1.
         21    1    1    2  506  501  0.33420482810E+02  0.29638627573E+02  0.15365252606E+03  0.16001398589E+03  0.00000000000E+00 0.  1.
<scales pt_clust_3="171.40623" pt_clust_4="64.99981" pt_clust_5="64.99981" pt_clust_6="44.66964"></scales>
<clustering>
<clus scale="   44.670">  1  6  2 -1</clus>
<clus scale="   65.000">  4  5 -1 -1</clus>
<clus scale="  171.406">  1  3  2 -1</clus>
<clus scale="   44.670">  1  3  2 -1</clus>
</clustering>
</event>
<event>
 6    0  0.2908518E+002  0.1060577E+03  0.7546771E-02  0.1268050E+00
         21   -1    0    0  506  501  0.00000000000E+00  0.00000000000E+00  0.87801193917E+03  0.87801193917E+03  0.00000000000E+00 0. -1.
         21   -1    0    0  505  502 -0.00000000000E+00 -0.00000000000E+00 -0.35361534588E+03  0.35361534588E+03  0.00000000000E+00 0.  1.
         21    1    1    2  503  501 -0.76894684033E+01  0.10619782994E+03  0.79661105945E+03  0.80369539444E+03  0.00000000000E+00 0. -1.
         21    1    1    2  504  502  0.74737258338E+02  0.34986877256E+02 -0.63135131914E+02  0.10390276342E+03  0.00000000000E+00 0.  1.
         21    1    1    2  505  503 -0.10689505398E+03 -0.59824532118E+02 -0.34368905681E+02  0.12722715467E+03  0.00000000000E+00 0.  1.
         21    1    1    2  506  504  0.39847264041E+02 -0.81360175083E+02 -0.17471042856E+03  0.19680197252E+03  0.00000000000E+00 0.  1.
<scales pt_clust_3="106.05765" pt_clust_4="82.52114" pt_clust_5="97.89220" pt_clust_6="14000.00000"></scales>
<clustering>
<clus scale="   82.521">  2  4  1 -1</clus>
<clus scale="   97.892">  2  5  1 -1</clus>
<clus scale="  106.058">  1  3  2 -1</clus>
<clus scale="  106.058">  1  3  2 -1</clus>
</clustering>
</event>
<event>
 6    0  0.2908518E+002  0.1142755E+03  0.7546771E-02  0.1252851E+00
         21   -1    0    0  505  501  0.00000000000E+00  0.00000000000E+00  0.16566150743E+03  0.16566150743E+03  0.00000000000E+00 0.  1.
         21   -1    0    0  506  502 -0.00000000000E+00 -0.00000000000E+00 -0.44886404251E+03  0.44886404251E+03  0.00000000000E+00 0. -1.
         21    1    1    2  503  501 -0.96395633423E+02  0.71207386443E+02  0.12699786392E+03  0.17461691633E+03  0.00000000000E+00 0.  1.
         21    1    1    2  504  502  0.29787215916E+02  0.11015173275E+02 -0.64590349323E+02  0.71975867483E+02  0.00000000000E+00 0. -1.
         21    1    1    2  505  504  0.39208894394E+02 -0.35343395240E+02 -0.73700632144E+02  0.90654708456E+02  0.00000000000E+00 0. -1.
         21    1    1    2  506  503  0.27399523112E+02 -0.46879164479E+02 -0.27190941753E+03  0.27727805768E+03  0.00000000000E+00 0. -1.
<scales pt_clust_3="114.27548" pt_clust_4="31.75866" pt_clust_5="56.30066" pt_clust_6="14000.00000"></scales>
<clustering>
<clus scale="   31.759">  2  4  1 -1</clus>
<clus scale="   56.301">  2  5  1 -1</clus>
<clus scale="  114.275">  1  3  2 -1</clus>
<clus scale="  114.275">  1  3  2 -1</clus>
</clustering>
</event>
<event>
 6    0  0.2908518E+002  0.1748384E+03  0.7546771E-02  0.1172894E+00
         21   -1    0    0  503  501  0.00000000000E+00  0.00000000000E+00  0.68927705453E+03  0.68927705453E+03  0.00000000000E+00 0. -1.
         21   -1    0    0  506  502 -0.00000000000E+00 -0.00000000000E+00 -0.70336170622E+02  0.70336170622E+02  0.00000000000E+00 0. -1.
         21    1    1    2  503  505  0.23340620100E+02  0.22821088612E+02  0.14729463978E+03  0.15086847763E+03  0.00000000000E+00 0. -1.
         21    1    1    2  504  502 -0.31838212657E+02 -0.20202590230E+01  0.38930873036E+02  0.50332555142E+02  0.00000000000E+00 0.  1.
         21    1    1    2  505  504 -0.32351108823E+02  0.16017891220E+03  0.24486684800E+03  0.29438690767E+03  0.00000000000E+00 0. -1.
         21    1    1    2  506  501  0.40848701380E+02 -0.18097974179E+03  0.18784852309E+03  0.26402528472E+03  0.00000000000E+00 0. -1.
<scales pt_clust_3="31.98009" pt_clust_4="31.90224" pt_clust_5="14000.00000" pt_clust_6="174.83844"></scales>
<clustering>
<clus scale="   31.902">  2  4  1 -1</clus>
<clus scale="   31.980">  1  3  2 -1</clus>
<clus scale="  174.838">  2  6  1 -1</clus>
<clus scale="   31.980">  1  3  2 -1</clus>
</clustering>
</event>
<event>
 6    0  0.2908518E+002  0.9792292E+02  0.7546771E-02  0.1284725E+00
         21   -1    0    0  504  501  0.00000000000E+00  0.00000000000E+00  0.10240691123E+03  0.10240691123E+03  0.00000000000E+00 0. -1.
         21   -1    0    0  505  502 -0.00000000000E+00 -0.00000000000E+00 -0.54472576914E+03  0.54472576914E+03  0.00000000000E+00 0. -1.
         21    1    1    2  503  502 -0.41676321289E+02 -0.43951921622E+01 -0.18941511497E+03  0.19399566812E+03  0.00000000000E+00 0. -1.
         21    1    1    2  504  506  0.76912838126E+02 -0.70700263140E+02 -0.23562660890E+03  0.25774795964E+03  0.00000000000E+00 0. -1.
         21    1    1    2  505  501  0.46824727694E+01  0.10128527054E+03  0.49873727439E+02  0.11299566482E+03  0.00000000000E+00 0. -1.
         21    1    1    2  506  503 -0.39918989607E+02 -0.26189815235E+02 -0.67150861487E+02  0.82393387791E+02  0.00000000000E+00 0.  1.
<scales pt_clust_3="41.90744" pt_clust_4="14000.00000" pt_clust_5="97.92292" pt_clust_6="55.78296"></scales>
<clustering>
<clus scale="   41.907">  2  3  1 -1</clus>
<clus scale="   55.783">  2  6  1 -1</clus>
<clus scale="   97.923">  1  5  2 -1</clus>
<clus scale="   97.923">  1  3  2 -1</clus>
</clustering>
</event>
<event>
 6    0  0.2908518E+002  0.6932085E+02  0.7546771E-02  0.1362418E+00
         21   -1    0    0  503  501  0.00000000000E+00  0.00000000000E+00  0.26138549924E+03  0.26138549924E+03  0.00000000000E+00 0.  1.
         21   -1    0    0  505  502 -0.00000000000E+00 -0.00000000000E+00 -0.22861509757E+03  0.22861509757E+03  0.00000000000E+00 0.  1.
         21    1    1    2  503  506 -0.53184119271E+02  0.40573700292E+02  0.19099005202E+03  0.20236594493E+03  0.00000000000E+00 0.  1.
         21    1    1    2  504  502  0.71033137298E+01  0.34035527974E+02 -0.11900799964E+03  0.12398297548E+03  0.00000000000E+00 0.  1.
         21    1    1    2  505  501  0.32949105154E+02 -0.10972259096E+03 -0.79492732629E+01  0.11483850157E+03  0.00000000000E+00 0.  1.
         21    1    1    2  506  504  0.13131700388E+02  0.35113362690E+02 -0.31262377438E+02  0.48813174836E+02  0.00000000000E+00 0.  1.
<scales pt_clust_3="14000.00000" pt_clust_4="34.76887" pt_clust_5="69.32085" pt_clust_6="50.37241"></scales>
<clustering>
<clus scale="   34.769">  2  4  1 -1</clus>
<clus scale="   50.372">  2  6  1 -1</clus>
<clus scale="   69.321">  2  5  1 -1</clus>
<clus scale="   69.321">  1  3  2 -1</clus>
</clustering>
</event>
<event>
 6    0  0.2908518E+002  0.1251011E+03  0.7546771E-02  0.1234911E+00
         21   -1    0    0  505  501  0.00000000000E+00  0.00000000000E+00  0.63631746003E+02  0.63631746003E+02  0.00000000000E+00 0. -1.
         21   -1    0    0  503  502 -0.00000000000E+00 -0.00000000000E+00 -0.16379244689E+04  0.16379244689E+04  0.00000000000E+00 0.  1.
         21    1    1    2  503  501 -0.21803747897E+02  0.22818739364E+02  0.41304021143E+02  0.51981924273E+02  0.00000000000E+00 0. -1.
         21    1    1    2  504  506 -0.95640723727E+01  0.50153136233E+02 -0.10050260117E+03  0.11272790869E+03  0.00000000000E+00 0. -1.
         21    1    1    2  505  504  0.29233293817E+02  0.49192369956E+02 -0.90840028475E+02  0.10736100550E+03  0.00000000000E+00 0. -1.
         21    1    1    2  506  502  0.21345264528E+01 -0.12216424555E+03 -0.14242541144E+04  0.14294853764E+04  0.00000000000E+00 0.  1.
<scales pt_clust_3="31.56102" pt_clust_4="38.93647" pt_clust_5="38.93647" pt_clust_6="118.65732"></scales>
<clustering>
<clus scale="   31.561">  1  3  2 -1</clus>
<clus scale="   38.936">  4  5 -1 -1</clus>
<clus scale="  118.657">  2  6  1 -1</clus>
<clus scale="   31.561">  1  3  2 -1</clus>
</clustering>
</event>
<event>
 6    0  0.2908518E+002  0.1624711E+03  0.7546771E-02  0.1185935E+00
         21   -1    0    0  504  501  0.00000000000E+00  0.00000000000E+00  0.71263775454E+02  0.71263775454E+02  0.00000000000E+00 0. -1.
         21   -1    0    0  506  502 -0.00000000000E+00 -0.00000000000E+00 -0.78188549037E+03  0.78188549037E+03  0.00000000000E+00 0. -1.
         21    1    1    2  503  505 -0.31447500896E+02  0.62314394829E+02 -0.19654870642E+03  0.20857474227E+03  0.00000000000E+00 0. -1.
         21    1    1    2  504  502  0.53961555460E+02 -0.17019549239E+03 -0.96434717983E+02  0.20292365542E+03  0.00000000000E+00 0. -1.
         21    1    1    2  505  501 -0.45939451161E+02  0.30418680564E+02 -0.10345092407E+03  0.11720845956E+03  0.00000000000E+00 0. -1.
         21    1    1    2  506  503  0.23425396596E+02  0.77462417000E+02 -0.31418736644E+03  0.32444240857E+03  0.00000000000E+00 0. -1.
<scales pt_clust_3="34.94208" pt_clust_4="157.63919" pt_clust_5="34.94208" pt_clust_6="80.92697"></scales>
<clustering>
<clus scale="   34.942">  3  5 -1 -1</clus>
<clus scale="   80.927">  2  6  1 -1</clus>
<clus scale="  157.639">  1  4  2 -1</clus>
<clus scale="  157.639">  1  3  2 -1</clus>
</clustering>
</event>
<event>
 6    0  0.2908518E+002  0.1180999E+03  0.7546771E-02  0.1246265E+00
         21   -1    0    0  503  501  0.00000000000E+00  0.00000000000E+00  0.12900812500E+03  0.12900812500E+03  0.00000000000E+00 0. -1.
         21   -1    0    0  505  502 -0.00000000000E+00 -0.00000000000E+00 -0.29739117337E+03  0.29739117337E+03  0.00000000000E+00 0. -1.
         21    1    1    2  503  502  0.14113110110E+03 -0.58683199772E+02 -0.18441005442E+03  0.23951779434E+03  0.00000000000E+00 0. -1.
         21    1    1    2  504  501 -0.53750150952E+02 -0.11392160465E+02  0.31392659302E+02  0.63280005574E+02  0.00000000000E+00 0. -1.
         21    1    1    2  505  506 -0.36535540917E+02  0.47219613920E+02 -0.28758483963E+02  0.66269058305E+02  0.00000000000E+00 0. -1.
         21    1    1    2  506  504 -0.50845409235E+02  0.22855746317E+02  0.13392830696E+02  0.57332440154E+02  0.00000000000E+00 0. -1.
<scales pt_clust_3="111.70324" pt_clust_4="38.06346" pt_clust_5="59.70375" pt_clust_6="38.06346"></scales>
<clustering>
<clus scale="   38.063">  4  6 -1 -1</clus>
<clus scale="   59.704">  2  5  1 -1</clus>
<clus scale="  111.703">  2  3  1 -1</clus>
<clus scale="  118.100">  1  3  2 -1</clus>
</clustering>
</event>
<event>
 6    0  0.2908518E+002  0.1928015E+03  0.7546771E-02  0.1155959E+00
         21   -1    0    0  504  501  0.00000000000E+00  0.00000000000E+00  0.45873841114E+03  0.45873841114E+03  0.00000000000E+00 0.  1.
         21   -1    0    0  505  502 -0.00000000000E+00 -0.00000000000E+00 -0.10540778482E+04  0.10540778482E+04  0.00000000000E+00 0. -1.
         21    1    1    2  503  502  0.10019390037E+03 -0.28060489685E+02 -0.67433714582E+03  0.68231722460E+03  0.00000000000E+00 0. -1.
         21    1    1    2  504  503  0.72106681290E+02  0.14413663123E+02 -0.27727278225E+03  0.28685767019E+03  0.00000000000E+00 0. -1.
         21    1    1    2  505  506  0.61403711756E+01  0.53529074039E+02 -0.64984793250E+02  0.84416167168E+02  0.00000000000E+00 0. -1.
         21    1    1    2  506  501 -0.17844095284E+03 -0.39882247477E+02  0.42125528430E+03  0.45922519734E+03  0.00000000000E+00 0.  1.
<scales pt_clust_3="52.26197" pt_clust_4="52.26197" pt_clust_5="53.88011" pt_clust_6="182.50373"></scales>
<clustering>
<clus scale="   52.262">  3  4 -1 -1</clus>
<clus scale="   53.880">  2  5  1 -1</clus>
<clus scale="  182.504">  1  6  2 -1</clus>
<clus scale="  182.504">  1  3  2 -1</clus>
</clustering>
</event>
<event>
 6    0  0.2908518E+002  0.1031524E+03  0.7546771E-02  0.1273803E+00
         21   -1    0    0  502  501  0.00000000000E+00  0.00000000000E+00  0.18996452592E+03  0.18996452592E+03  0.00000000000E+00 0.  1.
         21   -1    0    0  505  502 -0.00000000000E+00 -0.00000000000E+00 -0.76598913722E+03  0.76598913722E+03  0.00000000000E+00 0. -1.
         21    1    1    2  503  501  0.28630507539E+02  0.80853262409E+02  0.16039685801E+03  0.18189037375E+03  0.00000000000E+00 0.  1.
         21    1    1    2  504  503  0.45460501732E+02 -0.29544822688E+02 -0.95955715697E+02  0.11021367039E+03  0.00000000000E+00 0. -1.
         21    1    1    2  505  506 -0.95157861422E+02  0.12677471096E+02 -0.48510928288E+03  0.49451668647E+03  0.00000000000E+00 0. -1.
         21    1    1    2  506  504  0.21066852151E+02 -0.63985910817E+02 -0.15535647073E+03  0.16933293253E+03  0.00000000000E+00 0. -1.
<scales pt_clust_3="85.77270" pt_clust_4="38.21595" pt_clust_5="93.94585" pt_clust_6="38.21595"></scales>
<clustering>
<clus scale="   38.216">  4  6 -1 -1</clus>
<clus scale="   85.773">  1  3  2 -1</clus>
<clus scale="   93.946">  2  5  1 -1</clus>
<clus scale="   85.773">  1  3  2 -1</clus>
</clustering>
</event>
<event>
 6    0  0.2908518E+002  0.1268560E+03  0.7546771E-02  0.1232197E+00
         21   -1    0    0  504  501  0.00000000000E+00  0.00000000000E+00  0.36629332161E+02  0.36629332161E+02  0.00000000000E+00 0.  1.
         21   -1    0    0  506  502 -0.00000000000E+00 -0.00000000000E+00 -0.75623122081E+03  0.75623122081E+03  0.00000000000E+00 0.  1.
         21    1    1    2  503  502 -0.32894423052E+02  0.13239695401E+02 -0.18675838488E+03  0.19009478405E+03  0.00000000000E+00 0.  1.
         21    1    1    2  504  503 -0.48065594210E+02  0.59749597530E+02 -0.17565526893E+03  0.19166400094E+03  0.00000000000E+00 0.  1.
         21    1    1    2  505  501  0.10719290478E+03 -0.54806210537E+02 -0.11391244909E+03  0.16574101968E+03  0.00000000000E+00 0.  1.
         21    1    1    2  506  505 -0.26232887517E+02 -0.18183082394E+02 -0.24327578574E+03  0.24536074829E+03  0.00000000000E+00 0. -1.
<scales pt_clust_3="37.17105" pt_clust_4="37.17105" pt_clust_5="116.52594" pt_clust_6="31.91847"></scales>
<clustering>
<clus scale="   31.918">  2  6  1 -1</clus>
<clus scale="   37.171">  3  4 -1 -1</clus>
<clus scale="  116.526">  1  5  2 -1</clus>
<clus scale="  116.526">  1  3  2 -1</clus>
</clustering>
</event>
<event>
 6    0  0.2908518E+002  0.1239274E+03  0.7546771E-02  0.1236755E+00
         21   -1    0    0  504  501  0.00000000000E+00  0.00000000000E+00  0.61828704369E+03  0.61828704369E+03  0.00000000000E+00 0.  1.
         21   -1    0    0  503  502 -0.00000000000E+00 -0.00000000000E+00 -0.58647741472E+03  0.58647741472E+03  0.00000000000E+00 0. -1.
         21    1    1    2  503  505  0.70066073861E+02  0.97306111227E+01 -0.11231971070E+03  0.13273905571E+03  0.00000000000E+00 0. -1.
         21    1    1    2  504  502  0.18142224062E+02 -0.45112803844E+02 -0.37940319292E+03  0.38250632434E+03  0.00000000000E+00 0. -1.
         21    1    1    2  505  506  0.22825527653E+02  0.10072682496E+03 -0.40516389884E+02  0.11094357047E+03  0.00000000000E+00 0. -1.
         21    1    1    2  506  501 -0.11103382558E+03 -0.65344632237E+02  0.56404892248E+03  0.57857550789E+03  0.00000000000E+00 0.  1.
<scales pt_clust_3="82.68351" pt_clust_4="48.62412" pt_clust_5="123.92741" pt_clust_6="14000.00000"></scales>
<clustering>
<clus scale="   48.624">  2  4  1 -1</clus>
<clus scale="   82.684">  2  3  1 -1</clus>
<clus scale="  123.927">  2  5  1 -1</clus>
<clus scale="  123.927">  1  3  2 -1</clus>
</clustering>
</event>
<event>
 6    0  0.3320673E+002  0.9948296E+02  0.7546771E-02  0.1281387E+00
         21   -1    0    0  503  501  0.00000000000E+00  0.00000000000E+00  0.77153123895E+02  0.77153123895E+02  0.00000000000E+00 0.  1.
         21   -1    0    0  506  502 -0.00000000000E+00 -0.00000000000E+00 -0.14309514909E+04  0.14309514909E+04  0.00000000000E+00 0. -1.
         21    1    1    2  503  505 -0.75768489602E+02  0.66718891251E+02  0.30796551839E+02  0.10554952426E+03  0.00000000000E+00 0.  1.
         21    1    1    2  504  501  0.42208001527E+02  0.36109315838E+02 -0.13511395604E+03  0.14608620469E+03  0.00000000000E+00 0. -1.
         21    1    1    2  505  502  0.15443781082E+02 -0.67610197344E+02 -0.10877785338E+04  0.10899870585E+04  0.00000000000E+00 0. -1.
         21    1    1    2  506  504  0.18116706993E+02 -0.35218009744E+02 -0.16170242900E+03  0.16648182732E+03  0.00000000000E+00 0. -1.
<scales pt_clust_3="14000.00000" pt_clust_4="54.70078" pt_clust_5="99.48296" pt_clust_6="39.60459"></scales>
<clustering>
<clus scale="   39.605">  2  6  1 -1</clus>
<clus scale="   54.701">  2  4  1 -1</clus>
<clus scale="   99.483">  2  5  1 -1</clus>
<clus scale="   99.483">  1  3  2 -1</clus>
</clustering>
</event>
<event>
 6    0  0.2908518E+002  0.1580989E+03  0.7546771E-02  0.1190860E+00
         21   -1    0    0  503  501  0.00000000000E+00  0.00000000000E+00  0.11692314238E+04  0.11692314238E+04  0.00000000000E+00 0.  1.
         21   -1    0    0  506  502 -0.00000000000E+00 -0.00000000000E+00 -0.47606484498E+02  0.47606484498E+02  0.00000000000E+00 0.  1.
         21    1    1    2  503  502 -0.70940190184E+01 -0.40295724291E+02  0.64876149221E+02  0.76700620856E+02  0.00000000000E+00 0.  1.
         21    1    1    2  504  501  0.14442487290E+03  0.59520359744E+02  0.94436308201E+03  0.95719530285E+03  0.00000000000E+00 0.  1.
         21    1    1    2  505  504 -0.65352238593E+02  0.13192942677E+00  0.75251512527E+02  0.99668062247E+02  0.00000000000E+00 0.  1.
         21    1    1    2  506  505 -0.71978615290E+02 -0.19356564880E+02  0.37134195535E+02  0.83273922335E+02  0.00000000000E+00 0.  1.
<scales pt_clust_3="40.91541" pt_clust_4="152.92931" pt_clust_5="37.54687" pt_clust_6="37.54687"></scales>
<clustering>
<clus scale="   37.547">  5  6 -1 -1</clus>
<clus scale="   40.915">  2  3  1 -1</clus>
<clus scale="  152.929">  1  4  2 -1</clus>
<clus scale="  152.929">  1  3  2 -1</clus>
</clustering>
</event>
<event>
 6    0  0.2908518E+002  0.1199164E+03  0.7546771E-02  0.1243235E+00
         21   -1    0    0  504  501  0.00000000000E+00  0.00000000000E+00  0.82395811664E+03  0.82395811664E+03  0.00000000000E+00 0.  1.
         21   -1    0    0  505  502 -0.00000000000E+00 -0.00000000000E+00 -0.87383640645E+02  0.87383640645E+02  0.00000000000E+00 0.  1.
         21    1    1    2  503  501 -0.50533105016E+02  0.61227621728E+02  0.65605473124E+03  0.66084054563E+03  0.00000000000E+00 0.  1.
         21    1    1    2  504  502 -0.60368691526E+02 -0.22190857255E+02  0.10665693065E+03  0.12454924294E+03  0.00000000000E+00 0. -1.
         21    1    1    2  505  506  0.55563006448E+02 -0.57868903058E+01  0.11186644775E+01  0.55874745594E+02  0.00000000000E+00 0. -1.
         21    1    1    2  506  503  0.55338790093E+02 -0.33249874167E+02 -0.27255850368E+02  0.70077223121E+02  0.00000000000E+00 0.  1.
<scales pt_clust_3="114.11521" pt_clust_4="64.31806" pt_clust_5="34.27527" pt_clust_6="34.27527"></scales>
<clustering>
<clus scale="   34.275">  5  6 -1 -1</clus>
<clus scale="   64.318">  1  4  2 -1</clus>
<clus scale="  114.115">  1  3  2 -1</clus>
<clus scale="   64.318">  1  3  2 -1</clus>
</clustering>
</event>
<event>
 6    0  0.2908518E+002  0.5116979E+03  0.7546771E-02  0.1010770E+00
         21   -1    0    0  503  501  0.00000000000E+00  0.00000000000E+00  0.64017729689E+03  0.64017729689E+03  0.00000000000E+00 0. -1.
         21   -1    0    0  506  502 -0.00000000000E+00 -0.00000000000E+00 -0.10952855039E+04  0.10952855039E+04  0.00000000000E+00 0. -1.
         21    1    1    2  503  504  0.42093022880E+03  0.26249047052E+03  0.39045887671E+03  0.63130154367E+03  0.00000000000E+00 0. -1.
         21    1    1    2  504  502 -0.74901023919E+02  0.14490034402E+03 -0.19674039416E+03  0.25556419111E+03  0.00000000000E+00 0. -1.
         21    1    1    2  505  501 -0.22526567221E+03 -0.27953808662E+03 -0.34714690361E+03  0.49939677375E+03  0.00000000000E+00 0. -1.
         21    1    1    2  506  505 -0.12076353268E+03 -0.12785272792E+03 -0.30167978593E+03  0.34920029224E+03  0.00000000000E+00 0. -1.
<scales pt_clust_3="498.39478" pt_clust_4="163.11429" pt_clust_5="81.13381" pt_clust_6="81.13381"></scales>
<clustering>
<clus scale="   81.134">  5  6 -1 -1</clus>
<clus scale="  163.114">  2  4  1 -1</clus>
<clus scale="  498.395">  1  3  2 -1</clus>
<clus scale="  498.395">  1  3  2 -1</clus>
</clustering>
</event>
<event>
 6    0  0.2908518E+002  0.9616108E+02  0.7546771E-02  0.1288582E+00
         21   -1    0    0  505  501  0.00000000000E+00  0.00000000000E+00  0.35237442041E+03  0.35237442041E+03  0.00000000000E+00 0. -1.
         21   -1    0    0  503  502 -0.00000000000E+00 -0.00000000000E+00 -0.25167688287E+03  0.25167688287E+03  0.00000000000E+00 0.  1.
         21    1    1    2  503  506  0.29396279936E+01 -0.45628591902E+02 -0.13457927976E+03  0.14213441649E+03  0.00000000000E+00 0.  1.
         21    1    1    2  504  501 -0.35598866020E+02  0.92613181341E+02  0.30793649467E+03  0.32352645235E+03  0.00000000000E+00 0. -1.
         21    1    1    2  505  502  0.18821956393E+02  0.28161555897E+02 -0.46701415068E+02  0.57691953012E+02  0.00000000000E+00 0.  1.
         21    1    1    2  506  504  0.13837281634E+02 -0.75146145336E+02 -0.25958262303E+02  0.80698481421E+02  0.00000000000E+00 0. -1.
<scales pt_clust_3="30.60758" pt_clust_4="14000.00000" pt_clust_5="33.87240" pt_clust_6="96.16108"></scales>
<clustering>
<clus scale="   33.872">  2  5  1 -1</clus>
<clus scale="   30.608">  2  3  1 -1</clus>
<clus scale="   96.161">  2  6  1 -1</clus>
<clus scale="   96.161">  1  3  2 -1</clus>
</clustering>
</event>
<event>
 6    0  0.2908518E+002  0.1327158E+03  0.7546771E-02  0.1223481E+00
         21   -1    0    0  505  501  0.00000000000E+00  0.00000000000E+00  0.80830579950E+03  0.80830579950E+03  0.00000000000E+00 0. -1.
         21   -1    0    0  503  502 -0.00000000000E+00 -0.00000000000E+00 -0.22318063426E+03  0.22318063426E+03  0.00000000000E+00 0. -1.
         21    1    1    2  503  504  0.18339373515E+03  0.36448085306E+02 -0.13047420768E+03  0.22800272780E+03  0.00000000000E+00 0. -1.
         21    1    1    2  504  501 -0.58217609380E+02  0.36827885895E+02  0.59378701202E+03  0.59776968714E+03  0.00000000000E+00 0. -1.
         21    1    1    2  505  506 -0.86782001254E+02 -0.33501750964E+02  0.11805952212E+03  0.15030480306E+03  0.00000000000E+00 0. -1.
         21    1    1    2  506  502 -0.38394124513E+02 -0.39774220237E+02  0.37528387803E+01  0.55409215764E+02  0.00000000000E+00 0. -1.
<scales pt_clust_3="132.71580" pt_clust_4="69.00320" pt_clust_5="14000.00000" pt_clust_6="55.28198"></scales>
<clustering>
<clus scale="   55.282">  2  6  1 -1</clus>
<clus scale="   69.003">  1  4  2 -1</clus>
<clus scale="  132.716">  2  3  1 -1</clus>
<clus scale="   69.003">  1  3  2 -1</clus>
</clustering>
</event>
